<?xml version="1.0"?>
<VTKFile type="UnstructuredGrid"  version="0.1"  >
<UnstructuredGrid>
<Piece  NumberOfPoints="1091" NumberOfCells="2050">
<Points>
<DataArray  type="Float64"  NumberOfComponents="3"  format="ascii">-0.5 -1 0  -0.4 -1 0  -0.3 -1 0  -0.2 -1 0  -0.09999999999999998 -1 0  0 -1 0  0.09999999999999998 -1 0  0.2 -1 0  0.3 -1 0  0.4 -1 0  0.5 -1 0  -0.5 -0.98 0  -0.4 -0.98 0  -0.3 -0.98 0  -0.2 -0.98 0  -0.09999999999999998 -0.98 0  0 -0.98 0  0.09999999999999998 -0.98 0  0.2 -0.98 0  0.3 -0.98 0  0.4 -0.98 0  0.5 -0.98 0  -0.5 -0.96 0  -0.4 -0.96 0  -0.3 -0.96 0  -0.2 -0.96 0  -0.09999999999999998 -0.96 0  0 -0.96 0  0.09999999999999998 -0.96 0  0.2 -0.96 0  0.3 -0.96 0  0.4 -0.96 0  0.5 -0.96 0  -0.5 -0.9399999999999999 0  -0.4 -0.9399999999999999 0  -0.3 -0.9399999999999999 0  -0.2 -0.9399999999999999 0  -0.09999999999999998 -0.9399999999999999 0  0 -0.9399999999999999 0  0.09999999999999998 -0.9399999999999999 0  0.2 -0.9399999999999999 0  0.3 -0.9399999999999999 0  0.4 -0.9399999999999999 0  0.5 -0.9399999999999999 0  -0.5 -0.92 0  -0.4 -0.92 0  -0.3 -0.92 0  -0.2 -0.92 0  -0.09999999999999998 -0.92 0  0 -0.92 0  0.09999999999999998 -0.92 0  0.2 -0.92 0  0.3 -0.92 0  0.4 -0.92 0  0.5 -0.92 0  -0.5 -0.9 0  -0.4 -0.9 0  -0.3 -0.9 0  -0.2 -0.9 0  -0.09999999999999998 -0.9 0  0 -0.9 0  0.09999999999999998 -0.9 0  0.2 -0.9 0  0.3 -0.9 0  0.4 -0.9 0  0.5 -0.9 0  -0.5 -0.88 0  -0.4 -0.88 0  -0.3 -0.88 0  -0.2 -0.88 0  -0.09999999999999998 -0.88 0  0 -0.88 0  0.09999999999999998 -0.88 0  0.2 -0.88 0  0.3 -0.88 0  0.4 -0.88 0  0.5 -0.88 0  -0.5 -0.86 0  -0.4 -0.86 0  -0.3 -0.86 0  -0.2 -0.86 0  -0.09999999999999998 -0.86 0  0 -0.86 0  0.09999999999999998 -0.86 0  0.2 -0.86 0  0.3 -0.86 0  0.4 -0.86 0  0.5 -0.86 0  -0.5 -0.84 0  -0.4 -0.84 0  -0.3 -0.84 0  -0.2 -0.84 0  -0.09999999999999998 -0.84 0  0 -0.84 0  0.09999999999999998 -0.84 0  0.2 -0.84 0  0.3 -0.84 0  0.4 -0.84 0  0.5 -0.84 0  -0.5 -0.8200000000000001 0  -0.4 -0.8200000000000001 0  -0.3 -0.8200000000000001 0  -0.2 -0.8200000000000001 0  -0.09999999999999998 -0.8200000000000001 0  0 -0.8200000000000001 0  0.09999999999999998 -0.8200000000000001 0  0.2 -0.8200000000000001 0  0.3 -0.8200000000000001 0  0.4 -0.8200000000000001 0  0.5 -0.8200000000000001 0  -0.5 -0.8 0  -0.4 -0.8 0  -0.3 -0.8 0  -0.2 -0.8 0  -0.09999999999999998 -0.8 0  0 -0.8 0  0.09999999999999998 -0.8 0  0.2 -0.8 0  0.3 -0.8 0  0.4 -0.8 0  0.5 -0.8 0  -0.5 -0.78 0  -0.4 -0.78 0  -0.3 -0.78 0  -0.2 -0.78 0  -0.09999999999999998 -0.78 0  0 -0.78 0  0.09999999999999998 -0.78 0  0.2 -0.78 0  0.3 -0.78 0  0.4 -0.78 0  0.5 -0.78 0  -0.5 -0.76 0  -0.4 -0.76 0  -0.3 -0.76 0  -0.2 -0.76 0  -0.09999999999999998 -0.76 0  0 -0.76 0  0.09999999999999998 -0.76 0  0.2 -0.76 0  0.3 -0.76 0  0.4 -0.76 0  0.5 -0.76 0  -0.5 -0.74 0  -0.4 -0.74 0  -0.3 -0.74 0  -0.2 -0.74 0  -0.09999999999999998 -0.74 0  0 -0.74 0  0.09999999999999998 -0.74 0  0.2 -0.74 0  0.3 -0.74 0  0.4 -0.74 0  0.5 -0.74 0  -0.5 -0.72 0  -0.4 -0.72 0  -0.3 -0.72 0  -0.2 -0.72 0  -0.09999999999999998 -0.72 0  0 -0.72 0  0.09999999999999998 -0.72 0  0.2 -0.72 0  0.3 -0.72 0  0.4 -0.72 0  0.5 -0.72 0  -0.5 -0.7 0  -0.4 -0.7 0  -0.3 -0.7 0  -0.2 -0.7 0  -0.09999999999999998 -0.7 0  0 -0.7 0  0.09999999999999998 -0.7 0  0.2 -0.7 0  0.3 -0.7 0  0.4 -0.7 0  0.5 -0.7 0  -0.5 -0.6799999999999999 0  -0.4 -0.6799999999999999 0  -0.3 -0.6799999999999999 0  -0.2 -0.6799999999999999 0  -0.09999999999999998 -0.6799999999999999 0  0 -0.6799999999999999 0  0.09999999999999998 -0.6799999999999999 0  0.2 -0.6799999999999999 0  0.3 -0.6799999999999999 0  0.4 -0.6799999999999999 0  0.5 -0.6799999999999999 0  -0.5 -0.6599999999999999 0  -0.4 -0.6599999999999999 0  -0.3 -0.6599999999999999 0  -0.2 -0.6599999999999999 0  -0.09999999999999998 -0.6599999999999999 0  0 -0.6599999999999999 0  0.09999999999999998 -0.6599999999999999 0  0.2 -0.6599999999999999 0  0.3 -0.6599999999999999 0  0.4 -0.6599999999999999 0  0.5 -0.6599999999999999 0  -0.5 -0.64 0  -0.4 -0.64 0  -0.3 -0.64 0  -0.2 -0.64 0  -0.09999999999999998 -0.64 0  0 -0.64 0  0.09999999999999998 -0.64 0  0.2 -0.64 0  0.3 -0.64 0  0.4 -0.64 0  0.5 -0.64 0  -0.5 -0.62 0  -0.4 -0.62 0  -0.3 -0.62 0  -0.2 -0.62 0  -0.09999999999999998 -0.62 0  0 -0.62 0  0.09999999999999998 -0.62 0  0.2 -0.62 0  0.3 -0.62 0  0.4 -0.62 0  0.5 -0.62 0  -0.5 -0.6 0  -0.4 -0.6 0  -0.3 -0.6 0  -0.2 -0.6 0  -0.09999999999999998 -0.6 0  0 -0.6 0  0.09999999999999998 -0.6 0  0.2 -0.6 0  0.3 -0.6 0  0.4 -0.6 0  0.5 -0.6 0  -0.5 -0.5800000000000001 0  -0.4 -0.5800000000000001 0  -0.3 -0.5800000000000001 0  -0.2 -0.5800000000000001 0  -0.09999999999999998 -0.5800000000000001 0  0 -0.5800000000000001 0  0.09999999999999998 -0.5800000000000001 0  0.2 -0.5800000000000001 0  0.3 -0.5800000000000001 0  0.4 -0.5800000000000001 0  0.5 -0.5800000000000001 0  -0.5 -0.5600000000000001 0  -0.4 -0.5600000000000001 0  -0.3 -0.5600000000000001 0  -0.2 -0.5600000000000001 0  -0.09999999999999998 -0.5600000000000001 0  0 -0.5600000000000001 0  0.09999999999999998 -0.5600000000000001 0  0.2 -0.5600000000000001 0  0.3 -0.5600000000000001 0  0.4 -0.5600000000000001 0  0.5 -0.5600000000000001 0  -0.5 -0.54 0  -0.4 -0.54 0  -0.3 -0.54 0  -0.2 -0.54 0  -0.09999999999999998 -0.54 0  0 -0.54 0  0.09999999999999998 -0.54 0  0.2 -0.54 0  0.3 -0.54 0  0.4 -0.54 0  0.5 -0.54 0  -0.5 -0.52 0  -0.4 -0.52 0  -0.3 -0.52 0  -0.2 -0.52 0  -0.09999999999999998 -0.52 0  0 -0.52 0  0.09999999999999998 -0.52 0  0.2 -0.52 0  0.3 -0.52 0  0.4 -0.52 0  0.5 -0.52 0  -0.5 -0.5 0  -0.4 -0.5 0  -0.3 -0.5 0  -0.2 -0.5 0  -0.09999999999999998 -0.5 0  0 -0.5 0  0.09999999999999998 -0.5 0  0.2 -0.5 0  0.3 -0.5 0  0.4 -0.5 0  0.5 -0.5 0  -0.5 -0.48 0  -0.4 -0.48 0  -0.3 -0.48 0  -0.2 -0.48 0  -0.09999999999999998 -0.48 0  0 -0.48 0  0.09999999999999998 -0.48 0  0.2 -0.48 0  0.3 -0.48 0  0.4 -0.48 0  0.5 -0.48 0  -0.5 -0.46 0  -0.4 -0.46 0  -0.3 -0.46 0  -0.2 -0.46 0  -0.09999999999999998 -0.46 0  0 -0.46 0  0.09999999999999998 -0.46 0  0.2 -0.46 0  0.3 -0.46 0  0.4 -0.46 0  0.5 -0.46 0  -0.5 -0.4399999999999999 0  -0.4 -0.4399999999999999 0  -0.3 -0.4399999999999999 0  -0.2 -0.4399999999999999 0  -0.09999999999999998 -0.4399999999999999 0  0 -0.4399999999999999 0  0.09999999999999998 -0.4399999999999999 0  0.2 -0.4399999999999999 0  0.3 -0.4399999999999999 0  0.4 -0.4399999999999999 0  0.5 -0.4399999999999999 0  -0.5 -0.42 0  -0.4 -0.42 0  -0.3 -0.42 0  -0.2 -0.42 0  -0.09999999999999998 -0.42 0  0 -0.42 0  0.09999999999999998 -0.42 0  0.2 -0.42 0  0.3 -0.42 0  0.4 -0.42 0  0.5 -0.42 0  -0.5 -0.4 0  -0.4 -0.4 0  -0.3 -0.4 0  -0.2 -0.4 0  -0.09999999999999998 -0.4 0  0 -0.4 0  0.09999999999999998 -0.4 0  0.2 -0.4 0  0.3 -0.4 0  0.4 -0.4 0  0.5 -0.4 0  -0.5 -0.38 0  -0.4 -0.38 0  -0.3 -0.38 0  -0.2 -0.38 0  -0.09999999999999998 -0.38 0  0 -0.38 0  0.09999999999999998 -0.38 0  0.2 -0.38 0  0.3 -0.38 0  0.4 -0.38 0  0.5 -0.38 0  -0.5 -0.36 0  -0.4 -0.36 0  -0.3 -0.36 0  -0.2 -0.36 0  -0.09999999999999998 -0.36 0  0 -0.36 0  0.09999999999999998 -0.36 0  0.2 -0.36 0  0.3 -0.36 0  0.4 -0.36 0  0.5 -0.36 0  -0.5 -0.34 0  -0.4 -0.34 0  -0.3 -0.34 0  -0.2 -0.34 0  -0.09999999999999998 -0.34 0  0 -0.34 0  0.09999999999999998 -0.34 0  0.2 -0.34 0  0.3 -0.34 0  0.4 -0.34 0  0.5 -0.34 0  -0.5 -0.32 0  -0.4 -0.32 0  -0.3 -0.32 0  -0.2 -0.32 0  -0.09999999999999998 -0.32 0  0 -0.32 0  0.09999999999999998 -0.32 0  0.2 -0.32 0  0.3 -0.32 0  0.4 -0.32 0  0.5 -0.32 0  -0.5 -0.3 0  -0.4 -0.3 0  -0.3 -0.3 0  -0.2 -0.3 0  -0.09999999999999998 -0.3 0  0 -0.3 0  0.09999999999999998 -0.3 0  0.2 -0.3 0  0.3 -0.3 0  0.4 -0.3 0  0.5 -0.3 0  -0.5 -0.28 0  -0.4 -0.28 0  -0.3 -0.28 0  -0.2 -0.28 0  -0.09999999999999998 -0.28 0  0 -0.28 0  0.09999999999999998 -0.28 0  0.2 -0.28 0  0.3 -0.28 0  0.4 -0.28 0  0.5 -0.28 0  -0.5 -0.26 0  -0.4 -0.26 0  -0.3 -0.26 0  -0.2 -0.26 0  -0.09999999999999998 -0.26 0  0 -0.26 0  0.09999999999999998 -0.26 0  0.2 -0.26 0  0.3 -0.26 0  0.4 -0.26 0  0.5 -0.26 0  -0.5 -0.24 0  -0.4 -0.24 0  -0.3 -0.24 0  -0.2 -0.24 0  -0.09999999999999998 -0.24 0  0 -0.24 0  0.09999999999999998 -0.24 0  0.2 -0.24 0  0.3 -0.24 0  0.4 -0.24 0  0.5 -0.24 0  -0.5 -0.22 0  -0.4 -0.22 0  -0.3 -0.22 0  -0.2 -0.22 0  -0.09999999999999998 -0.22 0  0 -0.22 0  0.09999999999999998 -0.22 0  0.2 -0.22 0  0.3 -0.22 0  0.4 -0.22 0  0.5 -0.22 0  -0.5 -0.2 0  -0.4 -0.2 0  -0.3 -0.2 0  -0.2 -0.2 0  -0.09999999999999998 -0.2 0  0 -0.2 0  0.09999999999999998 -0.2 0  0.2 -0.2 0  0.3 -0.2 0  0.4 -0.2 0  0.5 -0.2 0  -0.5 -0.18 0  -0.4 -0.18 0  -0.3 -0.18 0  -0.2 -0.18 0  -0.09999999999999998 -0.18 0  0 -0.18 0  0.09999999999999998 -0.18 0  0.2 -0.18 0  0.3 -0.18 0  0.4 -0.18 0  0.5 -0.18 0  -0.5 -0.16 0  -0.4 -0.16 0  -0.3 -0.16 0  -0.2 -0.16 0  -0.09999999999999998 -0.16 0  0 -0.16 0  0.09999999999999998 -0.16 0  0.2 -0.16 0  0.3 -0.16 0  0.4 -0.16 0  0.5 -0.16 0  -0.5 -0.14 0  -0.4 -0.14 0  -0.3 -0.14 0  -0.2 -0.14 0  -0.09999999999999998 -0.14 0  0 -0.14 0  0.09999999999999998 -0.14 0  0.2 -0.14 0  0.3 -0.14 0  0.4 -0.14 0  0.5 -0.14 0  -0.5 -0.12 0  -0.4 -0.12 0  -0.3 -0.12 0  -0.2 -0.12 0  -0.09999999999999998 -0.12 0  0 -0.12 0  0.09999999999999998 -0.12 0  0.2 -0.12 0  0.3 -0.12 0  0.4 -0.12 0  0.5 -0.12 0  -0.5 -0.09999999999999998 0  -0.4 -0.09999999999999998 0  -0.3 -0.09999999999999998 0  -0.2 -0.09999999999999998 0  -0.09999999999999998 -0.09999999999999998 0  0 -0.09999999999999998 0  0.09999999999999998 -0.09999999999999998 0  0.2 -0.09999999999999998 0  0.3 -0.09999999999999998 0  0.4 -0.09999999999999998 0  0.5 -0.09999999999999998 0  -0.5 -0.07999999999999996 0  -0.4 -0.07999999999999996 0  -0.3 -0.07999999999999996 0  -0.2 -0.07999999999999996 0  -0.09999999999999998 -0.07999999999999996 0  0 -0.07999999999999996 0  0.09999999999999998 -0.07999999999999996 0  0.2 -0.07999999999999996 0  0.3 -0.07999999999999996 0  0.4 -0.07999999999999996 0  0.5 -0.07999999999999996 0  -0.5 -0.06000000000000005 0  -0.4 -0.06000000000000005 0  -0.3 -0.06000000000000005 0  -0.2 -0.06000000000000005 0  -0.09999999
[...]
<PointData  Vectors="flow"> 
<DataArray  type="Float64"  Name="flow"  NumberOfComponents="3" format="ascii">-8.6150138632167471e-04 2.4124193730881032e-03 0.0000000000000000e+00  2.6311392982950040e-08 2.4124193731053568e-03 0.0000000000000000e+00  -7.5354360890313819e-13 2.4124193730671760e-03 0.0000000000000000e+00  -3.5471329796559620e-15 2.4124193730881284e-03 0.0000000000000000e+00  -3.4398497006870171e-15 2.4124193730861786e-03 0.0000000000000000e+00  -1.2536734129107498e-14 2.4124193730732180e-03 0.0000000000000000e+00  -4.7225145724291007e-14 2.4124193730671950e-03 0.0000000000000000e+00  -4.3681494976144435e-14 2.4124193730678109e-03 0.0000000000000000e+00  7.0022622729643239e-13 2.4124193730699342e-03 0.0000000000000000e+00  -2.6311429212779511e-08 2.4124193730817325e-03 0.0000000000000000e+00  8.6150138632033605e-04 2.4124193730709008e-03 0.0000000000000000e+00  -8.6108042756562501e-04 1.3438147614814927e-02 0.0000000000000000e+00  2.6299557669200784e-08 1.3438147614823634e-02 0.0000000000000000e+00  -7.5372682632303282e-13 1.3438147614810865e-02 0.0000000000000000e+00  -2.1495779018399199e-15 1.3438147614833482e-02 0.0000000000000000e+00  -9.5869694636270134e-16 1.3438147614797741e-02 0.0000000000000000e+00  -1.5255742850695356e-14 1.3438147614834372e-02 0.0000000000000000e+00  -4.7582406210467610e-14 1.3438147614819582e-02 0.0000000000000000e+00  -4.3447975947863165e-14 1.3438147614816104e-02 0.0000000000000000e+00  6.9972330019285764e-13 1.3438147614828630e-02 0.0000000000000000e+00  -2.6299594888849376e-08 1.3438147614814967e-02 0.0000000000000000e+00  8.6108042756462885e-04 1.3438147614809669e-02 0.0000000000000000e+00  -8.5981792999180332e-04 2.6863162462555254e-02 0.0000000000000000e+00  2.6264056202397819e-08 2.6863162462538268e-02 0.0000000000000000e+00  -7.4916033153633687e-13 2.6863162462524633e-02 0.0000000000000000e+00  -7.4360758989645450e-15 2.6863162462554969e-02 0.0000000000000000e+00  -9.9612482212788921e-16 2.6863162462534972e-02 0.0000000000000000e+00  -1.1381102148198745e-14 2.6863162462545921e-02 0.0000000000000000e+00  -5.1613250214199429e-14 2.6863162462547333e-02 0.0000000000000000e+00  -4.2125831449885013e-14 2.6863162462529309e-02 0.0000000000000000e+00  7.0051156311948558e-13 2.6863162462535634e-02 0.0000000000000000e+00  -2.6264098413922635e-08 2.6863162462518384e-02 0.0000000000000000e+00  8.5981792998995952e-04 2.6863162462516854e-02 0.0000000000000000e+00  -8.5771502960881767e-04 4.0261923590989131e-02 0.0000000000000000e+00  2.6204885816792093e-08 4.0261923590975912e-02 0.0000000000000000e+00  -7.4995805353229846e-13 4.0261923590927430e-02 0.0000000000000000e+00  -3.2525192995609803e-15 4.0261923590938373e-02 0.0000000000000000e+00  -9.0993412348810905e-16 4.0261923590956497e-02 0.0000000000000000e+00  -1.1098460930225140e-14 4.0261923590955165e-02 0.0000000000000000e+00  -5.0233522461934758e-14 4.0261923590961847e-02 0.0000000000000000e+00  -4.4714108395713259e-14 4.0261923590956858e-02 0.0000000000000000e+00  6.9768781348293884e-13 4.0261923590944583e-02 0.0000000000000000e+00  -2.6204934370705750e-08 4.0261923590951952e-02 0.0000000000000000e+00  8.5771502960239909e-04 4.0261923590948795e-02 0.0000000000000000e+00  -8.5477361960488701e-04 5.3621333676223175e-02 0.0000000000000000e+00  2.6122064169580997e-08 5.3621333676209672e-02 0.0000000000000000e+00  -7.5428467503404271e-13 5.3621333676197112e-02 0.0000000000000000e+00  -9.8273409647714890e-16 5.3621333676170432e-02 0.0000000000000000e+00  1.6804520737942126e-15 5.3621333676178731e-02 0.0000000000000000e+00  -1.0501675395383561e-14 5.3621333676189979e-02 0.0000000000000000e+00  -5.1476746436249494e-14 5.3621333676210005e-02 0.0000000000000000e+00  -4.5786366454969851e-14 5.3621333676198743e-02 0.0000000000000000e+00  6.9482196394627985e-13 5.3621333676195898e-02 0.0000000000000000e+00  -2.6122118274284867e-08 5.3621333676172771e-02 0.0000000000000000e+00  8.5477361959798248e-04 5.3621333676133358e-02 0.0000000000000000e+00  -8.5099635013867784e-04 6.6928330833078781e-02 0.0000000000000000e+00  2.6015602891828571e-08 6.6928330833024977e-02 0.0000000000000000e+00  -7.5664310931958362e-13 6.6928330833060101e-02 0.0000000000000000e+00  -6.5788833547222976e-15 6.6928330833040769e-02 0.0000000000000000e+00  2.0039135380353581e-15 6.6928330833032221e-02 0.0000000000000000e+00  -5.3064145142869314e-15 6.6928330833028724e-02 0.0000000000000000e+00  -4.9151564989765495e-14 6.6928330833063737e-02 0.0000000000000000e+00  -4.7015291394476743e-14 6.6928330833024546e-02 0.0000000000000000e+00  6.9495808842488577e-13 6.6928330833037800e-02 0.0000000000000000e+00  -2.6015666576393062e-08 6.6928330833050581e-02 0.0000000000000000e+00  8.5099635011208540e-04 6.6928330832999094e-02 0.0000000000000000e+00  -8.4638662786730044e-04 8.0169900420488424e-02 0.0000000000000000e+00  2.5885515431560026e-08 8.0169900420506909e-02 0.0000000000000000e+00  -7.5327465335304824e-13 8.0169900420470383e-02 0.0000000000000000e+00  -3.9346774015157694e-15 8.0169900420500539e-02 0.0000000000000000e+00  -5.4244239633823937e-16 8.0169900420529072e-02 0.0000000000000000e+00  -4.3570036566463524e-15 8.0169900420491214e-02 0.0000000000000000e+00  -4.9727483195542385e-14 8.0169900420493989e-02 0.0000000000000000e+00  -5.4967719735776617e-14 8.0169900420478835e-02 0.0000000000000000e+00  6.9711927797906457e-13 8.0169900420446805e-02 0.0000000000000000e+00  -2.5885579694840614e-08 8.0169900420463347e-02 0.0000000000000000e+00  8.4638662782420394e-04 8.0169900420457157e-02 0.0000000000000000e+00  -8.4094861550592758e-04 9.3333086840260759e-02 0.0000000000000000e+00  2.5731820618344448e-08 9.3333086840327817e-02 0.0000000000000000e+00  -7.5632493298179750e-13 9.3333086840276830e-02 0.0000000000000000e+00  5.9886136753185352e-15 9.3333086840274915e-02 0.0000000000000000e+00  -1.1319594255289771e-15 9.3333086840364218e-02 0.0000000000000000e+00  -1.2891060874139288e-14 9.3333086840310789e-02 0.0000000000000000e+00  -4.9375756244780845e-14 9.3333086840320864e-02 0.0000000000000000e+00  -5.4550423676004840e-14 9.3333086840282700e-02 0.0000000000000000e+00  6.9258390503891458e-13 9.3333086840309235e-02 0.0000000000000000e+00  -2.5731888513996552e-08 9.3333086840261925e-02 0.0000000000000000e+00  8.4094861547837909e-04 9.3333086840273360e-02 0.0000000000000000e+00  -8.3468723117876187e-04 1.0640500532660642e-01 0.0000000000000000e+00  2.5554554002683139e-08 1.0640500532658549e-01 0.0000000000000000e+00  -7.5763215633520759e-13 1.0640500532662393e-01 0.0000000000000000e+00  9.4916028471103277e-15 1.0640500532660793e-01 0.0000000000000000e+00  8.4385137664167106e-15 1.0640500532664648e-01 0.0000000000000000e+00  -1.5917051898531732e-14 1.0640500532665445e-01 0.0000000000000000e+00  -5.5630910311141299e-14 1.0640500532665173e-01 0.0000000000000000e+00  -6.0818234724531005e-14 1.0640500532657990e-01 0.0000000000000000e+00  6.9088135604186275e-13 1.0640500532652182e-01 0.0000000000000000e+00  -2.5554621544326521e-08 1.0640500532656116e-01 0.0000000000000000e+00  8.3468723116335069e-04 1.0640500532655289e-01 0.0000000000000000e+00  -8.2760814750057151e-04 1.1937285372326120e-01 0.0000000000000000e+00  2.5353733831579964e-08 1.1937285372316757e-01 0.0000000000000000e+00  -7.5202687454435030e-13 1.1937285372316925e-01 0.0000000000000000e+00  9.3398178862876198e-15 1.1937285372316470e-01 0.0000000000000000e+00  1.3114189603868397e-14 1.1937285372317075e-01 0.0000000000000000e+00  -1.0082115746492936e-14 1.1937285372323977e-01 0.0000000000000000e+00  -6.2932159328715461e-14 1.1937285372318730e-01 0.0000000000000000e+00  -8.0521442632667859e-14 1.1937285372319649e-01 0.0000000000000000e+00  6.8615464143837553e-13 1.1937285372313783e-01 0.0000000000000000e+00  -2.5353798849203120e-08 1.1937285372310688e-01 0.0000000000000000e+00  8.2760814745539053e-04 1.1937285372314388e-01 0.0000000000000000e+00  -8.1971779042656467e-04 1.3222392424567364e-01 0.0000000000000000e+00  2.5129413531847692e-08 1.3222392424563395e-01 0.0000000000000000e+00  -7.5230596293252483e-13 1.3222392424569998e-01 0.0000000000000000e+00  1.4007165449156273e-14 1.3222392424570698e-01 0.0000000000000000e+00  1.5269708468978559e-14 1.3222392424570303e-01 0.0000000000000000e+00  -1.2597777535088879e-14 1.3222392424568261e-01 0.0000000000000000e+00  -6.7660578541749554e-14 1.3222392424558740e-01 0.0000000000000000e+00  -6.7844798801091530e-14 1.3222392424567278e-01 0.0000000000000000e+00  6.7218531076541963e-13 1.3222392424566565e-01 0.0000000000000000e+00  -2.5129487386866701e-08 1.3222392424561610e-01 0.0000000000000000e+00  8.1971779038991809e-04 1.3222392424564042e-01 0.0000000000000000e+00  -8.1102333795653875e-04 1.4494561522465704e-01 0.0000000000000000e+00  2.4881653754590249e-08 1.4494561522466762e-01 0.0000000000000000e+00  -7.4257460541031229e-13 1.4494561522474184e-01 0.0000000000000000e+00  1.0081401225333772e-14 1.4494561522466942e-01 0.0000000000000000e+00  7.1528928537510175e-15 1.4494561522462879e-01 0.0000000000000000e+00  -2.5961381650476901e-14 1.4494561522461855e-01 0.0000000000000000e+00  -6.6924571046812620e-14 1.4494561522455782e-01 0.0000000000000000e+00  -6.6432894360328851e-14 1.4494561522460414e-01 0.0000000000000000e+00  6.6628729396109366e-13 1.4494561522454363e-01 0.0000000000000000e+00  -2.4881722117802392e-08 1.4494561522457317e-01 0.0000000000000000e+00  8.1102333790650401e-04 1.4494561522453975e-01 0.0000000000000000e+00  -8.0153271845831789e-04 1.5752544282446154e-01 0.0000000000000000e+00  2.4610517618100627e-08 1.5752544282448416e-01 0.0000000000000000e+00  -7.4041521872251377e-13 1.5752544282455411e-01 0.0000000000000000e+00  -4.9664202703688807e-15 1.5752544282452929e-01 0.0000000000000000e+00  6.9261066186578840e-15 1.5752544282450529e-01 0.0000000000000000e+00  -2.7281391941931299e-14 1.5752544282453432e-01 0.0000000000000000e+00  -7.2572262532776192e-14 1.5752544282447417e-01 0.0000000000000000e+00  -6.7442987523501412e-14 1.5752544282447550e-01 0.0000000000000000e+00  6.6254092566992497e-13 1.5752544282447817e-01 0.0000000000000000e+00  -2.4610575568025123e-08 1.5752544282451114e-01 0.0000000000000000e+00  8.0153271841838325e-04 1.5752544282441530e-01 0.0000000000000000e+00  -7.9125460861881347e-04 1.6995105273441238e-01 0.0000000000000000e+00  2.4316060876442067e-08 1.6995105273442679e-01 0.0000000000000000e+00  -7.3694798588942780e-13 1.6995105273438205e-01 0.0000000000000000e+00  -1.9065507825518207e-15 1.6995105273443184e-01 0.0000000000000000e+00  4.5613088243452007e-15 1.6995105273439717e-01 0.0000000000000000e+00  -3.5595812138988239e-14 1.6995105273433797e-01 0.0000000000000000e+00  -7.4258404019018667e-14 1.6995105273433694e-01 0.0000000000000000e+00  -6.7482864369475988e-14 1.6995105273436562e-01 0.0000000000000000e+00  6.6819082166766158e-13 1.6995105273430117e-01 0.0000000000000000e+00  -2.4316117145795389e-08 1.6995105273441605e-01 0.0000000000000000e+00  7.9125460854034563e-04 1.6995105273436306e-01 0.0000000000000000e+00  -7.8019843093397271e-04 1.8221023182344159e-01 0.0000000000000000e+00  2.3998378544641330e-08 1.8221023182344687e-01 0.0000000000000000e+00  -7.2940050903134341e-13 1.8221023182342741e-01 0.0000000000000000e+00  1.3529938442104767e-15 1.8221023182354476e-01 0.0000000000000000e+00  -6.2320855180523907e-15 1.8221023182351093e-01 0.0000000000000000e+00  -4.8155174761590594e-14 1.8221023182344109e-01 0.0000000000000000e+00  -6.7441440020316040e-14 1.8221023182344431e-01 0.0000000000000000e+00  -6.9147004876156856e-14 1.8221023182334212e-01 0.0000000000000000e+00  6.6476557325591772e-13 1.8221023182342372e-01 0.0000000000000000e+00  -2.3998431089559734e-08 1.8221023182347054e-01 0.0000000000000000e+00  7.8019843086312921e-04 1.8221023182338805e-01 0.0000000000000000e+00  -7.6837435093028445e-04 1.9429091975483784e-01 0.0000000000000000e+00  2.3657583405191752e-08 1.9429091975481838e-01 0.0000000000000000e+00  -7.1220372009779676e-13 1.9429091975479895e-01 0.0000000000000000e+00  9.6719885953629713e-15 1.9429091975482812e-01 0.0000000000000000e+00  -1.4510083592319581e-14 1.9429091975484958e-01 0.0000000000000000e+00  -3.5156466293523169e-14 1.9429091975481577e-01 0.0000000000000000e+00  -9.2201666930823535e-14 1.9429091975495991e-01 0.0000000000000000e+00  -8.0518958389981017e-14 1.9429091975480980e-01 0.0000000000000000e+00  6.8480677443601736e-13 1.9429091975482862e-01 0.0000000000000000e+00  -2.3657651349724386e-08 1.9429091975484677e-01 0.0000000000000000e+00  7.6837435083944696e-04 1.9429091975485041e-01 0.0000000000000000e+00  -7.5579327363503764e-04 2.0618122055074373e-01 0.0000000000000000e+00  2.3293805872219830e-08 2.0618122055077873e-01 0.0000000000000000e+00  -7.1606468235317505e-13 2.0618122055076130e-01 0.0000000000000000e+00  1.7729805238666993e-14 2.0618122055072147e-01 0.0000000000000000e+00  -1.9030795631734916e-14 2.0618122055085067e-01 0.0000000000000000e+00  -3.6168239433879525e-14 2.0618122055072563e-01 0.0000000000000000e+00  -7.1735631266591280e-14 2.0618122055071553e-01 0.0000000000000000e+00  -8.3810343888310359e-14 2.0618122055077656e-01 0.0000000000000000e+00  6.7009841500147670e-13 2.0618122055075200e-01 0.0000000000000000e+00  -2.3293867143567231e-08 2.0618122055074323e-01 0.0000000000000000e+00  7.5579327355578191e-04 2.0618122055079927e-01 0.0000000000000000e+00  -7.4246683965102558e-04 2.1786941409970870e-01 0.0000000000000000e+00  2.2907189935636043e-08 2.1786941409968602e-01 0.0000000000000000e+00  -7.1438923194764658e-13 2.1786941409974001e-01 0.0000000000000000e+00  2.6823162315666041e-14 2.1786941409972935e-01 0.0000000000000000e+00  -1.0967165066548442e-14 2.1786941409980548e-01 0.0000000000000000e+00  -5.5731613099261231e-14 2.1786941409979485e-01 0.0000000000000000e+00  -8.4457953706719568e-14 2.1786941409971214e-01 0.0000000000000000e+00  -8.6451279095698500e-14 2.1786941409954017e-01 0.0000000000000000e+00  6.7075618754425132e-13 2.1786941409961691e-01 0.0000000000000000e+00  -2.2907235202488504e-08 2.1786941409966568e-01 0.0000000000000000e+00  7.4246683958001088e-04 2.1786941409977542e-01 0.0000000000000000e+00  -7.2840742057263545e-04 2.2934396759704018e-01 0.0000000000000000e+00  2.2497880367512312e-08 2.2934396759693607e-01 0.0000000000000000e+00  -7.0198083740495550e-13 2.2934396759688574e-01 0.0000000000000000e+00  2.7445338946340472e-14 2.2934396759681247e-01 0.0000000000000000e+00  -2.9496966138454058e-15 2.2934396759693632e-01 0.0000000000000000e+00  -5.2211691129012809e-14 2.2934396759693659e-01 0.0000000000000000e+00  -1.1291396505674954e-13 2.2934396759690487e-01 0.0000000000000000e+00  -9.5410239843894324e-14 2.2934396759683762e-01 0.0000000000000000e+00  6.7581663499869693e-13 2.2934396759689490e-01 0.0000000000000000e+00  -2.2497921883894801e-08 2.2934396759689876e-01 0.0000000000000000e+00  7.2840742052188146e-04 2.2934396759691345e-01 0.0000000000000000e+00  -7.1362811360701844e-04 2.4059354690786999e-01 0.0000000000000000e+00  2.2066074115250437e-08 2.4059354690793999e-01 0.0000000000000000e+00  -7.1582727337297838e-13 2.4059354690784390e-01 0.0000000000000000e+00  3.8855982610800644e-14 2.4059354690777782e-01 0.0000000000000000e+00  1.0429322366259207e-14 2.4059354690792770e-01 0.0000000000000000e+00  -7.1899762900431251e-14 2.4059354690789853e-01 0.0000000000000000e+00  -1.1432965895861562e-13 2.4059354690778259e-01 0.0000000000000000e+00  -8.6851906470914229e-14 2.4059354690786558e-01 0.0000000000000000e+00  6.8289521967652470e-13 2.4059354690783410e-01 0.0000000000000000e+00  -2.2066131394179474e-08 2.4059354690794532e-01 0.0000000000000000e+00  7.1362811353276880e-04 2.4059354690787579e-01 0.0000000000000000e+00  -6.9814273567550566e-04 2.5160702784373745e-01 0.0000000000000000e+00  2.1612012556137334e-08 2.5160702784370592e-01 0.0000000000000000e+00  -7.2623902004789120e-13 2.5160702784372990e-01 0.0000000000000000e+00  4.1660909786164866e-14 2.5160702784371552e-01 0.0000000000000000e+00  2.3925940298130015e-14 2.5160702784367356e-01 0.0000000000000000e+00  -7.5304060508786285e-14 2.5160702784379768e-01 0.0000000000000000e+00  -1.1883765765531941e-13 2.5160702784376454e-01 0.0000000000000000e+00  -9.1402743698805805e-14 2.5160702784375916e-01 0.0000000000000000e+00  6.6853009168824317e-13 2.5160702784363703e-01 0.0000000000000000e+00  -2.1612062379850355e-08 2.5160702784367911e-01 0.0000000000000000e+00  6.9814273560947113e-04 2.5160702784368227e-01 0.0000000000000000e+00  -6.8196581656487798e-04 2.6237350733670822e-01 0.0000000000000000e+00  2.1135896409003588e-08 2.6237350733660675e-01 0.0000000000000000e+00  -7.0615785993999805e-13 2.6237350733654230e-01 0.0000000000000000e+00  3.2382515452202389e-14 2.6237350733658743e-01 0.0000000000000000e+00  3.3278104976056587e-14 2.6237350733648462e-01 0.0000000000000000e+00  -4.9997506680373638e-14 2.6237350733669940e-01 0.0000000000000000e+00  -1.1810202419795086e-13 2.6237350733681064e-01 0.0000000000000000e+00  -1.0473115351275805e-13 2.6237350733687109e-01 0.0000000000000000e+00  6.5424495127432210e-13 2.6237350733673592e-01 0.0000000000000000e+00  -2.1135938842518988e-08 2.6237350733668319e-01 0.0000000000000000e+00  6.8196581648721278e-04 2.6237350733675324e-01 0.0000000000000000e+00  -6.6511259110124004e-04 2.7288231450251593e-01 0.0000000000000000e+00  2.0637993918745715e-08 2.7288231450259776e-01 0.0000000000000000e+00  -7.0404834727972171e-13 2.7288231450243122e-01 0.0000000000000000e+00  2.6854507893287210e-14 2.7288231450259126e-01 0.0000000000000000e+00  3.9231912772116156e-14 2.7288231450245032e-01 0.0000000000000000e+00  -1.9523267137689720e-14 2.7288231450257205e-01 0.0000000000000000e+00  -8.8974788357530286e-14 2.7288231450255601e-01 0.0000000000000000e+00  -1.1034196000011574e-13 2.7288231450272904e-01 0.0000000000000000e+00  6.1529011204104659e-13 2.7288231450258121e-01 0.0000000000000000e+00  -2.0638072003722864e-08 2.7288231450245054e-01 0.0000000000000000e+00  6.6511259103301337e-04 2.7288231450249645e-01 0.0000000000000000e+00  -6.4759899085940341e-04 2.8312302157712732e-01 0.0000000000000000e+00  2.0118645261793504e-08 2.8312302157724251e-01 0.0000000000000000e+00  -6.8623372931121842e-13 2.8312302157725266e-01 0.0000000000000000e+00  3.2593633831735078e-14 2.8312302157717850e-01 0.0000000000000000e+00  2.9079238410067959e-14 2.8312302157720276e-01 0.0000000000000000e+00  -2.1312907471768429e-14 2.8312302157721309e-01 0.0000000000000000e+00  -8.0436439419429139e-14 2.8312302157717217e-01 0.0000000000000000e+00  -1.0392675504542870e-13 2.8312302157726316e-01 0.0000000000000000e+00  5.7230214599145147e-13 2.8312302157716435e-01 0.0000000000000000e+00  -2.0118719858346968e-08 2.8312302157709784e-01 0.0000000000000000e+00  6.4759899083907961e-04 2.8312302157711089e-01 0.0000000000000000e+00  -6.2944163454815166e-04 2.9308545471161779e-01 0.0000000000000000e+00  1.9578157335370697e-08 2.9308545471158837e-01 0.0000000000000000e+00  -7.0093102992660696e-13 2.9308545471155500e-01 0.0000000000000000e+00  2.6001392051782510e-14 2.9308545471144054e-01 0.0000000000000000e+00  5.0602854373121941e-14 2.9308545471160569e-01 0.0000000000000000e+00  -2.5750385612866470e-14 2.9308545471161629e-01 0.0000000000000000e+00  -8.4863906914769740e-14 2.9308545471155290e-01 0.0000000000000000e+00  -1.0509570331554040e-13 2.9308545471157638e-01 0.0000000000000000e+00  5.6277260131126193e-13 2.9308545471159841e-01 0.0000000000000000e+00  -1.9578230514304683e-08 2.9308545471157998e-01 0.0000000000000000e+00  6.2944163449286266e-04 2.9308545471150405e-01 0.0000000000000000e+00  -6.1065781738892956e-04 3.0275970461187079e-01 0.0000000000000000e+00  1.9016857791666505e-08 3.0275970461183049e-01 0.0000000000000000e+00  -6.9231764896772926e-13 3.0275970461179624e-01 0.0000000000000000e+00  3.1483513936306834e-14 3.0275970461186291e-01 0.0000000000000000e+00  6.2085068904619120e-14 3.0275970461182317e-01 0.0000000000000000e+00  -3.4101273508327918e-14 3.0275970461182761e-01 0.0000000000000000e+00  -8.5128184716566850e-14 3.0275970461179802e-01 0.