<?xml version="1.0"?>
<VTKFile type="UnstructuredGrid"  version="0.1"  >
<UnstructuredGrid>
<Piece  NumberOfPoints="1091" NumberOfCells="2050">
<Points>
<DataArray  type="Float64"  NumberOfComponents="3"  format="ascii">-0.5 -1 0  -0.4 -1 0  -0.3 -1 0  -0.2 -1 0  -0.09999999999999998 -1 0  0 -1 0  0.09999999999999998 -1 0  0.2 -1 0  0.3 -1 0  0.4 -1 0  0.5 -1 0  -0.5 -0.98 0  -0.4 -0.98 0  -0.3 -0.98 0  -0.2 -0.98 0  -0.09999999999999998 -0.98 0  0 -0.98 0  0.09999999999999998 -0.98 0  0.2 -0.98 0  0.3 -0.98 0  0.4 -0.98 0  0.5 -0.98 0  -0.5 -0.96 0  -0.4 -0.96 0  -0.3 -0.96 0  -0.2 -0.96 0  -0.09999999999999998 -0.96 0  0 -0.96 0  0.09999999999999998 -0.96 0  0.2 -0.96 0  0.3 -0.96 0  0.4 -0.96 0  0.5 -0.96 0  -0.5 -0.9399999999999999 0  -0.4 -0.9399999999999999 0  -0.3 -0.9399999999999999 0  -0.2 -0.9399999999999999 0  -0.09999999999999998 -0.9399999999999999 0  0 -0.9399999999999999 0  0.09999999999999998 -0.9399999999999999 0  0.2 -0.9399999999999999 0  0.3 -0.9399999999999999 0  0.4 -0.9399999999999999 0  0.5 -0.9399999999999999 0  -0.5 -0.92 0  -0.4 -0.92 0  -0.3 -0.92 0  -0.2 -0.92 0  -0.09999999999999998 -0.92 0  0 -0.92 0  0.09999999999999998 -0.92 0  0.2 -0.92 0  0.3 -0.92 0  0.4 -0.92 0  0.5 -0.92 0  -0.5 -0.9 0  -0.4 -0.9 0  -0.3 -0.9 0  -0.2 -0.9 0  -0.09999999999999998 -0.9 0  0 -0.9 0  0.09999999999999998 -0.9 0  0.2 -0.9 0  0.3 -0.9 0  0.4 -0.9 0  0.5 -0.9 0  -0.5 -0.88 0  -0.4 -0.88 0  -0.3 -0.88 0  -0.2 -0.88 0  -0.09999999999999998 -0.88 0  0 -0.88 0  0.09999999999999998 -0.88 0  0.2 -0.88 0  0.3 -0.88 0  0.4 -0.88 0  0.5 -0.88 0  -0.5 -0.86 0  -0.4 -0.86 0  -0.3 -0.86 0  -0.2 -0.86 0  -0.09999999999999998 -0.86 0  0 -0.86 0  0.09999999999999998 -0.86 0  0.2 -0.86 0  0.3 -0.86 0  0.4 -0.86 0  0.5 -0.86 0  -0.5 -0.84 0  -0.4 -0.84 0  -0.3 -0.84 0  -0.2 -0.84 0  -0.09999999999999998 -0.84 0  0 -0.84 0  0.09999999999999998 -0.84 0  0.2 -0.84 0  0.3 -0.84 0  0.4 -0.84 0  0.5 -0.84 0  -0.5 -0.8200000000000001 0  -0.4 -0.8200000000000001 0  -0.3 -0.8200000000000001 0  -0.2 -0.8200000000000001 0  -0.09999999999999998 -0.8200000000000001 0  0 -0.8200000000000001 0  0.09999999999999998 -0.8200000000000001 0  0.2 -0.8200000000000001 0  0.3 -0.8200000000000001 0  0.4 -0.8200000000000001 0  0.5 -0.8200000000000001 0  -0.5 -0.8 0  -0.4 -0.8 0  -0.3 -0.8 0  -0.2 -0.8 0  -0.09999999999999998 -0.8 0  0 -0.8 0  0.09999999999999998 -0.8 0  0.2 -0.8 0  0.3 -0.8 0  0.4 -0.8 0  0.5 -0.8 0  -0.5 -0.78 0  -0.4 -0.78 0  -0.3 -0.78 0  -0.2 -0.78 0  -0.09999999999999998 -0.78 0  0 -0.78 0  0.09999999999999998 -0.78 0  0.2 -0.78 0  0.3 -0.78 0  0.4 -0.78 0  0.5 -0.78 0  -0.5 -0.76 0  -0.4 -0.76 0  -0.3 -0.76 0  -0.2 -0.76 0  -0.09999999999999998 -0.76 0  0 -0.76 0  0.09999999999999998 -0.76 0  0.2 -0.76 0  0.3 -0.76 0  0.4 -0.76 0  0.5 -0.76 0  -0.5 -0.74 0  -0.4 -0.74 0  -0.3 -0.74 0  -0.2 -0.74 0  -0.09999999999999998 -0.74 0  0 -0.74 0  0.09999999999999998 -0.74 0  0.2 -0.74 0  0.3 -0.74 0  0.4 -0.74 0  0.5 -0.74 0  -0.5 -0.72 0  -0.4 -0.72 0  -0.3 -0.72 0  -0.2 -0.72 0  -0.09999999999999998 -0.72 0  0 -0.72 0  0.09999999999999998 -0.72 0  0.2 -0.72 0  0.3 -0.72 0  0.4 -0.72 0  0.5 -0.72 0  -0.5 -0.7 0  -0.4 -0.7 0  -0.3 -0.7 0  -0.2 -0.7 0  -0.09999999999999998 -0.7 0  0 -0.7 0  0.09999999999999998 -0.7 0  0.2 -0.7 0  0.3 -0.7 0  0.4 -0.7 0  0.5 -0.7 0  -0.5 -0.6799999999999999 0  -0.4 -0.6799999999999999 0  -0.3 -0.6799999999999999 0  -0.2 -0.6799999999999999 0  -0.09999999999999998 -0.6799999999999999 0  0 -0.6799999999999999 0  0.09999999999999998 -0.6799999999999999 0  0.2 -0.6799999999999999 0  0.3 -0.6799999999999999 0  0.4 -0.6799999999999999 0  0.5 -0.6799999999999999 0  -0.5 -0.6599999999999999 0  -0.4 -0.6599999999999999 0  -0.3 -0.6599999999999999 0  -0.2 -0.6599999999999999 0  -0.09999999999999998 -0.6599999999999999 0  0 -0.6599999999999999 0  0.09999999999999998 -0.6599999999999999 0  0.2 -0.6599999999999999 0  0.3 -0.6599999999999999 0  0.4 -0.6599999999999999 0  0.5 -0.6599999999999999 0  -0.5 -0.64 0  -0.4 -0.64 0  -0.3 -0.64 0  -0.2 -0.64 0  -0.09999999999999998 -0.64 0  0 -0.64 0  0.09999999999999998 -0.64 0  0.2 -0.64 0  0.3 -0.64 0  0.4 -0.64 0  0.5 -0.64 0  -0.5 -0.62 0  -0.4 -0.62 0  -0.3 -0.62 0  -0.2 -0.62 0  -0.09999999999999998 -0.62 0  0 -0.62 0  0.09999999999999998 -0.62 0  0.2 -0.62 0  0.3 -0.62 0  0.4 -0.62 0  0.5 -0.62 0  -0.5 -0.6 0  -0.4 -0.6 0  -0.3 -0.6 0  -0.2 -0.6 0  -0.09999999999999998 -0.6 0  0 -0.6 0  0.09999999999999998 -0.6 0  0.2 -0.6 0  0.3 -0.6 0  0.4 -0.6 0  0.5 -0.6 0  -0.5 -0.5800000000000001 0  -0.4 -0.5800000000000001 0  -0.3 -0.5800000000000001 0  -0.2 -0.5800000000000001 0  -0.09999999999999998 -0.5800000000000001 0  0 -0.5800000000000001 0  0.09999999999999998 -0.5800000000000001 0  0.2 -0.5800000000000001 0  0.3 -0.5800000000000001 0  0.4 -0.5800000000000001 0  0.5 -0.5800000000000001 0  -0.5 -0.5600000000000001 0  -0.4 -0.5600000000000001 0  -0.3 -0.5600000000000001 0  -0.2 -0.5600000000000001 0  -0.09999999999999998 -0.5600000000000001 0  0 -0.5600000000000001 0  0.09999999999999998 -0.5600000000000001 0  0.2 -0.5600000000000001 0  0.3 -0.5600000000000001 0  0.4 -0.5600000000000001 0  0.5 -0.5600000000000001 0  -0.5 -0.54 0  -0.4 -0.54 0  -0.3 -0.54 0  -0.2 -0.54 0  -0.09999999999999998 -0.54 0  0 -0.54 0  0.09999999999999998 -0.54 0  0.2 -0.54 0  0.3 -0.54 0  0.4 -0.54 0  0.5 -0.54 0  -0.5 -0.52 0  -0.4 -0.52 0  -0.3 -0.52 0  -0.2 -0.52 0  -0.09999999999999998 -0.52 0  0 -0.52 0  0.09999999999999998 -0.52 0  0.2 -0.52 0  0.3 -0.52 0  0.4 -0.52 0  0.5 -0.52 0  -0.5 -0.5 0  -0.4 -0.5 0  -0.3 -0.5 0  -0.2 -0.5 0  -0.09999999999999998 -0.5 0  0 -0.5 0  0.09999999999999998 -0.5 0  0.2 -0.5 0  0.3 -0.5 0  0.4 -0.5 0  0.5 -0.5 0  -0.5 -0.48 0  -0.4 -0.48 0  -0.3 -0.48 0  -0.2 -0.48 0  -0.09999999999999998 -0.48 0  0 -0.48 0  0.09999999999999998 -0.48 0  0.2 -0.48 0  0.3 -0.48 0  0.4 -0.48 0  0.5 -0.48 0  -0.5 -0.46 0  -0.4 -0.46 0  -0.3 -0.46 0  -0.2 -0.46 0  -0.09999999999999998 -0.46 0  0 -0.46 0  0.09999999999999998 -0.46 0  0.2 -0.46 0  0.3 -0.46 0  0.4 -0.46 0  0.5 -0.46 0  -0.5 -0.4399999999999999 0  -0.4 -0.4399999999999999 0  -0.3 -0.4399999999999999 0  -0.2 -0.4399999999999999 0  -0.09999999999999998 -0.4399999999999999 0  0 -0.4399999999999999 0  0.09999999999999998 -0.4399999999999999 0  0.2 -0.4399999999999999 0  0.3 -0.4399999999999999 0  0.4 -0.4399999999999999 0  0.5 -0.4399999999999999 0  -0.5 -0.42 0  -0.4 -0.42 0  -0.3 -0.42 0  -0.2 -0.42 0  -0.09999999999999998 -0.42 0  0 -0.42 0  0.09999999999999998 -0.42 0  0.2 -0.42 0  0.3 -0.42 0  0.4 -0.42 0  0.5 -0.42 0  -0.5 -0.4 0  -0.4 -0.4 0  -0.3 -0.4 0  -0.2 -0.4 0  -0.09999999999999998 -0.4 0  0 -0.4 0  0.09999999999999998 -0.4 0  0.2 -0.4 0  0.3 -0.4 0  0.4 -0.4 0  0.5 -0.4 0  -0.5 -0.38 0  -0.4 -0.38 0  -0.3 -0.38 0  -0.2 -0.38 0  -0.09999999999999998 -0.38 0  0 -0.38 0  0.09999999999999998 -0.38 0  0.2 -0.38 0  0.3 -0.38 0  0.4 -0.38 0  0.5 -0.38 0  -0.5 -0.36 0  -0.4 -0.36 0  -0.3 -0.36 0  -0.2 -0.36 0  -0.09999999999999998 -0.36 0  0 -0.36 0  0.09999999999999998 -0.36 0  0.2 -0.36 0  0.3 -0.36 0  0.4 -0.36 0  0.5 -0.36 0  -0.5 -0.34 0  -0.4 -0.34 0  -0.3 -0.34 0  -0.2 -0.34 0  -0.09999999999999998 -0.34 0  0 -0.34 0  0.09999999999999998 -0.34 0  0.2 -0.34 0  0.3 -0.34 0  0.4 -0.34 0  0.5 -0.34 0  -0.5 -0.32 0  -0.4 -0.32 0  -0.3 -0.32 0  -0.2 -0.32 0  -0.09999999999999998 -0.32 0  0 -0.32 0  0.09999999999999998 -0.32 0  0.2 -0.32 0  0.3 -0.32 0  0.4 -0.32 0  0.5 -0.32 0  -0.5 -0.3 0  -0.4 -0.3 0  -0.3 -0.3 0  -0.2 -0.3 0  -0.09999999999999998 -0.3 0  0 -0.3 0  0.09999999999999998 -0.3 0  0.2 -0.3 0  0.3 -0.3 0  0.4 -0.3 0  0.5 -0.3 0  -0.5 -0.28 0  -0.4 -0.28 0  -0.3 -0.28 0  -0.2 -0.28 0  -0.09999999999999998 -0.28 0  0 -0.28 0  0.09999999999999998 -0.28 0  0.2 -0.28 0  0.3 -0.28 0  0.4 -0.28 0  0.5 -0.28 0  -0.5 -0.26 0  -0.4 -0.26 0  -0.3 -0.26 0  -0.2 -0.26 0  -0.09999999999999998 -0.26 0  0 -0.26 0  0.09999999999999998 -0.26 0  0.2 -0.26 0  0.3 -0.26 0  0.4 -0.26 0  0.5 -0.26 0  -0.5 -0.24 0  -0.4 -0.24 0  -0.3 -0.24 0  -0.2 -0.24 0  -0.09999999999999998 -0.24 0  0 -0.24 0  0.09999999999999998 -0.24 0  0.2 -0.24 0  0.3 -0.24 0  0.4 -0.24 0  0.5 -0.24 0  -0.5 -0.22 0  -0.4 -0.22 0  -0.3 -0.22 0  -0.2 -0.22 0  -0.09999999999999998 -0.22 0  0 -0.22 0  0.09999999999999998 -0.22 0  0.2 -0.22 0  0.3 -0.22 0  0.4 -0.22 0  0.5 -0.22 0  -0.5 -0.2 0  -0.4 -0.2 0  -0.3 -0.2 0  -0.2 -0.2 0  -0.09999999999999998 -0.2 0  0 -0.2 0  0.09999999999999998 -0.2 0  0.2 -0.2 0  0.3 -0.2 0  0.4 -0.2 0  0.5 -0.2 0  -0.5 -0.18 0  -0.4 -0.18 0  -0.3 -0.18 0  -0.2 -0.18 0  -0.09999999999999998 -0.18 0  0 -0.18 0  0.09999999999999998 -0.18 0  0.2 -0.18 0  0.3 -0.18 0  0.4 -0.18 0  0.5 -0.18 0  -0.5 -0.16 0  -0.4 -0.16 0  -0.3 -0.16 0  -0.2 -0.16 0  -0.09999999999999998 -0.16 0  0 -0.16 0  0.09999999999999998 -0.16 0  0.2 -0.16 0  0.3 -0.16 0  0.4 -0.16 0  0.5 -0.16 0  -0.5 -0.14 0  -0.4 -0.14 0  -0.3 -0.14 0  -0.2 -0.14 0  -0.09999999999999998 -0.14 0  0 -0.14 0  0.09999999999999998 -0.14 0  0.2 -0.14 0  0.3 -0.14 0  0.4 -0.14 0  0.5 -0.14 0  -0.5 -0.12 0  -0.4 -0.12 0  -0.3 -0.12 0  -0.2 -0.12 0  -0.09999999999999998 -0.12 0  0 -0.12 0  0.09999999999999998 -0.12 0  0.2 -0.12 0  0.3 -0.12 0  0.4 -0.12 0  0.5 -0.12 0  -0.5 -0.09999999999999998 0  -0.4 -0.09999999999999998 0  -0.3 -0.09999999999999998 0  -0.2 -0.09999999999999998 0  -0.09999999999999998 -0.09999999999999998 0  0 -0.09999999999999998 0  0.09999999999999998 -0.09999999999999998 0  0.2 -0.09999999999999998 0  0.3 -0.09999999999999998 0  0.4 -0.09999999999999998 0  0.5 -0.09999999999999998 0  -0.5 -0.07999999999999996 0  -0.4 -0.07999999999999996 0  -0.3 -0.07999999999999996 0  -0.2 -0.07999999999999996 0  -0.09999999999999998 -0.07999999999999996 0  0 -0.07999999999999996 0  0.09999999999999998 -0.07999999999999996 0  0.2 -0.07999999999999996 0  0.3 -0.07999999999999996 0  0.4 -0.07999999999999996 0  0.5 -0.07999999999999996 0  -0.5 -0.06000000000000005 0  -0.4 -0.06000000000000005 0  -0.3 -0.06000000000000005 0  -0.2 -0.06000000000000005 0  -0.09999999
[...]
<PointData  Vectors="flow"> 
<DataArray  type="Float64"  Name="flow"  NumberOfComponents="3" format="ascii">-1.0994670664252837e-03 3.0787650445032824e-03 0.0000000000000000e+00  3.1413982734479203e-08 3.0787650444487878e-03 0.0000000000000000e+00  -2.7945047357445348e-13 3.0787650444989959e-03 0.0000000000000000e+00  1.2870578597250051e-15 3.0787650444738550e-03 0.0000000000000000e+00  -1.3790213397289703e-15 3.0787650444882328e-03 0.0000000000000000e+00  7.2707011637255252e-15 3.0787650444783687e-03 0.0000000000000000e+00  -1.8749828904496051e-14 3.0787650444657577e-03 0.0000000000000000e+00  -3.3955587218736053e-14 3.0787650444682991e-03 0.0000000000000000e+00  2.4034055670398365e-13 3.0787650444924789e-03 0.0000000000000000e+00  -3.1414016357747374e-08 3.0787650444491187e-03 0.0000000000000000e+00  1.0994670664105253e-03 3.0787650444407885e-03 0.0000000000000000e+00  -1.0989644514145880e-03 1.7150165120732624e-02 0.0000000000000000e+00  3.1409558440004055e-08 1.7150165120730018e-02 0.0000000000000000e+00  -2.7996734636557963e-13 1.7150165120739039e-02 0.0000000000000000e+00  -3.5286923575766411e-15 1.7150165120698488e-02 0.0000000000000000e+00  2.5992997303105879e-15 1.7150165120724134e-02 0.0000000000000000e+00  7.3560302157191939e-15 1.7150165120729092e-02 0.0000000000000000e+00  -2.0615771134952621e-14 1.7150165120727048e-02 0.0000000000000000e+00  -3.5860699744795859e-14 1.7150165120702929e-02 0.0000000000000000e+00  2.4641586086293243e-13 1.7150165120713247e-02 0.0000000000000000e+00  -3.1409592415916388e-08 1.7150165120708823e-02 0.0000000000000000e+00  1.0989644513881513e-03 1.7150165120707918e-02 0.0000000000000000e+00  -1.0974567481950557e-03 3.4284649081831861e-02 0.0000000000000000e+00  3.1396183501107525e-08 3.4284649081857833e-02 0.0000000000000000e+00  -2.9550096623223580e-13 3.4284649081822667e-02 0.0000000000000000e+00  -1.6840349198546646e-15 3.4284649081828829e-02 0.0000000000000000e+00  6.3842099641368565e-15 3.4284649081848480e-02 0.0000000000000000e+00  4.8099490987939462e-15 3.4284649081851713e-02 0.0000000000000000e+00  -2.2806568291504790e-14 3.4284649081843470e-02 0.0000000000000000e+00  -3.5413811468047658e-14 3.4284649081832159e-02 0.0000000000000000e+00  2.5572814382734406e-13 3.4284649081837149e-02 0.0000000000000000e+00  -3.1396217678911418e-08 3.4284649081832548e-02 0.0000000000000000e+00  1.0974567481694107e-03 3.4284649081835761e-02 0.0000000000000000e+00  -1.0949443853266489e-03 5.1387775158461851e-02 0.0000000000000000e+00  3.1373579328890931e-08 5.1387775158477748e-02 0.0000000000000000e+00  -3.1005278793991849e-13 5.1387775158456869e-02 0.0000000000000000e+00  -1.5266021485010921e-15 5.1387775158430779e-02 0.0000000000000000e+00  8.1852240328791319e-15 5.1387775158471524e-02 0.0000000000000000e+00  9.2455236572031202e-15 5.1387775158467167e-02 0.0000000000000000e+00  -2.7638844315159738e-14 5.1387775158460255e-02 0.0000000000000000e+00  -4.0082423272005738e-14 5.1387775158433645e-02 0.0000000000000000e+00  2.6996537593930859e-13 5.1387775158421439e-02 0.0000000000000000e+00  -3.1373615195743769e-08 5.1387775158430390e-02 0.0000000000000000e+00  1.0949443852962225e-03 5.1387775158423743e-02 0.0000000000000000e+00  -1.0914280870099949e-03 6.8443875588599212e-02 0.0000000000000000e+00  3.1341283775966615e-08 6.8443875588589567e-02 0.0000000000000000e+00  -3.3768207637691051e-13 6.8443875588603015e-02 0.0000000000000000e+00  -9.3051879206118192e-16 6.8443875588551570e-02 0.0000000000000000e+00  1.2596044198757339e-14 6.8443875588587305e-02 0.0000000000000000e+00  4.7275186384649842e-15 6.8443875588591829e-02 0.0000000000000000e+00  -2.9028184241295034e-14 6.8443875588562200e-02 0.0000000000000000e+00  -4.1382579425715148e-14 6.8443875588573080e-02 0.0000000000000000e+00  2.9125115001865110e-13 6.8443875588561659e-02 0.0000000000000000e+00  -3.1341322359267806e-08 6.8443875588524952e-02 0.0000000000000000e+00  1.0914280869899016e-03 6.8443875588562672e-02 0.0000000000000000e+00  -1.0869088880092104e-03 8.5437296287717540e-02 0.0000000000000000e+00  3.1298652721088700e-08 8.5437296287678030e-02 0.0000000000000000e+00  -3.6208831746563470e-13 8.5437296287686468e-02 0.0000000000000000e+00  -2.9076463713849184e-15 8.5437296287685635e-02 0.0000000000000000e+00  1.6362642442434481e-14 8.5437296287702663e-02 0.0000000000000000e+00  5.1583757651334879e-15 8.5437296287717387e-02 0.0000000000000000e+00  -3.3619291651204072e-14 8.5437296287685011e-02 0.0000000000000000e+00  -4.3476124429601871e-14 8.5437296287657949e-02 0.0000000000000000e+00  3.1002783729545092e-13 8.5437296287703218e-02 0.0000000000000000e+00  -3.1298687950758164e-08 8.5437296287677322e-02 0.0000000000000000e+00  1.0869088879969717e-03 8.5437296287691811e-02 0.0000000000000000e+00  -1.0813881541779169e-03 1.0235240184021506e-01 0.0000000000000000e+00  3.1244860874125291e-08 1.0235240184023858e-01 0.0000000000000000e+00  -3.9275325125266666e-13 1.0235240184019273e-01 0.0000000000000000e+00  9.9514823555138038e-16 1.0235240184020003e-01 0.0000000000000000e+00  1.8227137502907826e-14 1.0235240184024892e-01 0.0000000000000000e+00  1.9725142205692564e-15 1.0235240184024050e-01 0.0000000000000000e+00  -3.9760681834061773e-14 1.0235240184024005e-01 0.0000000000000000e+00  -3.8893900594923286e-14 1.0235240184018722e-01 0.0000000000000000e+00  3.4947281350536148e-13 1.0235240184021929e-01 0.0000000000000000e+00  -3.1244905334739069e-08 1.0235240184023714e-01 0.0000000000000000e+00  1.0813881541448459e-03 1.0235240184020068e-01 0.0000000000000000e+00  -1.0748676085951922e-03 1.1917358085578261e-01 0.0000000000000000e+00  3.1178941391596879e-08 1.1917358085582536e-01 0.0000000000000000e+00  -4.3587020142226023e-13 1.1917358085578142e-01 0.0000000000000000e+00  8.3341674179410351e-15 1.1917358085578054e-01 0.0000000000000000e+00  2.4373523830721343e-14 1.1917358085582960e-01 0.0000000000000000e+00  2.6741038357517686e-16 1.1917358085581348e-01 0.0000000000000000e+00  -4.2258783177223099e-14 1.1917358085582669e-01 0.0000000000000000e+00  -4.4465749518356059e-14 1.1917358085578290e-01 0.0000000000000000e+00  3.8424083785233599e-13 1.1917358085577665e-01 0.0000000000000000e+00  -3.1178984305486289e-08 1.1917358085581392e-01 0.0000000000000000e+00  1.0748676085711179e-03 1.1917358085575744e-01 0.0000000000000000e+00  -1.0673493629988165e-03 1.3588525177457977e-01 0.0000000000000000e+00  3.1099750828126868e-08 1.3588525177454860e-01 0.0000000000000000e+00  -4.7713318833818188e-13 1.3588525177455377e-01 0.0000000000000000e+00  1.2076461767571654e-14 1.3588525177454602e-01 0.0000000000000000e+00  2.5625302392366537e-14 1.3588525177458216e-01 0.0000000000000000e+00  1.6533760232731586e-15 1.3588525177456082e-01 0.0000000000000000e+00  -4.3917744386188692e-14 1.3588525177456598e-01 0.0000000000000000e+00  -5.1727319028991680e-14 1.3588525177454300e-01 0.0000000000000000e+00  4.3014029080389627e-13 1.3588525177452951e-01 0.0000000000000000e+00  -3.1099800365866905e-08 1.3588525177456803e-01 0.0000000000000000e+00  1.0673493629612951e-03 1.3588525177450972e-01 0.0000000000000000e+00  -1.0588359539393257e-03 1.5247186920082967e-01 0.0000000000000000e+00  3.1006016569006034e-08 1.5247186920079045e-01 0.0000000000000000e+00  -5.2112197621357315e-13 1.5247186920080774e-01 0.0000000000000000e+00  1.3389461942401175e-14 1.5247186920081560e-01 0.0000000000000000e+00  2.8644180997391006e-14 1.5247186920078856e-01 0.0000000000000000e+00  -5.4310448290163795e-15 1.5247186920081224e-01 0.0000000000000000e+00  -4.5156892692411210e-14 1.5247186920075326e-01 0.0000000000000000e+00  -5.2396982906736052e-14 1.5247186920081182e-01 0.0000000000000000e+00  4.7432177029629880e-13 1.5247186920078853e-01 0.0000000000000000e+00  -3.1006068747694023e-08 1.5247186920075656e-01 0.0000000000000000e+00  1.0588359538907086e-03 1.5247186920077005e-01 0.0000000000000000e+00  -1.0493303836870676e-03 1.6891793083909815e-01 0.0000000000000000e+00  3.0896329143900545e-08 1.6891793083905871e-01 0.0000000000000000e+00  -5.6017027380599233e-13 1.6891793083907297e-01 0.0000000000000000e+00  1.0668790676725465e-14 1.6891793083914086e-01 0.0000000000000000e+00  2.1451398263446836e-14 1.6891793083905973e-01 0.0000000000000000e+00  -4.8989097711797650e-15 1.6891793083909201e-01 0.0000000000000000e+00  -4.4722573743241983e-14 1.6891793083904705e-01 0.0000000000000000e+00  -4.3429276247914107e-14 1.6891793083908344e-01 0.0000000000000000e+00  5.1147907503299789e-13 1.6891793083903647e-01 0.0000000000000000e+00  -3.0896387460753579e-08 1.6891793083902529e-01 0.0000000000000000e+00  1.0493303836366533e-03 1.6891793083902798e-01 0.0000000000000000e+00  -1.0388361651514407e-03 1.8520798510059128e-01 0.0000000000000000e+00  3.0769175921130028e-08 1.8520798510058439e-01 0.0000000000000000e+00  -6.1024020531554072e-13 1.8520798510060801e-01 0.0000000000000000e+00  1.0049006938872327e-14 1.8520798510056635e-01 0.0000000000000000e+00  1.8348860682285386e-14 1.8520798510056607e-01 0.0000000000000000e+00  -5.2011330080225281e-17 1.8520798510063408e-01 0.0000000000000000e+00  -5.0229845353462861e-14 1.8520798510056977e-01 0.0000000000000000e+00  -5.6631735222041901e-14 1.8520798510053288e-01 0.0000000000000000e+00  5.5877253283095430e-13 1.8520798510046302e-01 0.0000000000000000e+00  -3.0769231278355157e-08 1.8520798510049374e-01 0.0000000000000000e+00  1.0388361650880125e-03 1.8520798510048000e-01 0.0000000000000000e+00  -1.0273573705313135e-03 2.0132663944020981e-01 0.0000000000000000e+00  3.0622932643996867e-08 2.0132663944022475e-01 0.0000000000000000e+00  -6.6536022447204676e-13 2.0132663944022774e-01 0.0000000000000000e+00  6.1142010880520220e-15 2.0132663944025028e-01 0.0000000000000000e+00  3.3330962329417584e-14 2.0132663944025411e-01 0.0000000000000000e+00  -6.1386604213454450e-15 2.0132663944029769e-01 0.0000000000000000e+00  -6.5453092157159230e-14 2.0132663944020088e-01 0.0000000000000000e+00  -6.1767364220134620e-14 2.0132663944019280e-01 0.0000000000000000e+00  6.1051052807071505e-13 2.0132663944014190e-01 0.0000000000000000e+00  -3.0622987787947656e-08 2.0132663944019097e-01 0.0000000000000000e+00  1.0273573704712657e-03 2.0132663944012402e-01 0.0000000000000000e+00  -1.0148986830203150e-03 2.1725856947825964e-01 0.0000000000000000e+00  3.0455902354154739e-08 2.1725856947827862e-01 0.0000000000000000e+00  -7.1256258798884499e-13 2.1725856947826608e-01 0.0000000000000000e+00  1.2300861916908209e-14 2.1725856947837172e-01 0.0000000000000000e+00  2.5645815821777984e-14 2.1725856947827707e-01 0.0000000000000000e+00  -9.9642836238714260e-15 2.1725856947826472e-01 0.0000000000000000e+00  -6.9894602500148931e-14 2.1725856947823260e-01 0.0000000000000000e+00  -6.9983691496570200e-14 2.1725856947822395e-01 0.0000000000000000e+00  6.6586592766667160e-13 2.1725856947821084e-01 0.0000000000000000e+00  -3.0455954411601172e-08 2.1725856947821540e-01 0.0000000000000000e+00  1.0148986829578129e-03 2.1725856947822039e-01 0.0000000000000000e+00  -1.0014654512365548e-03 2.3298852895029934e-01 0.0000000000000000e+00  3.0266315598469182e-08 2.3298852895026295e-01 0.0000000000000000e+00  -7.6005602985541047e-13 2.3298852895030464e-01 0.0000000000000000e+00  1.2392087373754114e-14 2.3298852895038666e-01 0.0000000000000000e+00  1.5275027136293302e-14 2.3298852895031749e-01 0.0000000000000000e+00  -1.7504006130305915e-14 2.3298852895028893e-01 0.0000000000000000e+00  -7.7255691360832491e-14 2.3298852895016908e-01 0.0000000000000000e+00  -6.2963331037792941e-14 2.3298852895025868e-01 0.0000000000000000e+00  7.1473951170588678e-13 2.3298852895023572e-01 0.0000000000000000e+00  -3.0266368253119093e-08 2.3298852895018943e-01 0.0000000000000000e+00  1.0014654511759902e-03 2.3298852895028827e-01 0.0000000000000000e+00  -9.8706374545842485e-04 2.4850136052258673e-01 0.0000000000000000e+00  3.0052374829186675e-08 2.4850136052252988e-01 0.0000000000000000e+00  -8.0321586528509069e-13 2.4850136052255767e-01 0.0000000000000000e+00  1.3987566646463661e-14 2.4850136052254923e-01 0.0000000000000000e+00  6.3383146644848661e-15 2.4850136052265850e-01 0.0000000000000000e+00  -3.9322494894664939e-14 2.4850136052251018e-01 0.0000000000000000e+00  -7.0900666258801420e-14 2.4850136052251603e-01 0.0000000000000000e+00  -5.4282605986047772e-14 2.4850136052255750e-01 0.0000000000000000e+00  7.6922621643055818e-13 2.4850136052253857e-01 0.0000000000000000e+00  -3.0052419443873317e-08 2.4850136052260791e-01 0.0000000000000000e+00  9.8706374540987688e-04 2.4850136052256991e-01 0.0000000000000000e+00  -9.7170041554161851e-04 2.6378200749957809e-01 0.0000000000000000e+00  2.9812237072082837e-08 2.6378200749956920e-01 0.0000000000000000e+00  -8.6505006230182690e-13 2.6378200749960706e-01 0.0000000000000000e+00  2.9762108914704645e-14 2.6378200749952613e-01 0.0000000000000000e+00  8.2393836866853440e-15 2.6378200749968694e-01 0.0000000000000000e+00  -4.9602793978048330e-14 2.6378200749958708e-01 0.0000000000000000e+00  -6.9233348427372011e-14 2.6378200749963604e-01 0.0000000000000000e+00  -6.4450311727140346e-14 2.6378200749952324e-01 0.0000000000000000e+00  8.3888111057097714e-13 2.6378200749955516e-01 0.0000000000000000e+00  -2.9812285446584705e-08 2.6378200749953540e-01 0.0000000000000000e+00  9.7170041546184411e-04 2.6378200749951708e-01 0.0000000000000000e+00  -9.5538314943156637e-04 2.7881552644002511e-01 0.0000000000000000e+00  2.9544081369831253e-08 2.7881552644012381e-01 0.0000000000000000e+00  -9.2837940000096570e-13 2.7881552644000784e-01 0.0000000000000000e+00  3.0096778272124163e-14 2.7881552644005708e-01 0.0000000000000000e+00  1.9924870793571089e-14 2.7881552644008101e-01 0.0000000000000000e+00  -5.0009010733520175e-14 2.7881552644006519e-01 0.0000000000000000e+00  -8.6591712915993875e-14 2.7881552644008184e-01 0.0000000000000000e+00  -6.1498277927861634e-14 2.7881552643997803e-01 0.0000000000000000e+00  8.9413167510018630e-13 2.7881552644002677e-01 0.0000000000000000e+00  -2.9544137825454347e-08 2.7881552644005864e-01 0.0000000000000000e+00  9.5538314935125562e-04 2.7881552643998581e-01 0.0000000000000000e+00  -9.3812053194288294e-04 2.9358710069070354e-01 0.0000000000000000e+00  2.9246063129866363e-08 2.9358710069082056e-01 0.0000000000000000e+00  -9.9463424176483964e-13 2.9358710069071431e-01 0.0000000000000000e+00  4.3957745121941581e-14 2.9358710069070093e-01 0.0000000000000000e+00  8.3305857155380208e-15 2.9358710069075022e-01 0.0000000000000000e+00  -4.1104034264928695e-14 2.9358710069070004e-01 0.0000000000000000e+00  -8.1508191851243093e-14 2.9358710069077543e-01 0.0000000000000000e+00  -9.3647981325427844e-14 2.9358710069068605e-01 0.0000000000000000e+00  9.5709398664248613e-13 2.9358710069052546e-01 0.0000000000000000e+00  -2.9246108537162382e-08 2.9358710069066984e-01 0.0000000000000000e+00  9.3812053187416100e-04 2.9358710069067639e-01 0.0000000000000000e+00  -9.1992210304723719e-04 3.0808205483330214e-01 0.0000000000000000e+00  2.8916424665897958e-08 3.0808205483322137e-01 0.0000000000000000e+00  -1.0600132485667627e-12 3.0808205483323065e-01 0.0000000000000000e+00  3.7162351270807198e-14 3.0808205483320122e-01 0.0000000000000000e+00  1.8531607923349369e-14 3.0808205483318646e-01 0.0000000000000000e+00  -5.7604942416468395e-14 3.0808205483321432e-01 0.0000000000000000e+00  -9.1752029374592868e-14 3.0808205483310835e-01 0.0000000000000000e+00  -8.7850942989296495e-14 3.0808205483316392e-01 0.0000000000000000e+00  1.0116132763177478e-12 3.0808205483329398e-01 0.0000000000000000e+00  -2.8916458719862510e-08 3.0808205483319739e-01 0.0000000000000000e+00  9.1992210299479725e-04 3.0808205483316603e-01 0.0000000000000000e+00  -9.0079841497410257e-04 3.2228587003340908e-01 0.0000000000000000e+00  2.8553382840808245e-08 3.2228587003326120e-01 0.0000000000000000e+00  -1.1040543480998371e-12 3.2228587003316134e-01 0.0000000000000000e+00  3.7925059564035284e-14 3.2228587003324177e-01 0.0000000000000000e+00  1.5308540547267975e-14 3.2228587003320619e-01 0.0000000000000000e+00  -4.4248707553795723e-14 3.2228587003334574e-01 0.0000000000000000e+00  -9.2712039377652172e-14 3.2228587003330794e-01 0.0000000000000000e+00  -7.5994871879285330e-14 3.2228587003333453e-01 0.0000000000000000e+00  1.0573681920714192e-12 3.2228587003325276e-01 0.0000000000000000e+00  -2.8553461337122735e-08 3.2228587003320891e-01 0.0000000000000000e+00  9.0079841489227870e-04 3.2228587003333403e-01 0.0000000000000000e+00  -8.8076108738018206e-04 3.3618420026810719e-01 0.0000000000000000e+00  2.8155335701028747e-08 3.3618420026808432e-01 0.0000000000000000e+00  -1.1646994183610128e-12 3.3618420026812035e-01 0.0000000000000000e+00  4.1090259126335761e-14 3.3618420026804230e-01 0.0000000000000000e+00  3.3844243644240421e-14 3.3618420026800483e-01 0.0000000000000000e+00  -4.1848268929452664e-14 3.3618420026814994e-01 0.0000000000000000e+00  -9.6237717286889327e-14 3.3618420026809487e-01 0.0000000000000000e+00  -8.6688072034265708e-14 3.3618420026811757e-01 0.0000000000000000e+00  1.0946000434556548e-12 3.3618420026808093e-01 0.0000000000000000e+00  -2.8155409366669599e-08 3.3618420026798995e-01 0.0000000000000000e+00  8.8076108732232177e-04 3.3618420026808582e-01 0.0000000000000000e+00  -8.5982286051931953e-04 3.4976288939960160e-01 0.0000000000000000e+00  2.7720727157045076e-08 3.4976288939959599e-01 0.0000000000000000e+00  -1.2074749670681105e-12 3.4976288939957195e-01 0.0000000000000000e+00  2.1708183291564690e-14 3.4976288939954320e-01 0.0000000000000000e+00  3.4794930774297742e-14 3.4976288939950817e-01 0.0000000000000000e+00  -2.2928581217008507e-14 3.4976288939952516e-01 0.0000000000000000e+00  -9.6237876380757946e-14 3.4976288939961780e-01 0.0000000000000000e+00  -8.8653204793636250e-14 3.4976288939963945e-01 0.0000000000000000e+00  1.1319952806833396e-12 3.4976288939953609e-01 0.0000000000000000e+00  -2.7720802757891422e-08 3.4976288939959188e-01 0.0000000000000000e+00  8.5982286045935448e-04 3.4976288939956562e-01 0.0000000000000000e+00  -8.3799764494065768e-04 3.6300798905101817e-01 0.0000000000000000e+00  2.7248075872194078e-08 3.6300798905107112e-01 0.0000000000000000e+00  -1.2580771260553853e-12 3.6300798905098697e-01 0.0000000000000000e+00  2.4027897786578626e-14 3.6300798905094189e-01 0.0000000000000000e+00  3.1559900074689867e-14 3.6300798905100329e-01 0.0000000000000000e+00  -2.3273235795802751e-14 3.6300798905092951e-01 0.0000000000000000e+00  -6.9180059139601670e-14 3.6300798905099557e-01 0.0000000000000000e+00  -9.6559764954216083e-14 3.6300798905112336e-01 0.0000000000000000e+00  1.1606842900212725e-12 3.6300798905103038e-01 0.0000000000000000e+00  -2.7248153525504107e-08 3.6300798905098308e-01 0.0000000000000000e+00  8.3799764487221416e-04 3.6300798905091441e-01 0.0000000000000000e+00  -8.1530056779878816e-04 3.7590577723387358e-01 0.0000000000000000e+00  2.6736101656055858e-08 3.7590577723399154e-01 0.0000000000000000e+00  -1.3121355872983305e-12 3.7590577723398333e-01 0.0000000000000000e+00  2.8994232290579843e-14 3.7590577723392404e-01 0.0000000000000000e+00  3.7137518010421565e-14 3.7590577723396140e-01 0.0000000000000000e+00  -2.4469417481008524e-14 3.7590577723400814e-01 0.0000000000000000e+00  -6.0396152982280005e-14 3.7590577723399288e-01 0.0000000000000000e+00  -8.8712747171684859e-14 3.7590577723400481e-01 0.0000000000000000e+00  1.1832696669845062e-12 3.7590577723402396e-01 0.0000000000000000e+00  -2.6736194446339751e-08 3.7590577723398050e-01 0.0000000000000000e+00  8.1530056774816730e-04 3.7590577723399388e-01 0.0000000000000000e+00  -7.9174801476323425e-04 3.8844277766512575e-01 0.0000000000000000e+00  2.6183637722069400e-08 3.8844277766518015e-01 0.0000000000000000e+00  -1.3455061998025369e-12 3.8844277766517499e-01 0.0000000000000000e+00  1.8742852356400331e-14 3.8844277766520269e-01 0.0000000000000000e+00  4.3692150380567363e-14 3.8844277766514279e-01 0.0000000000000000e+00  -1.8357102413257301e-14 3.8844277766525220e-01 0.0000000000000000e+00  -7.0905431375519847e-14 3.8844277766516999e-01 0.0000000000000000e+00  -