<?xml version="1.0"?>
<VTKFile type="UnstructuredGrid"  version="0.1"  >
<UnstructuredGrid>
<Piece  NumberOfPoints="1661" NumberOfCells="3200">
<Points>
<DataArray  type="Float64"  NumberOfComponents="3"  format="ascii">-0.25 -1 0  -0.225 -1 0  -0.2 -1 0  -0.175 -1 0  -0.15 -1 0  -0.125 -1 0  -0.1 -1 0  -0.07500000000000001 -1 0  -0.04999999999999999 -1 0  -0.02499999999999999 -1 0  0 -1 0  0.02500000000000002 -1 0  0.04999999999999999 -1 0  0.07500000000000001 -1 0  0.09999999999999998 -1 0  0.125 -1 0  0.15 -1 0  0.175 -1 0  0.2 -1 0  0.225 -1 0  0.25 -1 0  -0.25 -0.975 0  -0.225 -0.975 0  -0.2 -0.975 0  -0.175 -0.975 0  -0.15 -0.975 0  -0.125 -0.975 0  -0.1 -0.975 0  -0.07500000000000001 -0.975 0  -0.04999999999999999 -0.975 0  -0.02499999999999999 -0.975 0  0 -0.975 0  0.02500000000000002 -0.975 0  0.04999999999999999 -0.975 0  0.07500000000000001 -0.975 0  0.09999999999999998 -0.975 0  0.125 -0.975 0  0.15 -0.975 0  0.175 -0.975 0  0.2 -0.975 0  0.225 -0.975 0  0.25 -0.975 0  -0.25 -0.95 0  -0.225 -0.95 0  -0.2 -0.95 0  -0.175 -0.95 0  -0.15 -0.95 0  -0.125 -0.95 0  -0.1 -0.95 0  -0.07500000000000001 -0.95 0  -0.04999999999999999 -0.95 0  -0.02499999999999999 -0.95 0  0 -0.95 0  0.02500000000000002 -0.95 0  0.04999999999999999 -0.95 0  0.07500000000000001 -0.95 0  0.09999999999999998 -0.95 0  0.125 -0.95 0  0.15 -0.95 0  0.175 -0.95 0  0.2 -0.95 0  0.225 -0.95 0  0.25 -0.95 0  -0.25 -0.925 0  -0.225 -0.925 0  -0.2 -0.925 0  -0.175 -0.925 0  -0.15 -0.925 0  -0.125 -0.925 0  -0.1 -0.925 0  -0.07500000000000001 -0.925 0  -0.04999999999999999 -0.925 0  -0.02499999999999999 -0.925 0  0 -0.925 0  0.02500000000000002 -0.925 0  0.04999999999999999 -0.925 0  0.07500000000000001 -0.925 0  0.09999999999999998 -0.925 0  0.125 -0.925 0  0.15 -0.925 0  0.175 -0.925 0  0.2 -0.925 0  0.225 -0.925 0  0.25 -0.925 0  -0.25 -0.9 0  -0.225 -0.9 0  -0.2 -0.9 0  -0.175 -0.9 0  -0.15 -0.9 0  -0.125 -0.9 0  -0.1 -0.9 0  -0.07500000000000001 -0.9 0  -0.04999999999999999 -0.9 0  -0.02499999999999999 -0.9 0  0 -0.9 0  0.02500000000000002 -0.9 0  0.04999999999999999 -0.9 0  0.07500000000000001 -0.9 0  0.09999999999999998 -0.9 0  0.125 -0.9 0  0.15 -0.9 0  0.175 -0.9 0  0.2 -0.9 0  0.225 -0.9 0  0.25 -0.9 0  -0.25 -0.875 0  -0.225 -0.875 0  -0.2 -0.875 0  -0.175 -0.875 0  -0.15 -0.875 0  -0.125 -0.875 0  -0.1 -0.875 0  -0.07500000000000001 -0.875 0  -0.04999999999999999 -0.875 0  -0.02499999999999999 -0.875 0  0 -0.875 0  0.02500000000000002 -0.875 0  0.04999999999999999 -0.875 0  0.07500000000000001 -0.875 0  0.09999999999999998 -0.875 0  0.125 -0.875 0  0.15 -0.875 0  0.175 -0.875 0  0.2 -0.875 0  0.225 -0.875 0  0.25 -0.875 0  -0.25 -0.85 0  -0.225 -0.85 0  -0.2 -0.85 0  -0.175 -0.85 0  -0.15 -0.85 0  -0.125 -0.85 0  -0.1 -0.85 0  -0.07500000000000001 -0.85 0  -0.04999999999999999 -0.85 0  -0.02499999999999999 -0.85 0  0 -0.85 0  0.02500000000000002 -0.85 0  0.04999999999999999 -0.85 0  0.07500000000000001 -0.85 0  0.09999999999999998 -0.85 0  0.125 -0.85 0  0.15 -0.85 0  0.175 -0.85 0  0.2 -0.85 0  0.225 -0.85 0  0.25 -0.85 0  -0.25 -0.825 0  -0.225 -0.825 0  -0.2 -0.825 0  -0.175 -0.825 0  -0.15 -0.825 0  -0.125 -0.825 0  -0.1 -0.825 0  -0.07500000000000001 -0.825 0  -0.04999999999999999 -0.825 0  -0.02499999999999999 -0.825 0  0 -0.825 0  0.02500000000000002 -0.825 0  0.04999999999999999 -0.825 0  0.07500000000000001 -0.825 0  0.09999999999999998 -0.825 0  0.125 -0.825 0  0.15 -0.825 0  0.175 -0.825 0  0.2 -0.825 0  0.225 -0.825 0  0.25 -0.825 0  -0.25 -0.8 0  -0.225 -0.8 0  -0.2 -0.8 0  -0.175 -0.8 0  -0.15 -0.8 0  -0.125 -0.8 0  -0.1 -0.8 0  -0.07500000000000001 -0.8 0  -0.04999999999999999 -0.8 0  -0.02499999999999999 -0.8 0  0 -0.8 0  0.02500000000000002 -0.8 0  0.04999999999999999 -0.8 0  0.07500000000000001 -0.8 0  0.09999999999999998 -0.8 0  0.125 -0.8 0  0.15 -0.8 0  0.175 -0.8 0  0.2 -0.8 0  0.225 -0.8 0  0.25 -0.8 0  -0.25 -0.775 0  -0.225 -0.775 0  -0.2 -0.775 0  -0.175 -0.775 0  -0.15 -0.775 0  -0.125 -0.775 0  -0.1 -0.775 0  -0.07500000000000001 -0.775 0  -0.04999999999999999 -0.775 0  -0.02499999999999999 -0.775 0  0 -0.775 0  0.02500000000000002 -0.775 0  0.04999999999999999 -0.775 0  0.07500000000000001 -0.775 0  0.09999999999999998 -0.775 0  0.125 -0.775 0  0.15 -0.775 0  0.175 -0.775 0  0.2 -0.775 0  0.225 -0.775 0  0.25 -0.775 0  -0.25 -0.75 0  -0.225 -0.75 0  -0.2 -0.75 0  -0.175 -0.75 0  -0.15 -0.75 0  -0.125 -0.75 0  -0.1 -0.75 0  -0.07500000000000001 -0.75 0  -0.04999999999999999 -0.75 0  -0.02499999999999999 -0.75 0  0 -0.75 0  0.02500000000000002 -0.75 0  0.04999999999999999 -0.75 0  0.07500000000000001 -0.75 0  0.09999999999999998 -0.75 0  0.125 -0.75 0  0.15 -0.75 0  0.175 -0.75 0  0.2 -0.75 0  0.225 -0.75 0  0.25 -0.75 0  -0.25 -0.725 0  -0.225 -0.725 0  -0.2 -0.725 0  -0.175 -0.725 0  -0.15 -0.725 0  -0.125 -0.725 0  -0.1 -0.725 0  -0.07500000000000001 -0.725 0  -0.04999999999999999 -0.725 0  -0.02499999999999999 -0.725 0  0 -0.725 0  0.02500000000000002 -0.725 0  0.04999999999999999 -0.725 0  0.07500000000000001 -0.725 0  0.09999999999999998 -0.725 0  0.125 -0.725 0  0.15 -0.725 0  0.175 -0.725 0  0.2 -0.725 0  0.225 -0.725 0  0.25 -0.725 0  -0.25 -0.7 0  -0.225 -0.7 0  -0.2 -0.7 0  -0.175 -0.7 0  -0.15 -0.7 0  -0.125 -0.7 0  -0.1 -0.7 0  -0.07500000000000001 -0.7 0  -0.04999999999999999 -0.7 0  -0.02499999999999999 -0.7 0  0 -0.7 0  0.02500000000000002 -0.7 0  0.04999999999999999 -0.7 0  0.07500000000000001 -0.7 0  0.09999999999999998 -0.7 0  0.125 -0.7 0  0.15 -0.7 0  0.175 -0.7 0  0.2 -0.7 0  0.225 -0.7 0  0.25 -0.7 0  -0.25 -0.675 0  -0.225 -0.675 0  -0.2 -0.675 0  -0.175 -0.675 0  -0.15 -0.675 0  -0.125 -0.675 0  -0.1 -0.675 0  -0.07500000000000001 -0.675 0  -0.04999999999999999 -0.675 0  -0.02499999999999999 -0.675 0  0 -0.675 0  0.02500000000000002 -0.675 0  0.04999999999999999 -0.675 0  0.07500000000000001 -0.675 0  0.09999999999999998 -0.675 0  0.125 -0.675 0  0.15 -0.675 0  0.175 -0.675 0  0.2 -0.675 0  0.225 -0.675 0  0.25 -0.675 0  -0.25 -0.65 0  -0.225 -0.65 0  -0.2 -0.65 0  -0.175 -0.65 0  -0.15 -0.65 0  -0.125 -0.65 0  -0.1 -0.65 0  -0.07500000000000001 -0.65 0  -0.04999999999999999 -0.65 0  -0.02499999999999999 -0.65 0  0 -0.65 0  0.02500000000000002 -0.65 0  0.04999999999999999 -0.65 0  0.07500000000000001 -0.65 0  0.09999999999999998 -0.65 0  0.125 -0.65 0  0.15 -0.65 0  0.175 -0.65 0  0.2 -0.65 0  0.225 -0.65 0  0.25 -0.65 0  -0.25 -0.625 0  -0.225 -0.625 0  -0.2 -0.625 0  -0.175 -0.625 0  -0.15 -0.625 0  -0.125 -0.625 0  -0.1 -0.625 0  -0.07500000000000001 -0.625 0  -0.04999999999999999 -0.625 0  -0.02499999999999999 -0.625 0  0 -0.625 0  0.02500000000000002 -0.625 0  0.04999999999999999 -0.625 0  0.07500000000000001 -0.625 0  0.09999999999999998 -0.625 0  0.125 -0.625 0  0.15 -0.625 0  0.175 -0.625 0  0.2 -0.625 0  0.225 -0.625 0  0.25 -0.625 0  -0.25 -0.6 0  -0.225 -0.6 0  -0.2 -0.6 0  -0.175 -0.6 0  -0.15 -0.6 0  -0.125 -0.6 0  -0.1 -0.6 0  -0.07500000000000001 -0.6 0  -0.04999999999999999 -0.6 0  -0.02499999999999999 -0.6 0  0 -0.6 0  0.02500000000000002 -0.6 0  0.04999999999999999 -0.6 0  0.07500000000000001 -0.6 0  0.09999999999999998 -0.6 0  0.125 -0.6 0  0.15 -0.6 0  0.175 -0.6 0  0.2 -0.6 0  0.225 -0.6 0  0.25 -0.6 0  -0.25 -0.575 0  -0.225 -0.575 0  -0.2 -0.575 0  -0.175 -0.575 0  -0.15 -0.575 0  -0.125 -0.575 0  -0.1 -0.575 0  -0.07500000000000001 -0.575 0  -0.04999999999999999 -0.575 0  -0.02499999999999999 -0.575 0  0 -0.575 0  0.02500000000000002 -0.575 0  0.04999999999999999 -0.575 0  0.07500000000000001 -0.575 0  0.09999999999999998 -0.575 0  0.125 -0.575 0  0.15 -0.575 0  0.175 -0.575 0  0.2 -0.575 0  0.225 -0.575 0  0.25 -0.575 0  -0.25 -0.55 0  -0.225 -0.55 0  -0.2 -0.55 0  -0.175 -0.55 0  -0.15 -0.55 0  -0.125 -0.55 0  -0.1 -0.55 0  -0.07500000000000001 -0.55 0  -0.04999999999999999 -0.55 0  -0.02499999999999999 -0.55 0  0 -0.55 0  0.02500000000000002 -0.55 0  0.04999999999999999 -0.55 0  0.07500000000000001 -0.55 0  0.09999999999999998 -0.55 0  0.125 -0.55 0  0.15 -0.55 0  0.175 -0.55 0  0.2 -0.55 0  0.225 -0.55 0  0.25 -0.55 0  -0.25 -0.525 0  -0.225 -0.525 0  -0.2 -0.525 0  -0.175 -0.525 0  -0.15 -0.525 0  -0.125 -0.525 0  -0.1 -0.525 0  -0.07500000000000001 -0.525 0  -0.04999999999999999 -0.525 0  -0.02499999999999999 -0.525 0  0 -0.525 0  0.02500000000000002 -0.525 0  0.04999999999999999 -0.525 0  0.07500000000000001 -0.525 0  0.09999999999999998 -0.525 0  0.125 -0.525 0  0.15 -0.525 0  0.175 -0.525 0  0.2 -0.525 0  0.225 -0.525 0  0.25 -0.525 0  -0.25 -0.5 0  -0.225 -0.5 0  -0.2 -0.5 0  -0.175 -0.5 0  -0.15 -0.5 0  -0.125 -0.5 0  -0.1 -0.5 0  -0.07500000000000001 -0.5 0  -0.04999999999999999 -0.5 0  -0.02499999999999999 -0.5 0  0 -0.5 0  0.02500000000000002 -0.5 0  0.04999999999999999 -0.5 0  0.07500000000000001 -0.5 0  0.09999999999999998 -0.5 0  0.125 -0.5 0  0.15 -0.5 0  0.175 -0.5 0  0.2 -0.5 0  0.225 -0.5 0  0.25 -0.5 0  -0.25 -0.475 0  -0.225 -0.475 0  -0.2 -0.475 0  -0.175 -0.475 0  -0.15 -0.475 0  -0.125 -0.475 0  -0.1 -0.475 0  -0.07500000000000001 -0.475 0  -0.04999999999999999 -0.475 0  -0.02499999999999999 -0.475 0  0 -0.475 0  0.02500000000000002 -0.475 0  0.04999999999999999 -0.475 0  0.07500000000000001 -0.475 0  0.09999999999999998 -0.475 0  0.125 -0.475 0  0.15 -0.475 0  0.175 -0.475 0  0.2 -0.475 0  0.225 -0.475 0  0.25 -0.475 0  -0.25 -0.45 0  -0.225 -0.45 0  -0.2 -0.45 0  -0.175 -0.45 0  -0.15 -0.45 0  -0.125 -0.45 0  -0.1 -0.45 0  -0.07500000000000001 -0.45 0  -0.04999999999999999 -0.45 0  -0.02499999999999999 -0.45 0  0 -0.45 0  0.02500000000000002 -0.45 0  0.04999999999999999 -0.45 0  0.07500000000000001 -0.45 0  0.09999999999999998 -0.45 0  0.125 -0.45 0  0.15 -0.45 0  0.175 -0.45 0  0.2 -0.45 0  0.225 -0.45 0  0.25 -0.45 0  -0.25 -0.425 0  -0.225 -0.425 0  -0.2 -0.425 0  -0.175 -0.425 0  -0.15 -0.425 0  -0.125 -0.425 0  -0.1 -0.425 0  -0.07500000000000001 -0.425 0  -0.04999999999999999 -0.425 0  -0.02499999999999999 -0.425 0  0 -0.425 0  0.02500000000000002 -0.425 0  0.04999999999999999 -0.425 0  0.07500000000000001 -0.425 0  0.
[...]
<PointData  Vectors="flow"> 
<DataArray  type="Float64"  Name="flow"  NumberOfComponents="3" format="ascii">-1.2390662769280394e+00 2.4781585788357812e+00 0.0000000000000000e+00  5.9159636596540728e-05 2.4781585788347460e+00 0.0000000000000000e+00  -2.6229230286496888e-09 2.4781585788390310e+00 0.0000000000000000e+00  -1.6879546340323423e-12 2.4781585788342060e+00 0.0000000000000000e+00  -3.3373132520786466e-12 2.4781585788361160e+00 0.0000000000000000e+00  -5.6044786092943548e-12 2.4781585788375606e+00 0.0000000000000000e+00  -1.0554309525055110e-11 2.4781585788367306e+00 0.0000000000000000e+00  -1.1122647181191715e-11 2.4781585788315157e+00 0.0000000000000000e+00  -6.9438049263712473e-12 2.4781585788217777e+00 0.0000000000000000e+00  -1.2510801787523300e-11 2.4781585788309224e+00 0.0000000000000000e+00  -1.3190501927885269e-11 2.4781585788384159e+00 0.0000000000000000e+00  -9.4391481941277006e-12 2.4781585788335208e+00 0.0000000000000000e+00  -8.0728364232294887e-12 2.4781585788384990e+00 0.0000000000000000e+00  -1.3190642195203445e-11 2.4781585788234115e+00 0.0000000000000000e+00  -1.0525930812303366e-11 2.4781585788398464e+00 0.0000000000000000e+00  -3.3291872453493595e-12 2.4781585788248273e+00 0.0000000000000000e+00  -4.9578488924766878e-13 2.4781585788294036e+00 0.0000000000000000e+00  -6.7436485804573106e-12 2.4781585788333698e+00 0.0000000000000000e+00  2.6129245943025254e-09 2.4781585788365570e+00 0.0000000000000000e+00  -5.9159642249346574e-05 2.4781585788343103e+00 0.0000000000000000e+00  1.2390662769483927e+00 2.4781585788184874e+00 0.0000000000000000e+00  -1.2381198063053576e+00 7.4323201238249137e+00 0.0000000000000000e+00  5.9117844449881796e-05 7.4323201238199124e+00 0.0000000000000000e+00  -2.6175577428294561e-09 7.4323201238225476e+00 0.0000000000000000e+00  -4.8471789522532422e-12 7.4323201238266776e+00 0.0000000000000000e+00  -5.1969835993275789e-12 7.4323201238211452e+00 0.0000000000000000e+00  -5.9839603955527524e-12 7.4323201238192889e+00 0.0000000000000000e+00  -5.3652793155437814e-12 7.4323201238223104e+00 0.0000000000000000e+00  -1.1850192828439180e-11 7.4323201238248426e+00 0.0000000000000000e+00  -1.0724974123536027e-11 7.4323201238270480e+00 0.0000000000000000e+00  -9.8994151408810021e-12 7.4323201238237866e+00 0.0000000000000000e+00  -1.3490350349767164e-11 7.4323201238236170e+00 0.0000000000000000e+00  -9.3875698896663078e-12 7.4323201238185055e+00 0.0000000000000000e+00  -1.4708827962513262e-11 7.4323201238227181e+00 0.0000000000000000e+00  -4.9925751008809875e-12 7.4323201238189815e+00 0.0000000000000000e+00  -1.1023905544803240e-11 7.4323201238217500e+00 0.0000000000000000e+00  -6.8120975393138736e-12 7.4323201238233931e+00 0.0000000000000000e+00  4.3088926966174616e-14 7.4323201238221746e+00 0.0000000000000000e+00  -3.4187369686337990e-12 7.4323201238242422e+00 0.0000000000000000e+00  2.6115946171482489e-09 7.4323201238192205e+00 0.0000000000000000e+00  -5.9117851486302247e-05 7.4323201238233185e+00 0.0000000000000000e+00  1.2381198063121817e+00 7.4323201238259156e+00 0.0000000000000000e+00  -1.2352817317670293e+00 1.4853285535713900e+01 0.0000000000000000e+00  5.8992474642361236e-05 1.4853285535715330e+01 0.0000000000000000e+00  -2.6138743929227402e-09 1.4853285535714853e+01 0.0000000000000000e+00  -1.3291318037914234e-12 1.4853285535718589e+01 0.0000000000000000e+00  -6.5008946834892428e-12 1.4853285535719973e+01 0.0000000000000000e+00  -7.4617038911515624e-12 1.4853285535719941e+01 0.0000000000000000e+00  -6.8938366527284000e-12 1.4853285535713352e+01 0.0000000000000000e+00  -9.0762768743684100e-12 1.4853285535714841e+01 0.0000000000000000e+00  -8.2876660890054802e-12 1.4853285535715445e+01 0.0000000000000000e+00  -1.0054162780855951e-11 1.4853285535718516e+01 0.0000000000000000e+00  -1.7517470069054538e-11 1.4853285535717596e+01 0.0000000000000000e+00  -1.0397095350686157e-11 1.4853285535718719e+01 0.0000000000000000e+00  -1.2083510590568300e-11 1.4853285535711828e+01 0.0000000000000000e+00  -9.2251078102004617e-12 1.4853285535716704e+01 0.0000000000000000e+00  -4.4941506469174135e-12 1.4853285535715020e+01 0.0000000000000000e+00  -5.0550988446320545e-12 1.4853285535719253e+01 0.0000000000000000e+00  -6.3411001971697040e-12 1.4853285535717063e+01 0.0000000000000000e+00  -1.0673642391848775e-12 1.4853285535711986e+01 0.0000000000000000e+00  2.6062989909474260e-09 1.4853285535719731e+01 0.0000000000000000e+00  -5.8992476566369863e-05 1.4853285535717143e+01 0.0000000000000000e+00  1.2352817317714759e+00 1.4853285535718426e+01 0.0000000000000000e+00  -1.2305560649334644e+00 2.2251557570939713e+01 0.0000000000000000e+00  5.8783573644326000e-05 2.2251557570939777e+01 0.0000000000000000e+00  -2.6118216170286262e-09 2.2251557570938278e+01 0.0000000000000000e+00  -3.3516756817565846e-12 2.2251557570935400e+01 0.0000000000000000e+00  -6.2194028195369898e-12 2.2251557570937958e+01 0.0000000000000000e+00  -1.0696948827998077e-11 2.2251557570935276e+01 0.0000000000000000e+00  -4.5013111218010298e-12 2.2251557570938644e+01 0.0000000000000000e+00  -6.3384638288474967e-12 2.2251557570942509e+01 0.0000000000000000e+00  -1.2295887715523416e-11 2.2251557570939468e+01 0.0000000000000000e+00  -1.0346383617537768e-11 2.2251557570936988e+01 0.0000000000000000e+00  -1.2303719944894269e-11 2.2251557570938452e+01 0.0000000000000000e+00  -1.4222842813948338e-11 2.2251557570940946e+01 0.0000000000000000e+00  -1.2162026000001014e-11 2.2251557570939706e+01 0.0000000000000000e+00  -7.5828962262518443e-12 2.2251557570942161e+01 0.0000000000000000e+00  -7.4865730542765729e-12 2.2251557570942133e+01 0.0000000000000000e+00  -4.5744593244175436e-12 2.2251557570935294e+01 0.0000000000000000e+00  -3.4391453732647153e-12 2.2251557570943831e+01 0.0000000000000000e+00  -4.3364174514927084e-12 2.2251557570938413e+01 0.0000000000000000e+00  2.6099519576452072e-09 2.2251557570939248e+01 0.0000000000000000e+00  -5.8783579460965040e-05 2.2251557570937518e+01 0.0000000000000000e+00  1.2305560649357346e+00 2.2251557570939649e+01 0.0000000000000000e+00  -1.2239494906050121e+00 2.9615829654623433e+01 0.0000000000000000e+00  5.8491192274688121e-05 2.9615829654622601e+01 0.0000000000000000e+00  -2.6116637441744081e-09 2.9615829654627799e+01 0.0000000000000000e+00  8.7667888940804334e-14 2.9615829654621706e+01 0.0000000000000000e+00  -6.6284088126050892e-12 2.9615829654626243e+01 0.0000000000000000e+00  -8.8485175634225412e-12 2.9615829654623870e+01 0.0000000000000000e+00  -5.3948342718101080e-12 2.9615829654627046e+01 0.0000000000000000e+00  -1.1947252557561357e-11 2.9615829654617396e+01 0.0000000000000000e+00  -8.1697771342264540e-12 2.9615829654621933e+01 0.0000000000000000e+00  -7.8142659083728987e-12 2.9615829654622093e+01 0.0000000000000000e+00  -1.5858592950956047e-11 2.9615829654625134e+01 0.0000000000000000e+00  -1.3552089259809735e-11 2.9615829654619407e+01 0.0000000000000000e+00  -1.0963580720288046e-11 2.9615829654624740e+01 0.0000000000000000e+00  -5.2792920606672963e-12 2.9615829654623671e+01 0.0000000000000000e+00  -8.6471844677416320e-12 2.9615829654619866e+01 0.0000000000000000e+00  -6.2421293102656545e-12 2.9615829654628413e+01 0.0000000000000000e+00  -2.3640158648555191e-12 2.9615829654617592e+01 0.0000000000000000e+00  -5.3287338870874484e-12 2.9615829654627618e+01 0.0000000000000000e+00  2.6051223931084938e-09 2.9615829654620576e+01 0.0000000000000000e+00  -5.8491196537337321e-05 2.9615829654625351e+01 0.0000000000000000e+00  1.2239494906144015e+00 2.9615829654622043e+01 0.0000000000000000e+00  -1.2154713647788373e+00 3.6934843335220108e+01 0.0000000000000000e+00  5.8115427809036672e-05 3.6934843335220485e+01 0.0000000000000000e+00  -2.6054052290777040e-09 3.6934843335215852e+01 0.0000000000000000e+00  -6.9554251735094674e-12 3.6934843335220343e+01 0.0000000000000000e+00  -4.5395198033489218e-12 3.6934843335216748e+01 0.0000000000000000e+00  -2.7388754516857900e-12 3.6934843335218993e+01 0.0000000000000000e+00  -8.8335147380740960e-12 3.6934843335217955e+01 0.0000000000000000e+00  -1.2001313417346447e-11 3.6934843335223583e+01 0.0000000000000000e+00  -7.6760100304104779e-12 3.6934843335219860e+01 0.0000000000000000e+00  -1.1679843981631510e-11 3.6934843335223903e+01 0.0000000000000000e+00  -1.4115890916193359e-11 3.6934843335215028e+01 0.0000000000000000e+00  -1.1114128113854182e-11 3.6934843335222460e+01 0.0000000000000000e+00  -1.3229025350424308e-11 3.6934843335221785e+01 0.0000000000000000e+00  -7.5562561773144261e-12 3.6934843335218055e+01 0.0000000000000000e+00  -1.0321241054767427e-11 3.6934843335217117e+01 0.0000000000000000e+00  -3.1317357942490621e-12 3.6934843335215767e+01 0.0000000000000000e+00  -3.4499208203619454e-12 3.6934843335216890e+01 0.0000000000000000e+00  -4.0068913649321332e-12 3.6934843335218424e+01 0.0000000000000000e+00  2.6039930204735903e-09 3.6934843335217494e+01 0.0000000000000000e+00  -5.8115431217349333e-05 3.6934843335222766e+01 0.0000000000000000e+00  1.2154713647783590e+00 3.6934843335214062e+01 0.0000000000000000e+00  -1.2051337117160290e+00 4.4197404303360173e+01 0.0000000000000000e+00  5.7656395711074753e-05 4.4197404303363022e+01 0.0000000000000000e+00  -2.6007574825658431e-09 4.4197404303363975e+01 0.0000000000000000e+00  -1.9738633050142325e-12 4.4197404303361679e+01 0.0000000000000000e+00  -8.5281939613259974e-12 4.4197404303365929e+01 0.0000000000000000e+00  -2.0157629694807153e-12 4.4197404303366845e+01 0.0000000000000000e+00  -7.5028070063813817e-12 4.4197404303365722e+01 0.0000000000000000e+00  -1.5241630704185051e-11 4.4197404303367200e+01 0.0000000000000000e+00  -3.8525297634144694e-12 4.4197404303358852e+01 0.0000000000000000e+00  -1.3612211478249039e-11 4.4197404303361473e+01 0.0000000000000000e+00  -1.7268850249655301e-11 4.4197404303364998e+01 0.0000000000000000e+00  -6.6501245881652339e-12 4.4197404303360457e+01 0.0000000000000000e+00  -1.0627423750771935e-11 4.4197404303362937e+01 0.0000000000000000e+00  -1.0218615882112937e-11 4.4197404303361687e+01 0.0000000000000000e+00  -1.1650296039598334e-11 4.4197404303365460e+01 0.0000000000000000e+00  -4.3812949198661922e-12 4.4197404303360294e+01 0.0000000000000000e+00  3.5296461963273619e-14 4.4197404303363626e+01 0.0000000000000000e+00  -5.8530580943727450e-12 4.4197404303359725e+01 0.0000000000000000e+00  2.5976906721872068e-09 4.4197404303363712e+01 0.0000000000000000e+00  -5.7656402237181156e-05 4.4197404303357260e+01 0.0000000000000000e+00  1.2051337117261023e+00 4.4197404303368444e+01 0.0000000000000000e+00  -1.1929512200196581e+00 5.1392398390065779e+01 0.0000000000000000e+00  5.7114278357080897e-05 5.1392398390060116e+01 0.0000000000000000e+00  -2.5967472610003641e-09 5.1392398390064535e+01 0.0000000000000000e+00  -3.2414122140591535e-12 5.1392398390065033e+01 0.0000000000000000e+00  -3.8923920293919390e-12 5.1392398390063342e+01 0.0000000000000000e+00  -2.9473113479997192e-12 5.1392398390063306e+01 0.0000000000000000e+00  -5.5922400958082874e-12 5.1392398390062567e+01 0.0000000000000000e+00  -1.4617215932098000e-11 5.1392398390062588e+01 0.0000000000000000e+00  -1.1747062667214600e-11 5.1392398390067960e+01 0.0000000000000000e+00  -8.8052556803255490e-12 5.1392398390059221e+01 0.0000000000000000e+00  -8.9385853349482608e-12 5.1392398390063804e+01 0.0000000000000000e+00  -1.6163345177912049e-11 5.1392398390067676e+01 0.0000000000000000e+00  -1.2533661769738221e-11 5.1392398390059746e+01 0.0000000000000000e+00  -9.7697311753259444e-12 5.1392398390063377e+01 0.0000000000000000e+00  -7.8025779587135190e-12 5.1392398390061878e+01 0.0000000000000000e+00  -6.1416649342631255e-12 5.1392398390065672e+01 0.0000000000000000e+00  -5.5888076210743601e-12 5.1392398390063214e+01 0.0000000000000000e+00  -9.0039201773513412e-13 5.1392398390062937e+01 0.0000000000000000e+00  2.5875509209339169e-09 5.1392398390064194e+01 0.0000000000000000e+00  -5.7114278393784590e-05 5.1392398390059789e+01 0.0000000000000000e+00  1.1929512200260179e+00 5.1392398390060379e+01 0.0000000000000000e+00  -1.1789412371879986e+00 5.8508807537055652e+01 0.0000000000000000e+00  5.6489267731172600e-05 5.8508807537060065e+01 0.0000000000000000e+00  -2.5837061153681749e-09 5.8508807537058438e+01 0.0000000000000000e+00  -1.5662884756680951e-12 5.8508807537062360e+01 0.0000000000000000e+00  -9.0216276901726509e-12 5.8508807537058189e+01 0.0000000000000000e+00  -3.5752185540861266e-12 5.8508807537059631e+01 0.0000000000000000e+00  -7.2569769420385182e-12 5.8508807537060243e+01 0.0000000000000000e+00  -9.5328383555387419e-12 5.8508807537057145e+01 0.0000000000000000e+00  -1.2792812523948220e-11 5.8508807537062651e+01 0.0000000000000000e+00  -1.2369867251399023e-11 5.8508807537064307e+01 0.0000000000000000e+00  -1.1295181172752014e-11 5.8508807537058424e+01 0.0000000000000000e+00  -1.3296430354741825e-11 5.8508807537062886e+01 0.0000000000000000e+00  -1.0678122687186702e-11 5.8508807537057905e+01 0.0000000000000000e+00  -1.0078092308573467e-11 5.8508807537061017e+01 0.0000000000000000e+00  -1.0445252416393464e-11 5.8508807537059432e+01 0.0000000000000000e+00  -1.9228417783420521e-12 5.8508807537058139e+01 0.0000000000000000e+00  -5.1280510366767452e-12 5.8508807537060044e+01 0.0000000000000000e+00  -1.1683444610136897e-12 5.8508807537060861e+01 0.0000000000000000e+00  2.5789536598183113e-09 5.8508807537056498e+01 0.0000000000000000e+00  -5.6489274295771115e-05 5.8508807537061912e+01 0.0000000000000000e+00  1.1789412371997454e+00 5.8508807537056164e+01 0.0000000000000000e+00  -1.1631237629314743e+00 6.5535725730886881e+01 0.0000000000000000e+00  5.5781649066858271e-05 6.5535725730887663e+01 0.0000000000000000e+00  -2.5739554960819059e-09 6.5535725730885034e+01 0.0000000000000000e+00  -3.4565285930395882e-12 6.5535725730886369e+01 0.0000000000000000e+00  -4.3958509428538621e-12 6.5535725730890405e+01 0.0000000000000000e+00  -5.2190816434602759e-12 6.5535725730887421e+01 0.0000000000000000e+00  -7.8685431050432330e-12 6.5535725730889851e+01 0.0000000000000000e+00  -9.2587846096588637e-12 6.5535725730887137e+01 0.0000000000000000e+00  -1.1541937801354555e-11 6.5535725730887066e+01 0.0000000000000000e+00  -1.0628288450625763e-11 6.5535725730887222e+01 0.0000000000000000e+00  -1.2673935688429992e-11 6.5535725730888416e+01 0.0000000000000000e+00  -1.3612611544888357e-11 6.5535725730884664e+01 0.0000000000000000e+00  -1.3034365088688553e-11 6.5535725730890078e+01 0.0000000000000000e+00  -9.0792272006162357e-12 6.5535725730885261e+01 0.0000000000000000e+00  -1.0646280065402268e-11 6.5535725730890462e+01 0.0000000000000000e+00  -3.5640006651322973e-12 6.5535725730886242e+01 0.0000000000000000e+00  -3.3433484357586186e-12 6.5535725730889681e+01 0.0000000000000000e+00  -2.9907294473870235e-12 6.5535725730889041e+01 0.0000000000000000e+00  2.5687202173953211e-09 6.5535725730888956e+01 0.0000000000000000e+00  -5.5781648290925283e-05 6.5535725730890633e+01 0.0000000000000000e+00  1.1631237629486191e+00 6.5535725730890988e+01 0.0000000000000000e+00  -1.1455214404885319e+00 7.2462374890699806e+01 0.0000000000000000e+00  5.4991742345329646e-05 7.2462374890699920e+01 0.0000000000000000e+00  -2.5600075641062458e-09 7.2462374890700346e+01 0.0000000000000000e+00  -1.8961451738371240e-12 7.2462374890697788e+01 0.0000000000000000e+00  -3.7749495000015860e-12 7.2462374890695827e+01 0.0000000000000000e+00  -4.8936977475363459e-12 7.2462374890700474e+01 0.0000000000000000e+00  -6.8164671145410022e-12 7.2462374890700119e+01 0.0000000000000000e+00  -1.1686821565523428e-11 7.2462374890699877e+01 0.0000000000000000e+00  -1.2364251587471773e-11 7.2462374890697347e+01 0.0000000000000000e+00  -1.1235053889699974e-11 7.2462374890697276e+01 0.0000000000000000e+00  -1.1816198491125254e-11 7.2462374890701525e+01 0.0000000000000000e+00  -1.4224453002779735e-11 7.2462374890698172e+01 0.0000000000000000e+00  -1.1809116077372336e-11 7.2462374890698598e+01 0.0000000000000000e+00  -9.1978482702767267e-12 7.2462374890698825e+01 0.0000000000000000e+00  -9.1755291832472630e-12 7.2462374890694520e+01 0.0000000000000000e+00  -3.2194706899205868e-12 7.2462374890699977e+01 0.0000000000000000e+00  -2.8049660403891226e-12 7.2462374890699209e+01 0.0000000000000000e+00  -2.4276938748373822e-12 7.2462374890699650e+01 0.0000000000000000e+00  2.5558624227456382e-09 7.2462374890700872e+01 0.0000000000000000e+00  -5.4991747159034738e-05 7.2462374890698896e+01 0.0000000000000000e+00  1.1455214404983631e+00 7.2462374890703785e+01 0.0000000000000000e+00  -1.1261595459011948e+00 7.9278120698212888e+01 0.0000000000000000e+00  5.4119972079873777e-05 7.9278120698210074e+01 0.0000000000000000e+00  -2.5453410288914304e-09 7.9278120698212192e+01 0.0000000000000000e+00  -5.4626071939916136e-12 7.9278120698213527e+01 0.0000000000000000e+00  -1.0384598499079777e-12 7.9278120698216767e+01 0.0000000000000000e+00  -5.4445542343424863e-12 7.9278120698211396e+01 0.0000000000000000e+00  -8.8495086094151583e-12 7.9278120698211040e+01 0.0000000000000000e+00  -9.8957349801111493e-12 7.9278120698213996e+01 0.0000000000000000e+00  -7.3934434911786928e-12 7.9278120698219595e+01 0.0000000000000000e+00  -1.1601954510106874e-11 7.9278120698218217e+01 0.0000000000000000e+00  -1.4085005655036393e-11 7.9278120698217677e+01 0.0000000000000000e+00  -1.4392204782821129e-11 7.9278120698211680e+01 0.0000000000000000e+00  -1.2914037886342899e-11 7.9278120698213755e+01 0.0000000000000000e+00  -1.0616916157086891e-11 7.9278120698215048e+01 0.0000000000000000e+00  -7.5891987798686430e-12 7.9278120698212973e+01 0.0000000000000000e+00  -3.7624773755331838e-12 7.9278120698216867e+01 0.0000000000000000e+00  -3.3741801654288351e-12 7.9278120698211239e+01 0.0000000000000000e+00  -2.4123993468167442e-12 7.9278120698211836e+01 0.0000000000000000e+00  2.5423048240345517e-09 7.9278120698213897e+01 0.0000000000000000e+00  -5.4119972175247810e-05 7.9278120698217023e+01 0.0000000000000000e+00  1.1261595459073737e+00 7.9278120698215133e+01 0.0000000000000000e+00  -1.1050659749184677e+00 8.5972488356361268e+01 0.0000000000000000e+00  5.3166822875760531e-05 8.5972488356363073e+01 0.0000000000000000e+00  -2.5271744854852367e-09 8.5972488356364508e+01 0.0000000000000000e+00  -3.6722859679284304e-13 8.5972488356362405e+01 0.0000000000000000e+00  -5.2148845757069667e-12 8.5972488356359904e+01 0.0000000000000000e+00  -8.1181680918645390e-12 8.5972488356360586e+01 0.0000000000000000e+00  -4.9644248431601258e-12 8.5972488356361254e+01 0.0000000000000000e+00  -6.1160535870918284e-12 8.5972488356363669e+01 0.0000000000000000e+00  -9.6413121045736689e-12 8.5972488356361211e+01 0.0000000000000000e+00  -1.3810023845961369e-11 8.5972488356361239e+01 0.0000000000000000e+00  -1.5715099236146022e-11 8.5972488356357914e+01 0.0000000000000000e+00  -1.6813240537813154e-11 8.5972488356362888e+01 0.0000000000000000e+00  -1.0845984715575170e-11 8.5972488356356635e+01 0.0000000000000000e+00  -1.1530941630324845e-11 8.5972488356360685e+01 0.0000000000000000e+00  -6.3295936947016856e-12 8.5972488356360714e+01 0.0000000000000000e+00  -3.9418621450608476e-12 8.5972488356360273e+01 0.0000000000000000e+00  -2.7392804196343228e-12 8.5972488356362419e+01 0.0000000000000000e+00  -1.1065355633814174e-12 8.5972488356364920e+01 0.0000000000000000e+00  2.5265728129278159e-09 8.5972488356365830e+01 0.0000000000000000e+00  -5.3166822263905347e-05 8.5972488356361765e+01 0.0000000000000000e+00  1.1050659749252527e+00 8.5972488356362874e+01 0.0000000000000000e+00  -1.0822712271645412e+00 9.2535178261119881e+01 0.0000000000000000e+00  5.2132890379637412e-05 9.2535178261123377e+01 0.0000000000000000e+00  -2.5047882772450611e-09 9.2535178261121118e+01 0.0000000000000000e+00  -2.8994567446859910e-12 9.2535178261125708e+01 0.0000000000000000e+00  -3.6883184588201478e-12 9.2535178261126660e+01 0.0000000000000000e+00  -7.8873098183299517e-12 9.2535178261128920e+01 0.0000000000000000e+00  -2.9127974902747479e-12 9.2535178261126802e+01 0.0000000000000000e+00  -1.0447920684570776e-11 9.2535178261123733e+01 0.000000