<?xml version="1.0"?>
<VTKFile type="UnstructuredGrid"  version="0.1"  >
<UnstructuredGrid>
<Piece  NumberOfPoints="1091" NumberOfCells="2050">
<Points>
<DataArray  type="Float64"  NumberOfComponents="3"  format="ascii">-0.5 -1 0  -0.4 -1 0  -0.3 -1 0  -0.2 -1 0  -0.09999999999999998 -1 0  0 -1 0  0.09999999999999998 -1 0  0.2 -1 0  0.3 -1 0  0.4 -1 0  0.5 -1 0  -0.5 -0.98 0  -0.4 -0.98 0  -0.3 -0.98 0  -0.2 -0.98 0  -0.09999999999999998 -0.98 0  0 -0.98 0  0.09999999999999998 -0.98 0  0.2 -0.98 0  0.3 -0.98 0  0.4 -0.98 0  0.5 -0.98 0  -0.5 -0.96 0  -0.4 -0.96 0  -0.3 -0.96 0  -0.2 -0.96 0  -0.09999999999999998 -0.96 0  0 -0.96 0  0.09999999999999998 -0.96 0  0.2 -0.96 0  0.3 -0.96 0  0.4 -0.96 0  0.5 -0.96 0  -0.5 -0.9399999999999999 0  -0.4 -0.9399999999999999 0  -0.3 -0.9399999999999999 0  -0.2 -0.9399999999999999 0  -0.09999999999999998 -0.9399999999999999 0  0 -0.9399999999999999 0  0.09999999999999998 -0.9399999999999999 0  0.2 -0.9399999999999999 0  0.3 -0.9399999999999999 0  0.4 -0.9399999999999999 0  0.5 -0.9399999999999999 0  -0.5 -0.92 0  -0.4 -0.92 0  -0.3 -0.92 0  -0.2 -0.92 0  -0.09999999999999998 -0.92 0  0 -0.92 0  0.09999999999999998 -0.92 0  0.2 -0.92 0  0.3 -0.92 0  0.4 -0.92 0  0.5 -0.92 0  -0.5 -0.9 0  -0.4 -0.9 0  -0.3 -0.9 0  -0.2 -0.9 0  -0.09999999999999998 -0.9 0  0 -0.9 0  0.09999999999999998 -0.9 0  0.2 -0.9 0  0.3 -0.9 0  0.4 -0.9 0  0.5 -0.9 0  -0.5 -0.88 0  -0.4 -0.88 0  -0.3 -0.88 0  -0.2 -0.88 0  -0.09999999999999998 -0.88 0  0 -0.88 0  0.09999999999999998 -0.88 0  0.2 -0.88 0  0.3 -0.88 0  0.4 -0.88 0  0.5 -0.88 0  -0.5 -0.86 0  -0.4 -0.86 0  -0.3 -0.86 0  -0.2 -0.86 0  -0.09999999999999998 -0.86 0  0 -0.86 0  0.09999999999999998 -0.86 0  0.2 -0.86 0  0.3 -0.86 0  0.4 -0.86 0  0.5 -0.86 0  -0.5 -0.84 0  -0.4 -0.84 0  -0.3 -0.84 0  -0.2 -0.84 0  -0.09999999999999998 -0.84 0  0 -0.84 0  0.09999999999999998 -0.84 0  0.2 -0.84 0  0.3 -0.84 0  0.4 -0.84 0  0.5 -0.84 0  -0.5 -0.8200000000000001 0  -0.4 -0.8200000000000001 0  -0.3 -0.8200000000000001 0  -0.2 -0.8200000000000001 0  -0.09999999999999998 -0.8200000000000001 0  0 -0.8200000000000001 0  0.09999999999999998 -0.8200000000000001 0  0.2 -0.8200000000000001 0  0.3 -0.8200000000000001 0  0.4 -0.8200000000000001 0  0.5 -0.8200000000000001 0  -0.5 -0.8 0  -0.4 -0.8 0  -0.3 -0.8 0  -0.2 -0.8 0  -0.09999999999999998 -0.8 0  0 -0.8 0  0.09999999999999998 -0.8 0  0.2 -0.8 0  0.3 -0.8 0  0.4 -0.8 0  0.5 -0.8 0  -0.5 -0.78 0  -0.4 -0.78 0  -0.3 -0.78 0  -0.2 -0.78 0  -0.09999999999999998 -0.78 0  0 -0.78 0  0.09999999999999998 -0.78 0  0.2 -0.78 0  0.3 -0.78 0  0.4 -0.78 0  0.5 -0.78 0  -0.5 -0.76 0  -0.4 -0.76 0  -0.3 -0.76 0  -0.2 -0.76 0  -0.09999999999999998 -0.76 0  0 -0.76 0  0.09999999999999998 -0.76 0  0.2 -0.76 0  0.3 -0.76 0  0.4 -0.76 0  0.5 -0.76 0  -0.5 -0.74 0  -0.4 -0.74 0  -0.3 -0.74 0  -0.2 -0.74 0  -0.09999999999999998 -0.74 0  0 -0.74 0  0.09999999999999998 -0.74 0  0.2 -0.74 0  0.3 -0.74 0  0.4 -0.74 0  0.5 -0.74 0  -0.5 -0.72 0  -0.4 -0.72 0  -0.3 -0.72 0  -0.2 -0.72 0  -0.09999999999999998 -0.72 0  0 -0.72 0  0.09999999999999998 -0.72 0  0.2 -0.72 0  0.3 -0.72 0  0.4 -0.72 0  0.5 -0.72 0  -0.5 -0.7 0  -0.4 -0.7 0  -0.3 -0.7 0  -0.2 -0.7 0  -0.09999999999999998 -0.7 0  0 -0.7 0  0.09999999999999998 -0.7 0  0.2 -0.7 0  0.3 -0.7 0  0.4 -0.7 0  0.5 -0.7 0  -0.5 -0.6799999999999999 0  -0.4 -0.6799999999999999 0  -0.3 -0.6799999999999999 0  -0.2 -0.6799999999999999 0  -0.09999999999999998 -0.6799999999999999 0  0 -0.6799999999999999 0  0.09999999999999998 -0.6799999999999999 0  0.2 -0.6799999999999999 0  0.3 -0.6799999999999999 0  0.4 -0.6799999999999999 0  0.5 -0.6799999999999999 0  -0.5 -0.6599999999999999 0  -0.4 -0.6599999999999999 0  -0.3 -0.6599999999999999 0  -0.2 -0.6599999999999999 0  -0.09999999999999998 -0.6599999999999999 0  0 -0.6599999999999999 0  0.09999999999999998 -0.6599999999999999 0  0.2 -0.6599999999999999 0  0.3 -0.6599999999999999 0  0.4 -0.6599999999999999 0  0.5 -0.6599999999999999 0  -0.5 -0.64 0  -0.4 -0.64 0  -0.3 -0.64 0  -0.2 -0.64 0  -0.09999999999999998 -0.64 0  0 -0.64 0  0.09999999999999998 -0.64 0  0.2 -0.64 0  0.3 -0.64 0  0.4 -0.64 0  0.5 -0.64 0  -0.5 -0.62 0  -0.4 -0.62 0  -0.3 -0.62 0  -0.2 -0.62 0  -0.09999999999999998 -0.62 0  0 -0.62 0  0.09999999999999998 -0.62 0  0.2 -0.62 0  0.3 -0.62 0  0.4 -0.62 0  0.5 -0.62 0  -0.5 -0.6 0  -0.4 -0.6 0  -0.3 -0.6 0  -0.2 -0.6 0  -0.09999999999999998 -0.6 0  0 -0.6 0  0.09999999999999998 -0.6 0  0.2 -0.6 0  0.3 -0.6 0  0.4 -0.6 0  0.5 -0.6 0  -0.5 -0.5800000000000001 0  -0.4 -0.5800000000000001 0  -0.3 -0.5800000000000001 0  -0.2 -0.5800000000000001 0  -0.09999999999999998 -0.5800000000000001 0  0 -0.5800000000000001 0  0.09999999999999998 -0.5800000000000001 0  0.2 -0.5800000000000001 0  0.3 -0.5800000000000001 0  0.4 -0.5800000000000001 0  0.5 -0.5800000000000001 0  -0.5 -0.5600000000000001 0  -0.4 -0.5600000000000001 0  -0.3 -0.5600000000000001 0  -0.2 -0.5600000000000001 0  -0.09999999999999998 -0.5600000000000001 0  0 -0.5600000000000001 0  0.09999999999999998 -0.5600000000000001 0  0.2 -0.5600000000000001 0  0.3 -0.5600000000000001 0  0.4 -0.5600000000000001 0  0.5 -0.5600000000000001 0  -0.5 -0.54 0  -0.4 -0.54 0  -0.3 -0.54 0  -0.2 -0.54 0  -0.09999999999999998 -0.54 0  0 -0.54 0  0.09999999999999998 -0.54 0  0.2 -0.54 0  0.3 -0.54 0  0.4 -0.54 0  0.5 -0.54 0  -0.5 -0.52 0  -0.4 -0.52 0  -0.3 -0.52 0  -0.2 -0.52 0  -0.09999999999999998 -0.52 0  0 -0.52 0  0.09999999999999998 -0.52 0  0.2 -0.52 0  0.3 -0.52 0  0.4 -0.52 0  0.5 -0.52 0  -0.5 -0.5 0  -0.4 -0.5 0  -0.3 -0.5 0  -0.2 -0.5 0  -0.09999999999999998 -0.5 0  0 -0.5 0  0.09999999999999998 -0.5 0  0.2 -0.5 0  0.3 -0.5 0  0.4 -0.5 0  0.5 -0.5 0  -0.5 -0.48 0  -0.4 -0.48 0  -0.3 -0.48 0  -0.2 -0.48 0  -0.09999999999999998 -0.48 0  0 -0.48 0  0.09999999999999998 -0.48 0  0.2 -0.48 0  0.3 -0.48 0  0.4 -0.48 0  0.5 -0.48 0  -0.5 -0.46 0  -0.4 -0.46 0  -0.3 -0.46 0  -0.2 -0.46 0  -0.09999999999999998 -0.46 0  0 -0.46 0  0.09999999999999998 -0.46 0  0.2 -0.46 0  0.3 -0.46 0  0.4 -0.46 0  0.5 -0.46 0  -0.5 -0.4399999999999999 0  -0.4 -0.4399999999999999 0  -0.3 -0.4399999999999999 0  -0.2 -0.4399999999999999 0  -0.09999999999999998 -0.4399999999999999 0  0 -0.4399999999999999 0  0.09999999999999998 -0.4399999999999999 0  0.2 -0.4399999999999999 0  0.3 -0.4399999999999999 0  0.4 -0.4399999999999999 0  0.5 -0.4399999999999999 0  -0.5 -0.42 0  -0.4 -0.42 0  -0.3 -0.42 0  -0.2 -0.42 0  -0.09999999999999998 -0.42 0  0 -0.42 0  0.09999999999999998 -0.42 0  0.2 -0.42 0  0.3 -0.42 0  0.4 -0.42 0  0.5 -0.42 0  -0.5 -0.4 0  -0.4 -0.4 0  -0.3 -0.4 0  -0.2 -0.4 0  -0.09999999999999998 -0.4 0  0 -0.4 0  0.09999999999999998 -0.4 0  0.2 -0.4 0  0.3 -0.4 0  0.4 -0.4 0  0.5 -0.4 0  -0.5 -0.38 0  -0.4 -0.38 0  -0.3 -0.38 0  -0.2 -0.38 0  -0.09999999999999998 -0.38 0  0 -0.38 0  0.09999999999999998 -0.38 0  0.2 -0.38 0  0.3 -0.38 0  0.4 -0.38 0  0.5 -0.38 0  -0.5 -0.36 0  -0.4 -0.36 0  -0.3 -0.36 0  -0.2 -0.36 0  -0.09999999999999998 -0.36 0  0 -0.36 0  0.09999999999999998 -0.36 0  0.2 -0.36 0  0.3 -0.36 0  0.4 -0.36 0  0.5 -0.36 0  -0.5 -0.34 0  -0.4 -0.34 0  -0.3 -0.34 0  -0.2 -0.34 0  -0.09999999999999998 -0.34 0  0 -0.34 0  0.09999999999999998 -0.34 0  0.2 -0.34 0  0.3 -0.34 0  0.4 -0.34 0  0.5 -0.34 0  -0.5 -0.32 0  -0.4 -0.32 0  -0.3 -0.32 0  -0.2 -0.32 0  -0.09999999999999998 -0.32 0  0 -0.32 0  0.09999999999999998 -0.32 0  0.2 -0.32 0  0.3 -0.32 0  0.4 -0.32 0  0.5 -0.32 0  -0.5 -0.3 0  -0.4 -0.3 0  -0.3 -0.3 0  -0.2 -0.3 0  -0.09999999999999998 -0.3 0  0 -0.3 0  0.09999999999999998 -0.3 0  0.2 -0.3 0  0.3 -0.3 0  0.4 -0.3 0  0.5 -0.3 0  -0.5 -0.28 0  -0.4 -0.28 0  -0.3 -0.28 0  -0.2 -0.28 0  -0.09999999999999998 -0.28 0  0 -0.28 0  0.09999999999999998 -0.28 0  0.2 -0.28 0  0.3 -0.28 0  0.4 -0.28 0  0.5 -0.28 0  -0.5 -0.26 0  -0.4 -0.26 0  -0.3 -0.26 0  -0.2 -0.26 0  -0.09999999999999998 -0.26 0  0 -0.26 0  0.09999999999999998 -0.26 0  0.2 -0.26 0  0.3 -0.26 0  0.4 -0.26 0  0.5 -0.26 0  -0.5 -0.24 0  -0.4 -0.24 0  -0.3 -0.24 0  -0.2 -0.24 0  -0.09999999999999998 -0.24 0  0 -0.24 0  0.09999999999999998 -0.24 0  0.2 -0.24 0  0.3 -0.24 0  0.4 -0.24 0  0.5 -0.24 0  -0.5 -0.22 0  -0.4 -0.22 0  -0.3 -0.22 0  -0.2 -0.22 0  -0.09999999999999998 -0.22 0  0 -0.22 0  0.09999999999999998 -0.22 0  0.2 -0.22 0  0.3 -0.22 0  0.4 -0.22 0  0.5 -0.22 0  -0.5 -0.2 0  -0.4 -0.2 0  -0.3 -0.2 0  -0.2 -0.2 0  -0.09999999999999998 -0.2 0  0 -0.2 0  0.09999999999999998 -0.2 0  0.2 -0.2 0  0.3 -0.2 0  0.4 -0.2 0  0.5 -0.2 0  -0.5 -0.18 0  -0.4 -0.18 0  -0.3 -0.18 0  -0.2 -0.18 0  -0.09999999999999998 -0.18 0  0 -0.18 0  0.09999999999999998 -0.18 0  0.2 -0.18 0  0.3 -0.18 0  0.4 -0.18 0  0.5 -0.18 0  -0.5 -0.16 0  -0.4 -0.16 0  -0.3 -0.16 0  -0.2 -0.16 0  -0.09999999999999998 -0.16 0  0 -0.16 0  0.09999999999999998 -0.16 0  0.2 -0.16 0  0.3 -0.16 0  0.4 -0.16 0  0.5 -0.16 0  -0.5 -0.14 0  -0.4 -0.14 0  -0.3 -0.14 0  -0.2 -0.14 0  -0.09999999999999998 -0.14 0  0 -0.14 0  0.09999999999999998 -0.14 0  0.2 -0.14 0  0.3 -0.14 0  0.4 -0.14 0  0.5 -0.14 0  -0.5 -0.12 0  -0.4 -0.12 0  -0.3 -0.12 0  -0.2 -0.12 0  -0.09999999999999998 -0.12 0  0 -0.12 0  0.09999999999999998 -0.12 0  0.2 -0.12 0  0.3 -0.12 0  0.4 -0.12 0  0.5 -0.12 0  -0.5 -0.09999999999999998 0  -0.4 -0.09999999999999998 0  -0.3 -0.09999999999999998 0  -0.2 -0.09999999999999998 0  -0.09999999999999998 -0.09999999999999998 0  0 -0.09999999999999998 0  0.09999999999999998 -0.09999999999999998 0  0.2 -0.09999999999999998 0  0.3 -0.09999999999999998 0  0.4 -0.09999999999999998 0  0.5 -0.09999999999999998 0  -0.5 -0.07999999999999996 0  -0.4 -0.07999999999999996 0  -0.3 -0.07999999999999996 0  -0.2 -0.07999999999999996 0  -0.09999999999999998 -0.07999999999999996 0  0 -0.07999999999999996 0  0.09999999999999998 -0.07999999999999996 0  0.2 -0.07999999999999996 0  0.3 -0.07999999999999996 0  0.4 -0.07999999999999996 0  0.5 -0.07999999999999996 0  -0.5 -0.06000000000000005 0  -0.4 -0.06000000000000005 0  -0.3 -0.06000000000000005 0  -0.2 -0.06000000000000005 0  -0.09999999
[...]
<PointData  Vectors="flow"> 
<DataArray  type="Float64"  Name="flow"  NumberOfComponents="3" format="ascii">-3.7549996076838765e-15 -6.6448598928569731e-15 0.0000000000000000e+00  -7.7980745136429067e-16 8.3749571059518587e-16 0.0000000000000000e+00  -4.7800309645595000e-16 -1.3427201688027967e-15 0.0000000000000000e+00  1.8371854012420065e-15 -1.6890812559482619e-15 0.0000000000000000e+00  5.8585821594190282e-16 1.7897357007892764e-15 0.0000000000000000e+00  1.5176846225028681e-15 -3.2869399742267228e-15 0.0000000000000000e+00  2.9593089450498278e-15 -2.0010414263165390e-15 0.0000000000000000e+00  2.5661905014691725e-16 -2.3574079845410148e-15 0.0000000000000000e+00  1.4524942226517744e-15 -1.3734706120937079e-15 0.0000000000000000e+00  1.9205493457600826e-15 -5.5249049911196652e-15 0.0000000000000000e+00  1.5254811723348891e-15 -1.9001174083922726e-15 0.0000000000000000e+00  -1.9582030417801262e-15 3.5793261437722646e-15 0.0000000000000000e+00  -1.6450540568420321e-15 4.7828602928780609e-15 0.0000000000000000e+00  -1.1055531733127449e-15 -3.4026618241260025e-15 0.0000000000000000e+00  2.8002533859047835e-15 2.5157896860044336e-15 0.0000000000000000e+00  2.8103099230184773e-16 3.9861422202493638e-15 0.0000000000000000e+00  6.9276303094466980e-16 -2.5912612777365687e-15 0.0000000000000000e+00  3.7698597166429568e-15 -1.0162632217526632e-15 0.0000000000000000e+00  9.2128484813069268e-16 2.5286507502994292e-15 0.0000000000000000e+00  1.2016538497718796e-15 5.3241847436342968e-15 0.0000000000000000e+00  1.8667231354684417e-15 1.6360425749406029e-15 0.0000000000000000e+00  1.6441408131306298e-15 -1.6545595813794372e-16 0.0000000000000000e+00  -3.4513074828025957e-16 -3.6015168548341577e-15 0.0000000000000000e+00  -1.7717939135111663e-15 -1.6284585576829982e-16 0.0000000000000000e+00  -9.5851161097900634e-16 -2.8043711372043153e-15 0.0000000000000000e+00  4.0750592743832470e-15 3.9279307408225616e-15 0.0000000000000000e+00  -5.7651447588249895e-16 -3.1437034135852493e-16 0.0000000000000000e+00  3.1789003148787836e-16 4.8229240468496271e-15 0.0000000000000000e+00  4.1990533706958673e-15 8.2397741190354119e-15 0.0000000000000000e+00  9.9575106892287972e-16 3.4703211088107915e-15 0.0000000000000000e+00  1.1298115056174215e-15 -1.9798686966341524e-15 0.0000000000000000e+00  7.0964590964718901e-16 1.3452835033235461e-15 0.0000000000000000e+00  2.3108827236391325e-16 -1.3600035078134692e-15 0.0000000000000000e+00  -1.3097821191610182e-15 3.8828665712073103e-15 0.0000000000000000e+00  -2.1224997153754892e-15 -4.9379421836846126e-15 0.0000000000000000e+00  1.2690479618285613e-16 7.6127307242848708e-16 0.0000000000000000e+00  2.6560010904422058e-15 -1.7524127610497535e-15 0.0000000000000000e+00  3.7854339489711830e-16 -4.8351556700784225e-15 0.0000000000000000e+00  2.8152430144615727e-15 8.8291974704295123e-15 0.0000000000000000e+00  3.3559177364268829e-15 9.5920383982596630e-15 0.0000000000000000e+00  -4.9104001190208040e-16 1.5659233689165720e-14 0.0000000000000000e+00  6.9354066992854084e-16 -1.9726776060476906e-14 0.0000000000000000e+00  2.0352147233887423e-15 1.4327509907763295e-14 0.0000000000000000e+00  -5.2152827912222809e-16 4.3504559304776198e-15 0.0000000000000000e+00  -4.3124011390447607e-15 1.2548087188213394e-14 0.0000000000000000e+00  -2.9652593823344900e-15 1.0879992075500525e-15 0.0000000000000000e+00  -2.1729005944129514e-17 -3.8770351282225304e-15 0.0000000000000000e+00  2.9468093693615638e-15 -8.4057581773888001e-15 0.0000000000000000e+00  1.7197894559148305e-15 1.2082486915494442e-14 0.0000000000000000e+00  3.3620783989762643e-15 8.8468787243538481e-15 0.0000000000000000e+00  4.6793122614713126e-15 7.1602933445924536e-15 0.0000000000000000e+00  -6.0675905235168851e-15 1.6179960850919089e-14 0.0000000000000000e+00  1.5758941225695287e-15 -2.6606346067964063e-14 0.0000000000000000e+00  5.6532202152197293e-15 1.6394084768393969e-14 0.0000000000000000e+00  -6.3889550699024515e-15 -1.4205961836471204e-14 0.0000000000000000e+00  -6.9974198009733140e-15 -1.6650402475695605e-15 0.0000000000000000e+00  -4.2314729215846223e-15 -2.5152431966286854e-15 0.0000000000000000e+00  -2.0880153067852557e-15 -1.9578274534963390e-15 0.0000000000000000e+00  5.5061261785689875e-15 -1.9926713907175418e-15 0.0000000000000000e+00  2.5526802886123158e-15 -1.4136529815288661e-14 0.0000000000000000e+00  2.4012118516902787e-15 -1.1368787998245307e-14 0.0000000000000000e+00  6.4458781577219410e-15 -1.1408940680445009e-14 0.0000000000000000e+00  -6.5279649050022400e-15 1.2633589384057528e-15 0.0000000000000000e+00  3.5419600464759675e-16 8.2358943218616193e-15 0.0000000000000000e+00  4.6206220540349401e-15 -6.4829693512627815e-15 0.0000000000000000e+00  -1.1444143464342645e-14 -1.0430040724045179e-14 0.0000000000000000e+00  -5.3538912160302457e-15 -1.2780610722720716e-14 0.0000000000000000e+00  -3.2410008076699663e-15 -5.2839426032636658e-15 0.0000000000000000e+00  -2.3659981938022963e-16 -1.3211738121961602e-15 0.0000000000000000e+00  1.5835784741548307e-15 9.6279735062094298e-15 0.0000000000000000e+00  3.0765818703117600e-16 -2.6791280031182471e-14 0.0000000000000000e+00  4.3186158068588015e-15 -2.6078685431665533e-15 0.0000000000000000e+00  6.5012497158675708e-15 -6.2284625289768993e-15 0.0000000000000000e+00  -3.1670587867737680e-15 -1.3304079678044860e-14 0.0000000000000000e+00  2.3802317100706096e-16 9.8237728527009416e-15 0.0000000000000000e+00  2.4358927266879554e-15 -3.3127021715576094e-15 0.0000000000000000e+00  -9.3140226582260208e-15 -8.7471867117337844e-15 0.0000000000000000e+00  -2.9056964947077354e-15 -1.7930729251565878e-14 0.0000000000000000e+00  -2.7240181745427632e-15 -2.1799101052230160e-15 0.0000000000000000e+00  1.5375144084007869e-15 -8.4807085627512861e-16 0.0000000000000000e+00  1.5977551032278776e-16 -8.4767537871708163e-15 0.0000000000000000e+00  9.3123292655412443e-16 8.7152813495699419e-15 0.0000000000000000e+00  5.0679931513441401e-15 9.9593898535006731e-15 0.0000000000000000e+00  3.7830299651010068e-15 1.3716559285680090e-14 0.0000000000000000e+00  -3.1676525203822331e-15 -1.0188935467848514e-14 0.0000000000000000e+00  2.0881327571537813e-15 -3.6761963553918729e-15 0.0000000000000000e+00  -2.1468935885286313e-16 -5.5443166032882246e-15 0.0000000000000000e+00  -9.3916576049332613e-15 -1.8777006911267167e-14 0.0000000000000000e+00  7.2045034403835956e-16 -9.3451899790512298e-15 0.0000000000000000e+00  4.8495173371797580e-16 5.2980536850992027e-15 0.0000000000000000e+00  -5.1739313813913702e-16 -5.7374011052932901e-15 0.0000000000000000e+00  2.7076398712894803e-15 1.5565557655801870e-14 0.0000000000000000e+00  1.1881191909531767e-15 1.3872029764892014e-15 0.0000000000000000e+00  6.1591094109819268e-15 -2.5172111406893247e-14 0.0000000000000000e+00  4.8985612218435485e-15 3.1645246873795634e-14 0.0000000000000000e+00  -6.4247262602274535e-15 1.6097631740696138e-14 0.0000000000000000e+00  2.8635868159686512e-15 -1.1707371872802142e-14 0.0000000000000000e+00  -5.6993502781291524e-16 3.2995359961632337e-14 0.0000000000000000e+00  -1.2924266443486975e-14 4.8633960295031896e-15 0.0000000000000000e+00  1.4455918564063463e-15 3.1743232723772987e-14 0.0000000000000000e+00  -3.4315775631247775e-15 1.5768808923495880e-14 0.0000000000000000e+00  8.4608078745108490e-16 8.6303337370375592e-15 0.0000000000000000e+00  4.1613478072000258e-15 2.9410630135504155e-16 0.0000000000000000e+00  -3.7765191324843299e-15 7.9807035495622933e-15 0.0000000000000000e+00  1.1543517032479275e-14 1.9365364041907843e-14 0.0000000000000000e+00  9.5163257275977329e-15 6.4243030943488570e-15 0.0000000000000000e+00  -1.5609509289976856e-14 1.3344381845024392e-14 0.0000000000000000e+00  4.3390614699577538e-15 -2.3973755257168090e-14 0.0000000000000000e+00  3.5271515944413408e-15 1.3750502558570235e-14 0.0000000000000000e+00  -2.5365030800275204e-14 -2.2710967630443604e-14 0.0000000000000000e+00  -3.4815827711007232e-15 3.0397637092947505e-15 0.0000000000000000e+00  -2.2472885271074405e-15 1.1644260624825760e-15 0.0000000000000000e+00  -9.8718281640221020e-16 2.9685732768572245e-14 0.0000000000000000e+00  1.6932435513784268e-15 -7.8893774266952093e-15 0.0000000000000000e+00  -9.8794308514222538e-16 -1.3530978551383671e-14 0.0000000000000000e+00  4.7671831866911132e-15 -1.7792516798628648e-14 0.0000000000000000e+00  9.4150370719732375e-15 -3.6944739669526026e-14 0.0000000000000000e+00  -9.3307129453534349e-15 6.5404754635035847e-15 0.0000000000000000e+00  2.5061374867287021e-15 2.2036000288818191e-14 0.0000000000000000e+00  2.1306381549018205e-15 4.2692189118172269e-15 0.0000000000000000e+00  -2.9751225151901156e-14 -1.0932286189171968e-14 0.0000000000000000e+00  1.9101163515514415e-15 -4.4787820344775084e-15 0.0000000000000000e+00  8.0564807147512437e-16 2.6377948900245210e-14 0.0000000000000000e+00  -3.3068419190426403e-15 -3.5625306768348784e-15 0.0000000000000000e+00  -2.5776292382507974e-15 -7.7652193026729374e-15 0.0000000000000000e+00  -2.6407032657138184e-15 -2.8107290658865199e-15 0.0000000000000000e+00  8.4270671518898895e-15 8.8870523093598720e-15 0.0000000000000000e+00  9.7832439470321965e-15 1.0204542890742767e-14 0.0000000000000000e+00  -4.5495979465217316e-15 -1.5182607420475537e-14 0.0000000000000000e+00  3.5334362359883082e-15 3.5096142347734390e-14 0.0000000000000000e+00  -4.8613833525531123e-15 1.5141514086917125e-14 0.0000000000000000e+00  -3.0638699718578204e-14 -2.3282116881520287e-14 0.0000000000000000e+00  6.8285949752055960e-15 4.4879141784741048e-15 0.0000000000000000e+00  -3.1817798934167686e-15 1.7043426526035743e-14 0.0000000000000000e+00  -5.0795256691803797e-15 -3.7754696248916366e-14 0.0000000000000000e+00  1.2282819765127228e-15 -2.7224957318861253e-15 0.0000000000000000e+00  8.6681272506231499e-17 -8.5225919559553381e-15 0.0000000000000000e+00  7.0264489641329210e-15 6.1607090329394193e-14 0.0000000000000000e+00  5.0383703712600150e-15 -3.6045599644424839e-14 0.0000000000000000e+00  -6.1542421351339951e-15 -3.1961370740946652e-14 0.0000000000000000e+00  9.9572779904116153e-15 -2.4882803914676144e-15 0.0000000000000000e+00  -8.3682761003405287e-15 -1.1006781607919513e-14 0.0000000000000000e+00  -3.4750461526536687e-14 -9.5470490836430139e-15 0.0000000000000000e+00  9.9459879720250794e-15 -1.0104226218785958e-14 0.0000000000000000e+00  -5.4741840271311277e-15 2.2203052861473525e-14 0.0000000000000000e+00  -1.0092957803954173e-14 -4.5946782758163470e-14 0.0000000000000000e+00  4.5577562513200737e-16 -1.8825028188150166e-14 0.0000000000000000e+00  1.2575453236472215e-14 -3.2755140932868696e-14 0.0000000000000000e+00  3.6227083780896885e-15 1.5103502673797812e-14 0.0000000000000000e+00  -6.5262767107691140e-15 -6.2861597529052450e-14 0.0000000000000000e+00  3.4426106458665689e-15 1.0383514514334941e-14 0.0000000000000000e+00  8.8104159299779167e-15 1.7057740432975380e-15 0.0000000000000000e+00  -1.2116737730582235e-14 -9.8378425257613597e-15 0.0000000000000000e+00  -3.4405886209233671e-14 -1.0763001154682207e-14 0.0000000000000000e+00  8.2712895889012970e-15 1.3043290092837636e-15 0.0000000000000000e+00  -8.6896230527308460e-15 -7.0433200711538229e-15 0.0000000000000000e+00  -1.0690199840448073e-14 -4.0393812582179374e-14 0.0000000000000000e+00  5.2484269175276876e-15 5.7728053897287173e-16 0.0000000000000000e+00  6.9839219355873635e-15 4.1070425237305044e-14 0.0000000000000000e+00  8.6886413792669548e-16 -1.5105693488347793e-14 0.0000000000000000e+00  2.0321627216322469e-16 1.8799564756383026e-15 0.0000000000000000e+00  5.1547955298518394e-15 4.4218017488055035e-15 0.0000000000000000e+00  7.6304049921430016e-15 -9.3906511350913251e-15 0.0000000000000000e+00  -6.2687442058504254e-15 2.8012660893153930e-14 0.0000000000000000e+00  -3.1280802190218700e-14 3.9393635752559387e-14 0.0000000000000000e+00  8.8589844247705048e-15 2.9925621958613174e-14 0.0000000000000000e+00  -1.4941884810380651e-14 3.3670748094205177e-14 0.0000000000000000e+00  -1.1160505655252509e-14 -2.5006801755982209e-14 0.0000000000000000e+00  1.4032360309395774e-14 8.4788651924637307e-15 0.0000000000000000e+00  9.9296341402420506e-15 5.5528624476164173e-14 0.0000000000000000e+00  -3.4669663094619403e-15 -1.4047138673545546e-14 0.0000000000000000e+00  -1.3424842492662273e-15 -7.9518592079120413e-15 0.0000000000000000e+00  4.4021477056919576e-15 -1.6784464927466887e-14 0.0000000000000000e+00  8.6064546495606644e-15 2.0704263834441994e-14 0.0000000000000000e+00  -3.7482699363678695e-15 1.7545329537217361e-15 0.0000000000000000e+00  -3.5044782649807338e-14 1.0209826133747457e-14 0.0000000000000000e+00  1.4509773555899857e-14 -6.2330334827728402e-15 0.0000000000000000e+00  -2.0278041003083663e-14 6.4878261687825394e-15 0.0000000000000000e+00  -1.1450055991235590e-14 6.7232979126132317e-15 0.0000000000000000e+00  1.9913794712519468e-14 1.8071624450203288e-14 0.0000000000000000e+00  3.6263262105117212e-15 -3.1689072807790833e-14 0.0000000000000000e+00  -1.1308021678212155e-14 -3.1590904525018354e-15 0.0000000000000000e+00  -3.9559239289984992e-15 -4.7800062210702946e-14 0.0000000000000000e+00  1.3065253274867467e-14 -6.9780934325348290e-14 0.0000000000000000e+00  1.1333321154670231e-14 -3.2315117038444900e-14 0.0000000000000000e+00  -5.1398630182829560e-15 1.7917061100243906e-14 0.0000000000000000e+00  -2.9563381865666599e-14 1.7606448294322296e-14 0.0000000000000000e+00  1.6175414929044756e-14 2.6842178834007703e-14 0.0000000000000000e+00  -1.4216354811041107e-14 -6.1849083418699546e-15 0.0000000000000000e+00  -1.2414041179539404e-14 1.6454908992045542e-14 0.0000000000000000e+00  1.2311175277091334e-14 2.4081284870535369e-15 0.0000000000000000e+00  3.7055523056029264e-15 1.8326682803260580e-14 0.0000000000000000e+00  -1.0371920719267400e-14 -2.7774975740246142e-14 0.0000000000000000e+00  -1.5217377785586362e-14 -2.5690422713140156e-14 0.0000000000000000e+00  1.1956024269262192e-14 -3.2177178382275461e-14 0.0000000000000000e+00  2.4083788745780302e-14 -5.9475955237351553e-14 0.0000000000000000e+00  4.9132487038260947e-15 2.2477210091389485e-14 0.0000000000000000e+00  -3.5051616079003750e-14 3.6018531837188269e-15 0.0000000000000000e+00  3.8716678132933598e-15 4.7365633693940941e-14 0.0000000000000000e+00  -2.0595174837718620e-14 -4.0731878929696681e-14 0.0000000000000000e+00  -1.0037386923099891e-14 -2.2806146590401288e-15 0.0000000000000000e+00  1.6248062711499981e-14 6.5098462701834691e-17 0.0000000000000000e+00  8.1080882707504760e-16 -7.6368395288434516e-15 0.0000000000000000e+00  -1.4857083066397451e-14 -5.1261350037807141e-14 0.0000000000000000e+00  -3.5847254189528418e-15 6.9078579871590886e-14 0.0000000000000000e+00  1.1461461505851829e-15 1.7596715099327099e-14 0.0000000000000000e+00  2.2718392378783951e-14 -2.6377789002167636e-14 0.0000000000000000e+00  5.7843846263694313e-15 -8.9055727101803829e-15 0.0000000000000000e+00  -4.2080649552257594e-14 -3.4592839280107456e-14 0.0000000000000000e+00  -1.3812162697434775e-14 1.5320685468058105e-14 0.0000000000000000e+00  -2.6663462472890844e-14 -3.3818730369579261e-14 0.0000000000000000e+00  1.1611388156086212e-16 -1.8821382773517434e-14 0.0000000000000000e+00  1.2013855749061692e-14 3.7687975877568112e-14 0.0000000000000000e+00  -6.9439793386497413e-15 -5.3165874012300652e-14 0.0000000000000000e+00  -3.1962480778507526e-15 -3.4434273337449387e-14 0.0000000000000000e+00  1.4448793773077811e-15 5.8206560662075294e-14 0.0000000000000000e+00  -4.0858937092830161e-15 2.1698403124760168e-14 0.0000000000000000e+00  2.1407529999833355e-14 3.4677595184059325e-14 0.0000000000000000e+00  -9.0335078441819559e-16 1.6045220789342275e-14 0.0000000000000000e+00  -3.8573847777328827e-14 -7.2409276911745109e-14 0.0000000000000000e+00  -2.2667302557413795e-14 1.7797520235103198e-14 0.0000000000000000e+00  -2.7374194941586440e-14 -6.0307497681763331e-15 0.0000000000000000e+00  5.0165163981376804e-15 3.5365290540966624e-15 0.0000000000000000e+00  7.6328360221850930e-15 5.1255373878998860e-14 0.0000000000000000e+00  -1.6463112128116276e-14 -5.7930646018258163e-14 0.0000000000000000e+00  1.1275012649277161e-14 8.7188353601495502e-15 0.0000000000000000e+00  8.9290699154462214e-17 -2.6314753141953702e-14 0.0000000000000000e+00  -2.6651957192281808e-15 4.5855357439397742e-14 0.0000000000000000e+00  2.4176159781065415e-14 -5.6314126215501827e-15 0.0000000000000000e+00  -9.6181670589234727e-15 3.5298711516665962e-14 0.0000000000000000e+00  -5.8981508838616910e-14 1.1264144125131798e-14 0.0000000000000000e+00  -1.7830759565832112e-14 1.1967713154636536e-14 0.0000000000000000e+00  -2.9782618120863616e-14 3.5682589691712552e-14 0.0000000000000000e+00  8.3267935159211623e-15 -1.2794446760403525e-14 0.0000000000000000e+00  1.7804634232530564e-15 4.1796659370319687e-15 0.0000000000000000e+00  -1.4859077764968074e-14 -1.5322195581586290e-15 0.0000000000000000e+00  9.8219319529595287e-15 -2.6892466549213290e-14 0.0000000000000000e+00  1.3154523438331025e-14 3.3858748738140865e-14 0.0000000000000000e+00  6.2385259788899835e-16 9.4898066992468517e-14 0.0000000000000000e+00  9.7329027004859395e-15 1.7616501763120791e-14 0.0000000000000000e+00  -1.0656804855256254e-15 -8.4232940431660717e-15 0.0000000000000000e+00  -5.9394243557893198e-14 3.6271497835157217e-15 0.0000000000000000e+00  -1.4012411101757934e-14 -2.6929099016633151e-14 0.0000000000000000e+00  -3.2345516750300206e-14 -6.0887631377263816e-15 0.0000000000000000e+00  2.9043355475763891e-15 -3.0043773384680327e-14 0.0000000000000000e+00  1.0674200169154137e-14 2.4997339222946506e-14 0.0000000000000000e+00  -2.0816346535140265e-14 -2.7217403665089261e-14 0.0000000000000000e+00  7.0640274330432213e-15 -1.7310195169567845e-14 0.0000000000000000e+00  2.8189003722503271e-14 1.7260030446620270e-14 0.0000000000000000e+00  -9.8214914937849837e-15 -4.5537489209396900e-15 0.0000000000000000e+00  1.0567566849309649e-14 -4.1729921611787448e-15 0.0000000000000000e+00  -1.0685412752532025e-14 -9.4350473645713360e-15 0.0000000000000000e+00  -6.7147656269012627e-14 -8.8716474234919499e-14 0.0000000000000000e+00  -1.1608954571511335e-14 2.0433185301202387e-15 0.0000000000000000e+00  -2.9496960652716702e-14 9.9198557135710427e-14 0.0000000000000000e+00  9.3997762582738861e-15 -1.7760606236013554e-14 0.0000000000000000e+00  -4.8336299973587134e-15 -5.9717937464165868e-15 0.0000000000000000e+00  -1.6699455605080729e-14 -2.7413028100039384e-14 0.0000000000000000e+00  1.8051461896195963e-14 5.2920504459306980e-14 0.0000000000000000e+00  2.0035111997723393e-14 6.5723807359172610e-14 0.0000000000000000e+00  -7.9303003221918234e-15 1.5237753195596125e-14 0.0000000000000000e+00  9.3794710956933251e-15 5.2372151603857005e-14 0.0000000000000000e+00  -1.7309453191641424e-14 -1.6546881733031410e-14 0.0000000000000000e+00  -7.8034446452798919e-14 2.9549240427365046e-16 0.0000000000000000e+00  1.9826579945629144e-14 -6.4019124112536557e-14 0.0000000000000000e+00  -3.4093496032206507e-14 -3.7875307822215312e-14 0.0000000000000000e+00  -1.2576284321346592e-14 -3.6113454078498403e-15 0.0000000000000000e+00  1.4930163168679368e-14 -2.9151347550750900e-14 0.0000000000000000e+00  -1.4238150177916886e-14 7.6287358361297214e-14 0.0000000000000000e+00  2.1634538612600994e-14 -1.0254583298824528e-14 0.0000000000000000e+00  1.6814502390566110e-14 6.0537647564612552e-14 0.0000000000000000e+00  -8.8409368801953585e-15 -6.1568134271991608e-14 0.0000000000000000e+00  2.2877054341865439e-15 -2.4440101805588910e-15 0.0000000000000000e+00  -1.5576438631837908e-14 -4.5294620011684018e-14 0.0000000000000000e+00  -6.3645913985409534e-14 6.6694081279976437e-14 0.0000000000000000e+00  -1.3305315793680252e-14 -2.1016128644845747e-14 0.0000000000000000e+00  -1.8182228211578608e-14 -4.1951630555306609e-14 0.0000000000000000e+00  -2.2616643443297397e-16 1.1196610593977285e-14 0.0000000000000000e+00  9.3078965271603803e-15 -2.7669771690432913e-14 0.0000000000000000e+00  -1.1402244172108602e-14 1.9636278064830624e-14 0.0000000000000000e+00  2.77786822578