<?xml version="1.0"?>
<VTKFile type="UnstructuredGrid"  version="0.1"  >
<UnstructuredGrid>
<Piece  NumberOfPoints="1661" NumberOfCells="3200">
<Points>
<DataArray  type="Float64"  NumberOfComponents="3"  format="ascii">-0.25 -1 0  -0.225 -1 0  -0.2 -1 0  -0.175 -1 0  -0.15 -1 0  -0.125 -1 0  -0.1 -1 0  -0.07500000000000001 -1 0  -0.04999999999999999 -1 0  -0.02499999999999999 -1 0  0 -1 0  0.02500000000000002 -1 0  0.04999999999999999 -1 0  0.07500000000000001 -1 0  0.09999999999999998 -1 0  0.125 -1 0  0.15 -1 0  0.175 -1 0  0.2 -1 0  0.225 -1 0  0.25 -1 0  -0.25 -0.975 0  -0.225 -0.975 0  -0.2 -0.975 0  -0.175 -0.975 0  -0.15 -0.975 0  -0.125 -0.975 0  -0.1 -0.975 0  -0.07500000000000001 -0.975 0  -0.04999999999999999 -0.975 0  -0.02499999999999999 -0.975 0  0 -0.975 0  0.02500000000000002 -0.975 0  0.04999999999999999 -0.975 0  0.07500000000000001 -0.975 0  0.09999999999999998 -0.975 0  0.125 -0.975 0  0.15 -0.975 0  0.175 -0.975 0  0.2 -0.975 0  0.225 -0.975 0  0.25 -0.975 0  -0.25 -0.95 0  -0.225 -0.95 0  -0.2 -0.95 0  -0.175 -0.95 0  -0.15 -0.95 0  -0.125 -0.95 0  -0.1 -0.95 0  -0.07500000000000001 -0.95 0  -0.04999999999999999 -0.95 0  -0.02499999999999999 -0.95 0  0 -0.95 0  0.02500000000000002 -0.95 0  0.04999999999999999 -0.95 0  0.07500000000000001 -0.95 0  0.09999999999999998 -0.95 0  0.125 -0.95 0  0.15 -0.95 0  0.175 -0.95 0  0.2 -0.95 0  0.225 -0.95 0  0.25 -0.95 0  -0.25 -0.925 0  -0.225 -0.925 0  -0.2 -0.925 0  -0.175 -0.925 0  -0.15 -0.925 0  -0.125 -0.925 0  -0.1 -0.925 0  -0.07500000000000001 -0.925 0  -0.04999999999999999 -0.925 0  -0.02499999999999999 -0.925 0  0 -0.925 0  0.02500000000000002 -0.925 0  0.04999999999999999 -0.925 0  0.07500000000000001 -0.925 0  0.09999999999999998 -0.925 0  0.125 -0.925 0  0.15 -0.925 0  0.175 -0.925 0  0.2 -0.925 0  0.225 -0.925 0  0.25 -0.925 0  -0.25 -0.9 0  -0.225 -0.9 0  -0.2 -0.9 0  -0.175 -0.9 0  -0.15 -0.9 0  -0.125 -0.9 0  -0.1 -0.9 0  -0.07500000000000001 -0.9 0  -0.04999999999999999 -0.9 0  -0.02499999999999999 -0.9 0  0 -0.9 0  0.02500000000000002 -0.9 0  0.04999999999999999 -0.9 0  0.07500000000000001 -0.9 0  0.09999999999999998 -0.9 0  0.125 -0.9 0  0.15 -0.9 0  0.175 -0.9 0  0.2 -0.9 0  0.225 -0.9 0  0.25 -0.9 0  -0.25 -0.875 0  -0.225 -0.875 0  -0.2 -0.875 0  -0.175 -0.875 0  -0.15 -0.875 0  -0.125 -0.875 0  -0.1 -0.875 0  -0.07500000000000001 -0.875 0  -0.04999999999999999 -0.875 0  -0.02499999999999999 -0.875 0  0 -0.875 0  0.02500000000000002 -0.875 0  0.04999999999999999 -0.875 0  0.07500000000000001 -0.875 0  0.09999999999999998 -0.875 0  0.125 -0.875 0  0.15 -0.875 0  0.175 -0.875 0  0.2 -0.875 0  0.225 -0.875 0  0.25 -0.875 0  -0.25 -0.85 0  -0.225 -0.85 0  -0.2 -0.85 0  -0.175 -0.85 0  -0.15 -0.85 0  -0.125 -0.85 0  -0.1 -0.85 0  -0.07500000000000001 -0.85 0  -0.04999999999999999 -0.85 0  -0.02499999999999999 -0.85 0  0 -0.85 0  0.02500000000000002 -0.85 0  0.04999999999999999 -0.85 0  0.07500000000000001 -0.85 0  0.09999999999999998 -0.85 0  0.125 -0.85 0  0.15 -0.85 0  0.175 -0.85 0  0.2 -0.85 0  0.225 -0.85 0  0.25 -0.85 0  -0.25 -0.825 0  -0.225 -0.825 0  -0.2 -0.825 0  -0.175 -0.825 0  -0.15 -0.825 0  -0.125 -0.825 0  -0.1 -0.825 0  -0.07500000000000001 -0.825 0  -0.04999999999999999 -0.825 0  -0.02499999999999999 -0.825 0  0 -0.825 0  0.02500000000000002 -0.825 0  0.04999999999999999 -0.825 0  0.07500000000000001 -0.825 0  0.09999999999999998 -0.825 0  0.125 -0.825 0  0.15 -0.825 0  0.175 -0.825 0  0.2 -0.825 0  0.225 -0.825 0  0.25 -0.825 0  -0.25 -0.8 0  -0.225 -0.8 0  -0.2 -0.8 0  -0.175 -0.8 0  -0.15 -0.8 0  -0.125 -0.8 0  -0.1 -0.8 0  -0.07500000000000001 -0.8 0  -0.04999999999999999 -0.8 0  -0.02499999999999999 -0.8 0  0 -0.8 0  0.02500000000000002 -0.8 0  0.04999999999999999 -0.8 0  0.07500000000000001 -0.8 0  0.09999999999999998 -0.8 0  0.125 -0.8 0  0.15 -0.8 0  0.175 -0.8 0  0.2 -0.8 0  0.225 -0.8 0  0.25 -0.8 0  -0.25 -0.775 0  -0.225 -0.775 0  -0.2 -0.775 0  -0.175 -0.775 0  -0.15 -0.775 0  -0.125 -0.775 0  -0.1 -0.775 0  -0.07500000000000001 -0.775 0  -0.04999999999999999 -0.775 0  -0.02499999999999999 -0.775 0  0 -0.775 0  0.02500000000000002 -0.775 0  0.04999999999999999 -0.775 0  0.07500000000000001 -0.775 0  0.09999999999999998 -0.775 0  0.125 -0.775 0  0.15 -0.775 0  0.175 -0.775 0  0.2 -0.775 0  0.225 -0.775 0  0.25 -0.775 0  -0.25 -0.75 0  -0.225 -0.75 0  -0.2 -0.75 0  -0.175 -0.75 0  -0.15 -0.75 0  -0.125 -0.75 0  -0.1 -0.75 0  -0.07500000000000001 -0.75 0  -0.04999999999999999 -0.75 0  -0.02499999999999999 -0.75 0  0 -0.75 0  0.02500000000000002 -0.75 0  0.04999999999999999 -0.75 0  0.07500000000000001 -0.75 0  0.09999999999999998 -0.75 0  0.125 -0.75 0  0.15 -0.75 0  0.175 -0.75 0  0.2 -0.75 0  0.225 -0.75 0  0.25 -0.75 0  -0.25 -0.725 0  -0.225 -0.725 0  -0.2 -0.725 0  -0.175 -0.725 0  -0.15 -0.725 0  -0.125 -0.725 0  -0.1 -0.725 0  -0.07500000000000001 -0.725 0  -0.04999999999999999 -0.725 0  -0.02499999999999999 -0.725 0  0 -0.725 0  0.02500000000000002 -0.725 0  0.04999999999999999 -0.725 0  0.07500000000000001 -0.725 0  0.09999999999999998 -0.725 0  0.125 -0.725 0  0.15 -0.725 0  0.175 -0.725 0  0.2 -0.725 0  0.225 -0.725 0  0.25 -0.725 0  -0.25 -0.7 0  -0.225 -0.7 0  -0.2 -0.7 0  -0.175 -0.7 0  -0.15 -0.7 0  -0.125 -0.7 0  -0.1 -0.7 0  -0.07500000000000001 -0.7 0  -0.04999999999999999 -0.7 0  -0.02499999999999999 -0.7 0  0 -0.7 0  0.02500000000000002 -0.7 0  0.04999999999999999 -0.7 0  0.07500000000000001 -0.7 0  0.09999999999999998 -0.7 0  0.125 -0.7 0  0.15 -0.7 0  0.175 -0.7 0  0.2 -0.7 0  0.225 -0.7 0  0.25 -0.7 0  -0.25 -0.675 0  -0.225 -0.675 0  -0.2 -0.675 0  -0.175 -0.675 0  -0.15 -0.675 0  -0.125 -0.675 0  -0.1 -0.675 0  -0.07500000000000001 -0.675 0  -0.04999999999999999 -0.675 0  -0.02499999999999999 -0.675 0  0 -0.675 0  0.02500000000000002 -0.675 0  0.04999999999999999 -0.675 0  0.07500000000000001 -0.675 0  0.09999999999999998 -0.675 0  0.125 -0.675 0  0.15 -0.675 0  0.175 -0.675 0  0.2 -0.675 0  0.225 -0.675 0  0.25 -0.675 0  -0.25 -0.65 0  -0.225 -0.65 0  -0.2 -0.65 0  -0.175 -0.65 0  -0.15 -0.65 0  -0.125 -0.65 0  -0.1 -0.65 0  -0.07500000000000001 -0.65 0  -0.04999999999999999 -0.65 0  -0.02499999999999999 -0.65 0  0 -0.65 0  0.02500000000000002 -0.65 0  0.04999999999999999 -0.65 0  0.07500000000000001 -0.65 0  0.09999999999999998 -0.65 0  0.125 -0.65 0  0.15 -0.65 0  0.175 -0.65 0  0.2 -0.65 0  0.225 -0.65 0  0.25 -0.65 0  -0.25 -0.625 0  -0.225 -0.625 0  -0.2 -0.625 0  -0.175 -0.625 0  -0.15 -0.625 0  -0.125 -0.625 0  -0.1 -0.625 0  -0.07500000000000001 -0.625 0  -0.04999999999999999 -0.625 0  -0.02499999999999999 -0.625 0  0 -0.625 0  0.02500000000000002 -0.625 0  0.04999999999999999 -0.625 0  0.07500000000000001 -0.625 0  0.09999999999999998 -0.625 0  0.125 -0.625 0  0.15 -0.625 0  0.175 -0.625 0  0.2 -0.625 0  0.225 -0.625 0  0.25 -0.625 0  -0.25 -0.6 0  -0.225 -0.6 0  -0.2 -0.6 0  -0.175 -0.6 0  -0.15 -0.6 0  -0.125 -0.6 0  -0.1 -0.6 0  -0.07500000000000001 -0.6 0  -0.04999999999999999 -0.6 0  -0.02499999999999999 -0.6 0  0 -0.6 0  0.02500000000000002 -0.6 0  0.04999999999999999 -0.6 0  0.07500000000000001 -0.6 0  0.09999999999999998 -0.6 0  0.125 -0.6 0  0.15 -0.6 0  0.175 -0.6 0  0.2 -0.6 0  0.225 -0.6 0  0.25 -0.6 0  -0.25 -0.575 0  -0.225 -0.575 0  -0.2 -0.575 0  -0.175 -0.575 0  -0.15 -0.575 0  -0.125 -0.575 0  -0.1 -0.575 0  -0.07500000000000001 -0.575 0  -0.04999999999999999 -0.575 0  -0.02499999999999999 -0.575 0  0 -0.575 0  0.02500000000000002 -0.575 0  0.04999999999999999 -0.575 0  0.07500000000000001 -0.575 0  0.09999999999999998 -0.575 0  0.125 -0.575 0  0.15 -0.575 0  0.175 -0.575 0  0.2 -0.575 0  0.225 -0.575 0  0.25 -0.575 0  -0.25 -0.55 0  -0.225 -0.55 0  -0.2 -0.55 0  -0.175 -0.55 0  -0.15 -0.55 0  -0.125 -0.55 0  -0.1 -0.55 0  -0.07500000000000001 -0.55 0  -0.04999999999999999 -0.55 0  -0.02499999999999999 -0.55 0  0 -0.55 0  0.02500000000000002 -0.55 0  0.04999999999999999 -0.55 0  0.07500000000000001 -0.55 0  0.09999999999999998 -0.55 0  0.125 -0.55 0  0.15 -0.55 0  0.175 -0.55 0  0.2 -0.55 0  0.225 -0.55 0  0.25 -0.55 0  -0.25 -0.525 0  -0.225 -0.525 0  -0.2 -0.525 0  -0.175 -0.525 0  -0.15 -0.525 0  -0.125 -0.525 0  -0.1 -0.525 0  -0.07500000000000001 -0.525 0  -0.04999999999999999 -0.525 0  -0.02499999999999999 -0.525 0  0 -0.525 0  0.02500000000000002 -0.525 0  0.04999999999999999 -0.525 0  0.07500000000000001 -0.525 0  0.09999999999999998 -0.525 0  0.125 -0.525 0  0.15 -0.525 0  0.175 -0.525 0  0.2 -0.525 0  0.225 -0.525 0  0.25 -0.525 0  -0.25 -0.5 0  -0.225 -0.5 0  -0.2 -0.5 0  -0.175 -0.5 0  -0.15 -0.5 0  -0.125 -0.5 0  -0.1 -0.5 0  -0.07500000000000001 -0.5 0  -0.04999999999999999 -0.5 0  -0.02499999999999999 -0.5 0  0 -0.5 0  0.02500000000000002 -0.5 0  0.04999999999999999 -0.5 0  0.07500000000000001 -0.5 0  0.09999999999999998 -0.5 0  0.125 -0.5 0  0.15 -0.5 0  0.175 -0.5 0  0.2 -0.5 0  0.225 -0.5 0  0.25 -0.5 0  -0.25 -0.475 0  -0.225 -0.475 0  -0.2 -0.475 0  -0.175 -0.475 0  -0.15 -0.475 0  -0.125 -0.475 0  -0.1 -0.475 0  -0.07500000000000001 -0.475 0  -0.04999999999999999 -0.475 0  -0.02499999999999999 -0.475 0  0 -0.475 0  0.02500000000000002 -0.475 0  0.04999999999999999 -0.475 0  0.07500000000000001 -0.475 0  0.09999999999999998 -0.475 0  0.125 -0.475 0  0.15 -0.475 0  0.175 -0.475 0  0.2 -0.475 0  0.225 -0.475 0  0.25 -0.475 0  -0.25 -0.45 0  -0.225 -0.45 0  -0.2 -0.45 0  -0.175 -0.45 0  -0.15 -0.45 0  -0.125 -0.45 0  -0.1 -0.45 0  -0.07500000000000001 -0.45 0  -0.04999999999999999 -0.45 0  -0.02499999999999999 -0.45 0  0 -0.45 0  0.02500000000000002 -0.45 0  0.04999999999999999 -0.45 0  0.07500000000000001 -0.45 0  0.09999999999999998 -0.45 0  0.125 -0.45 0  0.15 -0.45 0  0.175 -0.45 0  0.2 -0.45 0  0.225 -0.45 0  0.25 -0.45 0  -0.25 -0.425 0  -0.225 -0.425 0  -0.2 -0.425 0  -0.175 -0.425 0  -0.15 -0.425 0  -0.125 -0.425 0  -0.1 -0.425 0  -0.07500000000000001 -0.425 0  -0.04999999999999999 -0.425 0  -0.02499999999999999 -0.425 0  0 -0.425 0  0.02500000000000002 -0.425 0  0.04999999999999999 -0.425 0  0.07500000000000001 -0.425 0  0.
[...]
<PointData  Vectors="flow"> 
<DataArray  type="Float64"  Name="flow"  NumberOfComponents="3" format="ascii">-2.1883929097307889e-01 4.3768322193547637e-01 0.0000000000000000e+00  1.0545837838974555e-05 4.3768322193487691e-01 0.0000000000000000e+00  -5.0795080137367965e-10 4.3768322193627451e-01 0.0000000000000000e+00  -3.8093938565675194e-13 4.3768322193565723e-01 0.0000000000000000e+00  5.1732486822800868e-14 4.3768322193514109e-01 0.0000000000000000e+00  9.1433461216659114e-15 4.3768322193502912e-01 0.0000000000000000e+00  -1.0210069605546535e-12 4.3768322193731751e-01 0.0000000000000000e+00  -1.8595744445016659e-12 4.3768322193497383e-01 0.0000000000000000e+00  -2.7387175393473262e-12 4.3768322193539883e-01 0.0000000000000000e+00  -2.3335952847683174e-12 4.3768322193698805e-01 0.0000000000000000e+00  -1.6491611384481264e-12 4.3768322193707671e-01 0.0000000000000000e+00  -2.3562708950478806e-12 4.3768322193559078e-01 0.0000000000000000e+00  -2.3002697763009440e-12 4.3768322193588982e-01 0.0000000000000000e+00  -3.6025724581608265e-12 4.3768322193496167e-01 0.0000000000000000e+00  -1.9013982797632810e-12 4.3768322193944392e-01 0.0000000000000000e+00  1.7253599460690259e-12 4.3768322193573117e-01 0.0000000000000000e+00  9.4238563947220897e-16 4.3768322193527393e-01 0.0000000000000000e+00  -8.1635408060450628e-13 4.3768322193619175e-01 0.0000000000000000e+00  5.1015139785086077e-10 4.3768322193545400e-01 0.0000000000000000e+00  -1.0545839292043425e-05 4.3768322193715503e-01 0.0000000000000000e+00  2.1883929097602473e-01 4.3768322193348808e-01 0.0000000000000000e+00  -2.1867057381552199e-01 1.3126654066021093e+00 0.0000000000000000e+00  1.0537708085791582e-05 1.3126654066021111e+00 0.0000000000000000e+00  -5.0786935712590158e-10 1.3126654066024210e+00 0.0000000000000000e+00  -1.8891634885260144e-13 1.3126654066021308e+00 0.0000000000000000e+00  1.1932885793548193e-13 1.3126654066026899e+00 0.0000000000000000e+00  -5.7253129015967877e-14 1.3126654066019983e+00 0.0000000000000000e+00  -6.5651624153557244e-13 1.3126654066023553e+00 0.0000000000000000e+00  -2.7503648823823091e-12 1.3126654066023744e+00 0.0000000000000000e+00  -1.9891746048444167e-12 1.3126654066025056e+00 0.0000000000000000e+00  -2.3247824945725190e-12 1.3126654066016721e+00 0.0000000000000000e+00  -2.0470295438523567e-12 1.3126654066021224e+00 0.0000000000000000e+00  -2.3404892287970856e-12 1.3126654066022740e+00 0.0000000000000000e+00  -2.7365702510786622e-12 1.3126654066022194e+00 0.0000000000000000e+00  -1.5310997703888018e-12 1.3126654066024754e+00 0.0000000000000000e+00  -1.3862454446213862e-12 1.3126654066036223e+00 0.0000000000000000e+00  -8.5713506046495323e-13 1.3126654066030770e+00 0.0000000000000000e+00  5.7942475248774951e-13 1.3126654066022767e+00 0.0000000000000000e+00  8.3540057275219956e-15 1.3126654066029078e+00 0.0000000000000000e+00  5.0862521484412920e-10 1.3126654066023884e+00 0.0000000000000000e+00  -1.0537708790751902e-05 1.3126654066013828e+00 0.0000000000000000e+00  2.1867057381615834e-01 1.3126654066017212e+00 0.0000000000000000e+00  -2.1816468249080628e-01 2.6233067783451269e+00 0.0000000000000000e+00  1.0513328950056013e-05 2.6233067783447810e+00 0.0000000000000000e+00  -5.0659427404615128e-10 2.6233067783445798e+00 0.0000000000000000e+00  -4.6400652124383047e-13 2.6233067783444945e+00 0.0000000000000000e+00  -3.4191074407688175e-14 2.6233067783435544e+00 0.0000000000000000e+00  -4.8299899618832040e-14 2.6233067783442610e+00 0.0000000000000000e+00  -4.9653845295282268e-13 2.6233067783438235e+00 0.0000000000000000e+00  -2.1120709100400424e-12 2.6233067783437622e+00 0.0000000000000000e+00  -3.1102983116073122e-12 2.6233067783444093e+00 0.0000000000000000e+00  -2.5950277817975825e-12 2.6233067783443662e+00 0.0000000000000000e+00  -1.0201647920121365e-12 2.6233067783442370e+00 0.0000000000000000e+00  -2.3335901851883110e-12 2.6233067783440416e+00 0.0000000000000000e+00  -2.0747801791469810e-12 2.6233067783437747e+00 0.0000000000000000e+00  -1.9475949697592714e-12 2.6233067783444923e+00 0.0000000000000000e+00  -1.5257239706696689e-12 2.6233067783447206e+00 0.0000000000000000e+00  -1.5992457583010685e-13 2.6233067783440118e+00 0.0000000000000000e+00  -2.2087310876140909e-13 2.6233067783447468e+00 0.0000000000000000e+00  -5.6352852625762498e-14 2.6233067783437569e+00 0.0000000000000000e+00  5.0654805410982854e-10 2.6233067783436024e+00 0.0000000000000000e+00  -1.0513329702166113e-05 2.6233067783441433e+00 0.0000000000000000e+00  2.1816468249238585e-01 2.6233067783439288e+00 0.0000000000000000e+00  -2.1732239704663220e-01 3.9299032012806867e+00 0.0000000000000000e+00  1.0472738736556315e-05 3.9299032012809305e+00 0.0000000000000000e+00  -5.0462360484904491e-10 3.9299032012811970e+00 0.0000000000000000e+00  -5.3888012823843582e-13 3.9299032012813195e+00 0.0000000000000000e+00  -2.6647561699699207e-13 3.9299032012822814e+00 0.0000000000000000e+00  1.8011120798961123e-13 3.9299032012812027e+00 0.0000000000000000e+00  -1.3641227080904171e-12 3.9299032012803354e+00 0.0000000000000000e+00  -1.6364114380406891e-12 3.9299032012812831e+00 0.0000000000000000e+00  -2.0476071177030540e-12 3.9299032012806863e+00 0.0000000000000000e+00  -2.4337930691838969e-12 3.9299032012820341e+00 0.0000000000000000e+00  -1.8990478133152491e-12 3.9299032012807724e+00 0.0000000000000000e+00  -3.2161140609796150e-12 3.9299032012807826e+00 0.0000000000000000e+00  -2.2943201843073352e-12 3.9299032012806010e+00 0.0000000000000000e+00  -9.8385420349776643e-13 3.9299032012801316e+00 0.0000000000000000e+00  -1.3285495787370334e-12 3.9299032012815407e+00 0.0000000000000000e+00  -8.5551154574945229e-13 3.9299032012804966e+00 0.0000000000000000e+00  -5.2194878225633791e-14 3.9299032012797959e+00 0.0000000000000000e+00  -9.2971134882141813e-13 3.9299032012794535e+00 0.0000000000000000e+00  5.0510512755084419e-10 3.9299032012793553e+00 0.0000000000000000e+00  -1.0472739836604336e-05 3.9299032012794273e+00 0.0000000000000000e+00  2.1732239704701911e-01 3.9299032012792967e+00 0.0000000000000000e+00  -2.1614501622683654e-01 5.2304399984834520e+00 0.0000000000000000e+00  1.0416002056471706e-05 5.2304399984837611e+00 0.0000000000000000e+00  -5.0233701829938729e-10 5.2304399984832903e+00 0.0000000000000000e+00  6.2384564827429568e-13 5.2304399984830745e+00 0.0000000000000000e+00  -5.1715589656657335e-13 5.2304399984828409e+00 0.0000000000000000e+00  -1.4417304586949603e-12 5.2304399984829066e+00 0.0000000000000000e+00  -9.8717349621036424e-13 5.2304399984824812e+00 0.0000000000000000e+00  -1.5449769622645246e-12 5.2304399984826997e+00 0.0000000000000000e+00  -2.2024414479752425e-12 5.2304399984834236e+00 0.0000000000000000e+00  -2.4582755987935286e-12 5.2304399984823213e+00 0.0000000000000000e+00  -2.7974810311845618e-12 5.2304399984830532e+00 0.0000000000000000e+00  -2.3534217293149930e-12 5.2304399984826819e+00 0.0000000000000000e+00  -1.8846829045016935e-12 5.2304399984828027e+00 0.0000000000000000e+00  -1.0925473472482945e-12 5.2304399984835737e+00 0.0000000000000000e+00  -1.0670672880325188e-12 5.2304399984824252e+00 0.0000000000000000e+00  -2.2588120620981333e-12 5.2304399984823426e+00 0.0000000000000000e+00  -6.9497287250069040e-13 5.2304399984823506e+00 0.0000000000000000e+00  -2.0694713491114872e-13 5.2304399984821153e+00 0.0000000000000000e+00  5.0135646189863827e-10 5.2304399984821233e+00 0.0000000000000000e+00  -1.0416002024007999e-05 5.2304399984817067e+00 0.0000000000000000e+00  2.1614501622927110e-01 5.2304399984813772e+00 0.0000000000000000e+00  -2.1463435546821494e-01 6.5229118365229839e+00 0.0000000000000000e+00  1.0343202988469918e-05 6.5229118365224643e+00 0.0000000000000000e+00  -4.9910209256033189e-10 6.5229118365223542e+00 0.0000000000000000e+00  -3.4400675217080693e-13 6.5229118365228205e+00 0.0000000000000000e+00  -6.6275291130392465e-13 6.5229118365224270e+00 0.0000000000000000e+00  -5.2770404238454693e-13 6.5229118365218719e+00 0.0000000000000000e+00  -1.1776822291037318e-12 6.5229118365232059e+00 0.0000000000000000e+00  -7.1769462366057476e-13 6.5229118365230780e+00 0.0000000000000000e+00  -2.4609609779920486e-12 6.5229118365227379e+00 0.0000000000000000e+00  -2.7447689205191150e-12 6.5229118365233649e+00 0.0000000000000000e+00  -1.9951967974898796e-12 6.5229118365221304e+00 0.0000000000000000e+00  -2.7959249274029953e-12 6.5229118365222805e+00 0.0000000000000000e+00  -1.9884162921118332e-12 6.5229118365236731e+00 0.0000000000000000e+00  -1.7943944100622910e-12 6.5229118365226864e+00 0.0000000000000000e+00  -2.1181066952304874e-12 6.5229118365215228e+00 0.0000000000000000e+00  -9.0965958663459616e-13 6.5229118365226668e+00 0.0000000000000000e+00  -6.6824340419386057e-13 6.5229118365224465e+00 0.0000000000000000e+00  -9.5626233058813832e-13 6.5229118365225922e+00 0.0000000000000000e+00  4.9825585703435170e-10 6.5229118365229111e+00 0.0000000000000000e+00  -1.0343203387446976e-05 6.5229118365227761e+00 0.0000000000000000e+00  2.1463435546650225e-01 6.5229118365228329e+00 0.0000000000000000e+00  -2.1279274409700386e-01 7.8053258175546301e+00 0.0000000000000000e+00  1.0254455363201136e-05 7.8053258175541114e+00 0.0000000000000000e+00  -4.9486288718212036e-10 7.8053258175542677e+00 0.0000000000000000e+00  5.9994033623922575e-13 7.8053258175535607e+00 0.0000000000000000e+00  -6.3586783292378670e-13 7.8053258175541815e+00 0.0000000000000000e+00  -1.0473913638787183e-12 7.8053258175543387e+00 0.0000000000000000e+00  5.2339651840813638e-14 7.8053258175528812e+00 0.0000000000000000e+00  -2.3199679050701311e-12 7.8053258175539746e+00 0.0000000000000000e+00  -1.3998443134226873e-12 7.8053258175534088e+00 0.0000000000000000e+00  -3.0544838232514148e-12 7.8053258175547047e+00 0.0000000000000000e+00  -4.1718403205558497e-12 7.8053258175542792e+00 0.0000000000000000e+00  -1.8447252431412125e-13 7.8053258175546780e+00 0.0000000000000000e+00  -2.5346283223646130e-12 7.8053258175541238e+00 0.0000000000000000e+00  -2.6718528244690088e-12 7.8053258175529416e+00 0.0000000000000000e+00  -1.4825143064347799e-12 7.8053258175525029e+00 0.0000000000000000e+00  -9.9825837977960134e-13 7.8053258175539204e+00 0.0000000000000000e+00  -8.2745216461881144e-13 7.8053258175531868e+00 0.0000000000000000e+00  5.7246291723497351e-13 7.8053258175546700e+00 0.0000000000000000e+00  4.9357630701791873e-10 7.8053258175543165e+00 0.0000000000000000e+00  -1.0254456793242677e-05 7.8053258175545457e+00 0.0000000000000000e+00  2.1279274409660176e-01 7.8053258175553726e+00 0.0000000000000000e+00  -2.1062302174407327e-01 9.0757045522095225e+00 0.0000000000000000e+00  1.0149897137756451e-05 9.0757045522108850e+00 0.0000000000000000e+00  -4.8926327913691629e-10 9.0757045522103699e+00 0.0000000000000000e+00  -6.4236076898001179e-13 9.0757045522105368e+00 0.0000000000000000e+00  -9.7051226101101852e-13 9.0757045522100306e+00 0.0000000000000000e+00  -1.2065024258453262e-12 9.0757045522091246e+00 0.0000000000000000e+00  -1.8514108711560725e-12 9.0757045522091584e+00 0.0000000000000000e+00  -7.6495623886795009e-14 9.0757045522083359e+00 0.0000000000000000e+00  -1.3716361657308802e-12 9.0757045522093271e+00 0.0000000000000000e+00  -2.5998352821236423e-12 9.0757045522081548e+00 0.0000000000000000e+00  -2.3382138408932849e-12 9.0757045522103557e+00 0.0000000000000000e+00  -2.4252091198556731e-12 9.0757045522096700e+00 0.0000000000000000e+00  -3.0366991177687011e-12 9.0757045522079345e+00 0.0000000000000000e+00  -3.1144801314454426e-12 9.0757045522094160e+00 0.0000000000000000e+00  -1.3918848046284165e-12 9.0757045522104569e+00 0.0000000000000000e+00  1.8807650601052856e-13 9.0757045522097162e+00 0.0000000000000000e+00  -9.5501583124214817e-13 9.0757045522101407e+00 0.0000000000000000e+00  -6.6986312902160057e-14 9.0757045522093041e+00 0.0000000000000000e+00  4.8987539019825545e-10 9.0757045522101496e+00 0.0000000000000000e+00  -1.0149897822323288e-05 9.0757045522101389e+00 0.0000000000000000e+00  2.1062302174566058e-01 9.0757045522105564e+00 0.0000000000000000e+00  -2.0812853396286515e-01 1.0332089208597573e+01 0.0000000000000000e+00  1.0029687801734348e-05 1.0332089208598534e+01 0.0000000000000000e+00  -4.8399053154619194e-10 1.0332089208597957e+01 0.0000000000000000e+00  9.7899644527178406e-14 1.0332089208599033e+01 0.0000000000000000e+00  -2.0793314084410201e-12 1.0332089208598747e+01 0.0000000000000000e+00  -7.9158686639272415e-13 1.0332089208598703e+01 0.0000000000000000e+00  -1.0954403959022939e-12 1.0332089208599164e+01 0.0000000000000000e+00  -2.1056486794999648e-12 1.0332089208598328e+01 0.0000000000000000e+00  -1.6040688031297594e-12 1.0332089208597791e+01 0.0000000000000000e+00  -2.1009046525651686e-12 1.0332089208597722e+01 0.0000000000000000e+00  -2.1458671690908075e-12 1.0332089208597965e+01 0.0000000000000000e+00  -2.8694981419083928e-12 1.0332089208597464e+01 0.0000000000000000e+00  -3.0825531557511318e-12 1.0332089208598383e+01 0.0000000000000000e+00  -1.1570236414408717e-12 1.0332089208597854e+01 0.0000000000000000e+00  -7.6878475771890657e-13 1.0332089208599719e+01 0.0000000000000000e+00  -1.3849254019259966e-12 1.0332089208598333e+01 0.0000000000000000e+00  -1.1157000297826868e-12 1.0332089208598882e+01 0.0000000000000000e+00  7.2314656259398652e-13 1.0332089208599751e+01 0.0000000000000000e+00  4.8357539307809285e-10 1.0332089208597681e+01 0.0000000000000000e+00  -1.0029688722116471e-05 1.0332089208600362e+01 0.0000000000000000e+00  2.0812853396601155e-01 1.0332089208598696e+01 0.0000000000000000e+00  -2.0531312707625030e-01 1.1572542532679417e+01 0.0000000000000000e+00  9.8940143124150418e-06 1.1572542532678259e+01 0.0000000000000000e+00  -4.7640714857874244e-10 1.1572542532679172e+01 0.0000000000000000e+00  3.3030205514364860e-13 1.1572542532679485e+01 0.0000000000000000e+00  -1.2863468197273965e-12 1.1572542532679174e+01 0.0000000000000000e+00  -1.4905071273733688e-12 1.1572542532680428e+01 0.0000000000000000e+00  -2.1744160727115690e-12 1.1572542532678868e+01 0.0000000000000000e+00  -1.1448738466930583e-12 1.1572542532679698e+01 0.0000000000000000e+00  -1.9675566211835036e-12 1.1572542532679249e+01 0.0000000000000000e+00  -1.7673336869451157e-12 1.1572542532679664e+01 0.0000000000000000e+00  -3.2466417728222962e-12 1.1572542532678067e+01 0.0000000000000000e+00  -2.4090814110074855e-12 1.1572542532679577e+01 0.0000000000000000e+00  -2.2704710329779986e-12 1.1572542532679186e+01 0.0000000000000000e+00  -1.5969714836458138e-12 1.1572542532680256e+01 0.0000000000000000e+00  -5.4583530055161217e-13 1.1572542532678488e+01 0.0000000000000000e+00  -1.2713614505079739e-12 1.1572542532679909e+01 0.0000000000000000e+00  4.5497632291813679e-13 1.1572542532679551e+01 0.0000000000000000e+00  -5.9654027631012016e-13 1.1572542532679593e+01 0.0000000000000000e+00  4.7730214617870181e-10 1.1572542532680307e+01 0.0000000000000000e+00  -9.8940135090396634e-06 1.1572542532678797e+01 0.0000000000000000e+00  2.0531312707358948e-01 1.1572542532678002e+01 0.0000000000000000e+00  -2.0218114223214032e-01 1.2795151835365386e+01 0.0000000000000000e+00  9.7430846543358329e-06 1.2795151835365207e+01 0.0000000000000000e+00  -4.6976186538513671e-10 1.2795151835366111e+01 0.0000000000000000e+00  -1.9872146363188655e-13 1.2795151835364386e+01 0.0000000000000000e+00  -1.4121943684194440e-12 1.2795151835364743e+01 0.0000000000000000e+00  -9.1094090177883905e-13 1.2795151835364338e+01 0.0000000000000000e+00  -1.4313343669089258e-12 1.2795151835365644e+01 0.0000000000000000e+00  -2.0885555839056248e-12 1.2795151835365186e+01 0.0000000000000000e+00  -2.3014288088717220e-12 1.2795151835365202e+01 0.0000000000000000e+00  -3.0158683912648589e-12 1.2795151835365020e+01 0.0000000000000000e+00  -2.1617880600081716e-12 1.2795151835364942e+01 0.0000000000000000e+00  -1.5161476550078308e-12 1.2795151835365489e+01 0.0000000000000000e+00  -2.4366921246438246e-12 1.2795151835365271e+01 0.0000000000000000e+00  -1.7368616485849271e-12 1.2795151835365106e+01 0.0000000000000000e+00  -8.7593877598613268e-13 1.2795151835365289e+01 0.0000000000000000e+00  -3.5525532998765819e-13 1.2795151835365395e+01 0.0000000000000000e+00  -9.2096206061309553e-13 1.2795151835365990e+01 0.0000000000000000e+00  9.2160277707451972e-13 1.2795151835364095e+01 0.0000000000000000e+00  4.6935303175646901e-10 1.2795151835365399e+01 0.0000000000000000e+00  -9.7430858864469647e-06 1.2795151835363695e+01 0.0000000000000000e+00  2.0218114223360992e-01 1.2795151835365216e+01 0.0000000000000000e+00  -1.9873740872199872e-01 1.3998031941751913e+01 0.0000000000000000e+00  9.5771320672019840e-06 1.3998031941751876e+01 0.0000000000000000e+00  -4.6229424529173321e-10 1.3998031941751329e+01 0.0000000000000000e+00  -5.7573808759851935e-13 1.3998031941751206e+01 0.0000000000000000e+00  -1.3048209521823454e-12 1.3998031941751774e+01 0.0000000000000000e+00  -8.4210986858783439e-13 1.3998031941752551e+01 0.0000000000000000e+00  -5.3740179739583342e-13 1.3998031941754112e+01 0.0000000000000000e+00  -2.8129233152876253e-12 1.3998031941752773e+01 0.0000000000000000e+00  -1.7859128174844260e-12 1.3998031941752515e+01 0.0000000000000000e+00  -2.3485657227896691e-12 1.3998031941751904e+01 0.0000000000000000e+00  -2.1018044703845098e-12 1.3998031941752947e+01 0.0000000000000000e+00  -2.6066358275649456e-12 1.3998031941751730e+01 0.0000000000000000e+00  -2.1691287457322906e-12 1.3998031941753087e+01 0.0000000000000000e+00  -1.6534044582951660e-12 1.3998031941750831e+01 0.0000000000000000e+00  -1.1066789145371537e-12 1.3998031941750773e+01 0.0000000000000000e+00  -2.7641328784240225e-13 1.3998031941750936e+01 0.0000000000000000e+00  4.7970347530946199e-14 1.3998031941751840e+01 0.0000000000000000e+00  -1.8417185520061367e-12 1.3998031941752506e+01 0.0000000000000000e+00  4.6157380241102548e-10 1.3998031941750847e+01 0.0000000000000000e+00  -9.5771318375884875e-06 1.3998031941751229e+01 0.0000000000000000e+00  1.9873740872181439e-01 1.3998031941751249e+01 0.0000000000000000e+00  -1.9498723653688474e-01 1.5179328097917434e+01 0.0000000000000000e+00  9.3964107935135713e-06 1.5179328097917606e+01 0.0000000000000000e+00  -4.5316655003594326e-10 1.5179328097916828e+01 0.0000000000000000e+00  2.3031009861142307e-13 1.5179328097918814e+01 0.0000000000000000e+00  3.4969461987069668e-13 1.5179328097919438e+01 0.0000000000000000e+00  4.1086493783583801e-13 1.5179328097919566e+01 0.0000000000000000e+00  -6.5583261923908845e-13 1.5179328097919749e+01 0.0000000000000000e+00  -3.8587868070100165e-12 1.5179328097918726e+01 0.0000000000000000e+00  -1.7690798669103506e-12 1.5179328097919218e+01 0.0000000000000000e+00  -2.9886072801782586e-12 1.5179328097919836e+01 0.0000000000000000e+00  -2.2883052864484653e-12 1.5179328097919470e+01 0.0000000000000000e+00  -1.9169365188492370e-12 1.5179328097919926e+01 0.0000000000000000e+00  -2.8261551121054479e-12 1.5179328097919011e+01 0.0000000000000000e+00  -4.2879735505085331e-12 1.5179328097919461e+01 0.0000000000000000e+00  -5.8007991388116861e-13 1.5179328097916585e+01 0.0000000000000000e+00  8.6189860849692334e-13 1.5179328097918498e+01 0.0000000000000000e+00  -1.8838414486440701e-13 1.5179328097917583e+01 0.0000000000000000e+00  -6.8972687340439066e-13 1.5179328097917425e+01 0.0000000000000000e+00  4.5203463710536083e-10 1.5179328097917884e+01 0.0000000000000000e+00  -9.3964115172397244e-06 1.5179328097917391e+01 0.0000000000000000e+00  1.9498723653976063e-01 1.5179328097918107e+01 0.0000000000000000e+00  -1.9093640816589383e-01 1.6337218830822714e+01 0.0000000000000000e+00  9.2012024176573601e-06 1.6337218830823190e+01 0.0000000000000000e+00  -4.4323764430489290e-10 1.6337218830824703e+01 0.0000000000000000e+00  9.7371018168549040e-13 1.6337218830824522e+01 0.0000000000000000e+00  7.0924622869892032e-14 1.6337218830825499e+01 0.0000000000000000e+00  -1.6196112308459702e-13 1.6337218830824916e+01 0.0000000000000000e+00  -1.0649882523726530e-12 1.6337218830825147e+01 0.0000000000000000e+00  -3.2965491609080316e-12 1.6337218830825009e+01 0.0000000000000000e+00  -1.591