<?xml version="1.0"?>
<VTKFile type="UnstructuredGrid"  version="0.1"  >
<UnstructuredGrid>
<Piece  NumberOfPoints="1661" NumberOfCells="3200">
<Points>
<DataArray  type="Float64"  NumberOfComponents="3"  format="ascii">-0.25 -1 0  -0.225 -1 0  -0.2 -1 0  -0.175 -1 0  -0.15 -1 0  -0.125 -1 0  -0.1 -1 0  -0.07500000000000001 -1 0  -0.04999999999999999 -1 0  -0.02499999999999999 -1 0  0 -1 0  0.02500000000000002 -1 0  0.04999999999999999 -1 0  0.07500000000000001 -1 0  0.09999999999999998 -1 0  0.125 -1 0  0.15 -1 0  0.175 -1 0  0.2 -1 0  0.225 -1 0  0.25 -1 0  -0.25 -0.975 0  -0.225 -0.975 0  -0.2 -0.975 0  -0.175 -0.975 0  -0.15 -0.975 0  -0.125 -0.975 0  -0.1 -0.975 0  -0.07500000000000001 -0.975 0  -0.04999999999999999 -0.975 0  -0.02499999999999999 -0.975 0  0 -0.975 0  0.02500000000000002 -0.975 0  0.04999999999999999 -0.975 0  0.07500000000000001 -0.975 0  0.09999999999999998 -0.975 0  0.125 -0.975 0  0.15 -0.975 0  0.175 -0.975 0  0.2 -0.975 0  0.225 -0.975 0  0.25 -0.975 0  -0.25 -0.95 0  -0.225 -0.95 0  -0.2 -0.95 0  -0.175 -0.95 0  -0.15 -0.95 0  -0.125 -0.95 0  -0.1 -0.95 0  -0.07500000000000001 -0.95 0  -0.04999999999999999 -0.95 0  -0.02499999999999999 -0.95 0  0 -0.95 0  0.02500000000000002 -0.95 0  0.04999999999999999 -0.95 0  0.07500000000000001 -0.95 0  0.09999999999999998 -0.95 0  0.125 -0.95 0  0.15 -0.95 0  0.175 -0.95 0  0.2 -0.95 0  0.225 -0.95 0  0.25 -0.95 0  -0.25 -0.925 0  -0.225 -0.925 0  -0.2 -0.925 0  -0.175 -0.925 0  -0.15 -0.925 0  -0.125 -0.925 0  -0.1 -0.925 0  -0.07500000000000001 -0.925 0  -0.04999999999999999 -0.925 0  -0.02499999999999999 -0.925 0  0 -0.925 0  0.02500000000000002 -0.925 0  0.04999999999999999 -0.925 0  0.07500000000000001 -0.925 0  0.09999999999999998 -0.925 0  0.125 -0.925 0  0.15 -0.925 0  0.175 -0.925 0  0.2 -0.925 0  0.225 -0.925 0  0.25 -0.925 0  -0.25 -0.9 0  -0.225 -0.9 0  -0.2 -0.9 0  -0.175 -0.9 0  -0.15 -0.9 0  -0.125 -0.9 0  -0.1 -0.9 0  -0.07500000000000001 -0.9 0  -0.04999999999999999 -0.9 0  -0.02499999999999999 -0.9 0  0 -0.9 0  0.02500000000000002 -0.9 0  0.04999999999999999 -0.9 0  0.07500000000000001 -0.9 0  0.09999999999999998 -0.9 0  0.125 -0.9 0  0.15 -0.9 0  0.175 -0.9 0  0.2 -0.9 0  0.225 -0.9 0  0.25 -0.9 0  -0.25 -0.875 0  -0.225 -0.875 0  -0.2 -0.875 0  -0.175 -0.875 0  -0.15 -0.875 0  -0.125 -0.875 0  -0.1 -0.875 0  -0.07500000000000001 -0.875 0  -0.04999999999999999 -0.875 0  -0.02499999999999999 -0.875 0  0 -0.875 0  0.02500000000000002 -0.875 0  0.04999999999999999 -0.875 0  0.07500000000000001 -0.875 0  0.09999999999999998 -0.875 0  0.125 -0.875 0  0.15 -0.875 0  0.175 -0.875 0  0.2 -0.875 0  0.225 -0.875 0  0.25 -0.875 0  -0.25 -0.85 0  -0.225 -0.85 0  -0.2 -0.85 0  -0.175 -0.85 0  -0.15 -0.85 0  -0.125 -0.85 0  -0.1 -0.85 0  -0.07500000000000001 -0.85 0  -0.04999999999999999 -0.85 0  -0.02499999999999999 -0.85 0  0 -0.85 0  0.02500000000000002 -0.85 0  0.04999999999999999 -0.85 0  0.07500000000000001 -0.85 0  0.09999999999999998 -0.85 0  0.125 -0.85 0  0.15 -0.85 0  0.175 -0.85 0  0.2 -0.85 0  0.225 -0.85 0  0.25 -0.85 0  -0.25 -0.825 0  -0.225 -0.825 0  -0.2 -0.825 0  -0.175 -0.825 0  -0.15 -0.825 0  -0.125 -0.825 0  -0.1 -0.825 0  -0.07500000000000001 -0.825 0  -0.04999999999999999 -0.825 0  -0.02499999999999999 -0.825 0  0 -0.825 0  0.02500000000000002 -0.825 0  0.04999999999999999 -0.825 0  0.07500000000000001 -0.825 0  0.09999999999999998 -0.825 0  0.125 -0.825 0  0.15 -0.825 0  0.175 -0.825 0  0.2 -0.825 0  0.225 -0.825 0  0.25 -0.825 0  -0.25 -0.8 0  -0.225 -0.8 0  -0.2 -0.8 0  -0.175 -0.8 0  -0.15 -0.8 0  -0.125 -0.8 0  -0.1 -0.8 0  -0.07500000000000001 -0.8 0  -0.04999999999999999 -0.8 0  -0.02499999999999999 -0.8 0  0 -0.8 0  0.02500000000000002 -0.8 0  0.04999999999999999 -0.8 0  0.07500000000000001 -0.8 0  0.09999999999999998 -0.8 0  0.125 -0.8 0  0.15 -0.8 0  0.175 -0.8 0  0.2 -0.8 0  0.225 -0.8 0  0.25 -0.8 0  -0.25 -0.775 0  -0.225 -0.775 0  -0.2 -0.775 0  -0.175 -0.775 0  -0.15 -0.775 0  -0.125 -0.775 0  -0.1 -0.775 0  -0.07500000000000001 -0.775 0  -0.04999999999999999 -0.775 0  -0.02499999999999999 -0.775 0  0 -0.775 0  0.02500000000000002 -0.775 0  0.04999999999999999 -0.775 0  0.07500000000000001 -0.775 0  0.09999999999999998 -0.775 0  0.125 -0.775 0  0.15 -0.775 0  0.175 -0.775 0  0.2 -0.775 0  0.225 -0.775 0  0.25 -0.775 0  -0.25 -0.75 0  -0.225 -0.75 0  -0.2 -0.75 0  -0.175 -0.75 0  -0.15 -0.75 0  -0.125 -0.75 0  -0.1 -0.75 0  -0.07500000000000001 -0.75 0  -0.04999999999999999 -0.75 0  -0.02499999999999999 -0.75 0  0 -0.75 0  0.02500000000000002 -0.75 0  0.04999999999999999 -0.75 0  0.07500000000000001 -0.75 0  0.09999999999999998 -0.75 0  0.125 -0.75 0  0.15 -0.75 0  0.175 -0.75 0  0.2 -0.75 0  0.225 -0.75 0  0.25 -0.75 0  -0.25 -0.725 0  -0.225 -0.725 0  -0.2 -0.725 0  -0.175 -0.725 0  -0.15 -0.725 0  -0.125 -0.725 0  -0.1 -0.725 0  -0.07500000000000001 -0.725 0  -0.04999999999999999 -0.725 0  -0.02499999999999999 -0.725 0  0 -0.725 0  0.02500000000000002 -0.725 0  0.04999999999999999 -0.725 0  0.07500000000000001 -0.725 0  0.09999999999999998 -0.725 0  0.125 -0.725 0  0.15 -0.725 0  0.175 -0.725 0  0.2 -0.725 0  0.225 -0.725 0  0.25 -0.725 0  -0.25 -0.7 0  -0.225 -0.7 0  -0.2 -0.7 0  -0.175 -0.7 0  -0.15 -0.7 0  -0.125 -0.7 0  -0.1 -0.7 0  -0.07500000000000001 -0.7 0  -0.04999999999999999 -0.7 0  -0.02499999999999999 -0.7 0  0 -0.7 0  0.02500000000000002 -0.7 0  0.04999999999999999 -0.7 0  0.07500000000000001 -0.7 0  0.09999999999999998 -0.7 0  0.125 -0.7 0  0.15 -0.7 0  0.175 -0.7 0  0.2 -0.7 0  0.225 -0.7 0  0.25 -0.7 0  -0.25 -0.675 0  -0.225 -0.675 0  -0.2 -0.675 0  -0.175 -0.675 0  -0.15 -0.675 0  -0.125 -0.675 0  -0.1 -0.675 0  -0.07500000000000001 -0.675 0  -0.04999999999999999 -0.675 0  -0.02499999999999999 -0.675 0  0 -0.675 0  0.02500000000000002 -0.675 0  0.04999999999999999 -0.675 0  0.07500000000000001 -0.675 0  0.09999999999999998 -0.675 0  0.125 -0.675 0  0.15 -0.675 0  0.175 -0.675 0  0.2 -0.675 0  0.225 -0.675 0  0.25 -0.675 0  -0.25 -0.65 0  -0.225 -0.65 0  -0.2 -0.65 0  -0.175 -0.65 0  -0.15 -0.65 0  -0.125 -0.65 0  -0.1 -0.65 0  -0.07500000000000001 -0.65 0  -0.04999999999999999 -0.65 0  -0.02499999999999999 -0.65 0  0 -0.65 0  0.02500000000000002 -0.65 0  0.04999999999999999 -0.65 0  0.07500000000000001 -0.65 0  0.09999999999999998 -0.65 0  0.125 -0.65 0  0.15 -0.65 0  0.175 -0.65 0  0.2 -0.65 0  0.225 -0.65 0  0.25 -0.65 0  -0.25 -0.625 0  -0.225 -0.625 0  -0.2 -0.625 0  -0.175 -0.625 0  -0.15 -0.625 0  -0.125 -0.625 0  -0.1 -0.625 0  -0.07500000000000001 -0.625 0  -0.04999999999999999 -0.625 0  -0.02499999999999999 -0.625 0  0 -0.625 0  0.02500000000000002 -0.625 0  0.04999999999999999 -0.625 0  0.07500000000000001 -0.625 0  0.09999999999999998 -0.625 0  0.125 -0.625 0  0.15 -0.625 0  0.175 -0.625 0  0.2 -0.625 0  0.225 -0.625 0  0.25 -0.625 0  -0.25 -0.6 0  -0.225 -0.6 0  -0.2 -0.6 0  -0.175 -0.6 0  -0.15 -0.6 0  -0.125 -0.6 0  -0.1 -0.6 0  -0.07500000000000001 -0.6 0  -0.04999999999999999 -0.6 0  -0.02499999999999999 -0.6 0  0 -0.6 0  0.02500000000000002 -0.6 0  0.04999999999999999 -0.6 0  0.07500000000000001 -0.6 0  0.09999999999999998 -0.6 0  0.125 -0.6 0  0.15 -0.6 0  0.175 -0.6 0  0.2 -0.6 0  0.225 -0.6 0  0.25 -0.6 0  -0.25 -0.575 0  -0.225 -0.575 0  -0.2 -0.575 0  -0.175 -0.575 0  -0.15 -0.575 0  -0.125 -0.575 0  -0.1 -0.575 0  -0.07500000000000001 -0.575 0  -0.04999999999999999 -0.575 0  -0.02499999999999999 -0.575 0  0 -0.575 0  0.02500000000000002 -0.575 0  0.04999999999999999 -0.575 0  0.07500000000000001 -0.575 0  0.09999999999999998 -0.575 0  0.125 -0.575 0  0.15 -0.575 0  0.175 -0.575 0  0.2 -0.575 0  0.225 -0.575 0  0.25 -0.575 0  -0.25 -0.55 0  -0.225 -0.55 0  -0.2 -0.55 0  -0.175 -0.55 0  -0.15 -0.55 0  -0.125 -0.55 0  -0.1 -0.55 0  -0.07500000000000001 -0.55 0  -0.04999999999999999 -0.55 0  -0.02499999999999999 -0.55 0  0 -0.55 0  0.02500000000000002 -0.55 0  0.04999999999999999 -0.55 0  0.07500000000000001 -0.55 0  0.09999999999999998 -0.55 0  0.125 -0.55 0  0.15 -0.55 0  0.175 -0.55 0  0.2 -0.55 0  0.225 -0.55 0  0.25 -0.55 0  -0.25 -0.525 0  -0.225 -0.525 0  -0.2 -0.525 0  -0.175 -0.525 0  -0.15 -0.525 0  -0.125 -0.525 0  -0.1 -0.525 0  -0.07500000000000001 -0.525 0  -0.04999999999999999 -0.525 0  -0.02499999999999999 -0.525 0  0 -0.525 0  0.02500000000000002 -0.525 0  0.04999999999999999 -0.525 0  0.07500000000000001 -0.525 0  0.09999999999999998 -0.525 0  0.125 -0.525 0  0.15 -0.525 0  0.175 -0.525 0  0.2 -0.525 0  0.225 -0.525 0  0.25 -0.525 0  -0.25 -0.5 0  -0.225 -0.5 0  -0.2 -0.5 0  -0.175 -0.5 0  -0.15 -0.5 0  -0.125 -0.5 0  -0.1 -0.5 0  -0.07500000000000001 -0.5 0  -0.04999999999999999 -0.5 0  -0.02499999999999999 -0.5 0  0 -0.5 0  0.02500000000000002 -0.5 0  0.04999999999999999 -0.5 0  0.07500000000000001 -0.5 0  0.09999999999999998 -0.5 0  0.125 -0.5 0  0.15 -0.5 0  0.175 -0.5 0  0.2 -0.5 0  0.225 -0.5 0  0.25 -0.5 0  -0.25 -0.475 0  -0.225 -0.475 0  -0.2 -0.475 0  -0.175 -0.475 0  -0.15 -0.475 0  -0.125 -0.475 0  -0.1 -0.475 0  -0.07500000000000001 -0.475 0  -0.04999999999999999 -0.475 0  -0.02499999999999999 -0.475 0  0 -0.475 0  0.02500000000000002 -0.475 0  0.04999999999999999 -0.475 0  0.07500000000000001 -0.475 0  0.09999999999999998 -0.475 0  0.125 -0.475 0  0.15 -0.475 0  0.175 -0.475 0  0.2 -0.475 0  0.225 -0.475 0  0.25 -0.475 0  -0.25 -0.45 0  -0.225 -0.45 0  -0.2 -0.45 0  -0.175 -0.45 0  -0.15 -0.45 0  -0.125 -0.45 0  -0.1 -0.45 0  -0.07500000000000001 -0.45 0  -0.04999999999999999 -0.45 0  -0.02499999999999999 -0.45 0  0 -0.45 0  0.02500000000000002 -0.45 0  0.04999999999999999 -0.45 0  0.07500000000000001 -0.45 0  0.09999999999999998 -0.45 0  0.125 -0.45 0  0.15 -0.45 0  0.175 -0.45 0  0.2 -0.45 0  0.225 -0.45 0  0.25 -0.45 0  -0.25 -0.425 0  -0.225 -0.425 0  -0.2 -0.425 0  -0.175 -0.425 0  -0.15 -0.425 0  -0.125 -0.425 0  -0.1 -0.425 0  -0.07500000000000001 -0.425 0  -0.04999999999999999 -0.425 0  -0.02499999999999999 -0.425 0  0 -0.425 0  0.02500000000000002 -0.425 0  0.04999999999999999 -0.425 0  0.07500000000000001 -0.425 0  0.
[...]
<PointData  Vectors="flow"> 
<DataArray  type="Float64"  Name="flow"  NumberOfComponents="3" format="ascii">-3.5613143404314047e-02 7.1227041904637842e-02 0.0000000000000000e+00  1.7161931988353721e-06 7.1227041904564817e-02 0.0000000000000000e+00  -8.2494940478391428e-11 7.1227041904355512e-02 0.0000000000000000e+00  8.3414362702325406e-14 7.1227041904677282e-02 0.0000000000000000e+00  8.7105923369105198e-13 7.1227041904839750e-02 0.0000000000000000e+00  5.1891012235383784e-13 7.1227041904208171e-02 0.0000000000000000e+00  -4.6036722467067115e-13 7.1227041906506569e-02 0.0000000000000000e+00  -1.0858476897355812e-12 7.1227041904357760e-02 0.0000000000000000e+00  -1.4964389781008493e-12 7.1227041904477817e-02 0.0000000000000000e+00  -1.0009667761825679e-12 7.1227041904721525e-02 0.0000000000000000e+00  -8.3002574385655223e-13 7.1227041904464175e-02 0.0000000000000000e+00  -7.7295997264578284e-13 7.1227041904394203e-02 0.0000000000000000e+00  2.2658223831293044e-13 7.1227041904544430e-02 0.0000000000000000e+00  -6.5010603261779886e-13 7.1227041903990318e-02 0.0000000000000000e+00  -3.2895752812291199e-13 7.1227041907052174e-02 0.0000000000000000e+00  3.9372875115877479e-13 7.1227041904177307e-02 0.0000000000000000e+00  -5.6761803915827240e-13 7.1227041904545998e-02 0.0000000000000000e+00  -1.5403457523837987e-13 7.1227041904671384e-02 0.0000000000000000e+00  8.2942834735686134e-11 7.1227041904435559e-02 0.0000000000000000e+00  -1.7161930441391179e-06 7.1227041905080349e-02 0.0000000000000000e+00  3.5613143404826075e-02 7.1227041904687122e-02 0.0000000000000000e+00  -3.5585686961307081e-02 2.1361859270897640e-01 0.0000000000000000e+00  1.7148698098217708e-06 2.1361859270880582e-01 0.0000000000000000e+00  -8.2563449565062836e-11 2.1361859270860090e-01 0.0000000000000000e+00  6.9566639475506195e-13 2.1361859270861047e-01 0.0000000000000000e+00  5.6868791864334144e-13 2.1361859270889644e-01 0.0000000000000000e+00  1.5188716560424549e-12 2.1361859270870334e-01 0.0000000000000000e+00  -3.1982296957915738e-13 2.1361859270876490e-01 0.0000000000000000e+00  -2.2641752268131761e-12 2.1361859270897027e-01 0.0000000000000000e+00  -1.3803999808382406e-12 2.1361859270896560e-01 0.0000000000000000e+00  -1.1399283065407661e-12 2.1361859270884007e-01 0.0000000000000000e+00  -9.1510967555452074e-13 2.1361859270872907e-01 0.0000000000000000e+00  -4.8098361749582678e-13 2.1361859270896988e-01 0.0000000000000000e+00  -3.7959549000183931e-13 2.1361859270889491e-01 0.0000000000000000e+00  1.0522794879810836e-12 2.1361859270872741e-01 0.0000000000000000e+00  -1.2718445340251545e-13 2.1361859270842179e-01 0.0000000000000000e+00  -1.4594721267117863e-12 2.1361859270869760e-01 0.0000000000000000e+00  -5.9730371195774543e-14 2.1361859270883907e-01 0.0000000000000000e+00  -1.9298881789224894e-13 2.1361859270906008e-01 0.0000000000000000e+00  8.2927165116956130e-11 2.1361859270915604e-01 0.0000000000000000e+00  -1.7148697183038713e-06 2.1361859270879333e-01 0.0000000000000000e+00  3.5585686961740588e-02 2.1361859270883604e-01 0.0000000000000000e+00  -3.5503359968544257e-02 4.2690780103101977e-01 0.0000000000000000e+00  1.7109024670553781e-06 4.2690780103090437e-01 0.0000000000000000e+00  -8.2509247676293517e-11 4.2690780103125142e-01 0.0000000000000000e+00  6.5140735273812447e-13 4.2690780103140413e-01 0.0000000000000000e+00  5.8185606846856640e-13 4.2690780103091225e-01 0.0000000000000000e+00  5.5269836158746107e-13 4.2690780103083081e-01 0.0000000000000000e+00  -8.7230318284183320e-14 4.2690780102983861e-01 0.0000000000000000e+00  -1.0622892460873122e-12 4.2690780103089199e-01 0.0000000000000000e+00  -1.4502820723431025e-12 4.2690780103146247e-01 0.0000000000000000e+00  -1.2189963498017867e-12 4.2690780103173498e-01 0.0000000000000000e+00  -8.6101485801788657e-13 4.2690780103193815e-01 0.0000000000000000e+00  -3.7262663892531174e-13 4.2690780103174619e-01 0.0000000000000000e+00  -3.5003995263485557e-13 4.2690780103143067e-01 0.0000000000000000e+00  -7.1697591775915971e-13 4.2690780103111398e-01 0.0000000000000000e+00  -3.0613225531836468e-13 4.2690780102918857e-01 0.0000000000000000e+00  4.5507643280025519e-13 4.2690780103104892e-01 0.0000000000000000e+00  -3.9440791717391410e-14 4.2690780103125098e-01 0.0000000000000000e+00  2.0269233269705675e-14 4.2690780103174308e-01 0.0000000000000000e+00  8.2436784734065233e-11 4.2690780103083337e-01 0.0000000000000000e+00  -1.7109027148147175e-06 4.2690780103124892e-01 0.0000000000000000e+00  3.5503359968906752e-02 4.2690780103141279e-01 0.0000000000000000e+00  -3.5366289367899623e-02 6.3953874846620107e-01 0.0000000000000000e+00  1.7042972723256058e-06 6.3953874846666336e-01 0.0000000000000000e+00  -8.1653717262778793e-11 6.3953874846690906e-01 0.0000000000000000e+00  4.9830069648130576e-13 6.3953874846758163e-01 0.0000000000000000e+00  1.2034913479433505e-13 6.3953874846705472e-01 0.0000000000000000e+00  2.0401689233673549e-13 6.3953874846668901e-01 0.0000000000000000e+00  -2.3621740443368610e-13 6.3953874846543013e-01 0.0000000000000000e+00  -5.7912739032300444e-13 6.3953874846663028e-01 0.0000000000000000e+00  -5.7213407534595823e-13 6.3953874846738279e-01 0.0000000000000000e+00  -7.2369493178364977e-13 6.3953874846779624e-01 0.0000000000000000e+00  -8.9615940521655915e-13 6.3953874846750247e-01 0.0000000000000000e+00  -9.4388461304556424e-13 6.3953874846741054e-01 0.0000000000000000e+00  -1.1665785691011627e-12 6.3953874846698211e-01 0.0000000000000000e+00  -1.2011464402034984e-12 6.3953874846629211e-01 0.0000000000000000e+00  -1.2989995901345753e-13 6.3953874846721948e-01 0.0000000000000000e+00  5.7926324098510756e-13 6.3953874846635972e-01 0.0000000000000000e+00  7.7099602133317405e-13 6.3953874846660796e-01 0.0000000000000000e+00  -4.8318291346958708e-13 6.3953874846690506e-01 0.0000000000000000e+00  8.1836416740054297e-11 6.3953874846737269e-01 0.0000000000000000e+00  -1.7042965049243810e-06 6.3953874846739389e-01 0.0000000000000000e+00  3.5366289367826327e-02 6.3953874846724790e-01 0.0000000000000000e+00  -3.5174686511793049e-02 8.5118357350727492e-01 0.0000000000000000e+00  1.6950643112729677e-06 8.5118357350747231e-01 0.0000000000000000e+00  -8.0753013052909193e-11 8.5118357350755081e-01 0.0000000000000000e+00  6.3232072544707809e-13 8.5118357350747231e-01 0.0000000000000000e+00  -1.9018571861378018e-13 8.5118357350795937e-01 0.0000000000000000e+00  -1.0919665450033499e-12 8.5118357350762242e-01 0.0000000000000000e+00  1.6661460700625514e-14 8.5118357350790386e-01 0.0000000000000000e+00  7.9296853477836148e-13 8.5118357350814744e-01 0.0000000000000000e+00  -4.2158246623064122e-13 8.5118357350801321e-01 0.0000000000000000e+00  -1.1028215847893964e-12 8.5118357350794482e-01 0.0000000000000000e+00  -1.1471552152040700e-12 8.5118357350787754e-01 0.0000000000000000e+00  -9.7288723677744454e-13 8.5118357350745655e-01 0.0000000000000000e+00  -1.3781628109449294e-12 8.5118357350710261e-01 0.0000000000000000e+00  -4.6727314881007493e-13 8.5118357350694118e-01 0.0000000000000000e+00  -2.4829285178927838e-13 8.5118357350710294e-01 0.0000000000000000e+00  -1.3271062136776923e-13 8.5118357350746554e-01 0.0000000000000000e+00  4.2764129828587783e-13 8.5118357350662466e-01 0.0000000000000000e+00  6.5692525983068685e-13 8.5118357350668705e-01 0.0000000000000000e+00  8.2249212315260437e-11 8.5118357350789309e-01 0.0000000000000000e+00  -1.6950640313131758e-06 8.5118357350753737e-01 0.0000000000000000e+00  3.5174686512418563e-02 8.5118357350770057e-01 0.0000000000000000e+00  -3.4928846839518780e-02 1.0615159351737393e+00 0.0000000000000000e+00  1.6832171408230765e-06 1.0615159351730781e+00 0.0000000000000000e+00  -8.0604831034815168e-11 1.0615159351728223e+00 0.0000000000000000e+00  9.1139769198110315e-13 1.0615159351725725e+00 0.0000000000000000e+00  2.6620131894517900e-13 1.0615159351724854e+00 0.0000000000000000e+00  3.0608181084335404e-14 1.0615159351729060e+00 0.0000000000000000e+00  2.6648253924724102e-13 1.0615159351760965e+00 0.0000000000000000e+00  -3.5431659738311236e-13 1.0615159351735348e+00 0.0000000000000000e+00  -7.5570052320840636e-13 1.0615159351736392e+00 0.0000000000000000e+00  -7.6070005237368596e-13 1.0615159351726795e+00 0.0000000000000000e+00  -1.2754581883405276e-12 1.0615159351746761e+00 0.0000000000000000e+00  -1.8756562818291167e-12 1.0615159351738914e+00 0.0000000000000000e+00  -1.5255120712686868e-12 1.0615159351717165e+00 0.0000000000000000e+00  -1.1843527955717745e-12 1.0615159351731143e+00 0.0000000000000000e+00  2.3613934007640357e-13 1.0615159351710011e+00 0.0000000000000000e+00  4.0885363855186688e-14 1.0615159351728922e+00 0.0000000000000000e+00  -6.4238361502403105e-14 1.0615159351728514e+00 0.0000000000000000e+00  7.9961963543557214e-13 1.0615159351727788e+00 0.0000000000000000e+00  8.1745988267727267e-11 1.0615159351717687e+00 0.0000000000000000e+00  -1.6832165327212812e-06 1.0615159351724572e+00 0.0000000000000000e+00  3.4928846840126211e-02 1.0615159351724668e+00 0.0000000000000000e+00  -3.4629149417405636e-02 1.2702115162067151e+00 0.0000000000000000e+00  1.6687741930335519e-06 1.2702115162064700e+00 0.0000000000000000e+00  -8.0040036176391351e-11 1.2702115162061165e+00 0.0000000000000000e+00  4.4883740360861828e-13 1.2702115162059278e+00 0.0000000000000000e+00  4.6739125834030214e-14 1.2702115162059691e+00 0.0000000000000000e+00  2.6777392450400544e-12 1.2702115162065677e+00 0.0000000000000000e+00  5.1182695783114121e-13 1.2702115162058603e+00 0.0000000000000000e+00  -1.7274444207654454e-12 1.2702115162062733e+00 0.0000000000000000e+00  -1.1542287811042849e-12 1.2702115162060850e+00 0.0000000000000000e+00  -2.2771747770520990e-13 1.2702115162065932e+00 0.0000000000000000e+00  -8.1694365307102307e-14 1.2702115162060137e+00 0.0000000000000000e+00  -3.8865765519402024e-12 1.2702115162066017e+00 0.0000000000000000e+00  -2.2369281959668822e-12 1.2702115162067287e+00 0.0000000000000000e+00  -1.1370282289326614e-12 1.2702115162064314e+00 0.0000000000000000e+00  -3.4428342355606045e-13 1.2702115162074890e+00 0.0000000000000000e+00  1.7373940333465489e-12 1.2702115162062031e+00 0.0000000000000000e+00  4.6788250630515761e-13 1.2702115162067718e+00 0.0000000000000000e+00  -3.7886656399393531e-13 1.2702115162062346e+00 0.0000000000000000e+00  8.0561319632867017e-11 1.2702115162063070e+00 0.0000000000000000e+00  -1.6687739235185557e-06 1.2702115162058618e+00 0.0000000000000000e+00  3.4629149417445756e-02 1.2702115162057706e+00 0.0000000000000000e+00  -3.4276056356612072e-02 1.4769485231495389e+00 0.0000000000000000e+00  1.6517586779973200e-06 1.4769485231486457e+00 0.0000000000000000e+00  -7.9695218437323022e-11 1.4769485231478678e+00 0.0000000000000000e+00  7.8661435728856394e-13 1.4769485231479238e+00 0.0000000000000000e+00  8.3750609145666195e-13 1.4769485231482935e+00 0.0000000000000000e+00  -1.2147689475841019e-13 1.4769485231479726e+00 0.0000000000000000e+00  1.4079574998427699e-13 1.4769485231459896e+00 0.0000000000000000e+00  1.6071136332118262e-14 1.4769485231477519e+00 0.0000000000000000e+00  -5.8986808628971531e-13 1.4769485231477972e+00 0.0000000000000000e+00  -6.7266014492374542e-13 1.4769485231484500e+00 0.0000000000000000e+00  -1.1407030233433102e-12 1.4769485231478188e+00 0.0000000000000000e+00  -1.0517824736470047e-12 1.4769485231483621e+00 0.0000000000000000e+00  -1.8358021208333543e-12 1.4769485231502544e+00 0.0000000000000000e+00  -5.7728473352821661e-13 1.4769485231492046e+00 0.0000000000000000e+00  -3.9374315419605503e-14 1.4769485231508039e+00 0.0000000000000000e+00  -7.8004418556558186e-13 1.4769485231487365e+00 0.0000000000000000e+00  -1.1985812025156786e-13 1.4769485231481685e+00 0.0000000000000000e+00  4.2622604256480672e-13 1.4769485231477166e+00 0.0000000000000000e+00  7.9769215608521898e-11 1.4769485231483805e+00 0.0000000000000000e+00  -1.6517590497896948e-06 1.4769485231484101e+00 0.0000000000000000e+00  3.4276056356395891e-02 1.4769485231484885e+00 0.0000000000000000e+00  -3.3870112102184956e-02 1.6814081825201463e+00 0.0000000000000000e+00  1.6321946074032322e-06 1.6814081825204592e+00 0.0000000000000000e+00  -7.9109603078281965e-11 1.6814081825195568e+00 0.0000000000000000e+00  7.5168912472204379e-13 1.6814081825195735e+00 0.0000000000000000e+00  2.8090374925423654e-13 1.6814081825191023e+00 0.0000000000000000e+00  3.1493957826346907e-13 1.6814081825185248e+00 0.0000000000000000e+00  -6.5993176041823071e-14 1.6814081825184770e+00 0.0000000000000000e+00  9.2801497338171993e-15 1.6814081825176086e+00 0.0000000000000000e+00  -3.5078336853051983e-13 1.6814081825179026e+00 0.0000000000000000e+00  -1.6256441677083691e-13 1.6814081825186604e+00 0.0000000000000000e+00  -4.5617912178202738e-13 1.6814081825184835e+00 0.0000000000000000e+00  -1.6315893857945492e-12 1.6814081825179892e+00 0.0000000000000000e+00  -1.1793289956208002e-12 1.6814081825182918e+00 0.0000000000000000e+00  -2.1429609820025898e-13 1.6814081825196732e+00 0.0000000000000000e+00  -5.4380576592173424e-13 1.6814081825204217e+00 0.0000000000000000e+00  -8.5202022682553346e-13 1.6814081825196412e+00 0.0000000000000000e+00  -6.0978451273729101e-13 1.6814081825184690e+00 0.0000000000000000e+00  -2.4960311266564079e-13 1.6814081825195013e+00 0.0000000000000000e+00  7.9406259739742212e-11 1.6814081825185319e+00 0.0000000000000000e+00  -1.6321959190528700e-06 1.6814081825196274e+00 0.0000000000000000e+00  3.3870112100791182e-02 1.6814081825188119e+00 0.0000000000000000e+00  -3.3411942586323851e-02 1.8832752323431912e+00 0.0000000000000000e+00  1.6101165742834691e-06 1.8832752323441615e+00 0.0000000000000000e+00  -7.8392340880774672e-11 1.8832752323455080e+00 0.0000000000000000e+00  4.9301155450360072e-13 1.8832752323447217e+00 0.0000000000000000e+00  -2.4169526947925176e-13 1.8832752323433524e+00 0.0000000000000000e+00  -7.4685475544101980e-13 1.8832752323438335e+00 0.0000000000000000e+00  -3.4083229199572515e-13 1.8832752323436104e+00 0.0000000000000000e+00  -4.3264515740828682e-13 1.8832752323440440e+00 0.0000000000000000e+00  1.1646176145632049e-13 1.8832752323431323e+00 0.0000000000000000e+00  -2.5521455924869798e-13 1.8832752323429978e+00 0.0000000000000000e+00  -1.5943924941067980e-12 1.8832752323423734e+00 0.0000000000000000e+00  -8.0646457795168718e-13 1.8832752323429161e+00 0.0000000000000000e+00  -1.7450643764161805e-13 1.8832752323443078e+00 0.0000000000000000e+00  9.4300301271165993e-13 1.8832752323442699e+00 0.0000000000000000e+00  -5.9602785154664216e-13 1.8832752323428921e+00 0.0000000000000000e+00  -2.5194021544267649e-12 1.8832752323435022e+00 0.0000000000000000e+00  -1.9593336710489357e-13 1.8832752323433526e+00 0.0000000000000000e+00  5.4461740394336776e-13 1.8832752323439506e+00 0.0000000000000000e+00  7.8010474284491930e-11 1.8832752323451702e+00 0.0000000000000000e+00  -1.6101171939648347e-06 1.8832752323439477e+00 0.0000000000000000e+00  3.3411942585918515e-02 1.8832752323438533e+00 0.0000000000000000e+00  -3.2902254280143602e-02 2.0822384082628096e+00 0.0000000000000000e+00  1.5855558505391624e-06 2.0822384082624583e+00 0.0000000000000000e+00  -7.6210471642259406e-11 2.0822384082639505e+00 0.0000000000000000e+00  -1.6685624409037207e-12 2.0822384082629473e+00 0.0000000000000000e+00  -7.2152181489871389e-13 2.0822384082621070e+00 0.0000000000000000e+00  7.1305750633084011e-13 2.0822384082626559e+00 0.0000000000000000e+00  -5.0757429711722677e-14 2.0822384082634149e+00 0.0000000000000000e+00  -8.2594824005317730e-13 2.0822384082622061e+00 0.0000000000000000e+00  -9.6320294332763610e-13 2.0822384082620298e+00 0.0000000000000000e+00  -3.9034304999955665e-13 2.0822384082610657e+00 0.0000000000000000e+00  -8.5608555831201102e-13 2.0822384082622540e+00 0.0000000000000000e+00  -3.2667045910772834e-13 2.0822384082620831e+00 0.0000000000000000e+00  8.2203580376081780e-14 2.0822384082615444e+00 0.0000000000000000e+00  -1.1816424638060386e-12 2.0822384082606686e+00 0.0000000000000000e+00  -8.7895884762302640e-13 2.0822384082597343e+00 0.0000000000000000e+00  -3.4796269680023134e-13 2.0822384082612388e+00 0.0000000000000000e+00  -5.0021188721808179e-13 2.0822384082627647e+00 0.0000000000000000e+00  1.8281091107766898e-12 2.0822384082625378e+00 0.0000000000000000e+00  7.7112605066965173e-11 2.0822384082636667e+00 0.0000000000000000e+00  -1.5855562770424434e-06 2.0822384082628176e+00 0.0000000000000000e+00  3.2902254280015572e-02 2.0822384082634269e+00 0.0000000000000000e+00  -3.2341833081064787e-02 2.2779909234801674e+00 0.0000000000000000e+00  1.5585492734251247e-06 2.2779909234812652e+00 0.0000000000000000e+00  -7.5604086782411797e-11 2.2779909234795217e+00 0.0000000000000000e+00  -1.2262200876402455e-12 2.2779909234791798e+00 0.0000000000000000e+00  -4.0571883170508807e-13 2.2779909234807638e+00 0.0000000000000000e+00  4.6725137354735658e-13 2.2779909234805649e+00 0.0000000000000000e+00  -9.2741094447632105e-13 2.2779909234798974e+00 0.0000000000000000e+00  -1.4850666169407295e-12 2.2779909234791442e+00 0.0000000000000000e+00  -1.2618184426875437e-12 2.2779909234788778e+00 0.0000000000000000e+00  -7.4021443831010494e-13 2.2779909234780655e+00 0.0000000000000000e+00  -3.1829904668862806e-13 2.2779909234768425e+00 0.0000000000000000e+00  -1.0588923790203875e-12 2.2779909234780771e+00 0.0000000000000000e+00  -1.1410160398451175e-12 2.2779909234772235e+00 0.0000000000000000e+00  -1.2726102433800466e-12 2.2779909234769904e+00 0.0000000000000000e+00  -2.5530891431371843e-13 2.2779909234772484e+00 0.0000000000000000e+00  4.7389149800517900e-13 2.2779909234770686e+00 0.0000000000000000e+00  1.1978456360688439e-12 2.2779909234785674e+00 0.0000000000000000e+00  1.3540251399287984e-12 2.2779909234791527e+00 0.0000000000000000e+00  7.5619466338628028e-11 2.2779909234782223e+00 0.0000000000000000e+00  -1.5585490600154555e-06 2.2779909234790843e+00 0.0000000000000000e+00  3.2341833081092203e-02 2.2779909234787481e+00 0.0000000000000000e+00  -3.1731543118603781e-02 2.4702309418042754e+00 0.0000000000000000e+00  1.5291388973683539e-06 2.4702309418039987e+00 0.0000000000000000e+00  -7.5090128178813047e-11 2.4702309418043482e+00 0.0000000000000000e+00  -5.9795334059894412e-13 2.4702309418056791e+00 0.0000000000000000e+00  3.7950568247222998e-13 2.4702309418062063e+00 0.0000000000000000e+00  3.4123658270115466e-13 2.4702309418054105e+00 0.0000000000000000e+00  -1.5225991203443309e-12 2.4702309418044543e+00 0.0000000000000000e+00  -2.0801834103451930e-12 2.4702309418040018e+00 0.0000000000000000e+00  -1.8358237650305691e-12 2.4702309418029027e+00 0.0000000000000000e+00  -2.1063900662466289e-12 2.4702309418031110e+00 0.0000000000000000e+00  -5.2682604014195048e-13 2.4702309418025932e+00 0.0000000000000000e+00  -4.2013129712306395e-13 2.4702309418031660e+00 0.0000000000000000e+00  -1.4680190219953210e-12 2.4702309418036714e+00 0.0000000000000000e+00  -1.0402903520837982e-12 2.4702309418032597e+00 0.0000000000000000e+00  -5.2519792182661663e-13 2.4702309418015607e+00 0.0000000000000000e+00  8.4771543501154591e-13 2.4702309418025434e+00 0.0000000000000000e+00  1.5243297551014606e-12 2.4702309418019097e+00 0.0000000000000000e+00  1.3415290442835879e-12 2.4702309418023001e+00 0.0000000000000000e+00  7.4647312704733914e-11 2.4702309418024067e+00 0.0000000000000000e+00  -1.5291394368727279e-06 2.4702309418029738e+00 0.0000000000000000e+00  3.1731543119988520e-02 2.4702309418024226e+00 0.0000000000000000e+00  -3.1072325420369515e-02 2.6586620430640386e+00 0.0000000000000000e+00  1.4973715036515394e-06 2.6586620430632952e+00 0.0000000000000000e+00  -7.1402974089180272e-11 2.6586620430640688e+00 0.0000000000000000e+00  5.8743908291225432e-13 2.6586620430640222e+00 0.0000000000000000e+00  -3.5472125441678812e-13 2.6586620430648900e+00 0.0000000000000000e+00  -1.7002079952515434e-12 2.6586620430629653e+00 0.0000000000000000e+00  -2.5089135211415773e-12 2.6586620430616490e+00 0.0000000000000000e+00  -2.5487728231091878e-12 2.6586620430616934e+00 0.0000000000000000e+00  -2.1982563258095088e-12 2.6586620430622179e+