<?xml version="1.0"?>
<VTKFile type="UnstructuredGrid"  version="0.1"  >
<UnstructuredGrid>
<Piece  NumberOfPoints="1091" NumberOfCells="2050">
<Points>
<DataArray  type="Float64"  NumberOfComponents="3"  format="ascii">-0.5 -1 0  -0.4 -1 0  -0.3 -1 0  -0.2 -1 0  -0.09999999999999998 -1 0  0 -1 0  0.09999999999999998 -1 0  0.2 -1 0  0.3 -1 0  0.4 -1 0  0.5 -1 0  -0.5 -0.98 0  -0.4 -0.98 0  -0.3 -0.98 0  -0.2 -0.98 0  -0.09999999999999998 -0.98 0  0 -0.98 0  0.09999999999999998 -0.98 0  0.2 -0.98 0  0.3 -0.98 0  0.4 -0.98 0  0.5 -0.98 0  -0.5 -0.96 0  -0.4 -0.96 0  -0.3 -0.96 0  -0.2 -0.96 0  -0.09999999999999998 -0.96 0  0 -0.96 0  0.09999999999999998 -0.96 0  0.2 -0.96 0  0.3 -0.96 0  0.4 -0.96 0  0.5 -0.96 0  -0.5 -0.9399999999999999 0  -0.4 -0.9399999999999999 0  -0.3 -0.9399999999999999 0  -0.2 -0.9399999999999999 0  -0.09999999999999998 -0.9399999999999999 0  0 -0.9399999999999999 0  0.09999999999999998 -0.9399999999999999 0  0.2 -0.9399999999999999 0  0.3 -0.9399999999999999 0  0.4 -0.9399999999999999 0  0.5 -0.9399999999999999 0  -0.5 -0.92 0  -0.4 -0.92 0  -0.3 -0.92 0  -0.2 -0.92 0  -0.09999999999999998 -0.92 0  0 -0.92 0  0.09999999999999998 -0.92 0  0.2 -0.92 0  0.3 -0.92 0  0.4 -0.92 0  0.5 -0.92 0  -0.5 -0.9 0  -0.4 -0.9 0  -0.3 -0.9 0  -0.2 -0.9 0  -0.09999999999999998 -0.9 0  0 -0.9 0  0.09999999999999998 -0.9 0  0.2 -0.9 0  0.3 -0.9 0  0.4 -0.9 0  0.5 -0.9 0  -0.5 -0.88 0  -0.4 -0.88 0  -0.3 -0.88 0  -0.2 -0.88 0  -0.09999999999999998 -0.88 0  0 -0.88 0  0.09999999999999998 -0.88 0  0.2 -0.88 0  0.3 -0.88 0  0.4 -0.88 0  0.5 -0.88 0  -0.5 -0.86 0  -0.4 -0.86 0  -0.3 -0.86 0  -0.2 -0.86 0  -0.09999999999999998 -0.86 0  0 -0.86 0  0.09999999999999998 -0.86 0  0.2 -0.86 0  0.3 -0.86 0  0.4 -0.86 0  0.5 -0.86 0  -0.5 -0.84 0  -0.4 -0.84 0  -0.3 -0.84 0  -0.2 -0.84 0  -0.09999999999999998 -0.84 0  0 -0.84 0  0.09999999999999998 -0.84 0  0.2 -0.84 0  0.3 -0.84 0  0.4 -0.84 0  0.5 -0.84 0  -0.5 -0.8200000000000001 0  -0.4 -0.8200000000000001 0  -0.3 -0.8200000000000001 0  -0.2 -0.8200000000000001 0  -0.09999999999999998 -0.8200000000000001 0  0 -0.8200000000000001 0  0.09999999999999998 -0.8200000000000001 0  0.2 -0.8200000000000001 0  0.3 -0.8200000000000001 0  0.4 -0.8200000000000001 0  0.5 -0.8200000000000001 0  -0.5 -0.8 0  -0.4 -0.8 0  -0.3 -0.8 0  -0.2 -0.8 0  -0.09999999999999998 -0.8 0  0 -0.8 0  0.09999999999999998 -0.8 0  0.2 -0.8 0  0.3 -0.8 0  0.4 -0.8 0  0.5 -0.8 0  -0.5 -0.78 0  -0.4 -0.78 0  -0.3 -0.78 0  -0.2 -0.78 0  -0.09999999999999998 -0.78 0  0 -0.78 0  0.09999999999999998 -0.78 0  0.2 -0.78 0  0.3 -0.78 0  0.4 -0.78 0  0.5 -0.78 0  -0.5 -0.76 0  -0.4 -0.76 0  -0.3 -0.76 0  -0.2 -0.76 0  -0.09999999999999998 -0.76 0  0 -0.76 0  0.09999999999999998 -0.76 0  0.2 -0.76 0  0.3 -0.76 0  0.4 -0.76 0  0.5 -0.76 0  -0.5 -0.74 0  -0.4 -0.74 0  -0.3 -0.74 0  -0.2 -0.74 0  -0.09999999999999998 -0.74 0  0 -0.74 0  0.09999999999999998 -0.74 0  0.2 -0.74 0  0.3 -0.74 0  0.4 -0.74 0  0.5 -0.74 0  -0.5 -0.72 0  -0.4 -0.72 0  -0.3 -0.72 0  -0.2 -0.72 0  -0.09999999999999998 -0.72 0  0 -0.72 0  0.09999999999999998 -0.72 0  0.2 -0.72 0  0.3 -0.72 0  0.4 -0.72 0  0.5 -0.72 0  -0.5 -0.7 0  -0.4 -0.7 0  -0.3 -0.7 0  -0.2 -0.7 0  -0.09999999999999998 -0.7 0  0 -0.7 0  0.09999999999999998 -0.7 0  0.2 -0.7 0  0.3 -0.7 0  0.4 -0.7 0  0.5 -0.7 0  -0.5 -0.6799999999999999 0  -0.4 -0.6799999999999999 0  -0.3 -0.6799999999999999 0  -0.2 -0.6799999999999999 0  -0.09999999999999998 -0.6799999999999999 0  0 -0.6799999999999999 0  0.09999999999999998 -0.6799999999999999 0  0.2 -0.6799999999999999 0  0.3 -0.6799999999999999 0  0.4 -0.6799999999999999 0  0.5 -0.6799999999999999 0  -0.5 -0.6599999999999999 0  -0.4 -0.6599999999999999 0  -0.3 -0.6599999999999999 0  -0.2 -0.6599999999999999 0  -0.09999999999999998 -0.6599999999999999 0  0 -0.6599999999999999 0  0.09999999999999998 -0.6599999999999999 0  0.2 -0.6599999999999999 0  0.3 -0.6599999999999999 0  0.4 -0.6599999999999999 0  0.5 -0.6599999999999999 0  -0.5 -0.64 0  -0.4 -0.64 0  -0.3 -0.64 0  -0.2 -0.64 0  -0.09999999999999998 -0.64 0  0 -0.64 0  0.09999999999999998 -0.64 0  0.2 -0.64 0  0.3 -0.64 0  0.4 -0.64 0  0.5 -0.64 0  -0.5 -0.62 0  -0.4 -0.62 0  -0.3 -0.62 0  -0.2 -0.62 0  -0.09999999999999998 -0.62 0  0 -0.62 0  0.09999999999999998 -0.62 0  0.2 -0.62 0  0.3 -0.62 0  0.4 -0.62 0  0.5 -0.62 0  -0.5 -0.6 0  -0.4 -0.6 0  -0.3 -0.6 0  -0.2 -0.6 0  -0.09999999999999998 -0.6 0  0 -0.6 0  0.09999999999999998 -0.6 0  0.2 -0.6 0  0.3 -0.6 0  0.4 -0.6 0  0.5 -0.6 0  -0.5 -0.5800000000000001 0  -0.4 -0.5800000000000001 0  -0.3 -0.5800000000000001 0  -0.2 -0.5800000000000001 0  -0.09999999999999998 -0.5800000000000001 0  0 -0.5800000000000001 0  0.09999999999999998 -0.5800000000000001 0  0.2 -0.5800000000000001 0  0.3 -0.5800000000000001 0  0.4 -0.5800000000000001 0  0.5 -0.5800000000000001 0  -0.5 -0.5600000000000001 0  -0.4 -0.5600000000000001 0  -0.3 -0.5600000000000001 0  -0.2 -0.5600000000000001 0  -0.09999999999999998 -0.5600000000000001 0  0 -0.5600000000000001 0  0.09999999999999998 -0.5600000000000001 0  0.2 -0.5600000000000001 0  0.3 -0.5600000000000001 0  0.4 -0.5600000000000001 0  0.5 -0.5600000000000001 0  -0.5 -0.54 0  -0.4 -0.54 0  -0.3 -0.54 0  -0.2 -0.54 0  -0.09999999999999998 -0.54 0  0 -0.54 0  0.09999999999999998 -0.54 0  0.2 -0.54 0  0.3 -0.54 0  0.4 -0.54 0  0.5 -0.54 0  -0.5 -0.52 0  -0.4 -0.52 0  -0.3 -0.52 0  -0.2 -0.52 0  -0.09999999999999998 -0.52 0  0 -0.52 0  0.09999999999999998 -0.52 0  0.2 -0.52 0  0.3 -0.52 0  0.4 -0.52 0  0.5 -0.52 0  -0.5 -0.5 0  -0.4 -0.5 0  -0.3 -0.5 0  -0.2 -0.5 0  -0.09999999999999998 -0.5 0  0 -0.5 0  0.09999999999999998 -0.5 0  0.2 -0.5 0  0.3 -0.5 0  0.4 -0.5 0  0.5 -0.5 0  -0.5 -0.48 0  -0.4 -0.48 0  -0.3 -0.48 0  -0.2 -0.48 0  -0.09999999999999998 -0.48 0  0 -0.48 0  0.09999999999999998 -0.48 0  0.2 -0.48 0  0.3 -0.48 0  0.4 -0.48 0  0.5 -0.48 0  -0.5 -0.46 0  -0.4 -0.46 0  -0.3 -0.46 0  -0.2 -0.46 0  -0.09999999999999998 -0.46 0  0 -0.46 0  0.09999999999999998 -0.46 0  0.2 -0.46 0  0.3 -0.46 0  0.4 -0.46 0  0.5 -0.46 0  -0.5 -0.4399999999999999 0  -0.4 -0.4399999999999999 0  -0.3 -0.4399999999999999 0  -0.2 -0.4399999999999999 0  -0.09999999999999998 -0.4399999999999999 0  0 -0.4399999999999999 0  0.09999999999999998 -0.4399999999999999 0  0.2 -0.4399999999999999 0  0.3 -0.4399999999999999 0  0.4 -0.4399999999999999 0  0.5 -0.4399999999999999 0  -0.5 -0.42 0  -0.4 -0.42 0  -0.3 -0.42 0  -0.2 -0.42 0  -0.09999999999999998 -0.42 0  0 -0.42 0  0.09999999999999998 -0.42 0  0.2 -0.42 0  0.3 -0.42 0  0.4 -0.42 0  0.5 -0.42 0  -0.5 -0.4 0  -0.4 -0.4 0  -0.3 -0.4 0  -0.2 -0.4 0  -0.09999999999999998 -0.4 0  0 -0.4 0  0.09999999999999998 -0.4 0  0.2 -0.4 0  0.3 -0.4 0  0.4 -0.4 0  0.5 -0.4 0  -0.5 -0.38 0  -0.4 -0.38 0  -0.3 -0.38 0  -0.2 -0.38 0  -0.09999999999999998 -0.38 0  0 -0.38 0  0.09999999999999998 -0.38 0  0.2 -0.38 0  0.3 -0.38 0  0.4 -0.38 0  0.5 -0.38 0  -0.5 -0.36 0  -0.4 -0.36 0  -0.3 -0.36 0  -0.2 -0.36 0  -0.09999999999999998 -0.36 0  0 -0.36 0  0.09999999999999998 -0.36 0  0.2 -0.36 0  0.3 -0.36 0  0.4 -0.36 0  0.5 -0.36 0  -0.5 -0.34 0  -0.4 -0.34 0  -0.3 -0.34 0  -0.2 -0.34 0  -0.09999999999999998 -0.34 0  0 -0.34 0  0.09999999999999998 -0.34 0  0.2 -0.34 0  0.3 -0.34 0  0.4 -0.34 0  0.5 -0.34 0  -0.5 -0.32 0  -0.4 -0.32 0  -0.3 -0.32 0  -0.2 -0.32 0  -0.09999999999999998 -0.32 0  0 -0.32 0  0.09999999999999998 -0.32 0  0.2 -0.32 0  0.3 -0.32 0  0.4 -0.32 0  0.5 -0.32 0  -0.5 -0.3 0  -0.4 -0.3 0  -0.3 -0.3 0  -0.2 -0.3 0  -0.09999999999999998 -0.3 0  0 -0.3 0  0.09999999999999998 -0.3 0  0.2 -0.3 0  0.3 -0.3 0  0.4 -0.3 0  0.5 -0.3 0  -0.5 -0.28 0  -0.4 -0.28 0  -0.3 -0.28 0  -0.2 -0.28 0  -0.09999999999999998 -0.28 0  0 -0.28 0  0.09999999999999998 -0.28 0  0.2 -0.28 0  0.3 -0.28 0  0.4 -0.28 0  0.5 -0.28 0  -0.5 -0.26 0  -0.4 -0.26 0  -0.3 -0.26 0  -0.2 -0.26 0  -0.09999999999999998 -0.26 0  0 -0.26 0  0.09999999999999998 -0.26 0  0.2 -0.26 0  0.3 -0.26 0  0.4 -0.26 0  0.5 -0.26 0  -0.5 -0.24 0  -0.4 -0.24 0  -0.3 -0.24 0  -0.2 -0.24 0  -0.09999999999999998 -0.24 0  0 -0.24 0  0.09999999999999998 -0.24 0  0.2 -0.24 0  0.3 -0.24 0  0.4 -0.24 0  0.5 -0.24 0  -0.5 -0.22 0  -0.4 -0.22 0  -0.3 -0.22 0  -0.2 -0.22 0  -0.09999999999999998 -0.22 0  0 -0.22 0  0.09999999999999998 -0.22 0  0.2 -0.22 0  0.3 -0.22 0  0.4 -0.22 0  0.5 -0.22 0  -0.5 -0.2 0  -0.4 -0.2 0  -0.3 -0.2 0  -0.2 -0.2 0  -0.09999999999999998 -0.2 0  0 -0.2 0  0.09999999999999998 -0.2 0  0.2 -0.2 0  0.3 -0.2 0  0.4 -0.2 0  0.5 -0.2 0  -0.5 -0.18 0  -0.4 -0.18 0  -0.3 -0.18 0  -0.2 -0.18 0  -0.09999999999999998 -0.18 0  0 -0.18 0  0.09999999999999998 -0.18 0  0.2 -0.18 0  0.3 -0.18 0  0.4 -0.18 0  0.5 -0.18 0  -0.5 -0.16 0  -0.4 -0.16 0  -0.3 -0.16 0  -0.2 -0.16 0  -0.09999999999999998 -0.16 0  0 -0.16 0  0.09999999999999998 -0.16 0  0.2 -0.16 0  0.3 -0.16 0  0.4 -0.16 0  0.5 -0.16 0  -0.5 -0.14 0  -0.4 -0.14 0  -0.3 -0.14 0  -0.2 -0.14 0  -0.09999999999999998 -0.14 0  0 -0.14 0  0.09999999999999998 -0.14 0  0.2 -0.14 0  0.3 -0.14 0  0.4 -0.14 0  0.5 -0.14 0  -0.5 -0.12 0  -0.4 -0.12 0  -0.3 -0.12 0  -0.2 -0.12 0  -0.09999999999999998 -0.12 0  0 -0.12 0  0.09999999999999998 -0.12 0  0.2 -0.12 0  0.3 -0.12 0  0.4 -0.12 0  0.5 -0.12 0  -0.5 -0.09999999999999998 0  -0.4 -0.09999999999999998 0  -0.3 -0.09999999999999998 0  -0.2 -0.09999999999999998 0  -0.09999999999999998 -0.09999999999999998 0  0 -0.09999999999999998 0  0.09999999999999998 -0.09999999999999998 0  0.2 -0.09999999999999998 0  0.3 -0.09999999999999998 0  0.4 -0.09999999999999998 0  0.5 -0.09999999999999998 0  -0.5 -0.07999999999999996 0  -0.4 -0.07999999999999996 0  -0.3 -0.07999999999999996 0  -0.2 -0.07999999999999996 0  -0.09999999999999998 -0.07999999999999996 0  0 -0.07999999999999996 0  0.09999999999999998 -0.07999999999999996 0  0.2 -0.07999999999999996 0  0.3 -0.07999999999999996 0  0.4 -0.07999999999999996 0  0.5 -0.07999999999999996 0  -0.5 -0.06000000000000005 0  -0.4 -0.06000000000000005 0  -0.3 -0.06000000000000005 0  -0.2 -0.06000000000000005 0  -0.09999999
[...]
<PointData  Vectors="flow"> 
<DataArray  type="Float64"  Name="flow"  NumberOfComponents="3" format="ascii">-2.1322564989956396e-15 -1.1322439081345299e-15 0.0000000000000000e+00  -7.5196728560800159e-16 4.0650054485336427e-15 0.0000000000000000e+00  -1.0061319834682349e-15 -5.9440079899631244e-15 0.0000000000000000e+00  1.8224605761982067e-15 -4.2241607454329957e-15 0.0000000000000000e+00  1.1219510881126320e-15 3.4185041943197040e-15 0.0000000000000000e+00  1.6747632943306151e-15 -2.9476376409014928e-15 0.0000000000000000e+00  2.4145619951987314e-15 -1.0556596020668110e-15 0.0000000000000000e+00  6.9322191821384023e-16 3.6890225624175799e-15 0.0000000000000000e+00  1.8837824946678169e-15 2.8423379465153303e-15 0.0000000000000000e+00  2.0822887956061674e-15 4.6524915395006609e-17 0.0000000000000000e+00  6.3937732638780112e-16 -5.2281657703954387e-16 0.0000000000000000e+00  -1.1528976274589957e-15 7.6064915749240248e-16 0.0000000000000000e+00  -1.8290419457134544e-15 6.5035186416509374e-16 0.0000000000000000e+00  -7.9445782311270964e-16 -4.0069879664598349e-15 0.0000000000000000e+00  2.6014307433540551e-15 3.5957227310913570e-15 0.0000000000000000e+00  8.7426863757790332e-16 5.7907484231484614e-15 0.0000000000000000e+00  7.2474394502785241e-16 -5.7078324693240778e-15 0.0000000000000000e+00  3.5558289199009501e-15 1.4557348404696120e-16 0.0000000000000000e+00  9.2927581270435417e-16 1.3371414677009235e-15 0.0000000000000000e+00  1.4300006666338631e-15 1.5808367509786447e-15 0.0000000000000000e+00  1.8260351621029108e-15 3.4795538231438757e-16 0.0000000000000000e+00  1.4363108138711885e-16 -1.6644604164249172e-15 0.0000000000000000e+00  -4.4023916296174951e-16 3.3528977243163570e-16 0.0000000000000000e+00  -2.1170750537822959e-15 3.3374277339065413e-15 0.0000000000000000e+00  -6.3623272675565352e-16 -2.3658407740330534e-15 0.0000000000000000e+00  4.4397645809591943e-15 5.8874753849240445e-15 0.0000000000000000e+00  -5.8980022909557067e-16 1.8287950877114918e-15 0.0000000000000000e+00  -1.1844550253375085e-16 2.8026525660706205e-15 0.0000000000000000e+00  4.5662778455825636e-15 8.8391232921630662e-15 0.0000000000000000e+00  9.4612940729577275e-16 5.4823631351340539e-15 0.0000000000000000e+00  1.1523062467317428e-15 -1.4550867188104952e-16 0.0000000000000000e+00  6.4607982702847059e-16 -1.1954847172144241e-15 0.0000000000000000e+00  9.2657137071826134e-16 -4.2724404650251264e-15 0.0000000000000000e+00  -9.1792628782404216e-16 5.4792869604392280e-15 0.0000000000000000e+00  -2.0133497439129255e-15 -3.6687288473216494e-15 0.0000000000000000e+00  -2.4342570077477834e-16 2.3586755116995084e-15 0.0000000000000000e+00  2.8728773715562777e-15 -1.0372437891296060e-15 0.0000000000000000e+00  2.0925009742635055e-16 -1.5269680203110890e-14 0.0000000000000000e+00  2.7227951510601755e-15 1.3398759867000652e-14 0.0000000000000000e+00  3.8918880072352813e-15 8.2627786334917106e-15 0.0000000000000000e+00  -1.3604875572288001e-15 1.1200998204562458e-14 0.0000000000000000e+00  1.1857372775097654e-15 -2.0291766329114643e-14 0.0000000000000000e+00  1.7815996970384817e-15 1.4198033653612141e-14 0.0000000000000000e+00  1.2011397019001033e-15 3.4074930955169349e-15 0.0000000000000000e+00  -3.6252711667216262e-15 9.5653893974409959e-15 0.0000000000000000e+00  -3.0744034099242755e-15 4.6781235009376035e-15 0.0000000000000000e+00  1.2924870165531655e-16 -3.5441264052646685e-15 0.0000000000000000e+00  6.4152885026887033e-16 -1.0346442689568379e-14 0.0000000000000000e+00  2.3719564746087402e-15 7.8056850752994565e-15 0.0000000000000000e+00  4.4005984902605592e-15 8.1393415016319426e-15 0.0000000000000000e+00  3.7724703300814170e-15 2.6478124617176203e-15 0.0000000000000000e+00  -4.7421040276979622e-15 1.5202497592464058e-14 0.0000000000000000e+00  1.1085720693768399e-15 -2.3563753570190485e-14 0.0000000000000000e+00  4.9605542476922676e-15 1.5785444419534286e-14 0.0000000000000000e+00  -6.3230809789740572e-15 -1.4108917403687900e-14 0.0000000000000000e+00  -2.4095868794829127e-15 -4.2754547951962201e-15 0.0000000000000000e+00  -3.4608591971662343e-15 1.8784795904636248e-15 0.0000000000000000e+00  -3.3173398914973854e-15 -1.0027906305011505e-15 0.0000000000000000e+00  3.9840669112266060e-15 -3.7719903091071238e-15 0.0000000000000000e+00  4.0267379156928400e-15 -6.8528185565904006e-15 0.0000000000000000e+00  2.2583825684241708e-15 -1.6833762771990866e-14 0.0000000000000000e+00  5.3258483044474730e-15 -1.0480456234777343e-14 0.0000000000000000e+00  -5.8776139766904537e-15 -2.0158595307410891e-15 0.0000000000000000e+00  1.3695990465564833e-15 4.6724547610445327e-15 0.0000000000000000e+00  4.1650062552376492e-15 -5.4862153034776518e-15 0.0000000000000000e+00  -1.0787664377898604e-14 -1.4386748379318696e-14 0.0000000000000000e+00  -2.8503207949027910e-15 -1.0512495320170857e-14 0.0000000000000000e+00  -3.5527534159211909e-15 -1.6719781994518292e-14 0.0000000000000000e+00  -1.2845977135771604e-16 -5.6791815906857661e-15 0.0000000000000000e+00  1.1574913722393374e-15 1.7081181480898027e-14 0.0000000000000000e+00  9.3574522740703702e-16 -2.0180540379014842e-14 0.0000000000000000e+00  3.7611952998391344e-15 1.4191736406558140e-14 0.0000000000000000e+00  5.6740746804183395e-15 -5.3245593454919297e-15 0.0000000000000000e+00  -2.7835870973540628e-15 -8.3746384770582724e-15 0.0000000000000000e+00  9.8038277952224026e-16 9.3401950273676886e-15 0.0000000000000000e+00  1.5372750544696586e-15 -8.6791774368926897e-16 0.0000000000000000e+00  -8.3744826177879590e-15 3.2626589393217889e-15 0.0000000000000000e+00  -2.2690348188913270e-15 -2.3676467593798952e-14 0.0000000000000000e+00  -1.7227432346880606e-15 -4.2224200636512968e-16 0.0000000000000000e+00  2.4559956312229163e-15 1.3051540456246073e-16 0.0000000000000000e+00  -1.0347009936313757e-15 -2.0812917674591804e-15 0.0000000000000000e+00  1.8789045943211309e-15 -6.8491612716064569e-15 0.0000000000000000e+00  4.7626896332468649e-15 -2.7967889169785610e-15 0.0000000000000000e+00  2.0808950404590907e-15 4.9945511076241265e-15 0.0000000000000000e+00  -1.3946405257713707e-15 -4.8907148592457165e-15 0.0000000000000000e+00  2.0573355595187349e-15 5.6759095742307802e-16 0.0000000000000000e+00  4.1548874148550042e-16 -4.1159028306145573e-15 0.0000000000000000e+00  -1.0353726227798262e-14 -2.6030343265117412e-14 0.0000000000000000e+00  -4.6412533713023295e-16 -6.8432589342738307e-15 0.0000000000000000e+00  1.0302176548087547e-15 1.2086222001587351e-14 0.0000000000000000e+00  4.1532681513741791e-16 -5.7676162390800678e-15 0.0000000000000000e+00  2.5600106221866635e-15 1.3936608936191722e-14 0.0000000000000000e+00  -2.1293857712637390e-16 1.6323850897393945e-14 0.0000000000000000e+00  6.7771237765013467e-15 -1.4429687395577508e-14 0.0000000000000000e+00  4.4383193731920586e-15 4.6698984528294057e-14 0.0000000000000000e+00  -5.7877669787529303e-15 9.5616094632672359e-15 0.0000000000000000e+00  2.4976771803350084e-15 -1.2889011718065228e-14 0.0000000000000000e+00  -1.9954371087378341e-15 1.1089850187154994e-14 0.0000000000000000e+00  -9.6049286402560997e-15 -1.0501835536799663e-15 0.0000000000000000e+00  2.6597763812952132e-15 2.4390130953994707e-14 0.0000000000000000e+00  -1.5737536900976142e-15 1.2011625821679103e-14 0.0000000000000000e+00  -5.6837821246663671e-16 -1.3415848611981085e-16 0.0000000000000000e+00  4.0385719817756471e-15 -8.2522565460881876e-16 0.0000000000000000e+00  -3.6821221332200020e-15 -3.9176232349405327e-15 0.0000000000000000e+00  1.1840125860874710e-14 -2.2963390453183696e-15 0.0000000000000000e+00  7.6140657620390038e-15 -1.1192526194075561e-15 0.0000000000000000e+00  -1.2081972691548430e-14 1.4179449292565078e-14 0.0000000000000000e+00  2.1293875053856632e-15 -3.0584438046513848e-15 0.0000000000000000e+00  2.2951930244588264e-15 2.6544492330529544e-14 0.0000000000000000e+00  -1.7994005426846570e-14 -2.7264862364698295e-16 0.0000000000000000e+00  -7.0021201999824550e-16 8.9180245018726048e-15 0.0000000000000000e+00  -2.9839559742503865e-15 -2.6900121749182575e-15 0.0000000000000000e+00  8.8879991460341974e-17 1.9155860606723545e-14 0.0000000000000000e+00  2.9186445590316291e-15 -4.4239499527271667e-16 0.0000000000000000e+00  -3.2677289052418294e-15 -1.5181526078963368e-14 0.0000000000000000e+00  6.5763415632759417e-15 -9.5803299719486214e-15 0.0000000000000000e+00  8.0981707951727103e-15 -3.5218022916479374e-14 0.0000000000000000e+00  -6.0580610986379570e-15 3.5846459734032890e-15 0.0000000000000000e+00  1.7546097927477948e-15 3.8252406644103798e-15 0.0000000000000000e+00  8.8849426158924351e-16 1.3454282826107113e-14 0.0000000000000000e+00  -2.8456994103079361e-14 -2.7427991978139694e-14 0.0000000000000000e+00  -3.3680476845817713e-16 -8.7396694088159344e-15 0.0000000000000000e+00  1.6273016887491872e-15 2.9351039022860853e-14 0.0000000000000000e+00  -1.2867439768206966e-15 1.2407612106234969e-14 0.0000000000000000e+00  -5.8193878900577979e-15 -1.6573502335750542e-14 0.0000000000000000e+00  -1.0434941239221931e-15 -7.1161948949962563e-16 0.0000000000000000e+00  6.6186618075908273e-15 1.3481752943530379e-14 0.0000000000000000e+00  9.9290652474304366e-15 5.9834128297945524e-15 0.0000000000000000e+00  -4.5333709734873075e-15 -2.3625734047196315e-14 0.0000000000000000e+00  6.8242625520658048e-15 1.8761439143696694e-14 0.0000000000000000e+00  -3.9907010232945787e-15 2.4228217776877487e-14 0.0000000000000000e+00  -3.5628965615715093e-14 -8.1662315011688867e-15 0.0000000000000000e+00  6.3470778667706182e-15 6.4911271940712843e-15 0.0000000000000000e+00  -2.2058530975952313e-15 1.6327546341993320e-14 0.0000000000000000e+00  -7.9266961847394123e-15 -5.0094038939850917e-14 0.0000000000000000e+00  2.5640426754594114e-15 -1.1511664233419863e-14 0.0000000000000000e+00  2.6085647400889191e-15 -4.0347842464153542e-15 0.0000000000000000e+00  4.7582915411571201e-15 5.0753039436472934e-14 0.0000000000000000e+00  5.6759907633271487e-15 -2.8372259454064390e-14 0.0000000000000000e+00  -7.2024638057473976e-15 -1.5314311614397680e-14 0.0000000000000000e+00  1.0038146246462781e-14 5.5875763871473384e-15 0.0000000000000000e+00  -6.4095961046637983e-15 -3.9561637244184686e-14 0.0000000000000000e+00  -3.3212919797016354e-14 -2.0943065431726219e-14 0.0000000000000000e+00  9.8321449119218825e-15 7.6570821122016301e-16 0.0000000000000000e+00  -7.4453403668353996e-15 -7.5542421964908357e-15 0.0000000000000000e+00  -7.8845022822640661e-15 -2.7796720828553628e-14 0.0000000000000000e+00  8.3850155292578396e-16 -1.1349893533410377e-14 0.0000000000000000e+00  1.1904558813239482e-14 -3.5283373085424877e-14 0.0000000000000000e+00  2.7575058416374221e-15 3.1723801579922701e-14 0.0000000000000000e+00  -4.8779883128466548e-15 -6.6597793493412227e-14 0.0000000000000000e+00  3.6569625115546284e-15 1.3115491363292372e-14 0.0000000000000000e+00  6.2766450327321709e-15 2.1365255474556475e-15 0.0000000000000000e+00  -9.4938625488808805e-15 5.3957100332978420e-15 0.0000000000000000e+00  -2.8112498392274285e-14 5.0726514151589892e-15 0.0000000000000000e+00  6.6757508441020218e-15 1.0217205819075188e-14 0.0000000000000000e+00  -9.4028715309703559e-15 1.2869038003117065e-14 0.0000000000000000e+00  -5.2382666599381884e-15 -2.9411354438876321e-14 0.0000000000000000e+00  2.2623667119973981e-15 1.2296275313193903e-14 0.0000000000000000e+00  8.5977203499463412e-15 4.4320689142424378e-14 0.0000000000000000e+00  -3.1562439082674618e-16 -1.2429756481098027e-14 0.0000000000000000e+00  1.5075424051710075e-15 -4.5942960822659600e-15 0.0000000000000000e+00  7.3844272375464679e-15 2.9952616273030727e-14 0.0000000000000000e+00  3.9504073726207718e-15 -6.9407607672774646e-15 0.0000000000000000e+00  -5.7450103075132657e-15 3.6553180415453540e-14 0.0000000000000000e+00  -3.4054439526129222e-14 1.6759767948409870e-14 0.0000000000000000e+00  7.3032588952590655e-15 -7.3320489362414461e-15 0.0000000000000000e+00  -1.5526868291967194e-14 3.4752292801849236e-14 0.0000000000000000e+00  -8.0675749047425609e-15 -3.5594219582643123e-14 0.0000000000000000e+00  1.3046902754605805e-14 1.0532604374689777e-14 0.0000000000000000e+00  8.8734678507709614e-15 3.6107178006338138e-14 0.0000000000000000e+00  -4.9868202042205605e-15 -1.4928878058708716e-14 0.0000000000000000e+00  -1.8598557405911678e-15 -1.3574768209649727e-14 0.0000000000000000e+00  5.8166129391137691e-15 -6.4451439027987162e-14 0.0000000000000000e+00  9.8136924550330879e-15 3.3823136050319036e-15 0.0000000000000000e+00  -3.1749013130232488e-15 1.0649826289894244e-14 0.0000000000000000e+00  -4.1987962983044262e-14 1.2638153543550022e-14 0.0000000000000000e+00  1.9149404911804182e-14 1.4664677037961910e-14 0.0000000000000000e+00  -1.5843275215063563e-14 1.6372791501045969e-14 0.0000000000000000e+00  -8.1812725148356567e-15 2.1999649771688010e-14 0.0000000000000000e+00  1.4319539718336882e-14 1.6425736423413543e-14 0.0000000000000000e+00  2.4922795083499531e-15 -1.1686525482883523e-14 0.0000000000000000e+00  -7.4139993780414835e-15 2.9464189579310648e-15 0.0000000000000000e+00  -7.0197108493625464e-15 -3.1783431013217963e-14 0.0000000000000000e+00  1.3537536216279928e-14 -1.8887722418712486e-14 0.0000000000000000e+00  1.1405784335754163e-14 -1.5638780408926799e-14 0.0000000000000000e+00  -7.8054910964892372e-15 -2.5041901933236147e-14 0.0000000000000000e+00  -2.7009007129524500e-14 -1.0336453979022396e-14 0.0000000000000000e+00  1.4076240279337450e-14 3.8736635653873981e-14 0.0000000000000000e+00  -1.7719912328571484e-14 -3.1575372221391670e-14 0.0000000000000000e+00  -8.3027198556545512e-15 -7.1239864348179213e-15 0.0000000000000000e+00  8.4884984542382886e-15 -3.8250651329751107e-14 0.0000000000000000e+00  7.7151033089641882e-15 -1.4499305076390440e-15 0.0000000000000000e+00  -1.2288670223186348e-14 -3.7752011988893502e-14 0.0000000000000000e+00  -1.2024149100177454e-14 -3.5249123869827949e-14 0.0000000000000000e+00  1.3909181683701496e-14 -4.3491473521538934e-14 0.0000000000000000e+00  1.4675109924514973e-14 -6.8441604174720471e-14 0.0000000000000000e+00  4.7140818882814262e-15 3.7743738764246130e-14 0.0000000000000000e+00  -2.5535703936341160e-14 3.1778126484096278e-14 0.0000000000000000e+00  7.0597025928777017e-15 2.0311119026193010e-14 0.0000000000000000e+00  -2.1719395393026529e-14 -1.7915475299044246e-14 0.0000000000000000e+00  -9.2023409124197371e-15 -3.3512572637929857e-15 0.0000000000000000e+00  1.5816942767240923e-14 2.4576885085538416e-14 0.0000000000000000e+00  1.1335203866658589e-15 1.0737764791997182e-14 0.0000000000000000e+00  -1.1820426187812737e-14 -5.8430521175961027e-14 0.0000000000000000e+00  -1.4841226556884049e-15 9.2699944257121648e-14 0.0000000000000000e+00  -4.5878588005220549e-16 3.0955885940990618e-15 0.0000000000000000e+00  2.1971831281540871e-14 -2.0594892219485246e-14 0.0000000000000000e+00  7.0773586044154010e-15 9.4687270116728143e-15 0.0000000000000000e+00  -4.2317386765807178e-14 -2.8689357750179645e-14 0.0000000000000000e+00  -8.1421890904543910e-15 -1.6588712237047295e-15 0.0000000000000000e+00  -2.2209915575491316e-14 -2.4108967552175094e-14 0.0000000000000000e+00  1.5511438967829719e-16 2.2799098672404833e-15 0.0000000000000000e+00  8.2039907742015821e-15 5.2489714150997115e-14 0.0000000000000000e+00  -5.9960970709165509e-15 -6.4888657458089846e-14 0.0000000000000000e+00  -9.8849146351382939e-16 -7.4782462965615481e-15 0.0000000000000000e+00  1.1522997142210715e-16 1.8352988011907162e-14 0.0000000000000000e+00  -6.5546533717083054e-15 8.3410971716195517e-16 0.0000000000000000e+00  2.3570498132114874e-14 4.3389366379895835e-14 0.0000000000000000e+00  -1.3288670065929636e-15 2.0222357697224115e-14 0.0000000000000000e+00  -4.6860948539584540e-14 -8.2401480119036125e-14 0.0000000000000000e+00  -6.4536218180606200e-15 3.3057222492069908e-14 0.0000000000000000e+00  -2.4322944720093945e-14 1.8593707656494533e-14 0.0000000000000000e+00  4.3630874141787265e-15 -2.3019173000839540e-14 0.0000000000000000e+00  7.7544170415451372e-15 5.1979003045825756e-14 0.0000000000000000e+00  -1.3902278932774429e-14 -4.3178972476928246e-14 0.0000000000000000e+00  8.0232745218016801e-15 -5.9226355890660726e-15 0.0000000000000000e+00  -5.0279231560036189e-15 3.6261238923264312e-15 0.0000000000000000e+00  4.1246659115869365e-15 7.1931455699728382e-14 0.0000000000000000e+00  2.6356546378636325e-14 -5.7367856905537984e-15 0.0000000000000000e+00  -1.4709932928019927e-14 2.0987514121615218e-14 0.0000000000000000e+00  -5.7435177929595025e-14 2.1953652503286182e-15 0.0000000000000000e+00  -4.1440843055499837e-15 -1.4388543058160174e-14 0.0000000000000000e+00  -2.4061623491288118e-14 1.2996674281616154e-14 0.0000000000000000e+00  2.0723846094035154e-15 5.3109828189656658e-15 0.0000000000000000e+00  4.0381816179024001e-15 -2.3282435090988356e-14 0.0000000000000000e+00  -2.1603508074721956e-14 -1.4553671124310090e-14 0.0000000000000000e+00  1.7261304984147262e-14 -4.3001840624199390e-14 0.0000000000000000e+00  1.4296198513367200e-14 1.5222042272380618e-14 0.0000000000000000e+00  -4.3712362266680814e-15 6.5314396232499932e-14 0.0000000000000000e+00  7.9294349325957798e-15 -6.9064986010477895e-15 0.0000000000000000e+00  3.5697305979424516e-16 -3.5077245470519051e-14 0.0000000000000000e+00  -5.4074297230443840e-14 1.5463675980855181e-14 0.0000000000000000e+00  -9.3110570754955609e-15 -2.1105047652276390e-15 0.0000000000000000e+00  -2.7824635593236020e-14 -1.3077059577431848e-14 0.0000000000000000e+00  6.9580302646893536e-16 -4.3059771436953676e-14 0.0000000000000000e+00  1.0984193782282735e-14 3.9743381919000172e-14 0.0000000000000000e+00  -1.4312077170985815e-14 6.7256007317875203e-15 0.0000000000000000e+00  1.8299861216725558e-15 4.3802278008890463e-14 0.0000000000000000e+00  1.7971381174780106e-14 -1.5886935653261135e-14 0.0000000000000000e+00  6.8550725331447046e-16 2.7235624596504115e-15 0.0000000000000000e+00  8.6395375451134102e-15 4.0028988090430167e-14 0.0000000000000000e+00  -9.1451135089728244e-15 3.1304848582502833e-14 0.0000000000000000e+00  -6.8936310254265624e-14 -4.7484715341095207e-14 0.0000000000000000e+00  -3.9267881481632687e-15 3.9926487066928829e-14 0.0000000000000000e+00  -3.1998429370863051e-14 7.3102626926605403e-14 0.0000000000000000e+00  1.2656803491050877e-14 -7.6153665471234782e-15 0.0000000000000000e+00  -1.7255963531040453e-15 1.7866933851534475e-14 0.0000000000000000e+00  -1.7959053086923236e-14 -4.5194338293267059e-14 0.0000000000000000e+00  1.4118826870078296e-14 -1.0077298909508513e-14 0.0000000000000000e+00  1.3820522397290634e-14 7.3893082570670992e-14 0.0000000000000000e+00  -1.1038968880219889e-15 -5.7681028430423654e-15 0.0000000000000000e+00  1.2293202307175321e-14 9.5364273706907147e-15 0.0000000000000000e+00  -1.4854517921349156e-14 -1.7343762436360041e-14 0.0000000000000000e+00  -8.3018998040761528e-14 -1.5142642386738314e-14 0.0000000000000000e+00  8.5551992784075707e-15 -7.5971595891861199e-14 0.0000000000000000e+00  -3.4146883947620113e-14 -1.6149775928574756e-14 0.0000000000000000e+00  -6.6465507055429262e-15 -1.0426692217949003e-14 0.0000000000000000e+00  1.2119410419656951e-14 -5.6895702416498761e-14 0.0000000000000000e+00  -1.5703672438219279e-14 5.0822521657630068e-14 0.0000000000000000e+00  2.1655964549165207e-14 6.8351225376726734e-15 0.0000000000000000e+00  1.7395113255297493e-14 1.1050147265397532e-13 0.0000000000000000e+00  -1.4110084860446907e-14 -1.8927878045801366e-14 0.0000000000000000e+00  7.0942590425793768e-15 1.6444203230426587e-14 0.0000000000000000e+00  -1.2460746849499347e-14 -8.6401612962824642e-14 0.0000000000000000e+00  -5.9084619431804657e-14 4.4051429263631055e-14 0.0000000000000000e+00  -8.9939504800695267e-16 -3.8295364283046265e-14 0.0000000000000000e+00  -2.1109494583989542e-14 -4.2252013961702520e-14 0.0000000000000000e+00  -1.9770918323021170e-15 5.2558597354464308e-15 0.0000000000000000e+00  8.4270966473234823e-15 -1.3298310809714736e-14 0.0000000000000000e+00  -9.4596521865098389e-15 2.9563309977958860e-14 0.0000000000000000e+00  2.7366448687072