<?xml version="1.0"?>
<VTKFile type="UnstructuredGrid"  version="0.1"  >
<UnstructuredGrid>
<Piece  NumberOfPoints="431" NumberOfCells="800">
<Points>
<DataArray  type="Float64"  NumberOfComponents="3"  format="ascii">-0.25 -1 0  -0.2 -1 0  -0.15 -1 0  -0.1 -1 0  -0.04999999999999999 -1 0  0 -1 0  0.04999999999999999 -1 0  0.09999999999999998 -1 0  0.15 -1 0  0.2 -1 0  0.25 -1 0  -0.25 -0.95 0  -0.2 -0.95 0  -0.15 -0.95 0  -0.1 -0.95 0  -0.04999999999999999 -0.95 0  0 -0.95 0  0.04999999999999999 -0.95 0  0.09999999999999998 -0.95 0  0.15 -0.95 0  0.2 -0.95 0  0.25 -0.95 0  -0.25 -0.9 0  -0.2 -0.9 0  -0.15 -0.9 0  -0.1 -0.9 0  -0.04999999999999999 -0.9 0  0 -0.9 0  0.04999999999999999 -0.9 0  0.09999999999999998 -0.9 0  0.15 -0.9 0  0.2 -0.9 0  0.25 -0.9 0  -0.25 -0.85 0  -0.2 -0.85 0  -0.15 -0.85 0  -0.1 -0.85 0  -0.04999999999999999 -0.85 0  0 -0.85 0  0.04999999999999999 -0.85 0  0.09999999999999998 -0.85 0  0.15 -0.85 0  0.2 -0.85 0  0.25 -0.85 0  -0.25 -0.8 0  -0.2 -0.8 0  -0.15 -0.8 0  -0.1 -0.8 0  -0.04999999999999999 -0.8 0  0 -0.8 0  0.04999999999999999 -0.8 0  0.09999999999999998 -0.8 0  0.15 -0.8 0  0.2 -0.8 0  0.25 -0.8 0  -0.25 -0.75 0  -0.2 -0.75 0  -0.15 -0.75 0  -0.1 -0.75 0  -0.04999999999999999 -0.75 0  0 -0.75 0  0.04999999999999999 -0.75 0  0.09999999999999998 -0.75 0  0.15 -0.75 0  0.2 -0.75 0  0.25 -0.75 0  -0.25 -0.7 0  -0.2 -0.7 0  -0.15 -0.7 0  -0.1 -0.7 0  -0.04999999999999999 -0.7 0  0 -0.7 0  0.04999999999999999 -0.7 0  0.09999999999999998 -0.7 0  0.15 -0.7 0  0.2 -0.7 0  0.25 -0.7 0  -0.25 -0.65 0  -0.2 -0.65 0  -0.15 -0.65 0  -0.1 -0.65 0  -0.04999999999999999 -0.65 0  0 -0.65 0  0.04999999999999999 -0.65 0  0.09999999999999998 -0.65 0  0.15 -0.65 0  0.2 -0.65 0  0.25 -0.65 0  -0.25 -0.6 0  -0.2 -0.6 0  -0.15 -0.6 0  -0.1 -0.6 0  -0.04999999999999999 -0.6 0  0 -0.6 0  0.04999999999999999 -0.6 0  0.09999999999999998 -0.6 0  0.15 -0.6 0  0.2 -0.6 0  0.25 -0.6 0  -0.25 -0.55 0  -0.2 -0.55 0  -0.15 -0.55 0  -0.1 -0.55 0  -0.04999999999999999 -0.55 0  0 -0.55 0  0.04999999999999999 -0.55 0  0.09999999999999998 -0.55 0  0.15 -0.55 0  0.2 -0.55 0  0.25 -0.55 0  -0.25 -0.5 0  -0.2 -0.5 0  -0.15 -0.5 0  -0.1 -0.5 0  -0.04999999999999999 -0.5 0  0 -0.5 0  0.04999999999999999 -0.5 0  0.09999999999999998 -0.5 0  0.15 -0.5 0  0.2 -0.5 0  0.25 -0.5 0  -0.25 -0.45 0  -0.2 -0.45 0  -0.15 -0.45 0  -0.1 -0.45 0  -0.04999999999999999 -0.45 0  0 -0.45 0  0.04999999999999999 -0.45 0  0.09999999999999998 -0.45 0  0.15 -0.45 0  0.2 -0.45 0  0.25 -0.45 0  -0.25 -0.4 0  -0.2 -0.4 0  -0.15 -0.4 0  -0.1 -0.4 0  -0.04999999999999999 -0.4 0  0 -0.4 0  0.04999999999999999 -0.4 0  0.09999999999999998 -0.4 0  0.15 -0.4 0  0.2 -0.4 0  0.25 -0.4 0  -0.25 -0.35 0  -0.2 -0.35 0  -0.15 -0.35 0  -0.1 -0.35 0  -0.04999999999999999 -0.35 0  0 -0.35 0  0.04999999999999999 -0.35 0  0.09999999999999998 -0.35 0  0.15 -0.35 0  0.2 -0.35 0  0.25 -0.35 0  -0.25 -0.3 0  -0.2 -0.3 0  -0.15 -0.3 0  -0.1 -0.3 0  -0.04999999999999999 -0.3 0  0 -0.3 0  0.04999999999999999 -0.3 0  0.09999999999999998 -0.3 0  0.15 -0.3 0  0.2 -0.3 0  0.25 -0.3 0  -0.25 -0.25 0  -0.2 -0.25 0  -0.15 -0.25 0  -0.1 -0.25 0  -0.04999999999999999 -0.25 0  0 -0.25 0  0.04999999999999999 -0.25 0  0.09999999999999998 -0.25 0  0.15 -0.25 0  0.2 -0.25 0  0.25 -0.25 0  -0.25 -0.2 0  -0.2 -0.2 0  -0.15 -0.2 0  -0.1 -0.2 0  -0.04999999999999999 -0.2 0  0 -0.2 0  0.04999999999999999 -0.2 0  0.09999999999999998 -0.2 0  0.15 -0.2 0  0.2 -0.2 0  0.25 -0.2 0  -0.25 -0.15 0  -0.2 -0.15 0  -0.15 -0.15 0  -0.1 -0.15 0  -0.04999999999999999 -0.15 0  0 -0.15 0  0.04999999999999999 -0.15 0  0.09999999999999998 -0.15 0  0.15 -0.15 0  0.2 -0.15 0  0.25 -0.15 0  -0.25 -0.09999999999999998 0  -0.2 -0.09999999999999998 0  -0.15 -0.09999999999999998 0  -0.1 -0.09999999999999998 0  -0.04999999999999999 -0.09999999999999998 0  0 -0.09999999999999998 0  0.04999999999999999 -0.09999999999999998 0  0.09999999999999998 -0.09999999999999998 0  0.15 -0.09999999999999998 0  0.2 -0.09999999999999998 0  0.25 -0.09999999999999998 0  -0.25 -0.05000000000000004 0  -0.2 -0.05000000000000004 0  -0.15 -0.05000000000000004 0  -0.1 -0.05000000000000004 0  -0.04999999999999999 -0.05000000000000004 0  0 -0.05000000000000004 0  0.04999999999999999 -0.05000000000000004 0  0.09999999999999998 -0.05000000000000004 0  0.15 -0.05000000000000004 0  0.2 -0.05000000000000004 0  0.25 -0.05000000000000004 0  -0.25 0 0  -0.2 0 0  -0.15 0 0  -0.1 0 0  -0.04999999999999999 0 0  0 0 0  0.04999999999999999 0 0  0.09999999999999998 0 0  0.15 0 0  0.2 0 0  0.25 0 0  -0.225 -0.975 0  -0.175 -0.975 0  -0.125 -0.975 0  -0.07500000000000001 -0.975 0  -0.02499999999999999 -0.975 0  0.02500000000000002 -0.975 0  0.07500000000000001 -0.975 0  0.125 -0.975 0  0.175 -0.975 0  0.225 -0.975 0  -0.225 -0.925 0  -0.175 -0.925 0  -0.125 -0.925 0  -0.07500000000000001 -0.925 0  -0.02499999999999999 -0.925 0  0.02500000000000002 -0.925 0  0.07500000000000001 -0.925 0  0.125 -0.925 0  0.175 -0.925 0  0.225 -0.925 0  -0.225 -0.875 0  -0.175 -0.875 0  -0.125 -0.875 0  -0.07500000000000001 -0.875 0  -0.02499999999999999 -0.875 0  0.02500000000000002 -0.875 0  0.07500000000000001 -0.875 0  0.125 -0.875 0  0.175 -0.875 0  0.225 -0.875 0  -0.225 -0.825 0  -0.175 -0.825 0  -0.125 -0.825 0  -0.07500000000000001 -0.825 0  -0.02499999999999999 -0.825 0  0.02500000000000002 -0.825 0  0.07500000000000001 -0.825 0  0.125 -0.825 0  0.175 -0.825 0  0.225 -0.825 0  -0.225 -0.775 0  -0.175 -0.775 0  -0.125 -0.775 0  -0.07500000000000001 -0.775 0  -0.02499999999999999 -0.775 0  0.02500000000000002 -0.775 0  0.07500000000000001 -0.775 0  0.125 -0.775 0  0.175 -0.775 0  0.225 -0.775 0  -0.225 -0.725 0  -0.175 -0.725 0  -0.125 -0.725 0  -0.07500000000000001 -0.725 0  -0.02499999999999999 -0.725 0  0.02500000000000002 -0.725 0  0.07500000000000001 -0.725 0  0.125 -0.725 0  0.175 -0.725 0  0.225 -0.725 0  -0.225 -0.675 0  -0.175 -0.675 0  -0.125 -0.675 0  -0.07500000000000001 -0.675 0  -0.02499999999999999 -0.675 0  0.02500000000000002 -0.675 0  0.07500000000000001 -0.675 0  0.125 -0.675 0  0.175 -0.675 0  0.225 -0.675 0  -0.225 -0.625 0  -0.175 -0.625 0  -0.125 -0.625 0  -0.07500000000000001 -0.625 0  -0.02499999999999999 -0.625 0  0.02500000000000002 -0.625 0  0.07500000000000001 -0.625 0  0.125 -0.625 0  0.175 -0.625 0  0.225 -0.625 0  -0.225 -0.575 0  -0.175 -0.575 0  -0.125 -0.575 0  -0.07500000000000001 -0.575 0  -0.02499999999999999 -0.575 0  0.02500000000000002 -0.575 0  0.07500000000000001 -0.575 0  0.125 -0.575 0  0.175 -0.575 0  0.225 -0.575 0  -0.225 -0.525 0  -0.175 -0.525 0  -0.125 -0.525 0  -0.07500000000000001 -0.525 0  -0.02499999999999999 -0.525 0  0.02500000000000002 -0.525 0  0.07500000000000001 -0.525 0  0.125 -0.525 0  0.175 -0.525 0  0.225 -0.525 0  -0.225 -0.475 0  -0.175 -0.475 0  -0.125 -0.475 0  -0.07500000000000001 -0.475 0  -0.02499999999999999 -0.475 0  0.02500000000000002 -0.475 0  0.07500000000000001 -0.475 0  0.125 -0.475 0  0.175 -0.475 0  0.225 -0.475 0  -0.225 -0.425 0  -0.175 -0.425 0  -0.125 -0.425 0  -0.07500000000000001 -0.425 0  -0.02499999999999999 -0.425 0  0.02500000000000002 -0.425 0  0.07500000000000001 -0.425 0  0.125 -0.425 0  0.175 -0.425 0  0.225 -0.425 0  -0.225 -0.375 0  -0.175 -0.375 0  -0.125 -0.375 0  -0.07500000000000001 -0.375 0  -0.02499999999999999 -0.375 0  0.02500000000000002 -0.375 0  0.07500000000000001 -0.375 0  0.125 -0.375 0  0.175 -0.375 0  0.225 -0.375 0  -0.225 -0.325 0  -0.175 -0.325 0  -0.125 -0.325 0  -0.07500000000000001 -0.325 0  -0.02499999999999999 -0.325 0  0.02500000000000002 -0.325 0  0.07500000000000001 -0.325 0  0.125 -0.325 0  0.175 -0.325 0  0.225 -0.325 0  -0.225 -0.275 0  -0.175 -0.275 0  -0.125 -0.275 0  -0.07500000000000001 -0.275 0  -0.02499999999999999 -0.275 0  0.02500000000000002 -0.275 0  0.07500000000000001 -0.275 0  0.125 -0.275 0  0.175 -0.275 0  0.225 -0.275 0  -0.225 -0.225 0  -0.175 -0.225 0  -0.125 -0.225 0  -0.07500000000000001 -0.225 0  -0.02499999999999999 -0.225 0  0.02500000000000002 -0.225 0  0.07500000000000001 -0.225 0  0.125 -0.225 0  0.175 -0.225 0  0.225 -0.225 0  -0.225 -0.175 0  -0.175 -0.175 0  -0.125 -0.175 0  -0.07500000000000001 -0.175 0  -0.02499999999999999 -0.175 0  0.02500000000000002 -0.175 0  0.07500000000000001 -0.175 0  0.125 -0.175 0  0.175 -0.175 0  0.225 -0.175 0  -0.225 -0.125 0  -0.175 -0.125 0  -0.125 -0.125 0  -0.07500000000000001 -0.125 0  -0.02499999999999999 -0.125 0  0.02500000000000002 -0.125 0  0.07500000000000001 -0.125 0  0.125 -0.125 0  0.175 -0.125 0  0.225 -0.125 0  -0.225 -0.07499999999999996 0  -0.175 -0.07499999999999996 0  -0.125 -0.07499999999999996 0  -0.07500000000000001 -0.07499999999999996 0  -0.02499999999999999 -0.07499999999999996 0  0.02500000000000002 -0.07499999999999996 0  0.07500000000000001 -0.07499999999999996 0  0.125 -0.07499999999999996 0  0.175 -0.07499999999999996 0  0.225 -0.07499999999999996 0  -0.225 -0.02500000000000002 0  -0.175 -0.02500000000000002 0  -0.125 -0.02500000000000002 0  -0.07500000000000001 -0.02500000000000002 0  -0.02499999999999999 -0.02500000000000002 0  0.02500000000000002 -0.02500000000000002 0  0.07500000000000001 -0.02500000000000002 0  0.125 -0.02500000000000002 0  0.175 -0.02500000000000002 0  0.225 -0.02500000000000002 0  </DataArray>
</Points>
<Cells>
[...]
<PointData  Vectors="flow"> 
<DataArray  type="Float64"  Name="flow"  NumberOfComponents="3" format="ascii">-6.1268512820549947e-01 1.2254225181406464e+00 0.0000000000000000e+00  1.1808948461839069e-04 1.2254225181450817e+00 0.0000000000000000e+00  -2.2763290690849875e-08 1.2254225181388618e+00 0.0000000000000000e+00  -7.7054377822076789e-13 1.2254225181430907e+00 0.0000000000000000e+00  -4.2838319837228933e-12 1.2254225181461247e+00 0.0000000000000000e+00  -1.0373212297201999e-11 1.2254225181442648e+00 0.0000000000000000e+00  -9.4118368861008618e-12 1.2254225181535576e+00 0.0000000000000000e+00  -3.2281495988567386e-12 1.2254225181427980e+00 0.0000000000000000e+00  2.2762144337150343e-08 1.2254225181409248e+00 0.0000000000000000e+00  -1.1808948682176820e-04 1.2254225181394942e+00 0.0000000000000000e+00  6.1268512820094367e-01 1.2254225181462299e+00 0.0000000000000000e+00  -6.1079642454613126e-01 3.6719654573543559e+00 0.0000000000000000e+00  1.1772545436788002e-04 3.6719654573531120e+00 0.0000000000000000e+00  -2.2694105185118430e-08 3.6719654573530911e+00 0.0000000000000000e+00  3.3359677189978554e-12 3.6719654573566682e+00 0.0000000000000000e+00  -4.7532590935886489e-12 3.6719654573625231e+00 0.0000000000000000e+00  -7.3612644552837897e-12 3.6719654573531293e+00 0.0000000000000000e+00  -8.5771999979215846e-12 3.6719654573599740e+00 0.0000000000000000e+00  -9.4969271186522487e-12 3.6719654573552920e+00 0.0000000000000000e+00  2.2689588638646634e-08 3.6719654573557676e+00 0.0000000000000000e+00  -1.1772545437673066e-04 3.6719654573535361e+00 0.0000000000000000e+00  6.1079642455342664e-01 3.6719654573547826e+00 0.0000000000000000e+00  -6.0514195806957150e-01 7.3212920280725839e+00 0.0000000000000000e+00  1.1663560728076269e-04 7.3212920280722456e+00 0.0000000000000000e+00  -2.2480339693581281e-08 7.3212920280738594e+00 0.0000000000000000e+00  8.8085190778693122e-12 7.3212920280763294e+00 0.0000000000000000e+00  -9.3452340096395901e-12 7.3212920280703733e+00 0.0000000000000000e+00  -1.1610493676320485e-11 7.3212920280733851e+00 0.0000000000000000e+00  -6.7455075332786407e-12 7.3212920280724472e+00 0.0000000000000000e+00  -9.7455635309002284e-12 7.3212920280713627e+00 0.0000000000000000e+00  2.2481976791493035e-08 7.3212920280691671e+00 0.0000000000000000e+00  -1.1663561155567238e-04 7.3212920280730005e+00 0.0000000000000000e+00  6.0514195806640791e-01 7.3212920280717180e+00 0.0000000000000000e+00  -5.9575659039750972e-01 1.0925480401692914e+01 0.0000000000000000e+00  1.1482666593092102e-04 1.0925480401697586e+01 0.0000000000000000e+00  -2.2130132607632382e-08 1.0925480401700309e+01 0.0000000000000000e+00  -7.4703782804298651e-13 1.0925480401697817e+01 0.0000000000000000e+00  -5.2960202380729502e-12 1.0925480401695882e+01 0.0000000000000000e+00  -8.8543638880435817e-12 1.0925480401701455e+01 0.0000000000000000e+00  -9.8479981599102116e-12 1.0925480401694589e+01 0.0000000000000000e+00  -1.2927105821084807e-11 1.0925480401696358e+01 0.0000000000000000e+00  2.2133607248136395e-08 1.0925480401694672e+01 0.0000000000000000e+00  -1.1482666340523860e-04 1.0925480401692949e+01 0.0000000000000000e+00  5.9575659040204465e-01 1.0925480401688027e+01 0.0000000000000000e+00  -5.8269818542830232e-01 1.4462309559621273e+01 0.0000000000000000e+00  1.1230978116114952e-04 1.4462309559619534e+01 0.0000000000000000e+00  -2.1643649119644458e-08 1.4462309559623254e+01 0.0000000000000000e+00  2.4978407315037724e-12 1.4462309559617884e+01 0.0000000000000000e+00  -4.3934131052748101e-12 1.4462309559623650e+01 0.0000000000000000e+00  -1.3012394464049588e-11 1.4462309559619788e+01 0.0000000000000000e+00  -8.5224191170880141e-12 1.4462309559619646e+01 0.0000000000000000e+00  -1.0747702033315709e-11 1.4462309559615511e+01 0.0000000000000000e+00  2.1644083559116157e-08 1.4462309559606307e+01 0.0000000000000000e+00  -1.1230978819136581e-04 1.4462309559604513e+01 0.0000000000000000e+00  5.8269818542529850e-01 1.4462309559606167e+01 0.0000000000000000e+00  -5.6604725252935284e-01 1.7909973774963884e+01 0.0000000000000000e+00  1.0910046779567138e-04 1.7909973774968794e+01 0.0000000000000000e+00  -2.1029824777461913e-08 1.7909973774960331e+01 0.0000000000000000e+00  -4.0200400892347403e-12 1.7909973774960715e+01 0.0000000000000000e+00  -5.2842309630183780e-13 1.7909973774957443e+01 0.0000000000000000e+00  -1.4817132982057480e-11 1.7909973774963245e+01 0.0000000000000000e+00  -1.7933775864122396e-11 1.7909973774956132e+01 0.0000000000000000e+00  -2.5098302776483196e-11 1.7909973774947620e+01 0.0000000000000000e+00  2.1018926296661998e-08 1.7909973774945364e+01 0.0000000000000000e+00  -1.0910045614887061e-04 1.7909973774946639e+01 0.0000000000000000e+00  5.6604725253817212e-01 1.7909973774956956e+01 0.0000000000000000e+00  -5.4590645017394523e-01 2.1247217052086089e+01 0.0000000000000000e+00  1.0521850799476597e-04 2.1247217052086757e+01 0.0000000000000000e+00  -2.0284209915761676e-08 2.1247217052076184e+01 0.0000000000000000e+00  2.0193537801629843e-12 2.1247217052091482e+01 0.0000000000000000e+00  -3.8678215673237499e-12 2.1247217052090150e+01 0.0000000000000000e+00  -1.3173728058107181e-11 2.1247217052079510e+01 0.0000000000000000e+00  -1.9864714309952205e-11 2.1247217052083634e+01 0.0000000000000000e+00  -1.8359717775271113e-11 2.1247217052089191e+01 0.0000000000000000e+00  2.0271550014777314e-08 2.1247217052101625e+01 0.0000000000000000e+00  -1.0521850978071842e-04 2.1247217052083091e+01 0.0000000000000000e+00  5.4590645018040995e-01 2.1247217052077566e+01 0.0000000000000000e+00  -5.2239995306775155e-01 2.4453464176847962e+01 0.0000000000000000e+00  1.0068784310318649e-04 2.4453464176848211e+01 0.0000000000000000e+00  -1.9405630204222644e-08 2.4453464176859587e+01 0.0000000000000000e+00  9.9312138814103818e-12 2.4453464176861441e+01 0.0000000000000000e+00  -1.3624387212484580e-11 2.4453464176861345e+01 0.0000000000000000e+00  -2.3187988232952925e-11 2.4453464176854613e+01 0.0000000000000000e+00  -1.2789282245097702e-11 2.4453464176853359e+01 0.0000000000000000e+00  -6.5093878464642641e-12 2.4453464176849234e+01 0.0000000000000000e+00  1.9391611401907566e-08 2.4453464176848524e+01 0.0000000000000000e+00  -1.0068785774485536e-04 2.4453464176851362e+01 0.0000000000000000e+00  5.2239995307574549e-01 2.4453464176850140e+01 0.0000000000000000e+00  -4.9567268650536933e-01 2.7508947569573088e+01 0.0000000000000000e+00  9.5536422421479633e-05 2.7508947569574079e+01 0.0000000000000000e+00  -1.8404991733285954e-08 2.7508947569587928e+01 0.0000000000000000e+00  3.6724116399928197e-12 2.7508947569587164e+01 0.0000000000000000e+00  -7.9164532757276755e-12 2.7508947569588706e+01 0.0000000000000000e+00  -1.8091070406335819e-11 2.7508947569595989e+01 0.0000000000000000e+00  -2.0122268281473023e-11 2.7508947569596600e+01 0.0000000000000000e+00  -2.3811782647027403e-11 2.7508947569595644e+01 0.0000000000000000e+00  1.8408097477893173e-08 2.7508947569584379e+01 0.0000000000000000e+00  -9.5536414345294974e-05 2.7508947569597396e+01 0.0000000000000000e+00  4.9567268650964497e-01 2.7508947569589896e+01 0.0000000000000000e+00  -4.6588943293992946e-01 3.0394829158858204e+01 0.0000000000000000e+00  8.9795960721205826e-05 3.0394829158855089e+01 0.0000000000000000e+00  -1.7287767304248842e-08 3.0394829158836572e+01 0.0000000000000000e+00  7.7736464484011835e-12 3.0394829158844207e+01 0.0000000000000000e+00  -5.0414013813146288e-12 3.0394829158840864e+01 0.0000000000000000e+00  -1.6977487270890095e-11 3.0394829158845749e+01 0.0000000000000000e+00  -2.0893785136145553e-11 3.0394829158838867e+01 0.0000000000000000e+00  -1.3894083140012421e-11 3.0394829158833577e+01 0.0000000000000000e+00  1.7284151029609039e-08 3.0394829158834678e+01 0.0000000000000000e+00  -8.9795957897849287e-05 3.0394829158833126e+01 0.0000000000000000e+00  4.6588943292405555e-01 3.0394829158838153e+01 0.0000000000000000e+00  -4.3323381601594996e-01 3.3093316524394773e+01 0.0000000000000000e+00  8.3501933899369159e-05 3.3093316524393103e+01 0.0000000000000000e+00  -1.6134942979791879e-08 3.3093316524383532e+01 0.0000000000000000e+00  3.6765395995491262e-11 3.3093316524386033e+01 0.0000000000000000e+00  -3.0552178146310632e-11 3.3093316524372760e+01 0.0000000000000000e+00  -1.6503262187281168e-11 3.3093316524366145e+01 0.0000000000000000e+00  -2.1944013653776424e-11 3.3093316524360517e+01 0.0000000000000000e+00  -4.6094914219528189e-11 3.3093316524358507e+01 0.0000000000000000e+00  1.6135608456821092e-08 3.3093316524375325e+01 0.0000000000000000e+00  -8.3501938949642388e-05 3.3093316524378679e+01 0.0000000000000000e+00  4.3323381602598254e-01 3.3093316524378260e+01 0.0000000000000000e+00  -3.9790716791444880e-01 3.5587772593324551e+01 0.0000000000000000e+00  7.6692666087121972e-05 3.5587772593323173e+01 0.0000000000000000e+00  -1.4528713749215680e-08 3.5587772593329888e+01 0.0000000000000000e+00  -1.6384782721822953e-10 3.5587772593315457e+01 0.0000000000000000e+00  6.0688824055018334e-11 3.5587772593310397e+01 0.0000000000000000e+00  -2.0564555302160949e-11 3.5587772593330094e+01 0.0000000000000000e+00  -1.0745118689869220e-10 3.5587772593322121e+01 0.0000000000000000e+00  1.5262122958771339e-10 3.5587772593333824e+01 0.0000000000000000e+00  1.4522945948713569e-08 3.5587772593326285e+01 0.0000000000000000e+00  -7.6692678169345988e-05 3.5587772593308529e+01 0.0000000000000000e+00  3.9790716791188735e-01 3.5587772593319933e+01 0.0000000000000000e+00  -3.6012729255887127e-01 3.7862818213357208e+01 0.0000000000000000e+00  6.9413270714075364e-05 3.7862818213353741e+01 0.0000000000000000e+00  -1.4883324760704880e-08 3.7862818213367973e+01 0.0000000000000000e+00  9.1797412074777421e-10 3.7862818213361500e+01 0.0000000000000000e+00  -4.2756941602411214e-10 3.7862818213360555e+01 0.0000000000000000e+00  -1.0015386211923302e-11 3.7862818213364434e+01 0.0000000000000000e+00  3.9078877194073803e-10 3.7862818213370780e+01 0.0000000000000000e+00  -9.3403224450620471e-10 3.7862818213382916e+01 0.0000000000000000e+00  1.4864879346788445e-08 3.7862818213364982e+01 0.0000000000000000e+00  -6.9413273422607615e-05 3.7862818213361493e+01 0.0000000000000000e+00  3.6012729258185189e-01 3.7862818213354743e+01 0.0000000000000000e+00  -3.2012709398030903e-01 3.9904426970378950e+01 0.0000000000000000e+00  6.1689265143706007e-05 3.9904426970391981e+01 0.0000000000000000e+00  -2.9435364893486621e-09 3.9904426970376541e+01 0.0000000000000000e+00  -5.1931735418642060e-09 3.9904426970369343e+01 0.0000000000000000e+00  2.1858586747682874e-09 3.9904426970396550e+01 0.0000000000000000e+00  -1.5580410862066154e-11 3.9904426970382694e+01 0.0000000000000000e+00  -2.2033001473272145e-09 3.9904426970384229e+01 0.0000000000000000e+00  5.1546060840463791e-09 3.9904426970388464e+01 0.0000000000000000e+00  2.9226586143528905e-09 3.9904426970385245e+01 0.0000000000000000e+00  -6.1689274980745082e-05 3.9904426970390233e+01 0.0000000000000000e+00  3.2012709397594558e-01 3.9904426970375937e+01 0.0000000000000000e+00  -2.7815332145621841e-01 4.1700011666031024e+01 0.0000000000000000e+00  5.3688067686185112e-05 4.1700011666027727e+01 0.0000000000000000e+00  -6.2925046401371761e-08 4.1700011666022156e+01 0.0000000000000000e+00  2.7870426557184481e-08 4.1700011666016493e+01 0.0000000000000000e+00  -1.0641415055699033e-08 4.1700011666023890e+01 0.0000000000000000e+00  -2.0785670600887156e-11 4.1700011666028182e+01 0.0000000000000000e+00  1.0639596254914410e-08 4.1700011666041078e+01 0.0000000000000000e+00  -2.7872874818324242e-08 4.1700011666028693e+01 0.0000000000000000e+00  6.2884142442444465e-08 4.1700011666040147e+01 0.0000000000000000e+00  -5.3688091225265784e-05 4.1700011666030179e+01 0.0000000000000000e+00  2.7815332147311789e-01 4.1700011666035188e+01 0.0000000000000000e+00  -2.3446389808050358e-01 4.3238501922133828e+01 0.0000000000000000e+00  4.4712253038679285e-05 4.3238501922133963e+01 0.0000000000000000e+00  2.9529552070509331e-07 4.3238501922135420e+01 0.0000000000000000e+00  -1.4124397247813321e-07 4.3238501922152700e+01 0.0000000000000000e+00  4.5766089733158367e-08 4.3238501922142618e+01 0.0000000000000000e+00  -1.1816395002791406e-11 4.3238501922131668e+01 0.0000000000000000e+00  -4.5794797762002147e-08 4.3238501922112476e+01 0.0000000000000000e+00  1.4122638830206934e-07 4.3238501922092418e+01 0.0000000000000000e+00  -2.9531681758696040e-07 4.3238501922114281e+01 0.0000000000000000e+00  -4.4712260350064486e-05 4.3238501922146348e+01 0.0000000000000000e+00  2.3446389806343459e-01 4.3238501922158143e+01 0.0000000000000000e+00  -1.8933376990381096e-01 4.4510412433235956e+01 0.0000000000000000e+00  3.9511574442594317e-05 4.4510412433248483e+01 0.0000000000000000e+00  -1.7086718324535361e-06 4.4510412433244184e+01 0.0000000000000000e+00  6.3994720687960712e-07 4.4510412433221035e+01 0.0000000000000000e+00  -1.5487431554147531e-07 4.4510412433190680e+01 0.0000000000000000e+00  -1.6728207961804311e-11 4.4510412433199114e+01 0.0000000000000000e+00  1.5481927753125044e-07 4.4510412433218157e+01 0.0000000000000000e+00  -6.3994656298797947e-07 4.4510412433258182e+01 0.0000000000000000e+00  1.7086727415011256e-06 4.4510412433272627e+01 0.0000000000000000e+00  -3.9511570921864650e-05 4.4510412433249265e+01 0.0000000000000000e+00  1.8933376992794890e-01 4.4510412433244419e+01 0.0000000000000000e+00  -1.4300375040108679e-01 4.5507901446815914e+01 0.0000000000000000e+00  8.3336808477752393e-06 4.5507901446797959e+01 0.0000000000000000e+00  8.8119273362215918e-06 4.5507901446800183e+01 0.0000000000000000e+00  -2.2297418241446738e-06 4.5507901446821776e+01 0.0000000000000000e+00  2.9665973236487590e-07 4.5507901446851093e+01 0.0000000000000000e+00  -6.4468819329293735e-12 4.5507901446828519e+01 0.0000000000000000e+00  -2.9667567938981513e-07 4.5507901446842155e+01 0.0000000000000000e+00  2.2297442854664467e-06 4.5507901446835191e+01 0.0000000000000000e+00  -8.8119541851342181e-06 4.5507901446825407e+01 0.0000000000000000e+00  -8.3336969027987016e-06 4.5507901446830040e+01 0.0000000000000000e+00  1.4300375041065977e-01 4.5507901446831156e+01 0.0000000000000000e+00  -9.6023775161399746e-02 4.6224819110248291e+01 0.0000000000000000e+00  1.4123026683953143e-04 4.6224819110252241e+01 0.0000000000000000e+00  -3.5796264014299681e-05 4.6224819110280954e+01 0.0000000000000000e+00  2.5508340895907514e-06 4.6224819110260931e+01 0.0000000000000000e+00  -1.7355423741191626e-07 4.6224819110270410e+01 0.0000000000000000e+00  -1.6765375541886875e-11 4.6224819110287633e+01 0.0000000000000000e+00  1.7352711899338936e-07 4.6224819110263077e+01 0.0000000000000000e+00  -2.5508293293348641e-06 4.6224819110242116e+01 0.0000000000000000e+00  3.5796276456976080e-05 4.6224819110247594e+01 0.0000000000000000e+00  -1.4123027757520384e-04 4.6224819110265024e+01 0.0000000000000000e+00  9.6023775146608023e-02 4.6224819110251268e+01 0.0000000000000000e+00  -4.6591230721545425e-02 4.6656745387001948e+01 0.0000000000000000e+00  -7.2356424959955804e-04 4.6656745386996320e+01 0.0000000000000000e+00  -8.9872337974890292e-06 4.6656745386993613e+01 0.0000000000000000e+00  2.3762794206723268e-06 4.6656745386998359e+01 0.0000000000000000e+00  -3.4468392527871506e-07 4.6656745387016869e+01 0.0000000000000000e+00  -2.6005041373416363e-11 4.6656745387023051e+01 0.0000000000000000e+00  3.4466762835055030e-07 4.6656745387020734e+01 0.0000000000000000e+00  -2.3762828683198758e-06 4.6656745387035969e+01 0.0000000000000000e+00  8.9872341116889451e-06 4.6656745387016976e+01 0.0000000000000000e+00  7.2356427138490554e-04 4.6656745387021417e+01 0.0000000000000000e+00  4.6591230701898773e-02 4.6656745387034505e+01 0.0000000000000000e+00  -2.0697950265254769e-02 4.6801017307444042e+01 0.0000000000000000e+00  -1.7521803766137290e-03 4.6801017307444866e+01 0.0000000000000000e+00  7.5386142024772273e-05 4.6801017307424708e+01 0.0000000000000000e+00  -6.4392258232920759e-06 4.6801017307450167e+01 0.0000000000000000e+00  6.7891304028748452e-07 4.6801017307396485e+01 0.0000000000000000e+00  -1.0392321442191455e-11 4.6801017307405630e+01 0.0000000000000000e+00  -6.7891468679011624e-07 4.6801017307466395e+01 0.0000000000000000e+00  6.4392464821934987e-06 4.6801017307475441e+01 0.0000000000000000e+00  -7.5386151956740512e-05 4.6801017307478574e+01 0.0000000000000000e+00  1.7521803858205757e-03 4.6801017307462409e+01 0.0000000000000000e+00  2.0697950249472168e-02 4.6801017307458359e+01 0.0000000000000000e+00  3.0581143444981268e-01 1.2270490380196626e+00 0.0000000000000000e+00  -5.8942370188294473e-05 1.2270490380212620e+00 0.0000000000000000e+00  1.1353347980992686e-08 1.2270490380207655e+00 0.0000000000000000e+00  -3.0910187322747517e-12 1.2270490380230803e+00 0.0000000000000000e+00  -7.5386201891205205e-12 1.2270490380231478e+00 0.0000000000000000e+00  -1.6078795309177230e-11 1.2270490380272649e+00 0.0000000000000000e+00  1.2952444334355804e-12 1.2270490380275088e+00 0.0000000000000000e+00  -1.1361949476183695e-08 1.2270490380206254e+00 0.0000000000000000e+00  5.8942373622046956e-05 1.2270490380178096e+00 0.0000000000000000e+00  -3.0581143444994452e-01 1.2270490380211245e+00 0.0000000000000000e+00  3.0392600538411879e-01 5.5079381579992894e+00 0.0000000000000000e+00  -5.8578972114842820e-05 5.5079381579968789e+00 0.0000000000000000e+00  1.1288377566293890e-08 5.5079381580027160e+00 0.0000000000000000e+00  3.3138609058878606e-12 5.5079381580104343e+00 0.0000000000000000e+00  -2.0718592426866528e-11 5.5079381580053610e+00 0.0000000000000000e+00  -4.6113477456576863e-12 5.5079381579972111e+00 0.0000000000000000e+00  -7.8922773901767384e-12 5.5079381579984314e+00 0.0000000000000000e+00  -1.1290487488119215e-08 5.5079381580010374e+00 0.0000000000000000e+00  5.8578971812729167e-05 5.5079381580019033e+00 0.0000000000000000e+00  -3.0392600538209258e-01 5.5079381579971161e+00 0.0000000000000000e+00  3.0016677154386323e-01 9.1421577507862484e+00 0.0000000000000000e+00  -5.7854413383040430e-05 9.1421577507888916e+00 0.0000000000000000e+00  1.1153009439302653e-08 9.1421577507872911e+00 0.0000000000000000e+00  -2.1219048745232556e-12 9.1421577507780736e+00 0.0000000000000000e+00  -1.7174858694051968e-11 9.1421577507810365e+00 0.0000000000000000e+00  -7.2690916237398503e-12 9.1421577507887957e+00 0.0000000000000000e+00  -7.8682019843942848e-12 9.1421577507848166e+00 0.0000000000000000e+00  -1.1154820333542354e-08 9.1421577507795480e+00 0.0000000000000000e+00  5.7854417460291892e-05 9.1421577507793650e+00 0.0000000000000000e+00  -3.0016677154282695e-01 9.1421577507883391e+00 0.0000000000000000e+00  2.9455690984761013e-01 1.2720012904455013e+01 0.0000000000000000e+00  -5.6773161735401222e-05 1.2720012904459683e+01 0.0000000000000000e+00  1.0940810248614519e-08 1.2720012904460244e+01 0.0000000000000000e+00  -5.9678876497497441e-12 1.2720012904463664e+01 0.0000000000000000e+00  -7.3888214277107198e-12 1.2720012904465619e+01 0.0000000000000000e+00  -1.2021025576428072e-11 1.2720012904464125e+01 0.0000000000000000e+00  -7.6971356491296921e-12 1.2720012904466151e+01 0.0000000000000000e+00  -1.0950433366951213e-08 1.2720012904469675e+01 0.0000000000000000e+00  5.6773168372408823e-05 1.2720012904465843e+01 0.0000000000000000e+00  -2.9455690984738941e-01 1.2720012904447874e+01 0.0000000000000000e+00  2.8713100693073262e-01 1.6219444953429260e+01 0.0000000000000000e+00  -5.5341883300771519e-05 1.6219444953427246e+01 0.0000000000000000e+00  1.0653575789503225e-08 1.6219444953420467e+01 0.0000000000000000e+00  1.2960852151420913e-12 1.6219444953413340e+01 0.0000000000000000e+00  -8.8689755545006953e-12 1.6219444953414754e+01 0.0000000000000000e+00  -1.5203388547073722e-11 1.6219444953410434e+01 0.0000000000000000e+00  -1.1943632986151854e-11 1.6219444953399709e+01 0.0000000000000000e+00  -1.0683788800581290e-08 1.6219444953381139e+01 0.0000000000000000e+00  5.5341895121321416e-05 1.6219444953376392e+01 0.0000000000000000e+00  -2.8713100692737792e-01 1.6219444953398959e+01 0.0000000000000000e+00  2.7793484593899276e-01 1.9618878736220442e+01 0.00