<?xml version="1.0"?>
<VTKFile type="UnstructuredGrid"  version="0.1"  >
<UnstructuredGrid>
<Piece  NumberOfPoints="1091" NumberOfCells="2050">
<Points>
<DataArray  type="Float64"  NumberOfComponents="3"  format="ascii">-0.5 -1 0  -0.4 -1 0  -0.3 -1 0  -0.2 -1 0  -0.09999999999999998 -1 0  0 -1 0  0.09999999999999998 -1 0  0.2 -1 0  0.3 -1 0  0.4 -1 0  0.5 -1 0  -0.5 -0.98 0  -0.4 -0.98 0  -0.3 -0.98 0  -0.2 -0.98 0  -0.09999999999999998 -0.98 0  0 -0.98 0  0.09999999999999998 -0.98 0  0.2 -0.98 0  0.3 -0.98 0  0.4 -0.98 0  0.5 -0.98 0  -0.5 -0.96 0  -0.4 -0.96 0  -0.3 -0.96 0  -0.2 -0.96 0  -0.09999999999999998 -0.96 0  0 -0.96 0  0.09999999999999998 -0.96 0  0.2 -0.96 0  0.3 -0.96 0  0.4 -0.96 0  0.5 -0.96 0  -0.5 -0.9399999999999999 0  -0.4 -0.9399999999999999 0  -0.3 -0.9399999999999999 0  -0.2 -0.9399999999999999 0  -0.09999999999999998 -0.9399999999999999 0  0 -0.9399999999999999 0  0.09999999999999998 -0.9399999999999999 0  0.2 -0.9399999999999999 0  0.3 -0.9399999999999999 0  0.4 -0.9399999999999999 0  0.5 -0.9399999999999999 0  -0.5 -0.92 0  -0.4 -0.92 0  -0.3 -0.92 0  -0.2 -0.92 0  -0.09999999999999998 -0.92 0  0 -0.92 0  0.09999999999999998 -0.92 0  0.2 -0.92 0  0.3 -0.92 0  0.4 -0.92 0  0.5 -0.92 0  -0.5 -0.9 0  -0.4 -0.9 0  -0.3 -0.9 0  -0.2 -0.9 0  -0.09999999999999998 -0.9 0  0 -0.9 0  0.09999999999999998 -0.9 0  0.2 -0.9 0  0.3 -0.9 0  0.4 -0.9 0  0.5 -0.9 0  -0.5 -0.88 0  -0.4 -0.88 0  -0.3 -0.88 0  -0.2 -0.88 0  -0.09999999999999998 -0.88 0  0 -0.88 0  0.09999999999999998 -0.88 0  0.2 -0.88 0  0.3 -0.88 0  0.4 -0.88 0  0.5 -0.88 0  -0.5 -0.86 0  -0.4 -0.86 0  -0.3 -0.86 0  -0.2 -0.86 0  -0.09999999999999998 -0.86 0  0 -0.86 0  0.09999999999999998 -0.86 0  0.2 -0.86 0  0.3 -0.86 0  0.4 -0.86 0  0.5 -0.86 0  -0.5 -0.84 0  -0.4 -0.84 0  -0.3 -0.84 0  -0.2 -0.84 0  -0.09999999999999998 -0.84 0  0 -0.84 0  0.09999999999999998 -0.84 0  0.2 -0.84 0  0.3 -0.84 0  0.4 -0.84 0  0.5 -0.84 0  -0.5 -0.8200000000000001 0  -0.4 -0.8200000000000001 0  -0.3 -0.8200000000000001 0  -0.2 -0.8200000000000001 0  -0.09999999999999998 -0.8200000000000001 0  0 -0.8200000000000001 0  0.09999999999999998 -0.8200000000000001 0  0.2 -0.8200000000000001 0  0.3 -0.8200000000000001 0  0.4 -0.8200000000000001 0  0.5 -0.8200000000000001 0  -0.5 -0.8 0  -0.4 -0.8 0  -0.3 -0.8 0  -0.2 -0.8 0  -0.09999999999999998 -0.8 0  0 -0.8 0  0.09999999999999998 -0.8 0  0.2 -0.8 0  0.3 -0.8 0  0.4 -0.8 0  0.5 -0.8 0  -0.5 -0.78 0  -0.4 -0.78 0  -0.3 -0.78 0  -0.2 -0.78 0  -0.09999999999999998 -0.78 0  0 -0.78 0  0.09999999999999998 -0.78 0  0.2 -0.78 0  0.3 -0.78 0  0.4 -0.78 0  0.5 -0.78 0  -0.5 -0.76 0  -0.4 -0.76 0  -0.3 -0.76 0  -0.2 -0.76 0  -0.09999999999999998 -0.76 0  0 -0.76 0  0.09999999999999998 -0.76 0  0.2 -0.76 0  0.3 -0.76 0  0.4 -0.76 0  0.5 -0.76 0  -0.5 -0.74 0  -0.4 -0.74 0  -0.3 -0.74 0  -0.2 -0.74 0  -0.09999999999999998 -0.74 0  0 -0.74 0  0.09999999999999998 -0.74 0  0.2 -0.74 0  0.3 -0.74 0  0.4 -0.74 0  0.5 -0.74 0  -0.5 -0.72 0  -0.4 -0.72 0  -0.3 -0.72 0  -0.2 -0.72 0  -0.09999999999999998 -0.72 0  0 -0.72 0  0.09999999999999998 -0.72 0  0.2 -0.72 0  0.3 -0.72 0  0.4 -0.72 0  0.5 -0.72 0  -0.5 -0.7 0  -0.4 -0.7 0  -0.3 -0.7 0  -0.2 -0.7 0  -0.09999999999999998 -0.7 0  0 -0.7 0  0.09999999999999998 -0.7 0  0.2 -0.7 0  0.3 -0.7 0  0.4 -0.7 0  0.5 -0.7 0  -0.5 -0.6799999999999999 0  -0.4 -0.6799999999999999 0  -0.3 -0.6799999999999999 0  -0.2 -0.6799999999999999 0  -0.09999999999999998 -0.6799999999999999 0  0 -0.6799999999999999 0  0.09999999999999998 -0.6799999999999999 0  0.2 -0.6799999999999999 0  0.3 -0.6799999999999999 0  0.4 -0.6799999999999999 0  0.5 -0.6799999999999999 0  -0.5 -0.6599999999999999 0  -0.4 -0.6599999999999999 0  -0.3 -0.6599999999999999 0  -0.2 -0.6599999999999999 0  -0.09999999999999998 -0.6599999999999999 0  0 -0.6599999999999999 0  0.09999999999999998 -0.6599999999999999 0  0.2 -0.6599999999999999 0  0.3 -0.6599999999999999 0  0.4 -0.6599999999999999 0  0.5 -0.6599999999999999 0  -0.5 -0.64 0  -0.4 -0.64 0  -0.3 -0.64 0  -0.2 -0.64 0  -0.09999999999999998 -0.64 0  0 -0.64 0  0.09999999999999998 -0.64 0  0.2 -0.64 0  0.3 -0.64 0  0.4 -0.64 0  0.5 -0.64 0  -0.5 -0.62 0  -0.4 -0.62 0  -0.3 -0.62 0  -0.2 -0.62 0  -0.09999999999999998 -0.62 0  0 -0.62 0  0.09999999999999998 -0.62 0  0.2 -0.62 0  0.3 -0.62 0  0.4 -0.62 0  0.5 -0.62 0  -0.5 -0.6 0  -0.4 -0.6 0  -0.3 -0.6 0  -0.2 -0.6 0  -0.09999999999999998 -0.6 0  0 -0.6 0  0.09999999999999998 -0.6 0  0.2 -0.6 0  0.3 -0.6 0  0.4 -0.6 0  0.5 -0.6 0  -0.5 -0.5800000000000001 0  -0.4 -0.5800000000000001 0  -0.3 -0.5800000000000001 0  -0.2 -0.5800000000000001 0  -0.09999999999999998 -0.5800000000000001 0  0 -0.5800000000000001 0  0.09999999999999998 -0.5800000000000001 0  0.2 -0.5800000000000001 0  0.3 -0.5800000000000001 0  0.4 -0.5800000000000001 0  0.5 -0.5800000000000001 0  -0.5 -0.5600000000000001 0  -0.4 -0.5600000000000001 0  -0.3 -0.5600000000000001 0  -0.2 -0.5600000000000001 0  -0.09999999999999998 -0.5600000000000001 0  0 -0.5600000000000001 0  0.09999999999999998 -0.5600000000000001 0  0.2 -0.5600000000000001 0  0.3 -0.5600000000000001 0  0.4 -0.5600000000000001 0  0.5 -0.5600000000000001 0  -0.5 -0.54 0  -0.4 -0.54 0  -0.3 -0.54 0  -0.2 -0.54 0  -0.09999999999999998 -0.54 0  0 -0.54 0  0.09999999999999998 -0.54 0  0.2 -0.54 0  0.3 -0.54 0  0.4 -0.54 0  0.5 -0.54 0  -0.5 -0.52 0  -0.4 -0.52 0  -0.3 -0.52 0  -0.2 -0.52 0  -0.09999999999999998 -0.52 0  0 -0.52 0  0.09999999999999998 -0.52 0  0.2 -0.52 0  0.3 -0.52 0  0.4 -0.52 0  0.5 -0.52 0  -0.5 -0.5 0  -0.4 -0.5 0  -0.3 -0.5 0  -0.2 -0.5 0  -0.09999999999999998 -0.5 0  0 -0.5 0  0.09999999999999998 -0.5 0  0.2 -0.5 0  0.3 -0.5 0  0.4 -0.5 0  0.5 -0.5 0  -0.5 -0.48 0  -0.4 -0.48 0  -0.3 -0.48 0  -0.2 -0.48 0  -0.09999999999999998 -0.48 0  0 -0.48 0  0.09999999999999998 -0.48 0  0.2 -0.48 0  0.3 -0.48 0  0.4 -0.48 0  0.5 -0.48 0  -0.5 -0.46 0  -0.4 -0.46 0  -0.3 -0.46 0  -0.2 -0.46 0  -0.09999999999999998 -0.46 0  0 -0.46 0  0.09999999999999998 -0.46 0  0.2 -0.46 0  0.3 -0.46 0  0.4 -0.46 0  0.5 -0.46 0  -0.5 -0.4399999999999999 0  -0.4 -0.4399999999999999 0  -0.3 -0.4399999999999999 0  -0.2 -0.4399999999999999 0  -0.09999999999999998 -0.4399999999999999 0  0 -0.4399999999999999 0  0.09999999999999998 -0.4399999999999999 0  0.2 -0.4399999999999999 0  0.3 -0.4399999999999999 0  0.4 -0.4399999999999999 0  0.5 -0.4399999999999999 0  -0.5 -0.42 0  -0.4 -0.42 0  -0.3 -0.42 0  -0.2 -0.42 0  -0.09999999999999998 -0.42 0  0 -0.42 0  0.09999999999999998 -0.42 0  0.2 -0.42 0  0.3 -0.42 0  0.4 -0.42 0  0.5 -0.42 0  -0.5 -0.4 0  -0.4 -0.4 0  -0.3 -0.4 0  -0.2 -0.4 0  -0.09999999999999998 -0.4 0  0 -0.4 0  0.09999999999999998 -0.4 0  0.2 -0.4 0  0.3 -0.4 0  0.4 -0.4 0  0.5 -0.4 0  -0.5 -0.38 0  -0.4 -0.38 0  -0.3 -0.38 0  -0.2 -0.38 0  -0.09999999999999998 -0.38 0  0 -0.38 0  0.09999999999999998 -0.38 0  0.2 -0.38 0  0.3 -0.38 0  0.4 -0.38 0  0.5 -0.38 0  -0.5 -0.36 0  -0.4 -0.36 0  -0.3 -0.36 0  -0.2 -0.36 0  -0.09999999999999998 -0.36 0  0 -0.36 0  0.09999999999999998 -0.36 0  0.2 -0.36 0  0.3 -0.36 0  0.4 -0.36 0  0.5 -0.36 0  -0.5 -0.34 0  -0.4 -0.34 0  -0.3 -0.34 0  -0.2 -0.34 0  -0.09999999999999998 -0.34 0  0 -0.34 0  0.09999999999999998 -0.34 0  0.2 -0.34 0  0.3 -0.34 0  0.4 -0.34 0  0.5 -0.34 0  -0.5 -0.32 0  -0.4 -0.32 0  -0.3 -0.32 0  -0.2 -0.32 0  -0.09999999999999998 -0.32 0  0 -0.32 0  0.09999999999999998 -0.32 0  0.2 -0.32 0  0.3 -0.32 0  0.4 -0.32 0  0.5 -0.32 0  -0.5 -0.3 0  -0.4 -0.3 0  -0.3 -0.3 0  -0.2 -0.3 0  -0.09999999999999998 -0.3 0  0 -0.3 0  0.09999999999999998 -0.3 0  0.2 -0.3 0  0.3 -0.3 0  0.4 -0.3 0  0.5 -0.3 0  -0.5 -0.28 0  -0.4 -0.28 0  -0.3 -0.28 0  -0.2 -0.28 0  -0.09999999999999998 -0.28 0  0 -0.28 0  0.09999999999999998 -0.28 0  0.2 -0.28 0  0.3 -0.28 0  0.4 -0.28 0  0.5 -0.28 0  -0.5 -0.26 0  -0.4 -0.26 0  -0.3 -0.26 0  -0.2 -0.26 0  -0.09999999999999998 -0.26 0  0 -0.26 0  0.09999999999999998 -0.26 0  0.2 -0.26 0  0.3 -0.26 0  0.4 -0.26 0  0.5 -0.26 0  -0.5 -0.24 0  -0.4 -0.24 0  -0.3 -0.24 0  -0.2 -0.24 0  -0.09999999999999998 -0.24 0  0 -0.24 0  0.09999999999999998 -0.24 0  0.2 -0.24 0  0.3 -0.24 0  0.4 -0.24 0  0.5 -0.24 0  -0.5 -0.22 0  -0.4 -0.22 0  -0.3 -0.22 0  -0.2 -0.22 0  -0.09999999999999998 -0.22 0  0 -0.22 0  0.09999999999999998 -0.22 0  0.2 -0.22 0  0.3 -0.22 0  0.4 -0.22 0  0.5 -0.22 0  -0.5 -0.2 0  -0.4 -0.2 0  -0.3 -0.2 0  -0.2 -0.2 0  -0.09999999999999998 -0.2 0  0 -0.2 0  0.09999999999999998 -0.2 0  0.2 -0.2 0  0.3 -0.2 0  0.4 -0.2 0  0.5 -0.2 0  -0.5 -0.18 0  -0.4 -0.18 0  -0.3 -0.18 0  -0.2 -0.18 0  -0.09999999999999998 -0.18 0  0 -0.18 0  0.09999999999999998 -0.18 0  0.2 -0.18 0  0.3 -0.18 0  0.4 -0.18 0  0.5 -0.18 0  -0.5 -0.16 0  -0.4 -0.16 0  -0.3 -0.16 0  -0.2 -0.16 0  -0.09999999999999998 -0.16 0  0 -0.16 0  0.09999999999999998 -0.16 0  0.2 -0.16 0  0.3 -0.16 0  0.4 -0.16 0  0.5 -0.16 0  -0.5 -0.14 0  -0.4 -0.14 0  -0.3 -0.14 0  -0.2 -0.14 0  -0.09999999999999998 -0.14 0  0 -0.14 0  0.09999999999999998 -0.14 0  0.2 -0.14 0  0.3 -0.14 0  0.4 -0.14 0  0.5 -0.14 0  -0.5 -0.12 0  -0.4 -0.12 0  -0.3 -0.12 0  -0.2 -0.12 0  -0.09999999999999998 -0.12 0  0 -0.12 0  0.09999999999999998 -0.12 0  0.2 -0.12 0  0.3 -0.12 0  0.4 -0.12 0  0.5 -0.12 0  -0.5 -0.09999999999999998 0  -0.4 -0.09999999999999998 0  -0.3 -0.09999999999999998 0  -0.2 -0.09999999999999998 0  -0.09999999999999998 -0.09999999999999998 0  0 -0.09999999999999998 0  0.09999999999999998 -0.09999999999999998 0  0.2 -0.09999999999999998 0  0.3 -0.09999999999999998 0  0.4 -0.09999999999999998 0  0.5 -0.09999999999999998 0  -0.5 -0.07999999999999996 0  -0.4 -0.07999999999999996 0  -0.3 -0.07999999999999996 0  -0.2 -0.07999999999999996 0  -0.09999999999999998 -0.07999999999999996 0  0 -0.07999999999999996 0  0.09999999999999998 -0.07999999999999996 0  0.2 -0.07999999999999996 0  0.3 -0.07999999999999996 0  0.4 -0.07999999999999996 0  0.5 -0.07999999999999996 0  -0.5 -0.06000000000000005 0  -0.4 -0.06000000000000005 0  -0.3 -0.06000000000000005 0  -0.2 -0.06000000000000005 0  -0.09999999
[...]
<PointData  Vectors="flow"> 
<DataArray  type="Float64"  Name="flow"  NumberOfComponents="3" format="ascii">-3.2865766984626368e-15 -5.2890471567684683e-15 0.0000000000000000e+00  -1.3238654625240510e-15 -8.5766429639541776e-16 0.0000000000000000e+00  -2.4145361890632230e-16 -9.8860732572164455e-15 0.0000000000000000e+00  2.3529434229436026e-15 -9.2776575776980264e-15 0.0000000000000000e+00  5.7787205596643900e-16 2.5022677580572209e-15 0.0000000000000000e+00  9.6335292086399165e-16 -8.8519415864189617e-15 0.0000000000000000e+00  3.0701761866567057e-15 2.0037400516117297e-15 0.0000000000000000e+00  5.5097683666905209e-16 -3.7700177994412318e-15 0.0000000000000000e+00  1.6443131295532305e-15 2.7331422981013113e-15 0.0000000000000000e+00  1.9679596463585524e-15 -5.8667352742444215e-15 0.0000000000000000e+00  2.8876630814749765e-16 2.1988457601437326e-15 0.0000000000000000e+00  -1.7922208228139446e-15 1.6878854195628389e-15 0.0000000000000000e+00  -1.7444931765515374e-15 3.1861394841360551e-15 0.0000000000000000e+00  -8.8144417100218637e-16 -1.8708016318673652e-15 0.0000000000000000e+00  2.5058581298831878e-15 3.9241059179376112e-15 0.0000000000000000e+00  9.1665971521538766e-16 3.7121634086373060e-15 0.0000000000000000e+00  9.8291442867536806e-16 -2.1000573424635015e-15 0.0000000000000000e+00  3.1825398165313694e-15 1.8030441898505130e-16 0.0000000000000000e+00  7.4866111755630565e-16 1.0142467492745431e-15 0.0000000000000000e+00  1.3669359104560001e-15 6.8487992560933314e-16 0.0000000000000000e+00  1.6467391560712950e-15 8.5471758857107703e-16 0.0000000000000000e+00  1.7828604292690883e-15 -3.0448605355694829e-15 0.0000000000000000e+00  -1.8031872582796416e-15 -2.6505605118341431e-15 0.0000000000000000e+00  -1.9676989845623816e-15 2.2935060870005292e-15 0.0000000000000000e+00  -3.1410240791243721e-16 -4.8439031217333514e-15 0.0000000000000000e+00  4.0477557791969492e-15 5.8519889049676370e-15 0.0000000000000000e+00  -2.4544135450375024e-16 -1.0788871513593189e-15 0.0000000000000000e+00  6.7034579011594747e-17 4.5752986902942201e-15 0.0000000000000000e+00  3.6248533343734574e-15 8.2606113022419456e-15 0.0000000000000000e+00  1.2468337461364822e-15 7.0746359504519692e-15 0.0000000000000000e+00  9.4011126255401920e-16 -6.3660967908243828e-16 0.0000000000000000e+00  9.6339106013679565e-16 3.4169166484587134e-15 0.0000000000000000e+00  -4.8322900252089954e-16 -3.1093005234467650e-15 0.0000000000000000e+00  -1.0569253453867156e-15 5.5616262529800304e-15 0.0000000000000000e+00  -1.7815975020751062e-15 -2.2046304977048676e-15 0.0000000000000000e+00  -1.9984846332647206e-17 6.4343026427187326e-15 0.0000000000000000e+00  2.0834299119562272e-15 1.1456327602397805e-15 0.0000000000000000e+00  2.4335061137191065e-16 -1.3019083641319157e-14 0.0000000000000000e+00  3.3556074340849290e-15 6.5662593021927450e-15 0.0000000000000000e+00  3.2192337552561196e-15 6.7642421448477917e-15 0.0000000000000000e+00  -1.0471847379194554e-15 6.1029140298967749e-15 0.0000000000000000e+00  7.9675444245558917e-16 -1.8207988129753342e-14 0.0000000000000000e+00  2.2193313674957392e-15 8.8951994035324371e-15 0.0000000000000000e+00  -5.7917522084456153e-16 4.4862961780411797e-15 0.0000000000000000e+00  -4.2139180506106004e-15 3.9674168785608904e-15 0.0000000000000000e+00  -2.1573712424559287e-15 1.2191691395025218e-15 0.0000000000000000e+00  4.2338373989534863e-16 -6.5581735533817220e-15 0.0000000000000000e+00  1.0900471572515336e-15 -1.1643332793898503e-14 0.0000000000000000e+00  1.6872518888168871e-15 1.2305622107964225e-14 0.0000000000000000e+00  3.7444210569116900e-15 1.3970574944583940e-14 0.0000000000000000e+00  3.6776615296459801e-15 -2.3206568897551371e-15 0.0000000000000000e+00  -4.0845624903525717e-15 2.2852306743225043e-14 0.0000000000000000e+00  1.5466853464644100e-15 -1.8729230768516775e-14 0.0000000000000000e+00  4.4984353214437044e-15 1.8158520488706538e-14 0.0000000000000000e+00  -5.7618131808973165e-15 -1.2784154565600901e-14 0.0000000000000000e+00  -3.2636337923481074e-15 1.4439460032574351e-15 0.0000000000000000e+00  -3.5918402187792634e-15 -3.1490573865409577e-16 0.0000000000000000e+00  -2.7610667197953911e-15 -6.4005455831087252e-15 0.0000000000000000e+00  5.1977584542546153e-15 -5.1391999377944894e-16 0.0000000000000000e+00  3.8374902746114828e-15 -7.7381090290632545e-15 0.0000000000000000e+00  1.1811297527236113e-15 -7.0336325216717629e-15 0.0000000000000000e+00  4.4598372488997394e-15 -8.9675000704841309e-15 0.0000000000000000e+00  -4.3499563139234684e-15 -8.8754954293781275e-15 0.0000000000000000e+00  5.7418876971631575e-16 -2.4354601230618026e-15 0.0000000000000000e+00  3.9246547063833302e-15 -4.1289239113282052e-15 0.0000000000000000e+00  -1.0867954654523251e-14 -1.4575891578229686e-14 0.0000000000000000e+00  -3.0200843765432655e-15 -5.2436972775811183e-15 0.0000000000000000e+00  -3.5703177964589655e-15 -1.1038051583332573e-14 0.0000000000000000e+00  1.2197791135009525e-16 8.8453776810724964e-15 0.0000000000000000e+00  1.0128188798280738e-15 1.2056701072292342e-14 0.0000000000000000e+00  1.1471796056602753e-15 -2.6429921808389831e-14 0.0000000000000000e+00  4.5166178535536653e-15 -6.1516356760753374e-16 0.0000000000000000e+00  3.4202036938797879e-15 -3.4273233228135600e-15 0.0000000000000000e+00  -3.0821581156029362e-15 -9.9523418315896233e-15 0.0000000000000000e+00  1.0559305313970897e-15 3.9816252995221838e-15 0.0000000000000000e+00  3.2230549172831809e-15 -6.6144361697842538e-15 0.0000000000000000e+00  -9.8577271239266899e-15 -5.2525288703136491e-15 0.0000000000000000e+00  -4.6202095832194592e-15 -2.2092758414485382e-14 0.0000000000000000e+00  -8.3311494867324604e-16 -1.4344309654116907e-15 0.0000000000000000e+00  2.5413795975140433e-15 -4.5318620392288718e-15 0.0000000000000000e+00  -1.7866724622996599e-15 -4.2939729414277208e-15 0.0000000000000000e+00  1.0980518880759148e-15 -7.3111197313267958e-15 0.0000000000000000e+00  4.5790370095025618e-15 -2.2075654411591425e-15 0.0000000000000000e+00  2.7104544685407320e-15 3.6033550514096616e-15 0.0000000000000000e+00  -9.4714256130901249e-16 -4.7003312608529300e-15 0.0000000000000000e+00  1.4486425066412898e-15 8.7489605596635508e-15 0.0000000000000000e+00  1.2151822284160810e-17 -3.8284345937866062e-15 0.0000000000000000e+00  -1.1150162749793733e-14 -2.6630138085509745e-14 0.0000000000000000e+00  1.3530306129146903e-15 -7.6615248536571771e-15 0.0000000000000000e+00  -3.1398111170755187e-16 1.0375348922960845e-14 0.0000000000000000e+00  7.9532196042667121e-16 -1.1920371892837661e-14 0.0000000000000000e+00  -2.5751354468687381e-16 1.1000073623555498e-14 0.0000000000000000e+00  1.7030206006039362e-15 1.0459756427458999e-14 0.0000000000000000e+00  7.5055031867350921e-15 -2.0672388466115741e-15 0.0000000000000000e+00  2.8376216334920914e-15 4.9816651385277129e-14 0.0000000000000000e+00  -4.4026304008768775e-15 1.8097733804927065e-14 0.0000000000000000e+00  1.8944414923956091e-15 -3.4464043151832649e-16 0.0000000000000000e+00  -2.5260568719179938e-15 2.5508921756772917e-14 0.0000000000000000e+00  -8.8862359639434933e-15 1.0833332258532723e-14 0.0000000000000000e+00  3.1181911345532646e-15 2.1364966385457247e-14 0.0000000000000000e+00  -2.9816625255465895e-15 2.1082520360906740e-14 0.0000000000000000e+00  1.0878554588905645e-15 3.3702492328617661e-15 0.0000000000000000e+00  1.7324659387923623e-15 1.0087482308641326e-14 0.0000000000000000e+00  -1.7988276595533636e-15 -1.1446197111083181e-15 0.0000000000000000e+00  1.1249318691087455e-14 -1.7291751724807067e-14 0.0000000000000000e+00  7.3563491896906378e-15 -8.9801681713657956e-15 0.0000000000000000e+00  -1.0724419582011832e-14 5.8434856229075960e-15 0.0000000000000000e+00  3.5983319479872576e-15 -1.7972436373528174e-14 0.0000000000000000e+00  9.3387263048877195e-16 1.6796852263921453e-14 0.0000000000000000e+00  -2.3087158160433592e-14 -7.4441478515083151e-15 0.0000000000000000e+00  1.4009166922962906e-15 1.1461019996245098e-15 0.0000000000000000e+00  -3.4954952083818398e-15 -1.3152617016048156e-14 0.0000000000000000e+00  3.9166717413195820e-16 1.3218273031450335e-14 0.0000000000000000e+00  3.2741695041508865e-15 -4.5618109198691498e-15 0.0000000000000000e+00  -4.5255033115530321e-15 -4.5119284495352633e-15 0.0000000000000000e+00  6.3093279126774459e-15 -3.3044148013244800e-15 0.0000000000000000e+00  7.9231841765598379e-15 -2.7117741531906996e-14 0.0000000000000000e+00  -4.7621690692639518e-15 1.1482810065658716e-14 0.0000000000000000e+00  1.1742698649818012e-15 7.7542359129555158e-15 0.0000000000000000e+00  7.3987878229479186e-16 8.0868056862883283e-15 0.0000000000000000e+00  -2.4835587881193989e-14 -1.9125377874620731e-14 0.0000000000000000e+00  -1.2207428782944972e-15 -1.2339116510470166e-14 0.0000000000000000e+00  1.7492546738505842e-15 3.3939592702938601e-14 0.0000000000000000e+00  3.9698570227987709e-16 1.5006316765675085e-14 0.0000000000000000e+00  -5.7583693729262533e-15 -8.7076620334214992e-15 0.0000000000000000e+00  -2.3371625221819623e-15 -1.2278183877072370e-14 0.0000000000000000e+00  8.9717489405901856e-15 1.5768083922485211e-14 0.0000000000000000e+00  8.7804587883194369e-15 1.1713664050622526e-14 0.0000000000000000e+00  -4.3067475965702778e-15 -1.4214303101133210e-14 0.0000000000000000e+00  4.5749884621812328e-15 7.5094392374661371e-15 0.0000000000000000e+00  -5.1026032888178422e-15 1.5007947256765952e-14 0.0000000000000000e+00  -2.7530462924724456e-14 -2.9828968345095464e-14 0.0000000000000000e+00  9.7089283525789860e-15 1.0765876309770246e-14 0.0000000000000000e+00  -1.6118339257211785e-15 2.3332276499458583e-14 0.0000000000000000e+00  -7.0130741226287577e-15 -4.8610766100355611e-14 0.0000000000000000e+00  1.4387679978538002e-15 -7.0553977370560995e-15 0.0000000000000000e+00  -1.5133313707074680e-16 -6.0400015868630465e-15 0.0000000000000000e+00  6.8695763491607125e-15 3.9189920113629819e-14 0.0000000000000000e+00  4.4265156874514484e-15 -4.2745936813157380e-14 0.0000000000000000e+00  -5.6893877580358416e-15 -3.0399331609213386e-14 0.0000000000000000e+00  1.0084808709920614e-14 7.8841413693361855e-15 0.0000000000000000e+00  -7.0052123920900038e-15 -8.5702656734857534e-15 0.0000000000000000e+00  -3.1721166937924978e-14 1.0563893314208228e-14 0.0000000000000000e+00  1.0116480758097122e-14 1.4771578198841851e-14 0.0000000000000000e+00  -7.5430890820582007e-15 -1.9765338125363693e-14 0.0000000000000000e+00  -6.2391669401194633e-15 -2.4667461460931679e-14 0.0000000000000000e+00  8.0195723087068957e-16 -1.2566925328449330e-14 0.0000000000000000e+00  8.4715095130786547e-15 -2.7430148956960747e-14 0.0000000000000000e+00  5.6310995789838490e-15 3.5011901151904475e-14 0.0000000000000000e+00  -4.2092758450310310e-15 -3.8950512283871455e-14 0.0000000000000000e+00  1.7607695583063921e-15 2.9170766926153189e-14 0.0000000000000000e+00  7.3730509985137537e-15 1.1955747551722994e-14 0.0000000000000000e+00  -9.6270630729230966e-15 -1.5110279098486544e-14 0.0000000000000000e+00  -2.8646336250643431e-14 -2.9769650862034471e-14 0.0000000000000000e+00  7.5757565628728765e-15 3.7909676223546660e-15 0.0000000000000000e+00  -9.8256797739270687e-15 1.9731015207736850e-14 0.0000000000000000e+00  -3.6983782572789469e-15 -2.3619400024995107e-14 0.0000000000000000e+00  -8.1571561444379335e-17 1.7794797356354629e-15 0.0000000000000000e+00  9.3683076949246809e-15 4.4820934718833566e-14 0.0000000000000000e+00  3.7251649095286304e-16 1.1920826408984900e-15 0.0000000000000000e+00  1.6431074575032511e-15 -2.2177055576147995e-14 0.0000000000000000e+00  6.1461971981673429e-15 1.3667709270313434e-14 0.0000000000000000e+00  3.2592792756325569e-15 -2.9345452969901795e-14 0.0000000000000000e+00  -9.3257472058067407e-15 2.6476779632967618e-14 0.0000000000000000e+00  -3.1607374044179748e-14 2.6792164791523523e-14 0.0000000000000000e+00  8.8122486179662675e-15 -1.7423934070857145e-14 0.0000000000000000e+00  -1.2382463353209533e-14 3.4640467080172365e-14 0.0000000000000000e+00  -9.3714422365628836e-15 -4.1434316004248148e-14 0.0000000000000000e+00  1.1549143887644971e-14 9.9735826139440771e-16 0.0000000000000000e+00  1.0143839211821693e-14 2.7606728130593450e-14 0.0000000000000000e+00  -6.6381532920091122e-15 -3.7297447984633262e-14 0.0000000000000000e+00  -9.3628099231415188e-17 -2.0270452160056904e-14 0.0000000000000000e+00  3.1798952275245434e-15 -5.3991481346303251e-14 0.0000000000000000e+00  6.8148537009508929e-15 9.1207005503082269e-15 0.0000000000000000e+00  9.5030339793453364e-16 8.2722058563852401e-15 0.0000000000000000e+00  -3.8681772044407999e-14 1.8683432776794021e-14 0.0000000000000000e+00  1.4019062228213779e-14 8.6295365043376417e-15 0.0000000000000000e+00  -1.3988484708978697e-14 5.5555768413380951e-15 0.0000000000000000e+00  -1.2433877274546803e-14 4.5155389339845532e-15 0.0000000000000000e+00  1.5220237402503241e-14 1.4092046195109044e-14 0.0000000000000000e+00  4.5485425063994778e-15 -6.8295823473826199e-15 0.0000000000000000e+00  -7.7368690893435959e-15 2.9853606748191220e-14 0.0000000000000000e+00  -5.1609378990732827e-15 -2.5150530492648966e-14 0.0000000000000000e+00  1.1272264376708383e-14 -2.1300421549268514e-14 0.0000000000000000e+00  1.2686518207625498e-14 -6.1955501600350420e-16 0.0000000000000000e+00  -8.8998237370005588e-15 2.6580795711946143e-15 0.0000000000000000e+00  -2.9786872256334091e-14 -9.4910485045144882e-15 0.0000000000000000e+00  1.1497614705564000e-14 4.7619644531278260e-14 0.0000000000000000e+00  -1.5791158297892348e-14 -3.0037085709739682e-14 0.0000000000000000e+00  -6.4943934465664320e-15 3.3523463040169359e-14 0.0000000000000000e+00  8.9976431438996087e-15 -1.9578893236721780e-15 0.0000000000000000e+00  7.1629944585018080e-15 1.5794235527595824e-14 0.0000000000000000e+00  -1.2487975579163240e-14 -3.8283567318115415e-14 0.0000000000000000e+00  -1.1544346467768502e-14 -4.3670968013148173e-14 0.0000000000000000e+00  1.3501888666734261e-14 -3.6598828684712471e-14 0.0000000000000000e+00  1.7448339386438503e-14 -4.8608581817832280e-14 0.0000000000000000e+00  1.1946504686242561e-15 3.6844625689733721e-14 0.0000000000000000e+00  -3.1037078523764976e-14 3.2103768700014108e-14 0.0000000000000000e+00  -1.0351269464178828e-16 1.6797236348272501e-14 0.0000000000000000e+00  -1.5230288769052501e-14 -1.1096736534042143e-14 0.0000000000000000e+00  -7.8879732311530832e-15 -1.5743321138509248e-15 0.0000000000000000e+00  1.3450198079354228e-14 -1.8457331180389505e-15 0.0000000000000000e+00  -1.0249338804748122e-15 -1.5939010700300150e-14 0.0000000000000000e+00  -1.3449006849800096e-14 -7.6544255941571116e-14 0.0000000000000000e+00  -3.8677964107311811e-15 9.4481235172537628e-14 0.0000000000000000e+00  3.6781978396218470e-15 -1.4525199441582640e-14 0.0000000000000000e+00  2.3061605380275344e-14 -4.4547888431388831e-14 0.0000000000000000e+00  3.2045958344739292e-15 -5.6887047864787042e-15 0.0000000000000000e+00  -4.2207330594963279e-14 -3.8505001467636501e-14 0.0000000000000000e+00  -4.0383110363722840e-15 1.0651976502212535e-14 0.0000000000000000e+00  -2.1410668987280697e-14 -2.1258254345984732e-14 0.0000000000000000e+00  -1.7439471429190713e-15 -3.5851238704996299e-14 0.0000000000000000e+00  9.7030647849090967e-15 6.3015543397071023e-14 0.0000000000000000e+00  -9.6624067489988556e-15 -5.4941659258518448e-14 0.0000000000000000e+00  2.0972085640782534e-15 -1.0316358154812957e-14 0.0000000000000000e+00  1.0720973962683930e-15 1.5306303984606796e-14 0.0000000000000000e+00  -8.2550405578860492e-15 1.0912447289381131e-14 0.0000000000000000e+00  2.2631572899625627e-14 2.6294770610316568e-14 0.0000000000000000e+00  1.8799640498086392e-15 2.5343133260033590e-14 0.0000000000000000e+00  -4.9341932243146665e-14 -5.1411757271486819e-14 0.0000000000000000e+00  -8.4238181193532138e-15 1.7866979331406444e-14 0.0000000000000000e+00  -2.3272249149721815e-14 4.2311322570373344e-15 0.0000000000000000e+00  7.5452559962822490e-15 3.2493178845023795e-15 0.0000000000000000e+00  6.5020438818727703e-15 5.7470391681917878e-14 0.0000000000000000e+00  -1.6637856282187350e-14 -3.1824980149104458e-14 0.0000000000000000e+00  4.8810236500786588e-15 5.7117891099682868e-15 0.0000000000000000e+00  -1.6942973488449507e-15 4.1745730856485073e-15 0.0000000000000000e+00  1.7176089496367565e-15 6.3617974218713917e-14 0.0000000000000000e+00  2.6331693680464337e-14 1.5317722856963830e-15 0.0000000000000000e+00  -9.3326428859043482e-15 6.1308074986602558e-15 0.0000000000000000e+00  -5.7727834011844383e-14 1.4200585670626109e-14 0.0000000000000000e+00  -9.8770040820189485e-15 4.4336642746086362e-15 0.0000000000000000e+00  -2.7968679342721076e-14 1.7413928760593871e-14 0.0000000000000000e+00  4.6004171029115369e-15 -5.1243032518590042e-14 0.0000000000000000e+00  7.4677154581390470e-15 -3.9603036997819960e-14 0.0000000000000000e+00  -1.9629711047607026e-14 -2.3684785550397164e-14 0.0000000000000000e+00  1.1611390103786343e-14 -4.9988631294359487e-14 0.0000000000000000e+00  1.5001399610676317e-14 4.2097898047361388e-15 0.0000000000000000e+00  -6.0494628182848955e-15 5.8941552047860100e-14 0.0000000000000000e+00  9.4265412112107848e-15 1.3285997908656559e-14 0.0000000000000000e+00  1.6371420238410492e-15 -4.1795864262064896e-14 0.0000000000000000e+00  -4.5510818285996029e-14 9.5342403298682745e-15 0.0000000000000000e+00  -3.2447238295441639e-15 -2.1680102086872956e-14 0.0000000000000000e+00  -2.8095038491555880e-14 -1.1548084087332282e-15 0.0000000000000000e+00  -4.4126741814088518e-16 1.4396046022919119e-14 0.0000000000000000e+00  1.3743608192680204e-14 3.8852384395381333e-14 0.0000000000000000e+00  -1.8839128265183663e-14 1.1324204694742097e-14 0.0000000000000000e+00  5.2617710756761778e-15 6.0969439516059966e-14 0.0000000000000000e+00  1.6655692485701531e-14 1.4322595627945646e-14 0.0000000000000000e+00  2.9272810736505741e-15 2.3723067546657269e-14 0.0000000000000000e+00  7.9849314865074287e-15 4.3564364674637806e-14 0.0000000000000000e+00  -9.8469807587093269e-15 4.2980898622859087e-14 0.0000000000000000e+00  -6.0028639001779275e-14 -7.3107787176884152e-14 0.0000000000000000e+00  -1.4577941813828250e-14 5.0293402984523589e-14 0.0000000000000000e+00  -2.6469749001813728e-14 2.9639259363770567e-14 0.0000000000000000e+00  8.7908293111352910e-15 -1.2852614452204861e-15 0.0000000000000000e+00  4.4137771909952331e-16 1.3439667743275351e-14 0.0000000000000000e+00  -1.5724543567835636e-14 -4.0686275929804036e-14 0.0000000000000000e+00  1.4725306089959754e-14 -1.7795736173713944e-14 0.0000000000000000e+00  1.3842157199374677e-14 6.4730852427026870e-14 0.0000000000000000e+00  -4.1691910453527478e-15 8.1451011122749910e-16 0.0000000000000000e+00  1.0280995647756029e-14 -7.7837192284399869e-15 0.0000000000000000e+00  -1.4544107245042521e-14 -1.8892777197093247e-14 0.0000000000000000e+00  -8.4281641621414194e-14 -8.3951361797233032e-15 0.0000000000000000e+00  -1.5685633547954048e-16 -4.1191617198228955e-14 0.0000000000000000e+00  -3.3565780471410603e-14 1.9095609689805191e-14 0.0000000000000000e+00  -9.8699531567892911e-16 -1.7213245751158569e-14 0.0000000000000000e+00  1.1122562852096619e-14 -4.6010692920741011e-14 0.0000000000000000e+00  -2.1893870513502957e-14 4.6394925447133860e-14 0.0000000000000000e+00  2.5261200919668757e-14 8.8174140012415778e-15 0.0000000000000000e+00  1.8865823796402277e-14 1.1239393058589666e-13 0.0000000000000000e+00  -1.6139477872540273e-14 -3.9913887259593586e-14 0.0000000000000000e+00  6.3437332001108236e-15 1.6546920728967328e-14 0.0000000000000000e+00  -1.2126118256553797e-14 -7.8159279138986817e-14 0.0000000000000000e+00  -5.0928300103049923e-14 3.0104266815056453e-14 0.0000000000000000e+00  7.6611655268065828e-15 -5.3358293467731184e-14 0.0000000000000000e+00  -2.4271825542193535e-14 -1.9886092825702913e-14 0.0000000000000000e+00  -6.6246802365724311e-15 -1.5825532619518694e-14 0.0000000000000000e+00  1.3238549201566260e-14 -3.2529979950559807e-14 0.0000000000000000e+00  -1.0320913439378155e-14 4.0440342320608235e-14 0.0000000000000000e+00  2.5812761780317230e-1