<?xml version="1.0"?>
<VTKFile type="UnstructuredGrid"  version="0.1"  >
<UnstructuredGrid>
<Piece  NumberOfPoints="1091" NumberOfCells="2050">
<Points>
<DataArray  type="Float64"  NumberOfComponents="3"  format="ascii">-0.5 -1 0  -0.4 -1 0  -0.3 -1 0  -0.2 -1 0  -0.09999999999999998 -1 0  0 -1 0  0.09999999999999998 -1 0  0.2 -1 0  0.3 -1 0  0.4 -1 0  0.5 -1 0  -0.5 -0.98 0  -0.4 -0.98 0  -0.3 -0.98 0  -0.2 -0.98 0  -0.09999999999999998 -0.98 0  0 -0.98 0  0.09999999999999998 -0.98 0  0.2 -0.98 0  0.3 -0.98 0  0.4 -0.98 0  0.5 -0.98 0  -0.5 -0.96 0  -0.4 -0.96 0  -0.3 -0.96 0  -0.2 -0.96 0  -0.09999999999999998 -0.96 0  0 -0.96 0  0.09999999999999998 -0.96 0  0.2 -0.96 0  0.3 -0.96 0  0.4 -0.96 0  0.5 -0.96 0  -0.5 -0.9399999999999999 0  -0.4 -0.9399999999999999 0  -0.3 -0.9399999999999999 0  -0.2 -0.9399999999999999 0  -0.09999999999999998 -0.9399999999999999 0  0 -0.9399999999999999 0  0.09999999999999998 -0.9399999999999999 0  0.2 -0.9399999999999999 0  0.3 -0.9399999999999999 0  0.4 -0.9399999999999999 0  0.5 -0.9399999999999999 0  -0.5 -0.92 0  -0.4 -0.92 0  -0.3 -0.92 0  -0.2 -0.92 0  -0.09999999999999998 -0.92 0  0 -0.92 0  0.09999999999999998 -0.92 0  0.2 -0.92 0  0.3 -0.92 0  0.4 -0.92 0  0.5 -0.92 0  -0.5 -0.9 0  -0.4 -0.9 0  -0.3 -0.9 0  -0.2 -0.9 0  -0.09999999999999998 -0.9 0  0 -0.9 0  0.09999999999999998 -0.9 0  0.2 -0.9 0  0.3 -0.9 0  0.4 -0.9 0  0.5 -0.9 0  -0.5 -0.88 0  -0.4 -0.88 0  -0.3 -0.88 0  -0.2 -0.88 0  -0.09999999999999998 -0.88 0  0 -0.88 0  0.09999999999999998 -0.88 0  0.2 -0.88 0  0.3 -0.88 0  0.4 -0.88 0  0.5 -0.88 0  -0.5 -0.86 0  -0.4 -0.86 0  -0.3 -0.86 0  -0.2 -0.86 0  -0.09999999999999998 -0.86 0  0 -0.86 0  0.09999999999999998 -0.86 0  0.2 -0.86 0  0.3 -0.86 0  0.4 -0.86 0  0.5 -0.86 0  -0.5 -0.84 0  -0.4 -0.84 0  -0.3 -0.84 0  -0.2 -0.84 0  -0.09999999999999998 -0.84 0  0 -0.84 0  0.09999999999999998 -0.84 0  0.2 -0.84 0  0.3 -0.84 0  0.4 -0.84 0  0.5 -0.84 0  -0.5 -0.8200000000000001 0  -0.4 -0.8200000000000001 0  -0.3 -0.8200000000000001 0  -0.2 -0.8200000000000001 0  -0.09999999999999998 -0.8200000000000001 0  0 -0.8200000000000001 0  0.09999999999999998 -0.8200000000000001 0  0.2 -0.8200000000000001 0  0.3 -0.8200000000000001 0  0.4 -0.8200000000000001 0  0.5 -0.8200000000000001 0  -0.5 -0.8 0  -0.4 -0.8 0  -0.3 -0.8 0  -0.2 -0.8 0  -0.09999999999999998 -0.8 0  0 -0.8 0  0.09999999999999998 -0.8 0  0.2 -0.8 0  0.3 -0.8 0  0.4 -0.8 0  0.5 -0.8 0  -0.5 -0.78 0  -0.4 -0.78 0  -0.3 -0.78 0  -0.2 -0.78 0  -0.09999999999999998 -0.78 0  0 -0.78 0  0.09999999999999998 -0.78 0  0.2 -0.78 0  0.3 -0.78 0  0.4 -0.78 0  0.5 -0.78 0  -0.5 -0.76 0  -0.4 -0.76 0  -0.3 -0.76 0  -0.2 -0.76 0  -0.09999999999999998 -0.76 0  0 -0.76 0  0.09999999999999998 -0.76 0  0.2 -0.76 0  0.3 -0.76 0  0.4 -0.76 0  0.5 -0.76 0  -0.5 -0.74 0  -0.4 -0.74 0  -0.3 -0.74 0  -0.2 -0.74 0  -0.09999999999999998 -0.74 0  0 -0.74 0  0.09999999999999998 -0.74 0  0.2 -0.74 0  0.3 -0.74 0  0.4 -0.74 0  0.5 -0.74 0  -0.5 -0.72 0  -0.4 -0.72 0  -0.3 -0.72 0  -0.2 -0.72 0  -0.09999999999999998 -0.72 0  0 -0.72 0  0.09999999999999998 -0.72 0  0.2 -0.72 0  0.3 -0.72 0  0.4 -0.72 0  0.5 -0.72 0  -0.5 -0.7 0  -0.4 -0.7 0  -0.3 -0.7 0  -0.2 -0.7 0  -0.09999999999999998 -0.7 0  0 -0.7 0  0.09999999999999998 -0.7 0  0.2 -0.7 0  0.3 -0.7 0  0.4 -0.7 0  0.5 -0.7 0  -0.5 -0.6799999999999999 0  -0.4 -0.6799999999999999 0  -0.3 -0.6799999999999999 0  -0.2 -0.6799999999999999 0  -0.09999999999999998 -0.6799999999999999 0  0 -0.6799999999999999 0  0.09999999999999998 -0.6799999999999999 0  0.2 -0.6799999999999999 0  0.3 -0.6799999999999999 0  0.4 -0.6799999999999999 0  0.5 -0.6799999999999999 0  -0.5 -0.6599999999999999 0  -0.4 -0.6599999999999999 0  -0.3 -0.6599999999999999 0  -0.2 -0.6599999999999999 0  -0.09999999999999998 -0.6599999999999999 0  0 -0.6599999999999999 0  0.09999999999999998 -0.6599999999999999 0  0.2 -0.6599999999999999 0  0.3 -0.6599999999999999 0  0.4 -0.6599999999999999 0  0.5 -0.6599999999999999 0  -0.5 -0.64 0  -0.4 -0.64 0  -0.3 -0.64 0  -0.2 -0.64 0  -0.09999999999999998 -0.64 0  0 -0.64 0  0.09999999999999998 -0.64 0  0.2 -0.64 0  0.3 -0.64 0  0.4 -0.64 0  0.5 -0.64 0  -0.5 -0.62 0  -0.4 -0.62 0  -0.3 -0.62 0  -0.2 -0.62 0  -0.09999999999999998 -0.62 0  0 -0.62 0  0.09999999999999998 -0.62 0  0.2 -0.62 0  0.3 -0.62 0  0.4 -0.62 0  0.5 -0.62 0  -0.5 -0.6 0  -0.4 -0.6 0  -0.3 -0.6 0  -0.2 -0.6 0  -0.09999999999999998 -0.6 0  0 -0.6 0  0.09999999999999998 -0.6 0  0.2 -0.6 0  0.3 -0.6 0  0.4 -0.6 0  0.5 -0.6 0  -0.5 -0.5800000000000001 0  -0.4 -0.5800000000000001 0  -0.3 -0.5800000000000001 0  -0.2 -0.5800000000000001 0  -0.09999999999999998 -0.5800000000000001 0  0 -0.5800000000000001 0  0.09999999999999998 -0.5800000000000001 0  0.2 -0.5800000000000001 0  0.3 -0.5800000000000001 0  0.4 -0.5800000000000001 0  0.5 -0.5800000000000001 0  -0.5 -0.5600000000000001 0  -0.4 -0.5600000000000001 0  -0.3 -0.5600000000000001 0  -0.2 -0.5600000000000001 0  -0.09999999999999998 -0.5600000000000001 0  0 -0.5600000000000001 0  0.09999999999999998 -0.5600000000000001 0  0.2 -0.5600000000000001 0  0.3 -0.5600000000000001 0  0.4 -0.5600000000000001 0  0.5 -0.5600000000000001 0  -0.5 -0.54 0  -0.4 -0.54 0  -0.3 -0.54 0  -0.2 -0.54 0  -0.09999999999999998 -0.54 0  0 -0.54 0  0.09999999999999998 -0.54 0  0.2 -0.54 0  0.3 -0.54 0  0.4 -0.54 0  0.5 -0.54 0  -0.5 -0.52 0  -0.4 -0.52 0  -0.3 -0.52 0  -0.2 -0.52 0  -0.09999999999999998 -0.52 0  0 -0.52 0  0.09999999999999998 -0.52 0  0.2 -0.52 0  0.3 -0.52 0  0.4 -0.52 0  0.5 -0.52 0  -0.5 -0.5 0  -0.4 -0.5 0  -0.3 -0.5 0  -0.2 -0.5 0  -0.09999999999999998 -0.5 0  0 -0.5 0  0.09999999999999998 -0.5 0  0.2 -0.5 0  0.3 -0.5 0  0.4 -0.5 0  0.5 -0.5 0  -0.5 -0.48 0  -0.4 -0.48 0  -0.3 -0.48 0  -0.2 -0.48 0  -0.09999999999999998 -0.48 0  0 -0.48 0  0.09999999999999998 -0.48 0  0.2 -0.48 0  0.3 -0.48 0  0.4 -0.48 0  0.5 -0.48 0  -0.5 -0.46 0  -0.4 -0.46 0  -0.3 -0.46 0  -0.2 -0.46 0  -0.09999999999999998 -0.46 0  0 -0.46 0  0.09999999999999998 -0.46 0  0.2 -0.46 0  0.3 -0.46 0  0.4 -0.46 0  0.5 -0.46 0  -0.5 -0.4399999999999999 0  -0.4 -0.4399999999999999 0  -0.3 -0.4399999999999999 0  -0.2 -0.4399999999999999 0  -0.09999999999999998 -0.4399999999999999 0  0 -0.4399999999999999 0  0.09999999999999998 -0.4399999999999999 0  0.2 -0.4399999999999999 0  0.3 -0.4399999999999999 0  0.4 -0.4399999999999999 0  0.5 -0.4399999999999999 0  -0.5 -0.42 0  -0.4 -0.42 0  -0.3 -0.42 0  -0.2 -0.42 0  -0.09999999999999998 -0.42 0  0 -0.42 0  0.09999999999999998 -0.42 0  0.2 -0.42 0  0.3 -0.42 0  0.4 -0.42 0  0.5 -0.42 0  -0.5 -0.4 0  -0.4 -0.4 0  -0.3 -0.4 0  -0.2 -0.4 0  -0.09999999999999998 -0.4 0  0 -0.4 0  0.09999999999999998 -0.4 0  0.2 -0.4 0  0.3 -0.4 0  0.4 -0.4 0  0.5 -0.4 0  -0.5 -0.38 0  -0.4 -0.38 0  -0.3 -0.38 0  -0.2 -0.38 0  -0.09999999999999998 -0.38 0  0 -0.38 0  0.09999999999999998 -0.38 0  0.2 -0.38 0  0.3 -0.38 0  0.4 -0.38 0  0.5 -0.38 0  -0.5 -0.36 0  -0.4 -0.36 0  -0.3 -0.36 0  -0.2 -0.36 0  -0.09999999999999998 -0.36 0  0 -0.36 0  0.09999999999999998 -0.36 0  0.2 -0.36 0  0.3 -0.36 0  0.4 -0.36 0  0.5 -0.36 0  -0.5 -0.34 0  -0.4 -0.34 0  -0.3 -0.34 0  -0.2 -0.34 0  -0.09999999999999998 -0.34 0  0 -0.34 0  0.09999999999999998 -0.34 0  0.2 -0.34 0  0.3 -0.34 0  0.4 -0.34 0  0.5 -0.34 0  -0.5 -0.32 0  -0.4 -0.32 0  -0.3 -0.32 0  -0.2 -0.32 0  -0.09999999999999998 -0.32 0  0 -0.32 0  0.09999999999999998 -0.32 0  0.2 -0.32 0  0.3 -0.32 0  0.4 -0.32 0  0.5 -0.32 0  -0.5 -0.3 0  -0.4 -0.3 0  -0.3 -0.3 0  -0.2 -0.3 0  -0.09999999999999998 -0.3 0  0 -0.3 0  0.09999999999999998 -0.3 0  0.2 -0.3 0  0.3 -0.3 0  0.4 -0.3 0  0.5 -0.3 0  -0.5 -0.28 0  -0.4 -0.28 0  -0.3 -0.28 0  -0.2 -0.28 0  -0.09999999999999998 -0.28 0  0 -0.28 0  0.09999999999999998 -0.28 0  0.2 -0.28 0  0.3 -0.28 0  0.4 -0.28 0  0.5 -0.28 0  -0.5 -0.26 0  -0.4 -0.26 0  -0.3 -0.26 0  -0.2 -0.26 0  -0.09999999999999998 -0.26 0  0 -0.26 0  0.09999999999999998 -0.26 0  0.2 -0.26 0  0.3 -0.26 0  0.4 -0.26 0  0.5 -0.26 0  -0.5 -0.24 0  -0.4 -0.24 0  -0.3 -0.24 0  -0.2 -0.24 0  -0.09999999999999998 -0.24 0  0 -0.24 0  0.09999999999999998 -0.24 0  0.2 -0.24 0  0.3 -0.24 0  0.4 -0.24 0  0.5 -0.24 0  -0.5 -0.22 0  -0.4 -0.22 0  -0.3 -0.22 0  -0.2 -0.22 0  -0.09999999999999998 -0.22 0  0 -0.22 0  0.09999999999999998 -0.22 0  0.2 -0.22 0  0.3 -0.22 0  0.4 -0.22 0  0.5 -0.22 0  -0.5 -0.2 0  -0.4 -0.2 0  -0.3 -0.2 0  -0.2 -0.2 0  -0.09999999999999998 -0.2 0  0 -0.2 0  0.09999999999999998 -0.2 0  0.2 -0.2 0  0.3 -0.2 0  0.4 -0.2 0  0.5 -0.2 0  -0.5 -0.18 0  -0.4 -0.18 0  -0.3 -0.18 0  -0.2 -0.18 0  -0.09999999999999998 -0.18 0  0 -0.18 0  0.09999999999999998 -0.18 0  0.2 -0.18 0  0.3 -0.18 0  0.4 -0.18 0  0.5 -0.18 0  -0.5 -0.16 0  -0.4 -0.16 0  -0.3 -0.16 0  -0.2 -0.16 0  -0.09999999999999998 -0.16 0  0 -0.16 0  0.09999999999999998 -0.16 0  0.2 -0.16 0  0.3 -0.16 0  0.4 -0.16 0  0.5 -0.16 0  -0.5 -0.14 0  -0.4 -0.14 0  -0.3 -0.14 0  -0.2 -0.14 0  -0.09999999999999998 -0.14 0  0 -0.14 0  0.09999999999999998 -0.14 0  0.2 -0.14 0  0.3 -0.14 0  0.4 -0.14 0  0.5 -0.14 0  -0.5 -0.12 0  -0.4 -0.12 0  -0.3 -0.12 0  -0.2 -0.12 0  -0.09999999999999998 -0.12 0  0 -0.12 0  0.09999999999999998 -0.12 0  0.2 -0.12 0  0.3 -0.12 0  0.4 -0.12 0  0.5 -0.12 0  -0.5 -0.09999999999999998 0  -0.4 -0.09999999999999998 0  -0.3 -0.09999999999999998 0  -0.2 -0.09999999999999998 0  -0.09999999999999998 -0.09999999999999998 0  0 -0.09999999999999998 0  0.09999999999999998 -0.09999999999999998 0  0.2 -0.09999999999999998 0  0.3 -0.09999999999999998 0  0.4 -0.09999999999999998 0  0.5 -0.09999999999999998 0  -0.5 -0.07999999999999996 0  -0.4 -0.07999999999999996 0  -0.3 -0.07999999999999996 0  -0.2 -0.07999999999999996 0  -0.09999999999999998 -0.07999999999999996 0  0 -0.07999999999999996 0  0.09999999999999998 -0.07999999999999996 0  0.2 -0.07999999999999996 0  0.3 -0.07999999999999996 0  0.4 -0.07999999999999996 0  0.5 -0.07999999999999996 0  -0.5 -0.06000000000000005 0  -0.4 -0.06000000000000005 0  -0.3 -0.06000000000000005 0  -0.2 -0.06000000000000005 0  -0.09999999
[...]
<PointData  Vectors="flow"> 
<DataArray  type="Float64"  Name="flow"  NumberOfComponents="3" format="ascii">-1.1531360806410179e-03 3.2290394962835750e-03 0.0000000000000000e+00  3.1563921846095840e-08 3.2290394962615088e-03 0.0000000000000000e+00  1.3479010737333097e-13 3.2290394962761395e-03 0.0000000000000000e+00  7.7570169954276223e-15 3.2290394962858839e-03 0.0000000000000000e+00  8.5258586637637219e-15 3.2290394963025259e-03 0.0000000000000000e+00  -5.2927801709895993e-16 3.2290394962772675e-03 0.0000000000000000e+00  -2.9288701475856500e-14 3.2290394962981904e-03 0.0000000000000000e+00  -3.5441808556518114e-14 3.2290394962741424e-03 0.0000000000000000e+00  -1.7299032753445965e-13 3.2290394962696308e-03 0.0000000000000000e+00  -3.1563952525670449e-08 3.2290394962589176e-03 0.0000000000000000e+00  1.1531360806329549e-03 3.2290394962644223e-03 0.0000000000000000e+00  -1.1526310533580308e-03 1.7987394459211443e-02 0.0000000000000000e+00  3.1566098275861410e-08 1.7987394459197899e-02 0.0000000000000000e+00  1.3046929820372184e-13 1.7987394459203800e-02 0.0000000000000000e+00  5.5789361390724138e-15 1.7987394459177939e-02 0.0000000000000000e+00  6.9658779665117524e-15 1.7987394459184881e-02 0.0000000000000000e+00  5.5545559911161064e-15 1.7987394459179563e-02 0.0000000000000000e+00  -2.9654745786415325e-14 1.7987394459202194e-02 0.0000000000000000e+00  -3.8325916764960410e-14 1.7987394459168228e-02 0.0000000000000000e+00  -1.6602261456720496e-13 1.7987394459198079e-02 0.0000000000000000e+00  -3.1566129740672288e-08 1.7987394459184469e-02 0.0000000000000000e+00  1.1526310533443019e-03 1.7987394459194041e-02 0.0000000000000000e+00  -1.1511159021658350e-03 3.5959031856856352e-02 0.0000000000000000e+00  3.1572469310186516e-08 3.5959031856866698e-02 0.0000000000000000e+00  1.1289230446936415e-13 3.5959031856860571e-02 0.0000000000000000e+00  6.0573671117056101e-15 3.5959031856844161e-02 0.0000000000000000e+00  9.3571133334373096e-15 3.5959031856866969e-02 0.0000000000000000e+00  3.5184790030307497e-15 3.5959031856875330e-02 0.0000000000000000e+00  -3.3734859752939500e-14 3.5959031856841475e-02 0.0000000000000000e+00  -3.4991951410672449e-14 3.5959031856858066e-02 0.0000000000000000e+00  -1.4857922684702682e-13 3.5959031856858593e-02 0.0000000000000000e+00  -3.1572504201583401e-08 3.5959031856859225e-02 0.0000000000000000e+00  1.1511159021496762e-03 3.5959031856836021e-02 0.0000000000000000e+00  -1.1485904241403059e-03 5.3899152983471990e-02 0.0000000000000000e+00  3.1582557187146298e-08 5.3899152983499586e-02 0.0000000000000000e+00  8.6767066900290541e-14 5.3899152983463511e-02 0.0000000000000000e+00  3.2856970689807072e-15 5.3899152983456593e-02 0.0000000000000000e+00  1.4489718061399534e-14 5.3899152983475050e-02 0.0000000000000000e+00  2.1045737611147594e-15 5.3899152983502396e-02 0.0000000000000000e+00  -3.3601648788897991e-14 5.3899152983476736e-02 0.0000000000000000e+00  -3.6373971322547723e-14 5.3899152983483217e-02 0.0000000000000000e+00  -1.2814749578628767e-13 5.3899152983472254e-02 0.0000000000000000e+00  -3.1582593024203938e-08 5.3899152983459507e-02 0.0000000000000000e+00  1.1485904241202148e-03 5.3899152983435790e-02 0.0000000000000000e+00  -1.1450542980387674e-03 7.1791994492561698e-02 0.0000000000000000e+00  3.1595569573869936e-08 7.1791994492536246e-02 0.0000000000000000e+00  4.4320892116610723e-14 7.1791994492532402e-02 0.0000000000000000e+00  7.4223561856066917e-15 7.1791994492522271e-02 0.0000000000000000e+00  1.8016741274379642e-14 7.1791994492556147e-02 0.0000000000000000e+00  2.3043694114730318e-15 7.1791994492551553e-02 0.0000000000000000e+00  -3.6284741199969773e-14 7.1791994492547320e-02 0.0000000000000000e+00  -3.2629767024352824e-14 7.1791994492549471e-02 0.0000000000000000e+00  -9.4099532952537635e-14 7.1791994492554898e-02 0.0000000000000000e+00  -3.1595612849900222e-08 7.1791994492537314e-02 0.0000000000000000e+00  1.1450542980240633e-03 7.1791994492496930e-02 0.0000000000000000e+00  -1.1405071096195767e-03 8.9621787228442329e-02 0.0000000000000000e+00  3.1610413109244717e-08 8.9621787228422095e-02 0.0000000000000000e+00  4.2025684980678779e-15 8.9621787228410382e-02 0.0000000000000000e+00  1.3999376495136785e-14 8.9621787228444563e-02 0.0000000000000000e+00  1.7839593751849641e-14 8.9621787228443606e-02 0.0000000000000000e+00  -8.8440506156974772e-16 8.9621787228426925e-02 0.0000000000000000e+00  -3.3915258190534285e-14 8.9621787228431768e-02 0.0000000000000000e+00  -3.6377244449690843e-14 8.9621787228446881e-02 0.0000000000000000e+00  -5.1617734474580762e-14 8.9621787228415142e-02 0.0000000000000000e+00  -3.1610466254631371e-08 8.9621787228415087e-02 0.0000000000000000e+00  1.1405071095712130e-03 8.9621787228390162e-02 0.0000000000000000e+00  -1.1349483865636476e-03 1.0737275502535222e-01 0.0000000000000000e+00  3.1625694902305424e-08 1.0737275502535912e-01 0.0000000000000000e+00  -4.7819622063447209e-14 1.0737275502539431e-01 0.0000000000000000e+00  1.5524266872893245e-14 1.0737275502537318e-01 0.0000000000000000e+00  1.3645474194680266e-14 1.0737275502537028e-01 0.0000000000000000e+00  3.1135232477270333e-15 1.0737275502539124e-01 0.0000000000000000e+00  -3.2063368787242728e-14 1.0737275502538957e-01 0.0000000000000000e+00  -3.8508635339672712e-14 1.0737275502536980e-01 0.0000000000000000e+00  -6.8206486421379191e-15 1.0737275502534829e-01 0.0000000000000000e+00  -3.1625749542213435e-08 1.0737275502533840e-01 0.0000000000000000e+00  1.1349483865343744e-03 1.0737275502534568e-01 0.0000000000000000e+00  -1.1283776431158378e-03 1.2502911412759410e-01 0.0000000000000000e+00  3.1639757834588064e-08 1.2502911412757750e-01 0.0000000000000000e+00  -1.0373772605830965e-13 1.2502911412761572e-01 0.0000000000000000e+00  5.4214791023798924e-15 1.2502911412753973e-01 0.0000000000000000e+00  2.1822653278723469e-14 1.2502911412761689e-01 0.0000000000000000e+00  1.9470698787390393e-15 1.2502911412758502e-01 0.0000000000000000e+00  -3.7648932154550441e-14 1.2502911412762882e-01 0.0000000000000000e+00  -4.3133265079133270e-14 1.2502911412754505e-01 0.0000000000000000e+00  5.8923467329669431e-14 1.2502911412754333e-01 0.0000000000000000e+00  -3.1639805938468121e-08 1.2502911412757700e-01 0.0000000000000000e+00  1.1283776430682576e-03 1.2502911412754741e-01 0.0000000000000000e+00  -1.1207944333847713e-03 1.4257507337433292e-01 0.0000000000000000e+00  3.1650640316612023e-08 1.4257507337437245e-01 0.0000000000000000e+00  -1.8179936186665148e-13 1.4257507337431052e-01 0.0000000000000000e+00  1.2516132508861643e-14 1.4257507337432002e-01 0.0000000000000000e+00  2.7504614397868749e-14 1.4257507337433009e-01 0.0000000000000000e+00  1.8303589687020026e-15 1.4257507337432793e-01 0.0000000000000000e+00  -3.8195534186073595e-14 1.4257507337435679e-01 0.0000000000000000e+00  -5.8373781050712424e-14 1.4257507337427552e-01 0.0000000000000000e+00  1.2827845082034052e-13 1.4257507337426506e-01 0.0000000000000000e+00  -3.1650691305226444e-08 1.4257507337427194e-01 0.0000000000000000e+00  1.1207944333450628e-03 1.4257507337426362e-01 0.0000000000000000e+00  -1.1121984133651596e-03 1.5999483528630515e-01 0.0000000000000000e+00  3.1656173676992189e-08 1.5999483528631381e-01 0.0000000000000000e+00  -2.5579326444207804e-13 1.5999483528629893e-01 0.0000000000000000e+00  1.1196107718680131e-14 1.5999483528633282e-01 0.0000000000000000e+00  2.0905188760408669e-14 1.5999483528629316e-01 0.0000000000000000e+00  8.6970943986394811e-15 1.5999483528631006e-01 0.0000000000000000e+00  -4.7620906028696965e-14 1.5999483528625924e-01 0.0000000000000000e+00  -6.2345374461394350e-14 1.5999483528626218e-01 0.0000000000000000e+00  2.0254810805140098e-13 1.5999483528626285e-01 0.0000000000000000e+00  -3.1656229952843475e-08 1.5999483528624836e-01 0.0000000000000000e+00  1.1121984133381196e-03 1.5999483528621192e-01 0.0000000000000000e+00  -1.1025894107258034e-03 1.7727259818096550e-01 0.0000000000000000e+00  3.1653960558511655e-08 1.7727259818100222e-01 0.0000000000000000e+00  -3.3908609407918188e-13 1.7727259818102961e-01 0.0000000000000000e+00  1.1781558603674221e-14 1.7727259818103056e-01 0.0000000000000000e+00  2.5668069089698594e-14 1.7727259818100718e-01 0.0000000000000000e+00  -1.6521365144758446e-15 1.7727259818107788e-01 0.0000000000000000e+00  -5.3251586312230798e-14 1.7727259818095881e-01 0.0000000000000000e+00  -5.5822591633990751e-14 1.7727259818100941e-01 0.0000000000000000e+00  2.8482795876571155e-13 1.7727259818099203e-01 0.0000000000000000e+00  -3.1654019552524577e-08 1.7727259818101285e-01 0.0000000000000000e+00  1.1025894106910039e-03 1.7727259818096661e-01 0.0000000000000000e+00  -1.0919675016885836e-03 1.9439255943450715e-01 0.0000000000000000e+00  3.1641384571108049e-08 1.9439255943448455e-01 0.0000000000000000e+00  -4.2183684092619981e-13 1.9439255943448908e-01 0.0000000000000000e+00  9.3738888120637887e-15 1.9439255943453998e-01 0.0000000000000000e+00  2.5865620161345334e-14 1.9439255943447653e-01 0.0000000000000000e+00  -3.0769423338511083e-15 1.9439255943448586e-01 0.0000000000000000e+00  -5.9357432374050812e-14 1.9439255943445127e-01 0.0000000000000000e+00  -5.4917578709137860e-14 1.9439255943446848e-01 0.0000000000000000e+00  3.6833663434733691e-13 1.9439255943444395e-01 0.0000000000000000e+00  -3.1641430189744489e-08 1.9439255943445116e-01 0.0000000000000000e+00  1.0919675016338129e-03 1.9439255943446729e-01 0.0000000000000000e+00  -1.0803330945058809e-03 2.1133891999547066e-01 0.0000000000000000e+00  3.1615648576077249e-08 2.1133891999546028e-01 0.0000000000000000e+00  -5.0818509662429650e-13 2.1133891999549817e-01 0.0000000000000000e+00  1.1668160471690979e-14 2.1133891999553894e-01 0.0000000000000000e+00  1.4613908726227066e-14 2.1133891999548413e-01 0.0000000000000000e+00  -3.2191754885689673e-15 2.1133891999546076e-01 0.0000000000000000e+00  -6.1788978936612460e-14 2.1133891999545462e-01 0.0000000000000000e+00  -5.5333432210344519e-14 2.1133891999542162e-01 0.0000000000000000e+00  4.5831418269298385e-13 2.1133891999538121e-01 0.0000000000000000e+00  -3.1615700856914454e-08 2.1133891999543250e-01 0.0000000000000000e+00  1.0803330944510671e-03 2.1133891999540555e-01 0.0000000000000000e+00  -1.0676870183642312e-03 2.2809589024639207e-01 0.0000000000000000e+00  3.1573848404641648e-08 2.2809589024636914e-01 0.0000000000000000e+00  -5.9175420404034692e-13 2.2809589024643673e-01 0.0000000000000000e+00  3.6747293718603034e-15 2.2809589024642313e-01 0.0000000000000000e+00  1.2093942578294805e-14 2.2809589024642238e-01 0.0000000000000000e+00  -8.6242291140477284e-15 2.2809589024638433e-01 0.0000000000000000e+00  -6.6491569218048378e-14 2.2809589024635538e-01 0.0000000000000000e+00  -6.5217078100127497e-14 2.2809589024634272e-01 0.0000000000000000e+00  5.5548456723166524e-13 2.2809589024635812e-01 0.0000000000000000e+00  -3.1573888298210422e-08 2.2809589024635710e-01 0.0000000000000000e+00  1.0676870183203263e-03 2.2809589024636093e-01 0.0000000000000000e+00  -1.0540306172035299e-03 2.4464769729125191e-01 0.0000000000000000e+00  3.1512921768954387e-08 2.4464769729126576e-01 0.0000000000000000e+00  -6.8398666837942994e-13 2.4464769729128863e-01 0.0000000000000000e+00  1.7980403894009006e-15 2.4464769729128000e-01 0.0000000000000000e+00  9.2900483477033292e-15 2.4464769729130323e-01 0.0000000000000000e+00  -2.1854405740742922e-14 2.4464769729119426e-01 0.0000000000000000e+00  -7.0030518232459475e-14 2.4464769729119956e-01 0.0000000000000000e+00  -5.6829566567491261e-14 2.4464769729117411e-01 0.0000000000000000e+00  6.5817515834316505e-13 2.4464769729126179e-01 0.0000000000000000e+00  -3.1512962937319493e-08 2.4464769729121844e-01 0.0000000000000000e+00  1.0540306171467546e-03 2.4464769729123323e-01 0.0000000000000000e+00  -1.0393658470224045e-03 2.6097859373703425e-01 0.0000000000000000e+00  3.1429728075322673e-08 2.6097859373703947e-01 0.0000000000000000e+00  -7.8725621086373724e-13 2.6097859373695448e-01 0.0000000000000000e+00  1.0411152675085777e-14 2.6097859373703897e-01 0.0000000000000000e+00  4.1210538212275286e-16 2.6097859373708915e-01 0.0000000000000000e+00  -3.2359751221364683e-14 2.6097859373701010e-01 0.0000000000000000e+00  -6.7552622443005750e-14 2.6097859373697546e-01 0.0000000000000000e+00  -4.8602538310174232e-14 2.6097859373704790e-01 0.0000000000000000e+00  7.5682917943395783e-13 2.6097859373701349e-01 0.0000000000000000e+00  -3.1429776280532983e-08 2.6097859373698140e-01 0.0000000000000000e+00  1.0393658469740623e-03 2.6097859373701482e-01 0.0000000000000000e+00  -1.0236953764085879e-03 2.7707286802051062e-01 0.0000000000000000e+00  3.1321072861900119e-08 2.7707286802047593e-01 0.0000000000000000e+00  -8.8782277653587622e-13 2.7707286802044756e-01 0.0000000000000000e+00  2.5590500249476466e-14 2.7707286802045539e-01 0.0000000000000000e+00  -5.3364021689247198e-16 2.7707286802049741e-01 0.0000000000000000e+00  -3.9143995528847736e-14 2.7707286802049730e-01 0.0000000000000000e+00  -6.5943971881702847e-14 2.7707286802047670e-01 0.0000000000000000e+00  -5.4794487192573334e-14 2.7707286802042003e-01 0.0000000000000000e+00  8.4926893787755925e-13 2.7707286802036307e-01 0.0000000000000000e+00  -3.1321122080730563e-08 2.7707286802041747e-01 0.0000000000000000e+00  1.0236953763774826e-03 2.7707286802039310e-01 0.0000000000000000e+00  -1.0070226884616488e-03 2.9291485631582970e-01 0.0000000000000000e+00  3.1183751280164485e-08 2.9291485631580610e-01 0.0000000000000000e+00  -9.9261757560820623e-13 2.9291485631575859e-01 0.0000000000000000e+00  2.7696157801634124e-14 2.9291485631572978e-01 0.0000000000000000e+00  7.9189652501513882e-15 2.9291485631583836e-01 0.0000000000000000e+00  -4.8023196579306088e-14 2.9291485631577163e-01 0.0000000000000000e+00  -7.9749330824265546e-14 2.9291485631571279e-01 0.0000000000000000e+00  -6.2202631076099205e-14 2.9291485631568381e-01 0.0000000000000000e+00  9.5644967378494321e-13 2.9291485631567532e-01 0.0000000000000000e+00  -3.1183809160930925e-08 2.9291485631566994e-01 0.0000000000000000e+00  1.0070226883921551e-03 2.9291485631570729e-01 0.0000000000000000e+00  -9.8935218373064613e-04 3.0848895604419863e-01 0.0000000000000000e+00  3.1014545057686710e-08 3.0848895604420112e-01 0.0000000000000000e+00  -1.1072166146389698e-12 3.0848895604414966e-01 0.0000000000000000e+00  3.9181908999177212e-14 3.0848895604414367e-01 0.0000000000000000e+00  1.2371753282571590e-14 3.0848895604416959e-01 0.0000000000000000e+00  -5.5289571627044959e-14 3.0848895604419579e-01 0.0000000000000000e+00  -8.1622788868994494e-14 3.0848895604424592e-01 0.0000000000000000e+00  -7.1595515614786957e-14 3.0848895604418669e-01 0.0000000000000000e+00  1.0411655593982064e-12 3.0848895604404797e-01 0.0000000000000000e+00  -3.1014595735012155e-08 3.0848895604412790e-01 0.0000000000000000e+00  9.8935218370232395e-04 3.0848895604419713e-01 0.0000000000000000e+00  -9.7068928292206019e-04 3.2377964098882739e-01 0.0000000000000000e+00  3.0810294687067933e-08 3.2377964098884038e-01 0.0000000000000000e+00  -1.1976335795640250e-12 3.2377964098878631e-01 0.0000000000000000e+00  3.4777335936225844e-14 3.2377964098879608e-01 0.0000000000000000e+00  1.2683462506754258e-14 3.2377964098878487e-01 0.0000000000000000e+00  -3.4105884333936852e-14 3.2377964098889989e-01 0.0000000000000000e+00  -8.3382404539120054e-14 3.2377964098891909e-01 0.0000000000000000e+00  -9.7761993030445972e-14 3.2377964098884343e-01 0.0000000000000000e+00  1.1432468997170449e-12 3.2377964098877432e-01 0.0000000000000000e+00  -3.0810335155934233e-08 3.2377964098886991e-01 0.0000000000000000e+00  9.7068928287728882e-04 3.2377964098881046e-01 0.0000000000000000e+00  -9.5104052812723053e-04 3.3877147800289853e-01 0.0000000000000000e+00  3.0567901372089958e-08 3.3877147800293905e-01 0.0000000000000000e+00  -1.3069690333264468e-12 3.3877147800288837e-01 0.0000000000000000e+00  3.8099676018404376e-14 3.3877147800286150e-01 0.0000000000000000e+00  2.7626732621874346e-14 3.3877147800288770e-01 0.0000000000000000e+00  -2.6198915808834038e-14 3.3877147800295149e-01 0.0000000000000000e+00  -9.4461723942149764e-14 3.3877147800288776e-01 0.0000000000000000e+00  -1.0472335125056073e-13 3.3877147800281809e-01 0.0000000000000000e+00  1.2437810116302850e-12 3.3877147800289426e-01 0.0000000000000000e+00  -3.0567954706051154e-08 3.3877147800287788e-01 0.0000000000000000e+00  9.5104052807671322e-04 3.3877147800285534e-01 0.0000000000000000e+00  -9.3041368178236412e-04 3.5344914528230609e-01 0.0000000000000000e+00  3.0284381724288080e-08 3.5344914528226073e-01 0.0000000000000000e+00  -1.3962962932946242e-12 3.5344914528229998e-01 0.0000000000000000e+00  3.7351529039024301e-14 3.5344914528227162e-01 0.0000000000000000e+00  2.9710787956758719e-14 3.5344914528219407e-01 0.0000000000000000e+00  -2.7797229540786699e-14 3.5344914528223081e-01 0.0000000000000000e+00  -1.0438189744768791e-13 3.5344914528222954e-01 0.0000000000000000e+00  -9.9889358165569478e-14 3.5344914528229671e-01 0.0000000000000000e+00  1.3327164409321801e-12 3.5344914528234561e-01 0.0000000000000000e+00  -3.0284437367121350e-08 3.5344914528220905e-01 0.0000000000000000e+00  9.3041368175169551e-04 3.5344914528225480e-01 0.0000000000000000e+00  -9.0881782225206550e-04 3.6779745215759674e-01 0.0000000000000000e+00  2.9956882768961302e-08 3.6779745215760651e-01 0.0000000000000000e+00  -1.4788307458821753e-12 3.6779745215761300e-01 0.0000000000000000e+00  1.5607933896335617e-14 3.6779745215750631e-01 0.0000000000000000e+00  2.3117022804831590e-14 3.6779745215751308e-01 0.0000000000000000e+00  -2.0053218286960812e-14 3.6779745215755089e-01 0.0000000000000000e+00  -9.3271207037483925e-14 3.6779745215749432e-01 0.0000000000000000e+00  -8.1651487791018233e-14 3.6779745215757520e-01 0.0000000000000000e+00  1.4074440299756243e-12 3.6779745215760740e-01 0.0000000000000000e+00  -2.9956940281558406e-08 3.6779745215760107e-01 0.0000000000000000e+00  9.0881782221667530e-04 3.6779745215763671e-01 0.0000000000000000e+00  -8.8626343491638208e-04 3.8180136034519641e-01 0.0000000000000000e+00  2.9582713839606260e-08 3.8180136034533441e-01 0.0000000000000000e+00  -1.5729825293612826e-12 3.8180136034512052e-01 0.0000000000000000e+00  1.9341064862219126e-14 3.8180136034511419e-01 0.0000000000000000e+00  3.2867537260456903e-14 3.8180136034520878e-01 0.0000000000000000e+00  -3.4195668276472257e-14 3.8180136034513995e-01 0.0000000000000000e+00  -8.6398800106189909e-14 3.8180136034515255e-01 0.0000000000000000e+00  -6.6222369518227521e-14 3.8180136034534279e-01 0.0000000000000000e+00  1.4857506314949387e-12 3.8180136034532292e-01 0.0000000000000000e+00  -2.9582778619595197e-08 3.8180136034524237e-01 0.0000000000000000e+00  8.8626343487080580e-04 3.8180136034519735e-01 0.0000000000000000e+00  -8.6276249797066914e-04 3.9544600658000806e-01 0.0000000000000000e+00  2.9159396632790754e-08 3.9544600658009849e-01 0.0000000000000000e+00  -1.6751000852141474e-12 3.9544600658005724e-01 0.0000000000000000e+00  2.9481164807957577e-14 3.9544600658004408e-01 0.0000000000000000e+00  3.1618751453679977e-14 3.9544600657998857e-01 0.0000000000000000e+00  -2.8228377842696180e-14 3.9544600658004392e-01 0.0000000000000000e+00  -6.1197854455471855e-14 3.9544600658016693e-01 0.0000000000000000e+00  -6.1197457918418880e-14 3.9544600658013618e-01 0.0000000000000000e+00  1.5416818296156850e-12 3.9544600658005252e-01 0.0000000000000000e+00  -2.9159475881521544e-08 3.9544600658009232e-01 0.0000000000000000e+00  8.6276249798436131e-04 3.9544600658005413e-01 0.0000000000000000e+00  -8.3832856199950070e-04 4.0871672653956059e-01 0.0000000000000000e+00  2.8684686886210641e-08 4.0871672653941749e-01 0.0000000000000000e+00  -1.7159872192095498e-12 4.0871672653947139e-01 0.0000000000000000e+00  1.0388744188212333e-14 4.0871672653954777e-01 0.0000000000000000e+00  3.6487282384357849e-14 4.0871672653946073e-01 0.0000000000000000e+00  -5.9913511865103756e-15 4.0871672653958224e-01 0.0000000000000000e+00  -6.7133815733174559e-14 4.0871672653958607e-01 0.0000000000000000e+00  -8.0