<?xml version="1.0"?>
<VTKFile type="UnstructuredGrid"  version="0.1"  >
<UnstructuredGrid>
<Piece  NumberOfPoints="1091" NumberOfCells="2050">
<Points>
<DataArray  type="Float64"  NumberOfComponents="3"  format="ascii">-0.5 -1 0  -0.4 -1 0  -0.3 -1 0  -0.2 -1 0  -0.09999999999999998 -1 0  0 -1 0  0.09999999999999998 -1 0  0.2 -1 0  0.3 -1 0  0.4 -1 0  0.5 -1 0  -0.5 -0.98 0  -0.4 -0.98 0  -0.3 -0.98 0  -0.2 -0.98 0  -0.09999999999999998 -0.98 0  0 -0.98 0  0.09999999999999998 -0.98 0  0.2 -0.98 0  0.3 -0.98 0  0.4 -0.98 0  0.5 -0.98 0  -0.5 -0.96 0  -0.4 -0.96 0  -0.3 -0.96 0  -0.2 -0.96 0  -0.09999999999999998 -0.96 0  0 -0.96 0  0.09999999999999998 -0.96 0  0.2 -0.96 0  0.3 -0.96 0  0.4 -0.96 0  0.5 -0.96 0  -0.5 -0.9399999999999999 0  -0.4 -0.9399999999999999 0  -0.3 -0.9399999999999999 0  -0.2 -0.9399999999999999 0  -0.09999999999999998 -0.9399999999999999 0  0 -0.9399999999999999 0  0.09999999999999998 -0.9399999999999999 0  0.2 -0.9399999999999999 0  0.3 -0.9399999999999999 0  0.4 -0.9399999999999999 0  0.5 -0.9399999999999999 0  -0.5 -0.92 0  -0.4 -0.92 0  -0.3 -0.92 0  -0.2 -0.92 0  -0.09999999999999998 -0.92 0  0 -0.92 0  0.09999999999999998 -0.92 0  0.2 -0.92 0  0.3 -0.92 0  0.4 -0.92 0  0.5 -0.92 0  -0.5 -0.9 0  -0.4 -0.9 0  -0.3 -0.9 0  -0.2 -0.9 0  -0.09999999999999998 -0.9 0  0 -0.9 0  0.09999999999999998 -0.9 0  0.2 -0.9 0  0.3 -0.9 0  0.4 -0.9 0  0.5 -0.9 0  -0.5 -0.88 0  -0.4 -0.88 0  -0.3 -0.88 0  -0.2 -0.88 0  -0.09999999999999998 -0.88 0  0 -0.88 0  0.09999999999999998 -0.88 0  0.2 -0.88 0  0.3 -0.88 0  0.4 -0.88 0  0.5 -0.88 0  -0.5 -0.86 0  -0.4 -0.86 0  -0.3 -0.86 0  -0.2 -0.86 0  -0.09999999999999998 -0.86 0  0 -0.86 0  0.09999999999999998 -0.86 0  0.2 -0.86 0  0.3 -0.86 0  0.4 -0.86 0  0.5 -0.86 0  -0.5 -0.84 0  -0.4 -0.84 0  -0.3 -0.84 0  -0.2 -0.84 0  -0.09999999999999998 -0.84 0  0 -0.84 0  0.09999999999999998 -0.84 0  0.2 -0.84 0  0.3 -0.84 0  0.4 -0.84 0  0.5 -0.84 0  -0.5 -0.8200000000000001 0  -0.4 -0.8200000000000001 0  -0.3 -0.8200000000000001 0  -0.2 -0.8200000000000001 0  -0.09999999999999998 -0.8200000000000001 0  0 -0.8200000000000001 0  0.09999999999999998 -0.8200000000000001 0  0.2 -0.8200000000000001 0  0.3 -0.8200000000000001 0  0.4 -0.8200000000000001 0  0.5 -0.8200000000000001 0  -0.5 -0.8 0  -0.4 -0.8 0  -0.3 -0.8 0  -0.2 -0.8 0  -0.09999999999999998 -0.8 0  0 -0.8 0  0.09999999999999998 -0.8 0  0.2 -0.8 0  0.3 -0.8 0  0.4 -0.8 0  0.5 -0.8 0  -0.5 -0.78 0  -0.4 -0.78 0  -0.3 -0.78 0  -0.2 -0.78 0  -0.09999999999999998 -0.78 0  0 -0.78 0  0.09999999999999998 -0.78 0  0.2 -0.78 0  0.3 -0.78 0  0.4 -0.78 0  0.5 -0.78 0  -0.5 -0.76 0  -0.4 -0.76 0  -0.3 -0.76 0  -0.2 -0.76 0  -0.09999999999999998 -0.76 0  0 -0.76 0  0.09999999999999998 -0.76 0  0.2 -0.76 0  0.3 -0.76 0  0.4 -0.76 0  0.5 -0.76 0  -0.5 -0.74 0  -0.4 -0.74 0  -0.3 -0.74 0  -0.2 -0.74 0  -0.09999999999999998 -0.74 0  0 -0.74 0  0.09999999999999998 -0.74 0  0.2 -0.74 0  0.3 -0.74 0  0.4 -0.74 0  0.5 -0.74 0  -0.5 -0.72 0  -0.4 -0.72 0  -0.3 -0.72 0  -0.2 -0.72 0  -0.09999999999999998 -0.72 0  0 -0.72 0  0.09999999999999998 -0.72 0  0.2 -0.72 0  0.3 -0.72 0  0.4 -0.72 0  0.5 -0.72 0  -0.5 -0.7 0  -0.4 -0.7 0  -0.3 -0.7 0  -0.2 -0.7 0  -0.09999999999999998 -0.7 0  0 -0.7 0  0.09999999999999998 -0.7 0  0.2 -0.7 0  0.3 -0.7 0  0.4 -0.7 0  0.5 -0.7 0  -0.5 -0.6799999999999999 0  -0.4 -0.6799999999999999 0  -0.3 -0.6799999999999999 0  -0.2 -0.6799999999999999 0  -0.09999999999999998 -0.6799999999999999 0  0 -0.6799999999999999 0  0.09999999999999998 -0.6799999999999999 0  0.2 -0.6799999999999999 0  0.3 -0.6799999999999999 0  0.4 -0.6799999999999999 0  0.5 -0.6799999999999999 0  -0.5 -0.6599999999999999 0  -0.4 -0.6599999999999999 0  -0.3 -0.6599999999999999 0  -0.2 -0.6599999999999999 0  -0.09999999999999998 -0.6599999999999999 0  0 -0.6599999999999999 0  0.09999999999999998 -0.6599999999999999 0  0.2 -0.6599999999999999 0  0.3 -0.6599999999999999 0  0.4 -0.6599999999999999 0  0.5 -0.6599999999999999 0  -0.5 -0.64 0  -0.4 -0.64 0  -0.3 -0.64 0  -0.2 -0.64 0  -0.09999999999999998 -0.64 0  0 -0.64 0  0.09999999999999998 -0.64 0  0.2 -0.64 0  0.3 -0.64 0  0.4 -0.64 0  0.5 -0.64 0  -0.5 -0.62 0  -0.4 -0.62 0  -0.3 -0.62 0  -0.2 -0.62 0  -0.09999999999999998 -0.62 0  0 -0.62 0  0.09999999999999998 -0.62 0  0.2 -0.62 0  0.3 -0.62 0  0.4 -0.62 0  0.5 -0.62 0  -0.5 -0.6 0  -0.4 -0.6 0  -0.3 -0.6 0  -0.2 -0.6 0  -0.09999999999999998 -0.6 0  0 -0.6 0  0.09999999999999998 -0.6 0  0.2 -0.6 0  0.3 -0.6 0  0.4 -0.6 0  0.5 -0.6 0  -0.5 -0.5800000000000001 0  -0.4 -0.5800000000000001 0  -0.3 -0.5800000000000001 0  -0.2 -0.5800000000000001 0  -0.09999999999999998 -0.5800000000000001 0  0 -0.5800000000000001 0  0.09999999999999998 -0.5800000000000001 0  0.2 -0.5800000000000001 0  0.3 -0.5800000000000001 0  0.4 -0.5800000000000001 0  0.5 -0.5800000000000001 0  -0.5 -0.5600000000000001 0  -0.4 -0.5600000000000001 0  -0.3 -0.5600000000000001 0  -0.2 -0.5600000000000001 0  -0.09999999999999998 -0.5600000000000001 0  0 -0.5600000000000001 0  0.09999999999999998 -0.5600000000000001 0  0.2 -0.5600000000000001 0  0.3 -0.5600000000000001 0  0.4 -0.5600000000000001 0  0.5 -0.5600000000000001 0  -0.5 -0.54 0  -0.4 -0.54 0  -0.3 -0.54 0  -0.2 -0.54 0  -0.09999999999999998 -0.54 0  0 -0.54 0  0.09999999999999998 -0.54 0  0.2 -0.54 0  0.3 -0.54 0  0.4 -0.54 0  0.5 -0.54 0  -0.5 -0.52 0  -0.4 -0.52 0  -0.3 -0.52 0  -0.2 -0.52 0  -0.09999999999999998 -0.52 0  0 -0.52 0  0.09999999999999998 -0.52 0  0.2 -0.52 0  0.3 -0.52 0  0.4 -0.52 0  0.5 -0.52 0  -0.5 -0.5 0  -0.4 -0.5 0  -0.3 -0.5 0  -0.2 -0.5 0  -0.09999999999999998 -0.5 0  0 -0.5 0  0.09999999999999998 -0.5 0  0.2 -0.5 0  0.3 -0.5 0  0.4 -0.5 0  0.5 -0.5 0  -0.5 -0.48 0  -0.4 -0.48 0  -0.3 -0.48 0  -0.2 -0.48 0  -0.09999999999999998 -0.48 0  0 -0.48 0  0.09999999999999998 -0.48 0  0.2 -0.48 0  0.3 -0.48 0  0.4 -0.48 0  0.5 -0.48 0  -0.5 -0.46 0  -0.4 -0.46 0  -0.3 -0.46 0  -0.2 -0.46 0  -0.09999999999999998 -0.46 0  0 -0.46 0  0.09999999999999998 -0.46 0  0.2 -0.46 0  0.3 -0.46 0  0.4 -0.46 0  0.5 -0.46 0  -0.5 -0.4399999999999999 0  -0.4 -0.4399999999999999 0  -0.3 -0.4399999999999999 0  -0.2 -0.4399999999999999 0  -0.09999999999999998 -0.4399999999999999 0  0 -0.4399999999999999 0  0.09999999999999998 -0.4399999999999999 0  0.2 -0.4399999999999999 0  0.3 -0.4399999999999999 0  0.4 -0.4399999999999999 0  0.5 -0.4399999999999999 0  -0.5 -0.42 0  -0.4 -0.42 0  -0.3 -0.42 0  -0.2 -0.42 0  -0.09999999999999998 -0.42 0  0 -0.42 0  0.09999999999999998 -0.42 0  0.2 -0.42 0  0.3 -0.42 0  0.4 -0.42 0  0.5 -0.42 0  -0.5 -0.4 0  -0.4 -0.4 0  -0.3 -0.4 0  -0.2 -0.4 0  -0.09999999999999998 -0.4 0  0 -0.4 0  0.09999999999999998 -0.4 0  0.2 -0.4 0  0.3 -0.4 0  0.4 -0.4 0  0.5 -0.4 0  -0.5 -0.38 0  -0.4 -0.38 0  -0.3 -0.38 0  -0.2 -0.38 0  -0.09999999999999998 -0.38 0  0 -0.38 0  0.09999999999999998 -0.38 0  0.2 -0.38 0  0.3 -0.38 0  0.4 -0.38 0  0.5 -0.38 0  -0.5 -0.36 0  -0.4 -0.36 0  -0.3 -0.36 0  -0.2 -0.36 0  -0.09999999999999998 -0.36 0  0 -0.36 0  0.09999999999999998 -0.36 0  0.2 -0.36 0  0.3 -0.36 0  0.4 -0.36 0  0.5 -0.36 0  -0.5 -0.34 0  -0.4 -0.34 0  -0.3 -0.34 0  -0.2 -0.34 0  -0.09999999999999998 -0.34 0  0 -0.34 0  0.09999999999999998 -0.34 0  0.2 -0.34 0  0.3 -0.34 0  0.4 -0.34 0  0.5 -0.34 0  -0.5 -0.32 0  -0.4 -0.32 0  -0.3 -0.32 0  -0.2 -0.32 0  -0.09999999999999998 -0.32 0  0 -0.32 0  0.09999999999999998 -0.32 0  0.2 -0.32 0  0.3 -0.32 0  0.4 -0.32 0  0.5 -0.32 0  -0.5 -0.3 0  -0.4 -0.3 0  -0.3 -0.3 0  -0.2 -0.3 0  -0.09999999999999998 -0.3 0  0 -0.3 0  0.09999999999999998 -0.3 0  0.2 -0.3 0  0.3 -0.3 0  0.4 -0.3 0  0.5 -0.3 0  -0.5 -0.28 0  -0.4 -0.28 0  -0.3 -0.28 0  -0.2 -0.28 0  -0.09999999999999998 -0.28 0  0 -0.28 0  0.09999999999999998 -0.28 0  0.2 -0.28 0  0.3 -0.28 0  0.4 -0.28 0  0.5 -0.28 0  -0.5 -0.26 0  -0.4 -0.26 0  -0.3 -0.26 0  -0.2 -0.26 0  -0.09999999999999998 -0.26 0  0 -0.26 0  0.09999999999999998 -0.26 0  0.2 -0.26 0  0.3 -0.26 0  0.4 -0.26 0  0.5 -0.26 0  -0.5 -0.24 0  -0.4 -0.24 0  -0.3 -0.24 0  -0.2 -0.24 0  -0.09999999999999998 -0.24 0  0 -0.24 0  0.09999999999999998 -0.24 0  0.2 -0.24 0  0.3 -0.24 0  0.4 -0.24 0  0.5 -0.24 0  -0.5 -0.22 0  -0.4 -0.22 0  -0.3 -0.22 0  -0.2 -0.22 0  -0.09999999999999998 -0.22 0  0 -0.22 0  0.09999999999999998 -0.22 0  0.2 -0.22 0  0.3 -0.22 0  0.4 -0.22 0  0.5 -0.22 0  -0.5 -0.2 0  -0.4 -0.2 0  -0.3 -0.2 0  -0.2 -0.2 0  -0.09999999999999998 -0.2 0  0 -0.2 0  0.09999999999999998 -0.2 0  0.2 -0.2 0  0.3 -0.2 0  0.4 -0.2 0  0.5 -0.2 0  -0.5 -0.18 0  -0.4 -0.18 0  -0.3 -0.18 0  -0.2 -0.18 0  -0.09999999999999998 -0.18 0  0 -0.18 0  0.09999999999999998 -0.18 0  0.2 -0.18 0  0.3 -0.18 0  0.4 -0.18 0  0.5 -0.18 0  -0.5 -0.16 0  -0.4 -0.16 0  -0.3 -0.16 0  -0.2 -0.16 0  -0.09999999999999998 -0.16 0  0 -0.16 0  0.09999999999999998 -0.16 0  0.2 -0.16 0  0.3 -0.16 0  0.4 -0.16 0  0.5 -0.16 0  -0.5 -0.14 0  -0.4 -0.14 0  -0.3 -0.14 0  -0.2 -0.14 0  -0.09999999999999998 -0.14 0  0 -0.14 0  0.09999999999999998 -0.14 0  0.2 -0.14 0  0.3 -0.14 0  0.4 -0.14 0  0.5 -0.14 0  -0.5 -0.12 0  -0.4 -0.12 0  -0.3 -0.12 0  -0.2 -0.12 0  -0.09999999999999998 -0.12 0  0 -0.12 0  0.09999999999999998 -0.12 0  0.2 -0.12 0  0.3 -0.12 0  0.4 -0.12 0  0.5 -0.12 0  -0.5 -0.09999999999999998 0  -0.4 -0.09999999999999998 0  -0.3 -0.09999999999999998 0  -0.2 -0.09999999999999998 0  -0.09999999999999998 -0.09999999999999998 0  0 -0.09999999999999998 0  0.09999999999999998 -0.09999999999999998 0  0.2 -0.09999999999999998 0  0.3 -0.09999999999999998 0  0.4 -0.09999999999999998 0  0.5 -0.09999999999999998 0  -0.5 -0.07999999999999996 0  -0.4 -0.07999999999999996 0  -0.3 -0.07999999999999996 0  -0.2 -0.07999999999999996 0  -0.09999999999999998 -0.07999999999999996 0  0 -0.07999999999999996 0  0.09999999999999998 -0.07999999999999996 0  0.2 -0.07999999999999996 0  0.3 -0.07999999999999996 0  0.4 -0.07999999999999996 0  0.5 -0.07999999999999996 0  -0.5 -0.06000000000000005 0  -0.4 -0.06000000000000005 0  -0.3 -0.06000000000000005 0  -0.2 -0.06000000000000005 0  -0.09999999
[...]
<PointData  Vectors="flow"> 
<DataArray  type="Float64"  Name="flow"  NumberOfComponents="3" format="ascii">-3.4746240541147767e-15 -4.1872405072252556e-15 0.0000000000000000e+00  -1.0895523861597927e-15 1.5384758924950732e-15 0.0000000000000000e+00  -4.1189908007110187e-16 -5.6413007845620531e-15 0.0000000000000000e+00  2.6626891900304737e-15 4.7133220395308883e-15 0.0000000000000000e+00  -4.9379101560489844e-16 -4.3663854553659455e-17 0.0000000000000000e+00  1.0908807307232531e-15 -6.9269853557685353e-15 0.0000000000000000e+00  3.8955308273804654e-15 1.5268279179624961e-15 0.0000000000000000e+00  2.4466118074909502e-16 -6.2099120188803419e-16 0.0000000000000000e+00  9.1208592232961526e-16 3.6837192227960133e-15 0.0000000000000000e+00  2.4222851637153363e-15 -3.6736489011288594e-15 0.0000000000000000e+00  5.7302214051502658e-16 2.8869155584461187e-15 0.0000000000000000e+00  -1.9055607926513268e-15 2.7459556520449603e-15 0.0000000000000000e+00  -2.1897706365734836e-15 3.1017826070688899e-15 0.0000000000000000e+00  -2.3693071495830018e-16 -1.7090900026269093e-15 0.0000000000000000e+00  3.1480658121532785e-15 1.3873235600707056e-15 0.0000000000000000e+00  -5.9967263092129207e-16 1.0284025807121194e-15 0.0000000000000000e+00  7.4397478146695624e-16 1.5949289364453197e-15 0.0000000000000000e+00  4.2599119294009941e-15 4.2693975184701623e-16 0.0000000000000000e+00  6.4202503877715004e-16 1.8353510158251662e-15 0.0000000000000000e+00  1.1315663517618757e-15 1.6356349016698209e-15 0.0000000000000000e+00  1.6805979999945410e-15 1.8332901151322662e-15 0.0000000000000000e+00  1.2478052368032304e-15 -3.4502560476194123e-15 0.0000000000000000e+00  -1.4422296120102200e-15 -4.8503835445265800e-15 0.0000000000000000e+00  -1.8811330375200825e-15 3.1720286279352522e-16 0.0000000000000000e+00  -5.7909817652720919e-16 -3.3230095012262354e-15 0.0000000000000000e+00  3.7346245134980277e-15 2.2581516582429231e-15 0.0000000000000000e+00  -1.3383241787961225e-16 -1.4470697747926924e-15 0.0000000000000000e+00  2.5174837261115074e-16 5.4809893467081506e-15 0.0000000000000000e+00  4.3166146773064097e-15 7.1365624280427845e-15 0.0000000000000000e+00  3.7180640006660908e-16 4.4549993234896163e-15 0.0000000000000000e+00  9.9121692277281978e-16 -3.5449824941307220e-15 0.0000000000000000e+00  7.1803210626638491e-16 2.6217114419374932e-15 0.0000000000000000e+00  1.1380842812810745e-16 -2.4315016546589351e-15 0.0000000000000000e+00  -1.0043955886262351e-15 1.0267567515830089e-14 0.0000000000000000e+00  -2.1712386974027725e-15 -4.8535587258483593e-15 0.0000000000000000e+00  -4.0783605052131484e-16 2.1045386619309105e-15 0.0000000000000000e+00  3.9174243064131454e-15 -4.7890096808754042e-16 0.0000000000000000e+00  -7.4382193690321102e-16 -2.1749874034971185e-15 0.0000000000000000e+00  3.1049955736087083e-15 5.7926509849754504e-15 0.0000000000000000e+00  4.0693024556934786e-15 1.7198891172094998e-14 0.0000000000000000e+00  -2.2349741026685856e-15 9.4489654861439219e-15 0.0000000000000000e+00  1.2537947687308231e-15 -1.6661078806910917e-14 0.0000000000000000e+00  2.7383849270007757e-15 1.2365590333138689e-14 0.0000000000000000e+00  -2.3324497764226028e-16 7.0674883188925327e-15 0.0000000000000000e+00  -6.5092128577264384e-15 1.3160936982440412e-14 0.0000000000000000e+00  -3.0970187618289789e-15 -2.3583993355644141e-15 0.0000000000000000e+00  -1.6290991710989784e-16 1.6627811396635496e-15 0.0000000000000000e+00  3.0836867472430451e-15 -1.1531317988615352e-14 0.0000000000000000e+00  1.1339990321174104e-15 8.5148870368345398e-15 0.0000000000000000e+00  3.8997985052163619e-15 5.1597103944119187e-15 0.0000000000000000e+00  5.4423174162728627e-15 2.4228126169243098e-15 0.0000000000000000e+00  -6.9648267629018530e-15 1.9146625288023067e-14 0.0000000000000000e+00  2.1391458257852736e-15 -1.9449686497439293e-14 0.0000000000000000e+00  3.9940144688595434e-15 1.4961258659452945e-14 0.0000000000000000e+00  -5.4889517116816857e-15 -2.3027846150487360e-14 0.0000000000000000e+00  -8.0323885748172160e-15 -2.6391902368385545e-15 0.0000000000000000e+00  -5.1778811597366075e-15 -3.0027848963232769e-15 0.0000000000000000e+00  -1.0531420819531001e-15 -1.3078088340811381e-14 0.0000000000000000e+00  4.9225686537222584e-15 -2.3342267354434265e-15 0.0000000000000000e+00  3.1588639202075082e-15 -6.2181302916987156e-15 0.0000000000000000e+00  1.4750331477712755e-15 -5.9899975809393049e-15 0.0000000000000000e+00  8.0100800560812674e-15 -4.1205747662488171e-15 0.0000000000000000e+00  -6.7003135176560674e-15 9.5930862625970561e-15 0.0000000000000000e+00  -2.8323603075206495e-16 -9.0042984549030947e-17 0.0000000000000000e+00  3.9612071694325424e-15 6.4812718102340617e-16 0.0000000000000000e+00  -1.2344376354497552e-14 -3.4940135308155547e-15 0.0000000000000000e+00  -4.3410688494472755e-15 -1.7192947449989664e-14 0.0000000000000000e+00  -4.9239107070535531e-15 2.2522134481382265e-15 0.0000000000000000e+00  2.1276611747898146e-16 4.7820686757254154e-15 0.0000000000000000e+00  2.7913459672597810e-15 1.1455954363400524e-14 0.0000000000000000e+00  3.4314880497237526e-16 -2.1550729967989758e-14 0.0000000000000000e+00  4.7881875228275692e-15 -1.0014268679774422e-14 0.0000000000000000e+00  6.5880398214449144e-15 -1.1224411729894223e-14 0.0000000000000000e+00  -5.3568211704016161e-15 -2.0052233637667432e-14 0.0000000000000000e+00  5.5493091673330644e-16 1.5944980161046340e-15 0.0000000000000000e+00  3.3072890840407190e-15 -5.5519716470447329e-15 0.0000000000000000e+00  -9.8311208653551753e-15 -6.2022379145909709e-15 0.0000000000000000e+00  -1.5589529798176758e-15 -2.1612261507120721e-14 0.0000000000000000e+00  -1.1532747841762967e-15 -4.2931927332639429e-15 0.0000000000000000e+00  3.7208924452419917e-16 9.7132998364589654e-16 0.0000000000000000e+00  1.7388034251568091e-15 -7.0356430242221314e-15 0.0000000000000000e+00  -2.7030122029019161e-16 -9.1404333458724598e-17 0.0000000000000000e+00  2.9058496941655379e-15 6.0188733818307317e-15 0.0000000000000000e+00  6.2796991388774746e-15 9.5752791511668324e-15 0.0000000000000000e+00  -2.9215904422297103e-15 3.6172834960850410e-17 0.0000000000000000e+00  1.3129671457992181e-15 6.9833936198350604e-15 0.0000000000000000e+00  3.2096979446384450e-17 -4.9283534340441182e-15 0.0000000000000000e+00  -8.2829970755838009e-15 -1.7238279383805116e-14 0.0000000000000000e+00  -1.1338811579572733e-15 -2.0497102053508308e-15 0.0000000000000000e+00  8.1982079639810305e-16 1.1330930724904326e-15 0.0000000000000000e+00  -4.8241166960913390e-16 -3.3702891070200380e-15 0.0000000000000000e+00  7.3675466102362891e-16 5.6482824332772097e-15 0.0000000000000000e+00  1.4919030379122620e-15 -2.5055631967710922e-16 0.0000000000000000e+00  8.7009419119279739e-15 -4.6549390102739422e-15 0.0000000000000000e+00  5.0512229491896887e-15 4.6792909283532174e-14 0.0000000000000000e+00  -7.0750520069078697e-15 1.4786288208251380e-14 0.0000000000000000e+00  2.0842702902118713e-15 -9.8142968925864263e-15 0.0000000000000000e+00  -7.4289710152277127e-16 3.1987997185022471e-14 0.0000000000000000e+00  -1.1596814195358518e-14 8.1761424854928763e-15 0.0000000000000000e+00  -6.4294669947862973e-16 3.2777611140709373e-14 0.0000000000000000e+00  -1.7818628994348537e-15 1.9032022557568043e-14 0.0000000000000000e+00  -4.4480813328344169e-16 1.7600362053419960e-14 0.0000000000000000e+00  4.5330177225225130e-15 -4.4850890224666993e-15 0.0000000000000000e+00  -1.9692705011316723e-15 1.5628350104364205e-14 0.0000000000000000e+00  1.0237898694966475e-14 -9.7075906641716672e-15 0.0000000000000000e+00  1.0431024429213616e-14 -1.3487176620502247e-14 0.0000000000000000e+00  -1.4759393177801679e-14 8.0256856426779150e-15 0.0000000000000000e+00  3.1848081581060713e-15 -1.4655119155895796e-14 0.0000000000000000e+00  3.3609859320453256e-15 1.0293960122934991e-14 0.0000000000000000e+00  -2.2129050289615441e-14 -1.8948334643802077e-14 0.0000000000000000e+00  -5.5668791176143383e-15 1.2134508986079131e-14 0.0000000000000000e+00  -9.5849712662833219e-16 5.2232906800220585e-15 0.0000000000000000e+00  -3.5323603375834832e-15 3.7710895111016465e-14 0.0000000000000000e+00  -1.3284028936326521e-15 -1.0232974179516149e-14 0.0000000000000000e+00  7.9768055272166674e-16 -2.1750802266060468e-14 0.0000000000000000e+00  4.2507333794586897e-15 1.2531311778664216e-14 0.0000000000000000e+00  1.0863632306472148e-14 -2.1541482964604304e-14 0.0000000000000000e+00  -8.6804886181849062e-15 -2.5017322457854650e-15 0.0000000000000000e+00  4.3809107491055645e-15 2.5675202030004078e-14 0.0000000000000000e+00  -9.5382532837565356e-16 1.5038506107132643e-14 0.0000000000000000e+00  -2.5676712785806095e-14 -2.5869255170141949e-14 0.0000000000000000e+00  -1.9899002051944233e-15 -2.5255527375975997e-14 0.0000000000000000e+00  2.9297370112053163e-15 2.0678786076627494e-14 0.0000000000000000e+00  -4.4091918127323750e-15 -2.2292678211898373e-14 0.0000000000000000e+00  -6.7316832282693867e-15 -9.4586995834761871e-15 0.0000000000000000e+00  2.5159114561364650e-15 -1.2146356363255004e-14 0.0000000000000000e+00  8.1073490158660664e-15 -5.6241223143297033e-15 0.0000000000000000e+00  8.2887537782375228e-15 -7.6431929467518941e-15 0.0000000000000000e+00  -5.7352361410728181e-15 -8.6163257912250293e-15 0.0000000000000000e+00  6.5719868527448276e-15 1.4077594440750641e-14 0.0000000000000000e+00  -7.7218353438162694e-15 9.2927444475447939e-15 0.0000000000000000e+00  -3.3769717584509982e-14 -2.8790492124097094e-14 0.0000000000000000e+00  9.1724661474730715e-15 1.3049842508582701e-14 0.0000000000000000e+00  -9.3326438746887500e-16 3.4026451216256564e-14 0.0000000000000000e+00  -8.5052683596653571e-15 -3.4918821492307911e-14 0.0000000000000000e+00  -4.0000972813977972e-16 -2.6202713227922245e-15 0.0000000000000000e+00  3.4047030117936462e-15 2.6926024349843407e-15 0.0000000000000000e+00  5.1963278012678685e-15 7.0118500517536413e-14 0.0000000000000000e+00  7.9168285001981752e-15 -2.8659262183971585e-14 0.0000000000000000e+00  -4.6563418479562404e-15 -2.1746575254088557e-14 0.0000000000000000e+00  7.5701485009215769e-15 1.3919336623253974e-14 0.0000000000000000e+00  -7.9776669357290896e-15 -1.1129048837744634e-14 0.0000000000000000e+00  -3.7718610409712039e-14 7.3412125455375286e-15 0.0000000000000000e+00  1.0334803605465312e-14 1.0419294707967664e-14 0.0000000000000000e+00  -7.9269284637613865e-15 -4.1258655910809951e-16 0.0000000000000000e+00  -1.1724188537582404e-14 -4.8447687759610610e-14 0.0000000000000000e+00  -3.2378711203058685e-16 -1.7089581652143298e-14 0.0000000000000000e+00  1.6734292665252926e-14 -1.2394557604745239e-14 0.0000000000000000e+00  9.8259605514644034e-16 3.3406450633980864e-16 0.0000000000000000e+00  -8.1118316692116783e-15 -6.4101771238685217e-14 0.0000000000000000e+00  6.3522826021888692e-15 -1.5835627000822523e-14 0.0000000000000000e+00  7.9687451338569319e-15 2.3226835657833143e-15 0.0000000000000000e+00  -1.1142854666702062e-14 -1.0591329113221728e-14 0.0000000000000000e+00  -3.2142860155308788e-14 -8.0221151226469166e-15 0.0000000000000000e+00  3.8111650104386493e-15 -1.2468544665051399e-14 0.0000000000000000e+00  -1.0266219200922659e-14 -9.1233903181679866e-16 0.0000000000000000e+00  -1.0084039613381831e-14 -3.5798721736706691e-14 0.0000000000000000e+00  6.5578309821618174e-15 -1.2676212675384106e-14 0.0000000000000000e+00  6.3270293588057749e-15 3.5428731914333822e-14 0.0000000000000000e+00  -9.3954114659011370e-16 -8.4751635351469407e-15 0.0000000000000000e+00  3.6882059298148095e-16 1.8898721073159162e-16 0.0000000000000000e+00  7.0311731707427903e-15 1.6269154649818226e-14 0.0000000000000000e+00  8.5795705471510002e-15 -2.1426167348219866e-14 0.0000000000000000e+00  -6.9568846510087546e-15 3.4401260988871795e-14 0.0000000000000000e+00  -3.3362199934177393e-14 3.5035928789126747e-14 0.0000000000000000e+00  1.0474375772501631e-14 1.5852247722261805e-14 0.0000000000000000e+00  -1.3448112715590986e-14 5.2821674829345150e-14 0.0000000000000000e+00  -1.5048625596558289e-14 -3.2589749975339139e-14 0.0000000000000000e+00  1.5544689306648921e-14 3.1325054229410639e-14 0.0000000000000000e+00  1.4813804558158381e-14 4.7509352069785527e-14 0.0000000000000000e+00  -5.8649188349296282e-15 2.1285584926562326e-15 0.0000000000000000e+00  -2.6116697797781997e-15 2.8576481805606065e-15 0.0000000000000000e+00  2.5936016234663853e-15 -2.8229144143303291e-14 0.0000000000000000e+00  1.0391878922661096e-14 1.2563810231028854e-14 0.0000000000000000e+00  -2.3606156787861084e-15 4.0073479596999192e-15 0.0000000000000000e+00  -3.9309184996783013e-14 6.5685035132609785e-15 0.0000000000000000e+00  1.8759363988186282e-14 2.4399636046469241e-14 0.0000000000000000e+00  -2.3312192863899071e-14 -2.7437740962986292e-15 0.0000000000000000e+00  -1.1164970313268088e-14 -9.9465166046296357e-15 0.0000000000000000e+00  1.9652994286583572e-14 3.5714560167255021e-14 0.0000000000000000e+00  1.8213139629318801e-15 -1.9272085128022428e-14 0.0000000000000000e+00  -1.0250504717682617e-14 -2.7111381484522778e-14 0.0000000000000000e+00  -3.4426676319322915e-15 -4.7198033423900016e-14 0.0000000000000000e+00  9.4766225053751784e-15 -4.5012521994542549e-14 0.0000000000000000e+00  1.5930368825712067e-14 -6.0445265313846839e-15 0.0000000000000000e+00  -5.8787849897638635e-15 -1.0324872820046764e-15 0.0000000000000000e+00  -2.7863750960554567e-14 3.5248868263134271e-14 0.0000000000000000e+00  1.0392967048756116e-14 1.1540427047661483e-14 0.0000000000000000e+00  -2.2332249872712601e-14 -3.2483665881338615e-14 0.0000000000000000e+00  -4.9804616058573484e-15 2.6081691901852014e-14 0.0000000000000000e+00  1.5778290460342673e-14 -3.4605352112131222e-15 0.0000000000000000e+00  2.7683952425593676e-15 1.8202507198804255e-15 0.0000000000000000e+00  -1.6877289838307378e-14 -2.8074974339019816e-14 0.0000000000000000e+00  -9.0499263666708545e-15 -3.0409812950141967e-14 0.0000000000000000e+00  1.4770459244149272e-14 -3.9692556338599642e-14 0.0000000000000000e+00  1.8035412137445458e-14 -5.5036219222165891e-14 0.0000000000000000e+00  5.2942963529970426e-15 2.1415546929604046e-14 0.0000000000000000e+00  -2.3207465940776597e-14 3.7365963714290230e-15 0.0000000000000000e+00  1.4689937710871228e-15 6.1159944746351563e-14 0.0000000000000000e+00  -2.1390294426236528e-14 -2.1370252035739612e-14 0.0000000000000000e+00  -8.2453204027579425e-15 1.8840878997818892e-14 0.0000000000000000e+00  9.5620442300421192e-15 -1.6111275819246011e-14 0.0000000000000000e+00  -7.9341877822676602e-16 -4.2137271543241518e-14 0.0000000000000000e+00  -7.2237561577130579e-15 -6.1782534385913608e-14 0.0000000000000000e+00  -5.7306970658705588e-15 9.0774386935320436e-14 0.0000000000000000e+00  1.6934013436212767e-15 -6.4937445175387899e-15 0.0000000000000000e+00  2.5581395212735267e-14 -3.8928698864799469e-14 0.0000000000000000e+00  4.0365787721025171e-15 2.3950962753380373e-14 0.0000000000000000e+00  -4.3703957376497385e-14 -5.1217766624762325e-14 0.0000000000000000e+00  -1.7628104492954245e-14 4.4285693598561558e-14 0.0000000000000000e+00  -2.9995031780731962e-14 -3.7667847172726713e-14 0.0000000000000000e+00  1.2813275649087035e-15 -1.3631452067141430e-14 0.0000000000000000e+00  9.7756208071577830e-15 6.1666281895617929e-14 0.0000000000000000e+00  -8.8351807160863096e-15 -5.5254252471150438e-15 0.0000000000000000e+00  -1.2203363326389481e-15 -1.7401076669242694e-14 0.0000000000000000e+00  2.5858660574031849e-16 1.8835455608714906e-14 0.0000000000000000e+00  -5.7563185437468044e-15 3.6887978473742565e-14 0.0000000000000000e+00  2.6893398021929771e-14 5.3703781743187845e-15 0.0000000000000000e+00  -7.9854001992885900e-16 1.5846480077457349e-14 0.0000000000000000e+00  -5.1463212405602419e-14 -9.8039147444197971e-14 0.0000000000000000e+00  -2.4490982605928720e-14 -1.1108032868130537e-14 0.0000000000000000e+00  -3.0885279355452241e-14 -2.7305815399559346e-15 0.0000000000000000e+00  7.5145711111643318e-15 -7.8667389671960167e-15 0.0000000000000000e+00  5.5620225335848987e-15 2.6633767920930092e-14 0.0000000000000000e+00  -1.2275674541879892e-14 -7.2770377226768888e-14 0.0000000000000000e+00  4.5910225537838294e-15 1.9666773640931326e-14 0.0000000000000000e+00  1.5909661018842209e-15 -1.2773064821855988e-15 0.0000000000000000e+00  -3.5518815374813274e-15 5.5140517650899395e-14 0.0000000000000000e+00  2.5485419227352343e-14 -8.7155963006265072e-16 0.0000000000000000e+00  -1.0355768450193497e-14 3.0508363112785778e-14 0.0000000000000000e+00  -6.9747638977656678e-14 2.3253645131637205e-14 0.0000000000000000e+00  -2.2004642532150040e-14 6.8468176059987562e-15 0.0000000000000000e+00  -3.1740759700041688e-14 2.5337255135647890e-14 0.0000000000000000e+00  5.8709694762690785e-15 -3.2177492320386660e-14 0.0000000000000000e+00  -8.7323698754738137e-16 -1.1508325439133272e-14 0.0000000000000000e+00  -9.8168605927038064e-15 8.5430566200574096e-15 0.0000000000000000e+00  1.0391939020704931e-14 -4.3983124115645814e-14 0.0000000000000000e+00  1.4901955946359743e-14 4.7930147532212017e-14 0.0000000000000000e+00  -4.1022416869278789e-15 1.0498442430436934e-13 0.0000000000000000e+00  1.0316691025643766e-14 2.0433856381888155e-14 0.0000000000000000e+00  -6.0451258584499858e-16 -3.2349211851615862e-14 0.0000000000000000e+00  -5.7630557215381895e-14 -2.3750996267393533e-14 0.0000000000000000e+00  -1.9271170247855783e-14 -2.6846728933648135e-14 0.0000000000000000e+00  -3.4135597299973312e-14 3.2547279576759869e-14 0.0000000000000000e+00  8.0678048270869599e-16 6.6549589656336547e-15 0.0000000000000000e+00  1.2118108513930127e-14 2.6042427614477905e-14 0.0000000000000000e+00  -2.0780826992756701e-14 -4.0151250794014004e-14 0.0000000000000000e+00  1.0944467848184480e-14 -1.4321747440005118e-14 0.0000000000000000e+00  2.8019786474011085e-14 3.5793986810945174e-14 0.0000000000000000e+00  -9.3554211230446070e-15 -1.0690477179361497e-14 0.0000000000000000e+00  8.0552983425301673e-15 2.0586220385433083e-14 0.0000000000000000e+00  -1.4243086161305480e-14 1.8067704655500232e-14 0.0000000000000000e+00  -8.2165300447947047e-14 -5.3766592031866739e-14 0.0000000000000000e+00  -5.1700154839366947e-15 -1.0758477526432191e-14 0.0000000000000000e+00  -2.7093419333874543e-14 7.4411148992788092e-14 0.0000000000000000e+00  1.5274886079221634e-15 -3.7347158888691701e-14 0.0000000000000000e+00  -2.4467801695916429e-15 2.7473624316708392e-14 0.0000000000000000e+00  -2.0271714564109668e-14 -5.9894804598004998e-16 0.0000000000000000e+00  3.0081223775480080e-14 6.0732955796843472e-14 0.0000000000000000e+00  1.3512426931808789e-14 5.9204955545404168e-14 0.0000000000000000e+00  -1.4273772717540655e-14 -1.8496576737997238e-14 0.0000000000000000e+00  1.1120095606535529e-14 1.0725175954645256e-14 0.0000000000000000e+00  -1.6322236394707691e-14 -6.8223966781659783e-14 0.0000000000000000e+00  -7.3260283989637631e-14 3.3070989798228596e-16 0.0000000000000000e+00  2.1523169497866810e-14 -2.7736464144525720e-14 0.0000000000000000e+00  -3.8798915666272036e-14 -1.5793970045333450e-14 0.0000000000000000e+00  -7.6057243776922285e-15 -1.4614011534147846e-14 0.0000000000000000e+00  1.7406342062946267e-14 -2.3070064618410585e-14 0.0000000000000000e+00  -1.8994584157939743e-14 5.5474644870754789e-14 0.0000000000000000e+00  2.2086744021844211e-14 -3.2761500905465697e-14 0.0000000000000000e+00  1.6977764168428183e-14 3.3524082941548571e-14 0.0000000000000000e+00  -1.0895392754571633e-14 -1.7214628345784745e-14 0.0000000000000000e+00  4.2182837474987789e-15 4.0677507717610506e-14 0.0000000000000000e+00  -2.0448842688121125e-14 6.0763852485358814e-15 0.0000000000000000e+00  -5.2363124894074954e-14 3.7210064633755883e-14 0.0000000000000000e+00  -1.9031426036675294e-15 -7.4906954254965523e-14 0.0000000000000000e+00  -2.5157208017428684e-14 -4.1791956624124432e-14 0.0000000000000000e+00  -1.1546942427141003e-16 1.0106491983242974e-14 0.0000000000000000e+00  1.0298512704653582e-14 -4.2684255132864092e-14 0.0000000000000000e+00  -1.4311993280587151e-14 5.1994572165159755e-14 0.0000000000000000e+00  2.58