<?xml version="1.0"?>
<VTKFile type="UnstructuredGrid"  version="0.1"  >
<UnstructuredGrid>
<Piece  NumberOfPoints="806" NumberOfCells="1504">
<Points>
<DataArray  type="Float64"  NumberOfComponents="3"  format="ascii">0.01846824474048517 -0.04149541481145257 0  0.01782868919038702 -0.04338851755545801 0  0.01904305817301197 -0.04274419001873621 0  0.04733901150449811 -0.03996872119408579 0  0.04829208008188312 -0.04092308629865739 0  0.04667373753676338 -0.04108798278486302 0  0.01552943322599933 -0.01039223976967649 0  0.01561231669066057 -0.008674083460499629 0  0.01413052010119659 -0.009389502160894639 0  0.03295147424067876 -0.01620437186370464 0  0.032001952132051 -0.01447302962147942 0  0.03352088685144456 -0.01473415368338696 0  0.009071852058287186 -0.03111646240531644 0  0.009454590536262899 -0.02926375325908127 0  0.008053957990568473 -0.0299402944179232 0  0.04393709534775342 -0.03399416543518065 0  0.0450552879070476 -0.03228428374499481 0  0.04345356682255066 -0.03218454146111794 0  0.03218160891894395 -0.02842571783788788 0  0.03055812711423551 -0.02730942100275788 0  0.03190841513955275 -0.02696645140373315 0  0.02059820391388823 -0.008744628494184007 0  0.02236002896120308 -0.01029553220276665 0  0.02069438039481685 -0.01041153970082536 0  0.01492528999248245 -0.002433543897202234 0  0.01607090679295778 -0.003444215195152167 0  0.01610599002356381 -0.001455662474053389 0  0.01533845899304755 -0.03450745320159019 0  0.01291635033112928 -0.03408703642975243 0  0.01431567335582407 -0.03550779203295518 0  0.05 -0.046875 0  0.04838162252857063 -0.0484375 0  0.04830480312230745 -0.04673855680545282 0  0.0335055138043014 -0.01319301380430141 0  0.03503329596179407 -0.0150307462328856 0  0.03473191852987378 -0.01692937153329831 0  0.03062350339451905 -0.01195958995920541 0  0.02880183116468505 -0.01324826702959288 0  0.0303485822656615 -0.01350285709122089 0  0.03646473132841593 -0.0487266977067035 0  0.03567804538662531 -0.04684423509208469 0  0.03720001892537535 -0.04655850289330472 0  0.0328125 -0.05312500000000001 0  0.03185172221986971 -0.05133039393955258 0  0.03328223773659549 -0.05171902792461655 0  0.03686427007144817 -0.01349487103951888 0  0.03895981700495387 -0.01307268484765471 0  0.03814432517406528 -0.01443672202163861 0  0.03125 -0.01875 0  0.03293360810408181 -0.02017879740592817 0  0.0324533095215602 -0.01771284205542287 0  0.0439453125 -0.0158203125 0  0.04237763270340716 -0.0175875744465049 0  0.04439608695310726 -0.01807389191733877 0  0.0182766464026848 -0.03019791398854459 0  0.02042604155621803 -0.02955189065163524 0  0.0197299190175258 -0.03137365445772399 0  0.01379230725571167 -0.03273328139531854 0  0.01501791995124707 -0.03322599139945957 0  0.02155204304257197 -0.03095624460965786 0  0.02191349065759114 -0.02853819219671415 0  0.02305230917876158 -0.02994446202994329 0  0.01329990464676595 -0.03651525526650057 0  0.01388418709928712 -0.03784026285822586 0  0.01225930750566253 -0.03749767039702803 0  0.01916997955773587 -0.006358580516425179 0  0.01891769558890485 -0.008130063332440622 0  0.02112680287951949 -0.007182894483686506 0  0.02574373313225683 -0.03940295267576162 0  0.02615798433030357 -0.04116160286013801 0  0.0269435244416797 -0.04004845471237795 0  0.04178251006096394 -0.04010753294115062 0  0.03983623436998167 -0.03985552902859401 0  0.03972114507343055 -0.04145797640088977 0  0.0396437922234081 -0.05261372697940805 0  0.03997754446209789 -0.0511507576845467 0  0.04105826602165569 -0.05283533998746703 0  0.01799242424242424 -0.02474747474747475 0  0.02040180503127184 -0.02521033163928926 0  0.01894698490238263 -0.02628094230654713 0  0.03290049244401597 -0.04238139970258363 0  0.03373646600975794 -0.04433173846458283 0  0.03511731072848739 -0.04293786140075419 0  0.02944299575463769 -0.03636599160900477 0  0.03143045878689962 -0.03761358300069494 0  0.02971390183888059 -0.03864436635289215 0  0.03288892842300365 -0.01064996769981432 0  0.03377610246494524 -0.009222958628701677 0  0.0338514560775198 -0.01176286534847487 0  0.02619510373908494 -0.03269003457969499 0  0.0275586803855839 -0.03187539353157028 0  0.02742869656996046 -0.03320634507295468 0  0.02874387712996077 -0.03249477747950242 0  0.02185322155471688 -0.04796886364206988 0  0.02117147262782209 -0.04651482738331746 0  0.02317806061277227 -0.04726948819474937 0  0.02680283228650296 -0.03047836992429558 0  0.0116140763143414 -0.0200294715722589 0  0.01255567389343238 -0.01875669977713929 0  0.01289863565765652 -0.02096070221481863 0  0.01436274818423154 -0.02590687146513118 0  0.01376997500590554 -0.02405110063143605 0  0.01312811451181107 -0.02527868237689237 0  0.01949511126133643 -0.01820257885343882 0  0.02139928780926671 -0.01727718666003668 0  0.0213075702412433 -0.01884184167804088 0  0.02497985483238342 -0.02695583927646755 0  0.02684519161778724 -0.0267528581889257 0  0.02643712606206802 -0.02872481488326032 0  0.015181836533936 -0.03191525840546049 0  0.01661043679905785 -0.0331297702723849 0  0.01668600241955626 -0.03097866552280258 0  0.01731419597837964 -0.008924158772178585 0  0.01661233695577045 -0.007784557864161785 0  0.03981046946253874 -0.03478997461063087 0  0.03923171642400429 -0.03668144702800514 0  0.03815781162724478 -0.03511154933377432 0  0.03750000000000001 -0.0234375 0  0.03984375 -0.02421875 0  0.03962211318754 -0.02284278772918 0  0.0427971170360452 -0.03332935475267775 0  0.04375 -0.02812499999999999 0  0.04385526423731859 -0.03063080462925618 0  0.04505180385920117 -0.02932542691051523 0  0.04351553199404762 -0.003199311755952383 0  0.04512082117182855 -0.003163798472886603 0  0.04401605677651377 -0.001297662503700671 0  0.0390625 -0.0109375 0  0.0372198611846347 -0.01157707748388981 0  0.03759210355280668 -0.00967538398276712 0  0.02477813524465676 -0.01678535620910663 0  0.02619491424319022 -0.0173145931035252 0  0.02598372025486592 -0.01588172067947947 0  0.02238005005866955 -0.01540092856280071 0  0.02431018836113115 -0.01482674916194362 0  0.02332186392374201 -0.01385922635918935 0  0.02884403036520363 -0.006188288310987947 0  0.02969512228739365 -0.00509576713021739 0  0.02778956775368434 -0.005398372891070042 0  0.02670820946356766 -0.004645696321677782 0  0.02871424332948464 -0.004118098239242162 0  0.02465272733345908 -0.006813979148103671 0  0.02264625626357764 -0.007822965885707606 0  0.02414717730575611 -0.008308169938046369 0  0.02810798947459298 -0.007488551531561166 0  0.02945001669058807 -0.007399522190517364 0  0.04184946453364417 -0.03213642906728832 0  0.04771258783191607 -0.01632642762110901 0  0.04588066889095144 -0.01568840097202207 0  0.04557265674790806 -0.01715141471048685 0  0.01595944973070434 -0.01665864079534912 0  0.01490811737430122 -0.01815748923040521 0  0.01620791970234805 -0.01795106480095328 0  0.01520615639784498 -0.01268049936812179 0  0.01475119078452227 -0.0148270426093771 0  0.01391218072944126 -0.01352772495826596 0  0.04683437186992465 -0.007865496666910285 0  0.04815155286411878 -0.006537230068970651 0  0.04728475614638013 -0.00546067617800606 0  0.04527103964454355 -0.01105720832240294 0  0.04606007517071044 -0.00949294628814989 0  0.04403762685149307 -0.01007408063750094 0  0.03949793158361206 -0.004200900444856822 0  0.03721979924877703 -0.0047651458494762 0  0.03878857822445099 -0.006173037334646442 0  0.0328125 -0.002435282534944978 0  0.03421085901935263 -0.004025902711367846 0  0.0344724171911955 -0.001781402336893533 0  0.01398706243080254 -0.0221150896608866 0  0.01258564041330076 -0.02332910432433855 0  0.009194419875177533 -0.02206075900562258 0  0.01024587951903527 -0.02330935545630703 0  0.01055332124836828 -0.02122269026435361 0  0.04537177463340432 -0.04110310095312193 0  0.04358182320191761 -0.04058844132853304 0  0.04571692188981746 -0.03936013908857622 0  0.0314309378115113 -0.04933875006157912 0  0.03311732503601984 -0.04913370444965118 0  0.03188089108105607 -0.03248232675683183 0  0.03342833160640403 -0.03055758844544694 0  0.03201928783414298 -0.02995112197871371 0  0.02861389331433733 -0.03382572902088683 0  0.03040673456957986 -0.03464600775368622 0  0.03013279554826485 -0.03287534219077422 0  0.04322916666666667 -0.01979114533068931 0  0.04127822573223301 -0.02004610997813836 0  0.04153902537676457 -0.01868765030406217 0  0.03530867441197051 -0.01196661860082494 0  0.03531896729860391 -0.01351198182519367 0  0.0390625 -0.0265625 0  0.040625 -0.02578125 0  0.03451316441232027 -0.02102466779383987 0  0.03546014347486393 -0.02326403694972784 0  0.03659060654472844 -0.02205092307513984 0  0.02436828498060588 -0.0409137505577845 0  0.02461490540344126 -0.04309047366990028 0  0.02353555540376851 -0.04211043040913431 0  0.02307251020656784 -0.04577510415514846 0  0.0213724062387126 -0.04492151990354357 0  0.04141166808534667 -0.05159229946940671 0  0.04316771177950235 -0.05055961249403544 0  0.04178869705860652 -0.05022403725139264 0  0.04636190916549267 -0.03071368166901467 0  0.01135833061239636 -0.03411864136424596 0  0.01234457162076637 -0.03542175489045764 0  0.01484586826671411 -0.03892294491435778 0  0.01682229953162608 -0.03997649591280195 0  0.01537065409622362 -0.04031910134814119 0  0.01953075217518766 -0.02799030610032226 0  0.02166562205297151 -0.0393857222105142 0  0.02247248496586275 -0.04111275187432602 0  0.02017264389999211 -0.04022967569049397 0  0.04635416666666667 -0.02552083333333333 0  0.04494656968390805 -0.02386179956896552 0  0.04418402777777777 -0.0259548611111111 0  0.04583333333333334 -0.021875 0  0.04638335129310345 -0.02331178160919541 0  0.04711179217743537 -0.02134513195633085 0  0.0333620841728586 -0.03258513616480065 0  0.0321298013877258 -0.03393512344096119 0  0.028125 -0.028125 0  0.02855580875793202 -0.02965235453857057 0  0.02093749816297855 -0.01566161699728076 0  0.0296875 -0.0234375 0  0.03158523513293739 -0.0234101749700282 0  0.03065193331477824 -0.02450488542779667 0  0.0379771404208144 -0.02861644968655365 0  0.03946078836391552 -0.02808670649690729 0  0.03750
[...]
<PointData  Vectors="flow"> 
<DataArray  type="Float64"  Name="flow"  NumberOfComponents="3" format="ascii">-7.2566644797402101e-06 -1.5965952270144212e-06 0.0000000000000000e+00  -1.5218257581277468e-06 -1.2312960464069974e-06 0.0000000000000000e+00  1.9862808603390355e-05 -1.0049313742880009e-06 0.0000000000000000e+00  7.6145556235534047e-07 -3.8522514861517688e-06 0.0000000000000000e+00  4.7727852717724855e-06 3.1721372259397584e-06 0.0000000000000000e+00  -1.0636375796438043e-05 5.7514653308768414e-07 0.0000000000000000e+00  2.6093830808537177e-07 1.7475007932039963e-07 0.0000000000000000e+00  1.2486475216982441e-06 1.6363593157897512e-07 0.0000000000000000e+00  2.5730563079742958e-06 1.0877464587629725e-06 0.0000000000000000e+00  -1.5348954413860278e-06 2.2369734170150102e-06 0.0000000000000000e+00  1.1988121897495351e-07 9.9617409301013076e-07 0.0000000000000000e+00  2.2460364063916024e-07 -2.3701517553921892e-06 0.0000000000000000e+00  8.8537305701652203e-07 3.0677297255253322e-07 0.0000000000000000e+00  -1.8135401433659580e-06 -3.0908033528736420e-07 0.0000000000000000e+00  5.0142390181153916e-07 1.1114837249599423e-06 0.0000000000000000e+00  -1.9986663898376129e-05 1.7016176982855424e-06 0.0000000000000000e+00  -3.1535355769552383e-06 2.5780647336559353e-06 0.0000000000000000e+00  3.2376308275438708e-06 -5.7947008143850347e-07 0.0000000000000000e+00  2.7938281040625395e-06 -3.5323975288906079e-06 0.0000000000000000e+00  3.3070561949512152e-06 1.4082988948879497e-07 0.0000000000000000e+00  -1.6295475273953153e-06 -5.6343341072007796e-06 0.0000000000000000e+00  8.7848940214323171e-07 4.1535427065570086e-07 0.0000000000000000e+00  2.5559019617554557e-06 1.4759240102173798e-06 0.0000000000000000e+00  -3.9512815992776256e-07 -2.8789398576751794e-06 0.0000000000000000e+00  -3.2057168444796411e-06 -2.2462085721489820e-06 0.0000000000000000e+00  -4.6004745321225282e-07 4.5914397303557219e-07 0.0000000000000000e+00  -5.5425151934390663e-07 1.5742963180866895e-06 0.0000000000000000e+00  3.5329721627645039e-06 8.1076465990739327e-06 0.0000000000000000e+00  -1.1497223148278600e-07 4.1562505590850949e-06 0.0000000000000000e+00  3.7544240932103967e-06 5.6368700702333638e-06 0.0000000000000000e+00  -3.4203445623709105e-07 -9.8934407922372816e-06 0.0000000000000000e+00  -6.6148171436747168e-07 2.5753886796714418e-06 0.0000000000000000e+00  -8.5976970062140937e-06 4.5137780780177684e-06 0.0000000000000000e+00  -5.4198558419666397e-06 1.6511067690030218e-06 0.0000000000000000e+00  2.0655564830594820e-06 -1.7699561963805500e-06 0.0000000000000000e+00  3.3471224066736629e-06 -1.9017970186626982e-06 0.0000000000000000e+00  7.7009998344966267e-07 -1.2255195085909069e-06 0.0000000000000000e+00  -1.7873830117570136e-06 1.7783347416116759e-06 0.0000000000000000e+00  3.0383216510651496e-06 6.0358434198793061e-07 0.0000000000000000e+00  -1.1011264691386326e-05 1.7345599881737777e-05 0.0000000000000000e+00  6.5605330956144415e-06 6.7720956236351009e-06 0.0000000000000000e+00  1.5092978662639815e-05 5.9773232223920660e-07 0.0000000000000000e+00  7.5646136250411109e-06 -1.3980230942607370e-05 0.0000000000000000e+00  -1.6741461504823860e-05 -1.1235703650326674e-05 0.0000000000000000e+00  6.0303242701856220e-06 1.7854148635556990e-05 0.0000000000000000e+00  2.1642067992444734e-06 -2.4900218996179756e-06 0.0000000000000000e+00  -1.9350219869723185e-06 -6.7781128271621088e-07 0.0000000000000000e+00  -1.1143615239312362e-06 -9.6356239552086389e-07 0.0000000000000000e+00  -4.1645208330421293e-07 4.9895625077086310e-07 0.0000000000000000e+00  2.3613202083932314e-06 -4.1085320571612145e-07 0.0000000000000000e+00  7.9286235812556776e-07 -1.1271766534905302e-06 0.0000000000000000e+00  -2.1448163015804958e-06 1.5285005189110894e-08 0.0000000000000000e+00  -1.0980986237721805e-06 2.7125088337563882e-06 0.0000000000000000e+00  3.6334006932101663e-06 1.5843578991916024e-07 0.0000000000000000e+00  -5.6324432335026506e-06 3.0820229012110610e-06 0.0000000000000000e+00  4.0718243252786846e-06 4.9439579977857760e-06 0.0000000000000000e+00  2.9114221053628628e-06 -3.3313814205290127e-06 0.0000000000000000e+00  2.0893972384056299e-06 1.5991318635430022e-07 0.0000000000000000e+00  4.7232415023427460e-07 -8.1488733828625957e-06 0.0000000000000000e+00  4.2876050060888410e-06 -2.6745443672363612e-06 0.0000000000000000e+00  -2.0829338594389203e-06 6.7617937870730356e-07 0.0000000000000000e+00  -2.1813751345241124e-06 1.1664077676986932e-06 0.0000000000000000e+00  -3.0648410658890560e-06 -7.2022511771514409e-06 0.0000000000000000e+00  2.4730039203087309e-06 3.3221983402642680e-06 0.0000000000000000e+00  1.9852392898575122e-06 -3.5044431153726332e-06 0.0000000000000000e+00  5.5447423728194760e-08 2.5675903748297236e-06 0.0000000000000000e+00  -2.5937317595093344e-06 -8.3788950646119536e-07 0.0000000000000000e+00  1.8475847934321504e-06 -2.7886592488327796e-07 0.0000000000000000e+00  9.0428868747179696e-06 8.8986326750543463e-06 0.0000000000000000e+00  9.5007417821910496e-06 -1.2133814925523251e-05 0.0000000000000000e+00  1.0978834941389997e-05 3.0122900661721494e-06 0.0000000000000000e+00  2.9685943968334904e-06 -1.7417515946596586e-06 0.0000000000000000e+00  4.4744808478581305e-06 -4.8834012450369322e-06 0.0000000000000000e+00  6.9082757751479094e-07 -6.8834872850262747e-06 0.0000000000000000e+00  -6.0261714367141866e-07 2.3371598561638246e-05 0.0000000000000000e+00  -8.1081189525221192e-06 -3.7801604042749242e-06 0.0000000000000000e+00  1.1361082417874566e-05 -4.1342922696841555e-06 0.0000000000000000e+00  2.1179517878235604e-06 2.4154979291111036e-06 0.0000000000000000e+00  -3.0949815998763643e-06 7.2597855334319407e-07 0.0000000000000000e+00  1.5903535521234207e-06 5.2147436489296148e-07 0.0000000000000000e+00  -6.0247086311861895e-06 1.2496943504584284e-05 0.0000000000000000e+00  7.0697338302211446e-06 -1.1284398163847400e-05 0.0000000000000000e+00  3.5553627296199787e-06 -3.4740068621263691e-06 0.0000000000000000e+00  1.6881996616583626e-06 -2.1373937186503832e-06 0.0000000000000000e+00  -1.2988996693460692e-06 1.4566544171317427e-06 0.0000000000000000e+00  -4.9077568412131527e-06 -7.2809036036281612e-07 0.0000000000000000e+00  3.7342715973800825e-06 -6.9277765909192408e-06 0.0000000000000000e+00  6.7020880786644126e-06 -5.4969008891519297e-06 0.0000000000000000e+00  -7.0273223270506355e-07 5.7470182407692053e-06 0.0000000000000000e+00  4.4019835237346179e-07 -4.5510157875276215e-07 0.0000000000000000e+00  -3.3386927314611564e-06 -4.8998572134569378e-06 0.0000000000000000e+00  7.9021148632779772e-08 1.0208569358111616e-05 0.0000000000000000e+00  2.7880842476406934e-06 -6.5076265313473148e-06 0.0000000000000000e+00  7.1949312650353060e-08 -1.1991666078449767e-05 0.0000000000000000e+00  -3.3907439555175387e-06 1.2069368659057021e-05 0.0000000000000000e+00  1.3477383858499404e-05 1.0761458481586275e-06 0.0000000000000000e+00  1.1264720990663166e-06 2.2719609666740774e-06 0.0000000000000000e+00  -2.5845561465619798e-06 -3.8823595970530151e-07 0.0000000000000000e+00  2.0538346354921118e-06 2.0985042349049402e-06 0.0000000000000000e+00  3.9649022247867373e-06 3.5847171713128104e-06 0.0000000000000000e+00  1.0550384288847006e-06 -7.4708905578325424e-07 0.0000000000000000e+00  -1.7355791161695775e-06 -6.2127327669779456e-07 0.0000000000000000e+00  -1.6233448885978994e-06 3.1643337877674403e-08 0.0000000000000000e+00  -7.6405081294223458e-07 6.0048045875867720e-07 0.0000000000000000e+00  -2.1582460103526064e-06 9.8785306351821559e-07 0.0000000000000000e+00  1.9095405429342892e-06 2.3363740573572819e-06 0.0000000000000000e+00  1.5201852952109154e-06 1.9635169978306552e-06 0.0000000000000000e+00  7.2713843486422239e-07 -6.0212318092190054e-07 0.0000000000000000e+00  -2.0111887949254434e-07 -2.0690110685695851e-06 0.0000000000000000e+00  -3.3123997422738124e-07 -1.6413856871121812e-06 0.0000000000000000e+00  -5.6027324900800078e-06 9.6130812962336433e-07 0.0000000000000000e+00  3.3882615580026280e-07 -5.9095052661326248e-07 0.0000000000000000e+00  -1.6620471080885072e-06 3.9039067359868802e-06 0.0000000000000000e+00  4.4298144983291130e-07 -1.3377090356776183e-06 0.0000000000000000e+00  -3.7483468698679289e-07 -2.7054415011979397e-07 0.0000000000000000e+00  4.2968143278562047e-06 -1.3881918578677991e-06 0.0000000000000000e+00  6.2654224401550446e-06 -7.8019077455924466e-07 0.0000000000000000e+00  6.6895630935343348e-07 -1.5711625452726883e-06 0.0000000000000000e+00  8.1569795972681207e-07 -4.5327629890629874e-06 0.0000000000000000e+00  -3.0299647130734644e-06 7.7561082634072718e-07 0.0000000000000000e+00  9.4309171555808430e-06 -1.4639887987012432e-06 0.0000000000000000e+00  7.1173496694874396e-06 -4.8799750967130124e-07 0.0000000000000000e+00  2.2103782315998230e-06 -1.2007990491645231e-06 0.0000000000000000e+00  -2.4102438186378803e-06 2.7274842374010634e-06 0.0000000000000000e+00  -4.0573892711288260e-07 1.9873979064224018e-06 0.0000000000000000e+00  4.0630009600617340e-07 3.5379814775076782e-07 0.0000000000000000e+00  2.0731896225539549e-07 -4.6786840014532453e-07 0.0000000000000000e+00  -2.7019720454927604e-06 5.5318630495766114e-06 0.0000000000000000e+00  2.0848702650926923e-06 -6.0075991088986071e-07 0.0000000000000000e+00  7.2148847926097850e-06 -2.4480813283595112e-06 0.0000000000000000e+00  -1.3383961622135802e-06 5.7594231279567991e-07 0.0000000000000000e+00  -2.1533616502133117e-06 -6.6152862651147821e-07 0.0000000000000000e+00  2.6766684815358153e-06 -1.0366113076139581e-07 0.0000000000000000e+00  -8.7274392712452668e-07 -9.4502836943975256e-08 0.0000000000000000e+00  -1.8888370547709096e-06 -6.5127511300777380e-07 0.0000000000000000e+00  1.6164543128640280e-06 1.4182671817362090e-06 0.0000000000000000e+00  4.6236538081353809e-06 -6.6799601535891929e-06 0.0000000000000000e+00  -6.9226025654494656e-06 -3.2549333747657527e-07 0.0000000000000000e+00  -8.1247642981941971e-06 5.9419556433253718e-06 0.0000000000000000e+00  4.6924834098195448e-06 -2.2357141520706674e-07 0.0000000000000000e+00  -4.5790063584646429e-07 5.1662967966757034e-06 0.0000000000000000e+00  -2.2554584651942131e-06 4.1055950598221855e-07 0.0000000000000000e+00  8.0077019440800572e-07 -2.8723344574882944e-07 0.0000000000000000e+00  3.8813141474642027e-07 -1.3294148998746734e-06 0.0000000000000000e+00  -2.9315584128897499e-07 -4.8989120186119457e-06 0.0000000000000000e+00  1.3524086347380660e-05 2.1017533899603589e-06 0.0000000000000000e+00  1.2983802933835961e-06 2.1817374222281515e-06 0.0000000000000000e+00  3.2346473757017917e-06 1.4730882750214469e-06 0.0000000000000000e+00  -3.2779533957243002e-06 -2.5726630212241482e-06 0.0000000000000000e+00  -4.1741388795336443e-07 -4.8072173861551278e-06 0.0000000000000000e+00  9.4584648178587596e-07 6.6534794083221676e-08 0.0000000000000000e+00  -6.1199380771216874e-08 -1.3910520944783634e-07 0.0000000000000000e+00  8.1492731703092381e-06 1.4545163160583086e-06 0.0000000000000000e+00  -4.0130784500916473e-08 8.1769560524530642e-07 0.0000000000000000e+00  2.8121328634104067e-08 2.5190348530931331e-07 0.0000000000000000e+00  -7.1790230421362894e-07 1.1520876617257113e-06 0.0000000000000000e+00  7.5211942358086556e-07 -1.6790943247186043e-07 0.0000000000000000e+00  -1.7538338102716023e-07 2.8535686032981970e-07 0.0000000000000000e+00  -1.4658069005532206e-06 3.3599298400541191e-07 0.0000000000000000e+00  -1.3280190146677382e-07 -3.2367016350712751e-07 0.0000000000000000e+00  3.9439527330101369e-07 -4.4886747217518352e-07 0.0000000000000000e+00  7.4922408934559992e-07 -1.1468599274330339e-06 0.0000000000000000e+00  2.3404161150264895e-06 2.6651995002054925e-06 0.0000000000000000e+00  3.3995646786978823e-06 -7.8438258257859925e-06 0.0000000000000000e+00  -4.8426400323270737e-06 -2.3548686974702781e-06 0.0000000000000000e+00  -1.3020371792373459e-06 -1.4087678050837202e-05 0.0000000000000000e+00  -7.8455435432885966e-06 -1.6226291487922346e-06 0.0000000000000000e+00  5.4589408528020300e-06 -2.7185793952608989e-06 0.0000000000000000e+00  1.3017431113479370e-06 9.9660810246986111e-07 0.0000000000000000e+00  -2.6880669339245072e-06 1.1759883164204701e-06 0.0000000000000000e+00  1.0412195633942921e-06 1.2273042971485410e-07 0.0000000000000000e+00  -8.4984285223496981e-07 3.8216258816358314e-06 0.0000000000000000e+00  7.2308893311098640e-07 -7.4357832140992603e-07 0.0000000000000000e+00  3.5812541008562828e-06 5.2855565829037716e-06 0.0000000000000000e+00  -1.6288807111699085e-06 -3.0392906452934670e-06 0.0000000000000000e+00  -4.9215748840337898e-07 -9.9178727035439147e-06 0.0000000000000000e+00  -3.6141523790936991e-07 9.4769904462028639e-06 0.0000000000000000e+00  1.8844467669296418e-05 -7.0784617767063462e-06 0.0000000000000000e+00  4.6283315679696893e-06 -3.4868031920857752e-06 0.0000000000000000e+00  -2.5181374265068663e-06 -5.0114295988352118e-06 0.0000000000000000e+00  6.7327181560692675e-07 5.9581110986323465e-06 0.0000000000000000e+00  4.0237190030328375e-06 1.2499083733895956e-05 0.0000000000000000e+00  2.8832875916376875e-06 -4.7964290969687008e-06 0.0000000000000000e+00  -2.8344139311978713e-06 -3.1154471224265026e-06 0.0000000000000000e+00  -2.2313438654959839e-06 -1.7447785949451203e-06 0.0000000000000000e+00  3.2319403658628874e-06 -3.5507966039994472e-07 0.0000000000000000e+00  2.8402786999012940e-07 -3.0450082171498136e-06 0.0000000000000000e+00  -9.6695899128735997e-07 4.7677600459746776e-06 0.0000000000000000e+00  2.7909648511250108e-06 -6.3041265522641084e-06 0.0000000000000000e+00  -7.4306676933574827e-07 1.2713930470583922e-06 0.0000000000000000e+00  2.1497184771653958e-06 2.3109272557759047e-06 0.0000000000000000e+00  -2.5879832721530512e-06 1.8373999140776004e-06 0.0000000000000000e+00  -1.4446700949051109e-06 -4.0345168847382713e-06 0.0000000000000000e+00  3.1236768125271810e-06 1.1510221542298110e-06 0.0000000000000000e+00  -2.1087340206007605e-05 1.0874286546519574e-06 0.0000000000000000e+00  1.0108121804024139e-05 2.0740293434969608e-06 0.0000000000000000e+00  -7.3737811655026588e-06 -2.5233491010402053e-05 0.0000000000000000e+00  4.3271872295200092e-07 -2.1363227957344162e-05 0.0000000000000000e+00  -1.0082503503977325e-05 -4.7769245502273151e-06 0.0000000000000000e+00  -2.0544297491434925e-06 -1.3019915979007484e-05 0.0000000000000000e+00  2.8330263075453893e-06 -5.4045538095634230e-06 0.0000000000000000e+00  5.9989327407045510e-06 4.1344460295160978e-06 0.0000000000000000e+00  -4.8834180794196192e-07 -3.0939994901336406e-06 0.0000000000000000e+00  4.4153863263327584e-06 -8.4059527625204690e-07 0.0000000000000000e+00  -9.3685632108334640e-06 8.4788572928077689e-07 0.0000000000000000e+00  3.0182890350553270e-06 5.4281168390667135e-06 0.0000000000000000e+00  -5.0862751509848822e-06 -6.3177494658296695e-06 0.0000000000000000e+00  6.6742768895996622e-06 -8.3962907736824645e-06 0.0000000000000000e+00  -2.1514201730567218e-07 -8.5421679665047509e-07 0.0000000000000000e+00  1.7071753477160730e-05 3.2592047872323070e-06 0.0000000000000000e+00  3.9028246068979108e-07 -7.9598383632902815e-06 0.0000000000000000e+00  -4.3290270546312425e-06 -6.5657752494347839e-06 0.0000000000000000e+00  -4.0504840730261595e-06 -3.0667327625368807e-06 0.0000000000000000e+00  2.9991247713917976e-06 5.0426191821792044e-06 0.0000000000000000e+00  9.4203719241442227e-07 -1.6501519541257730e-06 0.0000000000000000e+00  9.0165908239939869e-07 -8.7651717535754190e-06 0.0000000000000000e+00  -8.9856771506593479e-06 4.2059478185648476e-06 0.0000000000000000e+00  2.6525024433384668e-06 1.8497977386188610e-06 0.0000000000000000e+00  -4.8508067974042287e-07 3.6885171879432018e-06 0.0000000000000000e+00  -2.8554488448173567e-06 5.2435734181376361e-06 0.0000000000000000e+00  1.4059554773152878e-07 7.8620115076916831e-07 0.0000000000000000e+00  -7.8955109583212789e-07 1.7076664811193108e-06 0.0000000000000000e+00  5.1026506305614591e-07 -4.0864562197218943e-06 0.0000000000000000e+00  1.5388310372868077e-07 2.9395719206685774e-07 0.0000000000000000e+00  3.1441845459655692e-07 -2.6828308478643062e-06 0.0000000000000000e+00  4.5869657514116050e-08 -9.7694392326857731e-07 0.0000000000000000e+00  -4.9811356118935242e-06 7.4358826794574425e-06 0.0000000000000000e+00  4.0774069218729294e-06 -1.2123689131225723e-05 0.0000000000000000e+00  -2.4275674618134124e-06 -4.7012168435935391e-06 0.0000000000000000e+00  4.7268836328522053e-06 -3.0326510344998734e-06 0.0000000000000000e+00  1.8038434579732658e-06 3.0093592619443217e-06 0.0000000000000000e+00  2.5420234333146466e-06 -6.2823750072779139e-06 0.0000000000000000e+00  -2.3898425399369550e-06 2.0132941364281766e-06 0.0000000000000000e+00  -2.3785939923064750e-07 5.0396692839733824e-07 0.0000000000000000e+00  -3.7853737469914846e-07 -2.9432656931388586e-07 0.0000000000000000e+00  3.2670478204946673e-06 2.1913126664372105e-06 0.0000000000000000e+00  2.3483715985340057e-07 8.8322093368108771e-09 0.0000000000000000e+00  -5.8243161761866781e-06 7.7957563483779789e-07 0.0000000000000000e+00  -2.2013821601974598e-06 -1.8179242185222909e-06 0.0000000000000000e+00  1.0662179385962179e-06 1.4251570130428378e-06 0.0000000000000000e+00  -3.2532391972692445e-07 -1.1811373846312849e-06 0.0000000000000000e+00  -6.7113195377188392e-06 3.7766352913863139e-07 0.0000000000000000e+00  -1.3510033143653359e-05 9.4072731992664202e-06 0.0000000000000000e+00  1.8052900618351372e-07 -1.6544669789960409e-06 0.0000000000000000e+00  3.0649976581020400e-07 9.7266347139792461e-07 0.0000000000000000e+00  -1.6093894385704121e-06 -3.5560843627216902e-06 0.0000000000000000e+00  -1.1630215017362890e-06 5.0934549537057184e-07 0.0000000000000000e+00  -2.5309992133437247e-06 -4.7206012583988418e-06 0.0000000000000000e+00  4.2581381836431276e-06 -5.2473994761538150e-07 0.0000000000000000e+00  -2.5336032027877950e-06 6.0785027664848683e-06 0.0000000000000000e+00  4.0074726590639131e-06 5.3944616874691557e-06 0.0000000000000000e+00  6.6808893053438068e-06 9.0576751535642693e-06 0.0000000000000000e+00  -8.5778487138635089e-06 -9.9025619769063549e-06 0.0000000000000000e+00  8.5091804173481991e-09 -7.0426686288868567e-06 0.0000000000000000e+00  -1.9494015875369035e-06 -1.3635472670981876e-06 0.0000000000000000e+00  -7.4976735725012212e-07 9.5290541656346227e-07 0.0000000000000000e+00  2.2525475386484121e-06 -4.5492053020624619e-07 0.0000000000000000e+00  5.2539637511792336e-07 1.9994162691661355e-07 0.0000000000000000e+00  -3.2204055700604212e-06 -1.2419584890976542e-06 0.0000000000000000e+00  -6.5771485585810172e-07 -1.2927428442717082e-06 0.0000000000000000e+00  3.4881027755989075e-06 1.7803123134957318e-05 0.0000000000000000e+00  2.4941089340477382e-07 -1.7624011202737806e-06 0.0000000000000000e+00  -2.4164776194679771e-06 2.6358599059180954e-06 0.0000000000000000e+00  -8.2911493017029595e-07 -1.2944260798203346e-06 0.0000000000000000e+00  1.1844031684280874e-06 1.3309786851219612e-06 0.0000000000000000e+00  9.7231612042034944e-06 -2.4048918650777028e-05 0.0000000000000000e+00  -8.2703556476758673e-06 1.1954808826435798e-05 0.0000000000000000e+00  2.0207872680986609e-06 8.5922393052903716e-06 0.0000000000000000e+00  -2.4195432530923257e-06 -2.6468416364669791e-06 0.0000000000000000e+00  4.2468347794427219e-06 -3.6093209845124247e-06 0.0000000000000000e+00  -8.6104452338642309e-06 3.8847951532256599e-06 0.0000000000000000e+00  2.5021092197433271e-06 -5.0498393989999041e-06 0.0000000000000000e+00  -1.6592144877228188e-06 4.4401755236305835e-06 0.0000000000000000e+00  1.8306988760542122e-07 -6.6165922310042862e-07 0.0000000000000000e+00  -1.0109311151850452e-06 4.9196518972437396e-06 0.0000000000000000e+00  6.6668408017645221e-06 -2.2025002922634754e-06 0.0000000000000000e+00  1.6566631956365215e-06 -7.5209505914931321e-06 0.0000000000000000e+00  -9.3226171142678000e-06 -3.7823964725944252e-06 0.0000000000000000e+00  2.3002638755652138e-06 8.7588742038200412e-06 0.0000000000000000e+00  -6.8405906166123699e-07 -1.8284441765572931e-06 0.0000000000000000e+00  -1.1447045360756924e