<?xml version="1.0"?>
<VTKFile type="UnstructuredGrid"  version="0.1"  >
<UnstructuredGrid>
<Piece  NumberOfPoints="1661" NumberOfCells="3200">
<Points>
<DataArray  type="Float64"  NumberOfComponents="3"  format="ascii">-0.25 -1 0  -0.225 -1 0  -0.2 -1 0  -0.175 -1 0  -0.15 -1 0  -0.125 -1 0  -0.1 -1 0  -0.07500000000000001 -1 0  -0.04999999999999999 -1 0  -0.02499999999999999 -1 0  0 -1 0  0.02500000000000002 -1 0  0.04999999999999999 -1 0  0.07500000000000001 -1 0  0.09999999999999998 -1 0  0.125 -1 0  0.15 -1 0  0.175 -1 0  0.2 -1 0  0.225 -1 0  0.25 -1 0  -0.25 -0.975 0  -0.225 -0.975 0  -0.2 -0.975 0  -0.175 -0.975 0  -0.15 -0.975 0  -0.125 -0.975 0  -0.1 -0.975 0  -0.07500000000000001 -0.975 0  -0.04999999999999999 -0.975 0  -0.02499999999999999 -0.975 0  0 -0.975 0  0.02500000000000002 -0.975 0  0.04999999999999999 -0.975 0  0.07500000000000001 -0.975 0  0.09999999999999998 -0.975 0  0.125 -0.975 0  0.15 -0.975 0  0.175 -0.975 0  0.2 -0.975 0  0.225 -0.975 0  0.25 -0.975 0  -0.25 -0.95 0  -0.225 -0.95 0  -0.2 -0.95 0  -0.175 -0.95 0  -0.15 -0.95 0  -0.125 -0.95 0  -0.1 -0.95 0  -0.07500000000000001 -0.95 0  -0.04999999999999999 -0.95 0  -0.02499999999999999 -0.95 0  0 -0.95 0  0.02500000000000002 -0.95 0  0.04999999999999999 -0.95 0  0.07500000000000001 -0.95 0  0.09999999999999998 -0.95 0  0.125 -0.95 0  0.15 -0.95 0  0.175 -0.95 0  0.2 -0.95 0  0.225 -0.95 0  0.25 -0.95 0  -0.25 -0.925 0  -0.225 -0.925 0  -0.2 -0.925 0  -0.175 -0.925 0  -0.15 -0.925 0  -0.125 -0.925 0  -0.1 -0.925 0  -0.07500000000000001 -0.925 0  -0.04999999999999999 -0.925 0  -0.02499999999999999 -0.925 0  0 -0.925 0  0.02500000000000002 -0.925 0  0.04999999999999999 -0.925 0  0.07500000000000001 -0.925 0  0.09999999999999998 -0.925 0  0.125 -0.925 0  0.15 -0.925 0  0.175 -0.925 0  0.2 -0.925 0  0.225 -0.925 0  0.25 -0.925 0  -0.25 -0.9 0  -0.225 -0.9 0  -0.2 -0.9 0  -0.175 -0.9 0  -0.15 -0.9 0  -0.125 -0.9 0  -0.1 -0.9 0  -0.07500000000000001 -0.9 0  -0.04999999999999999 -0.9 0  -0.02499999999999999 -0.9 0  0 -0.9 0  0.02500000000000002 -0.9 0  0.04999999999999999 -0.9 0  0.07500000000000001 -0.9 0  0.09999999999999998 -0.9 0  0.125 -0.9 0  0.15 -0.9 0  0.175 -0.9 0  0.2 -0.9 0  0.225 -0.9 0  0.25 -0.9 0  -0.25 -0.875 0  -0.225 -0.875 0  -0.2 -0.875 0  -0.175 -0.875 0  -0.15 -0.875 0  -0.125 -0.875 0  -0.1 -0.875 0  -0.07500000000000001 -0.875 0  -0.04999999999999999 -0.875 0  -0.02499999999999999 -0.875 0  0 -0.875 0  0.02500000000000002 -0.875 0  0.04999999999999999 -0.875 0  0.07500000000000001 -0.875 0  0.09999999999999998 -0.875 0  0.125 -0.875 0  0.15 -0.875 0  0.175 -0.875 0  0.2 -0.875 0  0.225 -0.875 0  0.25 -0.875 0  -0.25 -0.85 0  -0.225 -0.85 0  -0.2 -0.85 0  -0.175 -0.85 0  -0.15 -0.85 0  -0.125 -0.85 0  -0.1 -0.85 0  -0.07500000000000001 -0.85 0  -0.04999999999999999 -0.85 0  -0.02499999999999999 -0.85 0  0 -0.85 0  0.02500000000000002 -0.85 0  0.04999999999999999 -0.85 0  0.07500000000000001 -0.85 0  0.09999999999999998 -0.85 0  0.125 -0.85 0  0.15 -0.85 0  0.175 -0.85 0  0.2 -0.85 0  0.225 -0.85 0  0.25 -0.85 0  -0.25 -0.825 0  -0.225 -0.825 0  -0.2 -0.825 0  -0.175 -0.825 0  -0.15 -0.825 0  -0.125 -0.825 0  -0.1 -0.825 0  -0.07500000000000001 -0.825 0  -0.04999999999999999 -0.825 0  -0.02499999999999999 -0.825 0  0 -0.825 0  0.02500000000000002 -0.825 0  0.04999999999999999 -0.825 0  0.07500000000000001 -0.825 0  0.09999999999999998 -0.825 0  0.125 -0.825 0  0.15 -0.825 0  0.175 -0.825 0  0.2 -0.825 0  0.225 -0.825 0  0.25 -0.825 0  -0.25 -0.8 0  -0.225 -0.8 0  -0.2 -0.8 0  -0.175 -0.8 0  -0.15 -0.8 0  -0.125 -0.8 0  -0.1 -0.8 0  -0.07500000000000001 -0.8 0  -0.04999999999999999 -0.8 0  -0.02499999999999999 -0.8 0  0 -0.8 0  0.02500000000000002 -0.8 0  0.04999999999999999 -0.8 0  0.07500000000000001 -0.8 0  0.09999999999999998 -0.8 0  0.125 -0.8 0  0.15 -0.8 0  0.175 -0.8 0  0.2 -0.8 0  0.225 -0.8 0  0.25 -0.8 0  -0.25 -0.775 0  -0.225 -0.775 0  -0.2 -0.775 0  -0.175 -0.775 0  -0.15 -0.775 0  -0.125 -0.775 0  -0.1 -0.775 0  -0.07500000000000001 -0.775 0  -0.04999999999999999 -0.775 0  -0.02499999999999999 -0.775 0  0 -0.775 0  0.02500000000000002 -0.775 0  0.04999999999999999 -0.775 0  0.07500000000000001 -0.775 0  0.09999999999999998 -0.775 0  0.125 -0.775 0  0.15 -0.775 0  0.175 -0.775 0  0.2 -0.775 0  0.225 -0.775 0  0.25 -0.775 0  -0.25 -0.75 0  -0.225 -0.75 0  -0.2 -0.75 0  -0.175 -0.75 0  -0.15 -0.75 0  -0.125 -0.75 0  -0.1 -0.75 0  -0.07500000000000001 -0.75 0  -0.04999999999999999 -0.75 0  -0.02499999999999999 -0.75 0  0 -0.75 0  0.02500000000000002 -0.75 0  0.04999999999999999 -0.75 0  0.07500000000000001 -0.75 0  0.09999999999999998 -0.75 0  0.125 -0.75 0  0.15 -0.75 0  0.175 -0.75 0  0.2 -0.75 0  0.225 -0.75 0  0.25 -0.75 0  -0.25 -0.725 0  -0.225 -0.725 0  -0.2 -0.725 0  -0.175 -0.725 0  -0.15 -0.725 0  -0.125 -0.725 0  -0.1 -0.725 0  -0.07500000000000001 -0.725 0  -0.04999999999999999 -0.725 0  -0.02499999999999999 -0.725 0  0 -0.725 0  0.02500000000000002 -0.725 0  0.04999999999999999 -0.725 0  0.07500000000000001 -0.725 0  0.09999999999999998 -0.725 0  0.125 -0.725 0  0.15 -0.725 0  0.175 -0.725 0  0.2 -0.725 0  0.225 -0.725 0  0.25 -0.725 0  -0.25 -0.7 0  -0.225 -0.7 0  -0.2 -0.7 0  -0.175 -0.7 0  -0.15 -0.7 0  -0.125 -0.7 0  -0.1 -0.7 0  -0.07500000000000001 -0.7 0  -0.04999999999999999 -0.7 0  -0.02499999999999999 -0.7 0  0 -0.7 0  0.02500000000000002 -0.7 0  0.04999999999999999 -0.7 0  0.07500000000000001 -0.7 0  0.09999999999999998 -0.7 0  0.125 -0.7 0  0.15 -0.7 0  0.175 -0.7 0  0.2 -0.7 0  0.225 -0.7 0  0.25 -0.7 0  -0.25 -0.675 0  -0.225 -0.675 0  -0.2 -0.675 0  -0.175 -0.675 0  -0.15 -0.675 0  -0.125 -0.675 0  -0.1 -0.675 0  -0.07500000000000001 -0.675 0  -0.04999999999999999 -0.675 0  -0.02499999999999999 -0.675 0  0 -0.675 0  0.02500000000000002 -0.675 0  0.04999999999999999 -0.675 0  0.07500000000000001 -0.675 0  0.09999999999999998 -0.675 0  0.125 -0.675 0  0.15 -0.675 0  0.175 -0.675 0  0.2 -0.675 0  0.225 -0.675 0  0.25 -0.675 0  -0.25 -0.65 0  -0.225 -0.65 0  -0.2 -0.65 0  -0.175 -0.65 0  -0.15 -0.65 0  -0.125 -0.65 0  -0.1 -0.65 0  -0.07500000000000001 -0.65 0  -0.04999999999999999 -0.65 0  -0.02499999999999999 -0.65 0  0 -0.65 0  0.02500000000000002 -0.65 0  0.04999999999999999 -0.65 0  0.07500000000000001 -0.65 0  0.09999999999999998 -0.65 0  0.125 -0.65 0  0.15 -0.65 0  0.175 -0.65 0  0.2 -0.65 0  0.225 -0.65 0  0.25 -0.65 0  -0.25 -0.625 0  -0.225 -0.625 0  -0.2 -0.625 0  -0.175 -0.625 0  -0.15 -0.625 0  -0.125 -0.625 0  -0.1 -0.625 0  -0.07500000000000001 -0.625 0  -0.04999999999999999 -0.625 0  -0.02499999999999999 -0.625 0  0 -0.625 0  0.02500000000000002 -0.625 0  0.04999999999999999 -0.625 0  0.07500000000000001 -0.625 0  0.09999999999999998 -0.625 0  0.125 -0.625 0  0.15 -0.625 0  0.175 -0.625 0  0.2 -0.625 0  0.225 -0.625 0  0.25 -0.625 0  -0.25 -0.6 0  -0.225 -0.6 0  -0.2 -0.6 0  -0.175 -0.6 0  -0.15 -0.6 0  -0.125 -0.6 0  -0.1 -0.6 0  -0.07500000000000001 -0.6 0  -0.04999999999999999 -0.6 0  -0.02499999999999999 -0.6 0  0 -0.6 0  0.02500000000000002 -0.6 0  0.04999999999999999 -0.6 0  0.07500000000000001 -0.6 0  0.09999999999999998 -0.6 0  0.125 -0.6 0  0.15 -0.6 0  0.175 -0.6 0  0.2 -0.6 0  0.225 -0.6 0  0.25 -0.6 0  -0.25 -0.575 0  -0.225 -0.575 0  -0.2 -0.575 0  -0.175 -0.575 0  -0.15 -0.575 0  -0.125 -0.575 0  -0.1 -0.575 0  -0.07500000000000001 -0.575 0  -0.04999999999999999 -0.575 0  -0.02499999999999999 -0.575 0  0 -0.575 0  0.02500000000000002 -0.575 0  0.04999999999999999 -0.575 0  0.07500000000000001 -0.575 0  0.09999999999999998 -0.575 0  0.125 -0.575 0  0.15 -0.575 0  0.175 -0.575 0  0.2 -0.575 0  0.225 -0.575 0  0.25 -0.575 0  -0.25 -0.55 0  -0.225 -0.55 0  -0.2 -0.55 0  -0.175 -0.55 0  -0.15 -0.55 0  -0.125 -0.55 0  -0.1 -0.55 0  -0.07500000000000001 -0.55 0  -0.04999999999999999 -0.55 0  -0.02499999999999999 -0.55 0  0 -0.55 0  0.02500000000000002 -0.55 0  0.04999999999999999 -0.55 0  0.07500000000000001 -0.55 0  0.09999999999999998 -0.55 0  0.125 -0.55 0  0.15 -0.55 0  0.175 -0.55 0  0.2 -0.55 0  0.225 -0.55 0  0.25 -0.55 0  -0.25 -0.525 0  -0.225 -0.525 0  -0.2 -0.525 0  -0.175 -0.525 0  -0.15 -0.525 0  -0.125 -0.525 0  -0.1 -0.525 0  -0.07500000000000001 -0.525 0  -0.04999999999999999 -0.525 0  -0.02499999999999999 -0.525 0  0 -0.525 0  0.02500000000000002 -0.525 0  0.04999999999999999 -0.525 0  0.07500000000000001 -0.525 0  0.09999999999999998 -0.525 0  0.125 -0.525 0  0.15 -0.525 0  0.175 -0.525 0  0.2 -0.525 0  0.225 -0.525 0  0.25 -0.525 0  -0.25 -0.5 0  -0.225 -0.5 0  -0.2 -0.5 0  -0.175 -0.5 0  -0.15 -0.5 0  -0.125 -0.5 0  -0.1 -0.5 0  -0.07500000000000001 -0.5 0  -0.04999999999999999 -0.5 0  -0.02499999999999999 -0.5 0  0 -0.5 0  0.02500000000000002 -0.5 0  0.04999999999999999 -0.5 0  0.07500000000000001 -0.5 0  0.09999999999999998 -0.5 0  0.125 -0.5 0  0.15 -0.5 0  0.175 -0.5 0  0.2 -0.5 0  0.225 -0.5 0  0.25 -0.5 0  -0.25 -0.475 0  -0.225 -0.475 0  -0.2 -0.475 0  -0.175 -0.475 0  -0.15 -0.475 0  -0.125 -0.475 0  -0.1 -0.475 0  -0.07500000000000001 -0.475 0  -0.04999999999999999 -0.475 0  -0.02499999999999999 -0.475 0  0 -0.475 0  0.02500000000000002 -0.475 0  0.04999999999999999 -0.475 0  0.07500000000000001 -0.475 0  0.09999999999999998 -0.475 0  0.125 -0.475 0  0.15 -0.475 0  0.175 -0.475 0  0.2 -0.475 0  0.225 -0.475 0  0.25 -0.475 0  -0.25 -0.45 0  -0.225 -0.45 0  -0.2 -0.45 0  -0.175 -0.45 0  -0.15 -0.45 0  -0.125 -0.45 0  -0.1 -0.45 0  -0.07500000000000001 -0.45 0  -0.04999999999999999 -0.45 0  -0.02499999999999999 -0.45 0  0 -0.45 0  0.02500000000000002 -0.45 0  0.04999999999999999 -0.45 0  0.07500000000000001 -0.45 0  0.09999999999999998 -0.45 0  0.125 -0.45 0  0.15 -0.45 0  0.175 -0.45 0  0.2 -0.45 0  0.225 -0.45 0  0.25 -0.45 0  -0.25 -0.425 0  -0.225 -0.425 0  -0.2 -0.425 0  -0.175 -0.425 0  -0.15 -0.425 0  -0.125 -0.425 0  -0.1 -0.425 0  -0.07500000000000001 -0.425 0  -0.04999999999999999 -0.425 0  -0.02499999999999999 -0.425 0  0 -0.425 0  0.02500000000000002 -0.425 0  0.04999999999999999 -0.425 0  0.07500000000000001 -0.425 0  0.
[...]
<PointData  Vectors="flow"> 
<DataArray  type="Float64"  Name="flow"  NumberOfComponents="3" format="ascii">-6.7725312667409843e-01 1.3545206113843613e+00 0.0000000000000000e+00  3.2633238939171343e-05 1.3545206113867780e+00 0.0000000000000000e+00  -1.5722841228699793e-09 1.3545206113825403e+00 0.0000000000000000e+00  -2.6943557866414893e-12 1.3545206113811026e+00 0.0000000000000000e+00  -2.9370522830216870e-12 1.3545206113844477e+00 0.0000000000000000e+00  -1.9711996747328220e-12 1.3545206113873272e+00 0.0000000000000000e+00  -6.4116993019739282e-12 1.3545206113919592e+00 0.0000000000000000e+00  -2.1034602229169421e-12 1.3545206113813522e+00 0.0000000000000000e+00  -5.0193891795451155e-12 1.3545206113791906e+00 0.0000000000000000e+00  -1.0077585612795866e-11 1.3545206113865194e+00 0.0000000000000000e+00  -4.8853784468266151e-12 1.3545206113876864e+00 0.0000000000000000e+00  -4.4244430908101190e-12 1.3545206113828736e+00 0.0000000000000000e+00  -6.9203746453555919e-12 1.3545206113862169e+00 0.0000000000000000e+00  -5.5790974370647694e-12 1.3545206113781443e+00 0.0000000000000000e+00  -5.6696186250009866e-12 1.3545206113825135e+00 0.0000000000000000e+00  -3.5476159711001470e-12 1.3545206113811226e+00 0.0000000000000000e+00  -3.1031439656205388e-12 1.3545206113857591e+00 0.0000000000000000e+00  -4.3937380182588511e-12 1.3545206113824138e+00 0.0000000000000000e+00  1.5705400221909745e-09 1.3545206113841994e+00 0.0000000000000000e+00  -3.2633240503488758e-05 1.3545206113807471e+00 0.0000000000000000e+00  6.7725312667117987e-01 1.3545206113827335e+00 0.0000000000000000e+00  -6.7673104508567927e-01 4.0623727752032490e+00 0.0000000000000000e+00  3.2608105238825362e-05 4.0623727752036105e+00 0.0000000000000000e+00  -1.5732616377936006e-09 4.0623727752034249e+00 0.0000000000000000e+00  -2.3800156181013473e-12 4.0623727752046177e+00 0.0000000000000000e+00  -2.5839427576430895e-12 4.0623727752029097e+00 0.0000000000000000e+00  -1.6930004286446660e-12 4.0623727752013696e+00 0.0000000000000000e+00  -5.9354666362823037e-12 4.0623727752030794e+00 0.0000000000000000e+00  -6.9077304125351947e-12 4.0623727752032233e+00 0.0000000000000000e+00  -3.5535834106265981e-12 4.0623727752047767e+00 0.0000000000000000e+00  -3.9609965663814253e-12 4.0623727752043326e+00 0.0000000000000000e+00  -8.0224071146551802e-12 4.0623727752047207e+00 0.0000000000000000e+00  -6.2443503674503887e-12 4.0623727752030279e+00 0.0000000000000000e+00  -7.8940750261071398e-12 4.0623727752016690e+00 0.0000000000000000e+00  -2.5817021538332469e-12 4.0623727752044418e+00 0.0000000000000000e+00  -5.9265503649953392e-12 4.0623727752014673e+00 0.0000000000000000e+00  -5.6870844906969878e-12 4.0623727752043131e+00 0.0000000000000000e+00  -1.9384655296881424e-12 4.0623727752024639e+00 0.0000000000000000e+00  -2.6953367985614981e-12 4.0623727752042029e+00 0.0000000000000000e+00  1.5677696805039185e-09 4.0623727752042749e+00 0.0000000000000000e+00  -3.2608109056278971e-05 4.0623727752024736e+00 0.0000000000000000e+00  6.7673104508878412e-01 4.0623727752044667e+00 0.0000000000000000e+00  -6.7516560456707175e-01 8.1184823367042345e+00 0.0000000000000000e+00  3.2532737506288136e-05 8.1184823367035932e+00 0.0000000000000000e+00  -1.5663411404403600e-09 8.1184823367038188e+00 0.0000000000000000e+00  -2.8523380791904417e-12 8.1184823367051386e+00 0.0000000000000000e+00  -4.1453465833822165e-12 8.1184823367049379e+00 0.0000000000000000e+00  -1.7530707161861645e-12 8.1184823367052168e+00 0.0000000000000000e+00  -4.8192279948356048e-12 8.1184823367024368e+00 0.0000000000000000e+00  -4.1403882177076582e-12 8.1184823367034387e+00 0.0000000000000000e+00  -4.3721444201841873e-12 8.1184823367035523e+00 0.0000000000000000e+00  -8.1704857208843833e-12 8.1184823367025825e+00 0.0000000000000000e+00  -7.2670134592925738e-12 8.1184823367010353e+00 0.0000000000000000e+00  -5.5731832284903990e-12 8.1184823367036465e+00 0.0000000000000000e+00  -6.6756453973610175e-12 8.1184823367038401e+00 0.0000000000000000e+00  -4.1828181743000738e-12 8.1184823367037637e+00 0.0000000000000000e+00  -6.4250769219158318e-12 8.1184823367032308e+00 0.0000000000000000e+00  -4.1726462268097834e-12 8.1184823367037566e+00 0.0000000000000000e+00  -2.7595456356230692e-12 8.1184823367032131e+00 0.0000000000000000e+00  -2.0024305764555454e-12 8.1184823367031367e+00 0.0000000000000000e+00  1.5641108895593521e-09 8.1184823367055134e+00 0.0000000000000000e+00  -3.2532741102386869e-05 8.1184823367057959e+00 0.0000000000000000e+00  6.7516560457252084e-01 8.1184823367040018e+00 0.0000000000000000e+00  -6.7255921658168683e-01 1.2162075118921836e+01 0.0000000000000000e+00  3.2407257125786107e-05 1.2162075118921580e+01 0.0000000000000000e+00  -1.5625634275589638e-09 1.2162075118920963e+01 0.0000000000000000e+00  -3.1455972665673742e-12 1.2162075118920935e+01 0.0000000000000000e+00  -3.0598414009937893e-12 1.2162075118922345e+01 0.0000000000000000e+00  -3.7711601808587647e-12 1.2162075118921448e+01 0.0000000000000000e+00  -4.4164564716822940e-12 1.2162075118923692e+01 0.0000000000000000e+00  -6.0519047950881874e-12 1.2162075118922186e+01 0.0000000000000000e+00  -4.0206704810971478e-12 1.2162075118920201e+01 0.0000000000000000e+00  -6.2946950247807682e-12 1.2162075118920887e+01 0.0000000000000000e+00  -7.4926190270388729e-12 1.2162075118921463e+01 0.0000000000000000e+00  -4.3988294878915132e-12 1.2162075118920075e+01 0.0000000000000000e+00  -7.6750115778374942e-12 1.2162075118921006e+01 0.0000000000000000e+00  -3.3413469651192876e-12 1.2162075118920995e+01 0.0000000000000000e+00  -4.7472882346365942e-12 1.2162075118922029e+01 0.0000000000000000e+00  -7.1229050272696886e-12 1.2162075118921935e+01 0.0000000000000000e+00  -8.7416719116398793e-13 1.2162075118922129e+01 0.0000000000000000e+00  -1.0348485655768200e-12 1.2162075118921619e+01 0.0000000000000000e+00  1.5595121984364359e-09 1.2162075118920690e+01 0.0000000000000000e+00  -3.2407261801581197e-05 1.2162075118922704e+01 0.0000000000000000e+00  6.7255921658637263e-01 1.2162075118921043e+01 0.0000000000000000e+00  -6.6891589617916181e-01 1.6186916837782000e+01 0.0000000000000000e+00  3.2231852552202924e-05 1.6186916837781766e+01 0.0000000000000000e+00  -1.5544404347175799e-09 1.6186916837782963e+01 0.0000000000000000e+00  -6.0462652716310975e-13 1.6186916837780846e+01 0.0000000000000000e+00  -4.1882326889923963e-12 1.6186916837780647e+01 0.0000000000000000e+00  -2.1292877337625795e-12 1.6186916837779421e+01 0.0000000000000000e+00  -4.6550802216641051e-12 1.6186916837781272e+01 0.0000000000000000e+00  -6.9044247911230209e-12 1.6186916837780469e+01 0.0000000000000000e+00  -3.7152340589186642e-12 1.6186916837783730e+01 0.0000000000000000e+00  -6.9733299866573612e-12 1.6186916837780718e+01 0.0000000000000000e+00  -8.2658710782801876e-12 1.6186916837782316e+01 0.0000000000000000e+00  -7.1323421102400584e-12 1.6186916837780075e+01 0.0000000000000000e+00  -4.3412178136295292e-12 1.6186916837779926e+01 0.0000000000000000e+00  -4.4763499839323567e-12 1.6186916837781499e+01 0.0000000000000000e+00  -4.4255168291084362e-12 1.6186916837781631e+01 0.0000000000000000e+00  -5.3436108991022051e-12 1.6186916837781254e+01 0.0000000000000000e+00  -3.4720172815515807e-12 1.6186916837780412e+01 0.0000000000000000e+00  -1.5504304037550433e-12 1.6186916837780011e+01 0.0000000000000000e+00  1.5501028183618176e-09 1.6186916837778792e+01 0.0000000000000000e+00  -3.2231852761840692e-05 1.6186916837781766e+01 0.0000000000000000e+00  6.6891589617559932e-01 1.6186916837781478e+01 0.0000000000000000e+00  -6.6424125579119064e-01 2.0186802094608048e+01 0.0000000000000000e+00  3.2006791540770467e-05 2.0186802094607362e+01 0.0000000000000000e+00  -1.5462237105962978e-09 2.0186802094605273e+01 0.0000000000000000e+00  -3.1637300362883221e-12 2.0186802094605820e+01 0.0000000000000000e+00  -3.1498930023227455e-12 2.0186802094606140e+01 0.0000000000000000e+00  -2.8561232423719197e-12 2.0186802094604570e+01 0.0000000000000000e+00  -4.5920458354551554e-12 2.0186802094604779e+01 0.0000000000000000e+00  -4.7344405744649213e-12 2.0186802094604730e+01 0.0000000000000000e+00  -5.9708876002793754e-12 2.0186802094602033e+01 0.0000000000000000e+00  -7.4398869082969672e-12 2.0186802094605014e+01 0.0000000000000000e+00  -6.5221124470400741e-12 2.0186802094604200e+01 0.0000000000000000e+00  -5.0141945299266815e-12 2.0186802094607007e+01 0.0000000000000000e+00  -7.7504244843498787e-12 2.0186802094606055e+01 0.0000000000000000e+00  -3.8096880500348484e-12 2.0186802094604399e+01 0.0000000000000000e+00  -4.7321399020331417e-12 2.0186802094603458e+01 0.0000000000000000e+00  -5.9221070256625010e-12 2.0186802094601809e+01 0.0000000000000000e+00  -3.6785735893320643e-12 2.0186802094604385e+01 0.0000000000000000e+00  -2.2275853342422250e-12 2.0186802094603649e+01 0.0000000000000000e+00  1.5419419321756365e-09 2.0186802094603983e+01 0.0000000000000000e+00  -3.2006789220219835e-05 2.0186802094605056e+01 0.0000000000000000e+00  6.6424125578588022e-01 2.0186802094606598e+01 0.0000000000000000e+00  -6.5854249670679332e-01 2.4155563935861053e+01 0.0000000000000000e+00  3.1732415945438500e-05 2.4155563935862194e+01 0.0000000000000000e+00  -1.5326028586196971e-09 2.4155563935863473e+01 0.0000000000000000e+00  -4.1237817580739902e-13 2.4155563935864514e+01 0.0000000000000000e+00  -4.3928854230226470e-12 2.4155563935863253e+01 0.0000000000000000e+00  -3.7605044704499571e-12 2.4155563935866130e+01 0.0000000000000000e+00  -3.5868622044835386e-12 2.4155563935863071e+01 0.0000000000000000e+00  -8.4702284778590346e-12 2.4155563935864016e+01 0.0000000000000000e+00  -5.0347756414580483e-12 2.4155563935861164e+01 0.0000000000000000e+00  -5.8805484610888480e-12 2.4155563935862215e+01 0.0000000000000000e+00  -7.6067417609199309e-12 2.4155563935862268e+01 0.0000000000000000e+00  -4.9718902895962076e-12 2.4155563935861942e+01 0.0000000000000000e+00  -5.5103183360093516e-12 2.4155563935863150e+01 0.0000000000000000e+00  -5.0561466867436578e-12 2.4155563935863952e+01 0.0000000000000000e+00  -5.8314383639303806e-12 2.4155563935862737e+01 0.0000000000000000e+00  -5.2376265767677215e-12 2.4155563935864606e+01 0.0000000000000000e+00  -2.5530925155591674e-12 2.4155563935860702e+01 0.0000000000000000e+00  -3.6956457065459506e-12 2.4155563935862475e+01 0.0000000000000000e+00  1.5282308845319666e-09 2.4155563935862880e+01 0.0000000000000000e+00  -3.1732417288219272e-05 2.4155563935858805e+01 0.0000000000000000e+00  6.5854249670651510e-01 2.4155563935861217e+01 0.0000000000000000e+00  -6.5182839804493942e-01 2.8087083354120843e+01 0.0000000000000000e+00  3.1409151659544871e-05 2.8087083354123500e+01 0.0000000000000000e+00  -1.5150178920835581e-09 2.8087083354121987e+01 0.0000000000000000e+00  -2.0323638236928994e-12 2.8087083354121724e+01 0.0000000000000000e+00  -3.0617865664908985e-12 2.8087083354121482e+01 0.0000000000000000e+00  -3.4391250271767796e-12 2.8087083354122779e+01 0.0000000000000000e+00  -7.5153474871498005e-12 2.8087083354122623e+01 0.0000000000000000e+00  -5.8187114951267664e-12 2.8087083354121486e+01 0.0000000000000000e+00  -4.6328916510960957e-12 2.8087083354124474e+01 0.0000000000000000e+00  -7.1198514070438793e-12 2.8087083354123770e+01 0.0000000000000000e+00  -6.0316582989587807e-12 2.8087083354122473e+01 0.0000000000000000e+00  -4.1576284550363015e-12 2.8087083354122750e+01 0.0000000000000000e+00  -7.7340667423325209e-12 2.8087083354122200e+01 0.0000000000000000e+00  -6.5011435682706090e-12 2.8087083354119873e+01 0.0000000000000000e+00  -3.9139748890955289e-12 2.8087083354121429e+01 0.0000000000000000e+00  -7.4968084205740927e-12 2.8087083354122150e+01 0.0000000000000000e+00  -3.8087341336585830e-12 2.8087083354122704e+01 0.0000000000000000e+00  -1.5734669649429281e-12 2.8087083354122093e+01 0.0000000000000000e+00  1.5129615653256959e-09 2.8087083354121983e+01 0.0000000000000000e+00  -3.1409153683464348e-05 2.8087083354121379e+01 0.0000000000000000e+00  6.5182839804874004e-01 2.8087083354120907e+01 0.0000000000000000e+00  -6.4410930329246940e-01 3.1975298715694507e+01 0.0000000000000000e+00  3.1037488332859224e-05 3.1975298715694713e+01 0.0000000000000000e+00  -1.4995492528773046e-09 3.1975298715696336e+01 0.0000000000000000e+00  -2.3689989522375683e-12 3.1975298715695732e+01 0.0000000000000000e+00  -3.4700245900424632e-12 3.1975298715698891e+01 0.0000000000000000e+00  -3.7146802618803604e-12 3.1975298715694560e+01 0.0000000000000000e+00  -5.4250566702421496e-12 3.1975298715695363e+01 0.0000000000000000e+00  -5.0029395294254375e-12 3.1975298715696230e+01 0.0000000000000000e+00  -4.2416183957672911e-12 3.1975298715696759e+01 0.0000000000000000e+00  -7.4460838716417270e-12 3.1975298715697033e+01 0.0000000000000000e+00  -7.7663356122945863e-12 3.1975298715697267e+01 0.0000000000000000e+00  -6.3273378579835365e-12 3.1975298715695320e+01 0.0000000000000000e+00  -6.6654171701569226e-12 3.1975298715694326e+01 0.0000000000000000e+00  -4.7799420040895534e-12 3.1975298715695654e+01 0.0000000000000000e+00  -4.3950158354170999e-12 3.1975298715695889e+01 0.0000000000000000e+00  -4.0290882219574010e-12 3.1975298715697022e+01 0.0000000000000000e+00  -3.4077031734789283e-12 3.1975298715696987e+01 0.0000000000000000e+00  -4.8394444140161178e-12 3.1975298715698408e+01 0.0000000000000000e+00  1.4951736320259882e-09 3.1975298715693825e+01 0.0000000000000000e+00  -3.1037490016853796e-05 3.1975298715698973e+01 0.0000000000000000e+00  6.4410930330082405e-01 3.1975298715695292e+01 0.0000000000000000e+00  -6.3539710456853982e-01 3.5814215100530575e+01 0.0000000000000000e+00  3.0617996717495737e-05 3.5814215100528443e+01 0.0000000000000000e+00  -1.4754104944206411e-09 3.5814215100529680e+01 0.0000000000000000e+00  -3.2033903342968940e-13 3.5814215100531293e+01 0.0000000000000000e+00  -1.5623910032435748e-12 3.5814215100530930e+01 0.0000000000000000e+00  -5.6408944770241873e-12 3.5814215100533694e+01 0.0000000000000000e+00  -7.2745439454843811e-12 3.5814215100533026e+01 0.0000000000000000e+00  -4.8562226676902554e-12 3.5814215100532422e+01 0.0000000000000000e+00  -3.9415173972552476e-12 3.5814215100531513e+01 0.0000000000000000e+00  -5.7430916053423335e-12 3.5814215100532067e+01 0.0000000000000000e+00  -7.5634000116879206e-12 3.5814215100531733e+01 0.0000000000000000e+00  -7.3735922575457423e-12 3.5814215100532913e+01 0.0000000000000000e+00  -6.8806481489651630e-12 3.5814215100532344e+01 0.0000000000000000e+00  -5.7228212507834539e-12 3.5814215100532074e+01 0.0000000000000000e+00  -4.5061351673763546e-12 3.5814215100532294e+01 0.0000000000000000e+00  -5.4955427937716929e-12 3.5814215100530006e+01 0.0000000000000000e+00  -1.5368561751715016e-12 3.5814215100532031e+01 0.0000000000000000e+00  -3.8310976547923742e-12 3.5814215100531989e+01 0.0000000000000000e+00  1.4736021950463762e-09 3.5814215100533701e+01 0.0000000000000000e+00  -3.0617997669833047e-05 3.5814215100531811e+01 0.0000000000000000e+00  6.3539710456870979e-01 3.5814215100529225e+01 0.0000000000000000e+00  -6.2570522430701703e-01 3.9597913540024237e+01 0.0000000000000000e+00  3.0151317538044327e-05 3.9597913540025310e+01 0.0000000000000000e+00  -1.4539540761281031e-09 3.9597913540023974e+01 0.0000000000000000e+00  -7.2775845851374084e-13 3.9597913540024187e+01 0.0000000000000000e+00  -2.1067438705769992e-12 3.9597913540024521e+01 0.0000000000000000e+00  -3.0964439151444131e-12 3.9597913540024969e+01 0.0000000000000000e+00  -5.7880036717437733e-12 3.9597913540025900e+01 0.0000000000000000e+00  -5.9058542229055100e-12 3.9597913540025942e+01 0.0000000000000000e+00  -5.6927658124223591e-12 3.9597913540024898e+01 0.0000000000000000e+00  -5.8447046697338316e-12 3.9597913540024393e+01 0.0000000000000000e+00  -8.5377594624482114e-12 3.9597913540024926e+01 0.0000000000000000e+00  -6.5463393748796955e-12 3.9597913540025921e+01 0.0000000000000000e+00  -7.0752711369538135e-12 3.9597913540025601e+01 0.0000000000000000e+00  -4.3221592157855838e-12 3.9597913540024841e+01 0.0000000000000000e+00  -5.6072864141935804e-12 3.9597913540025310e+01 0.0000000000000000e+00  -4.7950072516441990e-12 3.9597913540022603e+01 0.0000000000000000e+00  -2.7705337319562065e-12 3.9597913540023292e+01 0.0000000000000000e+00  -1.7787977439917403e-12 3.9597913540021771e+01 0.0000000000000000e+00  1.4535041525682191e-09 3.9597913540025054e+01 0.0000000000000000e+00  -3.0151321363207048e-05 3.9597913540025537e+01 0.0000000000000000e+00  6.2570522430942033e-01 3.9597913540026340e+01 0.0000000000000000e+00  -6.1504859482650787e-01 4.3320560138627258e+01 0.0000000000000000e+00  2.9638164092820617e-05 4.3320560138627997e+01 0.0000000000000000e+00  -1.4287345845352537e-09 4.3320560138627258e+01 0.0000000000000000e+00  -6.5078176366074169e-13 4.3320560138626426e+01 0.0000000000000000e+00  -1.9615315784664685e-12 4.3320560138626234e+01 0.0000000000000000e+00  -3.4614670782895023e-12 4.3320560138625893e+01 0.0000000000000000e+00  -6.0906105767534722e-12 4.3320560138625943e+01 0.0000000000000000e+00  -5.3096389226765431e-12 4.3320560138626441e+01 0.0000000000000000e+00  -5.4871551829525074e-12 4.3320560138627499e+01 0.0000000000000000e+00  -6.7148958597497170e-12 4.3320560138626746e+01 0.0000000000000000e+00  -7.5044719641787996e-12 4.3320560138624820e+01 0.0000000000000000e+00  -6.2503881012543609e-12 4.3320560138624153e+01 0.0000000000000000e+00  -7.1898759846145555e-12 4.3320560138624529e+01 0.0000000000000000e+00  -5.9584725453207960e-12 4.3320560138624188e+01 0.0000000000000000e+00  -5.5080604167325145e-12 4.3320560138622668e+01 0.0000000000000000e+00  -5.6371754315557624e-12 4.3320560138627926e+01 0.0000000000000000e+00  -2.6735514547173925e-12 4.3320560138625062e+01 0.0000000000000000e+00  -2.1405268686454162e-12 4.3320560138627457e+01 0.0000000000000000e+00  1.4272515027362525e-09 4.3320560138625012e+01 0.0000000000000000e+00  -2.9638164585084659e-05 4.3320560138624835e+01 0.0000000000000000e+00  6.1504859482903562e-01 4.3320560138629148e+01 0.0000000000000000e+00  -6.0344363540823120e-01 4.6976415065215335e+01 0.0000000000000000e+00  2.9079326003294591e-05 4.6976415065214361e+01 0.0000000000000000e+00  -1.4026617500564577e-09 4.6976415065213814e+01 0.0000000000000000e+00  -1.9028001682244816e-12 4.6976415065216059e+01 0.0000000000000000e+00  -1.0551529730446051e-12 4.6976415065214894e+01 0.0000000000000000e+00  -3.4809909072054796e-12 4.6976415065217211e+01 0.0000000000000000e+00  -5.0529608484121028e-12 4.6976415065217886e+01 0.0000000000000000e+00  -6.3978652316690198e-12 4.6976415065216294e+01 0.0000000000000000e+00  -5.7565716906440183e-12 4.6976415065215271e+01 0.0000000000000000e+00  -8.3299518380129088e-12 4.6976415065214596e+01 0.0000000000000000e+00  -8.0655570024913696e-12 4.6976415065215058e+01 0.0000000000000000e+00  -5.7638723330742092e-12 4.6976415065215640e+01 0.0000000000000000e+00  -7.8070237577653140e-12 4.6976415065214212e+01 0.0000000000000000e+00  -7.8047402129106102e-12 4.6976415065215669e+01 0.0000000000000000e+00  -3.4659178368376592e-12 4.6976415065214717e+01 0.0000000000000000e+00  -2.8096368459292838e-12 4.6976415065213615e+01 0.0000000000000000e+00  -5.1183084816607695e-12 4.6976415065216251e+01 0.0000000000000000e+00  2.6708113769690747e-13 4.6976415065215370e+01 0.0000000000000000e+00  1.4008670871579636e-09 4.6976415065217502e+01 0.0000000000000000e+00  -2.9079328756382253e-05 4.6976415065215960e+01 0.0000000000000000e+00  6.0344363542010038e-01 4.6976415065213793e+01 0.0000000000000000e+00  -5.9090822718589009e-01 5.0559841400455554e+01 0.0000000000000000e+00  2.8475656670514885e-05 5.0559841400456747e+01 0.0000000000000000e+00  -1.3725161290797213e-09 5.0559841400458843e+01 0.0000000000000000e+00  -3.7247165073077385e-13 5.0559841400458581e+01 0.0000000000000000e+00  -9.6251523860297537e-13 5.0559841400459732e+01 0.0000000000000000e+00  -1.5040534774788218e-12 5.0559841400458708e+01 0.0000000000000000e+00  -5.1198031496285501e-12 5.0559841400460364e+01 0.0000000000000000e+00  -7.6210123243688666e-12 5.0559841400458687e+01 0.0000