<?xml version="1.0"?>
<VTKFile type="UnstructuredGrid"  version="0.1"  >
<UnstructuredGrid>
<Piece  NumberOfPoints="506" NumberOfCells="927">
<Points>
<DataArray  type="Float64"  NumberOfComponents="3"  format="ascii">0.0253163763831596 -0.05095008515408326 0  0.02646635899959049 -0.05225988253257415 0  0.02502149670340228 -0.05243561046763882 0  0.01846824474048517 -0.04149541481145257 0  0.01782868919038702 -0.04338851755545801 0  0.01904305817301197 -0.04274419001873621 0  0.0192363369162766 -0.06806970979678284 0  0.01785689970612189 -0.06858119646279974 0  0.01816465710605705 -0.06729533536873264 0  0.03307580228966352 -0.05623244866465846 0  0.03304454983566926 -0.05808833194342944 0  0.03147362087845901 -0.05656070851086208 0  0.01533533535351063 -0.06979991037261025 0  0.0177806445325376 -0.07005043122102393 0  0.01646203234597888 -0.06811342443084387 0  0.01017345837010273 -0.05769818894326342 0  0.01257096511573747 -0.05741073122222133 0  0.01199697692997241 -0.058984518130708 0  0.01470753125203114 -0.04816506250406229 0  0.01581567795051093 -0.04979263651326838 0  0.01423898291326179 -0.04967510961170915 0  0.05 -0.046875 0  0.04838162252857063 -0.0484375 0  0.04830480312230745 -0.04673855680545282 0  0.03965658412817928 -0.06102022076500465 0  0.03788556172893791 -0.06203052595151176 0  0.04026188792608635 -0.06274413791360257 0  0.03646473132841593 -0.0487266977067035 0  0.03567804538662531 -0.04684423509208469 0  0.03720001892537535 -0.04655850289330472 0  0.03072628767995273 -0.06184751883997637 0  0.03115040578880909 -0.06003372802837696 0  0.03202687516019807 -0.06100224316397799 0  0.01914387172830702 -0.06345432668240811 0  0.01904183715184792 -0.06150750363943223 0  0.01763933584190689 -0.06216030655882796 0  0.0328125 -0.05312500000000001 0  0.03185172221986971 -0.05133039393955258 0  0.03328223773659549 -0.05171902792461655 0  0.003880552158806201 -0.04910058949648512 0  0.004639589519810899 -0.05108934613081326 0  0.005570108460811736 -0.0499414484761177 0  0.03470250342566425 -0.06222309747987002 0  0.03270661615787385 -0.06211766788261659 0  0.03364747500351112 -0.06325105457070009 0  0.0337884473891351 -0.05460718489330078 0  0.0321356245381919 -0.05463308953185839 0  0.0396437922234081 -0.05261372697940805 0  0.03997754446209789 -0.0511507576845467 0  0.04105826602165569 -0.05283533998746703 0  0.0247793305670809 -0.05631957595084435 0  0.02619917778579364 -0.05802778737135143 0  0.02492128034734876 -0.05869428615775265 0  0.02164306295595804 -0.06702658770968295 0  0.02309723803175772 -0.06832518233624925 0  0.02097971601908238 -0.06879409185499595 0  0.01711132032047017 -0.07193570335093875 0  0.01598258986133356 -0.07106798872868814 0  0.01066098305406274 -0.05999515557027461 0  0.01209909079558958 -0.06050787089223954 0  0.01649073826091686 -0.06319659086967212 0  0.01570123454296709 -0.06506178719416507 0  0.01770106090999505 -0.06452207583910662 0  0.01728938824664831 -0.06065342293474459 0  0.002672434464373351 -0.05782442806434116 0  0.004205271826810189 -0.05906909110223223 0  0.003621073244015077 -0.05672544031758242 0  0.009461554335003694 -0.05904950974817084 0  0.03290049244401597 -0.04238139970258363 0  0.03373646600975794 -0.04433173846458283 0  0.03511731072848739 -0.04293786140075419 0  0.04464334080337827 -0.06477056026673604 0  0.04502387202811982 -0.06659229383285178 0  0.04636594091932174 -0.06552590861214863 0  0.003579743803523502 -0.05527424030410576 0  0.00495579046143639 -0.05615428398934548 0  0.01809300284513205 -0.05689299134079161 0  0.01981701831826052 -0.05842591866861049 0  0.01792103282159441 -0.05882232399720749 0  0.01454995940546648 -0.05199794358506395 0  0.01686434304608255 -0.05145915617355584 0  0.007184194424042271 -0.04772337119454249 0  0.009116470808511714 -0.04731590763080268 0  0.007927373114962557 -0.04646231940317579 0  0.02185322155471688 -0.04796886364206988 0  0.02117147262782209 -0.04651482738331746 0  0.02317806061277227 -0.04726948819474937 0  0.03869863810845114 -0.05851213874557144 0  0.04018585363524062 -0.05724246148436949 0  0.03970578764389624 -0.05956444608131971 0  0.01270832488148558 -0.05007117248908488 0  0.01282123189459499 -0.04818811416515179 0  0.01182500023256633 -0.04907329480983055 0  0.04205467609998415 -0.06146564627654705 0  0.04107518642763387 -0.06006088126008405 0  0.04241869617792832 -0.06016796568913897 0  0.01439721346977286 -0.05583102001882564 0  0.01422104128432557 -0.0574728398015178 0  0.02088671269095009 -0.06240702469651116 0  0.0278582381998454 -0.05655080703154879 0  0.02860271266695176 -0.05463752982112181 0  0.02637310899341614 -0.0557118438524549 0  0.02378330144214598 -0.0516705092605356 0  0.02507311958935473 -0.06271161136998743 0  0.02657608507230502 -0.06228073040903606 0  0.02551730029560318 -0.06142426381158862 0  0.0305796626780135 -0.05519119088158705 0  0.0314309378115113 -0.04933875006157912 0  0.03311732503601984 -0.04913370444965118 0  0.0376081921684235 -0.05245551308128505 0  0.03762419922489806 -0.05459874974087802 0  0.03635973676985995 -0.05369008569158945 0  0.04767128262860884 -0.05537540323700023 0  0.04546530640752131 -0.05503961419206276 0  0.04578782911147741 -0.05675321623119051 0  0.03686548041120438 -0.06032818054708596 0  0.036644526860098 -0.05856190909012812 0  0.03769074722308389 -0.05932798700863462 0  0.01172901776142153 -0.07037684730407788 0  0.01149171032184903 -0.07201869888808959 0  0.01024567414151233 -0.07100052562916147 0  0.04321758283034931 -0.06704044172466167 0  0.04133630972986371 -0.06599851068428712 0  0.04130559735643655 -0.06764829107165204 0  0.04313110864619899 -0.06285939600837437 0  0.04345056050076136 -0.06150011966148285 0  0.006734928674614752 -0.05146463867314664 0  0.008637288779891891 -0.05258740018528525 0  0.00688671743750553 -0.05338047456655459 0  0.01132326291384637 -0.05562964572743351 0  0.01288299677436642 -0.05538292627510294 0  0.02073553625659391 -0.06054214652517984 0  0.01913420206319778 -0.05989244632510003 0  0.02307251020656784 -0.04577510415514846 0  0.0213724062387126 -0.04492151990354357 0  0.04141166808534667 -0.05159229946940671 0  0.04316771177950235 -0.05055961249403544 0  0.04178869705860652 -0.05022403725139264 0  0.037033205797572 -0.05682482417137066 0  0.03841317868273451 -0.05712832193281868 0  0.005332838990544739 -0.06042849285714701 0  0.005783754170669378 -0.06253278840008002 0  0.006730960667624127 -0.06048731509119946 0  0.01437979286162626 -0.04363939227738707 0  0.01278171761862835 -0.04367259786063482 0  0.01355286895323156 -0.0423139200217296 0  0.0472227281394374 -0.06404123962307648 0  0.04542281870194612 -0.06345085768052849 0  0.04651019676850526 -0.06237066804404576 0  0.01512933394003292 -0.07220768844695416 0  0.02448333984417315 -0.04800472330961902 0  0.02500654499424886 -0.04669303744947168 0  0.02389766944944421 -0.05336055352824819 0  0.02505789171550941 -0.05462571702396751 0  0.0200352813999171 -0.04944197410413204 0  0.01897132622274226 -0.04818917069836885 0  0.02039596393456947 -0.04786566231201216 0  0.02255522939491745 -0.05050381790686167 0  0.02095559199324484 -0.05077897888898596 0  0.02151442938367597 -0.04940906557037485 0  0.04101455865131804 -0.05412690199292355 0  0.04137242529330159 -0.05622945225612468 0  0.04300194989211428 -0.05554265833234732 0  0.04458359100409873 -0.05142183950571137 0  0.0450942789909098 -0.0535172481422591 0  0.04558556164603902 -0.05228757776095139 0  0.04038356695604921 -0.04718651728124535 0  0.04087499337498022 -0.04913801795025204 0  0.03949842572283077 -0.04854765949591838 0  0.04661131594773271 -0.05312500000000001 0  0.03574277499268416 -0.04107817866960801 0  0.03820043002416379 -0.04093979798944077 0  0.03707928880466434 -0.04292150796345522 0  0.03243759091146019 -0.06496581287053931 0  0.03455716392834415 -0.06440960832956279 0  0.03353474093578226 -0.06589739558154034 0  0.0323993317698328 -0.06678194662539473 0  0.03108390978108366 -0.06594845893192823 0  0.02679267124047066 -0.0428532372923227 0  0.02821806380327154 -0.04112526145165905 0  0.02615798433030357 -0.04116160286013801 0  0.02372950319315786 -0.05788378649075276 0  0.02250150625287546 -0.06335204673888746 0  0.02250509796962503 -0.06529043073346426 0  0.02084932671181944 -0.0642776468381467 0  0.03083821191399366 -0.04255063245582474 0  0.03197162211996991 -0.04371228374323241 0  0.03072615116502058 -0.04446503378680532 0  0.01965556274601837 -0.05175082112889391 0  0.01877450229532074 -0.05042027151892382 0  0.04223301087510136 -0.04569262834787229 0  0.04031932057730703 -0.04493236495192904 0  0.03939012096774194 -0.04309475806451613 0  0.04119780571004474 -0.04209087172511992 0  0.04081367777890351 -0.04352865775540111 0  0.01197199101441062 -0.06755294829741498 0  0.01337340521578251 -0.06909593087496524 0  0.01186406041631937 -0.06896606418534836 0  0.04808091073522938 -0.06576331931689557 0  0.04861206813000137 -0.06395989746230757 0  0.04678717767873879 -0.06718750000000001 0  0.008313665520766877 -0.06005709425733914 0  0.007768576962588843 -0.05771474349345229 0  0.00657822564587902 -0.05909631678341087 0  0.01354726629139471 -0.05961923898792222 0  0.003215512932028335 -0.04739683855119951 0  0.002603650539220802 -0.04934298948539233 0  0.002176752981164273 -0.0505705863148308 0  0.01395860158789553 -0.06402955474289401 0  0.01448547405983569 -0.06574069725137739 0  0.01349893281808287 -0.07116271226355417 0  0.04717288172427113 -0.0578125 0  0.04846232952183962 -0.05680668843943944 0  0.04858644086213557 -0.05859375 0  0.03479367289758345 -0.04895195240542109 0  0.02934782918035935 -0.04845372965486152 0  0.03107876921314726 -0.04727360457566997 0  0.03580429802300419 -0.04480791474934491 0  0.03387767081518499 -0.04110627416298633 0  0.031751809693708 -0.04128127335665044 0  0.02805149774555685 -0.05153506231567133 0  0.02853879771183543 -0.04983387946955761 0  0.02677174314827488 -0.05083202728684691 0  0.03031862075128205 -0.05266953722613586 0  0.029
[...]
<PointData  Vectors="flow"> 
<DataArray  type="Float64"  Name="flow"  NumberOfComponents="3" format="ascii">7.8703909650048698e-07 -8.9236194767546100e-08 0.0000000000000000e+00  -8.4935982679714004e-09 8.2324688122020340e-07 0.0000000000000000e+00  -6.8727175955858235e-07 -7.5820357417107307e-07 0.0000000000000000e+00  2.7208963453332439e-07 3.9544303592199671e-08 0.0000000000000000e+00  2.0767025508386294e-08 7.3816699824804505e-09 0.0000000000000000e+00  -6.2816963266328517e-07 7.5612085309614610e-08 0.0000000000000000e+00  1.6904138125033063e-07 -3.8093731842430584e-07 0.0000000000000000e+00  -3.6400430383448067e-09 -4.2732719782020752e-07 0.0000000000000000e+00  1.2642704028327869e-07 -2.4437918247676120e-08 0.0000000000000000e+00  1.5042766775772779e-07 1.0600990417258103e-08 0.0000000000000000e+00  2.7538272867898025e-07 -9.0683823436851935e-08 0.0000000000000000e+00  1.2007124490955705e-06 1.0151818794507284e-07 0.0000000000000000e+00  1.3789499015598278e-08 -9.4491546526313720e-08 0.0000000000000000e+00  9.5292690527224136e-08 7.6625367281181382e-08 0.0000000000000000e+00  -9.0698211193810886e-08 3.0900094062030351e-07 0.0000000000000000e+00  5.3977888968244420e-08 6.3196579418282129e-08 0.0000000000000000e+00  1.8611877691451112e-07 -2.7525444054433322e-07 0.0000000000000000e+00  -3.2878648865792457e-07 2.7214475745842185e-07 0.0000000000000000e+00  1.1641421983225536e-07 -1.5924865294885007e-07 0.0000000000000000e+00  1.0557727401732346e-08 -8.5823644388196398e-08 0.0000000000000000e+00  2.7228555645270324e-08 2.8190045795431313e-07 0.0000000000000000e+00  5.0406141298950291e-09 3.0467884341667677e-07 0.0000000000000000e+00  1.9335525074753072e-08 -8.3797349430889076e-08 0.0000000000000000e+00  2.5587936408443654e-07 -1.3969444329273779e-07 0.0000000000000000e+00  -9.9356652458784493e-08 5.5022774564201635e-08 0.0000000000000000e+00  -2.4177086181821296e-08 8.3456279821734240e-08 0.0000000000000000e+00  1.1396233969689913e-07 5.3284789602508411e-08 0.0000000000000000e+00  3.4109905080346618e-07 -5.4814543831527484e-07 0.0000000000000000e+00  -2.2771759500526107e-07 -2.0127948865973841e-07 0.0000000000000000e+00  -4.6202286072232635e-07 -1.2763364913237018e-08 0.0000000000000000e+00  2.8028582803604621e-07 -1.3548498014641960e-07 0.0000000000000000e+00  -8.2128514271526424e-07 1.6051608415693540e-07 0.0000000000000000e+00  6.8414363614680652e-07 -3.4404392595983989e-08 0.0000000000000000e+00  -1.7911674215651011e-07 5.9405092289049197e-08 0.0000000000000000e+00  4.4977801777469427e-07 1.6577076330040293e-07 0.0000000000000000e+00  -5.4860051366355268e-07 2.0300943018014309e-07 0.0000000000000000e+00  -2.2783158234190259e-07 4.3166169238846317e-07 0.0000000000000000e+00  5.2119238575441836e-07 3.5010582300873883e-07 0.0000000000000000e+00  -1.9223947236753977e-07 -5.5860445176566155e-07 0.0000000000000000e+00  -4.2297562953859266e-08 -1.2554941226751137e-08 0.0000000000000000e+00  1.8810315162446049e-08 -6.4982059908892623e-09 0.0000000000000000e+00  -2.0506987092641345e-08 -6.2996205572552099e-08 0.0000000000000000e+00  1.7196324901591397e-07 -8.2398551173390723e-08 0.0000000000000000e+00  6.2549512233370472e-08 3.7842597628057786e-07 0.0000000000000000e+00  -9.3025674412067484e-08 2.8334917603859615e-07 0.0000000000000000e+00  -1.4896304071306216e-07 -9.4350262101240536e-07 0.0000000000000000e+00  -2.4918882213415063e-07 4.0493982093041498e-07 0.0000000000000000e+00  2.6507008521103867e-08 -7.1936462257093995e-07 0.0000000000000000e+00  2.4365370074652287e-07 1.2666159128275738e-07 0.0000000000000000e+00  -3.3514431414265438e-07 1.2597585027526120e-07 0.0000000000000000e+00  9.8332246077560067e-07 8.8199505146216969e-07 0.0000000000000000e+00  -7.7645480779537639e-07 -4.9965012929219312e-07 0.0000000000000000e+00  6.9664477694228544e-07 -7.6338727274917583e-07 0.0000000000000000e+00  -1.7929533140693168e-07 -1.6717863772457999e-07 0.0000000000000000e+00  2.8164149710228103e-07 2.9314537842389067e-07 0.0000000000000000e+00  -1.9652686456601561e-07 -6.2714391066818198e-08 0.0000000000000000e+00  2.3574270321948025e-08 -1.5538766120439509e-09 0.0000000000000000e+00  4.5494428871995281e-08 -2.8080597323688583e-07 0.0000000000000000e+00  6.8654655538634347e-08 1.9024087063588964e-08 0.0000000000000000e+00  6.1553590243688665e-07 -1.1346850911026761e-07 0.0000000000000000e+00  -6.1250905879290116e-08 5.7815281364241272e-07 0.0000000000000000e+00  1.7202385309113120e-09 -5.2758950588779872e-07 0.0000000000000000e+00  3.4498066738757061e-07 -4.5506327210581068e-07 0.0000000000000000e+00  3.8713210662539186e-07 -3.2922923062710768e-07 0.0000000000000000e+00  -2.4117956943935793e-08 -2.6782062216230350e-08 0.0000000000000000e+00  -2.0154603269472674e-07 -4.3891832365590213e-08 0.0000000000000000e+00  3.7362877279656000e-08 -1.5901052303772297e-08 0.0000000000000000e+00  -4.7505942734751196e-08 5.5900806843583996e-07 0.0000000000000000e+00  1.7818542858644741e-07 -4.1932103541995573e-07 0.0000000000000000e+00  -2.4757350456808011e-07 3.4031506102027103e-07 0.0000000000000000e+00  -1.0839480183388725e-07 1.2705804202844291e-07 0.0000000000000000e+00  4.3431136358285220e-08 -5.6127923100138793e-08 0.0000000000000000e+00  -3.6371612696401609e-08 -1.8897481142817079e-08 0.0000000000000000e+00  -7.4221599670016841e-09 7.4457570703368145e-08 0.0000000000000000e+00  2.6710651835814222e-08 8.7264943510392407e-08 0.0000000000000000e+00  -2.9177532375383282e-08 1.3484202167649977e-08 0.0000000000000000e+00  -4.1367880940523444e-07 1.6987176419147502e-07 0.0000000000000000e+00  3.5390266874141069e-07 -8.5782576869721638e-07 0.0000000000000000e+00  -1.4952173012098673e-07 -4.7725379796031479e-07 0.0000000000000000e+00  2.3556087328130310e-07 1.2209503407265724e-07 0.0000000000000000e+00  8.4603617017524167e-08 -7.9011897226206518e-08 0.0000000000000000e+00  5.2482750003577861e-08 1.1645330588589819e-07 0.0000000000000000e+00  -1.0216238450233361e-07 7.8970332870275927e-08 0.0000000000000000e+00  -9.0669043814350697e-08 3.7998643948313402e-08 0.0000000000000000e+00  -1.1105199931291012e-08 4.2594534475663227e-07 0.0000000000000000e+00  1.1981739572675916e-07 -3.9431922089360242e-07 0.0000000000000000e+00  -4.4863195172792767e-07 -5.6430724835565262e-08 0.0000000000000000e+00  -6.3911594075428582e-08 6.4075647634977469e-07 0.0000000000000000e+00  5.4337448235894582e-08 -2.0175685477471690e-07 0.0000000000000000e+00  1.4696926758695779e-07 -6.7400600420352581e-08 0.0000000000000000e+00  -1.8620948113623593e-07 3.3683816095135902e-08 0.0000000000000000e+00  1.5668189574666170e-08 5.9705920304131487e-08 0.0000000000000000e+00  7.4711419326703173e-08 -3.4988606654205351e-08 0.0000000000000000e+00  7.0376693302395133e-09 -9.2576430186542244e-08 0.0000000000000000e+00  -1.5371970077273122e-07 1.1187056072599001e-08 0.0000000000000000e+00  4.1995857965582997e-07 -7.8701497907744061e-08 0.0000000000000000e+00  9.3691256310558225e-09 -2.7825787541385053e-07 0.0000000000000000e+00  -7.4462295896952401e-09 2.8813540741878505e-07 0.0000000000000000e+00  8.3311218984454591e-09 6.5545334048961631e-08 0.0000000000000000e+00  6.2772797058718650e-07 1.1339995169002529e-06 0.0000000000000000e+00  2.5822087630652465e-07 -9.6239709915934791e-07 0.0000000000000000e+00  -3.8863622983827155e-07 2.0998444803480871e-07 0.0000000000000000e+00  -1.1773498325645883e-07 -9.2304466806901924e-07 0.0000000000000000e+00  8.1618539368324957e-07 1.7255205887925405e-06 0.0000000000000000e+00  -2.8935270044825977e-07 2.9904520712879972e-07 0.0000000000000000e+00  -7.2739157275975556e-07 -6.1145486167024652e-07 0.0000000000000000e+00  -6.8862990869461787e-07 3.8256355214608955e-07 0.0000000000000000e+00  1.4088635167994745e-08 -2.9291801474134611e-07 0.0000000000000000e+00  -5.9829496174956041e-07 2.2591630558566358e-07 0.0000000000000000e+00  -2.7127830218654784e-08 -3.1094537554510416e-07 0.0000000000000000e+00  -1.6354862880334024e-07 3.2450230576060919e-07 0.0000000000000000e+00  -8.3720684087030585e-07 -7.0637969197248736e-07 0.0000000000000000e+00  8.3519990736711352e-08 -2.0957369201430257e-08 0.0000000000000000e+00  -1.3416401148856116e-07 1.2309549084525199e-07 0.0000000000000000e+00  8.7270923613855629e-08 -2.4137108652812194e-07 0.0000000000000000e+00  -2.3273843724546835e-07 -8.4926712107983205e-08 0.0000000000000000e+00  2.2067705168297062e-07 -5.9202173780834565e-08 0.0000000000000000e+00  -6.5508097968493251e-08 4.8019112379033368e-10 0.0000000000000000e+00  1.0184064018234975e-07 1.4846853350447474e-08 0.0000000000000000e+00  -4.4433321320020514e-08 6.7975925218648709e-08 0.0000000000000000e+00  6.6464577821310576e-08 2.6873288320858595e-10 0.0000000000000000e+00  5.2595317826727444e-08 6.9339182644354306e-10 0.0000000000000000e+00  1.5183297162612958e-08 6.5135679097767979e-08 0.0000000000000000e+00  -1.8202580062604615e-08 -6.2374443280354054e-08 0.0000000000000000e+00  8.1318108147572435e-09 1.0919605355527308e-07 0.0000000000000000e+00  -8.6499128969330079e-08 6.1718122670416959e-08 0.0000000000000000e+00  -4.7970361694683740e-08 -4.9949497553184791e-10 0.0000000000000000e+00  -1.5177064325403693e-08 -1.2714181161192506e-08 0.0000000000000000e+00  1.8182446674691783e-08 -4.9332064265874664e-08 0.0000000000000000e+00  -1.3100289017100840e-07 -6.6006940983045459e-08 0.0000000000000000e+00  4.3711839637973513e-07 2.5004440701655503e-07 0.0000000000000000e+00  -3.5303380896074847e-07 2.6175154495973324e-07 0.0000000000000000e+00  -4.7483488169019775e-07 2.1434366627530856e-07 0.0000000000000000e+00  -1.4721910089281141e-08 6.8450809690516970e-07 0.0000000000000000e+00  3.1694400730516549e-07 1.5673705334539914e-07 0.0000000000000000e+00  5.4522042957726684e-08 3.8488703007900650e-07 0.0000000000000000e+00  -7.9745183884010640e-08 1.6970805621305477e-07 0.0000000000000000e+00  -1.8491201405872017e-07 -1.1968202280411882e-07 0.0000000000000000e+00  -2.5195575143104610e-07 -1.4936697401233042e-07 0.0000000000000000e+00  7.6212783026944081e-08 -5.1106960003459337e-07 0.0000000000000000e+00  -4.5986945830582131e-08 -8.8406093769333660e-08 0.0000000000000000e+00  -2.2915452675338349e-08 -3.7110332034530495e-08 0.0000000000000000e+00  2.9339714768001549e-08 -1.9424195560363085e-07 0.0000000000000000e+00  6.0626501229549814e-08 6.7346498442273972e-08 0.0000000000000000e+00  1.1697346012761921e-07 -1.0112101977383293e-07 0.0000000000000000e+00  3.7414781230596303e-09 -3.4487031241730408e-08 0.0000000000000000e+00  6.9575202407517693e-08 -1.3727702295905776e-07 0.0000000000000000e+00  4.2165227735664988e-09 1.8618440780574669e-08 0.0000000000000000e+00  -1.1661673434635131e-07 6.6875494914925762e-08 0.0000000000000000e+00  7.4536638151936282e-08 8.6112916633786326e-08 0.0000000000000000e+00  2.2211618659420379e-07 1.9811238996170658e-08 0.0000000000000000e+00  4.6385567803308735e-07 -2.8558577723965298e-07 0.0000000000000000e+00  1.9663219141223211e-06 -1.1223886741468520e-07 0.0000000000000000e+00  -5.4569397047931992e-07 5.6623491627283514e-07 0.0000000000000000e+00  -2.2821881184227854e-07 -2.0357035071792248e-07 0.0000000000000000e+00  3.7643265692959144e-07 -1.6434529779284822e-07 0.0000000000000000e+00  1.1275752967343985e-07 7.0766166125708272e-08 0.0000000000000000e+00  -2.5953473113450259e-07 -1.4563020002675428e-07 0.0000000000000000e+00  3.0162442707831258e-07 -5.4174700019432181e-07 0.0000000000000000e+00  -3.1697973456959213e-07 2.7715725216691899e-08 0.0000000000000000e+00  -4.8633267705577284e-07 -2.5145404499623430e-07 0.0000000000000000e+00  1.2044175722772720e-07 7.4385519471918931e-08 0.0000000000000000e+00  -7.2423076928630235e-08 2.9984944803584030e-08 0.0000000000000000e+00  8.9268872813274279e-08 4.6490016557256193e-08 0.0000000000000000e+00  2.8051110034473797e-08 4.1590936842155895e-08 0.0000000000000000e+00  -1.0341103690199025e-07 -5.5230223783854393e-07 0.0000000000000000e+00  -3.1676236316688294e-07 7.5863166015729455e-07 0.0000000000000000e+00  2.5568705130118764e-07 -3.7100082750328544e-07 0.0000000000000000e+00  -5.9912387378472693e-08 -2.8278118644602368e-07 0.0000000000000000e+00  8.8433279833957989e-08 7.9472235577205034e-08 0.0000000000000000e+00  7.0197717186036040e-08 -1.3746988730538014e-07 0.0000000000000000e+00  -1.8467000236762761e-08 1.3159471097967126e-08 0.0000000000000000e+00  3.5638767273895417e-08 -1.5606817532079445e-07 0.0000000000000000e+00  -2.1768544869309550e-07 -1.8721711216136339e-07 0.0000000000000000e+00  1.6095879120284138e-07 -1.2720122679156440e-08 0.0000000000000000e+00  -2.5290374375404748e-08 -1.8895667001184227e-07 0.0000000000000000e+00  1.0352112139784953e-07 -8.7543695322316311e-08 0.0000000000000000e+00  2.0858489420812940e-09 2.0107172410620824e-07 0.0000000000000000e+00  2.6674922685689853e-07 6.0271732176783061e-07 0.0000000000000000e+00  -1.7579621831539170e-08 -4.7691152474990847e-07 0.0000000000000000e+00  -3.4522358779295657e-07 4.1616924295729562e-07 0.0000000000000000e+00  2.7396339755907270e-07 -4.0385988225848292e-07 0.0000000000000000e+00  -6.4150059528790974e-07 2.9656683216279037e-07 0.0000000000000000e+00  9.2287826715016523e-09 -9.3384586286430166e-08 0.0000000000000000e+00  2.8885467544570653e-07 1.0837217309235766e-07 0.0000000000000000e+00  -2.3532491089001981e-07 -5.8447233810799583e-08 0.0000000000000000e+00  1.8801426641540684e-07 3.1113048913970981e-07 0.0000000000000000e+00  9.7814472756574457e-08 -1.3608153869664029e-07 0.0000000000000000e+00  6.8721329349197241e-07 -4.4873859327815711e-07 0.0000000000000000e+00  6.8792197562402638e-08 4.0540666814461951e-07 0.0000000000000000e+00  1.8248581380511910e-07 -3.7108997521737162e-07 0.0000000000000000e+00  -2.6172684522701160e-07 -3.9547943808644603e-07 0.0000000000000000e+00  9.0429683783533016e-08 -9.1052550322901013e-08 0.0000000000000000e+00  9.8767331639063605e-08 -5.2523224710716560e-07 0.0000000000000000e+00  9.9765872961769708e-08 5.3448735013572029e-07 0.0000000000000000e+00  1.4305867555984100e-07 1.5203182561158836e-07 0.0000000000000000e+00  -6.5611620625369974e-08 5.1454533396671518e-08 0.0000000000000000e+00  1.7397996431986495e-08 -4.4565208241614210e-07 0.0000000000000000e+00  1.9888474001727538e-08 3.7105461811576491e-08 0.0000000000000000e+00  -5.3996919557717040e-08 -4.0338868596056144e-08 0.0000000000000000e+00  2.3283313091935875e-08 -2.6751693592010337e-08 0.0000000000000000e+00  -1.3863859135072410e-07 -3.8058845810222043e-07 0.0000000000000000e+00  1.7722098811026711e-08 2.1608222709624022e-07 0.0000000000000000e+00  1.7066600529046202e-07 2.1908777270066486e-07 0.0000000000000000e+00  -2.3688567621253850e-07 2.2465033334169943e-08 0.0000000000000000e+00  4.8618913410010352e-09 -1.2518880132173434e-08 0.0000000000000000e+00  4.4707985539121090e-08 9.9009656586362588e-08 0.0000000000000000e+00  3.7145193101835017e-08 -1.8868958998557657e-08 0.0000000000000000e+00  -7.4778633983939097e-08 6.6079740902165478e-08 0.0000000000000000e+00  1.9365021491396086e-07 1.7670471225814293e-07 0.0000000000000000e+00  -1.3377859523906204e-07 1.0508021561231622e-07 0.0000000000000000e+00  3.9474633625524014e-09 1.0479831923010389e-07 0.0000000000000000e+00  -1.8137694880836163e-07 -1.3996406699215753e-07 0.0000000000000000e+00  -8.2119948010752786e-08 2.5127784511078580e-07 0.0000000000000000e+00  2.2276061475573719e-07 3.8046926339149968e-07 0.0000000000000000e+00  2.6461205564312361e-07 1.6359078799487672e-07 0.0000000000000000e+00  -1.0311495267552626e-07 -1.5949803461446105e-07 0.0000000000000000e+00  3.2189719008532450e-07 2.0415193674136209e-07 0.0000000000000000e+00  -1.1815195608752788e-07 1.4444600597888192e-07 0.0000000000000000e+00  3.1608457789467425e-07 2.4476393598591142e-07 0.0000000000000000e+00  -5.4164470738944023e-07 1.3124098931452005e-07 0.0000000000000000e+00  -4.6746995496607875e-07 -5.3305285401404402e-07 0.0000000000000000e+00  3.9816567581823579e-07 -4.8529270462328437e-07 0.0000000000000000e+00  -1.5441724441906480e-07 -3.8010366003085832e-07 0.0000000000000000e+00  1.1443379199633657e-07 4.3602227708519056e-07 0.0000000000000000e+00  -1.1022707775378039e-07 2.3987903632597655e-07 0.0000000000000000e+00  4.4078684777658788e-07 1.2875895623273336e-07 0.0000000000000000e+00  -6.9211358808420160e-07 2.8367394883701263e-08 0.0000000000000000e+00  -2.2932356358484828e-08 1.5339183519337647e-07 0.0000000000000000e+00  9.2245277779227975e-09 -1.7052771924993339e-09 0.0000000000000000e+00  -1.6387674219320176e-09 -6.9132941523591734e-08 0.0000000000000000e+00  -4.0447055388816458e-08 4.2876206248793130e-08 0.0000000000000000e+00  1.3941928376557336e-08 -1.4184259649603475e-07 0.0000000000000000e+00  1.3357990239731459e-07 -8.1846670868431937e-08 0.0000000000000000e+00  -1.9643657948799168e-07 6.1937392900375091e-07 0.0000000000000000e+00  2.1704436636125177e-07 -4.7602397788587044e-07 0.0000000000000000e+00  2.4643305891857954e-07 6.8272854538893544e-07 0.0000000000000000e+00  -9.5313138577204942e-07 2.6705338589760960e-07 0.0000000000000000e+00  -1.3047378932535545e-07 -1.8326741443823392e-07 0.0000000000000000e+00  -7.1364177291846151e-08 5.1437393248558472e-08 0.0000000000000000e+00  -1.7785036524118062e-08 -4.0896428740939273e-08 0.0000000000000000e+00  -1.0986942154550807e-07 2.9990531127108482e-07 0.0000000000000000e+00  1.8603580392708745e-07 3.0268891388506154e-07 0.0000000000000000e+00  3.1315745772407031e-08 -3.2577292852212403e-08 0.0000000000000000e+00  -3.1126224275510888e-08 -6.1056762836646086e-08 0.0000000000000000e+00  7.3313905394112112e-08 -6.1516069426429319e-08 0.0000000000000000e+00  -1.0106593647088348e-07 4.4123717970474094e-08 0.0000000000000000e+00  1.2119759694994848e-09 -6.2792063180688083e-09 0.0000000000000000e+00  1.5922352760429649e-07 -1.5111456317944896e-08 0.0000000000000000e+00  1.3328659641511850e-07 1.2730419528711108e-08 0.0000000000000000e+00  -3.8811604340625691e-07 -6.4029056467467901e-07 0.0000000000000000e+00  1.7369412268583081e-07 2.0652171104270379e-07 0.0000000000000000e+00  8.5995554973011956e-07 1.1446633825916424e-07 0.0000000000000000e+00  6.8562776423749287e-08 1.3767227152607246e-08 0.0000000000000000e+00  -2.4106930778636128e-08 -6.8648790149134762e-08 0.0000000000000000e+00  -6.0041559195383630e-07 -3.1604954837234348e-07 0.0000000000000000e+00  1.1959416861042433e-07 9.3099159641039365e-08 0.0000000000000000e+00  -1.1317546958222452e-06 -4.0520976529974469e-07 0.0000000000000000e+00  1.0042060311704847e-06 7.6971490727082628e-07 0.0000000000000000e+00  -5.7769660748059581e-08 -7.3970427003034013e-08 0.0000000000000000e+00  -3.2120485013203554e-08 9.9937191430148551e-08 0.0000000000000000e+00  6.4693919300211513e-08 -3.4032964985205825e-08 0.0000000000000000e+00  3.1510424330518528e-08 5.2749771559955650e-08 0.0000000000000000e+00  -6.2802380739476145e-08 6.2218176330856694e-09 0.0000000000000000e+00  1.1197314866782343e-07 6.5598160205013592e-08 0.0000000000000000e+00  -4.8500626745157752e-08 -1.0371121605929250e-08 0.0000000000000000e+00  -6.8475113786562819e-09 -1.4878711393612420e-08 0.0000000000000000e+00  2.7676574042274542e-07 -1.3248230175368464e-09 0.0000000000000000e+00  -1.0030901390222368e-07 3.6355352640204501e-07 0.0000000000000000e+00  -2.5895530249238280e-09 1.1319341563478373e-07 0.0000000000000000e+00  -8.4926243643743105e-08 -3.7599956686291777e-07 0.0000000000000000e+00  9.0944744020146076e-09 2.8773918710010172e-08 0.0000000000000000e+00  -7.9167882077592963e-08 -1.0593786684100294e-08 0.0000000000000000e+00  -7.7909714529069004e-08 -3.2919286216080067e-08 0.0000000000000000e+00  1.1052123446893164e-07 4.9153322532097502e-08 0.0000000000000000e+00  1.5897777685627576e-07 -2.9633701516889127e-08 0.0000000000000000e+00  -2.3298457396140519e-07 1.7487937365299529e-07 0.0000000000000000e+00  1.8477593210881841e-07 2.1505302786206268e-07 0.0000000000000000e+00  -9.3434685868326513e-09 4.4669583246871913e-08 0.0000000000000000e+00  -1.7273166337045395e-07 -1.2425150761835158e-07 0.0000000000000000e+00  -1.3227944342640809e-07 