<?xml version="1.0"?>
<VTKFile type="UnstructuredGrid"  version="0.1"  >
<UnstructuredGrid>
<Piece  NumberOfPoints="1091" NumberOfCells="2050">
<Points>
<DataArray  type="Float64"  NumberOfComponents="3"  format="ascii">-0.5 -1 0  -0.4 -1 0  -0.3 -1 0  -0.2 -1 0  -0.09999999999999998 -1 0  0 -1 0  0.09999999999999998 -1 0  0.2 -1 0  0.3 -1 0  0.4 -1 0  0.5 -1 0  -0.5 -0.98 0  -0.4 -0.98 0  -0.3 -0.98 0  -0.2 -0.98 0  -0.09999999999999998 -0.98 0  0 -0.98 0  0.09999999999999998 -0.98 0  0.2 -0.98 0  0.3 -0.98 0  0.4 -0.98 0  0.5 -0.98 0  -0.5 -0.96 0  -0.4 -0.96 0  -0.3 -0.96 0  -0.2 -0.96 0  -0.09999999999999998 -0.96 0  0 -0.96 0  0.09999999999999998 -0.96 0  0.2 -0.96 0  0.3 -0.96 0  0.4 -0.96 0  0.5 -0.96 0  -0.5 -0.9399999999999999 0  -0.4 -0.9399999999999999 0  -0.3 -0.9399999999999999 0  -0.2 -0.9399999999999999 0  -0.09999999999999998 -0.9399999999999999 0  0 -0.9399999999999999 0  0.09999999999999998 -0.9399999999999999 0  0.2 -0.9399999999999999 0  0.3 -0.9399999999999999 0  0.4 -0.9399999999999999 0  0.5 -0.9399999999999999 0  -0.5 -0.92 0  -0.4 -0.92 0  -0.3 -0.92 0  -0.2 -0.92 0  -0.09999999999999998 -0.92 0  0 -0.92 0  0.09999999999999998 -0.92 0  0.2 -0.92 0  0.3 -0.92 0  0.4 -0.92 0  0.5 -0.92 0  -0.5 -0.9 0  -0.4 -0.9 0  -0.3 -0.9 0  -0.2 -0.9 0  -0.09999999999999998 -0.9 0  0 -0.9 0  0.09999999999999998 -0.9 0  0.2 -0.9 0  0.3 -0.9 0  0.4 -0.9 0  0.5 -0.9 0  -0.5 -0.88 0  -0.4 -0.88 0  -0.3 -0.88 0  -0.2 -0.88 0  -0.09999999999999998 -0.88 0  0 -0.88 0  0.09999999999999998 -0.88 0  0.2 -0.88 0  0.3 -0.88 0  0.4 -0.88 0  0.5 -0.88 0  -0.5 -0.86 0  -0.4 -0.86 0  -0.3 -0.86 0  -0.2 -0.86 0  -0.09999999999999998 -0.86 0  0 -0.86 0  0.09999999999999998 -0.86 0  0.2 -0.86 0  0.3 -0.86 0  0.4 -0.86 0  0.5 -0.86 0  -0.5 -0.84 0  -0.4 -0.84 0  -0.3 -0.84 0  -0.2 -0.84 0  -0.09999999999999998 -0.84 0  0 -0.84 0  0.09999999999999998 -0.84 0  0.2 -0.84 0  0.3 -0.84 0  0.4 -0.84 0  0.5 -0.84 0  -0.5 -0.8200000000000001 0  -0.4 -0.8200000000000001 0  -0.3 -0.8200000000000001 0  -0.2 -0.8200000000000001 0  -0.09999999999999998 -0.8200000000000001 0  0 -0.8200000000000001 0  0.09999999999999998 -0.8200000000000001 0  0.2 -0.8200000000000001 0  0.3 -0.8200000000000001 0  0.4 -0.8200000000000001 0  0.5 -0.8200000000000001 0  -0.5 -0.8 0  -0.4 -0.8 0  -0.3 -0.8 0  -0.2 -0.8 0  -0.09999999999999998 -0.8 0  0 -0.8 0  0.09999999999999998 -0.8 0  0.2 -0.8 0  0.3 -0.8 0  0.4 -0.8 0  0.5 -0.8 0  -0.5 -0.78 0  -0.4 -0.78 0  -0.3 -0.78 0  -0.2 -0.78 0  -0.09999999999999998 -0.78 0  0 -0.78 0  0.09999999999999998 -0.78 0  0.2 -0.78 0  0.3 -0.78 0  0.4 -0.78 0  0.5 -0.78 0  -0.5 -0.76 0  -0.4 -0.76 0  -0.3 -0.76 0  -0.2 -0.76 0  -0.09999999999999998 -0.76 0  0 -0.76 0  0.09999999999999998 -0.76 0  0.2 -0.76 0  0.3 -0.76 0  0.4 -0.76 0  0.5 -0.76 0  -0.5 -0.74 0  -0.4 -0.74 0  -0.3 -0.74 0  -0.2 -0.74 0  -0.09999999999999998 -0.74 0  0 -0.74 0  0.09999999999999998 -0.74 0  0.2 -0.74 0  0.3 -0.74 0  0.4 -0.74 0  0.5 -0.74 0  -0.5 -0.72 0  -0.4 -0.72 0  -0.3 -0.72 0  -0.2 -0.72 0  -0.09999999999999998 -0.72 0  0 -0.72 0  0.09999999999999998 -0.72 0  0.2 -0.72 0  0.3 -0.72 0  0.4 -0.72 0  0.5 -0.72 0  -0.5 -0.7 0  -0.4 -0.7 0  -0.3 -0.7 0  -0.2 -0.7 0  -0.09999999999999998 -0.7 0  0 -0.7 0  0.09999999999999998 -0.7 0  0.2 -0.7 0  0.3 -0.7 0  0.4 -0.7 0  0.5 -0.7 0  -0.5 -0.6799999999999999 0  -0.4 -0.6799999999999999 0  -0.3 -0.6799999999999999 0  -0.2 -0.6799999999999999 0  -0.09999999999999998 -0.6799999999999999 0  0 -0.6799999999999999 0  0.09999999999999998 -0.6799999999999999 0  0.2 -0.6799999999999999 0  0.3 -0.6799999999999999 0  0.4 -0.6799999999999999 0  0.5 -0.6799999999999999 0  -0.5 -0.6599999999999999 0  -0.4 -0.6599999999999999 0  -0.3 -0.6599999999999999 0  -0.2 -0.6599999999999999 0  -0.09999999999999998 -0.6599999999999999 0  0 -0.6599999999999999 0  0.09999999999999998 -0.6599999999999999 0  0.2 -0.6599999999999999 0  0.3 -0.6599999999999999 0  0.4 -0.6599999999999999 0  0.5 -0.6599999999999999 0  -0.5 -0.64 0  -0.4 -0.64 0  -0.3 -0.64 0  -0.2 -0.64 0  -0.09999999999999998 -0.64 0  0 -0.64 0  0.09999999999999998 -0.64 0  0.2 -0.64 0  0.3 -0.64 0  0.4 -0.64 0  0.5 -0.64 0  -0.5 -0.62 0  -0.4 -0.62 0  -0.3 -0.62 0  -0.2 -0.62 0  -0.09999999999999998 -0.62 0  0 -0.62 0  0.09999999999999998 -0.62 0  0.2 -0.62 0  0.3 -0.62 0  0.4 -0.62 0  0.5 -0.62 0  -0.5 -0.6 0  -0.4 -0.6 0  -0.3 -0.6 0  -0.2 -0.6 0  -0.09999999999999998 -0.6 0  0 -0.6 0  0.09999999999999998 -0.6 0  0.2 -0.6 0  0.3 -0.6 0  0.4 -0.6 0  0.5 -0.6 0  -0.5 -0.5800000000000001 0  -0.4 -0.5800000000000001 0  -0.3 -0.5800000000000001 0  -0.2 -0.5800000000000001 0  -0.09999999999999998 -0.5800000000000001 0  0 -0.5800000000000001 0  0.09999999999999998 -0.5800000000000001 0  0.2 -0.5800000000000001 0  0.3 -0.5800000000000001 0  0.4 -0.5800000000000001 0  0.5 -0.5800000000000001 0  -0.5 -0.5600000000000001 0  -0.4 -0.5600000000000001 0  -0.3 -0.5600000000000001 0  -0.2 -0.5600000000000001 0  -0.09999999999999998 -0.5600000000000001 0  0 -0.5600000000000001 0  0.09999999999999998 -0.5600000000000001 0  0.2 -0.5600000000000001 0  0.3 -0.5600000000000001 0  0.4 -0.5600000000000001 0  0.5 -0.5600000000000001 0  -0.5 -0.54 0  -0.4 -0.54 0  -0.3 -0.54 0  -0.2 -0.54 0  -0.09999999999999998 -0.54 0  0 -0.54 0  0.09999999999999998 -0.54 0  0.2 -0.54 0  0.3 -0.54 0  0.4 -0.54 0  0.5 -0.54 0  -0.5 -0.52 0  -0.4 -0.52 0  -0.3 -0.52 0  -0.2 -0.52 0  -0.09999999999999998 -0.52 0  0 -0.52 0  0.09999999999999998 -0.52 0  0.2 -0.52 0  0.3 -0.52 0  0.4 -0.52 0  0.5 -0.52 0  -0.5 -0.5 0  -0.4 -0.5 0  -0.3 -0.5 0  -0.2 -0.5 0  -0.09999999999999998 -0.5 0  0 -0.5 0  0.09999999999999998 -0.5 0  0.2 -0.5 0  0.3 -0.5 0  0.4 -0.5 0  0.5 -0.5 0  -0.5 -0.48 0  -0.4 -0.48 0  -0.3 -0.48 0  -0.2 -0.48 0  -0.09999999999999998 -0.48 0  0 -0.48 0  0.09999999999999998 -0.48 0  0.2 -0.48 0  0.3 -0.48 0  0.4 -0.48 0  0.5 -0.48 0  -0.5 -0.46 0  -0.4 -0.46 0  -0.3 -0.46 0  -0.2 -0.46 0  -0.09999999999999998 -0.46 0  0 -0.46 0  0.09999999999999998 -0.46 0  0.2 -0.46 0  0.3 -0.46 0  0.4 -0.46 0  0.5 -0.46 0  -0.5 -0.4399999999999999 0  -0.4 -0.4399999999999999 0  -0.3 -0.4399999999999999 0  -0.2 -0.4399999999999999 0  -0.09999999999999998 -0.4399999999999999 0  0 -0.4399999999999999 0  0.09999999999999998 -0.4399999999999999 0  0.2 -0.4399999999999999 0  0.3 -0.4399999999999999 0  0.4 -0.4399999999999999 0  0.5 -0.4399999999999999 0  -0.5 -0.42 0  -0.4 -0.42 0  -0.3 -0.42 0  -0.2 -0.42 0  -0.09999999999999998 -0.42 0  0 -0.42 0  0.09999999999999998 -0.42 0  0.2 -0.42 0  0.3 -0.42 0  0.4 -0.42 0  0.5 -0.42 0  -0.5 -0.4 0  -0.4 -0.4 0  -0.3 -0.4 0  -0.2 -0.4 0  -0.09999999999999998 -0.4 0  0 -0.4 0  0.09999999999999998 -0.4 0  0.2 -0.4 0  0.3 -0.4 0  0.4 -0.4 0  0.5 -0.4 0  -0.5 -0.38 0  -0.4 -0.38 0  -0.3 -0.38 0  -0.2 -0.38 0  -0.09999999999999998 -0.38 0  0 -0.38 0  0.09999999999999998 -0.38 0  0.2 -0.38 0  0.3 -0.38 0  0.4 -0.38 0  0.5 -0.38 0  -0.5 -0.36 0  -0.4 -0.36 0  -0.3 -0.36 0  -0.2 -0.36 0  -0.09999999999999998 -0.36 0  0 -0.36 0  0.09999999999999998 -0.36 0  0.2 -0.36 0  0.3 -0.36 0  0.4 -0.36 0  0.5 -0.36 0  -0.5 -0.34 0  -0.4 -0.34 0  -0.3 -0.34 0  -0.2 -0.34 0  -0.09999999999999998 -0.34 0  0 -0.34 0  0.09999999999999998 -0.34 0  0.2 -0.34 0  0.3 -0.34 0  0.4 -0.34 0  0.5 -0.34 0  -0.5 -0.32 0  -0.4 -0.32 0  -0.3 -0.32 0  -0.2 -0.32 0  -0.09999999999999998 -0.32 0  0 -0.32 0  0.09999999999999998 -0.32 0  0.2 -0.32 0  0.3 -0.32 0  0.4 -0.32 0  0.5 -0.32 0  -0.5 -0.3 0  -0.4 -0.3 0  -0.3 -0.3 0  -0.2 -0.3 0  -0.09999999999999998 -0.3 0  0 -0.3 0  0.09999999999999998 -0.3 0  0.2 -0.3 0  0.3 -0.3 0  0.4 -0.3 0  0.5 -0.3 0  -0.5 -0.28 0  -0.4 -0.28 0  -0.3 -0.28 0  -0.2 -0.28 0  -0.09999999999999998 -0.28 0  0 -0.28 0  0.09999999999999998 -0.28 0  0.2 -0.28 0  0.3 -0.28 0  0.4 -0.28 0  0.5 -0.28 0  -0.5 -0.26 0  -0.4 -0.26 0  -0.3 -0.26 0  -0.2 -0.26 0  -0.09999999999999998 -0.26 0  0 -0.26 0  0.09999999999999998 -0.26 0  0.2 -0.26 0  0.3 -0.26 0  0.4 -0.26 0  0.5 -0.26 0  -0.5 -0.24 0  -0.4 -0.24 0  -0.3 -0.24 0  -0.2 -0.24 0  -0.09999999999999998 -0.24 0  0 -0.24 0  0.09999999999999998 -0.24 0  0.2 -0.24 0  0.3 -0.24 0  0.4 -0.24 0  0.5 -0.24 0  -0.5 -0.22 0  -0.4 -0.22 0  -0.3 -0.22 0  -0.2 -0.22 0  -0.09999999999999998 -0.22 0  0 -0.22 0  0.09999999999999998 -0.22 0  0.2 -0.22 0  0.3 -0.22 0  0.4 -0.22 0  0.5 -0.22 0  -0.5 -0.2 0  -0.4 -0.2 0  -0.3 -0.2 0  -0.2 -0.2 0  -0.09999999999999998 -0.2 0  0 -0.2 0  0.09999999999999998 -0.2 0  0.2 -0.2 0  0.3 -0.2 0  0.4 -0.2 0  0.5 -0.2 0  -0.5 -0.18 0  -0.4 -0.18 0  -0.3 -0.18 0  -0.2 -0.18 0  -0.09999999999999998 -0.18 0  0 -0.18 0  0.09999999999999998 -0.18 0  0.2 -0.18 0  0.3 -0.18 0  0.4 -0.18 0  0.5 -0.18 0  -0.5 -0.16 0  -0.4 -0.16 0  -0.3 -0.16 0  -0.2 -0.16 0  -0.09999999999999998 -0.16 0  0 -0.16 0  0.09999999999999998 -0.16 0  0.2 -0.16 0  0.3 -0.16 0  0.4 -0.16 0  0.5 -0.16 0  -0.5 -0.14 0  -0.4 -0.14 0  -0.3 -0.14 0  -0.2 -0.14 0  -0.09999999999999998 -0.14 0  0 -0.14 0  0.09999999999999998 -0.14 0  0.2 -0.14 0  0.3 -0.14 0  0.4 -0.14 0  0.5 -0.14 0  -0.5 -0.12 0  -0.4 -0.12 0  -0.3 -0.12 0  -0.2 -0.12 0  -0.09999999999999998 -0.12 0  0 -0.12 0  0.09999999999999998 -0.12 0  0.2 -0.12 0  0.3 -0.12 0  0.4 -0.12 0  0.5 -0.12 0  -0.5 -0.09999999999999998 0  -0.4 -0.09999999999999998 0  -0.3 -0.09999999999999998 0  -0.2 -0.09999999999999998 0  -0.09999999999999998 -0.09999999999999998 0  0 -0.09999999999999998 0  0.09999999999999998 -0.09999999999999998 0  0.2 -0.09999999999999998 0  0.3 -0.09999999999999998 0  0.4 -0.09999999999999998 0  0.5 -0.09999999999999998 0  -0.5 -0.07999999999999996 0  -0.4 -0.07999999999999996 0  -0.3 -0.07999999999999996 0  -0.2 -0.07999999999999996 0  -0.09999999999999998 -0.07999999999999996 0  0 -0.07999999999999996 0  0.09999999999999998 -0.07999999999999996 0  0.2 -0.07999999999999996 0  0.3 -0.07999999999999996 0  0.4 -0.07999999999999996 0  0.5 -0.07999999999999996 0  -0.5 -0.06000000000000005 0  -0.4 -0.06000000000000005 0  -0.3 -0.06000000000000005 0  -0.2 -0.06000000000000005 0  -0.09999999
[...]
<PointData  Vectors="flow"> 
<DataArray  type="Float64"  Name="flow"  NumberOfComponents="3" format="ascii">-2.4134304079657898e-15 -1.7205866926266793e-15 0.0000000000000000e+00  -1.3365398104983671e-15 7.1463354332286928e-16 0.0000000000000000e+00  -6.3500253459396481e-16 -4.6724905667770680e-15 0.0000000000000000e+00  2.4203402135685935e-15 2.5860660913115859e-15 0.0000000000000000e+00  4.4087949213600998e-16 4.0385962984897483e-15 0.0000000000000000e+00  1.0115462555032973e-15 4.5779203834410584e-16 0.0000000000000000e+00  3.0783406719871605e-15 -7.4630437661531500e-16 0.0000000000000000e+00  2.7605142046487890e-16 -3.1631069109115169e-15 0.0000000000000000e+00  1.5141153553894720e-15 3.1838612428530344e-15 0.0000000000000000e+00  2.3017559940672462e-15 -3.0638682098610423e-15 0.0000000000000000e+00  9.5975682902650878e-16 -1.6377773765370732e-15 0.0000000000000000e+00  -1.1835836460762776e-15 2.5969159519261115e-15 0.0000000000000000e+00  -2.1622750829636950e-15 2.5186564921044873e-15 0.0000000000000000e+00  -5.2332681136309085e-16 -3.3238221583026424e-15 0.0000000000000000e+00  3.0604383782022037e-15 3.7276231926607551e-15 0.0000000000000000e+00  -1.6952632760232148e-16 1.3452441727298739e-15 0.0000000000000000e+00  9.5414186445612835e-16 -1.4594023799810038e-15 0.0000000000000000e+00  3.6319379528366933e-15 -1.8827539662082506e-16 0.0000000000000000e+00  8.1371974443158172e-16 4.8060962094212432e-15 0.0000000000000000e+00  1.5771514503064154e-15 3.5833717722070318e-15 0.0000000000000000e+00  1.3633350866329769e-15 3.2036834633550943e-15 0.0000000000000000e+00  5.9417144255783799e-16 -1.0200297664280981e-15 0.0000000000000000e+00  -1.5557203819607204e-15 -6.7623869563569981e-15 0.0000000000000000e+00  -1.7749854229550253e-15 2.1932921982219558e-15 0.0000000000000000e+00  -6.9442053935142011e-16 -3.8450280044555720e-15 0.0000000000000000e+00  3.9275378197083127e-15 1.9078391839959580e-15 0.0000000000000000e+00  -3.6973295502186733e-16 1.3708877942909206e-15 0.0000000000000000e+00  1.9073717448858193e-16 4.9408962602769669e-15 0.0000000000000000e+00  4.0177595700010438e-15 6.9641162521747254e-15 0.0000000000000000e+00  9.3122754020267118e-16 4.1209096867451514e-15 0.0000000000000000e+00  1.1288821302706926e-15 -3.0149494022254803e-15 0.0000000000000000e+00  1.1610098297363660e-15 6.6011270758826535e-16 0.0000000000000000e+00  -2.9117122112091631e-16 -3.9373755261405170e-16 0.0000000000000000e+00  -2.0914848759097398e-15 8.9982111841327347e-15 0.0000000000000000e+00  -1.6901791728494545e-15 -6.2022700469846207e-15 0.0000000000000000e+00  -7.2519625290662350e-16 3.9315941581289707e-15 0.0000000000000000e+00  3.7835248236825166e-15 1.0987353011917734e-15 0.0000000000000000e+00  -4.3958407742931559e-16 -5.7107586021261016e-15 0.0000000000000000e+00  3.1192389086842395e-15 6.2307026203008822e-15 0.0000000000000000e+00  3.8841310383156022e-15 1.3469702161491883e-14 0.0000000000000000e+00  -1.5024006740772163e-15 1.4456058667794150e-14 0.0000000000000000e+00  1.1444017659352460e-15 -2.0074486917437868e-14 0.0000000000000000e+00  1.9324591276216116e-15 1.4085970575930239e-14 0.0000000000000000e+00  3.3055513132801675e-16 1.8745587441894471e-15 0.0000000000000000e+00  -6.8296926903810879e-15 1.6455937066367073e-14 0.0000000000000000e+00  -2.8926494915386246e-15 -8.1747559444758519e-16 0.0000000000000000e+00  4.1930219435205373e-17 -4.6350595409018685e-15 0.0000000000000000e+00  2.4433762121455448e-15 -1.2251177011938341e-14 0.0000000000000000e+00  1.4856831350888012e-15 8.0031767179360951e-15 0.0000000000000000e+00  3.5431102961413879e-15 8.2971647958600840e-15 0.0000000000000000e+00  5.4269364096609796e-15 3.2192595432888501e-15 0.0000000000000000e+00  -6.5506608833165997e-15 1.6489265517286237e-14 0.0000000000000000e+00  1.3083497798661030e-15 -2.2561354300982185e-14 0.0000000000000000e+00  5.8573289206434583e-15 1.3264256356373337e-14 0.0000000000000000e+00  -6.4337465834477938e-15 -1.3844824648372073e-14 0.0000000000000000e+00  -5.9758506816034680e-15 -7.7075293632330764e-15 0.0000000000000000e+00  -4.6420261183553419e-15 1.8408311655798788e-15 0.0000000000000000e+00  -2.0561908693876055e-15 -3.8167037977381441e-15 0.0000000000000000e+00  5.5122959615111916e-15 1.3401011612819416e-15 0.0000000000000000e+00  2.8976221957878724e-15 -5.1635862241165324e-15 0.0000000000000000e+00  2.5684238069626202e-15 -5.5079404343249418e-15 0.0000000000000000e+00  6.3034261266713981e-15 -1.4118599822576651e-15 0.0000000000000000e+00  -6.6392370940726561e-15 -1.3671932601523382e-15 0.0000000000000000e+00  4.5819685523131305e-16 7.1610667124227638e-15 0.0000000000000000e+00  4.1571359508937465e-15 -2.6453869703763217e-15 0.0000000000000000e+00  -1.2268564333405827e-14 -8.7799712206713604e-15 0.0000000000000000e+00  -3.5241718065346464e-15 -1.3212021883044211e-14 0.0000000000000000e+00  -4.0217781769609015e-15 -8.2774449068543917e-15 0.0000000000000000e+00  -2.9163179523603412e-16 -3.3055087910538122e-15 0.0000000000000000e+00  2.1446701053740212e-15 6.2200437735649067e-15 0.0000000000000000e+00  1.5747408178681725e-15 -2.4441061618728722e-14 0.0000000000000000e+00  4.1497201647986849e-15 -6.1632703490042765e-15 0.0000000000000000e+00  5.3313507296555289e-15 -1.2997041872183820e-14 0.0000000000000000e+00  -3.6670470800543218e-15 -1.0827372289865017e-14 0.0000000000000000e+00  2.6968692876398193e-16 7.5039137230822959e-15 0.0000000000000000e+00  2.2553459673238089e-15 -8.4477101635848839e-15 0.0000000000000000e+00  -7.2779377476802856e-15 -1.4395656577160416e-14 0.0000000000000000e+00  -2.0447793779071443e-15 -2.1812906511952910e-14 0.0000000000000000e+00  -1.8792131297942515e-15 1.5158252254535245e-15 0.0000000000000000e+00  2.0564604178498127e-15 7.7720198498787967e-15 0.0000000000000000e+00  -4.0929110399371679e-16 3.0494151289921455e-16 0.0000000000000000e+00  5.4261358752770095e-16 -2.4721142446146926e-15 0.0000000000000000e+00  5.2601040392150586e-15 5.5374444878986427e-17 0.0000000000000000e+00  3.9034990409364353e-15 1.3222974773804957e-14 0.0000000000000000e+00  -2.3008051877446625e-15 -3.6672212033591080e-15 0.0000000000000000e+00  7.4257909444444155e-16 -5.6572754881485919e-15 0.0000000000000000e+00  -1.2141261425771589e-15 -7.1486298397376442e-15 0.0000000000000000e+00  -6.6708560849692254e-15 -1.8854923932114575e-14 0.0000000000000000e+00  9.9047893597011202e-16 2.2452418182921400e-15 0.0000000000000000e+00  6.0614652278621553e-16 -1.2556020527902337e-15 0.0000000000000000e+00  -3.4447497069114776e-16 -9.1844951503366781e-15 0.0000000000000000e+00  1.6220880225587791e-15 2.6948422848709725e-15 0.0000000000000000e+00  3.3287930285556256e-16 6.3917281772435628e-15 0.0000000000000000e+00  7.2921116556435691e-15 -1.3588734149038126e-14 0.0000000000000000e+00  5.3018662358696152e-15 3.7096999523060949e-14 0.0000000000000000e+00  -6.3063461030840126e-15 1.4252766120033997e-14 0.0000000000000000e+00  1.7793887462350727e-15 -7.2925496141026051e-15 0.0000000000000000e+00  -2.9924129444389982e-16 4.1057894164164565e-14 0.0000000000000000e+00  -1.0833222710711576e-14 1.9614059177737698e-14 0.0000000000000000e+00  -1.9629115636290235e-15 3.5038551864508725e-14 0.0000000000000000e+00  -4.3013408919593006e-15 6.8783599418850549e-15 0.0000000000000000e+00  2.2286261261299766e-15 1.6137826369021370e-14 0.0000000000000000e+00  3.2204598178994175e-15 6.1070543020618668e-15 0.0000000000000000e+00  -3.6904707882955359e-15 6.8754427671667696e-15 0.0000000000000000e+00  1.1656911297179759e-14 -3.6227087362636750e-15 0.0000000000000000e+00  1.0376313210463330e-14 -8.8596919074215654e-15 0.0000000000000000e+00  -1.5652221460258670e-14 9.6422842076781009e-15 0.0000000000000000e+00  4.9299230337062213e-15 -1.9372534766307052e-14 0.0000000000000000e+00  3.3669886900351743e-15 1.1310466918343372e-14 0.0000000000000000e+00  -2.4182668813712132e-14 -2.9913081984395677e-14 0.0000000000000000e+00  -7.0597465329779927e-15 -6.4036033259872148e-15 0.0000000000000000e+00  -1.8794474901386682e-15 1.5716288879027250e-14 0.0000000000000000e+00  -5.2651307237711134e-16 2.9677886713724089e-14 0.0000000000000000e+00  1.7734708424997227e-17 -1.4019413737446397e-14 0.0000000000000000e+00  -4.4293282893775236e-16 -1.2529625439550576e-14 0.0000000000000000e+00  3.9038653274569989e-15 1.6972762012605638e-14 0.0000000000000000e+00  1.0052915526812656e-14 -2.2708857899709127e-14 0.0000000000000000e+00  -7.0429459161282120e-15 9.5075552406740441e-15 0.0000000000000000e+00  1.1913540940021199e-15 2.3294671352228688e-14 0.0000000000000000e+00  2.9307502359889289e-16 2.9684167033750310e-15 0.0000000000000000e+00  -2.8264573979720741e-14 -2.0098076637335701e-14 0.0000000000000000e+00  4.0848335402596580e-16 -8.1039636078904828e-15 0.0000000000000000e+00  4.0377740781240219e-15 3.1220844887960696e-14 0.0000000000000000e+00  -4.1163806378932672e-15 4.0500158486847206e-15 0.0000000000000000e+00  -6.4461705421733957e-15 -5.7962255920677826e-15 0.0000000000000000e+00  1.0598480383537337e-15 -7.7730258494208017e-15 0.0000000000000000e+00  8.3765075557909227e-15 3.5063249996338218e-15 0.0000000000000000e+00  7.0827525916547183e-15 1.7403695319711358e-15 0.0000000000000000e+00  -3.2929324977185902e-15 -2.1588811954647379e-14 0.0000000000000000e+00  3.1574498958888278e-15 2.4330473003941688e-14 0.0000000000000000e+00  -3.5198638675542571e-15 2.5808264492643117e-14 0.0000000000000000e+00  -3.5401360042701925e-14 -1.0069980906259250e-14 0.0000000000000000e+00  6.1345350104193243e-15 1.2998938283579879e-14 0.0000000000000000e+00  -6.2810784163952744e-16 1.2998135338094815e-14 0.0000000000000000e+00  -9.3085235167811724e-15 -4.8494563355233408e-14 0.0000000000000000e+00  9.1055678822118153e-18 -1.1842033705401296e-14 0.0000000000000000e+00  3.7452311146527136e-15 1.1537059851128952e-15 0.0000000000000000e+00  5.8320326866511913e-15 5.0818274606394241e-14 0.0000000000000000e+00  5.2918453659327162e-15 -3.4877719721764340e-14 0.0000000000000000e+00  -6.1703862257376524e-15 -2.8014987206685558e-14 0.0000000000000000e+00  1.1329110835200699e-14 1.1243089556114651e-14 0.0000000000000000e+00  -9.5189991206186709e-15 -1.7028687516357230e-14 0.0000000000000000e+00  -3.8237990815920594e-14 -2.2736735848347086e-14 0.0000000000000000e+00  5.7921841355123528e-15 -9.7582252659308883e-15 0.0000000000000000e+00  -5.4697856569808527e-15 5.1317836662148948e-15 0.0000000000000000e+00  -7.8810407435370762e-15 -4.4321752047290338e-14 0.0000000000000000e+00  1.0367797027905634e-15 1.1023972301350558e-14 0.0000000000000000e+00  1.0624469066716267e-14 -3.2097189975157550e-14 0.0000000000000000e+00  1.5606586086593879e-15 8.6553298742910462e-15 0.0000000000000000e+00  -5.0418999344577916e-15 -5.9742600795625209e-14 0.0000000000000000e+00  5.4173831346011211e-15 1.6316813981121936e-14 0.0000000000000000e+00  6.1625172519494065e-15 -3.4894525593088993e-16 0.0000000000000000e+00  -1.1787590678085003e-14 -2.3508792106406865e-14 0.0000000000000000e+00  -2.9351367866813353e-14 8.4526917693975858e-15 0.0000000000000000e+00  8.3897130894320855e-15 1.0329992347764221e-14 0.0000000000000000e+00  -1.0331955159857134e-14 1.7118572738013432e-14 0.0000000000000000e+00  -9.3236666733057525e-15 -4.5963968467413534e-14 0.0000000000000000e+00  5.9296664586591406e-15 -3.1989980440200574e-14 0.0000000000000000e+00  5.0251222267997052e-15 5.2712404101908434e-14 0.0000000000000000e+00  1.6665310102953807e-16 -1.0350229935653291e-15 0.0000000000000000e+00  1.4182089483496178e-15 -5.1428098816250153e-15 0.0000000000000000e+00  8.6378848399574794e-15 4.2786693726254781e-15 0.0000000000000000e+00  4.3090664938315103e-15 -1.2043102379649230e-14 0.0000000000000000e+00  -6.2591283898225243e-15 4.6888995514899788e-14 0.0000000000000000e+00  -3.0598405163461926e-14 2.2531394054025453e-14 0.0000000000000000e+00  9.0094900654065746e-15 1.0412313603703442e-14 0.0000000000000000e+00  -1.5700790583624035e-14 1.3111944567811136e-14 0.0000000000000000e+00  -1.5264357454837263e-14 -3.8724643816199273e-14 0.0000000000000000e+00  1.7884622168368387e-14 8.6946466609372299e-15 0.0000000000000000e+00  1.4651467146760699e-14 3.1815177260449282e-14 0.0000000000000000e+00  -6.0545191831653475e-15 8.1043537019220730e-16 0.0000000000000000e+00  -3.0428776342199916e-15 7.2411093942840004e-16 0.0000000000000000e+00  3.0968430490135270e-15 -4.3180249807750878e-14 0.0000000000000000e+00  1.1612918339016513e-14 1.0437782145598742e-14 0.0000000000000000e+00  -3.7825163516637049e-15 1.1947381766039055e-14 0.0000000000000000e+00  -3.8876057439450830e-14 1.7066539298688580e-14 0.0000000000000000e+00  1.3825848447288375e-14 2.1879422394638129e-14 0.0000000000000000e+00  -2.3487469081224837e-14 1.8318913913225554e-14 0.0000000000000000e+00  -9.8562111236555994e-15 1.2598043762972141e-14 0.0000000000000000e+00  1.8419412739777680e-14 3.4892409891166350e-14 0.0000000000000000e+00  5.0864282641959098e-15 -2.0185937850880269e-14 0.0000000000000000e+00  -8.8136447407097043e-15 -2.6462176519526918e-14 0.0000000000000000e+00  -1.0115297758700891e-14 -5.4613762471742625e-14 0.0000000000000000e+00  1.4512274527206150e-14 -5.5747807915129768e-14 0.0000000000000000e+00  1.7275218920862925e-14 -1.3981929358040083e-14 0.0000000000000000e+00  -8.4707744625110422e-15 -8.9483918235514202e-15 0.0000000000000000e+00  -3.3866561092185792e-14 1.1360814364176761e-14 0.0000000000000000e+00  1.0967394805886546e-14 5.9151547556095661e-15 0.0000000000000000e+00  -1.7631950429299700e-14 -1.1998375597325189e-14 0.0000000000000000e+00  -9.6361135885138330e-15 2.3320917638337104e-14 0.0000000000000000e+00  1.3698203816298137e-14 4.1324950184327962e-15 0.0000000000000000e+00  3.1814575228664135e-15 1.6576546514941941e-14 0.0000000000000000e+00  -1.2000756205582572e-14 -1.8901773385538734e-14 0.0000000000000000e+00  -1.2958586796437392e-14 -1.1984867861758130e-14 0.0000000000000000e+00  1.2656956860281008e-14 -1.9678831924459402e-14 0.0000000000000000e+00  1.9637537339417891e-14 -6.2210227190474780e-14 0.0000000000000000e+00  5.1353717566364093e-15 2.0919519864233878e-14 0.0000000000000000e+00  -2.6007808740953459e-14 2.4661929483442919e-14 0.0000000000000000e+00  8.4175839647079991e-15 5.4528558995405109e-14 0.0000000000000000e+00  -2.1259460067955875e-14 -2.9361297127449025e-14 0.0000000000000000e+00  -1.2350494757847427e-14 -6.0318927804354423e-15 0.0000000000000000e+00  1.7019175839742061e-14 -1.8533385790107634e-14 0.0000000000000000e+00  -4.1167538448504837e-16 -1.3184889932354951e-14 0.0000000000000000e+00  -1.2934240672095415e-14 -7.7707918196153559e-14 0.0000000000000000e+00  -6.2138615122319487e-15 5.5278159432384200e-14 0.0000000000000000e+00  7.2167883978711726e-15 9.1623065509831528e-15 0.0000000000000000e+00  2.1347800790179165e-14 -3.1045233611609417e-14 0.0000000000000000e+00  5.8540217491954874e-15 1.8767987803263758e-14 0.0000000000000000e+00  -4.2082698418751800e-14 -5.6736462446485155e-14 0.0000000000000000e+00  -1.5547619453511414e-14 3.4178693990639699e-14 0.0000000000000000e+00  -2.7883561915828774e-14 -4.9567536218015803e-14 0.0000000000000000e+00  -2.9973569210849496e-15 -2.1964579968166143e-15 0.0000000000000000e+00  1.6795274419327042e-14 5.2523440067327024e-14 0.0000000000000000e+00  -9.2307003478319048e-15 -3.3584152031385921e-14 0.0000000000000000e+00  -4.3200516511238177e-15 -1.6487339630785720e-14 0.0000000000000000e+00  2.1236026488074292e-15 5.4940169752935768e-14 0.0000000000000000e+00  -7.2829828210540848e-15 8.3842904338229828e-15 0.0000000000000000e+00  2.5385811522955066e-14 3.5191104881808809e-15 0.0000000000000000e+00  -1.5851144111808157e-16 1.2189608035757974e-14 0.0000000000000000e+00  -5.4262092064163525e-14 -6.9243329794656007e-14 0.0000000000000000e+00  -2.2602368056032515e-14 1.6237047644661395e-14 0.0000000000000000e+00  -2.7833386685049813e-14 1.8193779545506748e-14 0.0000000000000000e+00  2.3661164169660872e-15 -8.3439651001096989e-15 0.0000000000000000e+00  9.5135128243480346e-15 4.6621096005897568e-14 0.0000000000000000e+00  -1.5783645854436738e-14 -8.1087454415443374e-14 0.0000000000000000e+00  8.9078602269850670e-15 2.9778339348872596e-14 0.0000000000000000e+00  1.0689302215418996e-15 -1.2623477035574700e-14 0.0000000000000000e+00  -4.9784594634863536e-15 7.4775758059356360e-14 0.0000000000000000e+00  2.5764207092804619e-14 3.5159523363943316e-15 0.0000000000000000e+00  -8.5338936582397015e-15 2.3172726410081591e-14 0.0000000000000000e+00  -5.5703113948179455e-14 1.6093713181371284e-14 0.0000000000000000e+00  -1.9807441692953705e-14 -5.7332403952271004e-15 0.0000000000000000e+00  -3.1533877105696805e-14 7.9332051875131675e-15 0.0000000000000000e+00  4.6828431839582567e-15 -1.3726993723058092e-14 0.0000000000000000e+00  2.0967186260096833e-15 3.2789004263939993e-15 0.0000000000000000e+00  -1.3659706977992292e-14 -2.4990537150556040e-15 0.0000000000000000e+00  1.0099211324816072e-14 -6.8898206992168583e-14 0.0000000000000000e+00  1.6040288364105947e-14 2.5447050879705833e-14 0.0000000000000000e+00  -5.7633272438934548e-15 1.0280254681248199e-13 0.0000000000000000e+00  1.3020254202436967e-14 1.8111617505612026e-14 0.0000000000000000e+00  -5.6964062447557790e-16 6.0811889264556084e-15 0.0000000000000000e+00  -6.5028443951651300e-14 -3.2251923691719698e-14 0.0000000000000000e+00  -2.0783829806716557e-14 -2.1968398665109119e-14 0.0000000000000000e+00  -3.1514749885958998e-14 1.4812041190613651e-14 0.0000000000000000e+00  3.7333562456809142e-15 -2.9824930641377375e-15 0.0000000000000000e+00  1.0890549427254845e-14 2.1465951564633276e-14 0.0000000000000000e+00  -2.3890730047780517e-14 8.5399809600391884e-15 0.0000000000000000e+00  7.6855740425604500e-15 -7.2503133264090967e-15 0.0000000000000000e+00  3.2296111651801692e-14 4.3417011708169871e-14 0.0000000000000000e+00  -9.1413711218024260e-15 -2.4223556555793264e-14 0.0000000000000000e+00  7.7754163051155195e-15 1.5183050685796542e-14 0.0000000000000000e+00  -1.4415048222954434e-14 -1.6510227869431940e-14 0.0000000000000000e+00  -8.2569114970057021e-14 -8.0121688460541429e-14 0.0000000000000000e+00  -6.3990139150234906e-15 9.8356574925178671e-15 0.0000000000000000e+00  -2.9141222363349450e-14 8.5775365257391237e-14 0.0000000000000000e+00  8.6450508585739881e-15 -3.6312448711115892e-14 0.0000000000000000e+00  -3.7132032894713193e-16 4.1381730877861253e-14 0.0000000000000000e+00  -2.2253111780237098e-14 -1.6686770039820576e-14 0.0000000000000000e+00  2.0015903480774411e-14 4.9019620013805496e-14 0.0000000000000000e+00  1.6202672275167897e-14 5.9283862637309214e-14 0.0000000000000000e+00  -9.5889445756668935e-15 1.6329322876144492e-15 0.0000000000000000e+00  1.2620431385728025e-14 4.5647984516567562e-14 0.0000000000000000e+00  -1.9475655120453430e-14 -2.1880884368576861e-14 0.0000000000000000e+00  -7.5734992276181156e-14 1.4176498683628951e-14 0.0000000000000000e+00  1.4697747498729860e-14 -6.2211356960383010e-14 0.0000000000000000e+00  -3.8430908581246436e-14 2.3548014940476752e-16 0.0000000000000000e+00  -7.2741443120107373e-15 -1.4878716736495491e-14 0.0000000000000000e+00  1.4861120657529416e-14 -6.0211711132482340e-14 0.0000000000000000e+00  -2.0184868457491479e-14 1.3164941477222770e-14 0.0000000000000000e+00  2.3692252490825714e-14 1.7505030364193278e-15 0.0000000000000000e+00  2.0939617651326528e-14 5.2103554809992284e-14 0.0000000000000000e+00  -1.1297756782686685e-14 -2.8199115353680095e-14 0.0000000000000000e+00  4.5505882217287894e-15 6.2831958023258096e-15 0.0000000000000000e+00  -1.9916356457291627e-14 -3.6261450215221241e-14 0.0000000000000000e+00  -6.3526737812322066e-14 5.4535421373653483e-14 0.0000000000000000e+00  -8.6524030669525388e-16 -4.0278796615518726e-14 0.0000000000000000e+00  -2.3610198639899324e-14 -5.0980590064296621e-14 0.0000000000000000e+00  -6.0091587017489694e-16 1.8848511626645986e-15 0.0000000000000000e+00  7.7908277868386005e-15 -1.9641817194134892e-14 0.0000000000000000e+00  -1.1426989695708683e-14 6.4792774900908626e-14 0.0000000000000000e+00  2.7325646470030196e-14 -1