<?xml version="1.0"?>
<VTKFile type="UnstructuredGrid"  version="0.1"  >
<UnstructuredGrid>
<Piece  NumberOfPoints="1661" NumberOfCells="3200">
<Points>
<DataArray  type="Float64"  NumberOfComponents="3"  format="ascii">-0.25 -1 0  -0.225 -1 0  -0.2 -1 0  -0.175 -1 0  -0.15 -1 0  -0.125 -1 0  -0.1 -1 0  -0.07500000000000001 -1 0  -0.04999999999999999 -1 0  -0.02499999999999999 -1 0  0 -1 0  0.02500000000000002 -1 0  0.04999999999999999 -1 0  0.07500000000000001 -1 0  0.09999999999999998 -1 0  0.125 -1 0  0.15 -1 0  0.175 -1 0  0.2 -1 0  0.225 -1 0  0.25 -1 0  -0.25 -0.975 0  -0.225 -0.975 0  -0.2 -0.975 0  -0.175 -0.975 0  -0.15 -0.975 0  -0.125 -0.975 0  -0.1 -0.975 0  -0.07500000000000001 -0.975 0  -0.04999999999999999 -0.975 0  -0.02499999999999999 -0.975 0  0 -0.975 0  0.02500000000000002 -0.975 0  0.04999999999999999 -0.975 0  0.07500000000000001 -0.975 0  0.09999999999999998 -0.975 0  0.125 -0.975 0  0.15 -0.975 0  0.175 -0.975 0  0.2 -0.975 0  0.225 -0.975 0  0.25 -0.975 0  -0.25 -0.95 0  -0.225 -0.95 0  -0.2 -0.95 0  -0.175 -0.95 0  -0.15 -0.95 0  -0.125 -0.95 0  -0.1 -0.95 0  -0.07500000000000001 -0.95 0  -0.04999999999999999 -0.95 0  -0.02499999999999999 -0.95 0  0 -0.95 0  0.02500000000000002 -0.95 0  0.04999999999999999 -0.95 0  0.07500000000000001 -0.95 0  0.09999999999999998 -0.95 0  0.125 -0.95 0  0.15 -0.95 0  0.175 -0.95 0  0.2 -0.95 0  0.225 -0.95 0  0.25 -0.95 0  -0.25 -0.925 0  -0.225 -0.925 0  -0.2 -0.925 0  -0.175 -0.925 0  -0.15 -0.925 0  -0.125 -0.925 0  -0.1 -0.925 0  -0.07500000000000001 -0.925 0  -0.04999999999999999 -0.925 0  -0.02499999999999999 -0.925 0  0 -0.925 0  0.02500000000000002 -0.925 0  0.04999999999999999 -0.925 0  0.07500000000000001 -0.925 0  0.09999999999999998 -0.925 0  0.125 -0.925 0  0.15 -0.925 0  0.175 -0.925 0  0.2 -0.925 0  0.225 -0.925 0  0.25 -0.925 0  -0.25 -0.9 0  -0.225 -0.9 0  -0.2 -0.9 0  -0.175 -0.9 0  -0.15 -0.9 0  -0.125 -0.9 0  -0.1 -0.9 0  -0.07500000000000001 -0.9 0  -0.04999999999999999 -0.9 0  -0.02499999999999999 -0.9 0  0 -0.9 0  0.02500000000000002 -0.9 0  0.04999999999999999 -0.9 0  0.07500000000000001 -0.9 0  0.09999999999999998 -0.9 0  0.125 -0.9 0  0.15 -0.9 0  0.175 -0.9 0  0.2 -0.9 0  0.225 -0.9 0  0.25 -0.9 0  -0.25 -0.875 0  -0.225 -0.875 0  -0.2 -0.875 0  -0.175 -0.875 0  -0.15 -0.875 0  -0.125 -0.875 0  -0.1 -0.875 0  -0.07500000000000001 -0.875 0  -0.04999999999999999 -0.875 0  -0.02499999999999999 -0.875 0  0 -0.875 0  0.02500000000000002 -0.875 0  0.04999999999999999 -0.875 0  0.07500000000000001 -0.875 0  0.09999999999999998 -0.875 0  0.125 -0.875 0  0.15 -0.875 0  0.175 -0.875 0  0.2 -0.875 0  0.225 -0.875 0  0.25 -0.875 0  -0.25 -0.85 0  -0.225 -0.85 0  -0.2 -0.85 0  -0.175 -0.85 0  -0.15 -0.85 0  -0.125 -0.85 0  -0.1 -0.85 0  -0.07500000000000001 -0.85 0  -0.04999999999999999 -0.85 0  -0.02499999999999999 -0.85 0  0 -0.85 0  0.02500000000000002 -0.85 0  0.04999999999999999 -0.85 0  0.07500000000000001 -0.85 0  0.09999999999999998 -0.85 0  0.125 -0.85 0  0.15 -0.85 0  0.175 -0.85 0  0.2 -0.85 0  0.225 -0.85 0  0.25 -0.85 0  -0.25 -0.825 0  -0.225 -0.825 0  -0.2 -0.825 0  -0.175 -0.825 0  -0.15 -0.825 0  -0.125 -0.825 0  -0.1 -0.825 0  -0.07500000000000001 -0.825 0  -0.04999999999999999 -0.825 0  -0.02499999999999999 -0.825 0  0 -0.825 0  0.02500000000000002 -0.825 0  0.04999999999999999 -0.825 0  0.07500000000000001 -0.825 0  0.09999999999999998 -0.825 0  0.125 -0.825 0  0.15 -0.825 0  0.175 -0.825 0  0.2 -0.825 0  0.225 -0.825 0  0.25 -0.825 0  -0.25 -0.8 0  -0.225 -0.8 0  -0.2 -0.8 0  -0.175 -0.8 0  -0.15 -0.8 0  -0.125 -0.8 0  -0.1 -0.8 0  -0.07500000000000001 -0.8 0  -0.04999999999999999 -0.8 0  -0.02499999999999999 -0.8 0  0 -0.8 0  0.02500000000000002 -0.8 0  0.04999999999999999 -0.8 0  0.07500000000000001 -0.8 0  0.09999999999999998 -0.8 0  0.125 -0.8 0  0.15 -0.8 0  0.175 -0.8 0  0.2 -0.8 0  0.225 -0.8 0  0.25 -0.8 0  -0.25 -0.775 0  -0.225 -0.775 0  -0.2 -0.775 0  -0.175 -0.775 0  -0.15 -0.775 0  -0.125 -0.775 0  -0.1 -0.775 0  -0.07500000000000001 -0.775 0  -0.04999999999999999 -0.775 0  -0.02499999999999999 -0.775 0  0 -0.775 0  0.02500000000000002 -0.775 0  0.04999999999999999 -0.775 0  0.07500000000000001 -0.775 0  0.09999999999999998 -0.775 0  0.125 -0.775 0  0.15 -0.775 0  0.175 -0.775 0  0.2 -0.775 0  0.225 -0.775 0  0.25 -0.775 0  -0.25 -0.75 0  -0.225 -0.75 0  -0.2 -0.75 0  -0.175 -0.75 0  -0.15 -0.75 0  -0.125 -0.75 0  -0.1 -0.75 0  -0.07500000000000001 -0.75 0  -0.04999999999999999 -0.75 0  -0.02499999999999999 -0.75 0  0 -0.75 0  0.02500000000000002 -0.75 0  0.04999999999999999 -0.75 0  0.07500000000000001 -0.75 0  0.09999999999999998 -0.75 0  0.125 -0.75 0  0.15 -0.75 0  0.175 -0.75 0  0.2 -0.75 0  0.225 -0.75 0  0.25 -0.75 0  -0.25 -0.725 0  -0.225 -0.725 0  -0.2 -0.725 0  -0.175 -0.725 0  -0.15 -0.725 0  -0.125 -0.725 0  -0.1 -0.725 0  -0.07500000000000001 -0.725 0  -0.04999999999999999 -0.725 0  -0.02499999999999999 -0.725 0  0 -0.725 0  0.02500000000000002 -0.725 0  0.04999999999999999 -0.725 0  0.07500000000000001 -0.725 0  0.09999999999999998 -0.725 0  0.125 -0.725 0  0.15 -0.725 0  0.175 -0.725 0  0.2 -0.725 0  0.225 -0.725 0  0.25 -0.725 0  -0.25 -0.7 0  -0.225 -0.7 0  -0.2 -0.7 0  -0.175 -0.7 0  -0.15 -0.7 0  -0.125 -0.7 0  -0.1 -0.7 0  -0.07500000000000001 -0.7 0  -0.04999999999999999 -0.7 0  -0.02499999999999999 -0.7 0  0 -0.7 0  0.02500000000000002 -0.7 0  0.04999999999999999 -0.7 0  0.07500000000000001 -0.7 0  0.09999999999999998 -0.7 0  0.125 -0.7 0  0.15 -0.7 0  0.175 -0.7 0  0.2 -0.7 0  0.225 -0.7 0  0.25 -0.7 0  -0.25 -0.675 0  -0.225 -0.675 0  -0.2 -0.675 0  -0.175 -0.675 0  -0.15 -0.675 0  -0.125 -0.675 0  -0.1 -0.675 0  -0.07500000000000001 -0.675 0  -0.04999999999999999 -0.675 0  -0.02499999999999999 -0.675 0  0 -0.675 0  0.02500000000000002 -0.675 0  0.04999999999999999 -0.675 0  0.07500000000000001 -0.675 0  0.09999999999999998 -0.675 0  0.125 -0.675 0  0.15 -0.675 0  0.175 -0.675 0  0.2 -0.675 0  0.225 -0.675 0  0.25 -0.675 0  -0.25 -0.65 0  -0.225 -0.65 0  -0.2 -0.65 0  -0.175 -0.65 0  -0.15 -0.65 0  -0.125 -0.65 0  -0.1 -0.65 0  -0.07500000000000001 -0.65 0  -0.04999999999999999 -0.65 0  -0.02499999999999999 -0.65 0  0 -0.65 0  0.02500000000000002 -0.65 0  0.04999999999999999 -0.65 0  0.07500000000000001 -0.65 0  0.09999999999999998 -0.65 0  0.125 -0.65 0  0.15 -0.65 0  0.175 -0.65 0  0.2 -0.65 0  0.225 -0.65 0  0.25 -0.65 0  -0.25 -0.625 0  -0.225 -0.625 0  -0.2 -0.625 0  -0.175 -0.625 0  -0.15 -0.625 0  -0.125 -0.625 0  -0.1 -0.625 0  -0.07500000000000001 -0.625 0  -0.04999999999999999 -0.625 0  -0.02499999999999999 -0.625 0  0 -0.625 0  0.02500000000000002 -0.625 0  0.04999999999999999 -0.625 0  0.07500000000000001 -0.625 0  0.09999999999999998 -0.625 0  0.125 -0.625 0  0.15 -0.625 0  0.175 -0.625 0  0.2 -0.625 0  0.225 -0.625 0  0.25 -0.625 0  -0.25 -0.6 0  -0.225 -0.6 0  -0.2 -0.6 0  -0.175 -0.6 0  -0.15 -0.6 0  -0.125 -0.6 0  -0.1 -0.6 0  -0.07500000000000001 -0.6 0  -0.04999999999999999 -0.6 0  -0.02499999999999999 -0.6 0  0 -0.6 0  0.02500000000000002 -0.6 0  0.04999999999999999 -0.6 0  0.07500000000000001 -0.6 0  0.09999999999999998 -0.6 0  0.125 -0.6 0  0.15 -0.6 0  0.175 -0.6 0  0.2 -0.6 0  0.225 -0.6 0  0.25 -0.6 0  -0.25 -0.575 0  -0.225 -0.575 0  -0.2 -0.575 0  -0.175 -0.575 0  -0.15 -0.575 0  -0.125 -0.575 0  -0.1 -0.575 0  -0.07500000000000001 -0.575 0  -0.04999999999999999 -0.575 0  -0.02499999999999999 -0.575 0  0 -0.575 0  0.02500000000000002 -0.575 0  0.04999999999999999 -0.575 0  0.07500000000000001 -0.575 0  0.09999999999999998 -0.575 0  0.125 -0.575 0  0.15 -0.575 0  0.175 -0.575 0  0.2 -0.575 0  0.225 -0.575 0  0.25 -0.575 0  -0.25 -0.55 0  -0.225 -0.55 0  -0.2 -0.55 0  -0.175 -0.55 0  -0.15 -0.55 0  -0.125 -0.55 0  -0.1 -0.55 0  -0.07500000000000001 -0.55 0  -0.04999999999999999 -0.55 0  -0.02499999999999999 -0.55 0  0 -0.55 0  0.02500000000000002 -0.55 0  0.04999999999999999 -0.55 0  0.07500000000000001 -0.55 0  0.09999999999999998 -0.55 0  0.125 -0.55 0  0.15 -0.55 0  0.175 -0.55 0  0.2 -0.55 0  0.225 -0.55 0  0.25 -0.55 0  -0.25 -0.525 0  -0.225 -0.525 0  -0.2 -0.525 0  -0.175 -0.525 0  -0.15 -0.525 0  -0.125 -0.525 0  -0.1 -0.525 0  -0.07500000000000001 -0.525 0  -0.04999999999999999 -0.525 0  -0.02499999999999999 -0.525 0  0 -0.525 0  0.02500000000000002 -0.525 0  0.04999999999999999 -0.525 0  0.07500000000000001 -0.525 0  0.09999999999999998 -0.525 0  0.125 -0.525 0  0.15 -0.525 0  0.175 -0.525 0  0.2 -0.525 0  0.225 -0.525 0  0.25 -0.525 0  -0.25 -0.5 0  -0.225 -0.5 0  -0.2 -0.5 0  -0.175 -0.5 0  -0.15 -0.5 0  -0.125 -0.5 0  -0.1 -0.5 0  -0.07500000000000001 -0.5 0  -0.04999999999999999 -0.5 0  -0.02499999999999999 -0.5 0  0 -0.5 0  0.02500000000000002 -0.5 0  0.04999999999999999 -0.5 0  0.07500000000000001 -0.5 0  0.09999999999999998 -0.5 0  0.125 -0.5 0  0.15 -0.5 0  0.175 -0.5 0  0.2 -0.5 0  0.225 -0.5 0  0.25 -0.5 0  -0.25 -0.475 0  -0.225 -0.475 0  -0.2 -0.475 0  -0.175 -0.475 0  -0.15 -0.475 0  -0.125 -0.475 0  -0.1 -0.475 0  -0.07500000000000001 -0.475 0  -0.04999999999999999 -0.475 0  -0.02499999999999999 -0.475 0  0 -0.475 0  0.02500000000000002 -0.475 0  0.04999999999999999 -0.475 0  0.07500000000000001 -0.475 0  0.09999999999999998 -0.475 0  0.125 -0.475 0  0.15 -0.475 0  0.175 -0.475 0  0.2 -0.475 0  0.225 -0.475 0  0.25 -0.475 0  -0.25 -0.45 0  -0.225 -0.45 0  -0.2 -0.45 0  -0.175 -0.45 0  -0.15 -0.45 0  -0.125 -0.45 0  -0.1 -0.45 0  -0.07500000000000001 -0.45 0  -0.04999999999999999 -0.45 0  -0.02499999999999999 -0.45 0  0 -0.45 0  0.02500000000000002 -0.45 0  0.04999999999999999 -0.45 0  0.07500000000000001 -0.45 0  0.09999999999999998 -0.45 0  0.125 -0.45 0  0.15 -0.45 0  0.175 -0.45 0  0.2 -0.45 0  0.225 -0.45 0  0.25 -0.45 0  -0.25 -0.425 0  -0.225 -0.425 0  -0.2 -0.425 0  -0.175 -0.425 0  -0.15 -0.425 0  -0.125 -0.425 0  -0.1 -0.425 0  -0.07500000000000001 -0.425 0  -0.04999999999999999 -0.425 0  -0.02499999999999999 -0.425 0  0 -0.425 0  0.02500000000000002 -0.425 0  0.04999999999999999 -0.425 0  0.07500000000000001 -0.425 0  0.
[...]
<PointData  Vectors="flow"> 
<DataArray  type="Float64"  Name="flow"  NumberOfComponents="3" format="ascii">-4.5367582823689877e-02 9.0736127564527091e-02 0.0000000000000000e+00  2.1862585717402859e-06 9.0736127564293764e-02 0.0000000000000000e+00  -1.0531113842053849e-10 9.0736127564221059e-02 0.0000000000000000e+00  -3.2446585431852217e-13 9.0736127564481003e-02 0.0000000000000000e+00  -3.1783062726701502e-13 9.0736127564277347e-02 0.0000000000000000e+00  -2.1490924806547611e-13 9.0736127564225999e-02 0.0000000000000000e+00  -6.9728232162671320e-13 9.0736127563103147e-02 0.0000000000000000e+00  -1.4742835600667486e-12 9.0736127564214356e-02 0.0000000000000000e+00  -7.1140161740323112e-13 9.0736127564293292e-02 0.0000000000000000e+00  -6.7043777341855380e-13 9.0736127564257418e-02 0.0000000000000000e+00  -4.8991708898474995e-13 9.0736127563959823e-02 0.0000000000000000e+00  6.0979380361354027e-14 9.0736127564463143e-02 0.0000000000000000e+00  3.1925933368936735e-13 9.0736127564454996e-02 0.0000000000000000e+00  1.0384490105756313e-12 9.0736127564193789e-02 0.0000000000000000e+00  -1.3356684277825211e-13 9.0736127562531035e-02 0.0000000000000000e+00  -1.3939944194938827e-12 9.0736127563990743e-02 0.0000000000000000e+00  -4.1451705054998559e-13 9.0736127564269922e-02 0.0000000000000000e+00  -4.1742792732295230e-13 9.0736127564796307e-02 0.0000000000000000e+00  1.0519345255223237e-10 9.0736127564116753e-02 0.0000000000000000e+00  -2.1862585533935409e-06 9.0736127564189292e-02 0.0000000000000000e+00  4.5367582823694227e-02 9.0736127564452734e-02 0.0000000000000000e+00  -4.5332606061768269e-02 2.7212872189863396e-01 0.0000000000000000e+00  2.1845729355665363e-06 2.7212872189848492e-01 0.0000000000000000e+00  -1.0522873895847977e-10 2.7212872189859533e-01 0.0000000000000000e+00  -1.2953235653138946e-13 2.7212872189912413e-01 0.0000000000000000e+00  -3.8825581388204746e-13 2.7212872189882942e-01 0.0000000000000000e+00  -8.2247859747451505e-13 2.7212872189862608e-01 0.0000000000000000e+00  -8.8548900895138056e-13 2.7212872189814397e-01 0.0000000000000000e+00  -6.7951591998250637e-13 2.7212872189883724e-01 0.0000000000000000e+00  -7.5643739737227011e-13 2.7212872189868625e-01 0.0000000000000000e+00  -9.0380739064703890e-13 2.7212872189871995e-01 0.0000000000000000e+00  -3.3727453995969772e-13 2.7212872189853127e-01 0.0000000000000000e+00  8.5994883741520977e-14 2.7212872189839726e-01 0.0000000000000000e+00  1.4587240021641492e-13 2.7212872189836218e-01 0.0000000000000000e+00  5.4268004895063344e-13 2.7212872189813470e-01 0.0000000000000000e+00  -2.4228377903438013e-13 2.7212872189741089e-01 0.0000000000000000e+00  -7.4116096813345721e-13 2.7212872189838633e-01 0.0000000000000000e+00  -2.7086992095730465e-13 2.7212872189866349e-01 0.0000000000000000e+00  -2.9957333023899789e-13 2.7212872189859033e-01 0.0000000000000000e+00  1.0488530691650829e-10 2.7212872189843912e-01 0.0000000000000000e+00  -2.1845730530562567e-06 2.7212872189850362e-01 0.0000000000000000e+00  4.5332606061811082e-02 2.7212872189844045e-01 0.0000000000000000e+00  -4.5227729706987088e-02 5.4383784103205490e-01 0.0000000000000000e+00  2.1795189910973851e-06 5.4383784103199240e-01 0.0000000000000000e+00  -1.0445145795170771e-10 5.4383784103192534e-01 0.0000000000000000e+00  1.4152983454313999e-13 5.4383784103218713e-01 0.0000000000000000e+00  -9.6061431428745183e-13 5.4383784103231003e-01 0.0000000000000000e+00  -8.0739069921491498e-13 5.4383784103234589e-01 0.0000000000000000e+00  -7.4066022229839018e-13 5.4383784103307153e-01 0.0000000000000000e+00  -7.6051669803154469e-13 5.4383784103248001e-01 0.0000000000000000e+00  -7.7204698181645787e-13 5.4383784103251531e-01 0.0000000000000000e+00  -7.5912219375740045e-13 5.4383784103283428e-01 0.0000000000000000e+00  -7.5397620545677299e-13 5.4383784103259525e-01 0.0000000000000000e+00  -5.9941495025062992e-14 5.4383784103236676e-01 0.0000000000000000e+00  -8.2680991203609366e-14 5.4383784103208532e-01 0.0000000000000000e+00  6.6431319254636661e-14 5.4383784103209032e-01 0.0000000000000000e+00  5.2286480746996335e-14 5.4383784103149990e-01 0.0000000000000000e+00  6.1219990865622579e-14 5.4383784103224553e-01 0.0000000000000000e+00  -4.0393131031399214e-13 5.4383784103229327e-01 0.0000000000000000e+00  -5.5292017247645404e-13 5.4383784103193045e-01 0.0000000000000000e+00  1.0478004937699509e-10 5.4383784103207078e-01 0.0000000000000000e+00  -2.1795189351508996e-06 5.4383784103236332e-01 0.0000000000000000e+00  4.5227729706691734e-02 5.4383784103255217e-01 0.0000000000000000e+00  -4.5053115470403443e-02 8.1470840163256764e-01 0.0000000000000000e+00  2.1711041112925580e-06 8.1470840163283342e-01 0.0000000000000000e+00  -1.0434099977651559e-10 8.1470840163266889e-01 0.0000000000000000e+00  1.9741748598153302e-13 8.1470840163243241e-01 0.0000000000000000e+00  -3.2596751393356817e-13 8.1470840163284064e-01 0.0000000000000000e+00  -2.1674194966516663e-14 8.1470840163283820e-01 0.0000000000000000e+00  -6.6976128261072493e-13 8.1470840163308600e-01 0.0000000000000000e+00  -1.1835312932738572e-12 8.1470840163323810e-01 0.0000000000000000e+00  -5.1476832146577105e-13 8.1470840163377867e-01 0.0000000000000000e+00  -8.8791798834484127e-13 8.1470840163368630e-01 0.0000000000000000e+00  -7.4985464372559286e-13 8.1470840163384195e-01 0.0000000000000000e+00  -5.1036846600875687e-13 8.1470840163383595e-01 0.0000000000000000e+00  -1.1984895647920463e-13 8.1470840163340685e-01 0.0000000000000000e+00  3.8369073882088728e-14 8.1470840163301528e-01 0.0000000000000000e+00  -6.6258650681877574e-14 8.1470840163386138e-01 0.0000000000000000e+00  6.6431605205046173e-15 8.1470840163284430e-01 0.0000000000000000e+00  -5.0668278129565902e-13 8.1470840163310432e-01 0.0000000000000000e+00  -3.6181613378432307e-13 8.1470840163315295e-01 0.0000000000000000e+00  1.0447803488693111e-10 8.1470840163319835e-01 0.0000000000000000e+00  -2.1711040082524514e-06 8.1470840163317049e-01 0.0000000000000000e+00  4.5053115470497077e-02 8.1470840163305480e-01 0.0000000000000000e+00  -4.4809032595756172e-02 1.0843227409298803e+00 0.0000000000000000e+00  2.1593421351171907e-06 1.0843227409300531e+00 0.0000000000000000e+00  -1.0387841122711615e-10 1.0843227409301295e+00 0.0000000000000000e+00  3.5311692952322019e-13 1.0843227409300493e+00 0.0000000000000000e+00  -3.2951442277898603e-13 1.0843227409298919e+00 0.0000000000000000e+00  -5.7968986884036055e-13 1.0843227409297802e+00 0.0000000000000000e+00  -4.1165497421454456e-13 1.0843227409289413e+00 0.0000000000000000e+00  -1.8208141026122401e-13 1.0843227409303589e+00 0.0000000000000000e+00  -3.0747814362331298e-13 1.0843227409307861e+00 0.0000000000000000e+00  -5.9782346199826664e-13 1.0843227409309584e+00 0.0000000000000000e+00  -6.4641621434748379e-13 1.0843227409313601e+00 0.0000000000000000e+00  -5.8486707335207138e-13 1.0843227409310821e+00 0.0000000000000000e+00  -8.7370731500500873e-13 1.0843227409309422e+00 0.0000000000000000e+00  5.4021794867008686e-13 1.0843227409299268e+00 0.0000000000000000e+00  -1.1103880590806541e-13 1.0843227409291436e+00 0.0000000000000000e+00  -7.7030434155630211e-13 1.0843227409300873e+00 0.0000000000000000e+00  -1.3651612024438010e-13 1.0843227409300469e+00 0.0000000000000000e+00  -5.9095470869579355e-13 1.0843227409301073e+00 0.0000000000000000e+00  1.0384206584619979e-10 1.0843227409295628e+00 0.0000000000000000e+00  -2.1593420558979638e-06 1.0843227409294440e+00 0.0000000000000000e+00  4.4809032595715843e-02 1.0843227409291807e+00 0.0000000000000000e+00  -4.4495857440968657e-02 1.3522651331548243e+00 0.0000000000000000e+00  2.1442501350820525e-06 1.3522651331544848e+00 0.0000000000000000e+00  -1.0323350239021663e-10 1.3522651331536377e+00 0.0000000000000000e+00  -1.4361317602171391e-14 1.3522651331541358e+00 0.0000000000000000e+00  -7.2552592811206542e-13 1.3522651331538018e+00 0.0000000000000000e+00  -1.0605695268492250e-12 1.3522651331530864e+00 0.0000000000000000e+00  -5.3629815892199484e-14 1.3522651331530346e+00 0.0000000000000000e+00  7.4434255883202025e-13 1.3522651331539144e+00 0.0000000000000000e+00  -3.5380638806536133e-15 1.3522651331540161e+00 0.0000000000000000e+00  -1.4618815857515182e-13 1.3522651331538187e+00 0.0000000000000000e+00  -5.0592289618666384e-13 1.3522651331553555e+00 0.0000000000000000e+00  -1.0269783456377629e-12 1.3522651331550433e+00 0.0000000000000000e+00  -1.3385286655354929e-12 1.3522651331542439e+00 0.0000000000000000e+00  -1.5890126240297464e-12 1.3522651331539464e+00 0.0000000000000000e+00  6.9108680707611747e-14 1.3522651331516287e+00 0.0000000000000000e+00  9.1085072590946299e-13 1.3522651331530433e+00 0.0000000000000000e+00  -4.7049315145076720e-13 1.3522651331530207e+00 0.0000000000000000e+00  -7.8856587307922864e-13 1.3522651331531845e+00 0.0000000000000000e+00  1.0253830761044897e-10 1.3522651331534485e+00 0.0000000000000000e+00  -2.1442501532209357e-06 1.3522651331530626e+00 0.0000000000000000e+00  4.4495857441155980e-02 1.3522651331531728e+00 0.0000000000000000e+00  -4.4114072898887961e-02 1.6181224305571358e+00 0.0000000000000000e+00  2.1258512844579710e-06 1.6181224305571065e+00 0.0000000000000000e+00  -1.0260823372466275e-10 1.6181224305573751e+00 0.0000000000000000e+00  3.4151440557270048e-13 1.6181224305569335e+00 0.0000000000000000e+00  -1.1614230313105619e-12 1.6181224305569115e+00 0.0000000000000000e+00  -1.1797421610116335e-12 1.6181224305565074e+00 0.0000000000000000e+00  4.0602647861147961e-13 1.6181224305554698e+00 0.0000000000000000e+00  7.3818019675965001e-13 1.6181224305558211e+00 0.0000000000000000e+00  -3.4550633157926858e-13 1.6181224305556490e+00 0.0000000000000000e+00  5.6526274098676785e-13 1.6181224305561297e+00 0.0000000000000000e+00  4.1232995777555212e-13 1.6181224305553445e+00 0.0000000000000000e+00  -1.5035621668296071e-12 1.6181224305559569e+00 0.0000000000000000e+00  -1.9223168252009976e-12 1.6181224305560402e+00 0.0000000000000000e+00  -2.2815941646347659e-12 1.6181224305555904e+00 0.0000000000000000e+00  -1.0404463254344683e-12 1.6181224305559223e+00 0.0000000000000000e+00  5.7745869520119215e-13 1.6181224305545194e+00 0.0000000000000000e+00  -3.4208113019399736e-14 1.6181224305551840e+00 0.0000000000000000e+00  -3.3729224229849095e-14 1.6181224305549522e+00 0.0000000000000000e+00  1.0224921695543214e-10 1.6181224305559698e+00 0.0000000000000000e+00  -2.1258525074845283e-06 1.6181224305560062e+00 0.0000000000000000e+00  4.4114072899279086e-02 1.6181224305558271e+00 0.0000000000000000e+00  -4.3664267654486451e-02 1.8814847004563100e+00 0.0000000000000000e+00  2.1041758573662982e-06 1.8814847004557254e+00 0.0000000000000000e+00  -1.0138988961883020e-10 1.8814847004564248e+00 0.0000000000000000e+00  -2.9442152633269146e-13 1.8814847004568596e+00 0.0000000000000000e+00  -1.1985900895789899e-12 1.8814847004573045e+00 0.0000000000000000e+00  -2.7711026285150843e-12 1.8814847004551833e+00 0.0000000000000000e+00  -8.8333804205274618e-13 1.8814847004552280e+00 0.0000000000000000e+00  8.1628949245577088e-13 1.8814847004533941e+00 0.0000000000000000e+00  3.6558487331560600e-13 1.8814847004535149e+00 0.0000000000000000e+00  -2.2358769649069124e-13 1.8814847004536503e+00 0.0000000000000000e+00  -5.4053719317865623e-13 1.8814847004537274e+00 0.0000000000000000e+00  -4.4538345374278415e-13 1.8814847004530046e+00 0.0000000000000000e+00  -1.9398810726456604e-12 1.8814847004526754e+00 0.0000000000000000e+00  -1.4765956128528025e-12 1.8814847004533481e+00 0.0000000000000000e+00  -7.3810417390920468e-13 1.8814847004548281e+00 0.0000000000000000e+00  -1.5914511235163018e-14 1.8814847004538411e+00 0.0000000000000000e+00  -3.3188649464423911e-15 1.8814847004537598e+00 0.0000000000000000e+00  -1.9316070266923505e-13 1.8814847004541924e+00 0.0000000000000000e+00  1.0165565696515535e-10 1.8814847004533812e+00 0.0000000000000000e+00  -2.1041760940599665e-06 1.8814847004539119e+00 0.0000000000000000e+00  4.3664267654153432e-02 1.8814847004543018e+00 0.0000000000000000e+00  -4.3147135273347501e-02 2.1419458573167556e+00 0.0000000000000000e+00  2.0792549659179522e-06 2.1419458573172903e+00 0.0000000000000000e+00  -9.9357470264544011e-11 2.1419458573164736e+00 0.0000000000000000e+00  8.4579701302594852e-13 2.1419458573164101e+00 0.0000000000000000e+00  -2.7886704612485439e-12 2.1419458573158123e+00 0.0000000000000000e+00  -2.8103535883062108e-12 2.1419458573169292e+00 0.0000000000000000e+00  -1.2207194136713097e-12 2.1419458573181505e+00 0.0000000000000000e+00  -6.5240201851749740e-13 2.1419458573168155e+00 0.0000000000000000e+00  -1.8575983297256676e-13 2.1419458573167240e+00 0.0000000000000000e+00  2.9304270643376923e-13 2.1419458573159473e+00 0.0000000000000000e+00  -3.7795816196380873e-13 2.1419458573163781e+00 0.0000000000000000e+00  -2.3656002759544211e-12 2.1419458573147239e+00 0.0000000000000000e+00  -1.3072829733179738e-12 2.1419458573155481e+00 0.0000000000000000e+00  -3.9213051768019956e-13 2.1419458573161445e+00 0.0000000000000000e+00  -5.8415253724312361e-13 2.1419458573164496e+00 0.0000000000000000e+00  -4.2263486986553078e-13 2.1419458573164420e+00 0.0000000000000000e+00  5.6315178892078408e-13 2.1419458573170314e+00 0.0000000000000000e+00  -2.0250833331512815e-13 2.1419458573182899e+00 0.0000000000000000e+00  9.9668571292165258e-11 2.1419458573173382e+00 0.0000000000000000e+00  -2.0792552875988598e-06 2.1419458573167081e+00 0.0000000000000000e+00  4.3147135273301933e-02 2.1419458573164065e+00 0.0000000000000000e+00  -4.2563473136630524e-02 2.3991042889173317e+00 0.0000000000000000e+00  2.0511283886451962e-06 2.3991042889178362e+00 0.0000000000000000e+00  -9.9506037212086040e-11 2.3991042889173029e+00 0.0000000000000000e+00  -6.1644373315175505e-13 2.3991042889169729e+00 0.0000000000000000e+00  -8.4635469494241287e-13 2.3991042889165031e+00 0.0000000000000000e+00  -6.9318788617429543e-13 2.3991042889186263e+00 0.0000000000000000e+00  -1.4485233160385174e-12 2.3991042889178713e+00 0.0000000000000000e+00  -6.3691481006386385e-13 2.3991042889182186e+00 0.0000000000000000e+00  -3.3886711593825220e-13 2.3991042889179424e+00 0.0000000000000000e+00  -2.7549653965215912e-13 2.3991042889181715e+00 0.0000000000000000e+00  -1.5682041283075191e-12 2.3991042889162104e+00 0.0000000000000000e+00  -1.5722147700245504e-12 2.3991042889175702e+00 0.0000000000000000e+00  -5.2791613838124515e-13 2.3991042889173366e+00 0.0000000000000000e+00  -4.4846850155139006e-13 2.3991042889183345e+00 0.0000000000000000e+00  -5.4686022536743801e-13 2.3991042889181418e+00 0.0000000000000000e+00  4.2866522081238108e-13 2.3991042889186533e+00 0.0000000000000000e+00  1.4347814416738876e-12 2.3991042889189940e+00 0.0000000000000000e+00  -1.0316679152631909e-13 2.3991042889178287e+00 0.0000000000000000e+00  9.7705461466455304e-11 2.3991042889186094e+00 0.0000000000000000e+00  -2.0511292413507672e-06 2.3991042889187808e+00 0.0000000000000000e+00  4.2563473136736085e-02 2.3991042889188408e+00 0.0000000000000000e+00  -4.1914181210134710e-02 2.6525634755981931e+00 0.0000000000000000e+00  2.0198387249716510e-06 2.6525634755972938e+00 0.0000000000000000e+00  -9.7541648135707744e-11 2.6525634755980017e+00 0.0000000000000000e+00  8.6586796660573337e-14 2.6525634755980838e+00 0.0000000000000000e+00  -1.1359163633284830e-12 2.6525634755986367e+00 0.0000000000000000e+00  -1.2102601542305949e-12 2.6525634755984324e+00 0.0000000000000000e+00  -1.3620369990526025e-12 2.6525634755980012e+00 0.0000000000000000e+00  -7.0223888771546057e-13 2.6525634755987255e+00 0.0000000000000000e+00  -3.1481276320780334e-13 2.6525634755980403e+00 0.0000000000000000e+00  -1.7312797834292075e-12 2.6525634755973422e+00 0.0000000000000000e+00  -9.6969230926790384e-13 2.6525634755967782e+00 0.0000000000000000e+00  -9.7647582394496557e-13 2.6525634755984964e+00 0.0000000000000000e+00  -5.4815283160015252e-13 2.6525634755981931e+00 0.0000000000000000e+00  2.4472487928507055e-13 2.6525634755972280e+00 0.0000000000000000e+00  -2.1336836327998080e-13 2.6525634755967413e+00 0.0000000000000000e+00  6.7843283343286803e-13 2.6525634755980194e+00 0.0000000000000000e+00  -1.2569360163635366e-13 2.6525634755977481e+00 0.0000000000000000e+00  -1.0436206118850198e-13 2.6525634755970970e+00 0.0000000000000000e+00  9.7496795678640162e-11 2.6525634755974292e+00 0.0000000000000000e+00  -2.0198398385579499e-06 2.6525634755978285e+00 0.0000000000000000e+00  4.1914181210332600e-02 2.6525634755977445e+00 0.0000000000000000e+00  -4.1200260654407281e-02 2.9019326016585598e+00 0.0000000000000000e+00  1.9854356170105655e-06 2.9019326016597540e+00 0.0000000000000000e+00  -9.5335757594593196e-11 2.9019326016607634e+00 0.0000000000000000e+00  -2.3153790282858312e-13 2.9019326016598219e+00 0.0000000000000000e+00  -4.1640867117740268e-13 2.9019326016612150e+00 0.0000000000000000e+00  -1.5523615253682597e-12 2.9019326016611906e+00 0.0000000000000000e+00  -1.0032861547822632e-12 2.9019326016624385e+00 0.0000000000000000e+00  -8.6941246556497774e-13 2.9019326016612825e+00 0.0000000000000000e+00  -1.3668093789043565e-12 2.9019326016606910e+00 0.0000000000000000e+00  -1.3948780082144664e-12 2.9019326016604410e+00 0.0000000000000000e+00  -5.7002604770808789e-13 2.9019326016612896e+00 0.0000000000000000e+00  -4.2856956227887818e-13 2.9019326016606151e+00 0.0000000000000000e+00  -1.6801682723213684e-12 2.9019326016608278e+00 0.0000000000000000e+00  -1.9310776159240157e-12 2.9019326016592530e+00 0.0000000000000000e+00  2.9040341754840693e-13 2.9019326016582370e+00 0.0000000000000000e+00  1.2866208806283386e-12 2.9019326016589257e+00 0.0000000000000000e+00  4.7882216956283532e-13 2.9019326016580407e+00 0.0000000000000000e+00  -7.8423428478815009e-13 2.9019326016593872e+00 0.0000000000000000e+00  9.5344489250525973e-11 2.9019326016586917e+00 0.0000000000000000e+00  -1.9854353166352763e-06 2.9019326016595537e+00 0.0000000000000000e+00  4.1200260654985214e-02 2.9019326016600075e+00 0.0000000000000000e+00  -4.0422812281296690e-02 3.1468271579855838e+00 0.0000000000000000e+00  1.9479713186852871e-06 3.1468271579854270e+00 0.0000000000000000e+00  -9.3883613078353095e-11 3.1468271579851637e+00 0.0000000000000000e+00  6.4255736173279991e-13 3.1468271579862583e+00 0.0000000000000000e+00  1.1597507586102823e-13 3.1468271579864320e+00 0.0000000000000000e+00  -4.1282911677140879e-14 3.1468271579876892e+00 0.0000000000000000e+00  -1.1162419697110013e-12 3.1468271579891232e+00 0.0000000000000000e+00  -2.2451221133463060e-12 3.1468271579879663e+00 0.0000000000000000e+00  -1.4231385697480149e-12 3.1468271579883909e+00 0.0000000000000000e+00  -1.2014955185566311e-12 3.1468271579877598e+00 0.0000000000000000e+00  -7.7584371620667456e-13 3.1468271579877203e+00 0.0000000000000000e+00  -1.0871579073669965e-12 3.1468271579871940e+00 0.0000000000000000e+00  -2.0078127974883801e-12 3.1468271579869485e+00 0.0000000000000000e+00  -2.2129391176175875e-12 3.1468271579872171e+00 0.0000000000000000e+00  -1.4870284265568540e-13 3.1468271579869591e+00 0.0000000000000000e+00  2.9048680371825317e-13 3.1468271579855425e+00 0.0000000000000000e+00  1.2058936019737318e-13 3.1468271579849301e+00 0.0000000000000000e+00  6.6769348303607948e-13 3.1468271579850868e+00 0.0000000000000000e+00  9.4355567613868844e-11 3.1468271579862708e+00 0.0000000000000000e+00  -1.9479699483131833e-06 3.1468271579863449e+00 0.0000000000000000e+00  4.0422812283231344e-02 3.1468271579865776e+00 0.0000000000000000e+00  -3.9583034864549095e-02 3.3868695349212423e+00 0.0000000000000000e+00  1.9075017259862027e-06 3.3868695349207285e+00 0.0000000000000000e+00  -9.0831280990247186e-11 3.3868695349208728e+00 0.0000000000000000e+00  1.0240001616919693e-12 3.3868695349221660e+00 0.0000000000000000e+00  1.2568280081420959e-12 3.3868695349219418e+00 0.0000000000000000e+00  1.2416901714299901e-12 3.3868695349230684e+00 0.0000000000000000e+00  -8.9423784992768138e-13 3.3868695349231093e+00 0.0000000000000000e+00  -1.7146848840598569e-12 3.3868695349239646e+00 0.0000000000000000e+00  -1.9354643177556204e-12 3.