<?xml version="1.0"?>
<VTKFile type="UnstructuredGrid"  version="0.1"  >
<UnstructuredGrid>
<Piece  NumberOfPoints="854" NumberOfCells="1585">
<Points>
<DataArray  type="Float64"  NumberOfComponents="3"  format="ascii">-0.04301769881032727 -0.07789766764724927 0  -0.04189181960277685 -0.07611574955633513 0  -0.04113485614380685 -0.0778406702871829 0  0.00624679979509361 -0.0777776748102709 0  0.007568916227461957 -0.07713354619579388 0  0.007382729841747624 -0.07843031623139499 0  -0.02649300547176505 -0.08702975760517451 0  -0.0263406063065554 -0.08511740888024559 0  -0.02550850615665724 -0.08614596759352909 0  -0.02084933550610458 -0.06779624883491528 0  -0.01911675057012764 -0.06710909061847127 0  -0.02127151809726676 -0.06627988887730912 0  -0.02355932395340094 -0.07300565754440523 0  -0.02424120674399909 -0.07083644762466612 0  -0.02528234839396254 -0.07235550507120665 0  0.003414444410662295 -0.06667387755197443 0  0.004779010705117206 -0.06723343326758101 0  0.004898532170245292 -0.06588470706159105 0  -0.04508450624939216 -0.07289877322312201 0  -0.04334072568701926 -0.07281119722011131 0  -0.04498843852561831 -0.07457396944552638 0  -0.01233019290593089 -0.08678347112328397 0  -0.0112338405684588 -0.08880426352507724 0  -0.01273075515225664 -0.08916786604196794 0  -0.02487731781150031 -0.08912078797260026 0  -0.02308076237772397 -0.08987146331792781 0  -0.02363550833345763 -0.08867396749658046 0  -0.04364710778737727 -0.08947610695391849 0  -0.04301418522453009 -0.09191095606957841 0  -0.04235961703442911 -0.0904411189668541 0  -0.04202545149712906 -0.0795481471424079 0  -0.04353098224731951 -0.07984041100116517 0  -0.0001289479518082485 -0.09093484953796985 0  -0.001537361812977841 -0.09183103635621589 0  -0.0001024440023580193 -0.09250311526682992 0  -0.02717633928571428 -0.0671875 0  -0.02547575840129358 -0.06789917861829771 0  -0.02660892302130463 -0.0686732810860967 0  -0.02804244587606518 -0.08423194559419436 0  -0.02986151651701308 -0.08345542126252224 0  -0.02944273228431295 -0.08497307522931515 0  0.002378144654088049 -0.07627751572327045 0  0.001485836510060817 -0.07417176389937385 0  0.003438601733579284 -0.07409333596484037 0  -0.01416772838726675 -0.08358641717367554 0  -0.01438092441757664 -0.08541614012962434 0  -0.01595884200481777 -0.08511847584202997 0  -0.0262424283318852 -0.08092416785272258 0  -0.02665141823057518 -0.07860444913168425 0  -0.02515036422374465 -0.07979337743849195 0  0.002005314181027703 -0.07160953721069377 0  0.0005042659000463546 -0.0706442070080241 0  0.001542585041404355 -0.06977073503056669 0  -0.009584768711776409 -0.07507825100308022 0  -0.01157990020702555 -0.0737556443498108 0  -0.01030858530652727 -0.07292718465895769 0  -0.01253972891058217 -0.09069641732879728 0  -0.01384411344556504 -0.0922333898441426 0  -0.01239315970166911 -0.09214278956462488 0  -0.0257700475618113 -0.09648057567556882 0  -0.0263560920378603 -0.09429152410769577 0  -0.02703095132911369 -0.09564516741633013 0  -0.02134487277949115 -0.09413554396678402 0  -0.01968877658969745 -0.09485076374227272 0  -0.02091719731974153 -0.09542021937800599 0  -0.04010064634197606 -0.07057924971757969 0  -0.04164168012530915 -0.06976888025874925 0  -0.04132738058798338 -0.07207961939964694 0  -0.04488879840437942 -0.07631145991727138 0  -0.04340011400537071 -0.07606345743554926 0  -0.001826518818718755 -0.09549248911561954 0  -0.003437109196252027 -0.09614075558673832 0  -0.002233023995066442 -0.09680739911547753 0  -0.007255992924199247 -0.09568128265964732 0  -0.005724784492378706 -0.09504408502530426 0  -0.007780810481280456 -0.09395812364190835 0  -0.0137118687932259 -0.08158202687391057 0  -0.01248023965029664 -0.08291617032045073 0  -0.0108014823312422 -0.07149204022071302 0  -0.009032588102341152 -0.06986902027922305 0  -0.01095681711124807 -0.06954729451736746 0  -0.002931194584325539 -0.06897337298686135 0  -0.002446866923003689 -0.06726113607087911 0  -0.001229707650287227 -0.0686706673061121 0  0.002880492093639446 -0.06466240859797964 0  0.008907581557938372 -0.07010677444136433 0  0.008194986331135287 -0.07203719082326678 0  0.01024567414151233 -0.07100052562916147 0  0.01066098305406274 -0.05999515557027461 0  0.01199697692997241 -0.058984518130708 0  0.01209909079558958 -0.06050787089223954 0  -0.01454856551814738 -0.07721315778584886 0  -0.0152166235939798 -0.07557541333693718 0  -0.0165260688143757 -0.07591326249582545 0  -0.01285352492073821 -0.07211050370584039 0  -0.01748218666510975 -0.06813878302001214 0  -0.01762923752875039 -0.06598599581991983 0  -0.01789083831616858 -0.0715804492939822 0  -0.01780358103167474 -0.07332099473903625 0  -0.01632599156523281 -0.07243771640431323 0  -0.007183493015576356 -0.06924166753497944 0  -0.00855263833068491 -0.06824491119945986 0  -0.03564751029865867 -0.07439774731271727 0  -0.03395211491563267 -0.07495322214508 0  -0.03366797019368069 -0.0734877242641562 0  -0.03455208564641323 -0.08194382303888702 0  -0.03255269639564686 -0.08229603199409749 0  -0.03339906579048692 -0.08124954414524603 0  -0.02704324561419352 -0.07289471972323462 0  -0.02481643742317179 -0.07372899787113088 0  -0.03738360545745725 -0.08168537983806289 0  -0.03599322360724295 -0.08337896242457203 0  -0.03806191498716771 -0.08365977489794321 0  -0.03365282590339484 -0.08692313372691331 0  -0.03558005079508717 -0.08742320875628713 0  -0.03453986567279773 -0.08544024026264552 0  -0.03438518618490685 -0.09242829621017326 0  -0.03487102961521734 -0.09394739526994358 0  -0.03284347077283539 -0.0928402886718603 0  -0.03695888676976247 -0.07756467740738612 0  -0.03501579601208976 -0.07651430571098827 0  -0.03642910979197705 -0.07622226076359578 0  -0.03014613125358451 -0.07424633768158163 0  -0.03047893372488195 -0.07206737163976487 0  -0.03121734171721906 -0.07329504990619225 0  -0.03834687844188856 -0.07228526864991387 0  -0.03836933328569094 -0.07055391585998522 0  -0.03697141779064224 -0.07127734686192946 0  -0.007450830811539287 -0.08780052063043026 0  -0.009320310705092061 -0.08838540211273728 0  -0.008068072222769229 -0.08621390726582412 0  -0.04531250000000001 -0.09690794883681851 0  -0.04493199712142847 -0.09520323073982323 0  -0.04325023819755165 -0.0968739896865731 0  0.009375 -0.09682257628260371 0  0.007808664082198944 -0.09597107339876711 0  0.008444268623215768 -0.09461046788110308 0  0.0007125495420706774 -0.09384324413309353 0  -0.001324185801125433 -0.09348673451877551 0  4.55158174537929e-05 -0.09559543642801521 0  -0.002638588467448458 -0.08480290334513936 0  -0.0009523537286110506 -0.08539467671252784 0  -0.002123245304167003 -0.08646438588906058 0  0.00707564389875579 -0.08712042819884332 0  0.006175460256179339 -0.08529300011325083 0  0.00579688305402835 -0.08777872249611265 0  -0.01551784317154422 -0.09006879589254792 0  -0.01402328543009905 -0.08832981739043477 0  -0.01558909581522321 -0.08849582318267966 0  -0.034375 -0.1 0  -0.03423696779068536 -0.09746140864191191 0  -0.03619635067639472 -0.09830927380456798 0  -0.0171875 -0.09842209667188512 0  -0.01907578470877056 -0.09811482038481674 0  -0.01794864954210933 -0.09714392486344528 0  -0.0203125 -0.09665517208936659 0  -0.01807747440893156 -0.09566187359880164 0  -0.04636382294280632 -0.08303782715171144 0  -0.04457664116340198 -0.08227588074917039 0  -0.04479628068135219 -0.08441144033909778 0  -0.04665725025786571 -0.07474883737689871 0  -0.04839656261803055 -0.07397023150741729 0  -0.04715929032803928 -0.07353832403414237 0  -0.006496208247169712 -0.07958930721574266 0  -0.007818588748072135 -0.078515126908775 0  -0.008658337353509663 -0.07992113794005237 0  -0.0005048909647391475 -0.07529755637084348 0  0.0009893486840984126 -0.07561681737863528 0  -0.0003488571704173114 -0.07659863563213469 0  -0.002439376396341518 -0.08212944253333339 0  -0.002444152277402757 -0.08018925365413369 0  -0.00381630162417183 -0.0820268413935732 0  -0.02264613483542079 -0.0820413651645792 0  -0.02433746493959434 -0.08113892035160643 0  -0.02322485160458113 -0.08039154261165993 0  -0.01754533292962527 -0.08487053535373217 0  -0.01612535708344472 -0.08352138452691246 0  -0.01860487144251813 -0.08356851163246476 0  -0.03140806455272695 -0.06619583248002962 0  -0.03353512095382387 -0.06678277612275996 0  -0.03286485146038919 -0.06502660822956426 0  -0.01924800164333928 -0.07429606467324316 0  -0.01784284706265305 -0.07560523021790183 0  -0.01627524721575662 -0.07415843609645587 0  -0.02247505510150612 -0.07631841748069951 0  -0.02103221323394636 -0.07503488050239412 0  -0.02265507431745275 -0.07446773357752805 0  -0.02426505803403166 -0.07507046582579038 0  -0.02758628374191479 -0.08598038504817176 0  -0.03146202181458926 -0.07916958962906337 0  -0.03201932651192579 -0.08072863592367834 0  -0.03268498819409774 -0.07961155343193971 0  0.004333204611837944 -0.09457186870462708 0  0.004719118187944253 -0.09325290342309187 0  0.003210521597263091 -0.09393581815995514 0  -0.02699880677727343 -0.06528383311259306 0  -0.02816272306545877 -0.06613540002135666 0  -0.02796267299524422 -0.07502143545925727 0  -0.02864174901762227 -0.07347143860603883 0  0.01172901776142153 -0.07037684730407788 0  0.01149171032184903 -0.07201869888808959 0  0.008329705248451892 -0.07582893826919467 0  0.006579345813181347 -0.07604559218577921 0  0.007340105850365504 -0.07377496925579345 0  0.005649608925003106 -0.07293541457290909 0  0.006920603710509551 -0.07248150249158494 0  -0.03293339707392893 -0.06890569867093572 0  -0.03497293050757541 -0.06853622981877409 0  -0.03955829636164478 -0.06618721975980241 0  -0.03996948399416095 -0.06794165841102252 0  -0.04136249049824998 -0.0662651475401172 0  0.005332838990544739 -0.06042849285714701 0  0.005783754170669378 -0.06253278840008002 0  0.006730960667624127 -0.06048731509119946 0  0.006082007269868802 -0.06654253260679399 0  -0.01384023034695557 -0.06772003352402545 0  -0.01561760000785632 -0.06830868095647734 0  -0.01463379778004665 -0.06978387898440573 0  -0.009770499137943315 -0.08620544990365804 0
[...]
<PointData  Vectors="flow"> 
<DataArray  type="Float64"  Name="flow"  NumberOfComponents="3" format="ascii">1.9711061438729253e-07 2.1573833950899619e-07 0.0000000000000000e+00  1.6741529842213167e-07 -5.4753083234730954e-07 0.0000000000000000e+00  -2.6639682548605628e-07 8.5413691210033377e-08 0.0000000000000000e+00  -1.1373271864915580e-06 2.2078780343984928e-06 0.0000000000000000e+00  -1.3034014591420336e-06 5.5839892500468587e-06 0.0000000000000000e+00  -9.3254165450839752e-07 -6.6815495056816860e-07 0.0000000000000000e+00  -1.3583563392514300e-06 -1.0839562342140670e-06 0.0000000000000000e+00  4.0299616534291671e-06 6.9809523936935372e-07 0.0000000000000000e+00  2.3914354536675092e-06 2.4939318569999176e-06 0.0000000000000000e+00  -1.3764642152386557e-06 -1.7228833199436197e-06 0.0000000000000000e+00  2.2661542722338020e-06 8.3724929360006933e-08 0.0000000000000000e+00  8.5253796691221591e-07 1.2288537327462433e-06 0.0000000000000000e+00  4.1587469418334463e-07 4.0941684105954308e-07 0.0000000000000000e+00  -1.2646949677826479e-06 -1.5911861698998292e-06 0.0000000000000000e+00  1.1018633060682205e-06 2.2088785994127254e-06 0.0000000000000000e+00  -2.6602976906229919e-06 2.2474181732927435e-06 0.0000000000000000e+00  5.3058740245782856e-06 3.3928105962932916e-07 0.0000000000000000e+00  2.5873098768095231e-07 -3.6272221260229921e-06 0.0000000000000000e+00  9.5252053747105776e-08 6.4529725553968353e-08 0.0000000000000000e+00  2.7364451494150803e-08 -6.9647594212927803e-08 0.0000000000000000e+00  2.6512458150241482e-07 -1.1449292058828948e-07 0.0000000000000000e+00  6.3509364892529395e-06 2.7380956462823811e-06 0.0000000000000000e+00  -6.0346779566559932e-07 3.3663850566052657e-06 0.0000000000000000e+00  4.4942867847243417e-06 -5.4900057447441934e-06 0.0000000000000000e+00  -1.1522413382099958e-06 3.1079262164472611e-06 0.0000000000000000e+00  -3.8462791832460769e-06 8.6688512631555157e-08 0.0000000000000000e+00  -1.6534547382940607e-06 -7.1526370998232389e-06 0.0000000000000000e+00  1.0652762423779899e-07 -1.9050394895127752e-07 0.0000000000000000e+00  3.4380124009722789e-07 5.7941171618380857e-08 0.0000000000000000e+00  -9.0280028851486247e-09 1.3010354822821134e-07 0.0000000000000000e+00  1.3989230344657735e-07 6.3755996911931636e-08 0.0000000000000000e+00  -1.0971932223785994e-08 -2.4630726563403430e-07 0.0000000000000000e+00  -4.9489892979922487e-07 -5.6119414692742193e-06 0.0000000000000000e+00  2.6351887190336768e-06 6.8615491554303342e-06 0.0000000000000000e+00  -1.0297939115302848e-07 -5.3750681464568725e-06 0.0000000000000000e+00  7.7170441748873059e-07 9.6818722646052243e-07 0.0000000000000000e+00  -1.2562583331070498e-06 -6.3638139237311061e-07 0.0000000000000000e+00  8.0361523864968446e-07 -8.4898313526632364e-07 0.0000000000000000e+00  -3.9101396868879516e-06 2.5783883939962698e-07 0.0000000000000000e+00  1.9543489454005069e-06 2.2282755357257689e-07 0.0000000000000000e+00  -8.2302523270109697e-08 1.8027639964580535e-08 0.0000000000000000e+00  7.0330348608287206e-07 4.0483129992238146e-07 0.0000000000000000e+00  4.4734322618317594e-07 -3.7746782255107386e-07 0.0000000000000000e+00  9.8147028256897578e-07 -5.6548549597275914e-07 0.0000000000000000e+00  -5.5399649927687025e-08 -2.5749157152555681e-06 0.0000000000000000e+00  4.5484376876563619e-09 3.1725513032851477e-06 0.0000000000000000e+00  3.3338798109967517e-06 -5.6649848787709571e-06 0.0000000000000000e+00  3.4136493346336982e-06 2.8596438168484405e-06 0.0000000000000000e+00  1.5901189630371464e-07 -2.1240048201491693e-06 0.0000000000000000e+00  -6.1391371392513506e-06 1.5465210093469716e-06 0.0000000000000000e+00  -1.5648899795989059e-06 1.4987037949352050e-06 0.0000000000000000e+00  2.4471855525449092e-06 -1.7714267047224459e-07 0.0000000000000000e+00  6.3474596609870466e-07 -1.7306904048490486e-06 0.0000000000000000e+00  4.0044013606286299e-07 -1.2592184683328680e-07 0.0000000000000000e+00  1.2927948908042083e-06 4.2108750005970069e-07 0.0000000000000000e+00  -1.7423125420262339e-06 4.9273812913248431e-07 0.0000000000000000e+00  7.2747616585217757e-07 -3.8111073710874455e-08 0.0000000000000000e+00  1.5575441657772757e-06 4.1671863117987365e-06 0.0000000000000000e+00  -7.6880765200490912e-06 4.1295032799005525e-06 0.0000000000000000e+00  9.1611788611927387e-07 1.6668432069368603e-06 0.0000000000000000e+00  -2.0811054882815117e-06 9.3431958335031481e-07 0.0000000000000000e+00  -1.2670104363546443e-06 -8.1155339110474854e-07 0.0000000000000000e+00  -8.2899012141679810e-07 2.9495349814917929e-06 0.0000000000000000e+00  -5.0863919009298753e-06 -2.3325213884777882e-06 0.0000000000000000e+00  -6.5874786584827325e-07 -9.6947157078668142e-07 0.0000000000000000e+00  2.5840325454222092e-07 -2.5771034226624317e-07 0.0000000000000000e+00  -7.3707957790276621e-08 1.9187272302308497e-07 0.0000000000000000e+00  -2.3120074260710705e-07 1.4192613350665478e-08 0.0000000000000000e+00  -2.5319642577494813e-07 1.5855030484636532e-07 0.0000000000000000e+00  2.5125820001407289e-07 1.2397138835858965e-07 0.0000000000000000e+00  -1.3436604295347790e-05 3.8582951224017205e-06 0.0000000000000000e+00  8.7874032489852584e-06 2.9706301587005703e-06 0.0000000000000000e+00  -4.2888761497499413e-06 -7.5771313498376173e-06 0.0000000000000000e+00  -6.0114035092636209e-06 3.4806664026175441e-06 0.0000000000000000e+00  -1.4966149374845451e-06 4.5190496638421427e-06 0.0000000000000000e+00  3.9796480152954123e-06 -3.7883295116761214e-06 0.0000000000000000e+00  -4.2232060322018263e-06 2.0123496453820713e-06 0.0000000000000000e+00  3.0863556021465836e-06 2.7652045346081158e-06 0.0000000000000000e+00  -2.1806478419203328e-06 -1.0101287046788940e-06 0.0000000000000000e+00  5.8223271931481007e-07 -1.6142856807558908e-06 0.0000000000000000e+00  1.4969488409671734e-07 -8.7343273792985290e-07 0.0000000000000000e+00  -4.0070003434714994e-07 -7.1705775537494014e-07 0.0000000000000000e+00  1.4807938188909588e-07 8.7506842107210527e-07 0.0000000000000000e+00  -1.0626569453086031e-06 2.1375617985360522e-06 0.0000000000000000e+00  1.7218176618392730e-07 -4.9231307028754102e-07 0.0000000000000000e+00  -3.3175562093344364e-07 -2.7618076083009796e-06 0.0000000000000000e+00  -1.1126926908945466e-07 1.3205990566889144e-06 0.0000000000000000e+00  -2.4085369466380850e-06 7.4302063822093957e-08 0.0000000000000000e+00  -3.2850746349153184e-06 -1.0180761583048662e-06 0.0000000000000000e+00  1.2603618772021524e-05 -1.0332826223480849e-05 0.0000000000000000e+00  -2.2042065409775242e-05 3.7993405850438559e-06 0.0000000000000000e+00  4.0033810010547510e-06 2.7026110175762998e-06 0.0000000000000000e+00  -2.2631633835810973e-06 -1.6549587623124183e-06 0.0000000000000000e+00  4.5211527429072755e-06 6.4794355618478748e-06 0.0000000000000000e+00  2.4835176852448943e-06 2.2861013906346900e-06 0.0000000000000000e+00  -6.9031441835928478e-07 -6.5492252371049694e-08 0.0000000000000000e+00  -2.1259828426475744e-07 -1.3104751756771498e-07 0.0000000000000000e+00  1.8038469536634214e-06 -1.6661478838363885e-06 0.0000000000000000e+00  -4.5378594310590632e-07 1.5200960983208416e-06 0.0000000000000000e+00  -1.4086889468463190e-06 4.8119838671252665e-08 0.0000000000000000e+00  -6.4019943593302002e-07 -8.3717811388227306e-08 0.0000000000000000e+00  -1.9321045401023401e-07 1.3459600197222307e-06 0.0000000000000000e+00  -1.0622663203838984e-07 -1.2538014635224977e-07 0.0000000000000000e+00  2.1336189575543540e-07 -3.0632159918943165e-07 0.0000000000000000e+00  2.1952540157488171e-07 -8.8851071078531146e-09 0.0000000000000000e+00  6.0471311912128692e-07 1.7221184400146613e-07 0.0000000000000000e+00  -1.5893388730621356e-06 -5.8618341034797136e-07 0.0000000000000000e+00  -4.0854104579955485e-07 -5.5463169168630901e-07 0.0000000000000000e+00  -6.3919534141896377e-07 9.5531884921022729e-07 0.0000000000000000e+00  1.5113605965865829e-06 1.2386500224868536e-06 0.0000000000000000e+00  -5.9266121746409315e-07 -3.1311689600660871e-07 0.0000000000000000e+00  -4.5865407373617523e-07 -7.1869605218491412e-08 0.0000000000000000e+00  3.6187660779815717e-07 1.3162637072235744e-07 0.0000000000000000e+00  4.6469959400189776e-07 8.9478643857780440e-07 0.0000000000000000e+00  -3.3852411329823393e-07 6.4139789334626023e-08 0.0000000000000000e+00  2.9470458348047994e-08 -4.7887937631635836e-07 0.0000000000000000e+00  -3.7975233309478017e-07 -1.4414945451602685e-06 0.0000000000000000e+00  -4.2262077748074643e-07 1.9300313445729584e-06 0.0000000000000000e+00  3.8691888802447138e-07 9.7914913697849259e-08 0.0000000000000000e+00  2.9461557492040322e-07 -2.6333014331149519e-08 0.0000000000000000e+00  -1.2086124869498517e-07 1.8083169900816432e-07 0.0000000000000000e+00  -4.0384232161503486e-07 -1.1255642358577084e-07 0.0000000000000000e+00  4.1543267957404660e-07 -1.4395033132308163e-06 0.0000000000000000e+00  -1.1207375792089677e-07 -2.7409178844888661e-07 0.0000000000000000e+00  2.8724883084233199e-07 7.3449565923434611e-07 0.0000000000000000e+00  1.2123136765566035e-07 5.3601182336701016e-09 0.0000000000000000e+00  9.7017006468062462e-08 3.4258182801104044e-07 0.0000000000000000e+00  -3.4554515303680084e-07 -1.0549591712106155e-07 0.0000000000000000e+00  -4.1972491044587518e-06 -2.4195073272112668e-06 0.0000000000000000e+00  1.9215577501845827e-06 -9.7754136624968168e-07 0.0000000000000000e+00  8.4023424272157688e-06 1.2743283950340734e-06 0.0000000000000000e+00  1.1443625540241170e-07 -1.7792041770681035e-08 0.0000000000000000e+00  2.1916172099570489e-07 -4.5594940490728088e-08 0.0000000000000000e+00  -1.2603912106827678e-07 -5.9758139156953372e-09 0.0000000000000000e+00  1.9132119557959649e-06 -1.8310636109307186e-06 0.0000000000000000e+00  -5.0593233376514694e-06 -9.7041464350301569e-06 0.0000000000000000e+00  -2.6513131815117521e-06 1.4669433663493649e-06 0.0000000000000000e+00  -4.4235009031818187e-06 1.8081140597855661e-06 0.0000000000000000e+00  -9.4618246486581512e-07 1.3218359561238559e-06 0.0000000000000000e+00  8.8833300619585802e-06 3.9640771618634556e-06 0.0000000000000000e+00  7.4725569721486784e-06 -4.1308921497597681e-06 0.0000000000000000e+00  -1.4297288628688233e-05 -4.5934608947733317e-06 0.0000000000000000e+00  5.8890496243702215e-06 -1.8481031774903024e-06 0.0000000000000000e+00  3.4051196341341379e-06 1.9709387067451265e-06 0.0000000000000000e+00  3.5772479803465788e-07 -3.0688068521137157e-07 0.0000000000000000e+00  -4.1973102984554906e-06 -1.3374022386024369e-06 0.0000000000000000e+00  -2.1353390651035539e-06 1.6602015048228281e-06 0.0000000000000000e+00  -2.0451008296287170e-06 -2.3539747214601061e-06 0.0000000000000000e+00  2.6737781629752648e-07 -5.8240762508042001e-07 0.0000000000000000e+00  4.8324376881571627e-07 -1.2003649694974911e-06 0.0000000000000000e+00  9.2782625324582980e-07 3.8441963919563328e-07 0.0000000000000000e+00  1.0445739750483714e-06 4.3348181418654879e-07 0.0000000000000000e+00  8.2801102164552306e-06 -6.9573657192150362e-07 0.0000000000000000e+00  -3.6167117821110187e-06 -1.0092003353758580e-06 0.0000000000000000e+00  8.7612952429353622e-07 -1.6379716205054347e-06 0.0000000000000000e+00  1.6692135156332719e-06 3.2675100492815186e-06 0.0000000000000000e+00  1.2678223352203537e-06 -2.1971388337334723e-06 0.0000000000000000e+00  -5.3515181831668275e-07 -5.4773274395801137e-08 0.0000000000000000e+00  1.1817979167202734e-07 -2.6258732063760256e-09 0.0000000000000000e+00  5.4066850427949555e-08 -1.5383706813927086e-07 0.0000000000000000e+00  2.4031047443768827e-07 -1.9811452739256256e-07 0.0000000000000000e+00  1.3976116859466885e-07 3.1519315223053543e-07 0.0000000000000000e+00  -4.8415742395179503e-07 -5.0557320818735393e-07 0.0000000000000000e+00  -4.2917758642388911e-06 1.2130020888179895e-06 0.0000000000000000e+00  -2.2413882079306482e-06 -2.2823687668025145e-06 0.0000000000000000e+00  3.7137162882010796e-06 -3.0988485587940668e-06 0.0000000000000000e+00  -3.5289005757727156e-07 -8.3136502902696940e-07 0.0000000000000000e+00  -8.8539319977836592e-07 -1.4184517712722810e-06 0.0000000000000000e+00  1.0639783971324539e-06 -3.1434608154721561e-07 0.0000000000000000e+00  -8.8931831625160198e-07 4.1800739865831113e-06 0.0000000000000000e+00  9.1493664641748059e-07 3.4591278836655569e-07 0.0000000000000000e+00  -4.3695773553243888e-06 1.7733680326701016e-06 0.0000000000000000e+00  5.1548804291213608e-06 3.6110081393620433e-06 0.0000000000000000e+00  5.1146447569403676e-07 -7.4376636904073578e-07 0.0000000000000000e+00  5.9443204968453954e-06 -1.4100890659933597e-06 0.0000000000000000e+00  -1.9690767867756918e-06 -5.2020321623039606e-07 0.0000000000000000e+00  -2.9928854086625070e-06 2.9305235937214223e-06 0.0000000000000000e+00  9.9289421673383466e-07 3.1189140395506164e-06 0.0000000000000000e+00  -5.3355895710325432e-07 2.6242503734426643e-07 0.0000000000000000e+00  -4.1057834686311688e-07 4.6123161151360984e-07 0.0000000000000000e+00  2.2009928997416469e-07 4.9008660388286940e-07 0.0000000000000000e+00  2.0976963759831478e-07 3.9356127192526231e-07 0.0000000000000000e+00  -5.7279761423951986e-06 -3.7758792402932176e-07 0.0000000000000000e+00  2.6773476720673352e-06 -1.5848707807606597e-06 0.0000000000000000e+00  4.8567120364849582e-06 2.7282170114626036e-06 0.0000000000000000e+00  1.7172892975382255e-07 -4.3401127545574532e-06 0.0000000000000000e+00  -3.6282905254347624e-06 -1.3323633099216251e-07 0.0000000000000000e+00  1.6980259415146810e-06 -4.1367309396633126e-06 0.0000000000000000e+00  -3.3676172587375759e-07 -8.1498538876525167e-07 0.0000000000000000e+00  1.7500780688131792e-06 -6.1589232595964990e-07 0.0000000000000000e+00  -4.9266141507233022e-07 2.0772324775099712e-06 0.0000000000000000e+00  -1.9243457393921367e-07 1.0732314577679506e-06 0.0000000000000000e+00  1.1837542954905736e-06 2.6586681551669944e-07 0.0000000000000000e+00  -3.9507906025306771e-06 2.7553925745273926e-06 0.0000000000000000e+00  3.8062504915325135e-06 -1.0474287500081783e-06 0.0000000000000000e+00  -1.9249089636995391e-07 -6.4615076488863494e-07 0.0000000000000000e+00  1.0771569921866923e-06 5.3084861490562806e-07 0.0000000000000000e+00  3.2412923050514905e-07 -7.6746972605893503e-08 0.0000000000000000e+00  -5.6355114795831446e-07 -2.4278746870506667e-09 0.0000000000000000e+00  -3.6770470269666397e-06 -1.1727231986252605e-06 0.0000000000000000e+00  1.2794282399361817e-06 -1.5221189565126370e-06 0.0000000000000000e+00  -2.8939609582363854e-07 2.8383178787760024e-07 0.0000000000000000e+00  1.3603213962213316e-06 -3.0524177860997535e-06 0.0000000000000000e+00  1.5455785637682567e-06 7.0510110963675017e-07 0.0000000000000000e+00  -4.0095633264877477e-07 2.7284041085869105e-06 0.0000000000000000e+00  -1.0660147943772309e-06 1.5953805510108874e-06 0.0000000000000000e+00  -5.3717950084353214e-07 -7.2778040108544431e-08 0.0000000000000000e+00  -3.3470343611853166e-08 -1.6595081689822817e-07 0.0000000000000000e+00  1.7153876680808538e-07 -1.4406008817012703e-07 0.0000000000000000e+00  -5.6173703718052251e-09 6.0727499291220008e-08 0.0000000000000000e+00  -1.9212091570612699e-07 -5.5136447198471011e-07 0.0000000000000000e+00  2.0462331245495476e-06 3.1353453277956850e-06 0.0000000000000000e+00  8.0060535369738472e-07 2.1041155290804658e-06 0.0000000000000000e+00  -1.9755408973719499e-06 7.0990231870962175e-06 0.0000000000000000e+00  1.5615695419102119e-08 -2.8089983079138554e-06 0.0000000000000000e+00  -1.1723974163817319e-07 -3.4656579755289627e-07 0.0000000000000000e+00  -2.0067820043949863e-08 -1.1413189741737881e-07 0.0000000000000000e+00  1.9027196841150153e-06 2.5686775608948086e-06 0.0000000000000000e+00  -6.2022940769463476e-06 -2.4193502985117248e-07 0.0000000000000000e+00  4.5236374864837092e-06 1.5064377048091393e-06 0.0000000000000000e+00  -8.3487098822745931e-06 2.7080157871487063e-06 0.0000000000000000e+00  6.8682661926845298e-06 -5.5227783706111207e-06 0.0000000000000000e+00  1.1760042317986467e-06 2.7831676381164733e-07 0.0000000000000000e+00  -2.4660368934963555e-06 -4.9111697978255125e-06 0.0000000000000000e+00  -1.1179430939504769e-06 -2.3749094053343002e-06 0.0000000000000000e+00  1.4562946513748429e-06 8.2244895072039985e-06 0.0000000000000000e+00  5.1570247258367920e-06 -5.0560699528584563e-08 0.0000000000000000e+00  5.3337228132498238e-06 3.3466823666950713e-06 0.0000000000000000e+00  2.2882879316395697e-06 1.3464861895044273e-06 0.0000000000000000e+00  -2.8798000792897072e-06 7.9368099126938635e-06 0.0000000000000000e+00  1.3724835223509947e-06 2.8172141822734604e-07 0.0000000000000000e+00  -2.8030080292411138e-06 -2.7699585026449529e-07 0.0000000000000000e+00  1.2984740790720038e-07 6.8323789722134378e-08 0.0000000000000000e+00  2.3442501419782684e-06 4.5744738644975226e-06 0.0000000000000000e+00  9.1940003576104678e-07 -1.6801466218516745e-06 0.0000000000000000e+00  -4.2957918193486821e-07 2.2246268081538370e-07 0.0000000000000000e+00  1.7435120371134882e-07 -2.6349216213259829e-07 0.0000000000000000e+00  -3.6655614758159706e-08 -6.7586960995086930e-08 0.0000000000000000e+00  -8.2046970982690579e-07 1.6910390052950454e-08 0.0000000000000000e+00  9.4486626025348017e-07 3.6502182729649952e-07 0.0000000000000000e+00  -6.7912386726637212e-07 -1.7388415391146734e-06 0.0000000000000000e+00  1.8701757965884482e-06 1.7861481269269150e-06 0.0000000000000000e+00  -5.2788066136588404e-07 -3.4909987261379558e-07 0.0000000000000000e+00  7.1023277584789373e-07 -7.2804284586773956e-07 0.0000000000000000e+00  -1.3567066191484146e-06 2.4654259320874047e-06 0.0000000000000000e+00  2.1696514310223348e-06 -2.6034417304503051e-06 0.0000000000000000e+00  2.4508949187419455e-06 5.2954904706707009e-07 0.0000000000000000e+00  -1.5336045859556664e-07 1.2196742675673689e-08 0.0000000000000000e+00  5.2698168579787799e-08 6.8285959954483016e-07 0.0000000000000000e+00  -1.7239145023497368e-07 -2.2982994833139787e-07 0.0000000000000000e+00  -8.4346328549335748e-07 1.7589335774675316e-07 0.0000000000000000e+00  -1.0911692181138545e-07 2.4565000841490544e-07 0.0000000000000000e+00  -2.9042881526778632e-07 4.7039164528144179e-07 0.0000000000000000e+00  -1.2424260609162784e-06 -1.2944270410908511e-06 0.0000000000000000e+00  4.2179366122914715e-07 -5.1393125889311806e-07 0.0000000000000000e+00  -4.7989345890315252e-07 -1.0297218641886466e-07 0.0000000000000000e+00  -1.5583337862683068e-07 4.7648311386635350e-08 0.0000000000000000e+00  1.1230044342162044e-07 9.0339606160049480e-07 0.0000000000000000e+00  -1.2400685711950983e-07 -5.3801170080905343e-07 0.0000000000000000e+00  5.8682303464359835e-07 -1.6091357198885552e-07 0.0000000000000000e+00  2.2458280520304604e-06 -3.0256368754144980e-06 0.0000000000000000e+00  -2.0698748654542761e-06 -1.8204148810831910e-06 0.0000000000000000e+00  -3.9651854282177288e-06 -3.4865188424006224e-06 0.0000000000000000e+00  6.8827415314232168e-06 -1.5870701632626117e-06 0.0000000000000000e+00  7.3325992506175966e-06 -3.9571431266670634e-08 0.0000000000000000e+00  -1.1153152076113394e-06 2.2042569379914594e-06 0.0000000000000000e+00  -6.9570400562097371e-07 -4.7965152449839062e-06 0.0000000000000000e+00  3.9108603120568828e-07 4.6632741773418105e-06 0.0000000000000000e+00  -1.7735459043293020e-06 -6.5024985060329459e-07 0.0000000000000000e+00  5.0274074864001193e-07 1.9033346418487000e-07 0.0000000000000000e+00  -5.3096162313450293e-08 -4.5516318319914105e-08 0.0000000000000000e+00  1.5728199023994381e-06 6.4061274259881292e-07 0.0000000000000000e+00  5.4161498478234734e-07 -6.8009853962497686e-07 0.0000000000000000e+00  1.1923798292107704e-06 2.5655231726975617e-06 0.0000000000000000e+00  1.1874326276077639e-06 2.1906555661578124e-06 0.0000000000000000e+00  -5.8142746026938732e-07 -1.4672349498795755e-06 0.0000000000000000e+00  4.6314492548704216e-06 1.7336184891148984e-06 0.0000000000000000e+00  -1.0076292279467899e-05 3.7931435861047107e-06 0.0000000000000000e+00  2.5780674339032851e-06 1.1321415062276616e-06 0.0000000000000000e+00  -6.1141571134467233e-07 -4.6584496307076118e-07 0.0000000000000000e+00  -4.13307856813