<?xml version="1.0"?>
<VTKFile type="UnstructuredGrid"  version="0.1"  >
<UnstructuredGrid>
<Piece  NumberOfPoints="1091" NumberOfCells="2050">
<Points>
<DataArray  type="Float64"  NumberOfComponents="3"  format="ascii">-0.5 -1 0  -0.4 -1 0  -0.3 -1 0  -0.2 -1 0  -0.09999999999999998 -1 0  0 -1 0  0.09999999999999998 -1 0  0.2 -1 0  0.3 -1 0  0.4 -1 0  0.5 -1 0  -0.5 -0.98 0  -0.4 -0.98 0  -0.3 -0.98 0  -0.2 -0.98 0  -0.09999999999999998 -0.98 0  0 -0.98 0  0.09999999999999998 -0.98 0  0.2 -0.98 0  0.3 -0.98 0  0.4 -0.98 0  0.5 -0.98 0  -0.5 -0.96 0  -0.4 -0.96 0  -0.3 -0.96 0  -0.2 -0.96 0  -0.09999999999999998 -0.96 0  0 -0.96 0  0.09999999999999998 -0.96 0  0.2 -0.96 0  0.3 -0.96 0  0.4 -0.96 0  0.5 -0.96 0  -0.5 -0.9399999999999999 0  -0.4 -0.9399999999999999 0  -0.3 -0.9399999999999999 0  -0.2 -0.9399999999999999 0  -0.09999999999999998 -0.9399999999999999 0  0 -0.9399999999999999 0  0.09999999999999998 -0.9399999999999999 0  0.2 -0.9399999999999999 0  0.3 -0.9399999999999999 0  0.4 -0.9399999999999999 0  0.5 -0.9399999999999999 0  -0.5 -0.92 0  -0.4 -0.92 0  -0.3 -0.92 0  -0.2 -0.92 0  -0.09999999999999998 -0.92 0  0 -0.92 0  0.09999999999999998 -0.92 0  0.2 -0.92 0  0.3 -0.92 0  0.4 -0.92 0  0.5 -0.92 0  -0.5 -0.9 0  -0.4 -0.9 0  -0.3 -0.9 0  -0.2 -0.9 0  -0.09999999999999998 -0.9 0  0 -0.9 0  0.09999999999999998 -0.9 0  0.2 -0.9 0  0.3 -0.9 0  0.4 -0.9 0  0.5 -0.9 0  -0.5 -0.88 0  -0.4 -0.88 0  -0.3 -0.88 0  -0.2 -0.88 0  -0.09999999999999998 -0.88 0  0 -0.88 0  0.09999999999999998 -0.88 0  0.2 -0.88 0  0.3 -0.88 0  0.4 -0.88 0  0.5 -0.88 0  -0.5 -0.86 0  -0.4 -0.86 0  -0.3 -0.86 0  -0.2 -0.86 0  -0.09999999999999998 -0.86 0  0 -0.86 0  0.09999999999999998 -0.86 0  0.2 -0.86 0  0.3 -0.86 0  0.4 -0.86 0  0.5 -0.86 0  -0.5 -0.84 0  -0.4 -0.84 0  -0.3 -0.84 0  -0.2 -0.84 0  -0.09999999999999998 -0.84 0  0 -0.84 0  0.09999999999999998 -0.84 0  0.2 -0.84 0  0.3 -0.84 0  0.4 -0.84 0  0.5 -0.84 0  -0.5 -0.8200000000000001 0  -0.4 -0.8200000000000001 0  -0.3 -0.8200000000000001 0  -0.2 -0.8200000000000001 0  -0.09999999999999998 -0.8200000000000001 0  0 -0.8200000000000001 0  0.09999999999999998 -0.8200000000000001 0  0.2 -0.8200000000000001 0  0.3 -0.8200000000000001 0  0.4 -0.8200000000000001 0  0.5 -0.8200000000000001 0  -0.5 -0.8 0  -0.4 -0.8 0  -0.3 -0.8 0  -0.2 -0.8 0  -0.09999999999999998 -0.8 0  0 -0.8 0  0.09999999999999998 -0.8 0  0.2 -0.8 0  0.3 -0.8 0  0.4 -0.8 0  0.5 -0.8 0  -0.5 -0.78 0  -0.4 -0.78 0  -0.3 -0.78 0  -0.2 -0.78 0  -0.09999999999999998 -0.78 0  0 -0.78 0  0.09999999999999998 -0.78 0  0.2 -0.78 0  0.3 -0.78 0  0.4 -0.78 0  0.5 -0.78 0  -0.5 -0.76 0  -0.4 -0.76 0  -0.3 -0.76 0  -0.2 -0.76 0  -0.09999999999999998 -0.76 0  0 -0.76 0  0.09999999999999998 -0.76 0  0.2 -0.76 0  0.3 -0.76 0  0.4 -0.76 0  0.5 -0.76 0  -0.5 -0.74 0  -0.4 -0.74 0  -0.3 -0.74 0  -0.2 -0.74 0  -0.09999999999999998 -0.74 0  0 -0.74 0  0.09999999999999998 -0.74 0  0.2 -0.74 0  0.3 -0.74 0  0.4 -0.74 0  0.5 -0.74 0  -0.5 -0.72 0  -0.4 -0.72 0  -0.3 -0.72 0  -0.2 -0.72 0  -0.09999999999999998 -0.72 0  0 -0.72 0  0.09999999999999998 -0.72 0  0.2 -0.72 0  0.3 -0.72 0  0.4 -0.72 0  0.5 -0.72 0  -0.5 -0.7 0  -0.4 -0.7 0  -0.3 -0.7 0  -0.2 -0.7 0  -0.09999999999999998 -0.7 0  0 -0.7 0  0.09999999999999998 -0.7 0  0.2 -0.7 0  0.3 -0.7 0  0.4 -0.7 0  0.5 -0.7 0  -0.5 -0.6799999999999999 0  -0.4 -0.6799999999999999 0  -0.3 -0.6799999999999999 0  -0.2 -0.6799999999999999 0  -0.09999999999999998 -0.6799999999999999 0  0 -0.6799999999999999 0  0.09999999999999998 -0.6799999999999999 0  0.2 -0.6799999999999999 0  0.3 -0.6799999999999999 0  0.4 -0.6799999999999999 0  0.5 -0.6799999999999999 0  -0.5 -0.6599999999999999 0  -0.4 -0.6599999999999999 0  -0.3 -0.6599999999999999 0  -0.2 -0.6599999999999999 0  -0.09999999999999998 -0.6599999999999999 0  0 -0.6599999999999999 0  0.09999999999999998 -0.6599999999999999 0  0.2 -0.6599999999999999 0  0.3 -0.6599999999999999 0  0.4 -0.6599999999999999 0  0.5 -0.6599999999999999 0  -0.5 -0.64 0  -0.4 -0.64 0  -0.3 -0.64 0  -0.2 -0.64 0  -0.09999999999999998 -0.64 0  0 -0.64 0  0.09999999999999998 -0.64 0  0.2 -0.64 0  0.3 -0.64 0  0.4 -0.64 0  0.5 -0.64 0  -0.5 -0.62 0  -0.4 -0.62 0  -0.3 -0.62 0  -0.2 -0.62 0  -0.09999999999999998 -0.62 0  0 -0.62 0  0.09999999999999998 -0.62 0  0.2 -0.62 0  0.3 -0.62 0  0.4 -0.62 0  0.5 -0.62 0  -0.5 -0.6 0  -0.4 -0.6 0  -0.3 -0.6 0  -0.2 -0.6 0  -0.09999999999999998 -0.6 0  0 -0.6 0  0.09999999999999998 -0.6 0  0.2 -0.6 0  0.3 -0.6 0  0.4 -0.6 0  0.5 -0.6 0  -0.5 -0.5800000000000001 0  -0.4 -0.5800000000000001 0  -0.3 -0.5800000000000001 0  -0.2 -0.5800000000000001 0  -0.09999999999999998 -0.5800000000000001 0  0 -0.5800000000000001 0  0.09999999999999998 -0.5800000000000001 0  0.2 -0.5800000000000001 0  0.3 -0.5800000000000001 0  0.4 -0.5800000000000001 0  0.5 -0.5800000000000001 0  -0.5 -0.5600000000000001 0  -0.4 -0.5600000000000001 0  -0.3 -0.5600000000000001 0  -0.2 -0.5600000000000001 0  -0.09999999999999998 -0.5600000000000001 0  0 -0.5600000000000001 0  0.09999999999999998 -0.5600000000000001 0  0.2 -0.5600000000000001 0  0.3 -0.5600000000000001 0  0.4 -0.5600000000000001 0  0.5 -0.5600000000000001 0  -0.5 -0.54 0  -0.4 -0.54 0  -0.3 -0.54 0  -0.2 -0.54 0  -0.09999999999999998 -0.54 0  0 -0.54 0  0.09999999999999998 -0.54 0  0.2 -0.54 0  0.3 -0.54 0  0.4 -0.54 0  0.5 -0.54 0  -0.5 -0.52 0  -0.4 -0.52 0  -0.3 -0.52 0  -0.2 -0.52 0  -0.09999999999999998 -0.52 0  0 -0.52 0  0.09999999999999998 -0.52 0  0.2 -0.52 0  0.3 -0.52 0  0.4 -0.52 0  0.5 -0.52 0  -0.5 -0.5 0  -0.4 -0.5 0  -0.3 -0.5 0  -0.2 -0.5 0  -0.09999999999999998 -0.5 0  0 -0.5 0  0.09999999999999998 -0.5 0  0.2 -0.5 0  0.3 -0.5 0  0.4 -0.5 0  0.5 -0.5 0  -0.5 -0.48 0  -0.4 -0.48 0  -0.3 -0.48 0  -0.2 -0.48 0  -0.09999999999999998 -0.48 0  0 -0.48 0  0.09999999999999998 -0.48 0  0.2 -0.48 0  0.3 -0.48 0  0.4 -0.48 0  0.5 -0.48 0  -0.5 -0.46 0  -0.4 -0.46 0  -0.3 -0.46 0  -0.2 -0.46 0  -0.09999999999999998 -0.46 0  0 -0.46 0  0.09999999999999998 -0.46 0  0.2 -0.46 0  0.3 -0.46 0  0.4 -0.46 0  0.5 -0.46 0  -0.5 -0.4399999999999999 0  -0.4 -0.4399999999999999 0  -0.3 -0.4399999999999999 0  -0.2 -0.4399999999999999 0  -0.09999999999999998 -0.4399999999999999 0  0 -0.4399999999999999 0  0.09999999999999998 -0.4399999999999999 0  0.2 -0.4399999999999999 0  0.3 -0.4399999999999999 0  0.4 -0.4399999999999999 0  0.5 -0.4399999999999999 0  -0.5 -0.42 0  -0.4 -0.42 0  -0.3 -0.42 0  -0.2 -0.42 0  -0.09999999999999998 -0.42 0  0 -0.42 0  0.09999999999999998 -0.42 0  0.2 -0.42 0  0.3 -0.42 0  0.4 -0.42 0  0.5 -0.42 0  -0.5 -0.4 0  -0.4 -0.4 0  -0.3 -0.4 0  -0.2 -0.4 0  -0.09999999999999998 -0.4 0  0 -0.4 0  0.09999999999999998 -0.4 0  0.2 -0.4 0  0.3 -0.4 0  0.4 -0.4 0  0.5 -0.4 0  -0.5 -0.38 0  -0.4 -0.38 0  -0.3 -0.38 0  -0.2 -0.38 0  -0.09999999999999998 -0.38 0  0 -0.38 0  0.09999999999999998 -0.38 0  0.2 -0.38 0  0.3 -0.38 0  0.4 -0.38 0  0.5 -0.38 0  -0.5 -0.36 0  -0.4 -0.36 0  -0.3 -0.36 0  -0.2 -0.36 0  -0.09999999999999998 -0.36 0  0 -0.36 0  0.09999999999999998 -0.36 0  0.2 -0.36 0  0.3 -0.36 0  0.4 -0.36 0  0.5 -0.36 0  -0.5 -0.34 0  -0.4 -0.34 0  -0.3 -0.34 0  -0.2 -0.34 0  -0.09999999999999998 -0.34 0  0 -0.34 0  0.09999999999999998 -0.34 0  0.2 -0.34 0  0.3 -0.34 0  0.4 -0.34 0  0.5 -0.34 0  -0.5 -0.32 0  -0.4 -0.32 0  -0.3 -0.32 0  -0.2 -0.32 0  -0.09999999999999998 -0.32 0  0 -0.32 0  0.09999999999999998 -0.32 0  0.2 -0.32 0  0.3 -0.32 0  0.4 -0.32 0  0.5 -0.32 0  -0.5 -0.3 0  -0.4 -0.3 0  -0.3 -0.3 0  -0.2 -0.3 0  -0.09999999999999998 -0.3 0  0 -0.3 0  0.09999999999999998 -0.3 0  0.2 -0.3 0  0.3 -0.3 0  0.4 -0.3 0  0.5 -0.3 0  -0.5 -0.28 0  -0.4 -0.28 0  -0.3 -0.28 0  -0.2 -0.28 0  -0.09999999999999998 -0.28 0  0 -0.28 0  0.09999999999999998 -0.28 0  0.2 -0.28 0  0.3 -0.28 0  0.4 -0.28 0  0.5 -0.28 0  -0.5 -0.26 0  -0.4 -0.26 0  -0.3 -0.26 0  -0.2 -0.26 0  -0.09999999999999998 -0.26 0  0 -0.26 0  0.09999999999999998 -0.26 0  0.2 -0.26 0  0.3 -0.26 0  0.4 -0.26 0  0.5 -0.26 0  -0.5 -0.24 0  -0.4 -0.24 0  -0.3 -0.24 0  -0.2 -0.24 0  -0.09999999999999998 -0.24 0  0 -0.24 0  0.09999999999999998 -0.24 0  0.2 -0.24 0  0.3 -0.24 0  0.4 -0.24 0  0.5 -0.24 0  -0.5 -0.22 0  -0.4 -0.22 0  -0.3 -0.22 0  -0.2 -0.22 0  -0.09999999999999998 -0.22 0  0 -0.22 0  0.09999999999999998 -0.22 0  0.2 -0.22 0  0.3 -0.22 0  0.4 -0.22 0  0.5 -0.22 0  -0.5 -0.2 0  -0.4 -0.2 0  -0.3 -0.2 0  -0.2 -0.2 0  -0.09999999999999998 -0.2 0  0 -0.2 0  0.09999999999999998 -0.2 0  0.2 -0.2 0  0.3 -0.2 0  0.4 -0.2 0  0.5 -0.2 0  -0.5 -0.18 0  -0.4 -0.18 0  -0.3 -0.18 0  -0.2 -0.18 0  -0.09999999999999998 -0.18 0  0 -0.18 0  0.09999999999999998 -0.18 0  0.2 -0.18 0  0.3 -0.18 0  0.4 -0.18 0  0.5 -0.18 0  -0.5 -0.16 0  -0.4 -0.16 0  -0.3 -0.16 0  -0.2 -0.16 0  -0.09999999999999998 -0.16 0  0 -0.16 0  0.09999999999999998 -0.16 0  0.2 -0.16 0  0.3 -0.16 0  0.4 -0.16 0  0.5 -0.16 0  -0.5 -0.14 0  -0.4 -0.14 0  -0.3 -0.14 0  -0.2 -0.14 0  -0.09999999999999998 -0.14 0  0 -0.14 0  0.09999999999999998 -0.14 0  0.2 -0.14 0  0.3 -0.14 0  0.4 -0.14 0  0.5 -0.14 0  -0.5 -0.12 0  -0.4 -0.12 0  -0.3 -0.12 0  -0.2 -0.12 0  -0.09999999999999998 -0.12 0  0 -0.12 0  0.09999999999999998 -0.12 0  0.2 -0.12 0  0.3 -0.12 0  0.4 -0.12 0  0.5 -0.12 0  -0.5 -0.09999999999999998 0  -0.4 -0.09999999999999998 0  -0.3 -0.09999999999999998 0  -0.2 -0.09999999999999998 0  -0.09999999999999998 -0.09999999999999998 0  0 -0.09999999999999998 0  0.09999999999999998 -0.09999999999999998 0  0.2 -0.09999999999999998 0  0.3 -0.09999999999999998 0  0.4 -0.09999999999999998 0  0.5 -0.09999999999999998 0  -0.5 -0.07999999999999996 0  -0.4 -0.07999999999999996 0  -0.3 -0.07999999999999996 0  -0.2 -0.07999999999999996 0  -0.09999999999999998 -0.07999999999999996 0  0 -0.07999999999999996 0  0.09999999999999998 -0.07999999999999996 0  0.2 -0.07999999999999996 0  0.3 -0.07999999999999996 0  0.4 -0.07999999999999996 0  0.5 -0.07999999999999996 0  -0.5 -0.06000000000000005 0  -0.4 -0.06000000000000005 0  -0.3 -0.06000000000000005 0  -0.2 -0.06000000000000005 0  -0.09999999
[...]
<PointData  Vectors="flow"> 
<DataArray  type="Float64"  Name="flow"  NumberOfComponents="3" format="ascii">-2.9054768901438936e-15 -1.6416175825503420e-15 0.0000000000000000e+00  -1.0567557025934716e-15 5.9329356738734779e-15 0.0000000000000000e+00  -3.0131386776941355e-16 -2.0754004478728394e-15 0.0000000000000000e+00  1.7205937264226283e-15 7.6438714566466686e-17 0.0000000000000000e+00  6.4466586915274755e-16 1.3909314659938999e-15 0.0000000000000000e+00  1.7044819251621556e-15 -4.1289242893410243e-15 0.0000000000000000e+00  2.6665151969039945e-15 3.4942697433989290e-15 0.0000000000000000e+00  8.6910437940700513e-16 -3.3785276759765870e-15 0.0000000000000000e+00  1.4830681352059457e-15 -7.3622282662777118e-17 0.0000000000000000e+00  1.8979731387479813e-15 -5.2878925344632730e-16 0.0000000000000000e+00  2.2133141335145028e-15 -6.3402137909074234e-15 0.0000000000000000e+00  -1.3881051264787441e-15 3.0286777792494885e-16 0.0000000000000000e+00  -1.7809332156272317e-15 2.2452896041075426e-15 0.0000000000000000e+00  -6.7302790057769497e-16 -2.7275133127617419e-15 0.0000000000000000e+00  3.2560091351665060e-15 4.8822957318562746e-15 0.0000000000000000e+00  -2.6172888597559924e-16 7.2521708759046471e-15 0.0000000000000000e+00  7.9508122093594182e-16 -3.0854336440127057e-15 0.0000000000000000e+00  3.8981084251333578e-15 -7.1069624139808958e-16 0.0000000000000000e+00  7.7595792506245616e-16 3.6971171451363121e-15 0.0000000000000000e+00  1.5945168390330592e-15 3.6054389870826455e-15 0.0000000000000000e+00  1.5654771660169637e-15 4.5093424986746805e-16 0.0000000000000000e+00  1.0511258605308682e-15 -1.5188376488436209e-15 0.0000000000000000e+00  -1.2803000400110838e-15 -2.7777844466019780e-15 0.0000000000000000e+00  -1.3716889699853887e-15 2.1287950112193280e-15 0.0000000000000000e+00  -3.5236818174580349e-16 -1.8718198392282619e-15 0.0000000000000000e+00  3.3830019299569306e-15 2.4858871649735968e-15 0.0000000000000000e+00  1.2922740503705998e-16 -5.9576599424832449e-15 0.0000000000000000e+00  3.8900687133099615e-16 9.6922170962614328e-15 0.0000000000000000e+00  3.6537296193410767e-15 8.2723369625825645e-15 0.0000000000000000e+00  1.2039820467202912e-15 2.6723205241198994e-15 0.0000000000000000e+00  1.3019381792875444e-15 -1.3071531639458087e-15 0.0000000000000000e+00  2.9783243560596898e-16 8.3530841060594423e-16 0.0000000000000000e+00  1.6378790597933037e-15 -2.9946453885032555e-15 0.0000000000000000e+00  -7.3554679585864835e-16 9.7751005816646658e-15 0.0000000000000000e+00  -1.8832336699242490e-15 -2.4210834764820658e-15 0.0000000000000000e+00  -4.4934524730732167e-16 -2.3998464300652905e-15 0.0000000000000000e+00  2.8208612079016628e-15 -1.8867432649299907e-15 0.0000000000000000e+00  1.7900275255572240e-16 -4.0695012922197758e-15 0.0000000000000000e+00  2.9998597282454434e-15 8.8671892784295593e-16 0.0000000000000000e+00  4.2306639002859125e-15 1.0364111520320356e-14 0.0000000000000000e+00  -1.3357328823046952e-15 1.9135424496461045e-14 0.0000000000000000e+00  9.0155459830210883e-16 -2.3229006390788662e-14 0.0000000000000000e+00  1.4398069616948868e-15 1.2895687802353414e-14 0.0000000000000000e+00  9.3061424934734024e-16 2.6142137077675848e-15 0.0000000000000000e+00  -5.6051422230022940e-15 1.0070294004909961e-14 0.0000000000000000e+00  -2.3260145455259735e-15 -1.5920150205582383e-15 0.0000000000000000e+00  -1.2520969733115542e-15 2.6195150652357741e-15 0.0000000000000000e+00  3.2761801946529524e-15 -7.9561448492779760e-15 0.0000000000000000e+00  1.7271582230128741e-15 1.1010844017033854e-14 0.0000000000000000e+00  3.1920087432953874e-15 1.1826473870941101e-14 0.0000000000000000e+00  5.5827323010035536e-15 5.2475351842435535e-15 0.0000000000000000e+00  -6.2905253708229753e-15 1.4303749938043609e-14 0.0000000000000000e+00  1.2827300023648877e-15 -2.1383162622993069e-14 0.0000000000000000e+00  5.7815277039029472e-15 1.9905259000815078e-14 0.0000000000000000e+00  -6.5912063349319481e-15 -1.0527120100423419e-14 0.0000000000000000e+00  -5.9681306698475117e-15 7.1686378319659276e-16 0.0000000000000000e+00  -4.6854815540730359e-15 -3.0534553493453497e-15 0.0000000000000000e+00  -1.5683109475433943e-15 -1.1985165716224719e-14 0.0000000000000000e+00  5.1833252072565230e-15 -2.7874839581606747e-15 0.0000000000000000e+00  3.2686222309870585e-15 -1.0136261714119429e-14 0.0000000000000000e+00  2.8071450252680975e-15 7.6391513408363529e-16 0.0000000000000000e+00  5.5457004917973881e-15 -2.3643128017591928e-15 0.0000000000000000e+00  -6.1925628231883605e-15 -2.4912706362172390e-15 0.0000000000000000e+00  1.6321773454082646e-15 1.1707560351713919e-14 0.0000000000000000e+00  2.9247442901669236e-15 2.9464833822475212e-16 0.0000000000000000e+00  -1.1862587862311415e-14 -1.3118875690718554e-14 0.0000000000000000e+00  -2.5825049456273905e-15 -1.5009703590368807e-14 0.0000000000000000e+00  -5.0263097320959950e-15 -3.1686169139197816e-15 0.0000000000000000e+00  3.6011574864118275e-16 6.6534269936656034e-15 0.0000000000000000e+00  1.3796940976847242e-15 1.0281343744280316e-14 0.0000000000000000e+00  2.4936298150755085e-15 -2.5413655522695078e-14 0.0000000000000000e+00  4.5848885970016948e-15 -8.2849645238191514e-15 0.0000000000000000e+00  4.4684605024781513e-15 -1.3626062567319277e-14 0.0000000000000000e+00  -3.5186181741989010e-15 -8.6224658202823537e-15 0.0000000000000000e+00  1.6574625598736147e-15 -5.6881293488007197e-16 0.0000000000000000e+00  1.8182314209668513e-15 -1.6101181268132406e-14 0.0000000000000000e+00  -8.9770787256212640e-15 5.0991853497663027e-16 0.0000000000000000e+00  -2.6468273642173807e-15 -2.2302093617073994e-14 0.0000000000000000e+00  -2.1319861099336131e-15 -6.2301770576088304e-15 0.0000000000000000e+00  1.7581078256730570e-15 -2.2961875925687295e-15 0.0000000000000000e+00  3.0326036804313079e-16 2.5999309192888309e-16 0.0000000000000000e+00  4.7313467748185127e-16 5.3162757090459363e-15 0.0000000000000000e+00  4.8073697417177445e-15 -4.7643179147359064e-15 0.0000000000000000e+00  4.6021367272671619e-15 1.7285454218129048e-14 0.0000000000000000e+00  -2.7679058093807619e-15 -9.5958017380790684e-15 0.0000000000000000e+00  2.9212848502658866e-16 1.9131564079638888e-15 0.0000000000000000e+00  7.6189002364638247e-16 -5.7129734151003806e-15 0.0000000000000000e+00  -6.0486352647041895e-15 -2.5367217873316808e-14 0.0000000000000000e+00  -1.0469468342231366e-15 -1.0065576006458836e-14 0.0000000000000000e+00  1.7067938607313350e-15 1.1567313303050632e-14 0.0000000000000000e+00  4.1429443565537772e-16 -9.0204389687114419e-16 0.0000000000000000e+00  2.9282330118443892e-15 1.2224423221452679e-14 0.0000000000000000e+00  -1.2005144672162988e-15 2.9856968627145597e-15 0.0000000000000000e+00  8.1614751020073981e-15 -9.2393603161408028e-15 0.0000000000000000e+00  5.0958509843436117e-15 4.2196889009410660e-14 0.0000000000000000e+00  -7.1765509262425483e-15 1.7254680850183174e-14 0.0000000000000000e+00  2.4361419675605784e-15 -8.4977247264310997e-15 0.0000000000000000e+00  -2.3958363313901025e-15 2.9163540800102633e-14 0.0000000000000000e+00  -7.4540943643680416e-15 4.0789765455540420e-15 0.0000000000000000e+00  -1.6989193300870342e-16 2.5267746319583754e-14 0.0000000000000000e+00  -1.8023086842356065e-15 5.7997330357596607e-15 0.0000000000000000e+00  1.8358585742408544e-15 2.2620126261981241e-15 0.0000000000000000e+00  2.0610687103179796e-15 -1.9492850642312123e-15 0.0000000000000000e+00  -2.9294220299615334e-15 4.0044607028941495e-15 0.0000000000000000e+00  1.1734541002368125e-14 2.1525822251268287e-15 0.0000000000000000e+00  8.8470700247820231e-15 -1.8271955285562080e-14 0.0000000000000000e+00  -1.3615406426646677e-14 5.7733894910230554e-15 0.0000000000000000e+00  3.1380100869580603e-15 -1.6852375110587883e-14 0.0000000000000000e+00  3.6665763998193954e-15 2.3952532278988210e-14 0.0000000000000000e+00  -2.1764158536441716e-14 -9.9443003519253131e-15 0.0000000000000000e+00  -3.4039675673679794e-15 1.4116951077551985e-14 0.0000000000000000e+00  -2.0147202321972507e-15 1.4669954033843611e-14 0.0000000000000000e+00  -1.7074109642243727e-15 3.4252160257392346e-14 0.0000000000000000e+00  2.0852055139310827e-15 -2.2612358350825004e-14 0.0000000000000000e+00  -5.8909943117957607e-16 -7.2738055527912863e-15 0.0000000000000000e+00  4.1963939249977111e-15 1.6944220780622260e-15 0.0000000000000000e+00  8.8988707449117084e-15 -1.9386141349735169e-14 0.0000000000000000e+00  -6.2651007747916017e-15 1.2699929643983638e-14 0.0000000000000000e+00  2.5931092996702212e-15 1.8864697636390297e-14 0.0000000000000000e+00  4.7753803254612255e-16 8.6257003166050957e-15 0.0000000000000000e+00  -3.0885147966117904e-14 -2.4990779663098984e-14 0.0000000000000000e+00  1.9950923943732084e-15 -1.0988771399620177e-14 0.0000000000000000e+00  2.1979445801360808e-15 1.0432188132773696e-14 0.0000000000000000e+00  -4.6227109676150301e-15 -1.1012867240592900e-14 0.0000000000000000e+00  -3.1912812166510088e-15 -3.7073928397730873e-15 0.0000000000000000e+00  9.9251378372067147e-16 -4.4435709728889975e-15 0.0000000000000000e+00  7.4680616603698628e-15 6.5253540180762888e-15 0.0000000000000000e+00  9.2217436254674711e-15 -1.6875768055340096e-15 0.0000000000000000e+00  -6.0739883702175791e-15 -1.8959368155580456e-14 0.0000000000000000e+00  3.3738713542225988e-15 1.0581856352289952e-14 0.0000000000000000e+00  -3.3065587298295327e-15 1.8713311148293873e-15 0.0000000000000000e+00  -3.2491266447475986e-14 -1.7903996957399610e-14 0.0000000000000000e+00  6.2789024100337395e-15 1.1184383560756488e-14 0.0000000000000000e+00  -3.6625725480201534e-15 2.5793939571019690e-14 0.0000000000000000e+00  -4.6151178760913823e-15 -2.8684884147657004e-14 0.0000000000000000e+00  -5.8545863808359456e-16 -3.4705082862473792e-15 0.0000000000000000e+00  3.3045643511115064e-15 -2.0161276708145661e-14 0.0000000000000000e+00  4.9503775654649115e-15 5.1380862059671244e-14 0.0000000000000000e+00  5.1885243358395548e-15 -4.0369838827404195e-14 0.0000000000000000e+00  -3.6161892065175604e-15 -2.6757469138489895e-14 0.0000000000000000e+00  6.9467829273020120e-15 2.4759100400301406e-14 0.0000000000000000e+00  -6.8211364855444916e-15 -5.2435040138513658e-15 0.0000000000000000e+00  -3.3023601489734306e-14 -1.3494884221429666e-14 0.0000000000000000e+00  7.6209564744634662e-15 -9.3993674350717067e-15 0.0000000000000000e+00  -5.7625224438862656e-15 1.6081523576692243e-14 0.0000000000000000e+00  -7.0857076061566170e-15 -3.8429660548477037e-14 0.0000000000000000e+00  -2.1139135976294223e-15 1.1238165312925557e-15 0.0000000000000000e+00  1.3345045934884226e-14 -3.6322322084653049e-15 0.0000000000000000e+00  3.2564590563241317e-15 2.5017007912528108e-14 0.0000000000000000e+00  -7.4058706907292897e-15 -4.7830159435677793e-14 0.0000000000000000e+00  4.4128962713333046e-15 -9.8499986722624836e-17 0.0000000000000000e+00  9.3906250186051734e-15 -8.9023207285118523e-15 0.0000000000000000e+00  -1.1141310750933945e-14 -2.7719298452646085e-15 0.0000000000000000e+00  -3.7041202701353263e-14 6.3961269101598649e-15 0.0000000000000000e+00  1.3272437425817598e-14 1.1652831843403920e-14 0.0000000000000000e+00  -9.5065392356663265e-15 1.2002519655484335e-14 0.0000000000000000e+00  -1.2159143157756618e-14 -5.7113015506330084e-14 0.0000000000000000e+00  7.9544609713665233e-15 -3.0535267795913292e-14 0.0000000000000000e+00  7.0395486556829287e-15 3.0295556941087324e-14 0.0000000000000000e+00  -1.6014116828211932e-15 -2.5900153078070383e-14 0.0000000000000000e+00  8.9342649511744075e-17 -9.4508320471540314e-15 0.0000000000000000e+00  7.0676002865254265e-15 1.8629700715687940e-14 0.0000000000000000e+00  6.6963143559593449e-15 -2.4055971056980898e-15 0.0000000000000000e+00  -6.7693615198751838e-15 1.8720704330697264e-14 0.0000000000000000e+00  -3.1896325916123147e-14 1.6103057480641326e-14 0.0000000000000000e+00  9.7004497944031061e-15 1.0251961141753009e-14 0.0000000000000000e+00  -1.5637198703558999e-14 6.8979521850593772e-15 0.0000000000000000e+00  -1.2458796275578392e-14 -1.6351023194421885e-14 0.0000000000000000e+00  1.5154842620879428e-14 3.0299625001820658e-14 0.0000000000000000e+00  9.9917052834105747e-15 3.7726398919298872e-14 0.0000000000000000e+00  -3.9617651485290101e-15 -1.6054702590430190e-14 0.0000000000000000e+00  4.5698231396218589e-16 -4.9094369276338292e-15 0.0000000000000000e+00  4.0794946142527281e-15 -4.0969166289485143e-14 0.0000000000000000e+00  6.9835376422717840e-15 1.1239601577100311e-15 0.0000000000000000e+00  -1.5337522175815117e-15 5.6237291924461051e-15 0.0000000000000000e+00  -3.5727694513388716e-14 2.4227816715407242e-14 0.0000000000000000e+00  1.0407648728743373e-14 1.4705967375355476e-14 0.0000000000000000e+00  -2.0548549651655080e-14 2.5413859929786616e-14 0.0000000000000000e+00  -1.0184916243580107e-14 -9.7504520569423437e-15 0.0000000000000000e+00  1.8393662123142763e-14 1.6016722585674050e-14 0.0000000000000000e+00  3.5999729895429634e-15 -2.3928463607426785e-14 0.0000000000000000e+00  -1.0347105523693793e-14 9.1101103794739110e-15 0.0000000000000000e+00  -7.6453236813150440e-15 -3.9353633724339259e-14 0.0000000000000000e+00  1.3301051500998093e-14 -6.9680215162599421e-14 0.0000000000000000e+00  1.4311986913567729e-14 -1.1094705758842801e-14 0.0000000000000000e+00  -4.6023564711731253e-15 9.2388676823637466e-15 0.0000000000000000e+00  -3.0529966561255788e-14 1.0207251334336382e-14 0.0000000000000000e+00  1.5902721485792469e-14 1.0342890627394752e-14 0.0000000000000000e+00  -1.5792086027128953e-14 -8.9969811248781252e-15 0.0000000000000000e+00  -1.1847923332247665e-14 4.1734796117032725e-14 0.0000000000000000e+00  1.4209826528124971e-14 1.2434878743631434e-14 0.0000000000000000e+00  2.5852613010236708e-15 1.7177561365811945e-14 0.0000000000000000e+00  -8.9951685307113033e-15 -2.4684965703931384e-14 0.0000000000000000e+00  -1.4597715868410526e-14 -1.9831784752326163e-14 0.0000000000000000e+00  9.4603725069824941e-15 -5.6877042583053672e-15 0.0000000000000000e+00  2.2456809448538747e-14 -7.7668667873467479e-14 0.0000000000000000e+00  4.0828757240885594e-15 1.7094759670332369e-14 0.0000000000000000e+00  -2.7278115139490137e-14 2.5401885794743179e-16 0.0000000000000000e+00  8.8816959248247996e-16 4.7594797097302171e-14 0.0000000000000000e+00  -1.6377517722434751e-14 -4.6329247367882020e-14 0.0000000000000000e+00  -1.1728197318638441e-14 -2.0867313009872706e-14 0.0000000000000000e+00  1.2590024564595203e-14 -2.1009781751340401e-14 0.0000000000000000e+00  1.3308887103343875e-15 -2.1996025211190784e-14 0.0000000000000000e+00  -1.3467450564640607e-14 -7.4541419878277425e-14 0.0000000000000000e+00  -5.1972406202504859e-16 4.5512986229206110e-14 0.0000000000000000e+00  4.2244224261963101e-16 1.5197112026950048e-14 0.0000000000000000e+00  2.2128481387749411e-14 -4.4885190766872717e-15 0.0000000000000000e+00  5.1848811785326080e-15 1.3026242898012080e-14 0.0000000000000000e+00  -3.7332352344720764e-14 -2.7563126413430038e-14 0.0000000000000000e+00  -1.5502541850808900e-14 2.8593452684651873e-14 0.0000000000000000e+00  -2.7755944563011345e-14 -1.0341188577717326e-14 0.0000000000000000e+00  -1.2140265930575183e-15 -1.8591382453654532e-14 0.0000000000000000e+00  1.3037098484295912e-14 5.4304981866345031e-14 0.0000000000000000e+00  -9.4722105720652387e-15 -5.7660375485128447e-14 0.0000000000000000e+00  -2.1412300571419852e-15 -2.4288917775252322e-14 0.0000000000000000e+00  2.9114880350914513e-15 6.1846830261111659e-14 0.0000000000000000e+00  -3.8324079712508737e-15 1.1728299112556685e-14 0.0000000000000000e+00  2.2527684288331413e-14 1.8995023176273832e-14 0.0000000000000000e+00  3.6859835540377221e-16 9.6842017659335044e-15 0.0000000000000000e+00  -4.0300279341573809e-14 -5.9941922624295940e-14 0.0000000000000000e+00  -1.5185506540653995e-14 3.1015203694831773e-15 0.0000000000000000e+00  -2.8191156128867025e-14 -7.1506700810585573e-15 0.0000000000000000e+00  2.0080795335124625e-15 -6.9198875627834272e-15 0.0000000000000000e+00  7.9893294101815943e-15 5.3209550507451514e-14 0.0000000000000000e+00  -1.5204842327909271e-14 -2.7319117893840052e-14 0.0000000000000000e+00  9.3660641678892439e-15 3.0054998608523546e-14 0.0000000000000000e+00  9.9734174513570343e-16 -2.7433776185574730e-14 0.0000000000000000e+00  -1.1745643169953902e-15 5.9978032531436130e-14 0.0000000000000000e+00  2.5597028838994983e-14 9.8941209954019575e-15 0.0000000000000000e+00  -1.3087733596258018e-14 4.9122115571528282e-14 0.0000000000000000e+00  -6.2299472256387005e-14 -2.2445548756321707e-14 0.0000000000000000e+00  -1.7501470177184869e-14 -2.8596967533468801e-15 0.0000000000000000e+00  -2.7825888081066403e-14 1.0814022600999200e-14 0.0000000000000000e+00  4.0688911761450138e-15 -2.1543413352623810e-15 0.0000000000000000e+00  5.5707248316755199e-15 -3.2890551309056481e-14 0.0000000000000000e+00  -1.5386985154311532e-14 -2.1294360804661683e-14 0.0000000000000000e+00  9.7155918406534595e-15 -6.1491536674785017e-14 0.0000000000000000e+00  1.5528672506660025e-14 3.5647703129263564e-14 0.0000000000000000e+00  -1.3115610798667328e-15 9.7256463476023314e-14 0.0000000000000000e+00  1.2924891356516952e-14 -1.8779802285127410e-14 0.0000000000000000e+00  -3.8350910562675555e-15 -1.1169716155897827e-14 0.0000000000000000e+00  -6.0905600342804731e-14 -3.0800818361967748e-15 0.0000000000000000e+00  -1.3554978876126188e-14 1.0330730758235788e-14 0.0000000000000000e+00  -2.8192231952754754e-14 2.8428044169484472e-14 0.0000000000000000e+00  -6.1788244698399903e-15 -8.7294740945939972e-15 0.0000000000000000e+00  1.5711079855044973e-14 4.1016846496316595e-14 0.0000000000000000e+00  -2.0778318702984905e-14 8.0437487188544210e-15 0.0000000000000000e+00  5.1343216415220092e-15 -8.6124715258127285e-16 0.0000000000000000e+00  3.1023601480000674e-14 3.5965504357635650e-14 0.0000000000000000e+00  -8.4781519080890542e-15 3.6999905821999417e-15 0.0000000000000000e+00  7.3919318936665859e-15 2.8665884768143097e-14 0.0000000000000000e+00  -1.1601731120359495e-14 -1.2425432685772072e-14 0.0000000000000000e+00  -7.8646767315458906e-14 -7.7919039553733466e-14 0.0000000000000000e+00  -8.5397220765929053e-15 -1.7752426390053087e-14 0.0000000000000000e+00  -2.8721206976843903e-14 5.9423237064988739e-14 0.0000000000000000e+00  7.5030709022182064e-15 -2.5802882190291801e-14 0.0000000000000000e+00  -2.3359854393610364e-15 2.6227628179775787e-14 0.0000000000000000e+00  -2.2639744048334010e-14 -6.3983545297311030e-14 0.0000000000000000e+00  2.2339371310825146e-14 2.8740995814259503e-14 0.0000000000000000e+00  1.8709508842091920e-14 5.7408718670065025e-14 0.0000000000000000e+00  -1.0142018085816192e-14 -5.0809328509322668e-14 0.0000000000000000e+00  1.2023760879930909e-14 3.2081494990131593e-14 0.0000000000000000e+00  -1.7401605242257280e-14 -2.4191529419672596e-14 0.0000000000000000e+00  -7.8956980736338660e-14 2.5822153931665316e-14 0.0000000000000000e+00  1.2197159977015647e-14 -3.7733709871293672e-14 0.0000000000000000e+00  -3.5026688289364991e-14 -2.6126322472375900e-14 0.0000000000000000e+00  -1.1569730581995185e-14 -6.4492810691035159e-15 0.0000000000000000e+00  1.2216388878922852e-14 -6.9795166327510438e-14 0.0000000000000000e+00  -1.4050503062859397e-14 8.0583379336846181e-14 0.0000000000000000e+00  2.3077150116395161e-14 3.1079255713461593e-14 0.0000000000000000e+00  1.6673756453560568e-14 6.5495199691445581e-14 0.0000000000000000e+00  -8.3958680567303988e-15 1.4625552619791380e-14 0.0000000000000000e+00  5.1868527971412980e-15 3.1741411150592408e-14 0.0000000000000000e+00  -1.7326655368878065e-14 -4.0652887047515478e-14 0.0000000000000000e+00  -6.1590698432971136e-14 3.6123622820962261e-14 0.0000000000000000e+00  -1.1573345239348739e-14 -1.1133146213429737e-14 0.0000000000000000e+00  -2.1199077844419069e-14 -5.7517440553172097e-14 0.0000000000000000e+00  2.1423287570349752e-15 2.2431601261966445e-14 0.0000000000000000e+00  9.5071928990035528e-15 2.7748101266454131e-14 0.0000000000000000e+00  -8.8801018065455384e-15 6.8243115114871245e-14 0.0000000000000000e+00  2.3045021253286665e