<?xml version="1.0"?>
<VTKFile type="UnstructuredGrid"  version="0.1"  >
<UnstructuredGrid>
<Piece  NumberOfPoints="1661" NumberOfCells="3200">
<Points>
<DataArray  type="Float64"  NumberOfComponents="3"  format="ascii">-0.25 -1 0  -0.225 -1 0  -0.2 -1 0  -0.175 -1 0  -0.15 -1 0  -0.125 -1 0  -0.1 -1 0  -0.07500000000000001 -1 0  -0.04999999999999999 -1 0  -0.02499999999999999 -1 0  0 -1 0  0.02500000000000002 -1 0  0.04999999999999999 -1 0  0.07500000000000001 -1 0  0.09999999999999998 -1 0  0.125 -1 0  0.15 -1 0  0.175 -1 0  0.2 -1 0  0.225 -1 0  0.25 -1 0  -0.25 -0.975 0  -0.225 -0.975 0  -0.2 -0.975 0  -0.175 -0.975 0  -0.15 -0.975 0  -0.125 -0.975 0  -0.1 -0.975 0  -0.07500000000000001 -0.975 0  -0.04999999999999999 -0.975 0  -0.02499999999999999 -0.975 0  0 -0.975 0  0.02500000000000002 -0.975 0  0.04999999999999999 -0.975 0  0.07500000000000001 -0.975 0  0.09999999999999998 -0.975 0  0.125 -0.975 0  0.15 -0.975 0  0.175 -0.975 0  0.2 -0.975 0  0.225 -0.975 0  0.25 -0.975 0  -0.25 -0.95 0  -0.225 -0.95 0  -0.2 -0.95 0  -0.175 -0.95 0  -0.15 -0.95 0  -0.125 -0.95 0  -0.1 -0.95 0  -0.07500000000000001 -0.95 0  -0.04999999999999999 -0.95 0  -0.02499999999999999 -0.95 0  0 -0.95 0  0.02500000000000002 -0.95 0  0.04999999999999999 -0.95 0  0.07500000000000001 -0.95 0  0.09999999999999998 -0.95 0  0.125 -0.95 0  0.15 -0.95 0  0.175 -0.95 0  0.2 -0.95 0  0.225 -0.95 0  0.25 -0.95 0  -0.25 -0.925 0  -0.225 -0.925 0  -0.2 -0.925 0  -0.175 -0.925 0  -0.15 -0.925 0  -0.125 -0.925 0  -0.1 -0.925 0  -0.07500000000000001 -0.925 0  -0.04999999999999999 -0.925 0  -0.02499999999999999 -0.925 0  0 -0.925 0  0.02500000000000002 -0.925 0  0.04999999999999999 -0.925 0  0.07500000000000001 -0.925 0  0.09999999999999998 -0.925 0  0.125 -0.925 0  0.15 -0.925 0  0.175 -0.925 0  0.2 -0.925 0  0.225 -0.925 0  0.25 -0.925 0  -0.25 -0.9 0  -0.225 -0.9 0  -0.2 -0.9 0  -0.175 -0.9 0  -0.15 -0.9 0  -0.125 -0.9 0  -0.1 -0.9 0  -0.07500000000000001 -0.9 0  -0.04999999999999999 -0.9 0  -0.02499999999999999 -0.9 0  0 -0.9 0  0.02500000000000002 -0.9 0  0.04999999999999999 -0.9 0  0.07500000000000001 -0.9 0  0.09999999999999998 -0.9 0  0.125 -0.9 0  0.15 -0.9 0  0.175 -0.9 0  0.2 -0.9 0  0.225 -0.9 0  0.25 -0.9 0  -0.25 -0.875 0  -0.225 -0.875 0  -0.2 -0.875 0  -0.175 -0.875 0  -0.15 -0.875 0  -0.125 -0.875 0  -0.1 -0.875 0  -0.07500000000000001 -0.875 0  -0.04999999999999999 -0.875 0  -0.02499999999999999 -0.875 0  0 -0.875 0  0.02500000000000002 -0.875 0  0.04999999999999999 -0.875 0  0.07500000000000001 -0.875 0  0.09999999999999998 -0.875 0  0.125 -0.875 0  0.15 -0.875 0  0.175 -0.875 0  0.2 -0.875 0  0.225 -0.875 0  0.25 -0.875 0  -0.25 -0.85 0  -0.225 -0.85 0  -0.2 -0.85 0  -0.175 -0.85 0  -0.15 -0.85 0  -0.125 -0.85 0  -0.1 -0.85 0  -0.07500000000000001 -0.85 0  -0.04999999999999999 -0.85 0  -0.02499999999999999 -0.85 0  0 -0.85 0  0.02500000000000002 -0.85 0  0.04999999999999999 -0.85 0  0.07500000000000001 -0.85 0  0.09999999999999998 -0.85 0  0.125 -0.85 0  0.15 -0.85 0  0.175 -0.85 0  0.2 -0.85 0  0.225 -0.85 0  0.25 -0.85 0  -0.25 -0.825 0  -0.225 -0.825 0  -0.2 -0.825 0  -0.175 -0.825 0  -0.15 -0.825 0  -0.125 -0.825 0  -0.1 -0.825 0  -0.07500000000000001 -0.825 0  -0.04999999999999999 -0.825 0  -0.02499999999999999 -0.825 0  0 -0.825 0  0.02500000000000002 -0.825 0  0.04999999999999999 -0.825 0  0.07500000000000001 -0.825 0  0.09999999999999998 -0.825 0  0.125 -0.825 0  0.15 -0.825 0  0.175 -0.825 0  0.2 -0.825 0  0.225 -0.825 0  0.25 -0.825 0  -0.25 -0.8 0  -0.225 -0.8 0  -0.2 -0.8 0  -0.175 -0.8 0  -0.15 -0.8 0  -0.125 -0.8 0  -0.1 -0.8 0  -0.07500000000000001 -0.8 0  -0.04999999999999999 -0.8 0  -0.02499999999999999 -0.8 0  0 -0.8 0  0.02500000000000002 -0.8 0  0.04999999999999999 -0.8 0  0.07500000000000001 -0.8 0  0.09999999999999998 -0.8 0  0.125 -0.8 0  0.15 -0.8 0  0.175 -0.8 0  0.2 -0.8 0  0.225 -0.8 0  0.25 -0.8 0  -0.25 -0.775 0  -0.225 -0.775 0  -0.2 -0.775 0  -0.175 -0.775 0  -0.15 -0.775 0  -0.125 -0.775 0  -0.1 -0.775 0  -0.07500000000000001 -0.775 0  -0.04999999999999999 -0.775 0  -0.02499999999999999 -0.775 0  0 -0.775 0  0.02500000000000002 -0.775 0  0.04999999999999999 -0.775 0  0.07500000000000001 -0.775 0  0.09999999999999998 -0.775 0  0.125 -0.775 0  0.15 -0.775 0  0.175 -0.775 0  0.2 -0.775 0  0.225 -0.775 0  0.25 -0.775 0  -0.25 -0.75 0  -0.225 -0.75 0  -0.2 -0.75 0  -0.175 -0.75 0  -0.15 -0.75 0  -0.125 -0.75 0  -0.1 -0.75 0  -0.07500000000000001 -0.75 0  -0.04999999999999999 -0.75 0  -0.02499999999999999 -0.75 0  0 -0.75 0  0.02500000000000002 -0.75 0  0.04999999999999999 -0.75 0  0.07500000000000001 -0.75 0  0.09999999999999998 -0.75 0  0.125 -0.75 0  0.15 -0.75 0  0.175 -0.75 0  0.2 -0.75 0  0.225 -0.75 0  0.25 -0.75 0  -0.25 -0.725 0  -0.225 -0.725 0  -0.2 -0.725 0  -0.175 -0.725 0  -0.15 -0.725 0  -0.125 -0.725 0  -0.1 -0.725 0  -0.07500000000000001 -0.725 0  -0.04999999999999999 -0.725 0  -0.02499999999999999 -0.725 0  0 -0.725 0  0.02500000000000002 -0.725 0  0.04999999999999999 -0.725 0  0.07500000000000001 -0.725 0  0.09999999999999998 -0.725 0  0.125 -0.725 0  0.15 -0.725 0  0.175 -0.725 0  0.2 -0.725 0  0.225 -0.725 0  0.25 -0.725 0  -0.25 -0.7 0  -0.225 -0.7 0  -0.2 -0.7 0  -0.175 -0.7 0  -0.15 -0.7 0  -0.125 -0.7 0  -0.1 -0.7 0  -0.07500000000000001 -0.7 0  -0.04999999999999999 -0.7 0  -0.02499999999999999 -0.7 0  0 -0.7 0  0.02500000000000002 -0.7 0  0.04999999999999999 -0.7 0  0.07500000000000001 -0.7 0  0.09999999999999998 -0.7 0  0.125 -0.7 0  0.15 -0.7 0  0.175 -0.7 0  0.2 -0.7 0  0.225 -0.7 0  0.25 -0.7 0  -0.25 -0.675 0  -0.225 -0.675 0  -0.2 -0.675 0  -0.175 -0.675 0  -0.15 -0.675 0  -0.125 -0.675 0  -0.1 -0.675 0  -0.07500000000000001 -0.675 0  -0.04999999999999999 -0.675 0  -0.02499999999999999 -0.675 0  0 -0.675 0  0.02500000000000002 -0.675 0  0.04999999999999999 -0.675 0  0.07500000000000001 -0.675 0  0.09999999999999998 -0.675 0  0.125 -0.675 0  0.15 -0.675 0  0.175 -0.675 0  0.2 -0.675 0  0.225 -0.675 0  0.25 -0.675 0  -0.25 -0.65 0  -0.225 -0.65 0  -0.2 -0.65 0  -0.175 -0.65 0  -0.15 -0.65 0  -0.125 -0.65 0  -0.1 -0.65 0  -0.07500000000000001 -0.65 0  -0.04999999999999999 -0.65 0  -0.02499999999999999 -0.65 0  0 -0.65 0  0.02500000000000002 -0.65 0  0.04999999999999999 -0.65 0  0.07500000000000001 -0.65 0  0.09999999999999998 -0.65 0  0.125 -0.65 0  0.15 -0.65 0  0.175 -0.65 0  0.2 -0.65 0  0.225 -0.65 0  0.25 -0.65 0  -0.25 -0.625 0  -0.225 -0.625 0  -0.2 -0.625 0  -0.175 -0.625 0  -0.15 -0.625 0  -0.125 -0.625 0  -0.1 -0.625 0  -0.07500000000000001 -0.625 0  -0.04999999999999999 -0.625 0  -0.02499999999999999 -0.625 0  0 -0.625 0  0.02500000000000002 -0.625 0  0.04999999999999999 -0.625 0  0.07500000000000001 -0.625 0  0.09999999999999998 -0.625 0  0.125 -0.625 0  0.15 -0.625 0  0.175 -0.625 0  0.2 -0.625 0  0.225 -0.625 0  0.25 -0.625 0  -0.25 -0.6 0  -0.225 -0.6 0  -0.2 -0.6 0  -0.175 -0.6 0  -0.15 -0.6 0  -0.125 -0.6 0  -0.1 -0.6 0  -0.07500000000000001 -0.6 0  -0.04999999999999999 -0.6 0  -0.02499999999999999 -0.6 0  0 -0.6 0  0.02500000000000002 -0.6 0  0.04999999999999999 -0.6 0  0.07500000000000001 -0.6 0  0.09999999999999998 -0.6 0  0.125 -0.6 0  0.15 -0.6 0  0.175 -0.6 0  0.2 -0.6 0  0.225 -0.6 0  0.25 -0.6 0  -0.25 -0.575 0  -0.225 -0.575 0  -0.2 -0.575 0  -0.175 -0.575 0  -0.15 -0.575 0  -0.125 -0.575 0  -0.1 -0.575 0  -0.07500000000000001 -0.575 0  -0.04999999999999999 -0.575 0  -0.02499999999999999 -0.575 0  0 -0.575 0  0.02500000000000002 -0.575 0  0.04999999999999999 -0.575 0  0.07500000000000001 -0.575 0  0.09999999999999998 -0.575 0  0.125 -0.575 0  0.15 -0.575 0  0.175 -0.575 0  0.2 -0.575 0  0.225 -0.575 0  0.25 -0.575 0  -0.25 -0.55 0  -0.225 -0.55 0  -0.2 -0.55 0  -0.175 -0.55 0  -0.15 -0.55 0  -0.125 -0.55 0  -0.1 -0.55 0  -0.07500000000000001 -0.55 0  -0.04999999999999999 -0.55 0  -0.02499999999999999 -0.55 0  0 -0.55 0  0.02500000000000002 -0.55 0  0.04999999999999999 -0.55 0  0.07500000000000001 -0.55 0  0.09999999999999998 -0.55 0  0.125 -0.55 0  0.15 -0.55 0  0.175 -0.55 0  0.2 -0.55 0  0.225 -0.55 0  0.25 -0.55 0  -0.25 -0.525 0  -0.225 -0.525 0  -0.2 -0.525 0  -0.175 -0.525 0  -0.15 -0.525 0  -0.125 -0.525 0  -0.1 -0.525 0  -0.07500000000000001 -0.525 0  -0.04999999999999999 -0.525 0  -0.02499999999999999 -0.525 0  0 -0.525 0  0.02500000000000002 -0.525 0  0.04999999999999999 -0.525 0  0.07500000000000001 -0.525 0  0.09999999999999998 -0.525 0  0.125 -0.525 0  0.15 -0.525 0  0.175 -0.525 0  0.2 -0.525 0  0.225 -0.525 0  0.25 -0.525 0  -0.25 -0.5 0  -0.225 -0.5 0  -0.2 -0.5 0  -0.175 -0.5 0  -0.15 -0.5 0  -0.125 -0.5 0  -0.1 -0.5 0  -0.07500000000000001 -0.5 0  -0.04999999999999999 -0.5 0  -0.02499999999999999 -0.5 0  0 -0.5 0  0.02500000000000002 -0.5 0  0.04999999999999999 -0.5 0  0.07500000000000001 -0.5 0  0.09999999999999998 -0.5 0  0.125 -0.5 0  0.15 -0.5 0  0.175 -0.5 0  0.2 -0.5 0  0.225 -0.5 0  0.25 -0.5 0  -0.25 -0.475 0  -0.225 -0.475 0  -0.2 -0.475 0  -0.175 -0.475 0  -0.15 -0.475 0  -0.125 -0.475 0  -0.1 -0.475 0  -0.07500000000000001 -0.475 0  -0.04999999999999999 -0.475 0  -0.02499999999999999 -0.475 0  0 -0.475 0  0.02500000000000002 -0.475 0  0.04999999999999999 -0.475 0  0.07500000000000001 -0.475 0  0.09999999999999998 -0.475 0  0.125 -0.475 0  0.15 -0.475 0  0.175 -0.475 0  0.2 -0.475 0  0.225 -0.475 0  0.25 -0.475 0  -0.25 -0.45 0  -0.225 -0.45 0  -0.2 -0.45 0  -0.175 -0.45 0  -0.15 -0.45 0  -0.125 -0.45 0  -0.1 -0.45 0  -0.07500000000000001 -0.45 0  -0.04999999999999999 -0.45 0  -0.02499999999999999 -0.45 0  0 -0.45 0  0.02500000000000002 -0.45 0  0.04999999999999999 -0.45 0  0.07500000000000001 -0.45 0  0.09999999999999998 -0.45 0  0.125 -0.45 0  0.15 -0.45 0  0.175 -0.45 0  0.2 -0.45 0  0.225 -0.45 0  0.25 -0.45 0  -0.25 -0.425 0  -0.225 -0.425 0  -0.2 -0.425 0  -0.175 -0.425 0  -0.15 -0.425 0  -0.125 -0.425 0  -0.1 -0.425 0  -0.07500000000000001 -0.425 0  -0.04999999999999999 -0.425 0  -0.02499999999999999 -0.425 0  0 -0.425 0  0.02500000000000002 -0.425 0  0.04999999999999999 -0.425 0  0.07500000000000001 -0.425 0  0.
[...]
<PointData  Vectors="flow"> 
<DataArray  type="Float64"  Name="flow"  NumberOfComponents="3" format="ascii">-3.8606054483996399e-02 7.7212927520557542e-02 0.0000000000000000e+00  1.8604207520051153e-06 7.7212927520962676e-02 0.0000000000000000e+00  -8.9910941493555701e-11 7.7212927521319974e-02 0.0000000000000000e+00  -3.0579241244179628e-13 7.7212927520957153e-02 0.0000000000000000e+00  -5.3067580456114308e-13 7.7212927521353614e-02 0.0000000000000000e+00  -2.5140281844606534e-12 7.7212927521212407e-02 0.0000000000000000e+00  -6.2798436371373842e-13 7.7212927525731626e-02 0.0000000000000000e+00  1.3805192173535410e-12 7.7212927521068994e-02 0.0000000000000000e+00  -5.9382929630617793e-13 7.7212927521122909e-02 0.0000000000000000e+00  -5.5509245655611076e-13 7.7212927521233307e-02 0.0000000000000000e+00  -4.6260817355300922e-13 7.7212927521300559e-02 0.0000000000000000e+00  -5.0872966003539541e-14 7.7212927520937363e-02 0.0000000000000000e+00  -4.1875995013455362e-13 7.7212927521202776e-02 0.0000000000000000e+00  -2.8743177410191696e-13 7.7212927521166430e-02 0.0000000000000000e+00  3.2508521890850449e-13 7.7212927520432767e-02 0.0000000000000000e+00  8.9428398137946162e-13 7.7212927521238595e-02 0.0000000000000000e+00  9.8779458920245907e-13 7.7212927521188551e-02 0.0000000000000000e+00  5.2790987811966276e-13 7.7212927520859967e-02 0.0000000000000000e+00  9.0236124185993876e-11 7.7212927521415550e-02 0.0000000000000000e+00  -1.8604208973612700e-06 7.7212927520771052e-02 0.0000000000000000e+00  3.8606054484018597e-02 7.7212927520528801e-02 0.0000000000000000e+00  -3.8576290614796595e-02 2.3157099431458245e-01 0.0000000000000000e+00  1.8589868810171366e-06 2.3157099431466982e-01 0.0000000000000000e+00  -9.0006861154744514e-11 2.3157099431469638e-01 0.0000000000000000e+00  -3.8811860249802730e-13 2.3157099431489347e-01 0.0000000000000000e+00  -6.7857657558861763e-13 2.3157099431512043e-01 0.0000000000000000e+00  -1.2615677423682094e-13 2.3157099431540032e-01 0.0000000000000000e+00  -6.6410516062412372e-13 2.3157099431689313e-01 0.0000000000000000e+00  -1.0815737018163110e-12 2.3157099431517439e-01 0.0000000000000000e+00  -1.3641498313806807e-13 2.3157099431483819e-01 0.0000000000000000e+00  -7.1488311951575010e-13 2.3157099431491129e-01 0.0000000000000000e+00  -5.9848598811036611e-13 2.3157099431454922e-01 0.0000000000000000e+00  7.4383218896048064e-14 2.3157099431444045e-01 0.0000000000000000e+00  -3.2309672303609181e-13 2.3157099431506550e-01 0.0000000000000000e+00  -8.5218744464851834e-13 2.3157099431482189e-01 0.0000000000000000e+00  2.5629314232863205e-13 2.3157099431513944e-01 0.0000000000000000e+00  1.4999730481560840e-12 2.3157099431478401e-01 0.0000000000000000e+00  1.0893405119970744e-12 2.3157099431504380e-01 0.0000000000000000e+00  6.5219026991436942e-13 2.3157099431506825e-01 0.0000000000000000e+00  9.0039684855782365e-11 2.3157099431515768e-01 0.0000000000000000e+00  -1.8589869497163217e-06 2.3157099431489614e-01 0.0000000000000000e+00  3.8576290615136309e-02 2.3157099431499215e-01 0.0000000000000000e+00  -3.8487044902012907e-02 4.6278492294084161e-01 0.0000000000000000e+00  1.8546857514954430e-06 4.6278492294068080e-01 0.0000000000000000e+00  -8.9475897791864021e-11 4.6278492294066442e-01 0.0000000000000000e+00  1.7049319605449549e-13 4.6278492294110357e-01 0.0000000000000000e+00  -1.3911997580856592e-13 4.6278492294120327e-01 0.0000000000000000e+00  -5.1125165492173768e-13 4.6278492294130052e-01 0.0000000000000000e+00  -7.1546119190824929e-13 4.6278492294098666e-01 0.0000000000000000e+00  -9.1439230856552392e-13 4.6278492294134410e-01 0.0000000000000000e+00  -6.5699194569362162e-13 4.6278492294093865e-01 0.0000000000000000e+00  -9.3086217332878636e-13 4.6278492294072271e-01 0.0000000000000000e+00  -8.7473823690380125e-13 4.6278492294165735e-01 0.0000000000000000e+00  4.9640390473593295e-13 4.6278492294114210e-01 0.0000000000000000e+00  -1.4823674049527340e-13 4.6278492294093226e-01 0.0000000000000000e+00  -1.7423739987277434e-13 4.6278492294087076e-01 0.0000000000000000e+00  3.3324352425629427e-13 4.6278492294111556e-01 0.0000000000000000e+00  7.7544910426072684e-13 4.6278492294158280e-01 0.0000000000000000e+00  1.1781008954889256e-12 4.6278492294067819e-01 0.0000000000000000e+00  6.2865762434406638e-13 4.6278492294119039e-01 0.0000000000000000e+00  8.9815878438187832e-11 4.6278492294083623e-01 0.0000000000000000e+00  -1.8546859752168845e-06 4.6278492294121393e-01 0.0000000000000000e+00  3.8487044902339444e-02 4.6278492294140716e-01 0.0000000000000000e+00  -3.8338454955134986e-02 6.9328527075879975e-01 0.0000000000000000e+00  1.8475255031026642e-06 6.9328527075907276e-01 0.0000000000000000e+00  -8.8962191477854098e-11 6.9328527075957891e-01 0.0000000000000000e+00  3.8297413766960868e-14 6.9328527075934698e-01 0.0000000000000000e+00  -3.2212905448904675e-13 6.9328527075936208e-01 0.0000000000000000e+00  -3.4714618518930454e-13 6.9328527075917001e-01 0.0000000000000000e+00  -7.6061687863938099e-13 6.9328527075907975e-01 0.0000000000000000e+00  -1.0524407886289632e-12 6.9328527075877555e-01 0.0000000000000000e+00  -9.1721488808597677e-13 6.9328527075879365e-01 0.0000000000000000e+00  2.2357825007277776e-15 6.9328527075885626e-01 0.0000000000000000e+00  -1.2415886569638212e-13 6.9328527075932278e-01 0.0000000000000000e+00  -7.4027684787672779e-13 6.9328527075950686e-01 0.0000000000000000e+00  -4.6694770710462372e-13 6.9328527075871726e-01 0.0000000000000000e+00  -6.3811589924437169e-13 6.9328527075917823e-01 0.0000000000000000e+00  7.8800904320759181e-13 6.9328527075885016e-01 0.0000000000000000e+00  1.1017899249967555e-12 6.9328527075910629e-01 0.0000000000000000e+00  7.0263066779379313e-13 6.9328527075942903e-01 0.0000000000000000e+00  9.6470078807884121e-13 6.9328527075937896e-01 0.0000000000000000e+00  8.9331477784366361e-11 6.9328527075927759e-01 0.0000000000000000e+00  -1.8475249584955287e-06 6.9328527075988367e-01 0.0000000000000000e+00  3.8338454955751194e-02 6.9328527075985957e-01 0.0000000000000000e+00  -3.8130749889848575e-02 9.2271662293976342e-01 0.0000000000000000e+00  1.8375166519540443e-06 9.2271662293993173e-01 0.0000000000000000e+00  -8.8276956954602505e-11 9.2271662294003842e-01 0.0000000000000000e+00  -3.0534969560012033e-14 9.2271662294031676e-01 0.0000000000000000e+00  -3.7141665483374566e-13 9.2271662294008028e-01 0.0000000000000000e+00  -7.6488675671111041e-13 9.2271662294034773e-01 0.0000000000000000e+00  -1.2826228186292022e-12 9.2271662293923040e-01 0.0000000000000000e+00  -1.1013422376088224e-12 9.2271662293977075e-01 0.0000000000000000e+00  -6.0946770752046765e-13 9.2271662293955525e-01 0.0000000000000000e+00  -3.7143343102031680e-13 9.2271662293985446e-01 0.0000000000000000e+00  -1.8171434179858700e-13 9.2271662293929391e-01 0.0000000000000000e+00  -1.9009769224709706e-13 9.2271662293959278e-01 0.0000000000000000e+00  -4.1981883868539966e-13 9.2271662294015400e-01 0.0000000000000000e+00  -1.4727710768866484e-13 9.2271662293999679e-01 0.0000000000000000e+00  3.6510354321753293e-13 9.2271662294062096e-01 0.0000000000000000e+00  1.5408640548813379e-12 9.2271662293998968e-01 0.0000000000000000e+00  1.4275297997749073e-12 9.2271662294060908e-01 0.0000000000000000e+00  4.3534290932905346e-13 9.2271662294105949e-01 0.0000000000000000e+00  8.9369920263948890e-11 9.2271662294173706e-01 0.0000000000000000e+00  -1.8375155620398126e-06 9.2271662294120482e-01 0.0000000000000000e+00  3.8130749890089778e-02 9.2271662294149759e-01 0.0000000000000000e+00  -3.7864249971900688e-02 1.1507252129688379e+00 0.0000000000000000e+00  1.8246738796418128e-06 1.1507252129685777e+00 0.0000000000000000e+00  -8.7684891407122349e-11 1.1507252129682031e+00 0.0000000000000000e+00  8.8530433750074338e-14 1.1507252129683772e+00 0.0000000000000000e+00  -4.0667197886765214e-13 1.1507252129683379e+00 0.0000000000000000e+00  -1.0898473999172732e-12 1.1507252129679164e+00 0.0000000000000000e+00  -1.3091595878201007e-12 1.1507252129679297e+00 0.0000000000000000e+00  -6.9385975521158086e-13 1.1507252129671797e+00 0.0000000000000000e+00  -6.9884452425493036e-13 1.1507252129693144e+00 0.0000000000000000e+00  -3.6184664489177885e-13 1.1507252129680530e+00 0.0000000000000000e+00  -3.9322698296873072e-13 1.1507252129674730e+00 0.0000000000000000e+00  1.3296619156170393e-13 1.1507252129683085e+00 0.0000000000000000e+00  4.5693201885685980e-14 1.1507252129686123e+00 0.0000000000000000e+00  -2.0204624997583234e-13 1.1507252129691992e+00 0.0000000000000000e+00  8.3535204250659147e-13 1.1507252129676544e+00 0.0000000000000000e+00  9.2662494213348751e-13 1.1507252129688463e+00 0.0000000000000000e+00  1.7894567536716418e-12 1.1507252129686059e+00 0.0000000000000000e+00  1.9642176123115891e-12 1.1507252129692820e+00 0.0000000000000000e+00  8.8459861526389955e-11 1.1507252129689329e+00 0.0000000000000000e+00  -1.8246733048243361e-06 1.1507252129687493e+00 0.0000000000000000e+00  3.7864249973126256e-02 1.1507252129689332e+00 0.0000000000000000e+00  -3.7539366125247199e-02 1.3769594681256576e+00 0.0000000000000000e+00  1.8090173851979415e-06 1.3769594681252266e+00 0.0000000000000000e+00  -8.7045945609643528e-11 1.3769594681249533e+00 0.0000000000000000e+00  2.5980351362364355e-13 1.3769594681247443e+00 0.0000000000000000e+00  -9.0112113085669324e-13 1.3769594681252375e+00 0.0000000000000000e+00  -1.0634399589152130e-12 1.3769594681243578e+00 0.0000000000000000e+00  -1.9817425616977304e-12 1.3769594681249953e+00 0.0000000000000000e+00  2.3130292731644536e-14 1.3769594681255748e+00 0.0000000000000000e+00  4.5866429875032179e-13 1.3769594681257360e+00 0.0000000000000000e+00  -2.3241200634508114e-12 1.3769594681259829e+00 0.0000000000000000e+00  1.0022106977593869e-13 1.3769594681257189e+00 0.0000000000000000e+00  8.8199836601258182e-13 1.3769594681256809e+00 0.0000000000000000e+00  4.1256040971328455e-13 1.3769594681251445e+00 0.0000000000000000e+00  -1.1964726141967778e-12 1.3769594681245014e+00 0.0000000000000000e+00  -1.3908941714066419e-13 1.3769594681238453e+00 0.0000000000000000e+00  2.5966122797316329e-12 1.3769594681242570e+00 0.0000000000000000e+00  1.8192521615885613e-12 1.3769594681249004e+00 0.0000000000000000e+00  9.8511749915853065e-13 1.3769594681244897e+00 0.0000000000000000e+00  8.7644409529920916e-11 1.3769594681244892e+00 0.0000000000000000e+00  -1.8090169940400604e-06 1.3769594681249095e+00 0.0000000000000000e+00  3.7539366125655012e-02 1.3769594681239490e+00 0.0000000000000000e+00  -3.7156599296746182e-02 1.6010705515866972e+00 0.0000000000000000e+00  1.7905716051008969e-06 1.6010705515866483e+00 0.0000000000000000e+00  -8.6835694039003508e-11 1.6010705515853574e+00 0.0000000000000000e+00  4.6107523326886037e-13 1.6010705515856900e+00 0.0000000000000000e+00  -7.5732788447375615e-13 1.6010705515846626e+00 0.0000000000000000e+00  -1.5252182569073831e-12 1.6010705515855650e+00 0.0000000000000000e+00  -1.0434907907835711e-13 1.6010705515857548e+00 0.0000000000000000e+00  1.5356809316441465e-13 1.6010705515877430e+00 0.0000000000000000e+00  -3.1825314946422146e-13 1.6010705515865931e+00 0.0000000000000000e+00  -4.2769064243048994e-13 1.6010705515872063e+00 0.0000000000000000e+00  -6.0936090842690658e-13 1.6010705515885222e+00 0.0000000000000000e+00  -3.7965694480500922e-13 1.6010705515861203e+00 0.0000000000000000e+00  -1.0239153368977151e-12 1.6010705515859709e+00 0.0000000000000000e+00  -1.4672197767068795e-12 1.6010705515845063e+00 0.0000000000000000e+00  5.7920154967869918e-13 1.6010705515864425e+00 0.0000000000000000e+00  2.1654070244165493e-12 1.6010705515848080e+00 0.0000000000000000e+00  1.8190477106031996e-12 1.6010705515851256e+00 0.0000000000000000e+00  1.5565573514641843e-12 1.6010705515847630e+00 0.0000000000000000e+00  8.7161499709983433e-11 1.6010705515851527e+00 0.0000000000000000e+00  -1.7905722261407541e-06 1.6010705515847128e+00 0.0000000000000000e+00  3.7156599296517365e-02 1.6010705515846941e+00 0.0000000000000000e+00  -3.6716539685356882e-02 1.8227129003055771e+00 0.0000000000000000e+00  1.7693639797157285e-06 1.8227129003051166e+00 0.0000000000000000e+00  -8.5726106888044095e-11 1.8227129003049376e+00 0.0000000000000000e+00  -4.1380542749882581e-13 1.8227129003053417e+00 0.0000000000000000e+00  -1.1540613159744924e-12 1.8227129003043734e+00 0.0000000000000000e+00  1.4365374217531392e-13 1.8227129003053435e+00 0.0000000000000000e+00  3.5766342145956941e-13 1.8227129003054328e+00 0.0000000000000000e+00  9.8274273959524614e-13 1.8227129003052582e+00 0.0000000000000000e+00  -2.7449872912915961e-13 1.8227129003051536e+00 0.0000000000000000e+00  -3.4315356405414559e-13 1.8227129003055766e+00 0.0000000000000000e+00  -1.1369156432895244e-12 1.8227129003047136e+00 0.0000000000000000e+00  -1.6988282780605921e-12 1.8227129003045699e+00 0.0000000000000000e+00  -1.1982293874927021e-12 1.8227129003030877e+00 0.0000000000000000e+00  -7.3782266054755094e-13 1.8227129003033673e+00 0.0000000000000000e+00  3.9505611886330816e-13 1.8227129003033471e+00 0.0000000000000000e+00  1.1393048547976994e-12 1.8227129003040625e+00 0.0000000000000000e+00  1.7602547895328251e-12 1.8227129003033755e+00 0.0000000000000000e+00  1.0640824223083010e-12 1.8227129003026648e+00 0.0000000000000000e+00  8.5550874351718946e-11 1.8227129003020381e+00 0.0000000000000000e+00  -1.7693657471933731e-06 1.8227129003011364e+00 0.0000000000000000e+00  3.6716539685192798e-02 1.8227129003011091e+00 0.0000000000000000e+00  -3.6219865830751659e-02 2.0415447578439587e+00 0.0000000000000000e+00  1.7454298537201580e-06 2.0415447578446311e+00 0.0000000000000000e+00  -8.4511910263624237e-11 2.0415447578458834e+00 0.0000000000000000e+00  -2.3728028277461316e-13 2.0415447578446053e+00 0.0000000000000000e+00  -5.4820088099390897e-13 2.0415447578461685e+00 0.0000000000000000e+00  -5.7130218398075155e-13 2.0415447578455357e+00 0.0000000000000000e+00  -3.5360002812134665e-13 2.0415447578451533e+00 0.0000000000000000e+00  -3.1111931831589780e-13 2.0415447578436865e+00 0.0000000000000000e+00  2.0162471137217508e-13 2.0415447578437336e+00 0.0000000000000000e+00  -7.1506179860976103e-13 2.0415447578438006e+00 0.0000000000000000e+00  -1.6408244388999565e-12 2.0415447578440742e+00 0.0000000000000000e+00  -1.8528870750108795e-12 2.0415447578434214e+00 0.0000000000000000e+00  -2.3626706528264322e-12 2.0415447578426020e+00 0.0000000000000000e+00  -1.3141870616786204e-12 2.0415447578420549e+00 0.0000000000000000e+00  1.1399953754356620e-12 2.0415447578398087e+00 0.0000000000000000e+00  2.2105938127548572e-12 2.0415447578414514e+00 0.0000000000000000e+00  4.0488593709732075e-13 2.0415447578415229e+00 0.0000000000000000e+00  9.7013583963794509e-14 2.0415447578399615e+00 0.0000000000000000e+00  8.3596783315410881e-11 2.0415447578402279e+00 0.0000000000000000e+00  -1.7454316889720785e-06 2.0415447578407382e+00 0.0000000000000000e+00  3.6219865830378409e-02 2.0415447578405352e+00 0.0000000000000000e+00  -3.5667343567867354e-02 2.2572287013398102e+00 0.0000000000000000e+00  1.7188050949839842e-06 2.2572287013398000e+00 0.0000000000000000e+00  -8.3097644213590971e-11 2.2572287013411194e+00 0.0000000000000000e+00  -2.2692318177591867e-13 2.2572287013410066e+00 0.0000000000000000e+00  -2.1652451561439238e-13 2.2572287013408472e+00 0.0000000000000000e+00  -8.9646313965435888e-13 2.2572287013409160e+00 0.0000000000000000e+00  -1.3405764094859969e-12 2.2572287013404839e+00 0.0000000000000000e+00  -3.6446172002424324e-13 2.2572287013400487e+00 0.0000000000000000e+00  -2.4566218317940951e-13 2.2572287013402943e+00 0.0000000000000000e+00  -1.2620799218159442e-13 2.2572287013394119e+00 0.0000000000000000e+00  -1.5651545879170229e-12 2.2572287013404715e+00 0.0000000000000000e+00  -3.2501012113094811e-12 2.2572287013396952e+00 0.0000000000000000e+00  -2.3670761257718357e-12 2.2572287013395136e+00 0.0000000000000000e+00  -3.2987926343689673e-12 2.2572287013385299e+00 0.0000000000000000e+00  -4.0478387917110502e-13 2.2572287013377328e+00 0.0000000000000000e+00  2.7907036371102076e-12 2.2572287013359165e+00 0.0000000000000000e+00  3.5726002669167548e-13 2.2572287013347410e+00 0.0000000000000000e+00  1.9781702429284112e-14 2.2572287013365790e+00 0.0000000000000000e+00  8.3858628875274371e-11 2.2572287013373882e+00 0.0000000000000000e+00  -1.7188050740818352e-06 2.2572287013376928e+00 0.0000000000000000e+00  3.5667343568168142e-02 2.2572287013379322e+00 0.0000000000000000e+00  -3.5059824847568505e-02 2.4694321617839314e+00 0.0000000000000000e+00  1.6895294910869594e-06 2.4694321617862944e+00 0.0000000000000000e+00  -8.0889665372259553e-11 2.4694321617855954e+00 0.0000000000000000e+00  -6.3291773338948084e-13 2.4694321617859289e+00 0.0000000000000000e+00  -5.0302533785495334e-13 2.4694321617867940e+00 0.0000000000000000e+00  -9.1096649928621654e-13 2.4694321617864015e+00 0.0000000000000000e+00  -1.3120232768179725e-12 2.4694321617862873e+00 0.0000000000000000e+00  -6.8238874883848238e-13 2.4694321617861554e+00 0.0000000000000000e+00  -5.0908623441339418e-13 2.4694321617847486e+00 0.0000000000000000e+00  -3.8004322441679249e-13 2.4694321617856261e+00 0.0000000000000000e+00  -1.2214281416508621e-12 2.4694321617842441e+00 0.0000000000000000e+00  -2.9165073557408602e-12 2.4694321617858264e+00 0.0000000000000000e+00  -3.5570847559311406e-12 2.4694321617853019e+00 0.0000000000000000e+00  -3.4070375100136318e-12 2.4694321617842085e+00 0.0000000000000000e+00  -1.1722387882828448e-12 2.4694321617836819e+00 0.0000000000000000e+00  -3.8550332176033645e-13 2.4694321617826827e+00 0.0000000000000000e+00  9.5637771275294370e-13 2.4694321617822226e+00 0.0000000000000000e+00  2.4065440624624266e-12 2.4694321617833808e+00 0.0000000000000000e+00  8.2126904633115977e-11 2.4694321617827901e+00 0.0000000000000000e+00  -1.6895288492879368e-06 2.4694321617836250e+00 0.0000000000000000e+00  3.5059824848144870e-02 2.4694321617836676e+00 0.0000000000000000e+00  -3.4398246413982675e-02 2.6778279368263753e+00 0.0000000000000000e+00  1.6576484905870634e-06 2.6778279368258260e+00 0.0000000000000000e+00  -8.0499519912598779e-11 2.6778279368248099e+00 0.0000000000000000e+00  1.1595662949137884e-12 2.6778279368258677e+00 0.0000000000000000e+00  2.4144503990623246e-13 2.6778279368268048e+00 0.0000000000000000e+00  -1.5663574405104699e-12 2.6778279368257984e+00 0.0000000000000000e+00  -1.5635645730725709e-12 2.6778279368260716e+00 0.0000000000000000e+00  -1.5710824259295254e-12 2.6778279368253721e+00 0.0000000000000000e+00  -6.5925642834131774e-13 2.6778279368255764e+00 0.0000000000000000e+00  -8.4847262422391952e-13 2.6778279368244591e+00 0.0000000000000000e+00  -1.3375901658806937e-12 2.6778279368242779e+00 0.0000000000000000e+00  -2.0866143167999492e-12 2.6778279368246123e+00 0.0000000000000000e+00  -4.1163865544819053e-12 2.6778279368246092e+00 0.0000000000000000e+00  -4.6096240777814944e-12 2.6778279368241198e+00 0.0000000000000000e+00  -2.1295015408596440e-12 2.6778279368225730e+00 0.0000000000000000e+00  9.7325610142505307e-13 2.6778279368228448e+00 0.0000000000000000e+00  1.0951917345273507e-12 2.6778279368238236e+00 0.0000000000000000e+00  7.4850460056660945e-13 2.6778279368231024e+00 0.0000000000000000e+00  8.1128736345514249e-11 2.6778279368225224e+00 0.0000000000000000e+00  -1.6576467812999530e-06 2.6778279368233089e+00 0.0000000000000000e+00  3.4398246417988020e-02 2.6778279368223949e+00 0.0000000000000000e+00  -3.3683628385022049e-02 2.8820946952805002e+00 0.0000000000000000e+00  1.6232092838188273e-06 2.8820946952783002e+00 0.0000000000000000e+00  -7.7348274872756696e-11 2.8820946952804367e+00 0.0000000000000000e+00  1.3664907973050492e-12 2.8820946952806792e+00 0.0000000000000000e+00  -6.9515500882622381e-13 2.8820946952802489e+00 0.0000000000000000e+00  -1.5021922633843639e-12 2.8820946952801192e+00 0.0000000000000000e+00  -1.8336796051905451e-12 2.8820946952794322e+00 0.0000000000000000e+00  -1.5588994321998590e-12 2.8820946952797315e+00 0.0000000000000000e+00  -1.2355945893023393e-12 2.8820946952798514e+00 0.000