<?xml version="1.0"?>
<VTKFile type="UnstructuredGrid"  version="0.1"  >
<UnstructuredGrid>
<Piece  NumberOfPoints="842" NumberOfCells="1558">
<Points>
<DataArray  type="Float64"  NumberOfComponents="3"  format="ascii">-0.0276663799715744 -0.01092484037076335 0  -0.02564535436017864 -0.01084511294647212 0  -0.02670367363770539 -0.009673121330096374 0  -0.005263160237910004 -0.02021752904783427 0  -0.007142011617282996 -0.01910283839912953 0  -0.005721283706472954 -0.01885557948612299 0  -0.0281698471591208 -0.02275267842199816 0  -0.02903513146439706 -0.02434883282751898 0  -0.02995923345153408 -0.02281962011159115 0  -0.02194671231853508 -0.02685161179016307 0  -0.01998381313981156 -0.02559788065223443 0  -0.02251591588925926 -0.02534187964809537 0  -0.01232728691104433 -0.02110916578981165 0  -0.01088465027479771 -0.02276583133720164 0  -0.01252602534445095 -0.02273869080129673 0  0.005715900577929808 -0.01040157292959515 0  0.004247300133094481 -0.009831459016042156 0  0.004907604482269278 -0.01163228449796421 0  -0.03410210568064787 -0.008693516596393575 0  -0.03379801363784417 -0.0103885645650361 0  -0.03562726343960552 -0.009426495186475627 0  0.006078421240027776 -0.01533115251916825 0  0.007761962215727216 -0.01436391407193771 0  0.007560746450350726 -0.01596246015309179 0  -7.74643124966494e-05 -0.01210497681433211 0  0.002001407188016981 -0.01282170755437008 0  0.0005044285752298626 -0.01379044141987053 0  -0.00554502207324609 -0.01082482616207859 0  -0.006966384852671079 -0.01037459975243556 0  -0.007325780537656768 -0.01169056999739311 0  0.0002817996959115863 -0.02849048409288438 0  -0.000521210781477624 -0.03017876919236858 0  -0.001093500833290798 -0.02871309477119382 0  -0.03855671686840088 -0.01158279252224793 0  -0.03682332408031391 -0.01225302138555511 0  -0.0368905664630186 -0.01067239776272578 0  -0.03477498087981482 -0.02000619738968918 0  -0.03576754543181598 -0.02199302756157714 0  -0.0368712770501877 -0.02020029047180321 0  -0.04703432812742372 -0.02574389618985774 0  -0.04510990978682888 -0.02604639913600089 0  -0.04632952237384835 -0.02712048465619426 0  -0.002527586879520364 -0.00629891729928651 0  -0.0001503063646937945 -0.006276275587524281 0  -0.001326895479615754 -0.004595719664517121 0  -0.0391644784367541 -0.01475132581728818 0  -0.03830472500445715 -0.01681657123351652 0  -0.03747211747330889 -0.01525838136698858 0  -0.04075246902758298 -0.009218971500852071 0  -0.0390524324035903 -0.007885807867200442 0  -0.03901033695063318 -0.009802432939280079 0  0.003472222222222224 -0.02569444444444444 0  0.0056511112593847 -0.02488019662884799 0  0.003895180821987836 -0.0236393607118779 0  -0.008984816994941665 -0.02386872512578754 0  -0.01047523617110418 -0.02424834223494819 0  -0.008755951219614224 -0.02540612226970509 0  -0.02607827560230913 -0.005825920664671352 0  -0.02366594197767203 -0.005292891736900223 0  -0.0244176916399364 -0.007091582381241824 0  -0.02367778516049199 -0.03017364301424246 0  -0.02386650680183691 -0.02796326546759065 0  -0.02530794991191344 -0.02877131804044909 0  -0.01141704038127351 -0.0167818866184824 0  -0.01018001736303466 -0.01731677346741527 0  -0.01092651995755553 -0.01555498543504074 0  0.001146640918992101 -0.03102340112947342 0  0.002374909778313783 -0.03024414641598028 0  0.0007456373584565139 -0.02974621554810341 0  -0.04340535430000796 -0.0269894710178804 0  -0.04155359187777521 -0.02721283122394998 0  -0.04292416821868097 -0.02527853614675298 0  -0.0359068175526368 -0.02378498890761314 0  -0.0344744899149291 -0.02368696530563707 0  -0.03869629983246461 -0.02993079031598002 0  -0.04001755749432813 -0.03154569960410863 0  -0.03773880776055265 -0.03135466038045543 0  -0.01519286889167067 -0.02524713998052752 0  -0.01372769770201255 -0.02474768454376013 0  -0.01539547060946176 -0.02382892795598995 0  -0.01339366522435274 -0.01536013878562232 0  -0.01394780381623048 -0.01383273374796204 0  -0.01490915618241073 -0.01544996258508927 0  -0.02045411777499171 -0.02137437814389278 0  -0.01808827066958148 -0.02161702253189069 0  -0.01944913613402156 -0.02323068114780422 0  -0.02083333333333333 -0.02916666666666667 0  -0.01996045286964509 -0.02732161636951317 0  -0.01948607568027211 -0.02870451566043084 0  7.979462213787225e-05 -0.02582162422291141 0  -0.0009137538293355649 -0.02723890034088429 0  -0.001688252126561377 -0.02596267815987898 0  -0.02992158084177625 -0.03174834582032531 0  -0.03167994964754182 -0.03258206454415181 0  -0.03225438180362809 -0.03107962040142952 0  -0.0332818926824345 -0.03653956979812621 0  -0.03199324472616771 -0.03821759015296883 0  -0.03208329558284936 -0.0356823713947898 0  -0.04681050916597652 -0.03624892877251493 0  -0.04845991064854558 -0.03673512378254998 0  -0.04871075467533732 -0.03533381496454418 0  -0.01532173405145471 -0.01057512148167935 0  -0.01329391795258302 -0.01114439183113224 0  -0.01330341998558062 -0.00913423680360549 0  -0.007685836574511986 -0.007395433330292244 0  -0.009035679641316699 -0.005678099849451732 0  -0.009317707561007742 -0.00723817591573791 0  -0.001242692848311552 -0.02453787375321078 0  0.0002330144247192046 -0.02434070912065012 0  -0.02842807177184132 -0.008782837269883144 0  -0.02944926228062005 -0.009670420328744092 0  -0.01885631351121119 -0.01192416515989788 0  -0.01691676593555981 -0.01170096973318147 0  -0.01773829605562014 -0.01310079118234815 0  0.004614118426858764 -0.003565458483726032 0  0.002509334680925278 -0.004358807632452355 0  0.002343081211279474 -0.002873718352678741 0  -0.0256811132162094 -0.01574526990493712 0  -0.02690767244945899 -0.01528906187458992 0  -0.02622650184931827 -0.01695490013392893 0  -0.0389700769880035 -0.02479351460937479 0  -0.04037085504457759 -0.02357245548155283 0  -0.03967306021942603 -0.02235634449025938 0  0.003888413565608712 -0.01876506087328944 0  0.004891551310597494 -0.02075766768178287 0  0.00544129398496433 -0.01923210266410404 0  0.003071894030292726 -0.02042492932582908 0  0.002062167648373497 -0.0188974618762693 0  -0.0057072681558855 -0.02389109188241274 0  -0.007219239710984426 -0.02563954733366955 0  -0.007346103689937933 -0.02388886401972043 0  -0.004305627510404235 -0.01860920323802679 0  -0.003838294149787177 -0.01997663600034633 0  -0.04002020625879645 -0.03599772838717169 0  -0.04003280620145459 -0.03837589288876646 0  -0.04154988470785092 -0.03717873950518868 0  -0.0225476961674239 -0.01444132597291705 0  -0.02025701458283329 -0.01494682055541054 0  -0.0216061340761294 -0.01561750970419796 0  -0.02829648461666062 -0.01956624970699918 0  -0.02707115965843617 -0.02111328273495852 0  -0.0292085379373125 -0.02119822803744204 0  -0.04728154767137447 -0.006405108493471457 0  -0.04604470251786473 -0.007179652518545553 0  -0.0465402423867751 -0.005257825588374055 0  -0.046875 0 0  -0.04531250000000001 -0.001756154364948668 0  -0.04771549300742191 -0.002284506992578096 0  -0.0009083904135866786 -0.008529558496548306 0  0.000950029780725288 -0.009981924865605908 0  0.0008390356868680526 -0.007863289832610657 0  -0.0078125 -0.001818766801925782 0  -0.009005249798019331 -0.003220453989580621 0  -0.006849416828355778 -0.002880654960679921 0  -0.02769414424234968 -0.004535329022474685 0  -0.02757189723697045 -0.007051096417690477 0  -0.0448635495855776 -0.02761310087595703 0  -0.03862197093400277 -0.01903101690089815 0  -0.040801568013976 -0.01930730968599865 0  -0.04009200278840774 -0.02061118635583271 0  -0.04746877202505475 -0.0109375 0  -0.04625552207057551 -0.01250248254200394 0  -0.04822282986172321 -0.01254746375338932 0  -0.005471962873640671 -0.002483469538180225 0  -0.004703752454419383 -0.003891541969087049 0  -0.006032357434950986 -0.00440111221351207 0  0.015625 0 0  0.0140625 0 0  0.01388737105418562 -0.001431809280784936 0  -0.01181095915764366 -0.02754518578663798 0  -0.01362705441163126 -0.02658032522347269 0  -0.0131583949593131 -0.02788978773038426 0  -0.01813881802721089 -0.02824236465419501 0  -0.01783316571178066 -0.02961095015928098 0  -0.008680555555555554 -0.02743055555555555 0  -0.01019665171916844 -0.02882888222490615 0  -0.01030008360592415 -0.02730207136590873 0  -0.002966181741115359 -0.02519100039815357 0  -0.003650638982939926 -0.02687347943237787 0  -0.004763226258762934 -0.02544039938959696 0  -0.00733492014463835 -0.0222500651304849 0  -0.005550790196063865 -0.02199648679170341 0  0.001807424563025037 -0.0170842299175074 0  -8.496028144727461e-05 -0.0173220879651638 0  0.001003955519332805 -0.01812162078302066 0  0.001645105436913761 -0.01133910380044415 0  -0.02782210082246164 -0.01245307863511379 0  -0.0272180192319855 -0.01366321175396599 0  -0.02859666188170644 -0.01347995636094129 0  -0.03001746758328084 -0.01854532903596594 0  -0.02875526836452914 -0.01771333367449953 0  -0.03729550197386729 -0.009143045021487963 0  -0.03106530920251624 -0.021416390819467 0  -0.03121801362079181 -0.02311719699921014 0  -0.02412336947070342 -0.002392407656188244 0  -0.02517425035907583 -0.004044451102670074 0  -0.02553047554310944 -0.001551189984565228 0  -0.04332752203014248 -0.02894861994940035 0  -0.03361300586943999 -0.03280621050224407 0  -0.03504726554755612 -0.03214148367483272 0  -0.03446251600527064 -0.03401240796041776 0  -0.02666093500983432 -0.02972007434472025 0  -0.02825737921890155 -0.03078867343507981 0  -0.02691307433272296 -0.03107019967741321 0  -0.02412288540753498 -0.02548656141284193 0  -0.02502601119571767 -0.02452216257656308 0  -0.02523744315919711 -0.0261723293570944 0  0.007590321611890428 -0.01002544604880517 0  0.009217381127136798 -0.01087786990918838 0  0.008858123610367597 -0.009584568252459222 0  0.01075672523973394 -0.01188005193203498 0  0.008545263046002623 -0.01258731613206785 0  -0.002401366537453123 -0.02012997179630549 0  -0.003768377061401588 -0.02226186400376761 0  -0.001934031832172576 -0.02146311508091197 0  -0.001242172060814776 -0.02269478175693585 0  -0.002687248212944535 -0.02354019374584471 0  -0.008385574756346015 -0.01083162927881422 0  -0.007996120807677542 -0.00927
[...]
<PointData  Vectors="flow"> 
<DataArray  type="Float64"  Name="flow"  NumberOfComponents="3" format="ascii">-1.4418045716911218e-06 -5.1499726746406890e-07 0.0000000000000000e+00  5.0613128329048728e-08 9.2827217777744405e-07 0.0000000000000000e+00  7.4310178076274272e-07 -8.0348187219165466e-07 0.0000000000000000e+00  -2.1976587949367964e-08 2.4250026228807469e-07 0.0000000000000000e+00  2.5478790254579334e-07 4.0415822114741835e-07 0.0000000000000000e+00  -1.7308256442259259e-07 2.4779042197182682e-08 0.0000000000000000e+00  -3.0022404691559728e-07 -2.1802207737066662e-06 0.0000000000000000e+00  8.5181415683955835e-07 1.6120316726257588e-06 0.0000000000000000e+00  1.8406201952253594e-06 -2.7921468374041497e-07 0.0000000000000000e+00  -5.4122185124964609e-07 5.9658383269366073e-07 0.0000000000000000e+00  7.8298314709295479e-07 -1.5457718199811060e-06 0.0000000000000000e+00  -4.3736298226675186e-07 -1.2609574143963731e-06 0.0000000000000000e+00  -7.0740530173712866e-08 -2.9998627208593044e-07 0.0000000000000000e+00  -3.3731030555256998e-07 4.6387648176442917e-07 0.0000000000000000e+00  -2.3761797498339680e-07 -4.0380827383425333e-07 0.0000000000000000e+00  1.8467818352885615e-07 1.0969077443468040e-08 0.0000000000000000e+00  -3.1072967770623907e-08 -6.9087693119265774e-08 0.0000000000000000e+00  5.2122539891203563e-07 -1.0754947803073879e-07 0.0000000000000000e+00  -2.4605984166852132e-06 2.0602296967572800e-06 0.0000000000000000e+00  1.2130088256943667e-06 -2.0428030127608080e-06 0.0000000000000000e+00  -1.4585223124759274e-06 -1.0997038920762444e-06 0.0000000000000000e+00  -1.3737789951688132e-07 -2.5824155435602239e-07 0.0000000000000000e+00  1.1438430165857166e-07 5.9723674959192360e-08 0.0000000000000000e+00  -6.5121059316100818e-08 5.5478335585638381e-07 0.0000000000000000e+00  3.8892696455513380e-08 5.9863585442269455e-08 0.0000000000000000e+00  -1.3757565777577515e-07 -2.4425751435341146e-08 0.0000000000000000e+00  1.7328006575509734e-07 2.1106069718569900e-07 0.0000000000000000e+00  -5.0594493770908499e-08 -7.2800570742838610e-08 0.0000000000000000e+00  1.5067335815512285e-07 -2.2206282448627314e-07 0.0000000000000000e+00  1.2804158316159704e-08 -3.7991009046395785e-08 0.0000000000000000e+00  -2.7055110524648401e-08 -5.1939016861826213e-07 0.0000000000000000e+00  3.6721825065807819e-07 3.0585264698725302e-07 0.0000000000000000e+00  7.9009288963770329e-08 6.6283777884589523e-07 0.0000000000000000e+00  4.1605447590503713e-07 1.1401608363077852e-06 0.0000000000000000e+00  -2.0239094673485163e-06 1.8442440135777433e-06 0.0000000000000000e+00  1.6360803844412445e-06 -7.6959718697673917e-07 0.0000000000000000e+00  -5.6508000855041355e-07 -4.8256808946979498e-06 0.0000000000000000e+00  2.0474722147089828e-06 4.1251518985618007e-07 0.0000000000000000e+00  2.6543941941666688e-06 4.8815403549825322e-06 0.0000000000000000e+00  -1.1676397017800995e-06 -1.2481914100587664e-06 0.0000000000000000e+00  -1.9190012108167579e-07 -6.9619731652978878e-08 0.0000000000000000e+00  7.9353126500187861e-08 3.2010679509131893e-07 0.0000000000000000e+00  -1.7580566965330161e-07 2.8682289628541590e-07 0.0000000000000000e+00  1.9792212909702578e-07 -1.0817481109957813e-08 0.0000000000000000e+00  -1.2351554779970514e-07 -2.0203103787090543e-07 0.0000000000000000e+00  3.4276309168180072e-07 -5.9906145852872449e-07 0.0000000000000000e+00  9.6912269050019212e-07 -1.0098063516746276e-06 0.0000000000000000e+00  -2.3865254562225833e-06 1.8405444702187761e-06 0.0000000000000000e+00  7.4325474557633244e-07 -2.2390315454365353e-07 0.0000000000000000e+00  -4.6250192418905314e-08 7.3069558493332339e-07 0.0000000000000000e+00  -1.8324678859277868e-06 -1.4811562859544238e-06 0.0000000000000000e+00  2.3443449670492515e-08 4.0586927234784925e-08 0.0000000000000000e+00  2.9802084884231006e-08 -2.8502339891137626e-07 0.0000000000000000e+00  9.4380373063535192e-08 8.0319489808886626e-08 0.0000000000000000e+00  4.9925739911440702e-07 1.1282573817598546e-07 0.0000000000000000e+00  1.8052445082228677e-07 -5.4503916521104890e-07 0.0000000000000000e+00  1.3019590832794516e-07 9.0589451586301488e-08 0.0000000000000000e+00  9.6555618812351526e-08 -5.2839644347988187e-07 0.0000000000000000e+00  -3.2654963963123387e-08 2.2199457042689388e-08 0.0000000000000000e+00  6.5085484313243792e-07 2.1977349902370403e-07 0.0000000000000000e+00  1.1110820214357145e-06 -7.9400111130593617e-07 0.0000000000000000e+00  -1.1835881875107434e-07 2.3684156461991043e-06 0.0000000000000000e+00  -4.6858184490940993e-07 -1.6625795542413315e-06 0.0000000000000000e+00  -5.3328202764610632e-07 6.3583342793107088e-08 0.0000000000000000e+00  -2.5490259743081857e-07 2.4636829090073499e-08 0.0000000000000000e+00  9.8171276237085451e-07 1.2221594290077773e-07 0.0000000000000000e+00  4.3481722077743257e-07 1.1137212906246838e-06 0.0000000000000000e+00  -3.1825459189410316e-07 4.0275174829503642e-07 0.0000000000000000e+00  -1.3385989760585538e-07 -2.8085509327523693e-07 0.0000000000000000e+00  1.1683177967732787e-06 -1.9292975981511681e-06 0.0000000000000000e+00  -8.4068985189116271e-07 -1.1943923600898289e-07 0.0000000000000000e+00  -1.2874955148414112e-06 9.2479128329829552e-08 0.0000000000000000e+00  -2.8483766599926886e-06 3.3503933280605566e-06 0.0000000000000000e+00  1.0510818679754353e-06 -1.1101002541959217e-06 0.0000000000000000e+00  -2.8591126636777714e-07 -1.2057698531737741e-06 0.0000000000000000e+00  -2.9316376004652170e-08 8.5000406609534419e-07 0.0000000000000000e+00  -1.7734525221133672e-07 1.1921968491071756e-06 0.0000000000000000e+00  1.0673750073951754e-06 4.2694051701738403e-07 0.0000000000000000e+00  -1.1041271197896608e-06 3.9008923122914871e-07 0.0000000000000000e+00  3.9789237358591139e-08 2.4386775979307393e-07 0.0000000000000000e+00  1.9140533899239221e-07 -2.8453933040471587e-07 0.0000000000000000e+00  -1.7421965774352018e-07 3.4141000094672336e-07 0.0000000000000000e+00  5.9628321407385958e-07 -6.7392403394780251e-07 0.0000000000000000e+00  -2.4258589603754640e-06 -7.6950780589345495e-08 0.0000000000000000e+00  9.8651627734632005e-08 -7.5136550509250959e-07 0.0000000000000000e+00  2.4020252456042149e-06 1.4914527098518034e-07 0.0000000000000000e+00  1.4415213843184901e-06 1.2340301058229003e-06 0.0000000000000000e+00  -2.1091996553577230e-06 -1.6133349639595902e-06 0.0000000000000000e+00  1.4866109857435944e-06 1.1427576199107207e-07 0.0000000000000000e+00  2.0042498147483508e-07 -1.0477119108489587e-07 0.0000000000000000e+00  4.3619565308586596e-07 -3.9645661319247144e-07 0.0000000000000000e+00  3.9988809355452762e-07 -3.5494612651939399e-08 0.0000000000000000e+00  -1.5248234906685390e-07 8.6343946377719505e-07 0.0000000000000000e+00  2.3008373076652508e-06 -9.4707533150341930e-07 0.0000000000000000e+00  -4.1446943495142408e-07 1.1895861797058840e-06 0.0000000000000000e+00  -2.9656250068019892e-07 6.8510758408728695e-07 0.0000000000000000e+00  8.8943695644447199e-07 -1.0887004755560276e-07 0.0000000000000000e+00  2.1050108477156965e-06 2.2126731134792773e-06 0.0000000000000000e+00  1.3758677283470112e-07 -1.5337396206021404e-07 0.0000000000000000e+00  8.8769968482410803e-08 3.7389780613084220e-07 0.0000000000000000e+00  -1.2494186280998977e-07 -2.0052531588812700e-09 0.0000000000000000e+00  5.6160211280707193e-07 1.2067653000615727e-07 0.0000000000000000e+00  -4.9907616673525282e-07 -5.9213412489875016e-07 0.0000000000000000e+00  -1.1089057215033538e-07 4.4669513774591160e-07 0.0000000000000000e+00  1.6621030617264464e-09 1.2553980901422996e-07 0.0000000000000000e+00  5.1780439365515446e-09 -6.7755174171527280e-09 0.0000000000000000e+00  3.3304216408539869e-07 -1.8968724240424814e-07 0.0000000000000000e+00  2.8895500268047725e-07 4.4542953305492764e-07 0.0000000000000000e+00  -3.0585991129824714e-07 -2.1624436559656725e-07 0.0000000000000000e+00  7.6140486886159239e-07 5.1289093190760843e-07 0.0000000000000000e+00  7.1431560489196216e-07 -9.1997092651425612e-07 0.0000000000000000e+00  -9.1592449270483041e-07 5.9745284611313993e-07 0.0000000000000000e+00  8.0386878500586739e-07 -1.2776553439301802e-06 0.0000000000000000e+00  -3.5172585857474817e-07 5.0676175089757489e-07 0.0000000000000000e+00  -9.1535820086882527e-08 4.0700335213182269e-08 0.0000000000000000e+00  7.9617402875427298e-08 -1.1281231999370112e-07 0.0000000000000000e+00  2.2151314714030415e-09 -1.3634998403830586e-08 0.0000000000000000e+00  1.8799989791723678e-06 -1.0739541496131545e-06 0.0000000000000000e+00  1.8223405982596021e-07 2.3865150714251959e-07 0.0000000000000000e+00  -3.8510568674999845e-07 3.6640653769442469e-06 0.0000000000000000e+00  3.8686944225628820e-07 2.2873667878993061e-06 0.0000000000000000e+00  -1.1491995676963671e-06 -7.6045289893783370e-07 0.0000000000000000e+00  1.9260055905006109e-06 -1.0166199567883828e-06 0.0000000000000000e+00  -2.4321243462308147e-07 4.0645764767292674e-07 0.0000000000000000e+00  7.3110620854449511e-08 4.1477964514388664e-09 0.0000000000000000e+00  -4.5831662208207005e-07 -5.0962590001948916e-07 0.0000000000000000e+00  2.5450303739844765e-07 -2.4516963823269300e-07 0.0000000000000000e+00  -1.3022392998264751e-08 4.1179969254607406e-07 0.0000000000000000e+00  2.7835569809733062e-07 1.8402591346623040e-07 0.0000000000000000e+00  -1.4957242880181807e-07 -3.9038548426501365e-07 0.0000000000000000e+00  -2.8682258776647253e-07 -6.5329839497444492e-08 0.0000000000000000e+00  -1.2944279352351262e-07 -1.1661968791147874e-08 0.0000000000000000e+00  1.3499514802275242e-07 1.4792826747683340e-07 0.0000000000000000e+00  7.0628434981406684e-07 -1.8461783294623762e-07 0.0000000000000000e+00  3.4168034541723256e-07 -2.7172937543645831e-07 0.0000000000000000e+00  -6.1563617445505449e-07 -2.0142251074441064e-06 0.0000000000000000e+00  4.2759324903099639e-07 -1.0339674582554440e-06 0.0000000000000000e+00  -6.0662264493670263e-07 6.8071959058060574e-07 0.0000000000000000e+00  2.5457138032778668e-07 -4.1330053182499246e-07 0.0000000000000000e+00  2.8262895490643364e-06 3.1120346462848039e-06 0.0000000000000000e+00  2.1672731179697030e-06 6.3623344204078889e-07 0.0000000000000000e+00  -2.4333445058849449e-06 -1.1445030291044204e-06 0.0000000000000000e+00  -6.4966878376539639e-07 -3.9676965318718161e-07 0.0000000000000000e+00  -1.1303600861371470e-06 2.3582033563986661e-07 0.0000000000000000e+00  -9.2268624405198405e-07 -8.7982732893065504e-08 0.0000000000000000e+00  -1.1173569713966284e-07 7.8010435281082098e-07 0.0000000000000000e+00  3.5404884064022472e-07 -8.2307044632142711e-08 0.0000000000000000e+00  -5.2562587659982135e-07 -3.2483192371597955e-08 0.0000000000000000e+00  1.8602490189928356e-07 -1.2210730309646232e-07 0.0000000000000000e+00  -1.0230935316527220e-07 -1.1565743548909440e-09 0.0000000000000000e+00  -2.0146230065640544e-07 1.8379367936418416e-07 0.0000000000000000e+00  1.7999328224561142e-07 -1.5160509361272252e-08 0.0000000000000000e+00  1.0520255475718012e-07 -1.5546644031154336e-07 0.0000000000000000e+00  -9.1049241449402698e-08 5.8631233755993623e-08 0.0000000000000000e+00  2.9790134811401583e-07 -4.5732733526608757e-07 0.0000000000000000e+00  -7.5545542944980806e-07 4.9190514692642030e-07 0.0000000000000000e+00  4.7503756091726081e-07 9.2008549543169923e-07 0.0000000000000000e+00  2.5417898706624334e-06 -1.2151288036568935e-06 0.0000000000000000e+00  -7.8122468190524972e-07 -8.0679820771948991e-07 0.0000000000000000e+00  -4.8148735008194697e-07 1.1968777181073587e-06 0.0000000000000000e+00  6.9948819455078647e-08 -6.0714223919408309e-07 0.0000000000000000e+00  -9.0701966521713989e-07 5.0711857137214722e-07 0.0000000000000000e+00  6.2296960955919187e-07 6.4884930075294293e-08 0.0000000000000000e+00  -2.5885229133294013e-07 -1.3467393329077461e-07 0.0000000000000000e+00  1.2183180023900720e-07 -1.3509933916961316e-07 0.0000000000000000e+00  -6.7505022772476930e-08 1.7100659901865194e-08 0.0000000000000000e+00  -5.9758332945262030e-07 2.2319641439833180e-06 0.0000000000000000e+00  1.8852939040684020e-06 -1.8478563991035488e-06 0.0000000000000000e+00  1.3541709672829540e-07 -1.8262429478879259e-07 0.0000000000000000e+00  -1.6099848433461193e-06 -1.9609294514341335e-06 0.0000000000000000e+00  9.3082403736520238e-07 -6.8081402827198362e-07 0.0000000000000000e+00  7.9993193959682512e-07 -6.7698389197485885e-07 0.0000000000000000e+00  4.1933108212485477e-07 7.1070276259917109e-07 0.0000000000000000e+00  -2.1446117419374744e-06 1.2621080056511257e-06 0.0000000000000000e+00  1.8998728403273136e-07 2.9225640012928112e-07 0.0000000000000000e+00  -6.0145303257514772e-07 5.0529731786362152e-07 0.0000000000000000e+00  4.8895600444427340e-07 -5.1696858200687319e-07 0.0000000000000000e+00  -2.0627458992607314e-07 4.2414427275349470e-07 0.0000000000000000e+00  -5.2354723279309862e-07 -6.1020922729997514e-07 0.0000000000000000e+00  7.8288965769750150e-08 1.8504180994610464e-07 0.0000000000000000e+00  -2.1129630857401246e-07 -4.7557619804576197e-08 0.0000000000000000e+00  5.6451207996932537e-08 -3.0216949671610017e-07 0.0000000000000000e+00  1.0104984631439612e-08 -1.9063008909455337e-07 0.0000000000000000e+00  9.3656657572066401e-08 8.8344297709794848e-08 0.0000000000000000e+00  -5.6709256446602584e-07 -2.8721787125482823e-07 0.0000000000000000e+00  1.5407680770543988e-08 -3.6539063833485950e-07 0.0000000000000000e+00  -1.8077528297791934e-06 3.4568229989137367e-06 0.0000000000000000e+00  -2.2691280302242078e-06 -1.4330066189808902e-06 0.0000000000000000e+00  2.3065102495824449e-06 -3.1718768300221868e-06 0.0000000000000000e+00  -1.1901310474870715e-07 -3.2262939759804374e-06 0.0000000000000000e+00  6.3154401210749547e-06 2.2178278873479571e-06 0.0000000000000000e+00  8.0771380148049066e-07 1.3750098140574714e-07 0.0000000000000000e+00  9.4714963176686175e-07 5.9097336654551929e-06 0.0000000000000000e+00  -1.8884343025613929e-07 1.4974977580360762e-06 0.0000000000000000e+00  6.7326259923817406e-07 -3.0163984907543842e-07 0.0000000000000000e+00  -3.3440032518902000e-07 1.2067665981035795e-07 0.0000000000000000e+00  -3.3576043577232398e-07 4.5498367360268121e-09 0.0000000000000000e+00  -1.7231687904854272e-07 1.0161981224964861e-06 0.0000000000000000e+00  -2.1502230576755857e-06 4.7657935889859962e-07 0.0000000000000000e+00  -1.4801159242527226e-07 2.2770262796275415e-07 0.0000000000000000e+00  -4.8522547225722950e-07 -6.7966708835508889e-07 0.0000000000000000e+00  -2.4935357194919928e-07 -9.4518591116077434e-08 0.0000000000000000e+00  -1.2316613463619687e-06 3.9008761025240696e-06 0.0000000000000000e+00  1.0311792157126589e-07 -4.0819108487659367e-07 0.0000000000000000e+00  7.9785049404154898e-07 4.3251952897036793e-07 0.0000000000000000e+00  -1.6107034022687584e-06 2.8346597824870551e-06 0.0000000000000000e+00  -4.7085194372005129e-07 -1.4611823389544731e-06 0.0000000000000000e+00  -6.0381625236707795e-07 5.0361168803163750e-07 0.0000000000000000e+00  -1.9569014848386882e-07 -5.3018880481534159e-07 0.0000000000000000e+00  7.8113013419017580e-07 6.0969965092728039e-07 0.0000000000000000e+00  -1.6666010692659368e-08 2.3685321955806507e-07 0.0000000000000000e+00  6.5235951135036128e-07 -5.6159430163499373e-07 0.0000000000000000e+00  3.9747632249438142e-08 -3.1087515879970080e-07 0.0000000000000000e+00  -9.1954067213740786e-09 -6.3475014856080770e-08 0.0000000000000000e+00  9.2352084005050969e-08 3.8851307959238073e-07 0.0000000000000000e+00  -7.1184348291023119e-08 -1.7651774453825113e-07 0.0000000000000000e+00  1.3744447809377656e-07 -1.8876412659441563e-07 0.0000000000000000e+00  7.9415783895237031e-08 -4.3077025261069511e-08 0.0000000000000000e+00  -3.3696502677350391e-08 1.5712387542645173e-07 0.0000000000000000e+00  -8.9148258820613177e-08 3.2954486805012238e-07 0.0000000000000000e+00  1.4109810026433082e-07 -1.4487544982716618e-07 0.0000000000000000e+00  -5.8045611010193387e-07 -5.8305776443024173e-08 0.0000000000000000e+00  -1.2038677526721591e-06 1.1659564143241951e-06 0.0000000000000000e+00  5.3833384295153801e-07 1.7496597894333850e-08 0.0000000000000000e+00  1.3599864904074254e-06 1.0852231214324193e-07 0.0000000000000000e+00  3.3332593841630183e-07 -2.7736264277716135e-07 0.0000000000000000e+00  5.2844360546947446e-07 -4.4211995510887495e-07 0.0000000000000000e+00  -6.2235235079980510e-08 6.8134625608211732e-07 0.0000000000000000e+00  1.6982976634044282e-06 -2.1519081394889673e-07 0.0000000000000000e+00  -2.4119948707087237e-06 -1.4419804706493278e-06 0.0000000000000000e+00  1.6972105051630186e-06 -8.2915588322692933e-07 0.0000000000000000e+00  5.1628563604954362e-07 -3.0371971223826576e-06 0.0000000000000000e+00  -4.4245610925090421e-06 2.0290501043757896e-06 0.0000000000000000e+00  4.4714184765123596e-08 2.1872414793070429e-06 0.0000000000000000e+00  4.8095352352808216e-07 -1.5827384936872286e-06 0.0000000000000000e+00  -1.4375365455063668e-07 -1.4570534909627949e-06 0.0000000000000000e+00  6.6323919508666232e-07 2.7681071233358581e-07 0.0000000000000000e+00  7.3941852074502849e-07 2.7970729526521246e-07 0.0000000000000000e+00  -9.3850425510646280e-07 5.8902699609075639e-08 0.0000000000000000e+00  4.8621931888919474e-07 -8.0178399112454386e-07 0.0000000000000000e+00  5.8163742261932622e-07 3.0912631652983482e-07 0.0000000000000000e+00  1.0635486397217976e-06 -1.1414287602362175e-06 0.0000000000000000e+00  -4.2906724451859791e-07 4.4223249257236329e-07 0.0000000000000000e+00  8.5508297403542000e-09 -1.0218754069150515e-07 0.0000000000000000e+00  1.5544350471761588e-06 8.2163827785601334e-07 0.0000000000000000e+00  -2.9212008007871130e-07 -6.7854603711944676e-07 0.0000000000000000e+00  -2.4860812191419129e-07 6.6066746442567652e-07 0.0000000000000000e+00  -1.3494583447569898e-06 6.7826230777488055e-07 0.0000000000000000e+00  -1.0282673477657406e-06 -1.5270178172569507e-06 0.0000000000000000e+00  2.3955525858709564e-06 -2.1030581731778752e-07 0.0000000000000000e+00  5.3130674500260294e-07 -1.3795809229726623e-06 0.0000000000000000e+00  2.2234517878159190e-08 -4.1899870487525835e-07 0.0000000000000000e+00  -3.2198845501187148e-08 -5.9349645778613326e-07 0.0000000000000000e+00  9.3101067583599890e-07 -2.4024472204136953e-07 0.0000000000000000e+00  -1.0636116947048709e-06 5.1385779563203050e-06 0.0000000000000000e+00  -1.2031043517771368e-06 1.5372644083412799e-06 0.0000000000000000e+00  6.1167184540253337e-08 -1.7729914469265193e-06 0.0000000000000000e+00  -7.7894446658849860e-07 -7.3625245525939447e-07 0.0000000000000000e+00  4.7332771133481791e-07 4.1233940357231470e-07 0.0000000000000000e+00  7.9704385823927846e-07 1.9994058003852045e-07 0.0000000000000000e+00  -2.2967360901462717e-08 1.0793812768235024e-06 0.0000000000000000e+00  -9.0952295447438194e-07 7.2262416754785357e-07 0.0000000000000000e+00  1.7811139350814290e-07 4.6341294765876938e-07 0.0000000000000000e+00  -8.9150145701141901e-07 -9.2528671329441334e-07 0.0000000000000000e+00  -1.7733689183224295e-07 -5.7328641230693961e-08 0.0000000000000000e+00  4.5806162820908467e-07 1.0780925029354496e-06 0.0000000000000000e+00  1.3175613260561123e-07 -1.9981529724779174e-07 0.0000000000000000e+00  -1.6356033877065408e-06 -4.3942619044676074e-06 0.0000000000000000e+00  3.2854385145706000e-06 -2.2294617210847634e-07 0.0000000000000000e+00  9.1993206230647391e-07 -9.0099425711556418e-08 0.0000000000000000e+00  3.7743387621292586e-07 4.4871131606429227e-06 0.0000000000000000e+00  -2.3836448058847574e-08 -5.8737991083582836e-08 0.0000000000000000e+00  3.0171439893005545e-07 -2.7180995296722352e-07 0.0000000000000000e+00  1.0747901859722106e-07 1.4748575777003315e-07 0.0000000000000000e+00  -4.4341494623416778e-07 1.0697339969715692e-07 0.0000000000000000e+00  5.3713371073161043e-08 8.1701726976154476e-08 0.0000000000000000e+00  -5.3652171102059147e-08 5.5813233433835707e-08 0.0000000000000000e+00  -1.2955476050288868e-07 -3.0793679353848984e-08 0.0000000000000000e+00  -2.4912477580811179e-07 -9.9087576161865764e-08 0.0000000000000000e+00  5.2468435908474199e-07 -9.5610871519115437e-07 0.0000000000000000e+00  -1.0651586144