<?xml version="1.0"?>
<VTKFile type="UnstructuredGrid"  version="0.1"  >
<UnstructuredGrid>
<Piece  NumberOfPoints="654" NumberOfCells="1220">
<Points>
<DataArray  type="Float64"  NumberOfComponents="3"  format="ascii">-0.05 0 0  -0.05 -0.1 0  0.05 -0.1 0  0.05 0 0  0 -0.1 0  0.05 -0.05 0  0 0 0  -0.05 -0.05 0  0 -0.05 0  -0.025 -0.1 0  -0.025 0 0  -0.05 -0.025 0  0.025 -0.1 0  0.05 -0.025 0  0.025 0 0  0.025 -0.06875000000000001 0  0.025 -0.03750000000000001 0  -0.02083333333333333 -0.02916666666666667 0  -0.05 -0.07500000000000001 0  -0.02083333333333333 -0.07083333333333333 0  0.05 -0.07500000000000001 0  0.003472222222222224 -0.02569444444444444 0  0.002378144654088049 -0.07627751572327045 0  -0.02083333333333333 -0.05 0  0.03125 -0.01875 0  -0.01233019290593089 -0.08678347112328397 0  -0.0125 -0.0130952380952381 0  -0.03690476190476191 -0.03750000000000001 0  -0.03541666666666667 -0.06041666666666666 0  -0.03385416666666667 -0.01614583333333334 0  0.05 -0.08750000000000001 0  0.03750000000000001 -0.1 0  -0.03385416666666666 -0.08385416666666666 0  0.03348214285714286 -0.08348214285714287 0  0.0125 0 0  0.0125 -0.1 0  0.01719551374627341 -0.0830513925183794 0  0.01029527261028368 -0.06231463651962176 0  0.0328125 -0.05312500000000001 0  -0.01041666666666666 -0.03958333333333333 0  -0.01041666666666667 -0.06041666666666667 0  0.01470753125203114 -0.04816506250406229 0  0.01799242424242424 -0.02474747474747475 0  0.03750000000000001 -0.03125 0  0.05 -0.0625 0  0.00625 -0.01223723723723724 0  0.05 -0.0125 0  0.03750000000000001 0 0  0.03765012642225032 -0.07127449431099875 0  0.02021617032392894 -0.01201127655869035 0  0.006028532990060553 -0.03846042534778643 0  -0.05 -0.0625 0  -0.03750000000000001 0 0  -0.05 -0.03750000000000001 0  -0.0125 -0.1 0  -0.0125 0 0  -0.05 -0.0125 0  -0.03750000000000001 -0.1 0  0.05 -0.03750000000000001 0  -0.05 -0.08750000000000001 0  -0.008680555555555554 -0.02743055555555555 0  0.006250000000000001 -0.08914373740925415 0  -0.009584768711776409 -0.07507825100308022 0  -0.03268229166666667 -0.07200520833333332 0  0.03939012096774194 -0.04309475806451613 0  0.02190003906503893 -0.05743439453251947 0  -0.03834537706133037 -0.04910019455252918 0  0.01284084887861751 -0.07298400536762802 0  -0.02264613483542079 -0.0820413651645792 0  -0.02366071428571428 -0.01123511904761905 0  -0.03199404761904762 -0.02730654761904763 0  -0.0244047619047619 -0.06041666666666667 0  -0.01041666666666666 -0.05 0  -0.02083333333333332 -0.03958333333333333 0  2.405987640392848e-05 -0.0604407265430706 0  -0.002910133850527605 -0.01736173448892657 0  -0.02961483445283294 -0.04429487938443922 0  0.0390625 -0.0109375 0  0.040625 -0.021875 0  0.028125 -0.028125 0  -0.04176917540113871 -0.06803243885869564 0  0.03965658412817928 -0.06102022076500465 0  0.01533845899304755 -0.03450745320159019 0  0.02948377458963575 -0.008744075527611174 0  0.02448333984417315 -0.04800472330961902 0  -0.002638588467448458 -0.08480290334513936 0  0.01875 -0.09260679016400503 0  0.02801599660666901 -0.09111197895245939 0  0.0427726833976834 -0.08125000000000002 0  0.04010991573299855 -0.09061756875992701 0  -0.03125000000000001 -0.09292674731182796 0  -0.04078102849914793 -0.09075246902758297 0  -0.04292674731182795 -0.08125000000000002 0  -0.04292674731182796 -0.01875 0  -0.04075246902758298 -0.009218971500852071 0  -0.002501899107215252 -0.03451361758785813 0  -0.01875 -0.09331034417873318 0  -0.04137052725919914 -0.02906901041666667 0  -0.02515071191829004 -0.02065873579545455 0  -0.004560476962080258 -0.008160345583815167 0  -0.01571003401360544 -0.02162698412698413 0  -0.006250000000000001 -0.09347094524847423 0  -0.03184688459542486 -0.007177652942204195 0  -0.043423574176247 -0.05645164743293771 0  -0.002931194584325539 -0.06897337298686135 0  0.04141166808534667 -0.05159229946940671 0  0.03072628767995273 -0.06184751883997637 0  0.01331794183364191 -0.01736907532119644 0  -0.02991071428571428 -0.05329326110353833 0  0.0302193738423544 -0.07555280640245397 0  -0.02844810693838604 -0.03529440998727736 0  -0.05 -0.04375 0  0.009435764744425919 -0.08043238240966273 0  0.02057363836381549 -0.07561467685960577 0  0.025334823172674 -0.08341820123348352 0  0.005194622404326759 -0.06864849887959712 0  0.01732194592699554 -0.06627651681808928 0  0.006285662925187238 -0.05520590615175079 0  -0.01875 0 0  0.03186492887377232 -0.04533174938342453 0  -0.0008783629089698517 -0.04219661564043644 0  0.05 -0.00625 0  0.03375689409777979 -0.03792049068961304 0  0.05 -0.06875000000000001 0  0.01439721346977286 -0.05583102001882564 0  0.007184194424042271 -0.04772337119454249 0  0.01846824474048517 -0.04149541481145257 0  -0.01682300313953808 -0.07723258764373991 0  0.01091777409106017 -0.0280645394299259 0  -0.01562499999999999 -0.034375 0  -0.005184328773648671 -0.055232337893018 0  -0.015625 -0.05520833333333333 0  -0.01562499999999999 -0.04479166666666667 0  -0.01741071428571429 -0.06383928571428571 0  -0.01017446891572471 -0.06775731747543173 0  0.02462121212121212 -0.02174873737373738 0  -0.01727537722908093 -0.007335299088771311 0  -0.04246234479210493 -0.04269936147867359 0  0.02155204304257197 -0.03095624460965786 0  0.01316725552433098 -0.00805546078058521 0  0.01875 0 0  -0.02717633928571428 -0.0671875 0  -0.02899339936689958 -0.07835247286481212 0  0.034375 -0.025 0  0.04269000268040276 -0.03649499463919448 0  0.04375 0 0  0.04375 -0.02812499999999999 0  -0.03761497647442349 -0.02322577938762476 0  0.05 -0.05625 0  -0.02487731781150031 -0.08912078797260026 0  -0.03695888676976247 -0.07756467740738612 0  0.002206599034779407 -0.006587679234291101 0  0.003888413565608712 -0.01876506087328944 0  0.04375 -0.1 0  0.05 -0.09375 0  -0.008944539808483216 -0.02059134745263918 0  -0.04331057662916364 -0.07455691519284439 0  0.0439453125 -0.0158203125 0  -0.0001289479518082485 -0.09093484953796985 0  -0.04345238095238095 -0.03556995462159739 0  -0.01996941165388946 -0.01664836497274012 0  -0.04375 -0.1 0  -0.05 -0.09375 0  -0.04375 0 0  -0.05 -0.00625 0  0.005594154517873918 -0.03190847365283561 0  0.01173248358540133 -0.04209249512146222 0  0.03419217537052396 -0.09402564429600242 0  0.01187454317038147 -0.09313287027544383 0  0.00625 -0.1 0  0.02629142191479375 -0.01446643061282435 0  0.021875 -0.005713666436405997 0  0.04321758283034931 -0.06704044172466167 0  0.03164035608931087 -0.06843232885197728 0  0.04337196116786825 -0.07463925880684733 0  0.03637679552963742 -0.07765509762578199 0  0.003626010873625676 -0.08324593924595615 0  -0.01086143623908221 -0.006877234301934964 0  0.05 -0.04375 0  0.01179919481827354 -0.08623489346281316 0  -0.01250448524457812 -0.09373974299368953 0  -0.05 -0.06875000000000001 0  -0.03125 0 0  -0.03125 -0.1 0  0.03125 0 0  0.05 -0.03125 0  -0.05 -0.03125 0  0.03125 -0.1 0  -0.00625 -0.1 0  -0.01875 -0.1 0  -0.05 -0.01875 0  0.01875 -0.1 0  -0.00625 0 0  0.00625 0 0  0.05 -0.01875 0  -0.05 -0.05625 0  -0.05 -0.08125000000000002 0  0.05 -0.08125000000000002 0  -0.005208333333333331 -0.04663513209089385 0  -0.008645094114120339 -0.03363601830115741 0  -0.01475694444444444 -0.0282986111111111 0  -0.002375017943413014 -0.02816654106277556 0  0.01949511126133643 -0.01820257885343882 0  -0.01184447766846871 -0.08072281861600734 0  -0.003534735552586339 -0.07499381884380991 0  -7.74643124966494e-05 -0.01210497681433211 0  -0.0189894669743643 -0.08708512345290294 0  -0.03573478741405032 -0.06660859450219164 0  0.04359375 -0.006406250000000002 0  0.03517259397916334 -0.00591284371726238 0  0.01965556274601837 -0.05175082112889391 0  0.0278582381998454 -0.05655080703154879 0  0.02250150625287546 -0.06335204673888746 0  -0.04398521510889171 -0.06244044890584508 0  -0.04409485128436456 -0.05055827494263457 0  -0.03770557434490081 -0.05497182533168162 0  -0.03656642640981419 -0.04343156897269072 0  0.009194419875177533 -0.02206075900562258 0  0.04451331908599852 -0.04636519166703897 0  -0.01485520520633521 -0.0715431557666749 0  0.03646473132841593 -0.0487266977067035 0  0.04405668594067944 -0.05696201317865261 0  -0.005203169869815907 -0.063408387077611 0  -0.02247505510150612 -0.07631841748069951 0  -0.02804244587606518 -0.08423194559419436 0  -0.02935822174816368 -0.01244339991380455 0  -0.03106530920251624 -0.021416390819467 0  -0.02607827560230913 -0.005825920664671352 0  -0.03361300586943999 -0.03280621050224407 0  -0.02666093500983432 -0.02972007434472025 0  0.02285652838955744 -0.08859591663874328 0  0.03188089108105607 -0.03248232675683183 0  0.004333204611837944 -0.09457186870462708 0  -0.02704324561419352 -0.07289471972323462 0  0.007922643115429704 -0.005561362357538799 0  0.0335055138043014 -0.01319301380430141 0  0.03678783220616013 -0.0177615033815196 0  -0.02428736139211932 -0.05463634003970875 0  -0.02991071428571428 -0.06211553281168236 0  0.01197199101441062 -0.06755294829741498 0  0.007340105850365504 -0.07377496925579345 0  0.0155154430127655 -0.07780260757679426 0  0.03658895737846099 -0.06574341599602251 0  -0.02410709817404581 -0.09456977129140082 0  0.01071697988857716 -0.05184278466318995 0  0.01728938824664831 -0.06065342293474459 0  -0.001242172060814776 -0.02269478175693585 0  -0.03834687844188856 -0.07228526864991387 0  0.03504935696459177 -0.08867226036471411 0  0.03924608506562968 -0.08530978616477196 0  0.04446421559415197 -0.08718473081338503 0  0.02679267124047066 -0.0428532372923227 0  -0.007808666799817795 -0.01546134924060014 0  -0.02636641232583814 -0.04890574755055194 0  -0.02267804660897878 -0.04479166666666666 0  0.03489498531895979 -0.05823382415106163 0  3.608994237358591e-05 -0.05522030782704834 0  0.005332838990544739 -0.06042849285714701 0  -0.04436969017718883 -0.02424446436705185 0  -0.01009042364871584 -0.04479166666666667 0  -0.01041666666666667 -0.05520833333333333 0  -0.015625 -0.05 0  -0.01562499999999999 -0.03958333333333334 0  -0.02083333333333332 -0.034375 0  0.04436432681906392 -0.09436432681906393 0  -0.02240513392857143 -0.06518787202380952 0  0.045371774633
[...]
<PointData  Vectors="flow"> 
<DataArray  type="Float64"  Name="flow"  NumberOfComponents="3" format="ascii">-8.3645103525815962e-03 2.9928460308456484e+00 0.0000000000000000e+00  -5.9112037520736952e-08 1.8953573984150840e-07 0.0000000000000000e+00  1.5318318270697060e-07 2.9935535672720350e-07 0.0000000000000000e+00  2.2662567334799433e-02 2.9950108369286106e+00 0.0000000000000000e+00  -6.7147873152620808e-08 -6.8118018724325905e-08 0.0000000000000000e+00  9.9895434992980110e-04 3.5842003034632794e-02 0.0000000000000000e+00  1.5799044364119212e-02 2.9706776698896711e+00 0.0000000000000000e+00  -2.8195113357969179e-03 3.4398719830863032e-02 0.0000000000000000e+00  1.6408557547766748e-04 3.4873571714303019e-02 0.0000000000000000e+00  3.0619599470319524e-08 1.1739480044547955e-08 0.0000000000000000e+00  -8.8475009475391387e-05 2.9922279923485120e+00 0.0000000000000000e+00  -2.3876814388267806e-02 9.7533635742114999e-01 0.0000000000000000e+00  9.1623589365531859e-08 1.4266018283697738e-07 0.0000000000000000e+00  5.6373108140860363e-02 1.0505036520753490e+00 0.0000000000000000e+00  1.9794015882320499e-04 2.9850404010122191e+00 0.0000000000000000e+00  -4.6379409824374758e-05 6.1152504404213184e-04 0.0000000000000000e+00  3.6399237042650983e-03 2.4172069174196936e-01 0.0000000000000000e+00  2.0514012413922717e-02 6.3356105059740975e-01 0.0000000000000000e+00  -1.6242561784264498e-05 1.6622655175767208e-04 0.0000000000000000e+00  -1.8284593355073957e-05 5.1979472615278511e-04 0.0000000000000000e+00  1.2060941427429836e-05 1.6739438396222125e-04 0.0000000000000000e+00  -2.7184664382707748e-02 9.1046621307294850e-01 0.0000000000000000e+00  1.2386997428852405e-05 9.9879222566374128e-05 0.0000000000000000e+00  -4.1833834206615961e-04 3.2692563662505281e-02 0.0000000000000000e+00  -2.6195187485862245e-02 1.6407261363692882e+00 0.0000000000000000e+00  -9.1863586949391917e-08 8.1837258292504876e-06 0.0000000000000000e+00  -4.0986937443470858e-02 2.2006279912915114e+00 0.0000000000000000e+00  -2.0556802249959423e-03 2.2586000523015837e-01 0.0000000000000000e+00  -1.7967736869726623e-04 4.4007796463370911e-03 0.0000000000000000e+00  1.7622735617718776e-02 1.8915415743203416e+00 0.0000000000000000e+00  1.7723847075255550e-06 6.0549439544491479e-06 0.0000000000000000e+00  8.3269037238267074e-09 2.7154382815719137e-08 0.0000000000000000e+00  7.0047106958667195e-07 1.6249505160560470e-05 0.0000000000000000e+00  -4.5816279853530445e-07 1.3395404424334690e-05 0.0000000000000000e+00  1.4512591875362814e-02 2.9979925792984670e+00 0.0000000000000000e+00  6.9114651812600843e-09 1.2875281690029010e-07 0.0000000000000000e+00  2.1893445242712336e-06 2.0224177013896394e-05 0.0000000000000000e+00  1.7882737106194953e-04 2.7509900443098085e-03 0.0000000000000000e+00  7.6663432163535743e-04 1.8505836605176674e-02 0.0000000000000000e+00  1.2801959136467433e-02 1.8201340445864755e-01 0.0000000000000000e+00  -4.8950731117458903e-05 4.9690892099064589e-03 0.0000000000000000e+00  1.1775972225190889e-03 4.6684057855316118e-02 0.0000000000000000e+00  -2.8276164241760368e-02 1.0144651718173927e+00 0.0000000000000000e+00  1.9477240507300014e-02 5.5423057462368985e-01 0.0000000000000000e+00  -5.0006980714341600e-05 3.4372415026374063e-03 0.0000000000000000e+00  3.1824958238645742e-03 2.2834922612878281e+00 0.0000000000000000e+00  9.7661706974414897e-02 2.3022543210258557e+00 0.0000000000000000e+00  -2.8045198862309546e-03 2.9621657129798722e+00 0.0000000000000000e+00  -7.7896470621184046e-05 3.7874832625680346e-04 0.0000000000000000e+00  3.1384817156446511e-02 2.2946092359479051e+00 0.0000000000000000e+00  -5.2307559400292802e-03 2.0644143476049837e-01 0.0000000000000000e+00  -5.8489033664208760e-04 3.2763642567739987e-03 0.0000000000000000e+00  2.8990091038013665e-03 2.9943211162474750e+00 0.0000000000000000e+00  -1.5387069865116149e-02 2.3805578371114361e-01 0.0000000000000000e+00  -7.6013695810830958e-08 1.7583915053998528e-07 0.0000000000000000e+00  8.4376681618501110e-04 3.0136909556974203e+00 0.0000000000000000e+00  -4.0318418698015772e-02 2.3423834199318279e+00 0.0000000000000000e+00  1.0483402918930784e-08 -3.4779479589457647e-08 0.0000000000000000e+00  1.7979297663398959e-02 2.5193320029973915e-01 0.0000000000000000e+00  -7.5609460128290228e-07 6.6684360296827498e-06 0.0000000000000000e+00  -2.1926217997461524e-02 7.8196656536681597e-01 0.0000000000000000e+00  5.0522690591806738e-07 2.6974017607064778e-06 0.0000000000000000e+00  -1.2800222249204322e-05 1.3127051547039197e-04 0.0000000000000000e+00  -2.8450808599748581e-06 3.6459936311832513e-04 0.0000000000000000e+00  9.1254797383249543e-04 1.1248138886953932e-01 0.0000000000000000e+00  -1.3784104041266788e-04 8.2565301377715301e-03 0.0000000000000000e+00  -2.1806453051603460e-04 4.1456904719424814e-02 0.0000000000000000e+00  2.0357835437259765e-05 3.0052488242584462e-04 0.0000000000000000e+00  -4.7122721012609667e-06 1.8824616724947974e-05 0.0000000000000000e+00  -7.6941167301673398e-03 2.4197810518260985e+00 0.0000000000000000e+00  2.6351850019354192e-03 7.6728537813873710e-01 0.0000000000000000e+00  1.6517437381289269e-05 5.2601791475705983e-03 0.0000000000000000e+00  -5.1129378588765932e-04 3.6920089569928788e-02 0.0000000000000000e+00  -4.1117574451810966e-03 1.8489429249756006e-01 0.0000000000000000e+00  -2.2705291232877863e-04 4.3997952094654898e-03 0.0000000000000000e+00  1.6395406184251587e-02 1.7217029464767934e+00 0.0000000000000000e+00  7.3769633652230940e-04 9.8426629570982901e-02 0.0000000000000000e+00  -9.2029709601391379e-03 2.3840297622550537e+00 0.0000000000000000e+00  -3.8499337105083707e-02 1.2638302826029120e+00 0.0000000000000000e+00  3.9988243648103631e-03 7.2367616931147782e-01 0.0000000000000000e+00  6.1341892293157318e-06 7.7341306871404490e-04 0.0000000000000000e+00  1.6702875226676055e-04 3.8484708293319301e-03 0.0000000000000000e+00  -1.1056737972087305e-02 3.6244959306556501e-01 0.0000000000000000e+00  3.6780824133042854e-03 2.6273932900532420e+00 0.0000000000000000e+00  1.5192726919626139e-04 4.9971545175372584e-02 0.0000000000000000e+00  1.0145472193586472e-06 1.1491005987822450e-05 0.0000000000000000e+00  -1.3867038168447879e-07 8.6679110115042576e-07 0.0000000000000000e+00  2.3323619338915105e-07 1.5763007725863906e-06 0.0000000000000000e+00  8.6181660242653057e-07 2.7350298985409927e-05 0.0000000000000000e+00  -6.9704220988044530e-09 1.6674780268967761e-06 0.0000000000000000e+00  1.4400370220748660e-07 9.3217112231254331e-07 0.0000000000000000e+00  -1.9075106612742746e-07 1.9366383445108117e-06 0.0000000000000000e+00  -2.6955463184717850e-06 3.0102300757774409e-05 0.0000000000000000e+00  -9.7190038411958772e-03 1.6342431683651188e+00 0.0000000000000000e+00  1.5083685907311170e-03 2.5750462054910108e+00 0.0000000000000000e+00  -1.6874114497027221e-03 3.6851064751983847e-01 0.0000000000000000e+00  -2.4098649066681601e-07 1.1494910850723992e-06 0.0000000000000000e+00  -4.3137110000017300e-03 6.7163067676113619e-01 0.0000000000000000e+00  3.3971329707554402e-03 1.3773437109354738e+00 0.0000000000000000e+00  -1.3909880251009282e-03 2.6551903294797099e+00 0.0000000000000000e+00  -1.3102570023448390e-02 1.3267659742000784e+00 0.0000000000000000e+00  1.3907789436869155e-09 9.2484694715835267e-07 0.0000000000000000e+00  1.1499315639962780e-02 2.7239853365297346e+00 0.0000000000000000e+00  -1.0397449190778963e-03 9.2665374527305406e-03 0.0000000000000000e+00  -3.8028716518565484e-05 6.6682999053038414e-04 0.0000000000000000e+00  5.3072914456300476e-04 2.5850140110163823e-02 0.0000000000000000e+00  -7.8328053692016056e-05 3.4506419626954394e-03 0.0000000000000000e+00  -1.1127418862215157e-02 1.7617393970427455e+00 0.0000000000000000e+00  3.2019980864616198e-04 1.9757685968097561e-02 0.0000000000000000e+00  1.2077740733175458e-05 1.2443931587264391e-04 0.0000000000000000e+00  5.4694919939852222e-03 3.1242016486342850e-01 0.0000000000000000e+00  -8.7491586616182272e-03 9.9361982826218276e-02 0.0000000000000000e+00  2.8666557825232473e-06 3.6097040730153323e-05 0.0000000000000000e+00  2.6509783012307924e-06 1.2773671500215014e-04 0.0000000000000000e+00  7.5539606810019471e-07 1.3532568800344033e-05 0.0000000000000000e+00  -9.1279353775018217e-07 7.3838410891409196e-04 0.0000000000000000e+00  -6.6337128099766424e-06 1.3199815987271094e-03 0.0000000000000000e+00  3.0436620615590233e-04 1.3417020108788332e-02 0.0000000000000000e+00  -8.8995058696225780e-04 3.0082159472283503e+00 0.0000000000000000e+00  4.0652212106561504e-03 8.0854976216776980e-02 0.0000000000000000e+00  -1.9576249708777322e-03 1.2262603834320307e-01 0.0000000000000000e+00  1.9092085603811221e-02 2.7912741889528006e+00 0.0000000000000000e+00  -1.5172206407650661e-03 2.4454629770560823e-01 0.0000000000000000e+00  2.2979139164958773e-04 6.3875039631647920e-04 0.0000000000000000e+00  -7.6130503129788788e-04 1.2714386357362627e-02 0.0000000000000000e+00  1.6070427426144662e-03 5.5564361087956669e-02 0.0000000000000000e+00  -6.3512447643080934e-04 1.4439487847298293e-01 0.0000000000000000e+00  -1.0559334046799965e-05 8.1794110914156328e-05 0.0000000000000000e+00  -2.8705441751999301e-02 7.4319641465472808e-01 0.0000000000000000e+00  1.8126996995876180e-02 3.3846098663953161e-01 0.0000000000000000e+00  -1.4093196448276027e-04 1.4915514731807761e-02 0.0000000000000000e+00  -5.8768654855296642e-04 1.4290474928780836e-02 0.0000000000000000e+00  1.1365225707126272e-03 9.1412388826711113e-02 0.0000000000000000e+00  -2.9541561586409839e-05 2.4471324311322574e-03 0.0000000000000000e+00  4.0258081820331875e-05 9.9901145568180626e-04 0.0000000000000000e+00  -3.8906716837269102e-03 1.2972260737908612e+00 0.0000000000000000e+00  3.2564027482836740e-03 2.7535835326964460e+00 0.0000000000000000e+00  -5.3009508574208579e-03 1.1110866626796977e-01 0.0000000000000000e+00  -1.7968088186063547e-02 5.3929412837324620e-01 0.0000000000000000e+00  7.0592557304823269e-03 2.6842487289568098e+00 0.0000000000000000e+00  -1.5353449272482004e-03 2.9761719752146787e+00 0.0000000000000000e+00  -1.4477994633500205e-05 1.1205930561833208e-03 0.0000000000000000e+00  -1.4974051572245758e-06 8.8840148484266993e-05 0.0000000000000000e+00  -3.0937637559257249e-02 9.8050251750300754e-01 0.0000000000000000e+00  7.1240005345362158e-03 2.7644981357871912e-01 0.0000000000000000e+00  1.2518433648075315e-03 2.9763195415554327e+00 0.0000000000000000e+00  -9.8602634106027690e-04 7.1992070880604175e-01 0.0000000000000000e+00  4.4640789929279688e-03 1.1489862761929299e+00 0.0000000000000000e+00  2.3948409413477073e-03 1.2315298665845692e-02 0.0000000000000000e+00  -3.1444148921394020e-07 3.6775411672225675e-06 0.0000000000000000e+00  7.5085440590955547e-06 1.1200153848459372e-04 0.0000000000000000e+00  -1.3527231349718481e-02 2.7501928912030573e+00 0.0000000000000000e+00  1.5992106882790735e-03 1.5678781853069039e+00 0.0000000000000000e+00  6.8815538836451379e-08 -4.1955345635998422e-08 0.0000000000000000e+00  -2.9078621407468777e-07 9.2093070969241487e-07 0.0000000000000000e+00  7.5602005304839341e-03 1.4453519183500616e+00 0.0000000000000000e+00  3.1897573476069132e-05 1.8024247215131877e-04 0.0000000000000000e+00  1.9158742488009053e-02 1.9062674965299182e+00 0.0000000000000000e+00  2.4313695389509138e-07 1.6488865525129499e-06 0.0000000000000000e+00  -2.5783520624624492e-03 3.1257901775663288e-01 0.0000000000000000e+00  -3.1788247720495030e-02 1.8589447980038307e+00 0.0000000000000000e+00  -5.8343755053124445e-08 8.0377471689534669e-08 0.0000000000000000e+00  -4.0806333305139316e-08 7.0265419067518088e-07 0.0000000000000000e+00  -4.6680201907105864e-04 2.9868921833665243e+00 0.0000000000000000e+00  -2.6793308760749295e-02 2.7833352078416009e+00 0.0000000000000000e+00  -1.6671456201395155e-02 4.6455398798897657e-01 0.0000000000000000e+00  3.2537310282484536e-03 1.3287253592549148e-01 0.0000000000000000e+00  1.6201802461366782e-07 7.6768992487505402e-07 0.0000000000000000e+00  5.1236232705786005e-08 9.6346523981289156e-07 0.0000000000000000e+00  8.7878347684598566e-08 6.4142072340337497e-08 0.0000000000000000e+00  -2.5495562256662347e-02 2.0785915182484072e+00 0.0000000000000000e+00  8.2725988657331804e-03 2.8147088975008123e+00 0.0000000000000000e+00  -4.6507871932082621e-05 1.2210515751012710e-03 0.0000000000000000e+00  -7.6966775396010266e-05 7.8631165921502300e-04 0.0000000000000000e+00  3.9640233058652050e-06 1.9029394667192075e-04 0.0000000000000000e+00  -6.9037142761814618e-06 8.6776247935356203e-05 0.0000000000000000e+00  1.9231814641613604e-06 1.7450457183066840e-05 0.0000000000000000e+00  -2.3517762000781033e-02 2.7396103238024461e+00 0.0000000000000000e+00  9.1959853649316173e-04 1.0419874746970838e-01 0.0000000000000000e+00  -1.2806379803877350e-06 4.4009181742726673e-06 0.0000000000000000e+00  1.7121207328331918e-08 9.7371209494657703e-07 0.0000000000000000e+00  -2.1303089033306486e-06 7.1025832326595368e-04 0.0000000000000000e+00  -3.2291789575452554e-03 2.9881703465333151e+00 0.0000000000000000e+00  -3.3096591603991276e-08 3.7266728291637796e-08 0.0000000000000000e+00  -2.0883847124229641e-02 2.9723372369449232e+00 0.0000000000000000e+00  3.2208676937243781e-02 4.8731932343162937e-01 0.0000000000000000e+00  -4.3242550330035413e-02 5.1967710137363288e-01 0.0000000000000000e+00  6.6049073073772650e-08 7.0529650605715019e-08 0.0000000000000000e+00  6.0201448002821647e-08 8.4840575014067184e-08 0.0000000000000000e+00  4.2422180140020213e-09 1.9925796925093186e-07 0.0000000000000000e+00  -1.8153377652083660e-02 1.6161714787462467e+00 0.0000000000000000e+00  -2.8185539133967406e-08 6.4811288966733879e-08 0.0000000000000000e+00  -7.8153426359495546e-03 2.9864563424676493e+00 0.0000000000000000e+00  1.9485980121239192e-02 2.9834420963159594e+00 0.0000000000000000e+00  3.5806026498592491e-02 1.5887337761390987e+00 0.0000000000000000e+00  -1.4725355353956198e-03 1.2341085734635691e-02 0.0000000000000000e+00  -1.3988615843302154e-06 2.2976221851946930e-05 0.0000000000000000e+00  1.3233631782353823e-05 1.4595616959753729e-05 0.0000000000000000e+00  -2.5474606339088730e-04 6.2400341008954197e-02 0.0000000000000000e+00  -9.2885845966864458e-03 3.9485481731856209e-01 0.0000000000000000e+00  6.1308781168324805e-03 7.2693996330147848e-01 0.0000000000000000e+00  -1.1399450758406110e-03 7.5846677038908006e-01 0.0000000000000000e+00  -9.9193917712673187e-03 1.6314601596370770e+00 0.0000000000000000e+00  4.9971558018348808e-06 3.8709307090311491e-05 0.0000000000000000e+00  3.4959630910317685e-06 1.4902567039327085e-04 0.0000000000000000e+00  3.7251116639729197e-03 2.3459624977449347e+00 0.0000000000000000e+00  7.5778930553293929e-07 5.9365106292908882e-06 0.0000000000000000e+00  -4.2000270184774020e-05 1.1474678392624298e-03 0.0000000000000000e+00  1.2899345251737344e-02 2.7695649329736254e+00 0.0000000000000000e+00  -6.0222821131796361e-03 2.8466767202555139e+00 0.0000000000000000e+00  -9.7827715978148736e-04 2.5045327803660339e-02 0.0000000000000000e+00  3.5475646606695462e-05 1.0440595905433737e-02 0.0000000000000000e+00  6.5893298740547890e-06 2.6990791923742355e-03 0.0000000000000000e+00  9.6226131920148779e-05 3.4354851953142381e-03 0.0000000000000000e+00  2.8508763993604540e-04 3.1588095876213904e-02 0.0000000000000000e+00  5.2904402726031358e-04 1.4653165702936790e-02 0.0000000000000000e+00  -6.3759723369281537e-04 1.1634307396513184e-01 0.0000000000000000e+00  -6.7104730134620585e-03 1.2691042859786432e+00 0.0000000000000000e+00  -1.7184350468740141e-03 6.9071151057138055e-02 0.0000000000000000e+00  3.7879458432612592e-05 3.8133254073636038e-04 0.0000000000000000e+00  6.8776832657875788e-05 4.3729202933889877e-02 0.0000000000000000e+00  -1.1757017354354616e-03 9.7686964279935576e-03 0.0000000000000000e+00  -1.3335201679813327e-05 2.9598426138512262e-03 0.0000000000000000e+00  2.3264074814876993e-06 1.0911492333180923e-04 0.0000000000000000e+00  3.4506379813416343e-08 1.1941130782860912e-05 0.0000000000000000e+00  -1.3843586331221793e-02 2.2814493058717558e+00 0.0000000000000000e+00  -9.5590470546930272e-03 1.3115844109539920e+00 0.0000000000000000e+00  -3.1156356263642750e-03 2.8232088179721031e+00 0.0000000000000000e+00  -2.1972851726459728e-03 4.5122840788956631e-01 0.0000000000000000e+00  2.4565224515154787e-03 6.0597609864905666e-01 0.0000000000000000e+00  3.9593176150599605e-07 3.9869641817093076e-06 0.0000000000000000e+00  -7.7262403840448867e-03 4.4393327957159001e-01 0.0000000000000000e+00  -7.1002189845997158e-08 4.5228110654549304e-07 0.0000000000000000e+00  -1.0783362002843277e-06 2.6927055689995356e-04 0.0000000000000000e+00  -4.6869396604504324e-03 2.8603146292906385e+00 0.0000000000000000e+00  -1.0517672500690183e-02 2.1839616671167041e+00 0.0000000000000000e+00  -6.4068606146576697e-03 1.6748580508726334e+00 0.0000000000000000e+00  2.6777959817858246e-04 1.5031167464779243e-02 0.0000000000000000e+00  -1.9664424909971936e-04 3.5030802461009222e-03 0.0000000000000000e+00  -1.5348321744280982e-04 8.2030381777039533e-04 0.0000000000000000e+00  -2.1438299058658951e-05 2.1392763204095566e-04 0.0000000000000000e+00  -6.1501062957900296e-06 5.6819009456045829e-05 0.0000000000000000e+00  4.0985012115954935e-05 1.4748956321781897e-03 0.0000000000000000e+00  5.3521307856929093e-08 6.6902507833673624e-07 0.0000000000000000e+00  1.8074991178422070e-04 2.2870060917435323e-02 0.0000000000000000e+00  1.2557037894725057e-05 3.8068212718167190e-03 0.0000000000000000e+00  3.2140471449639378e-03 1.1787290350142019e+00 0.0000000000000000e+00  2.5274244984543210e-05 3.1728305873162413e-04 0.0000000000000000e+00  4.8905303487944255e-08 3.6643694629419044e-06 0.0000000000000000e+00  6.0174855594744081e-07 8.4413377291535721e-06 0.0000000000000000e+00  -1.2762494645764830e-06 4.9722707720926469e-06 0.0000000000000000e+00  -5.2602576141602073e-05 1.1754195846709621e-01 0.0000000000000000e+00  -1.6263403616692831e-02 1.9325482391840592e+00 0.0000000000000000e+00  -9.8020385619137867e-04 4.1554582061521281e-02 0.0000000000000000e+00  1.9752853255834662e-03 8.5698076378467006e-02 0.0000000000000000e+00  -6.4346031471338588e-04 7.6945792967647317e-03 0.0000000000000000e+00  -1.8177689504451000e-04 1.3630898338823158e-02 0.0000000000000000e+00  -5.0817946551296464e-04 4.3634632063116029e-03 0.0000000000000000e+00  1.6896425877816201e-02 1.0385151019653371e+00 0.0000000000000000e+00  -2.1445045835339601e-03 7.7897863352234475e-02 0.0000000000000000e+00  6.1770121236983896e-04 1.2900239236202034e-02 0.0000000000000000e+00  8.8808846803213376e-04 3.0641100005869958e-02 0.0000000000000000e+00  -1.1995214818077979e-03 1.9001587021170710e-01 0.0000000000000000e+00  -1.1390203016081178e-02 3.6713243776512028e-01 0.0000000000000000e+00  4.4570169711153835e-09 8.0537034317150548e-07 0.0000000000000000e+00  -9.9899426991429370e-05 1.5242728167880473e-03 0.0000000000000000e+00  1.5900359939458888e-03 1.3376696552158046e-01 0.0000000000000000e+00  1.2551574541928531e-04 5.6317815927230336e-03 0.0000000000000000e+00  -2.7163498894175611e-03 3.3381434840093654e-01 0.0000000000000000e+00  1.2013685679697324e-02 6.2967532845852781e-01 0.0000000000000000e+00  7.0586047061327525e-03 2.9108745928388352e-01 0.0000000000000000e+00  3.4290559601045335e-04 3.3511736579015022e-03 0.0000000000000000e+00  -1.8823055768321314e-06 4.2069040746208707e-05 0.0000000000000000e+00  1.7846017192556426e-06 1.7712158402514008e-05 0.0000000000000000e+00  -6.2127124929783092e-04 1.5038980452027814e-01 0.0000000000000000e+00  2.9980034957530675e-03 4.9176250065588477e-02 0.0000000000000000e+00  -4.5655798739088185e-05 1.6599831259355999e-01 0.0000000000000000e+00  -7.1572448057534412e-07 3.2311171194891355e-05 0.0000000000000000e+00  -8.8650279746692954e-07 1.2883212958114910e-05 0.0000000000000000e+00  -2.2224298576061442e-03 2.0102498842380523e-01 0.0000000000000000e+00  -2.8130851639018255e-05 5.2234264029532248e-04 0.0000000000000000e+00  5.4340045655531600e-03 1.2413832841298511e+00 0.0000000000000000e+00  7.