<?xml version="1.0"?>
<VTKFile type="UnstructuredGrid"  version="0.1"  >
<UnstructuredGrid>
<Piece  NumberOfPoints="1091" NumberOfCells="2050">
<Points>
<DataArray  type="Float64"  NumberOfComponents="3"  format="ascii">-0.5 -1 0  -0.4 -1 0  -0.3 -1 0  -0.2 -1 0  -0.09999999999999998 -1 0  0 -1 0  0.09999999999999998 -1 0  0.2 -1 0  0.3 -1 0  0.4 -1 0  0.5 -1 0  -0.5 -0.98 0  -0.4 -0.98 0  -0.3 -0.98 0  -0.2 -0.98 0  -0.09999999999999998 -0.98 0  0 -0.98 0  0.09999999999999998 -0.98 0  0.2 -0.98 0  0.3 -0.98 0  0.4 -0.98 0  0.5 -0.98 0  -0.5 -0.96 0  -0.4 -0.96 0  -0.3 -0.96 0  -0.2 -0.96 0  -0.09999999999999998 -0.96 0  0 -0.96 0  0.09999999999999998 -0.96 0  0.2 -0.96 0  0.3 -0.96 0  0.4 -0.96 0  0.5 -0.96 0  -0.5 -0.9399999999999999 0  -0.4 -0.9399999999999999 0  -0.3 -0.9399999999999999 0  -0.2 -0.9399999999999999 0  -0.09999999999999998 -0.9399999999999999 0  0 -0.9399999999999999 0  0.09999999999999998 -0.9399999999999999 0  0.2 -0.9399999999999999 0  0.3 -0.9399999999999999 0  0.4 -0.9399999999999999 0  0.5 -0.9399999999999999 0  -0.5 -0.92 0  -0.4 -0.92 0  -0.3 -0.92 0  -0.2 -0.92 0  -0.09999999999999998 -0.92 0  0 -0.92 0  0.09999999999999998 -0.92 0  0.2 -0.92 0  0.3 -0.92 0  0.4 -0.92 0  0.5 -0.92 0  -0.5 -0.9 0  -0.4 -0.9 0  -0.3 -0.9 0  -0.2 -0.9 0  -0.09999999999999998 -0.9 0  0 -0.9 0  0.09999999999999998 -0.9 0  0.2 -0.9 0  0.3 -0.9 0  0.4 -0.9 0  0.5 -0.9 0  -0.5 -0.88 0  -0.4 -0.88 0  -0.3 -0.88 0  -0.2 -0.88 0  -0.09999999999999998 -0.88 0  0 -0.88 0  0.09999999999999998 -0.88 0  0.2 -0.88 0  0.3 -0.88 0  0.4 -0.88 0  0.5 -0.88 0  -0.5 -0.86 0  -0.4 -0.86 0  -0.3 -0.86 0  -0.2 -0.86 0  -0.09999999999999998 -0.86 0  0 -0.86 0  0.09999999999999998 -0.86 0  0.2 -0.86 0  0.3 -0.86 0  0.4 -0.86 0  0.5 -0.86 0  -0.5 -0.84 0  -0.4 -0.84 0  -0.3 -0.84 0  -0.2 -0.84 0  -0.09999999999999998 -0.84 0  0 -0.84 0  0.09999999999999998 -0.84 0  0.2 -0.84 0  0.3 -0.84 0  0.4 -0.84 0  0.5 -0.84 0  -0.5 -0.8200000000000001 0  -0.4 -0.8200000000000001 0  -0.3 -0.8200000000000001 0  -0.2 -0.8200000000000001 0  -0.09999999999999998 -0.8200000000000001 0  0 -0.8200000000000001 0  0.09999999999999998 -0.8200000000000001 0  0.2 -0.8200000000000001 0  0.3 -0.8200000000000001 0  0.4 -0.8200000000000001 0  0.5 -0.8200000000000001 0  -0.5 -0.8 0  -0.4 -0.8 0  -0.3 -0.8 0  -0.2 -0.8 0  -0.09999999999999998 -0.8 0  0 -0.8 0  0.09999999999999998 -0.8 0  0.2 -0.8 0  0.3 -0.8 0  0.4 -0.8 0  0.5 -0.8 0  -0.5 -0.78 0  -0.4 -0.78 0  -0.3 -0.78 0  -0.2 -0.78 0  -0.09999999999999998 -0.78 0  0 -0.78 0  0.09999999999999998 -0.78 0  0.2 -0.78 0  0.3 -0.78 0  0.4 -0.78 0  0.5 -0.78 0  -0.5 -0.76 0  -0.4 -0.76 0  -0.3 -0.76 0  -0.2 -0.76 0  -0.09999999999999998 -0.76 0  0 -0.76 0  0.09999999999999998 -0.76 0  0.2 -0.76 0  0.3 -0.76 0  0.4 -0.76 0  0.5 -0.76 0  -0.5 -0.74 0  -0.4 -0.74 0  -0.3 -0.74 0  -0.2 -0.74 0  -0.09999999999999998 -0.74 0  0 -0.74 0  0.09999999999999998 -0.74 0  0.2 -0.74 0  0.3 -0.74 0  0.4 -0.74 0  0.5 -0.74 0  -0.5 -0.72 0  -0.4 -0.72 0  -0.3 -0.72 0  -0.2 -0.72 0  -0.09999999999999998 -0.72 0  0 -0.72 0  0.09999999999999998 -0.72 0  0.2 -0.72 0  0.3 -0.72 0  0.4 -0.72 0  0.5 -0.72 0  -0.5 -0.7 0  -0.4 -0.7 0  -0.3 -0.7 0  -0.2 -0.7 0  -0.09999999999999998 -0.7 0  0 -0.7 0  0.09999999999999998 -0.7 0  0.2 -0.7 0  0.3 -0.7 0  0.4 -0.7 0  0.5 -0.7 0  -0.5 -0.6799999999999999 0  -0.4 -0.6799999999999999 0  -0.3 -0.6799999999999999 0  -0.2 -0.6799999999999999 0  -0.09999999999999998 -0.6799999999999999 0  0 -0.6799999999999999 0  0.09999999999999998 -0.6799999999999999 0  0.2 -0.6799999999999999 0  0.3 -0.6799999999999999 0  0.4 -0.6799999999999999 0  0.5 -0.6799999999999999 0  -0.5 -0.6599999999999999 0  -0.4 -0.6599999999999999 0  -0.3 -0.6599999999999999 0  -0.2 -0.6599999999999999 0  -0.09999999999999998 -0.6599999999999999 0  0 -0.6599999999999999 0  0.09999999999999998 -0.6599999999999999 0  0.2 -0.6599999999999999 0  0.3 -0.6599999999999999 0  0.4 -0.6599999999999999 0  0.5 -0.6599999999999999 0  -0.5 -0.64 0  -0.4 -0.64 0  -0.3 -0.64 0  -0.2 -0.64 0  -0.09999999999999998 -0.64 0  0 -0.64 0  0.09999999999999998 -0.64 0  0.2 -0.64 0  0.3 -0.64 0  0.4 -0.64 0  0.5 -0.64 0  -0.5 -0.62 0  -0.4 -0.62 0  -0.3 -0.62 0  -0.2 -0.62 0  -0.09999999999999998 -0.62 0  0 -0.62 0  0.09999999999999998 -0.62 0  0.2 -0.62 0  0.3 -0.62 0  0.4 -0.62 0  0.5 -0.62 0  -0.5 -0.6 0  -0.4 -0.6 0  -0.3 -0.6 0  -0.2 -0.6 0  -0.09999999999999998 -0.6 0  0 -0.6 0  0.09999999999999998 -0.6 0  0.2 -0.6 0  0.3 -0.6 0  0.4 -0.6 0  0.5 -0.6 0  -0.5 -0.5800000000000001 0  -0.4 -0.5800000000000001 0  -0.3 -0.5800000000000001 0  -0.2 -0.5800000000000001 0  -0.09999999999999998 -0.5800000000000001 0  0 -0.5800000000000001 0  0.09999999999999998 -0.5800000000000001 0  0.2 -0.5800000000000001 0  0.3 -0.5800000000000001 0  0.4 -0.5800000000000001 0  0.5 -0.5800000000000001 0  -0.5 -0.5600000000000001 0  -0.4 -0.5600000000000001 0  -0.3 -0.5600000000000001 0  -0.2 -0.5600000000000001 0  -0.09999999999999998 -0.5600000000000001 0  0 -0.5600000000000001 0  0.09999999999999998 -0.5600000000000001 0  0.2 -0.5600000000000001 0  0.3 -0.5600000000000001 0  0.4 -0.5600000000000001 0  0.5 -0.5600000000000001 0  -0.5 -0.54 0  -0.4 -0.54 0  -0.3 -0.54 0  -0.2 -0.54 0  -0.09999999999999998 -0.54 0  0 -0.54 0  0.09999999999999998 -0.54 0  0.2 -0.54 0  0.3 -0.54 0  0.4 -0.54 0  0.5 -0.54 0  -0.5 -0.52 0  -0.4 -0.52 0  -0.3 -0.52 0  -0.2 -0.52 0  -0.09999999999999998 -0.52 0  0 -0.52 0  0.09999999999999998 -0.52 0  0.2 -0.52 0  0.3 -0.52 0  0.4 -0.52 0  0.5 -0.52 0  -0.5 -0.5 0  -0.4 -0.5 0  -0.3 -0.5 0  -0.2 -0.5 0  -0.09999999999999998 -0.5 0  0 -0.5 0  0.09999999999999998 -0.5 0  0.2 -0.5 0  0.3 -0.5 0  0.4 -0.5 0  0.5 -0.5 0  -0.5 -0.48 0  -0.4 -0.48 0  -0.3 -0.48 0  -0.2 -0.48 0  -0.09999999999999998 -0.48 0  0 -0.48 0  0.09999999999999998 -0.48 0  0.2 -0.48 0  0.3 -0.48 0  0.4 -0.48 0  0.5 -0.48 0  -0.5 -0.46 0  -0.4 -0.46 0  -0.3 -0.46 0  -0.2 -0.46 0  -0.09999999999999998 -0.46 0  0 -0.46 0  0.09999999999999998 -0.46 0  0.2 -0.46 0  0.3 -0.46 0  0.4 -0.46 0  0.5 -0.46 0  -0.5 -0.4399999999999999 0  -0.4 -0.4399999999999999 0  -0.3 -0.4399999999999999 0  -0.2 -0.4399999999999999 0  -0.09999999999999998 -0.4399999999999999 0  0 -0.4399999999999999 0  0.09999999999999998 -0.4399999999999999 0  0.2 -0.4399999999999999 0  0.3 -0.4399999999999999 0  0.4 -0.4399999999999999 0  0.5 -0.4399999999999999 0  -0.5 -0.42 0  -0.4 -0.42 0  -0.3 -0.42 0  -0.2 -0.42 0  -0.09999999999999998 -0.42 0  0 -0.42 0  0.09999999999999998 -0.42 0  0.2 -0.42 0  0.3 -0.42 0  0.4 -0.42 0  0.5 -0.42 0  -0.5 -0.4 0  -0.4 -0.4 0  -0.3 -0.4 0  -0.2 -0.4 0  -0.09999999999999998 -0.4 0  0 -0.4 0  0.09999999999999998 -0.4 0  0.2 -0.4 0  0.3 -0.4 0  0.4 -0.4 0  0.5 -0.4 0  -0.5 -0.38 0  -0.4 -0.38 0  -0.3 -0.38 0  -0.2 -0.38 0  -0.09999999999999998 -0.38 0  0 -0.38 0  0.09999999999999998 -0.38 0  0.2 -0.38 0  0.3 -0.38 0  0.4 -0.38 0  0.5 -0.38 0  -0.5 -0.36 0  -0.4 -0.36 0  -0.3 -0.36 0  -0.2 -0.36 0  -0.09999999999999998 -0.36 0  0 -0.36 0  0.09999999999999998 -0.36 0  0.2 -0.36 0  0.3 -0.36 0  0.4 -0.36 0  0.5 -0.36 0  -0.5 -0.34 0  -0.4 -0.34 0  -0.3 -0.34 0  -0.2 -0.34 0  -0.09999999999999998 -0.34 0  0 -0.34 0  0.09999999999999998 -0.34 0  0.2 -0.34 0  0.3 -0.34 0  0.4 -0.34 0  0.5 -0.34 0  -0.5 -0.32 0  -0.4 -0.32 0  -0.3 -0.32 0  -0.2 -0.32 0  -0.09999999999999998 -0.32 0  0 -0.32 0  0.09999999999999998 -0.32 0  0.2 -0.32 0  0.3 -0.32 0  0.4 -0.32 0  0.5 -0.32 0  -0.5 -0.3 0  -0.4 -0.3 0  -0.3 -0.3 0  -0.2 -0.3 0  -0.09999999999999998 -0.3 0  0 -0.3 0  0.09999999999999998 -0.3 0  0.2 -0.3 0  0.3 -0.3 0  0.4 -0.3 0  0.5 -0.3 0  -0.5 -0.28 0  -0.4 -0.28 0  -0.3 -0.28 0  -0.2 -0.28 0  -0.09999999999999998 -0.28 0  0 -0.28 0  0.09999999999999998 -0.28 0  0.2 -0.28 0  0.3 -0.28 0  0.4 -0.28 0  0.5 -0.28 0  -0.5 -0.26 0  -0.4 -0.26 0  -0.3 -0.26 0  -0.2 -0.26 0  -0.09999999999999998 -0.26 0  0 -0.26 0  0.09999999999999998 -0.26 0  0.2 -0.26 0  0.3 -0.26 0  0.4 -0.26 0  0.5 -0.26 0  -0.5 -0.24 0  -0.4 -0.24 0  -0.3 -0.24 0  -0.2 -0.24 0  -0.09999999999999998 -0.24 0  0 -0.24 0  0.09999999999999998 -0.24 0  0.2 -0.24 0  0.3 -0.24 0  0.4 -0.24 0  0.5 -0.24 0  -0.5 -0.22 0  -0.4 -0.22 0  -0.3 -0.22 0  -0.2 -0.22 0  -0.09999999999999998 -0.22 0  0 -0.22 0  0.09999999999999998 -0.22 0  0.2 -0.22 0  0.3 -0.22 0  0.4 -0.22 0  0.5 -0.22 0  -0.5 -0.2 0  -0.4 -0.2 0  -0.3 -0.2 0  -0.2 -0.2 0  -0.09999999999999998 -0.2 0  0 -0.2 0  0.09999999999999998 -0.2 0  0.2 -0.2 0  0.3 -0.2 0  0.4 -0.2 0  0.5 -0.2 0  -0.5 -0.18 0  -0.4 -0.18 0  -0.3 -0.18 0  -0.2 -0.18 0  -0.09999999999999998 -0.18 0  0 -0.18 0  0.09999999999999998 -0.18 0  0.2 -0.18 0  0.3 -0.18 0  0.4 -0.18 0  0.5 -0.18 0  -0.5 -0.16 0  -0.4 -0.16 0  -0.3 -0.16 0  -0.2 -0.16 0  -0.09999999999999998 -0.16 0  0 -0.16 0  0.09999999999999998 -0.16 0  0.2 -0.16 0  0.3 -0.16 0  0.4 -0.16 0  0.5 -0.16 0  -0.5 -0.14 0  -0.4 -0.14 0  -0.3 -0.14 0  -0.2 -0.14 0  -0.09999999999999998 -0.14 0  0 -0.14 0  0.09999999999999998 -0.14 0  0.2 -0.14 0  0.3 -0.14 0  0.4 -0.14 0  0.5 -0.14 0  -0.5 -0.12 0  -0.4 -0.12 0  -0.3 -0.12 0  -0.2 -0.12 0  -0.09999999999999998 -0.12 0  0 -0.12 0  0.09999999999999998 -0.12 0  0.2 -0.12 0  0.3 -0.12 0  0.4 -0.12 0  0.5 -0.12 0  -0.5 -0.09999999999999998 0  -0.4 -0.09999999999999998 0  -0.3 -0.09999999999999998 0  -0.2 -0.09999999999999998 0  -0.09999999999999998 -0.09999999999999998 0  0 -0.09999999999999998 0  0.09999999999999998 -0.09999999999999998 0  0.2 -0.09999999999999998 0  0.3 -0.09999999999999998 0  0.4 -0.09999999999999998 0  0.5 -0.09999999999999998 0  -0.5 -0.07999999999999996 0  -0.4 -0.07999999999999996 0  -0.3 -0.07999999999999996 0  -0.2 -0.07999999999999996 0  -0.09999999999999998 -0.07999999999999996 0  0 -0.07999999999999996 0  0.09999999999999998 -0.07999999999999996 0  0.2 -0.07999999999999996 0  0.3 -0.07999999999999996 0  0.4 -0.07999999999999996 0  0.5 -0.07999999999999996 0  -0.5 -0.06000000000000005 0  -0.4 -0.06000000000000005 0  -0.3 -0.06000000000000005 0  -0.2 -0.06000000000000005 0  -0.09999999
[...]
<PointData  Vectors="flow"> 
<DataArray  type="Float64"  Name="flow"  NumberOfComponents="3" format="ascii">-2.4018675796119820e-15 -1.1441910462869358e-15 0.0000000000000000e+00  -2.0770350632573321e-15 -3.6055915953413535e-15 0.0000000000000000e+00  -2.5495259864010951e-16 -1.7384624466153341e-15 0.0000000000000000e+00  2.2949676362526704e-15 5.1519150387724072e-16 0.0000000000000000e+00  3.1162768461148316e-16 -2.5641597230021385e-16 0.0000000000000000e+00  1.4905062811389573e-15 -7.5097855786384798e-15 0.0000000000000000e+00  3.0191449240529298e-15 8.5788820106185465e-15 0.0000000000000000e+00  2.4792200464993013e-16 1.1045165718611584e-16 0.0000000000000000e+00  7.0211352195781219e-16 6.9651073271558233e-15 0.0000000000000000e+00  1.6823786386837390e-15 -2.1695257703942963e-15 0.0000000000000000e+00  -2.4266348027571196e-16 4.0524945440417845e-15 0.0000000000000000e+00  -2.6723968093309710e-15 3.3712437426782747e-16 0.0000000000000000e+00  -2.4354413929603155e-15 1.8486116077005659e-15 0.0000000000000000e+00  1.9488495679045908e-16 -3.1207792980385490e-15 0.0000000000000000e+00  2.4741311906396593e-15 1.9850016029510180e-15 0.0000000000000000e+00  -1.8940627130188588e-16 2.9325736016044606e-15 0.0000000000000000e+00  2.2949940766443576e-15 7.9653714345511684e-16 0.0000000000000000e+00  3.0994631251432074e-15 1.2316909223255727e-15 0.0000000000000000e+00  2.8025078464630211e-16 -1.5481831559416701e-17 0.0000000000000000e+00  5.2775987867031720e-16 2.7012418001529899e-15 0.0000000000000000e+00  9.0890461668702302e-16 1.4846715991986258e-15 0.0000000000000000e+00  1.3002108014413419e-15 -4.0860390557553980e-15 0.0000000000000000e+00  -8.7476703780071649e-16 -5.1092890346636747e-15 0.0000000000000000e+00  -2.9796678278373826e-15 2.0186713544607077e-15 0.0000000000000000e+00  1.5441702711363380e-16 -1.0869758934953426e-14 0.0000000000000000e+00  3.5943369591837559e-15 4.9024258874315519e-15 0.0000000000000000e+00  -1.5459189906896981e-16 -3.6053959055296709e-15 0.0000000000000000e+00  1.2945807092136953e-15 1.4099835451709225e-15 0.0000000000000000e+00  3.0914557458405352e-15 8.0892879422584919e-15 0.0000000000000000e+00  9.8784634871920103e-16 9.7430659670297430e-15 0.0000000000000000e+00  6.3419803189242741e-16 -5.8698794080095895e-15 0.0000000000000000e+00  3.3242753219722032e-17 3.6971285450390782e-15 0.0000000000000000e+00  -6.0533428986015048e-17 -7.9535279834927275e-16 0.0000000000000000e+00  -3.5141417817459654e-16 -3.4141247969743487e-15 0.0000000000000000e+00  -3.0427443960908599e-15 2.5897764948379399e-15 0.0000000000000000e+00  7.6127062881077377e-16 -1.6151928544006493e-15 0.0000000000000000e+00  3.7186524843431314e-15 -2.6236158837382909e-15 0.0000000000000000e+00  -1.3773566880462599e-15 -5.5435556035856313e-15 0.0000000000000000e+00  4.7041318762745048e-15 5.6795689433839564e-15 0.0000000000000000e+00  4.7071579109952389e-15 1.5898768903067824e-14 0.0000000000000000e+00  -3.3016061191003510e-15 1.4078133747493476e-14 0.0000000000000000e+00  1.0668835294249634e-16 -1.6369305162348542e-14 0.0000000000000000e+00  2.5538448949142970e-15 9.0357484219233616e-15 0.0000000000000000e+00  -4.3184294404793299e-16 5.2207250109064083e-15 0.0000000000000000e+00  -1.1066711789868544e-15 1.7154983071836385e-14 0.0000000000000000e+00  -3.6313698299389687e-15 -4.4631368721473188e-15 0.0000000000000000e+00  -1.2619880151153460e-15 1.3417118890854223e-16 0.0000000000000000e+00  3.9668485073754783e-15 -1.2966145336642665e-14 0.0000000000000000e+00  1.8869668112980219e-15 9.8205253921474225e-15 0.0000000000000000e+00  5.5170852558278251e-15 1.8117326391859155e-14 0.0000000000000000e+00  4.6594208805288115e-15 9.4675194746997112e-15 0.0000000000000000e+00  -6.9583897190213051e-15 1.7973192097335289e-14 0.0000000000000000e+00  -3.8235375258763604e-16 -2.4307507123896011e-14 0.0000000000000000e+00  3.8072955331209090e-15 5.4848084822177789e-16 0.0000000000000000e+00  -4.9118688570408858e-15 -1.8613401733472661e-14 0.0000000000000000e+00  -6.2675526590313918e-15 1.2968108482517061e-14 0.0000000000000000e+00  -5.7051332238648259e-15 -7.4438058356708265e-15 0.0000000000000000e+00  -1.0411086674920159e-15 7.2536042589924743e-16 0.0000000000000000e+00  3.9335239871282964e-15 -8.5269699927084835e-15 0.0000000000000000e+00  4.0197493248518101e-15 -6.4724261670964287e-15 0.0000000000000000e+00  5.4750222503404849e-15 -1.8314624263878690e-14 0.0000000000000000e+00  6.9361865740229171e-15 -2.7227082563118393e-15 0.0000000000000000e+00  -8.6511511428452374e-15 1.5268198241522328e-14 0.0000000000000000e+00  -3.2877361793579046e-15 4.7730588866907432e-15 0.0000000000000000e+00  4.4057058838415013e-15 1.3061057247738631e-14 0.0000000000000000e+00  -9.0904088770372952e-15 -3.0384005925882918e-15 0.0000000000000000e+00  -7.2624085054560009e-15 -1.4281324883103967e-14 0.0000000000000000e+00  -5.2580721520490925e-15 -4.1415170715589525e-15 0.0000000000000000e+00  -1.3643262772792537e-15 3.1402886748971383e-15 0.0000000000000000e+00  3.7296689543653408e-15 1.4866408160575979e-15 0.0000000000000000e+00  1.3392142925715693e-15 -6.8981417518387608e-15 0.0000000000000000e+00  4.2208449168664939e-15 -5.0542919550648128e-15 0.0000000000000000e+00  8.2834934904292738e-15 -1.4909364056018339e-14 0.0000000000000000e+00  -5.8061321757926426e-15 -1.9237269695949989e-14 0.0000000000000000e+00  -1.4956414864881300e-15 -6.2187237386456721e-15 0.0000000000000000e+00  2.5392927971203885e-15 -6.9224736192754715e-15 0.0000000000000000e+00  -1.0177322444390904e-14 -1.8225154925331728e-14 0.0000000000000000e+00  -5.7626817103225870e-15 -1.9988950792833370e-14 0.0000000000000000e+00  -2.2524214584678603e-15 -1.6527983612100473e-14 0.0000000000000000e+00  -8.0529124107883049e-16 3.8771787077673279e-15 0.0000000000000000e+00  2.9530227153210020e-15 -5.0667911263559756e-15 0.0000000000000000e+00  2.3429909044848972e-15 6.9173991834900414e-15 0.0000000000000000e+00  5.0076794443013811e-15 1.2832677648644576e-15 0.0000000000000000e+00  5.5804981431836022e-15 2.3105731249529141e-14 0.0000000000000000e+00  -6.0587754207726895e-15 2.7960887750880233e-16 0.0000000000000000e+00  -1.6247296713907522e-15 2.6021160046629877e-15 0.0000000000000000e+00  1.1979490568248386e-15 -2.1515728389641691e-15 0.0000000000000000e+00  -7.2942036959966636e-15 -1.1461761089281498e-14 0.0000000000000000e+00  -7.5665443422848253e-15 -4.7072053454816661e-15 0.0000000000000000e+00  5.0700966590755803e-16 1.3538528491453806e-14 0.0000000000000000e+00  -1.3010720817187901e-16 2.8101490470062522e-15 0.0000000000000000e+00  3.5134470914463493e-15 7.5659678451348226e-16 0.0000000000000000e+00  1.3908048021711227e-15 2.3918154233612737e-14 0.0000000000000000e+00  7.6389033386673691e-15 -1.8929887939928910e-14 0.0000000000000000e+00  8.2506689362151675e-15 4.9649154681580974e-14 0.0000000000000000e+00  -1.0479211000880976e-14 1.4581538405020851e-14 0.0000000000000000e+00  1.0543167744772624e-15 7.8498822691132447e-16 0.0000000000000000e+00  -1.4712722669250249e-15 3.4197210251121796e-14 0.0000000000000000e+00  -1.2044974769758877e-14 3.9954386556057256e-15 0.0000000000000000e+00  -1.8030603152743470e-15 1.0662747170074366e-14 0.0000000000000000e+00  -1.8442286514674815e-15 2.6509233669258041e-14 0.0000000000000000e+00  -2.1444207932209113e-15 1.2781186869614275e-15 0.0000000000000000e+00  8.2680456265958261e-15 -5.4671856482782365e-15 0.0000000000000000e+00  -2.4418639660768313e-15 9.6222271719424208e-15 0.0000000000000000e+00  9.9419784913657645e-15 -1.2507548916358946e-14 0.0000000000000000e+00  1.3438591307444427e-14 -4.3236221235818461e-15 0.0000000000000000e+00  -1.8169004240412349e-14 6.7099711171838686e-15 0.0000000000000000e+00  1.7540856519833151e-15 1.0672799030626644e-15 0.0000000000000000e+00  2.2805729482232669e-15 3.9002069504815957e-15 0.0000000000000000e+00  -2.2427174971890137e-14 -6.1088372576640825e-15 0.0000000000000000e+00  -1.7446694513592694e-15 1.3010375266107129e-14 0.0000000000000000e+00  -4.9539810250353308e-16 2.4542956855012995e-14 0.0000000000000000e+00  -6.9391672560274030e-15 2.2977731628692346e-14 0.0000000000000000e+00  4.1476890743079910e-15 -1.0651826109884375e-14 0.0000000000000000e+00  1.8073928084238775e-15 -1.7007173855078750e-14 0.0000000000000000e+00  6.0242705910495781e-15 4.1719681264931992e-14 0.0000000000000000e+00  9.4632362399945058e-15 -2.8059911074491570e-14 0.0000000000000000e+00  -8.0978198951825680e-15 -1.2108649692827799e-15 0.0000000000000000e+00  1.6360909350356910e-16 3.3842234966813012e-14 0.0000000000000000e+00  -3.3079625033238111e-15 3.4082707426801623e-15 0.0000000000000000e+00  -2.1226412109250622e-14 -4.0558036866240770e-14 0.0000000000000000e+00  3.8295101570216093e-15 2.9304907165260505e-15 0.0000000000000000e+00  5.8189719815439400e-16 2.8919738591290118e-14 0.0000000000000000e+00  -8.5178013189837604e-15 1.9485437466252791e-15 0.0000000000000000e+00  -1.1741561017393119e-15 -4.2928922925607622e-15 0.0000000000000000e+00  6.3999343236814812e-15 -1.1145882580120287e-14 0.0000000000000000e+00  7.8253642084077567e-15 2.6980476072925297e-15 0.0000000000000000e+00  6.4619687048542167e-15 -1.7746550978215908e-14 0.0000000000000000e+00  -4.6316784522658292e-15 -1.6246995872971954e-14 0.0000000000000000e+00  2.7886640682218131e-15 3.2094936943014701e-14 0.0000000000000000e+00  -1.1127328684532284e-14 2.2580609888458814e-14 0.0000000000000000e+00  -3.3671758199821164e-14 1.0216995558552789e-15 0.0000000000000000e+00  9.3616786129902038e-15 9.7406549997536799e-15 0.0000000000000000e+00  -1.9926559821513229e-15 8.9399121703950357e-15 0.0000000000000000e+00  -1.2988948387821502e-14 -4.0597358905288786e-14 0.0000000000000000e+00  2.7068083455474791e-15 -1.2388651499501832e-14 0.0000000000000000e+00  5.9688266810728873e-15 -3.7840359576390779e-15 0.0000000000000000e+00  2.7784914908640725e-15 3.8883685071537220e-14 0.0000000000000000e+00  4.0490555771319656e-15 -2.9084396685365887e-14 0.0000000000000000e+00  9.9419502064465829e-16 -7.4488049321955931e-14 0.0000000000000000e+00  8.3220195956767018e-15 4.0124263187249742e-14 0.0000000000000000e+00  -1.2311881754020678e-14 -1.9825114537721995e-14 0.0000000000000000e+00  -2.6915927477363231e-14 7.8058325857358861e-15 0.0000000000000000e+00  6.3215597872667722e-15 2.2637271879589623e-14 0.0000000000000000e+00  -1.1493620931995772e-14 1.0256845276638882e-14 0.0000000000000000e+00  -1.1122490379764021e-14 -8.1218600236297017e-14 0.0000000000000000e+00  5.0856118123710405e-15 -9.4040988224241097e-15 0.0000000000000000e+00  1.5681416448216358e-14 -3.2082202866306270e-15 0.0000000000000000e+00  3.1262531536543016e-15 2.1212711173845645e-14 0.0000000000000000e+00  -1.3817887714285427e-14 -3.3444110245193481e-14 0.0000000000000000e+00  1.0252481953623573e-14 -3.6349003572073187e-15 0.0000000000000000e+00  1.3632565487413563e-14 1.5972868254259110e-14 0.0000000000000000e+00  -1.6798487241076836e-14 1.9431096803181947e-14 0.0000000000000000e+00  -2.2603678422915879e-14 3.1365053852219465e-14 0.0000000000000000e+00  7.5147815043891510e-15 4.1895466699226303e-15 0.0000000000000000e+00  -2.2877860734035621e-14 4.6143821775434252e-14 0.0000000000000000e+00  -1.6011978318861462e-14 -9.0679253038815857e-14 0.0000000000000000e+00  1.6081688977231803e-14 -2.1762874864889082e-14 0.0000000000000000e+00  1.3352632955182266e-14 1.3380053222388035e-14 0.0000000000000000e+00  -3.3470247127726028e-15 -1.6124223657195614e-14 0.0000000000000000e+00  -2.2528808045079593e-15 -1.8156588974672271e-14 0.0000000000000000e+00  8.3127114699417669e-15 2.3571542046232579e-14 0.0000000000000000e+00  1.2789001345007590e-14 -6.0792576076157808e-14 0.0000000000000000e+00  -8.0736789791088468e-15 3.7561920854198248e-14 0.0000000000000000e+00  -2.7087552975551790e-14 2.1385828461342680e-14 0.0000000000000000e+00  1.9370882545506356e-14 1.3712128336447497e-14 0.0000000000000000e+00  -3.0876474054599872e-14 5.7020904186599337e-14 0.0000000000000000e+00  -2.3680533859854510e-14 -3.1046140125020492e-14 0.0000000000000000e+00  2.4806696980436078e-14 1.0139901760715656e-14 0.0000000000000000e+00  1.6070041130213534e-14 1.6807287544075538e-14 0.0000000000000000e+00  -4.4694499419313114e-15 -3.3419501771819723e-14 0.0000000000000000e+00  -4.0026426425852157e-15 -3.9928948302579345e-14 0.0000000000000000e+00  3.1862492547001250e-15 -4.1206363008055785e-14 0.0000000000000000e+00  1.8989902316247472e-14 2.8971361782863270e-15 0.0000000000000000e+00  -1.8714936832850441e-15 1.7140458663644127e-14 0.0000000000000000e+00  -3.3864935927330533e-14 1.1347129878109441e-14 0.0000000000000000e+00  2.3875621733433412e-14 1.2820229837917100e-14 0.0000000000000000e+00  -2.9573969399567918e-14 1.4349236760216374e-14 0.0000000000000000e+00  -2.5838270652825956e-14 3.5137168927845917e-14 0.0000000000000000e+00  2.6430942620371391e-14 3.5939669503680903e-14 0.0000000000000000e+00  6.8046018837125055e-15 3.4203674073693714e-15 0.0000000000000000e+00  -1.2269871750906324e-14 -2.4209073855591629e-14 0.0000000000000000e+00  -4.2572088339234950e-15 -2.8063326353871362e-14 0.0000000000000000e+00  1.5783297877457510e-14 -3.2173944251781177e-14 0.0000000000000000e+00  1.9337311017097750e-14 2.4591329194490311e-14 0.0000000000000000e+00  -6.2364542139996587e-15 -4.6171296524178896e-15 0.0000000000000000e+00  -2.6551286287995547e-14 3.1285095103390602e-16 0.0000000000000000e+00  1.7435206850355369e-14 4.0276418411419728e-14 0.0000000000000000e+00  -2.7746647050585061e-14 -3.8626966167708899e-14 0.0000000000000000e+00  -2.2141801772318904e-14 1.0859880119237949e-14 0.0000000000000000e+00  2.2876558341835327e-14 2.3530162027448921e-14 0.0000000000000000e+00  9.0372427638342896e-16 -2.8549049408808174e-15 0.0000000000000000e+00  -1.3564354681570926e-14 -2.7508132708689735e-14 0.0000000000000000e+00  -1.1334772044215650e-14 -3.5552807160589719e-15 0.0000000000000000e+00  1.9388632271118906e-14 -4.1407798586225866e-14 0.0000000000000000e+00  2.6787301319867953e-14 -6.1100868410932155e-14 0.0000000000000000e+00  -3.5540860978228915e-15 3.3558181481027399e-15 0.0000000000000000e+00  -2.8042269665829270e-14 -2.8733278438648103e-15 0.0000000000000000e+00  -4.1142379458976427e-16 5.2430517701999070e-14 0.0000000000000000e+00  -3.5142091450743110e-14 -5.5046492978603457e-14 0.0000000000000000e+00  -1.4030329550583663e-14 4.2814996901858047e-14 0.0000000000000000e+00  1.8536699494043185e-14 1.3732203904279215e-15 0.0000000000000000e+00  -1.6362081980171312e-15 -6.1345963956782028e-14 0.0000000000000000e+00  -8.8105733150066715e-15 -4.2454474243230714e-14 0.0000000000000000e+00  -6.3235639194675397e-17 5.6584431015050457e-14 0.0000000000000000e+00  4.8400624655358601e-15 4.0388129023603407e-14 0.0000000000000000e+00  2.0579103254664293e-14 -4.0901142315169524e-14 0.0000000000000000e+00  4.4435347087789890e-15 -1.3574730966637597e-14 0.0000000000000000e+00  -2.8590563201724798e-14 -7.4921857426723128e-15 0.0000000000000000e+00  -1.9795205425260077e-14 3.4568036333409441e-14 0.0000000000000000e+00  -3.0780323090135116e-14 -4.4553679461020774e-14 0.0000000000000000e+00  -5.4205336421844748e-15 4.5426428013286628e-14 0.0000000000000000e+00  3.3891620653030765e-15 4.2939765733217209e-14 0.0000000000000000e+00  -5.4271819729190303e-15 2.1381922351269468e-15 0.0000000000000000e+00  6.4540169100434081e-16 -1.0047266799575311e-14 0.0000000000000000e+00  2.8287467821686518e-15 2.2927239606682187e-14 0.0000000000000000e+00  -5.6482924983662039e-16 4.6308101489328487e-15 0.0000000000000000e+00  2.1150959187923979e-14 1.6538952027394202e-14 0.0000000000000000e+00  1.8162207028500716e-15 3.0319197946657632e-14 0.0000000000000000e+00  -3.8739021977882429e-14 -6.9562286788315330e-14 0.0000000000000000e+00  -3.7086494585261531e-14 -7.5202602887210983e-15 0.0000000000000000e+00  -3.0140806472824601e-14 -1.3377925205870242e-14 0.0000000000000000e+00  -1.5862946555614786e-15 -2.3824201619033270e-14 0.0000000000000000e+00  1.4852899354338774e-14 2.9224890769663442e-14 0.0000000000000000e+00  -1.4910435133001428e-14 2.1794828838710979e-16 0.0000000000000000e+00  -1.6677139407262126e-15 2.1282960444051912e-15 0.0000000000000000e+00  2.9020745027472367e-15 2.0859025370769268e-14 0.0000000000000000e+00  1.0472869999293692e-15 4.5249846154228585e-14 0.0000000000000000e+00  2.6876637603110785e-14 1.6668144339698811e-16 0.0000000000000000e+00  -1.1514292388671836e-14 2.6920473185888715e-14 0.0000000000000000e+00  -5.8583089681838766e-14 -6.3536080506458810e-14 0.0000000000000000e+00  -2.0515241366883400e-14 -1.6783295882860910e-14 0.0000000000000000e+00  -3.3962777809366757e-14 6.9063896215722184e-14 0.0000000000000000e+00  -6.8502516678396357e-16 -2.7665843030182005e-14 0.0000000000000000e+00  8.2794386208043562e-15 1.3385910910106310e-14 0.0000000000000000e+00  -1.7289270850905333e-14 -4.7511310506927377e-14 0.0000000000000000e+00  1.8056653655978643e-14 -2.1335662995862105e-14 0.0000000000000000e+00  1.1331775594312319e-14 9.1429492556547804e-14 0.0000000000000000e+00  -7.3094691409560097e-15 9.0433540358596016e-14 0.0000000000000000e+00  1.7194156480803852e-14 -1.7494382501181152e-14 0.0000000000000000e+00  -1.5229349720848173e-14 2.1713309693588612e-14 0.0000000000000000e+00  -6.5708056333645881e-14 -3.4723045541656816e-14 0.0000000000000000e+00  -4.0667877272260120e-15 -3.8989280384489101e-15 0.0000000000000000e+00  -3.5740764006149167e-14 3.0758941555297872e-14 0.0000000000000000e+00  -7.5159130373567335e-15 -2.0312542522479005e-14 0.0000000000000000e+00  1.2532294533805435e-14 3.1710369326162993e-14 0.0000000000000000e+00  -2.1623244642028041e-14 1.5200052945458669e-14 0.0000000000000000e+00  1.8846996878562359e-14 -2.0452583033799715e-15 0.0000000000000000e+00  2.0478097046016696e-14 3.7611252018696884e-15 0.0000000000000000e+00  -1.5598452369193848e-14 4.8717698389194578e-14 0.0000000000000000e+00  1.8304050139342467e-14 1.1602122836260561e-14 0.0000000000000000e+00  -1.0900236664895519e-14 4.4019481637565137e-14 0.0000000000000000e+00  -8.0450064249464982e-14 -6.0158641191283749e-15 0.0000000000000000e+00  -1.6554604867707594e-14 -1.8968476386878031e-14 0.0000000000000000e+00  -3.5513266472619307e-14 4.0882192844837940e-14 0.0000000000000000e+00  4.1428187368763096e-15 -4.5860989444564985e-14 0.0000000000000000e+00  5.8956883333825761e-15 4.0042500013132952e-15 0.0000000000000000e+00  -1.8855492425146063e-14 -7.2534539018727878e-15 0.0000000000000000e+00  1.7733163939500650e-14 9.9328231997969643e-15 0.0000000000000000e+00  2.3253663713532475e-14 4.8698472972885406e-14 0.0000000000000000e+00  -1.1743881634245644e-14 -8.9124867234862686e-15 0.0000000000000000e+00  1.1846057887663487e-14 1.5702428407610624e-14 0.0000000000000000e+00  -1.8557386887388593e-14 -5.2158632779335519e-14 0.0000000000000000e+00  -9.1364471964666798e-14 -4.4543998532392208e-14 0.0000000000000000e+00  1.5396219108222621e-14 -3.0469763044754111e-14 0.0000000000000000e+00  -4.0447580800363483e-14 5.4860857456424011e-14 0.0000000000000000e+00  -1.9885579545287187e-14 -2.8548662583133431e-14 0.0000000000000000e+00  2.0236937619006139e-14 -7.9868961258499466e-14 0.0000000000000000e+00  -1.4936478797741826e-14 9.1375063935067549e-14 0.0000000000000000e+00  2.4636216064330161e-14 -1.8781896153870435e-15 0.0000000000000000e+00  2.1059622440683178e-14 7.7808146752857487e-14 0.0000000000000000e+00  -2.0182841720281625e-14 -6.8436248621596011e-15 0.0000000000000000e+00  1.2009774375177668e-14 7.9851585210981108e-14 0.0000000000000000e+00  -2.4397192064953390e-14 -5.0510554932675769e-14 0.0000000000000000e+00  -7.2784708007152449e-14 4.1133991276401455e-14 0.0000000000000000e+00  8.0319696389762482e-15 -1.1039107247719852e-14 0.0000000000000000e+00  -3.2628421902905380e-14 -6.1459542681119802e-14 0.0000000000000000e+00  -2.5279887644625084e-14 5.1248495095232359e-15 0.0000000000000000e+00  3.3320219931037245e-14 -1.7931236962702038e-14 0.0000000000000000e+00  -7.1526515955573425e-15 7.7191374896697474e-14 0.0000000000000000e+00  1.5608418286329195e-1