<?xml version="1.0"?>
<VTKFile type="UnstructuredGrid"  version="0.1"  >
<UnstructuredGrid>
<Piece  NumberOfPoints="1661" NumberOfCells="3200">
<Points>
<DataArray  type="Float64"  NumberOfComponents="3"  format="ascii">-0.25 -1 0  -0.225 -1 0  -0.2 -1 0  -0.175 -1 0  -0.15 -1 0  -0.125 -1 0  -0.1 -1 0  -0.07500000000000001 -1 0  -0.04999999999999999 -1 0  -0.02499999999999999 -1 0  0 -1 0  0.02500000000000002 -1 0  0.04999999999999999 -1 0  0.07500000000000001 -1 0  0.09999999999999998 -1 0  0.125 -1 0  0.15 -1 0  0.175 -1 0  0.2 -1 0  0.225 -1 0  0.25 -1 0  -0.25 -0.975 0  -0.225 -0.975 0  -0.2 -0.975 0  -0.175 -0.975 0  -0.15 -0.975 0  -0.125 -0.975 0  -0.1 -0.975 0  -0.07500000000000001 -0.975 0  -0.04999999999999999 -0.975 0  -0.02499999999999999 -0.975 0  0 -0.975 0  0.02500000000000002 -0.975 0  0.04999999999999999 -0.975 0  0.07500000000000001 -0.975 0  0.09999999999999998 -0.975 0  0.125 -0.975 0  0.15 -0.975 0  0.175 -0.975 0  0.2 -0.975 0  0.225 -0.975 0  0.25 -0.975 0  -0.25 -0.95 0  -0.225 -0.95 0  -0.2 -0.95 0  -0.175 -0.95 0  -0.15 -0.95 0  -0.125 -0.95 0  -0.1 -0.95 0  -0.07500000000000001 -0.95 0  -0.04999999999999999 -0.95 0  -0.02499999999999999 -0.95 0  0 -0.95 0  0.02500000000000002 -0.95 0  0.04999999999999999 -0.95 0  0.07500000000000001 -0.95 0  0.09999999999999998 -0.95 0  0.125 -0.95 0  0.15 -0.95 0  0.175 -0.95 0  0.2 -0.95 0  0.225 -0.95 0  0.25 -0.95 0  -0.25 -0.925 0  -0.225 -0.925 0  -0.2 -0.925 0  -0.175 -0.925 0  -0.15 -0.925 0  -0.125 -0.925 0  -0.1 -0.925 0  -0.07500000000000001 -0.925 0  -0.04999999999999999 -0.925 0  -0.02499999999999999 -0.925 0  0 -0.925 0  0.02500000000000002 -0.925 0  0.04999999999999999 -0.925 0  0.07500000000000001 -0.925 0  0.09999999999999998 -0.925 0  0.125 -0.925 0  0.15 -0.925 0  0.175 -0.925 0  0.2 -0.925 0  0.225 -0.925 0  0.25 -0.925 0  -0.25 -0.9 0  -0.225 -0.9 0  -0.2 -0.9 0  -0.175 -0.9 0  -0.15 -0.9 0  -0.125 -0.9 0  -0.1 -0.9 0  -0.07500000000000001 -0.9 0  -0.04999999999999999 -0.9 0  -0.02499999999999999 -0.9 0  0 -0.9 0  0.02500000000000002 -0.9 0  0.04999999999999999 -0.9 0  0.07500000000000001 -0.9 0  0.09999999999999998 -0.9 0  0.125 -0.9 0  0.15 -0.9 0  0.175 -0.9 0  0.2 -0.9 0  0.225 -0.9 0  0.25 -0.9 0  -0.25 -0.875 0  -0.225 -0.875 0  -0.2 -0.875 0  -0.175 -0.875 0  -0.15 -0.875 0  -0.125 -0.875 0  -0.1 -0.875 0  -0.07500000000000001 -0.875 0  -0.04999999999999999 -0.875 0  -0.02499999999999999 -0.875 0  0 -0.875 0  0.02500000000000002 -0.875 0  0.04999999999999999 -0.875 0  0.07500000000000001 -0.875 0  0.09999999999999998 -0.875 0  0.125 -0.875 0  0.15 -0.875 0  0.175 -0.875 0  0.2 -0.875 0  0.225 -0.875 0  0.25 -0.875 0  -0.25 -0.85 0  -0.225 -0.85 0  -0.2 -0.85 0  -0.175 -0.85 0  -0.15 -0.85 0  -0.125 -0.85 0  -0.1 -0.85 0  -0.07500000000000001 -0.85 0  -0.04999999999999999 -0.85 0  -0.02499999999999999 -0.85 0  0 -0.85 0  0.02500000000000002 -0.85 0  0.04999999999999999 -0.85 0  0.07500000000000001 -0.85 0  0.09999999999999998 -0.85 0  0.125 -0.85 0  0.15 -0.85 0  0.175 -0.85 0  0.2 -0.85 0  0.225 -0.85 0  0.25 -0.85 0  -0.25 -0.825 0  -0.225 -0.825 0  -0.2 -0.825 0  -0.175 -0.825 0  -0.15 -0.825 0  -0.125 -0.825 0  -0.1 -0.825 0  -0.07500000000000001 -0.825 0  -0.04999999999999999 -0.825 0  -0.02499999999999999 -0.825 0  0 -0.825 0  0.02500000000000002 -0.825 0  0.04999999999999999 -0.825 0  0.07500000000000001 -0.825 0  0.09999999999999998 -0.825 0  0.125 -0.825 0  0.15 -0.825 0  0.175 -0.825 0  0.2 -0.825 0  0.225 -0.825 0  0.25 -0.825 0  -0.25 -0.8 0  -0.225 -0.8 0  -0.2 -0.8 0  -0.175 -0.8 0  -0.15 -0.8 0  -0.125 -0.8 0  -0.1 -0.8 0  -0.07500000000000001 -0.8 0  -0.04999999999999999 -0.8 0  -0.02499999999999999 -0.8 0  0 -0.8 0  0.02500000000000002 -0.8 0  0.04999999999999999 -0.8 0  0.07500000000000001 -0.8 0  0.09999999999999998 -0.8 0  0.125 -0.8 0  0.15 -0.8 0  0.175 -0.8 0  0.2 -0.8 0  0.225 -0.8 0  0.25 -0.8 0  -0.25 -0.775 0  -0.225 -0.775 0  -0.2 -0.775 0  -0.175 -0.775 0  -0.15 -0.775 0  -0.125 -0.775 0  -0.1 -0.775 0  -0.07500000000000001 -0.775 0  -0.04999999999999999 -0.775 0  -0.02499999999999999 -0.775 0  0 -0.775 0  0.02500000000000002 -0.775 0  0.04999999999999999 -0.775 0  0.07500000000000001 -0.775 0  0.09999999999999998 -0.775 0  0.125 -0.775 0  0.15 -0.775 0  0.175 -0.775 0  0.2 -0.775 0  0.225 -0.775 0  0.25 -0.775 0  -0.25 -0.75 0  -0.225 -0.75 0  -0.2 -0.75 0  -0.175 -0.75 0  -0.15 -0.75 0  -0.125 -0.75 0  -0.1 -0.75 0  -0.07500000000000001 -0.75 0  -0.04999999999999999 -0.75 0  -0.02499999999999999 -0.75 0  0 -0.75 0  0.02500000000000002 -0.75 0  0.04999999999999999 -0.75 0  0.07500000000000001 -0.75 0  0.09999999999999998 -0.75 0  0.125 -0.75 0  0.15 -0.75 0  0.175 -0.75 0  0.2 -0.75 0  0.225 -0.75 0  0.25 -0.75 0  -0.25 -0.725 0  -0.225 -0.725 0  -0.2 -0.725 0  -0.175 -0.725 0  -0.15 -0.725 0  -0.125 -0.725 0  -0.1 -0.725 0  -0.07500000000000001 -0.725 0  -0.04999999999999999 -0.725 0  -0.02499999999999999 -0.725 0  0 -0.725 0  0.02500000000000002 -0.725 0  0.04999999999999999 -0.725 0  0.07500000000000001 -0.725 0  0.09999999999999998 -0.725 0  0.125 -0.725 0  0.15 -0.725 0  0.175 -0.725 0  0.2 -0.725 0  0.225 -0.725 0  0.25 -0.725 0  -0.25 -0.7 0  -0.225 -0.7 0  -0.2 -0.7 0  -0.175 -0.7 0  -0.15 -0.7 0  -0.125 -0.7 0  -0.1 -0.7 0  -0.07500000000000001 -0.7 0  -0.04999999999999999 -0.7 0  -0.02499999999999999 -0.7 0  0 -0.7 0  0.02500000000000002 -0.7 0  0.04999999999999999 -0.7 0  0.07500000000000001 -0.7 0  0.09999999999999998 -0.7 0  0.125 -0.7 0  0.15 -0.7 0  0.175 -0.7 0  0.2 -0.7 0  0.225 -0.7 0  0.25 -0.7 0  -0.25 -0.675 0  -0.225 -0.675 0  -0.2 -0.675 0  -0.175 -0.675 0  -0.15 -0.675 0  -0.125 -0.675 0  -0.1 -0.675 0  -0.07500000000000001 -0.675 0  -0.04999999999999999 -0.675 0  -0.02499999999999999 -0.675 0  0 -0.675 0  0.02500000000000002 -0.675 0  0.04999999999999999 -0.675 0  0.07500000000000001 -0.675 0  0.09999999999999998 -0.675 0  0.125 -0.675 0  0.15 -0.675 0  0.175 -0.675 0  0.2 -0.675 0  0.225 -0.675 0  0.25 -0.675 0  -0.25 -0.65 0  -0.225 -0.65 0  -0.2 -0.65 0  -0.175 -0.65 0  -0.15 -0.65 0  -0.125 -0.65 0  -0.1 -0.65 0  -0.07500000000000001 -0.65 0  -0.04999999999999999 -0.65 0  -0.02499999999999999 -0.65 0  0 -0.65 0  0.02500000000000002 -0.65 0  0.04999999999999999 -0.65 0  0.07500000000000001 -0.65 0  0.09999999999999998 -0.65 0  0.125 -0.65 0  0.15 -0.65 0  0.175 -0.65 0  0.2 -0.65 0  0.225 -0.65 0  0.25 -0.65 0  -0.25 -0.625 0  -0.225 -0.625 0  -0.2 -0.625 0  -0.175 -0.625 0  -0.15 -0.625 0  -0.125 -0.625 0  -0.1 -0.625 0  -0.07500000000000001 -0.625 0  -0.04999999999999999 -0.625 0  -0.02499999999999999 -0.625 0  0 -0.625 0  0.02500000000000002 -0.625 0  0.04999999999999999 -0.625 0  0.07500000000000001 -0.625 0  0.09999999999999998 -0.625 0  0.125 -0.625 0  0.15 -0.625 0  0.175 -0.625 0  0.2 -0.625 0  0.225 -0.625 0  0.25 -0.625 0  -0.25 -0.6 0  -0.225 -0.6 0  -0.2 -0.6 0  -0.175 -0.6 0  -0.15 -0.6 0  -0.125 -0.6 0  -0.1 -0.6 0  -0.07500000000000001 -0.6 0  -0.04999999999999999 -0.6 0  -0.02499999999999999 -0.6 0  0 -0.6 0  0.02500000000000002 -0.6 0  0.04999999999999999 -0.6 0  0.07500000000000001 -0.6 0  0.09999999999999998 -0.6 0  0.125 -0.6 0  0.15 -0.6 0  0.175 -0.6 0  0.2 -0.6 0  0.225 -0.6 0  0.25 -0.6 0  -0.25 -0.575 0  -0.225 -0.575 0  -0.2 -0.575 0  -0.175 -0.575 0  -0.15 -0.575 0  -0.125 -0.575 0  -0.1 -0.575 0  -0.07500000000000001 -0.575 0  -0.04999999999999999 -0.575 0  -0.02499999999999999 -0.575 0  0 -0.575 0  0.02500000000000002 -0.575 0  0.04999999999999999 -0.575 0  0.07500000000000001 -0.575 0  0.09999999999999998 -0.575 0  0.125 -0.575 0  0.15 -0.575 0  0.175 -0.575 0  0.2 -0.575 0  0.225 -0.575 0  0.25 -0.575 0  -0.25 -0.55 0  -0.225 -0.55 0  -0.2 -0.55 0  -0.175 -0.55 0  -0.15 -0.55 0  -0.125 -0.55 0  -0.1 -0.55 0  -0.07500000000000001 -0.55 0  -0.04999999999999999 -0.55 0  -0.02499999999999999 -0.55 0  0 -0.55 0  0.02500000000000002 -0.55 0  0.04999999999999999 -0.55 0  0.07500000000000001 -0.55 0  0.09999999999999998 -0.55 0  0.125 -0.55 0  0.15 -0.55 0  0.175 -0.55 0  0.2 -0.55 0  0.225 -0.55 0  0.25 -0.55 0  -0.25 -0.525 0  -0.225 -0.525 0  -0.2 -0.525 0  -0.175 -0.525 0  -0.15 -0.525 0  -0.125 -0.525 0  -0.1 -0.525 0  -0.07500000000000001 -0.525 0  -0.04999999999999999 -0.525 0  -0.02499999999999999 -0.525 0  0 -0.525 0  0.02500000000000002 -0.525 0  0.04999999999999999 -0.525 0  0.07500000000000001 -0.525 0  0.09999999999999998 -0.525 0  0.125 -0.525 0  0.15 -0.525 0  0.175 -0.525 0  0.2 -0.525 0  0.225 -0.525 0  0.25 -0.525 0  -0.25 -0.5 0  -0.225 -0.5 0  -0.2 -0.5 0  -0.175 -0.5 0  -0.15 -0.5 0  -0.125 -0.5 0  -0.1 -0.5 0  -0.07500000000000001 -0.5 0  -0.04999999999999999 -0.5 0  -0.02499999999999999 -0.5 0  0 -0.5 0  0.02500000000000002 -0.5 0  0.04999999999999999 -0.5 0  0.07500000000000001 -0.5 0  0.09999999999999998 -0.5 0  0.125 -0.5 0  0.15 -0.5 0  0.175 -0.5 0  0.2 -0.5 0  0.225 -0.5 0  0.25 -0.5 0  -0.25 -0.475 0  -0.225 -0.475 0  -0.2 -0.475 0  -0.175 -0.475 0  -0.15 -0.475 0  -0.125 -0.475 0  -0.1 -0.475 0  -0.07500000000000001 -0.475 0  -0.04999999999999999 -0.475 0  -0.02499999999999999 -0.475 0  0 -0.475 0  0.02500000000000002 -0.475 0  0.04999999999999999 -0.475 0  0.07500000000000001 -0.475 0  0.09999999999999998 -0.475 0  0.125 -0.475 0  0.15 -0.475 0  0.175 -0.475 0  0.2 -0.475 0  0.225 -0.475 0  0.25 -0.475 0  -0.25 -0.45 0  -0.225 -0.45 0  -0.2 -0.45 0  -0.175 -0.45 0  -0.15 -0.45 0  -0.125 -0.45 0  -0.1 -0.45 0  -0.07500000000000001 -0.45 0  -0.04999999999999999 -0.45 0  -0.02499999999999999 -0.45 0  0 -0.45 0  0.02500000000000002 -0.45 0  0.04999999999999999 -0.45 0  0.07500000000000001 -0.45 0  0.09999999999999998 -0.45 0  0.125 -0.45 0  0.15 -0.45 0  0.175 -0.45 0  0.2 -0.45 0  0.225 -0.45 0  0.25 -0.45 0  -0.25 -0.425 0  -0.225 -0.425 0  -0.2 -0.425 0  -0.175 -0.425 0  -0.15 -0.425 0  -0.125 -0.425 0  -0.1 -0.425 0  -0.07500000000000001 -0.425 0  -0.04999999999999999 -0.425 0  -0.02499999999999999 -0.425 0  0 -0.425 0  0.02500000000000002 -0.425 0  0.04999999999999999 -0.425 0  0.07500000000000001 -0.425 0  0.
[...]
<PointData  Vectors="flow"> 
<DataArray  type="Float64"  Name="flow"  NumberOfComponents="3" format="ascii">-1.8154417023154035e+00 3.6309147272354845e+00 0.0000000000000000e+00  7.1471318530709561e-05 3.6309147272355977e+00 0.0000000000000000e+00  3.4719256612540365e-09 3.6309147272372568e+00 0.0000000000000000e+00  -9.2969839286509871e-12 3.6309147272258215e+00 0.0000000000000000e+00  -7.7086851155643858e-12 3.6309147272273075e+00 0.0000000000000000e+00  -7.9966824110233311e-12 3.6309147272251452e+00 0.0000000000000000e+00  -1.9222602562464475e-11 3.6309147272266702e+00 0.0000000000000000e+00  -1.1176301193360712e-11 3.6309147272201447e+00 0.0000000000000000e+00  -1.5448278097281969e-11 3.6309147272229199e+00 0.0000000000000000e+00  -1.6365357773346634e-11 3.6309147272323554e+00 0.0000000000000000e+00  -1.9981847733415963e-11 3.6309147272142033e+00 0.0000000000000000e+00  -1.8433831802315883e-11 3.6309147272197526e+00 0.0000000000000000e+00  -1.1519323050685319e-11 3.6309147272188653e+00 0.0000000000000000e+00  -1.8015025034930377e-11 3.6309147272223816e+00 0.0000000000000000e+00  -1.0945104852269413e-11 3.6309147272193996e+00 0.0000000000000000e+00  -7.7809901376240363e-12 3.6309147272319104e+00 0.0000000000000000e+00  -9.4200319343027928e-12 3.6309147272266853e+00 0.0000000000000000e+00  -5.3391680275449632e-12 3.6309147272282982e+00 0.0000000000000000e+00  -3.4796435061123577e-09 3.6309147272347073e+00 0.0000000000000000e+00  -7.1471322003065346e-05 3.6309147272213780e+00 0.0000000000000000e+00  1.8154417023199527e+00 3.6309147272296198e+00 0.0000000000000000e+00  -1.8142980498425236e+00 1.0890139680239717e+01 0.0000000000000000e+00  7.1526909620158241e-05 1.0890139680242692e+01 0.0000000000000000e+00  3.4183661023867118e-09 1.0890139680241388e+01 0.0000000000000000e+00  -1.2706220224094735e-11 1.0890139680244378e+01 0.0000000000000000e+00  -5.9160752687949734e-12 1.0890139680242029e+01 0.0000000000000000e+00  -1.0490942064833404e-11 1.0890139680238194e+01 0.0000000000000000e+00  -1.3308495863188031e-11 1.0890139680239106e+01 0.0000000000000000e+00  -1.6438374482552695e-11 1.0890139680244040e+01 0.0000000000000000e+00  -9.7921173289879550e-12 1.0890139680239606e+01 0.0000000000000000e+00  -2.2610560954621118e-11 1.0890139680244141e+01 0.0000000000000000e+00  -1.8697030713559596e-11 1.0890139680243729e+01 0.0000000000000000e+00  -1.4562113316122307e-11 1.0890139680247000e+01 0.0000000000000000e+00  -1.5372791090408362e-11 1.0890139680242326e+01 0.0000000000000000e+00  -1.2987265860298586e-11 1.0890139680243085e+01 0.0000000000000000e+00  -1.4045010352378452e-11 1.0890139680244410e+01 0.0000000000000000e+00  -9.9609740858087768e-12 1.0890139680247396e+01 0.0000000000000000e+00  -7.9301762899759429e-12 1.0890139680241507e+01 0.0000000000000000e+00  -2.1273934001340147e-13 1.0890139680244701e+01 0.0000000000000000e+00  -3.4290650238861555e-09 1.0890139680243896e+01 0.0000000000000000e+00  -7.1526913662593763e-05 1.0890139680243442e+01 0.0000000000000000e+00  1.8142980498569796e+00 1.0890139680242148e+01 0.0000000000000000e+00  -1.8108653169960798e+00 2.1766551636193125e+01 0.0000000000000000e+00  7.1692046404587018e-05 2.1766551636193473e+01 0.0000000000000000e+00  3.2775500287183490e-09 2.1766551636194453e+01 0.0000000000000000e+00  -1.0392479380347566e-11 2.1766551636202891e+01 0.0000000000000000e+00  -1.4008319058575689e-11 2.1766551636195310e+01 0.0000000000000000e+00  -1.3490480148808006e-11 2.1766551636197953e+01 0.0000000000000000e+00  -9.4162726228252946e-12 2.1766551636190481e+01 0.0000000000000000e+00  -1.2437415995283168e-11 2.1766551636199040e+01 0.0000000000000000e+00  -1.4015222689515341e-11 2.1766551636200152e+01 0.0000000000000000e+00  -1.9634828546009627e-11 2.1766551636194816e+01 0.0000000000000000e+00  -1.9482271207013716e-11 2.1766551636193938e+01 0.0000000000000000e+00  -1.6261666784816631e-11 2.1766551636190560e+01 0.0000000000000000e+00  -1.5454883240898259e-11 2.1766551636195697e+01 0.0000000000000000e+00  -1.1271526792803486e-11 2.1766551636193174e+01 0.0000000000000000e+00  -1.1177046384966866e-11 2.1766551636197999e+01 0.0000000000000000e+00  -7.6570714807607680e-12 2.1766551636192666e+01 0.0000000000000000e+00  -1.0773410211347856e-11 2.1766551636197928e+01 0.0000000000000000e+00  -4.1751030583026695e-12 2.1766551636197338e+01 0.0000000000000000e+00  -3.2785857840774716e-09 2.1766551636199061e+01 0.0000000000000000e+00  -7.1692053304617817e-05 2.1766551636196706e+01 0.0000000000000000e+00  1.8108653170044851e+00 2.1766551636195924e+01 0.0000000000000000e+00  -1.8051382288579081e+00 3.2615486951089942e+01 0.0000000000000000e+00  7.1961947818321696e-05 3.2615486951101310e+01 0.0000000000000000e+00  3.0266364871312827e-09 3.2615486951096109e+01 0.0000000000000000e+00  -1.0843653876725313e-11 3.2615486951097573e+01 0.0000000000000000e+00  -8.9976100936246748e-12 3.2615486951104302e+01 0.0000000000000000e+00  -1.7215209327293668e-11 3.2615486951099797e+01 0.0000000000000000e+00  -9.7594204242123297e-12 3.2615486951105126e+01 0.0000000000000000e+00  -6.0827709880951392e-12 3.2615486951098120e+01 0.0000000000000000e+00  -1.8856690444467749e-11 3.2615486951101254e+01 0.0000000000000000e+00  -2.3378571274763230e-11 3.2615486951096486e+01 0.0000000000000000e+00  -1.5126379425447282e-11 3.2615486951096486e+01 0.0000000000000000e+00  -1.4950691518159793e-11 3.2615486951102305e+01 0.0000000000000000e+00  -1.9352447914896293e-11 3.2615486951098461e+01 0.0000000000000000e+00  -1.2465354625184021e-11 3.2615486951096514e+01 0.0000000000000000e+00  -1.2704893164383940e-11 3.2615486951094006e+01 0.0000000000000000e+00  -7.2560509058827866e-12 3.2615486951098788e+01 0.0000000000000000e+00  -1.0258292825363523e-11 3.2615486951100067e+01 0.0000000000000000e+00  6.3328112137149141e-13 3.2615486951091299e+01 0.0000000000000000e+00  -3.0332143169606732e-09 3.2615486951093324e+01 0.0000000000000000e+00  -7.1961950117990249e-05 3.2615486951092748e+01 0.0000000000000000e+00  1.8051382288638056e+00 3.2615486951097573e+01 0.0000000000000000e+00  -1.7971081645498239e+00 4.3423154938626560e+01 0.0000000000000000e+00  7.2328678293878776e-05 4.3423154938623185e+01 0.0000000000000000e+00  2.6845167016255542e-09 4.3423154938627860e+01 0.0000000000000000e+00  -2.9905524890069856e-12 4.3423154938624165e+01 0.0000000000000000e+00  -1.2106111192870128e-11 4.3423154938623171e+01 0.0000000000000000e+00  -1.5283203916492459e-11 4.3423154938625864e+01 0.0000000000000000e+00  -9.1310039813691538e-12 4.3423154938625444e+01 0.0000000000000000e+00  -1.7728157394414433e-11 4.3423154938620662e+01 0.0000000000000000e+00  -1.0885279854213916e-11 4.3423154938623760e+01 0.0000000000000000e+00  -2.4335459599280317e-11 4.3423154938627043e+01 0.0000000000000000e+00  -1.9384560000049661e-11 4.3423154938629864e+01 0.0000000000000000e+00  -1.5419913860130152e-11 4.3423154938624791e+01 0.0000000000000000e+00  -1.4425814245928353e-11 4.3423154938622091e+01 0.0000000000000000e+00  -1.7463861199480592e-11 4.3423154938624535e+01 0.0000000000000000e+00  -1.0983217626738762e-11 4.3423154938620712e+01 0.0000000000000000e+00  -1.2775722997891084e-12 4.3423154938626887e+01 0.0000000000000000e+00  -1.6372385788922473e-11 4.3423154938616776e+01 0.0000000000000000e+00  -3.4592489556165253e-12 4.3423154938627690e+01 0.0000000000000000e+00  -2.6883370990860735e-09 4.3423154938620819e+01 0.0000000000000000e+00  -7.2328675091419455e-05 4.3423154938630262e+01 0.0000000000000000e+00  1.7971081645635334e+00 4.3423154938627832e+01 0.0000000000000000e+00  -1.7867634106876120e+00 5.4175703787711868e+01 0.0000000000000000e+00  7.2781305324259345e-05 5.4175703787704322e+01 0.0000000000000000e+00  2.2499823507027760e-09 5.4175703787706396e+01 0.0000000000000000e+00  -1.4557390390502285e-11 5.4175703787697920e+01 0.0000000000000000e+00  -7.1573021570038944e-12 5.4175703787704322e+01 0.0000000000000000e+00  -1.3642165982505194e-11 5.4175703787705864e+01 0.0000000000000000e+00  -1.0617439853553532e-11 5.4175703787704627e+01 0.0000000000000000e+00  -1.0706026268105162e-11 5.4175703787705814e+01 0.0000000000000000e+00  -1.8381277700557962e-11 5.4175703787701927e+01 0.0000000000000000e+00  -1.8092337088111706e-11 5.4175703787707370e+01 0.0000000000000000e+00  -1.5768128282838396e-11 5.4175703787703036e+01 0.0000000000000000e+00  -1.8190652289560350e-11 5.4175703787709438e+01 0.0000000000000000e+00  -2.3233585219988857e-11 5.4175703787704691e+01 0.0000000000000000e+00  -1.3645517098807021e-11 5.4175703787700670e+01 0.0000000000000000e+00  -7.6778178489432300e-12 5.4175703787708180e+01 0.0000000000000000e+00  -7.4485487458382232e-12 5.4175703787701089e+01 0.0000000000000000e+00  -1.2231474981643800e-11 5.4175703787706929e+01 0.0000000000000000e+00  -3.2856387922440281e-12 5.4175703787708109e+01 0.0000000000000000e+00  -2.2549423634990578e-09 5.4175703787707263e+01 0.0000000000000000e+00  -7.2781297633205591e-05 5.4175703787709978e+01 0.0000000000000000e+00  1.7867634106930306e+00 5.4175703787699916e+01 0.0000000000000000e+00  -1.7740895108944970e+00 6.4859203018182455e+01 0.0000000000000000e+00  7.3306028713912493e-05 6.4859203018182399e+01 0.0000000000000000e+00  1.7305116137195225e-09 6.4859203018179699e+01 0.0000000000000000e+00  -1.5173789643315610e-12 6.4859203018184118e+01 0.0000000000000000e+00  -9.1617161740248414e-12 6.4859203018184701e+01 0.0000000000000000e+00  -1.1713568310556735e-11 6.4859203018180963e+01 0.0000000000000000e+00  -1.5858153115640510e-11 6.4859203018183933e+01 0.0000000000000000e+00  -1.6327261899422708e-11 6.4859203018182569e+01 0.0000000000000000e+00  -8.1848185329593708e-12 6.4859203018187401e+01 0.0000000000000000e+00  -1.6331085672914856e-11 6.4859203018183749e+01 0.0000000000000000e+00  -2.1769482727047447e-11 6.4859203018187543e+01 0.0000000000000000e+00  -1.7892651193201207e-11 6.4859203018182825e+01 0.0000000000000000e+00  -1.9175683729625262e-11 6.4859203018188282e+01 0.0000000000000000e+00  -1.4015091650303772e-11 6.4859203018184957e+01 0.0000000000000000e+00  -1.0240700167104255e-11 6.4859203018187728e+01 0.0000000000000000e+00  -8.9295626739941553e-12 6.4859203018187998e+01 0.0000000000000000e+00  -1.0185129040273261e-11 6.4859203018183891e+01 0.0000000000000000e+00  1.6854073864217033e-12 6.4859203018184928e+01 0.0000000000000000e+00  -1.7408418344957401e-09 6.4859203018189220e+01 0.0000000000000000e+00  -7.3306028902211874e-05 6.4859203018180892e+01 0.0000000000000000e+00  1.7740895108796340e+00 6.4859203018195174e+01 0.0000000000000000e+00  -1.7590697067337979e+00 7.5459628310162529e+01 0.0000000000000000e+00  7.3886419814317739e-05 7.5459628310148830e+01 0.0000000000000000e+00  1.1445981277805130e-09 7.5459628310156404e+01 0.0000000000000000e+00  -7.5391753388354733e-12 7.5459628310154713e+01 0.0000000000000000e+00  -4.5968015550716544e-12 7.5459628310153661e+01 0.0000000000000000e+00  -9.5636253476395814e-12 7.5459628310158749e+01 0.0000000000000000e+00  -1.3623741504827898e-11 7.5459628310157356e+01 0.0000000000000000e+00  -5.7073632668685774e-12 7.5459628310163168e+01 0.0000000000000000e+00  -1.9969218212578688e-11 7.5459628310163154e+01 0.0000000000000000e+00  -2.1908187525429644e-11 7.5459628310157669e+01 0.0000000000000000e+00  -1.3973041550177465e-11 7.5459628310155836e+01 0.0000000000000000e+00  -1.6271879158573598e-11 7.5459628310158749e+01 0.0000000000000000e+00  -1.9557586187220238e-11 7.5459628310158692e+01 0.0000000000000000e+00  -1.8715580884905194e-11 7.5459628310166892e+01 0.0000000000000000e+00  -3.4140373866508898e-12 7.5459628310154230e+01 0.0000000000000000e+00  -1.0255696804451391e-11 7.5459628310160255e+01 0.0000000000000000e+00  -1.1635737257224222e-11 7.5459628310162159e+01 0.0000000000000000e+00  1.7148522145087101e-12 7.5459628310161449e+01 0.0000000000000000e+00  -1.1590915709872956e-09 7.5459628310158266e+01 0.0000000000000000e+00  -7.3886420635909910e-05 7.5459628310159985e+01 0.0000000000000000e+00  1.7590697067394199e+00 7.5459628310153690e+01 0.0000000000000000e+00  -1.7416854633374930e+00 8.5962849235620482e+01 0.0000000000000000e+00  7.4503620141601795e-05 8.5962849235627573e+01 0.0000000000000000e+00  4.9608403830962634e-10 8.5962849235625711e+01 0.0000000000000000e+00  -6.1636989432282204e-12 8.5962849235631225e+01 0.0000000000000000e+00  -9.7794179078487282e-12 8.5962849235634437e+01 0.0000000000000000e+00  -1.0576854748685913e-11 8.5962849235629804e+01 0.0000000000000000e+00  -9.2786465210460014e-12 8.5962849235629633e+01 0.0000000000000000e+00  -1.5191189726885318e-11 8.5962849235629946e+01 0.0000000000000000e+00  -1.2339155259612608e-11 8.5962849235624660e+01 0.0000000000000000e+00  -2.1491701421995920e-11 8.5962849235629619e+01 0.0000000000000000e+00  -2.1459719136127228e-11 8.5962849235630785e+01 0.0000000000000000e+00  -1.6179137340899996e-11 8.5962849235626109e+01 0.0000000000000000e+00  -1.6111918307194279e-11 8.5962849235623082e+01 0.0000000000000000e+00  -1.0531999143690659e-11 8.5962849235625853e+01 0.0000000000000000e+00  -1.7693306911022083e-11 8.5962849235628539e+01 0.0000000000000000e+00  -5.1218170362925328e-12 8.5962849235624546e+01 0.0000000000000000e+00  -5.8719541243062525e-12 8.5962849235625441e+01 0.0000000000000000e+00  -7.7142905687117594e-12 8.5962849235623764e+01 0.0000000000000000e+00  -4.9166215062349493e-10 8.5962849235626337e+01 0.0000000000000000e+00  -7.4503625383267580e-05 8.5962849235627388e+01 0.0000000000000000e+00  1.7416854633200325e+00 8.5962849235630500e+01 0.0000000000000000e+00  -1.7219170722126595e+00 9.6354620379016438e+01 0.0000000000000000e+00  7.5136635255987198e-05 9.6354620379028447e+01 0.0000000000000000e+00  -2.2270010203473188e-10 9.6354620379024453e+01 0.0000000000000000e+00  1.6212699507282897e-12 9.6354620379028376e+01 0.0000000000000000e+00  -8.5485768484360467e-12 9.6354620379022194e+01 0.0000000000000000e+00  -1.3383408446915574e-11 9.6354620379027025e+01 0.0000000000000000e+00  -1.1840113988970211e-11 9.6354620379025349e+01 0.0000000000000000e+00  -8.8118548161605996e-12 9.6354620379021540e+01 0.0000000000000000e+00  -1.3546846466467959e-11 9.6354620379026642e+01 0.0000000000000000e+00  -1.7486292493761276e-11 9.6354620379023203e+01 0.0000000000000000e+00  -2.0893321160834675e-11 9.6354620379031914e+01 0.0000000000000000e+00  -2.0568906062173275e-11 9.6354620379023729e+01 0.0000000000000000e+00  -1.8371603359986920e-11 9.6354620379029527e+01 0.0000000000000000e+00  -1.2515582997234228e-11 9.6354620379021938e+01 0.0000000000000000e+00  -1.1943915668856545e-11 9.6354620379025675e+01 0.0000000000000000e+00  -1.3633189844564945e-11 9.6354620379019849e+01 0.0000000000000000e+00  -7.0647000601559103e-12 9.6354620379022705e+01 0.0000000000000000e+00  2.2681410197441160e-12 9.6354620379025363e+01 0.0000000000000000e+00  2.1579884463450274e-10 9.6354620379027722e+01 0.0000000000000000e+00  -7.5136633274009722e-05 9.6354620379022265e+01 0.0000000000000000e+00  1.7219170722287058e+00 9.6354620379023473e+01 0.0000000000000000e+00  -1.6997443227499967e+00 1.0662057628418286e+02 0.0000000000000000e+00  7.5762619842032082e-05 1.0662057628417553e+02 0.0000000000000000e+00  -9.8200833594235862e-10 1.0662057628417801e+02 0.0000000000000000e+00  -6.7401913036772594e-12 1.0662057628417055e+02 0.0000000000000000e+00  -1.0878102036982228e-11 1.0662057628417318e+02 0.0000000000000000e+00  -2.8199400759669263e-12 1.0662057628417000e+02 0.0000000000000000e+00  -1.3891496711153461e-11 1.0662057628417639e+02 0.0000000000000000e+00  -1.8596589388717797e-11 1.0662057628417297e+02 0.0000000000000000e+00  -1.4758651640943272e-11 1.0662057628416792e+02 0.0000000000000000e+00  -1.2299173381512654e-11 1.0662057628417544e+02 0.0000000000000000e+00  -2.1685721544031958e-11 1.0662057628417216e+02 0.0000000000000000e+00  -2.1017619616852236e-11 1.0662057628417770e+02 0.0000000000000000e+00  -1.3173384293201034e-11 1.0662057628417374e+02 0.0000000000000000e+00  -2.2192784437612033e-11 1.0662057628417193e+02 0.0000000000000000e+00  -1.0932582956350730e-11 1.0662057628417011e+02 0.0000000000000000e+00  -7.7501083149460230e-12 1.0662057628417392e+02 0.0000000000000000e+00  -2.4700683975521267e-12 1.0662057628417742e+02 0.0000000000000000e+00  -5.5826848649120920e-12 1.0662057628417124e+02 0.0000000000000000e+00  9.7779345858690823e-10 1.0662057628416632e+02 0.0000000000000000e+00  -7.5762622062307831e-05 1.0662057628417161e+02 0.0000000000000000e+00  1.6997443227590783e+00 1.0662057628416329e+02 0.0000000000000000e+00  -1.6751472321036940e+00 1.1674623060956102e+02 0.0000000000000000e+00  7.6357241473005587e-05 1.1674623060956493e+02 0.0000000000000000e+00  -1.7823879138070871e-09 1.1674623060956331e+02 0.0000000000000000e+00  -4.4780453784471513e-12 1.1674623060956132e+02 0.0000000000000000e+00  -9.2398516561129958e-12 1.1674623060956159e+02 0.0000000000000000e+00  -4.8681189136973676e-12 1.1674623060956719e+02 0.0000000000000000e+00  -1.4826151585135196e-11 1.1674623060956128e+02 0.0000000000000000e+00  -1.6022311697472178e-11 1.1674623060956506e+02 0.0000000000000000e+00  -1.4809202801844177e-11 1.1674623060956363e+02 0.0000000000000000e+00  -1.3977239312451476e-11 1.1674623060955984e+02 0.0000000000000000e+00  -1.9095682955630158e-11 1.1674623060955471e+02 0.0000000000000000e+00  -1.8657342828487623e-11 1.1674623060956115e+02 0.0000000000000000e+00  -2.2066730300985337e-11 1.1674623060956031e+02 0.0000000000000000e+00  -1.5583008635107104e-11 1.1674623060955911e+02 0.0000000000000000e+00  -1.0433950626956867e-11 1.1674623060956210e+02 0.0000000000000000e+00  -7.2857987965794236e-12 1.1674623060956428e+02 0.0000000000000000e+00  -5.0631706608557686e-12 1.1674623060956151e+02 0.0000000000000000e+00  -1.1108768423611077e-11 1.1674623060956471e+02 0.0000000000000000e+00  1.7772710301408573e-09 1.1674623060956273e+02 0.0000000000000000e+00  -7.6357242148273019e-05 1.1674623060956166e+02 0.0000000000000000e+00  1.6751472321202896e+00 1.1674623060956570e+02 0.0000000000000000e+00  -1.6481068233423233e+00 1.2671697981248317e+02 0.0000000000000000e+00  7.6895013075940790e-05 1.2671697981248376e+02 0.0000000000000000e+00  -2.6004054202671144e-09 1.2671697981247759e+02 0.0000000000000000e+00  -6.1755991264684305e-12 1.2671697981248843e+02 0.0000000000000000e+00  -7.2814339753436914e-12 1.2671697981248197e+02 0.0000000000000000e+00  -6.6968899997132338e-12 1.2671697981248514e+02 0.0000000000000000e+00  -1.7386863222875311e-11 1.2671697981248354e+02 0.0000000000000000e+00  -1.2476467227365903e-11 1.2671697981248165e+02 0.0000000000000000e+00  -1.4975915508304458e-11 1.2671697981248410e+02 0.0000000000000000e+00  -1.8654174120679900e-11 1.2671697981248035e+02 0.0000000000000000e+00  -2.0978867561570676e-11 1.2671697981248541e+02 0.0000000000000000e+00  -1.3807556838205930e-11 1.2671697981248127e+02 0.0000000000000000e+00  -2.2581190114817180e-11 1.2671697981248153e+02 0.0000000000000000e+00  -1.7700522185089270e-11 1.2671697981248353e+02 0.0000000000000000e+00  -8.7254078415938825e-12 1.2671697981248141e+02 0.0000000000000000e+00  -8.0104098025061576e-12 1.2671697981248006e+02 0.0000000000000000e+00  -6.6398713781873386e-12 1.2671697981248050e+02 0.0000000000000000e+00  -1.3953290743484646e-12 1.2671697981248111e+02 0.0000000000000000e+00  2.5923141680568964e-09 1.2671697981248811e+02 0.0000000000000000e+00  -7.6895017227239805e-05 1.2671697981248349e+02 0.0000000000000000e+00  1.6481068233704592e+00 1.2671697981248617e+02 0.0000000000000000e+00  -1.6186059402096775e+00 1.3651811161622470e+02 0.0000000000000000e+00  7.7349688728507095e-05 1.3651811161621896e+02 0.0000000000000000e+00  -3.4325505185911290e-09 1.3651811161622553e+02 0.0000000000000000e+00  -5.7689084443562491e-12 1.3651811161622234e+02 0.0000000000000000e+00  -7.1719690461118493e-12 1.3651811161622607e+02 0.0000000000000000e+00  -6.2691067635297242e-12 1.3651811161622260e+02 0.0000000000000000e+00  -1.3575650225983037e-11 1.3651811161621649e+02 0.0000000000000000e+00  -2.2366396027553783e-11 1.3651811161622228e+02 0.00000000