<?xml version="1.0"?>
<VTKFile type="UnstructuredGrid"  version="0.1"  >
<UnstructuredGrid>
<Piece  NumberOfPoints="1091" NumberOfCells="2050">
<Points>
<DataArray  type="Float64"  NumberOfComponents="3"  format="ascii">-0.5 -1 0  -0.4 -1 0  -0.3 -1 0  -0.2 -1 0  -0.09999999999999998 -1 0  0 -1 0  0.09999999999999998 -1 0  0.2 -1 0  0.3 -1 0  0.4 -1 0  0.5 -1 0  -0.5 -0.98 0  -0.4 -0.98 0  -0.3 -0.98 0  -0.2 -0.98 0  -0.09999999999999998 -0.98 0  0 -0.98 0  0.09999999999999998 -0.98 0  0.2 -0.98 0  0.3 -0.98 0  0.4 -0.98 0  0.5 -0.98 0  -0.5 -0.96 0  -0.4 -0.96 0  -0.3 -0.96 0  -0.2 -0.96 0  -0.09999999999999998 -0.96 0  0 -0.96 0  0.09999999999999998 -0.96 0  0.2 -0.96 0  0.3 -0.96 0  0.4 -0.96 0  0.5 -0.96 0  -0.5 -0.9399999999999999 0  -0.4 -0.9399999999999999 0  -0.3 -0.9399999999999999 0  -0.2 -0.9399999999999999 0  -0.09999999999999998 -0.9399999999999999 0  0 -0.9399999999999999 0  0.09999999999999998 -0.9399999999999999 0  0.2 -0.9399999999999999 0  0.3 -0.9399999999999999 0  0.4 -0.9399999999999999 0  0.5 -0.9399999999999999 0  -0.5 -0.92 0  -0.4 -0.92 0  -0.3 -0.92 0  -0.2 -0.92 0  -0.09999999999999998 -0.92 0  0 -0.92 0  0.09999999999999998 -0.92 0  0.2 -0.92 0  0.3 -0.92 0  0.4 -0.92 0  0.5 -0.92 0  -0.5 -0.9 0  -0.4 -0.9 0  -0.3 -0.9 0  -0.2 -0.9 0  -0.09999999999999998 -0.9 0  0 -0.9 0  0.09999999999999998 -0.9 0  0.2 -0.9 0  0.3 -0.9 0  0.4 -0.9 0  0.5 -0.9 0  -0.5 -0.88 0  -0.4 -0.88 0  -0.3 -0.88 0  -0.2 -0.88 0  -0.09999999999999998 -0.88 0  0 -0.88 0  0.09999999999999998 -0.88 0  0.2 -0.88 0  0.3 -0.88 0  0.4 -0.88 0  0.5 -0.88 0  -0.5 -0.86 0  -0.4 -0.86 0  -0.3 -0.86 0  -0.2 -0.86 0  -0.09999999999999998 -0.86 0  0 -0.86 0  0.09999999999999998 -0.86 0  0.2 -0.86 0  0.3 -0.86 0  0.4 -0.86 0  0.5 -0.86 0  -0.5 -0.84 0  -0.4 -0.84 0  -0.3 -0.84 0  -0.2 -0.84 0  -0.09999999999999998 -0.84 0  0 -0.84 0  0.09999999999999998 -0.84 0  0.2 -0.84 0  0.3 -0.84 0  0.4 -0.84 0  0.5 -0.84 0  -0.5 -0.8200000000000001 0  -0.4 -0.8200000000000001 0  -0.3 -0.8200000000000001 0  -0.2 -0.8200000000000001 0  -0.09999999999999998 -0.8200000000000001 0  0 -0.8200000000000001 0  0.09999999999999998 -0.8200000000000001 0  0.2 -0.8200000000000001 0  0.3 -0.8200000000000001 0  0.4 -0.8200000000000001 0  0.5 -0.8200000000000001 0  -0.5 -0.8 0  -0.4 -0.8 0  -0.3 -0.8 0  -0.2 -0.8 0  -0.09999999999999998 -0.8 0  0 -0.8 0  0.09999999999999998 -0.8 0  0.2 -0.8 0  0.3 -0.8 0  0.4 -0.8 0  0.5 -0.8 0  -0.5 -0.78 0  -0.4 -0.78 0  -0.3 -0.78 0  -0.2 -0.78 0  -0.09999999999999998 -0.78 0  0 -0.78 0  0.09999999999999998 -0.78 0  0.2 -0.78 0  0.3 -0.78 0  0.4 -0.78 0  0.5 -0.78 0  -0.5 -0.76 0  -0.4 -0.76 0  -0.3 -0.76 0  -0.2 -0.76 0  -0.09999999999999998 -0.76 0  0 -0.76 0  0.09999999999999998 -0.76 0  0.2 -0.76 0  0.3 -0.76 0  0.4 -0.76 0  0.5 -0.76 0  -0.5 -0.74 0  -0.4 -0.74 0  -0.3 -0.74 0  -0.2 -0.74 0  -0.09999999999999998 -0.74 0  0 -0.74 0  0.09999999999999998 -0.74 0  0.2 -0.74 0  0.3 -0.74 0  0.4 -0.74 0  0.5 -0.74 0  -0.5 -0.72 0  -0.4 -0.72 0  -0.3 -0.72 0  -0.2 -0.72 0  -0.09999999999999998 -0.72 0  0 -0.72 0  0.09999999999999998 -0.72 0  0.2 -0.72 0  0.3 -0.72 0  0.4 -0.72 0  0.5 -0.72 0  -0.5 -0.7 0  -0.4 -0.7 0  -0.3 -0.7 0  -0.2 -0.7 0  -0.09999999999999998 -0.7 0  0 -0.7 0  0.09999999999999998 -0.7 0  0.2 -0.7 0  0.3 -0.7 0  0.4 -0.7 0  0.5 -0.7 0  -0.5 -0.6799999999999999 0  -0.4 -0.6799999999999999 0  -0.3 -0.6799999999999999 0  -0.2 -0.6799999999999999 0  -0.09999999999999998 -0.6799999999999999 0  0 -0.6799999999999999 0  0.09999999999999998 -0.6799999999999999 0  0.2 -0.6799999999999999 0  0.3 -0.6799999999999999 0  0.4 -0.6799999999999999 0  0.5 -0.6799999999999999 0  -0.5 -0.6599999999999999 0  -0.4 -0.6599999999999999 0  -0.3 -0.6599999999999999 0  -0.2 -0.6599999999999999 0  -0.09999999999999998 -0.6599999999999999 0  0 -0.6599999999999999 0  0.09999999999999998 -0.6599999999999999 0  0.2 -0.6599999999999999 0  0.3 -0.6599999999999999 0  0.4 -0.6599999999999999 0  0.5 -0.6599999999999999 0  -0.5 -0.64 0  -0.4 -0.64 0  -0.3 -0.64 0  -0.2 -0.64 0  -0.09999999999999998 -0.64 0  0 -0.64 0  0.09999999999999998 -0.64 0  0.2 -0.64 0  0.3 -0.64 0  0.4 -0.64 0  0.5 -0.64 0  -0.5 -0.62 0  -0.4 -0.62 0  -0.3 -0.62 0  -0.2 -0.62 0  -0.09999999999999998 -0.62 0  0 -0.62 0  0.09999999999999998 -0.62 0  0.2 -0.62 0  0.3 -0.62 0  0.4 -0.62 0  0.5 -0.62 0  -0.5 -0.6 0  -0.4 -0.6 0  -0.3 -0.6 0  -0.2 -0.6 0  -0.09999999999999998 -0.6 0  0 -0.6 0  0.09999999999999998 -0.6 0  0.2 -0.6 0  0.3 -0.6 0  0.4 -0.6 0  0.5 -0.6 0  -0.5 -0.5800000000000001 0  -0.4 -0.5800000000000001 0  -0.3 -0.5800000000000001 0  -0.2 -0.5800000000000001 0  -0.09999999999999998 -0.5800000000000001 0  0 -0.5800000000000001 0  0.09999999999999998 -0.5800000000000001 0  0.2 -0.5800000000000001 0  0.3 -0.5800000000000001 0  0.4 -0.5800000000000001 0  0.5 -0.5800000000000001 0  -0.5 -0.5600000000000001 0  -0.4 -0.5600000000000001 0  -0.3 -0.5600000000000001 0  -0.2 -0.5600000000000001 0  -0.09999999999999998 -0.5600000000000001 0  0 -0.5600000000000001 0  0.09999999999999998 -0.5600000000000001 0  0.2 -0.5600000000000001 0  0.3 -0.5600000000000001 0  0.4 -0.5600000000000001 0  0.5 -0.5600000000000001 0  -0.5 -0.54 0  -0.4 -0.54 0  -0.3 -0.54 0  -0.2 -0.54 0  -0.09999999999999998 -0.54 0  0 -0.54 0  0.09999999999999998 -0.54 0  0.2 -0.54 0  0.3 -0.54 0  0.4 -0.54 0  0.5 -0.54 0  -0.5 -0.52 0  -0.4 -0.52 0  -0.3 -0.52 0  -0.2 -0.52 0  -0.09999999999999998 -0.52 0  0 -0.52 0  0.09999999999999998 -0.52 0  0.2 -0.52 0  0.3 -0.52 0  0.4 -0.52 0  0.5 -0.52 0  -0.5 -0.5 0  -0.4 -0.5 0  -0.3 -0.5 0  -0.2 -0.5 0  -0.09999999999999998 -0.5 0  0 -0.5 0  0.09999999999999998 -0.5 0  0.2 -0.5 0  0.3 -0.5 0  0.4 -0.5 0  0.5 -0.5 0  -0.5 -0.48 0  -0.4 -0.48 0  -0.3 -0.48 0  -0.2 -0.48 0  -0.09999999999999998 -0.48 0  0 -0.48 0  0.09999999999999998 -0.48 0  0.2 -0.48 0  0.3 -0.48 0  0.4 -0.48 0  0.5 -0.48 0  -0.5 -0.46 0  -0.4 -0.46 0  -0.3 -0.46 0  -0.2 -0.46 0  -0.09999999999999998 -0.46 0  0 -0.46 0  0.09999999999999998 -0.46 0  0.2 -0.46 0  0.3 -0.46 0  0.4 -0.46 0  0.5 -0.46 0  -0.5 -0.4399999999999999 0  -0.4 -0.4399999999999999 0  -0.3 -0.4399999999999999 0  -0.2 -0.4399999999999999 0  -0.09999999999999998 -0.4399999999999999 0  0 -0.4399999999999999 0  0.09999999999999998 -0.4399999999999999 0  0.2 -0.4399999999999999 0  0.3 -0.4399999999999999 0  0.4 -0.4399999999999999 0  0.5 -0.4399999999999999 0  -0.5 -0.42 0  -0.4 -0.42 0  -0.3 -0.42 0  -0.2 -0.42 0  -0.09999999999999998 -0.42 0  0 -0.42 0  0.09999999999999998 -0.42 0  0.2 -0.42 0  0.3 -0.42 0  0.4 -0.42 0  0.5 -0.42 0  -0.5 -0.4 0  -0.4 -0.4 0  -0.3 -0.4 0  -0.2 -0.4 0  -0.09999999999999998 -0.4 0  0 -0.4 0  0.09999999999999998 -0.4 0  0.2 -0.4 0  0.3 -0.4 0  0.4 -0.4 0  0.5 -0.4 0  -0.5 -0.38 0  -0.4 -0.38 0  -0.3 -0.38 0  -0.2 -0.38 0  -0.09999999999999998 -0.38 0  0 -0.38 0  0.09999999999999998 -0.38 0  0.2 -0.38 0  0.3 -0.38 0  0.4 -0.38 0  0.5 -0.38 0  -0.5 -0.36 0  -0.4 -0.36 0  -0.3 -0.36 0  -0.2 -0.36 0  -0.09999999999999998 -0.36 0  0 -0.36 0  0.09999999999999998 -0.36 0  0.2 -0.36 0  0.3 -0.36 0  0.4 -0.36 0  0.5 -0.36 0  -0.5 -0.34 0  -0.4 -0.34 0  -0.3 -0.34 0  -0.2 -0.34 0  -0.09999999999999998 -0.34 0  0 -0.34 0  0.09999999999999998 -0.34 0  0.2 -0.34 0  0.3 -0.34 0  0.4 -0.34 0  0.5 -0.34 0  -0.5 -0.32 0  -0.4 -0.32 0  -0.3 -0.32 0  -0.2 -0.32 0  -0.09999999999999998 -0.32 0  0 -0.32 0  0.09999999999999998 -0.32 0  0.2 -0.32 0  0.3 -0.32 0  0.4 -0.32 0  0.5 -0.32 0  -0.5 -0.3 0  -0.4 -0.3 0  -0.3 -0.3 0  -0.2 -0.3 0  -0.09999999999999998 -0.3 0  0 -0.3 0  0.09999999999999998 -0.3 0  0.2 -0.3 0  0.3 -0.3 0  0.4 -0.3 0  0.5 -0.3 0  -0.5 -0.28 0  -0.4 -0.28 0  -0.3 -0.28 0  -0.2 -0.28 0  -0.09999999999999998 -0.28 0  0 -0.28 0  0.09999999999999998 -0.28 0  0.2 -0.28 0  0.3 -0.28 0  0.4 -0.28 0  0.5 -0.28 0  -0.5 -0.26 0  -0.4 -0.26 0  -0.3 -0.26 0  -0.2 -0.26 0  -0.09999999999999998 -0.26 0  0 -0.26 0  0.09999999999999998 -0.26 0  0.2 -0.26 0  0.3 -0.26 0  0.4 -0.26 0  0.5 -0.26 0  -0.5 -0.24 0  -0.4 -0.24 0  -0.3 -0.24 0  -0.2 -0.24 0  -0.09999999999999998 -0.24 0  0 -0.24 0  0.09999999999999998 -0.24 0  0.2 -0.24 0  0.3 -0.24 0  0.4 -0.24 0  0.5 -0.24 0  -0.5 -0.22 0  -0.4 -0.22 0  -0.3 -0.22 0  -0.2 -0.22 0  -0.09999999999999998 -0.22 0  0 -0.22 0  0.09999999999999998 -0.22 0  0.2 -0.22 0  0.3 -0.22 0  0.4 -0.22 0  0.5 -0.22 0  -0.5 -0.2 0  -0.4 -0.2 0  -0.3 -0.2 0  -0.2 -0.2 0  -0.09999999999999998 -0.2 0  0 -0.2 0  0.09999999999999998 -0.2 0  0.2 -0.2 0  0.3 -0.2 0  0.4 -0.2 0  0.5 -0.2 0  -0.5 -0.18 0  -0.4 -0.18 0  -0.3 -0.18 0  -0.2 -0.18 0  -0.09999999999999998 -0.18 0  0 -0.18 0  0.09999999999999998 -0.18 0  0.2 -0.18 0  0.3 -0.18 0  0.4 -0.18 0  0.5 -0.18 0  -0.5 -0.16 0  -0.4 -0.16 0  -0.3 -0.16 0  -0.2 -0.16 0  -0.09999999999999998 -0.16 0  0 -0.16 0  0.09999999999999998 -0.16 0  0.2 -0.16 0  0.3 -0.16 0  0.4 -0.16 0  0.5 -0.16 0  -0.5 -0.14 0  -0.4 -0.14 0  -0.3 -0.14 0  -0.2 -0.14 0  -0.09999999999999998 -0.14 0  0 -0.14 0  0.09999999999999998 -0.14 0  0.2 -0.14 0  0.3 -0.14 0  0.4 -0.14 0  0.5 -0.14 0  -0.5 -0.12 0  -0.4 -0.12 0  -0.3 -0.12 0  -0.2 -0.12 0  -0.09999999999999998 -0.12 0  0 -0.12 0  0.09999999999999998 -0.12 0  0.2 -0.12 0  0.3 -0.12 0  0.4 -0.12 0  0.5 -0.12 0  -0.5 -0.09999999999999998 0  -0.4 -0.09999999999999998 0  -0.3 -0.09999999999999998 0  -0.2 -0.09999999999999998 0  -0.09999999999999998 -0.09999999999999998 0  0 -0.09999999999999998 0  0.09999999999999998 -0.09999999999999998 0  0.2 -0.09999999999999998 0  0.3 -0.09999999999999998 0  0.4 -0.09999999999999998 0  0.5 -0.09999999999999998 0  -0.5 -0.07999999999999996 0  -0.4 -0.07999999999999996 0  -0.3 -0.07999999999999996 0  -0.2 -0.07999999999999996 0  -0.09999999999999998 -0.07999999999999996 0  0 -0.07999999999999996 0  0.09999999999999998 -0.07999999999999996 0  0.2 -0.07999999999999996 0  0.3 -0.07999999999999996 0  0.4 -0.07999999999999996 0  0.5 -0.07999999999999996 0  -0.5 -0.06000000000000005 0  -0.4 -0.06000000000000005 0  -0.3 -0.06000000000000005 0  -0.2 -0.06000000000000005 0  -0.09999999
[...]
<PointData  Vectors="flow"> 
<DataArray  type="Float64"  Name="flow"  NumberOfComponents="3" format="ascii">-3.1294503339680843e-15 -1.9664542138460561e-15 0.0000000000000000e+00  -1.6645486521259971e-15 -2.1712800087242554e-15 0.0000000000000000e+00  -2.4177442807884811e-16 3.0494350856624032e-15 0.0000000000000000e+00  2.8307677699574059e-15 -2.4290210642978941e-15 0.0000000000000000e+00  -1.2563023858015533e-16 4.7784553958892182e-15 0.0000000000000000e+00  5.7611559305850601e-16 -1.9688563443815331e-15 0.0000000000000000e+00  3.5862850648299258e-15 1.0237784345988780e-14 0.0000000000000000e+00  1.3730856615902388e-15 2.9037174149714155e-15 0.0000000000000000e+00  6.8022034154732924e-16 6.9751891617168015e-16 0.0000000000000000e+00  1.4677305896591943e-15 5.7442904674833618e-16 0.0000000000000000e+00  3.0417676981162926e-15 -5.0002813641853574e-15 0.0000000000000000e+00  -2.5351045478502737e-15 3.4004537591495779e-15 0.0000000000000000e+00  -2.1032160012360218e-15 2.4656127138259428e-15 0.0000000000000000e+00  -2.1819873332698846e-16 -3.4065375837960539e-15 0.0000000000000000e+00  2.4485193513741901e-15 2.5602699392681312e-15 0.0000000000000000e+00  -2.5123337064097456e-16 -7.7450618842328284e-16 0.0000000000000000e+00  1.3223571607941265e-15 2.5994428390313157e-16 0.0000000000000000e+00  4.2961283605800796e-15 1.8730618295489887e-15 0.0000000000000000e+00  5.4573926586585324e-16 -3.9096100606185052e-16 0.0000000000000000e+00  1.1579913028803496e-15 2.0523055415782658e-15 0.0000000000000000e+00  1.3827686815323113e-15 2.7373649170185857e-15 0.0000000000000000e+00  1.8751728185597596e-15 -3.3914073123970762e-16 0.0000000000000000e+00  -1.0710650575925251e-15 -6.6710417033013207e-15 0.0000000000000000e+00  -2.1045330304463830e-15 2.9417090738941886e-15 0.0000000000000000e+00  -7.3532599403095122e-16 -2.6045896170375765e-15 0.0000000000000000e+00  3.3162072347260160e-15 -2.7410257194713732e-16 0.0000000000000000e+00  7.6186148538153267e-18 1.9025800693434115e-16 0.0000000000000000e+00  1.4239544928643297e-15 7.9396734944661968e-15 0.0000000000000000e+00  3.2680850624433510e-15 8.0858900904364989e-15 0.0000000000000000e+00  1.2240076212287303e-15 6.8236220967739350e-15 0.0000000000000000e+00  5.9602625448134854e-16 -2.6626877565836113e-15 0.0000000000000000e+00  1.0148001592984709e-15 -8.3000324926245931e-16 0.0000000000000000e+00  1.5511645331104148e-15 2.1427452574495749e-15 0.0000000000000000e+00  -2.6866728078344587e-15 4.4180240391103164e-15 0.0000000000000000e+00  -1.3202723771845904e-15 -7.1502083123811185e-15 0.0000000000000000e+00  -9.3991009021850491e-16 -6.2206092094260848e-15 0.0000000000000000e+00  3.7454805691488090e-15 1.5360419465420151e-15 0.0000000000000000e+00  9.3448154996149064e-16 -1.4100677116220892e-15 0.0000000000000000e+00  2.0436221023791290e-15 4.4321528392341284e-15 0.0000000000000000e+00  4.6700216063047852e-15 1.6033774221559311e-14 0.0000000000000000e+00  -1.3142106095842417e-15 1.1789310491407813e-14 0.0000000000000000e+00  -4.1396577261037354e-16 -1.6528491534383213e-14 0.0000000000000000e+00  2.5380004108382441e-15 1.0606437190210750e-14 0.0000000000000000e+00  2.6773224896929744e-15 -1.5290681145174530e-15 0.0000000000000000e+00  -4.5620207216986193e-15 1.6757943586428920e-14 0.0000000000000000e+00  -4.4032683545483540e-15 3.1624581334458222e-16 0.0000000000000000e+00  -2.3752105035163546e-16 -4.1307586720945475e-15 0.0000000000000000e+00  4.5315043788468995e-15 -1.0589304120045815e-14 0.0000000000000000e+00  1.1352623682347983e-15 6.9404906366706457e-15 0.0000000000000000e+00  4.8799927576604343e-15 6.5165448987337496e-15 0.0000000000000000e+00  5.3696659481313702e-15 1.3276901352477537e-14 0.0000000000000000e+00  -7.2991285686944196e-15 1.5281747300300401e-14 0.0000000000000000e+00  1.3356982041408302e-15 -1.6668162651406284e-14 0.0000000000000000e+00  4.6558336744340813e-15 3.9836584745932341e-15 0.0000000000000000e+00  -3.1852429949969332e-15 -6.2958200394576682e-15 0.0000000000000000e+00  -8.1585079146902945e-15 -2.9188381564928757e-15 0.0000000000000000e+00  -4.1913191645376910e-15 -7.3840131787191148e-15 0.0000000000000000e+00  -2.3646900603614988e-15 6.0118283318443789e-15 0.0000000000000000e+00  5.6396140780282676e-15 -1.7385916525296616e-15 0.0000000000000000e+00  2.8020522272864165e-15 -8.8614689368270896e-16 0.0000000000000000e+00  3.5250383150998995e-15 -8.2788414062001540e-15 0.0000000000000000e+00  7.2397606950046770e-15 -6.6803517443282686e-15 0.0000000000000000e+00  -7.0660821118724034e-15 7.9439307159532977e-15 0.0000000000000000e+00  -2.8229273003520162e-15 8.2257870487254185e-16 0.0000000000000000e+00  4.8535933250427699e-15 -8.0022537083024553e-15 0.0000000000000000e+00  -4.6338090921840549e-15 -7.6688639670784487e-17 0.0000000000000000e+00  -9.0231664347971406e-15 -6.9713183259338529e-15 0.0000000000000000e+00  -4.6449514854491715e-15 -3.0317280277592962e-15 0.0000000000000000e+00  9.6343272728640414e-16 -7.2561681487608771e-15 0.0000000000000000e+00  3.7854021776957435e-15 7.4775524865279870e-15 0.0000000000000000e+00  2.8786436982599139e-16 -1.7703842786873521e-14 0.0000000000000000e+00  4.6773007034339813e-15 -2.2711936347435846e-15 0.0000000000000000e+00  6.9681001442030798e-15 -1.4063924111535052e-14 0.0000000000000000e+00  -4.7254549769420819e-15 -1.0049369704810731e-14 0.0000000000000000e+00  -3.5901891335652815e-15 -3.2666431034846077e-15 0.0000000000000000e+00  4.5270107911709063e-15 5.7083494000545985e-15 0.0000000000000000e+00  -2.9733786624250965e-15 -1.9439688325029215e-14 0.0000000000000000e+00  -3.7386181820180966e-15 -1.6597740628986501e-14 0.0000000000000000e+00  -2.6798669247005595e-15 -5.1575420804705983e-15 0.0000000000000000e+00  -1.4296596387144964e-16 1.0092848351513063e-14 0.0000000000000000e+00  3.0962950973608603e-15 -3.4009812887238298e-15 0.0000000000000000e+00  1.5328845582572469e-15 8.3152174741278400e-15 0.0000000000000000e+00  3.7676325071059245e-15 -1.3441640882339343e-15 0.0000000000000000e+00  5.2215365919880721e-15 2.1644522284011430e-14 0.0000000000000000e+00  -4.1926541659990932e-15 -6.1575175135462110e-15 0.0000000000000000e+00  1.6794362654456015e-15 3.6533994301654027e-15 0.0000000000000000e+00  7.0649676374533284e-16 2.3781483106231741e-14 0.0000000000000000e+00  -7.8632834310084794e-15 -2.1562311111020294e-14 0.0000000000000000e+00  -7.6345564953218937e-15 1.9675657210794032e-15 0.0000000000000000e+00  1.1694873827019956e-15 1.2247238589184179e-14 0.0000000000000000e+00  2.0193119254249401e-16 4.5341405961678390e-15 0.0000000000000000e+00  2.2259632752019273e-15 -2.3059133369513581e-15 0.0000000000000000e+00  -4.6524115314823524e-16 -1.3893634888002778e-15 0.0000000000000000e+00  8.4761974278608416e-15 -1.4647301836256138e-14 0.0000000000000000e+00  7.2546638733389519e-15 4.4105452181422413e-14 0.0000000000000000e+00  -1.0148469847168664e-14 1.0522160579970493e-14 0.0000000000000000e+00  4.5432272918925601e-15 -1.3781701788741567e-15 0.0000000000000000e+00  -9.5085455658311252e-16 2.8312233013051618e-14 0.0000000000000000e+00  -1.7541813970217729e-14 7.7372908734954401e-15 0.0000000000000000e+00  9.6788306055754155e-16 1.6498792439154589e-14 0.0000000000000000e+00  -3.3747597586819378e-15 1.9594945013311382e-14 0.0000000000000000e+00  -3.1612724752969477e-16 1.1017751172818363e-14 0.0000000000000000e+00  3.6089464864827503e-15 3.6295500004555111e-15 0.0000000000000000e+00  -4.9600823483370898e-16 1.9641832734902987e-14 0.0000000000000000e+00  1.1229661519114803e-14 2.9731108371450269e-15 0.0000000000000000e+00  8.7448613482894289e-15 -2.0373121515095629e-14 0.0000000000000000e+00  -1.4110724653766624e-14 1.1141846353396636e-14 0.0000000000000000e+00  4.8453056618261852e-15 -1.0548769166129339e-14 0.0000000000000000e+00  1.0185555946527554e-15 -5.3517315479817542e-15 0.0000000000000000e+00  -2.6080107952976005e-14 -1.8067944055967933e-14 0.0000000000000000e+00  -1.8158764213111248e-15 5.0787439439699751e-15 0.0000000000000000e+00  -6.8672353812496800e-17 1.3694946040240340e-14 0.0000000000000000e+00  -4.4812947645054085e-15 2.8929109721049310e-14 0.0000000000000000e+00  3.5853045969683237e-16 -2.7434671603257927e-14 0.0000000000000000e+00  1.7032103988811953e-15 -2.0493401950117541e-14 0.0000000000000000e+00  1.9536663034444877e-15 1.2489515734240987e-14 0.0000000000000000e+00  1.1009474209509646e-14 -3.4763443828798276e-14 0.0000000000000000e+00  -6.6895532897124273e-15 1.1910823372408567e-14 0.0000000000000000e+00  1.2675558779283386e-15 2.6376925515550012e-14 0.0000000000000000e+00  -1.7455086195170780e-15 6.1233443358885712e-15 0.0000000000000000e+00  -2.1113200098116345e-14 -2.4681021311825190e-14 0.0000000000000000e+00  -1.5235489371814054e-15 -3.2439501315220075e-15 0.0000000000000000e+00  2.3871901971184213e-15 1.5268909981226084e-14 0.0000000000000000e+00  -6.6195432011626347e-15 -5.6249054554293961e-15 0.0000000000000000e+00  -5.2495674892551957e-15 -8.7862243564217865e-16 0.0000000000000000e+00  6.0078375876875101e-15 -7.6248735030902062e-15 0.0000000000000000e+00  4.9936428882715102e-15 -3.3256632706027475e-16 0.0000000000000000e+00  9.4333544494429831e-15 1.0928902631659461e-14 0.0000000000000000e+00  -2.9988977756567554e-15 -1.5895019238136708e-14 0.0000000000000000e+00  2.4027954188114414e-15 2.9059493182108636e-14 0.0000000000000000e+00  -8.5475213126634850e-15 7.9108008441511996e-15 0.0000000000000000e+00  -3.2660830200914352e-14 -2.4876243077243687e-14 0.0000000000000000e+00  4.1145063187898051e-15 -2.5601073532950347e-15 0.0000000000000000e+00  6.3535062295236577e-17 3.0202277897790025e-14 0.0000000000000000e+00  -9.5291850837206986e-15 -2.8914939325895764e-14 0.0000000000000000e+00  -4.2268756074281373e-16 -6.3860184473329897e-15 0.0000000000000000e+00  4.9828678481938131e-15 6.7481945610230545e-15 0.0000000000000000e+00  3.2962740977469555e-15 4.6075853904504304e-14 0.0000000000000000e+00  7.4918813043020044e-15 -4.3336662234607520e-14 0.0000000000000000e+00  -1.7175206338612097e-15 -5.4383227189075107e-14 0.0000000000000000e+00  6.2562296939531764e-15 4.8631219954124729e-15 0.0000000000000000e+00  -1.1998192910318854e-14 -1.6953784980670780e-15 0.0000000000000000e+00  -3.0964146875131087e-14 -7.8600660426987198e-15 0.0000000000000000e+00  6.6923242564526194e-15 1.8453570408947848e-14 0.0000000000000000e+00  -5.4953775156207848e-15 2.0013354551648371e-15 0.0000000000000000e+00  -1.1940780233168173e-14 -7.1800418405912842e-14 0.0000000000000000e+00  2.9839088814656967e-15 -6.8781130226541820e-15 0.0000000000000000e+00  1.3721155226285113e-14 -9.2147019266204300e-15 0.0000000000000000e+00  -1.7723519680586344e-15 2.5215801874239738e-14 0.0000000000000000e+00  -6.7355169882638765e-15 -3.6267092791821847e-14 0.0000000000000000e+00  5.4555235509506146e-15 1.3559717973042862e-14 0.0000000000000000e+00  9.5965403011477542e-15 2.7294348525576276e-15 0.0000000000000000e+00  -1.0062699895929115e-14 1.2630075608545998e-14 0.0000000000000000e+00  -3.6259733817139529e-14 2.0083830365869118e-14 0.0000000000000000e+00  7.2585473762896338e-15 2.7049876511339228e-14 0.0000000000000000e+00  -1.8125794799035290e-14 2.2239859453306552e-14 0.0000000000000000e+00  -1.3690518337090016e-14 -7.4486222214637054e-14 0.0000000000000000e+00  1.3346825089539823e-14 -3.5907359589697865e-14 0.0000000000000000e+00  1.0807321153391994e-14 2.3113255576438192e-14 0.0000000000000000e+00  -8.1802912024803341e-16 -7.8788580013603362e-15 0.0000000000000000e+00  -2.9746562153910529e-15 -7.6288099200821230e-15 0.0000000000000000e+00  7.4400553139642316e-15 -1.6688632350712087e-14 0.0000000000000000e+00  9.5071764880045880e-15 -2.1595274611252977e-14 0.0000000000000000e+00  -7.2416084082462155e-15 2.1840915852814850e-14 0.0000000000000000e+00  -3.2825725472945586e-14 1.7853791649566431e-14 0.0000000000000000e+00  1.0789328472551367e-14 5.5714239120917414e-15 0.0000000000000000e+00  -2.4167034537813615e-14 3.6407545887434963e-14 0.0000000000000000e+00  -2.0440957866131545e-14 -1.5135461428314296e-14 0.0000000000000000e+00  2.0571289771581518e-14 6.8991110790481715e-15 0.0000000000000000e+00  1.5920614198831489e-14 3.4403463693228224e-14 0.0000000000000000e+00  -4.6266186481584954e-15 -3.0326912312509257e-14 0.0000000000000000e+00  -5.8146734709307451e-15 -2.5640421820689273e-14 0.0000000000000000e+00  4.4323858799845030e-15 -2.9340845255865580e-14 0.0000000000000000e+00  1.4966336374708291e-14 6.3153710400613084e-15 0.0000000000000000e+00  -4.7612152971343237e-15 6.3150543786133955e-15 0.0000000000000000e+00  -3.5203060972120067e-14 1.4634765565892980e-14 0.0000000000000000e+00  1.0993860563662309e-14 2.3871587771784722e-14 0.0000000000000000e+00  -2.4797949399949922e-14 -2.3979924574448847e-15 0.0000000000000000e+00  -2.0556981447283563e-14 2.4669623361600661e-14 0.0000000000000000e+00  2.3237839396869069e-14 3.8677254175322103e-14 0.0000000000000000e+00  6.4940453113327031e-15 -1.3575694324952288e-14 0.0000000000000000e+00  -1.1800043506098143e-14 -2.6978923828659102e-14 0.0000000000000000e+00  -5.2557994370696421e-15 -2.3781893760186711e-14 0.0000000000000000e+00  1.1537852193057670e-14 -1.9702899363008579e-14 0.0000000000000000e+00  1.8571907100164661e-14 -9.8769831626767771e-15 0.0000000000000000e+00  -5.2288682269834784e-15 1.1127219993723925e-14 0.0000000000000000e+00  -2.7838864452189593e-14 4.5124222112573756e-14 0.0000000000000000e+00  2.1582115532889391e-15 1.8634124629001730e-14 0.0000000000000000e+00  -2.3210038947018835e-14 -1.8456966505972663e-14 0.0000000000000000e+00  -1.1269382620714747e-14 2.1140861265192268e-14 0.0000000000000000e+00  1.8487782158105832e-14 3.7892209908475079e-14 0.0000000000000000e+00  -1.7609828001436287e-15 1.6076952750247006e-14 0.0000000000000000e+00  -1.1051947968309987e-14 -2.0824449290531871e-14 0.0000000000000000e+00  -7.2129340736553498e-15 -2.5292214354033003e-14 0.0000000000000000e+00  1.0772892000012206e-14 -3.8049623373111781e-14 0.0000000000000000e+00  2.1875465229003979e-14 -5.2841800494129164e-14 0.0000000000000000e+00  3.6820186400690617e-15 9.9768810984364212e-15 0.0000000000000000e+00  -2.0223336248111491e-14 -2.9769213548917879e-14 0.0000000000000000e+00  1.3378316089186259e-17 3.3314772628782289e-14 0.0000000000000000e+00  -2.6529904633784309e-14 -3.7111429937315119e-14 0.0000000000000000e+00  -1.0378394212148584e-14 1.6946437942712256e-14 0.0000000000000000e+00  1.7022578791254599e-14 -1.4483884219756902e-15 0.0000000000000000e+00  -4.6305234878518153e-15 -4.6422641443438901e-14 0.0000000000000000e+00  -9.6638401404272057e-15 -5.1000113647389439e-14 0.0000000000000000e+00  -5.7739021074634412e-15 7.0762367327551093e-14 0.0000000000000000e+00  3.9949514246642368e-15 -2.3440856253157232e-15 0.0000000000000000e+00  2.5953995709777091e-14 -3.8968589242570417e-14 0.0000000000000000e+00  1.5931936719457267e-15 1.6439538589436744e-14 0.0000000000000000e+00  -3.6445433882168528e-14 -3.5161946007861764e-14 0.0000000000000000e+00  -2.7318885666424707e-14 4.8109998277266423e-14 0.0000000000000000e+00  -2.6695113395331491e-14 -3.4545183617961376e-14 0.0000000000000000e+00  -7.3347278663878197e-16 9.5113037709299935e-15 0.0000000000000000e+00  4.9601077194326675e-15 4.0623162923237056e-14 0.0000000000000000e+00  -1.1406969547966523e-14 -4.3586521858388614e-14 0.0000000000000000e+00  9.7562254665871483e-17 -5.1032821815906460e-14 0.0000000000000000e+00  5.9829876938212117e-15 1.6798940770138895e-14 0.0000000000000000e+00  -6.8922682694128064e-15 4.1745464093811687e-14 0.0000000000000000e+00  2.6822417254832544e-14 1.7924654184493723e-14 0.0000000000000000e+00  6.9941156590400344e-18 2.9315239525681963e-14 0.0000000000000000e+00  -5.3726043480782248e-14 -5.4738416540830721e-14 0.0000000000000000e+00  -3.2823291158911921e-14 1.3791424865371816e-14 0.0000000000000000e+00  -3.0715248055288135e-14 -3.2824154051229249e-15 0.0000000000000000e+00  3.0998300918231527e-15 -3.4884079560054144e-14 0.0000000000000000e+00  8.9132944295012759e-15 3.3162305515910554e-14 0.0000000000000000e+00  -1.4387831690557851e-14 -1.8044852361793849e-14 0.0000000000000000e+00  5.7573729232768808e-16 4.2384593625269163e-14 0.0000000000000000e+00  9.0009639342542033e-15 3.1645805594670078e-14 0.0000000000000000e+00  -4.4118105886419295e-15 4.6879613815713110e-14 0.0000000000000000e+00  2.5257227243658527e-14 -1.8099003526190044e-15 0.0000000000000000e+00  -6.0878730894800842e-15 2.6758646288581949e-15 0.0000000000000000e+00  -6.7240472659063565e-14 -1.4349053575293817e-14 0.0000000000000000e+00  -2.8450870853879606e-14 -1.0386002845338604e-14 0.0000000000000000e+00  -3.5850742732744047e-14 2.4384007912301090e-14 0.0000000000000000e+00  2.7945486728825714e-15 -2.1631169823108534e-14 0.0000000000000000e+00  5.1384727394572151e-15 -2.6594203781519886e-14 0.0000000000000000e+00  -1.2364715493221106e-14 -1.0522931591445564e-14 0.0000000000000000e+00  1.2928302659895185e-14 -3.9085436720026495e-14 0.0000000000000000e+00  1.4308572928805646e-14 6.0310479816851413e-14 0.0000000000000000e+00  -8.1015848870842645e-15 7.2698737245602025e-14 0.0000000000000000e+00  1.4149781671547136e-14 3.2246311504667854e-14 0.0000000000000000e+00  -6.7009595762153507e-15 8.7666421441177502e-15 0.0000000000000000e+00  -6.6790712025907274e-14 -4.1680287120080689e-14 0.0000000000000000e+00  -1.9866932781013757e-14 -1.8899750447190661e-14 0.0000000000000000e+00  -3.4439290264587574e-14 3.6552631956073296e-14 0.0000000000000000e+00  -4.7300917621193024e-15 5.1730283558034500e-15 0.0000000000000000e+00  1.3172433716201336e-14 6.8514018673984265e-14 0.0000000000000000e+00  -1.7595396497976854e-14 9.7293088120097964e-16 0.0000000000000000e+00  1.2837779140232677e-14 3.3594213031639549e-15 0.0000000000000000e+00  2.4522285114712301e-14 4.0325393185992651e-14 0.0000000000000000e+00  -1.0963440001126634e-14 3.3297421806971843e-14 0.0000000000000000e+00  1.6196094098619991e-14 6.2473623700973551e-15 0.0000000000000000e+00  -2.1094521258069085e-14 -2.0077183028465274e-15 0.0000000000000000e+00  -8.0335349471369129e-14 -6.4061658499691229e-14 0.0000000000000000e+00  -1.5385804744033013e-14 -1.5480846571049622e-14 0.0000000000000000e+00  -3.0216532662542738e-14 4.7039055684006189e-14 0.0000000000000000e+00  7.7834084726916592e-15 -2.5016293651695041e-14 0.0000000000000000e+00  4.2439140414571926e-15 8.7068523212355552e-15 0.0000000000000000e+00  -2.7686478834598666e-14 -3.3759110194010269e-14 0.0000000000000000e+00  2.6247666242325280e-14 1.9384701554739034e-14 0.0000000000000000e+00  2.1731991631129367e-14 2.9345623191529327e-14 0.0000000000000000e+00  -1.8326475959754055e-14 1.4222081778707529e-14 0.0000000000000000e+00  6.7001430581795728e-15 -1.7705602360617527e-14 0.0000000000000000e+00  -1.6598289527877892e-14 -5.0374361799114388e-14 0.0000000000000000e+00  -7.6013384935579472e-14 3.4607756982799491e-14 0.0000000000000000e+00  -3.9033909091910755e-15 -8.4845959020239120e-16 0.0000000000000000e+00  -3.5640602724222582e-14 -1.0186374941514539e-14 0.0000000000000000e+00  -1.3948617543026029e-14 7.6421799069901027e-15 0.0000000000000000e+00  1.2646587900291150e-14 -1.1628079852076490e-13 0.0000000000000000e+00  -1.3458860512289791e-14 8.6301843844622666e-14 0.0000000000000000e+00  2.1711708046060501e-14 -1.1919059738402519e-14 0.0000000000000000e+00  2.2697911786102029e-14 4.2312797850468001e-14 0.0000000000000000e+00  -1.3633979397037415e-14 -2.4434082106790278e-14 0.0000000000000000e+00  -3.2684764401540422e-16 3.5305469792656158e-14 0.0000000000000000e+00  -1.3337588379283992e-14 -8.0091878645146572e-15 0.0000000000000000e+00  -6.2467875760578735e-14 -1.6556336469390803e-14 0.0000000000000000e+00  -1.7845224407929951e-14 -4.4237798130189939e-14 0.0000000000000000e+00  -2.6557128674835771e-14 -3.2122353001306649e-14 0.0000000000000000e+00  -1.3120990960280410e-14 -2.2048147867590505e-14 0.0000000000000000e+00  1.7099688204020275e-14 -1.7940776813354717e-14 0.0000000000000000e+00  -6.0403379815421807e-15 6.5962771402003445e-14 0.0000000000000000e+00  2.08715018