<?xml version="1.0"?>
<VTKFile type="UnstructuredGrid"  version="0.1"  >
<UnstructuredGrid>
<Piece  NumberOfPoints="1661" NumberOfCells="3200">
<Points>
<DataArray  type="Float64"  NumberOfComponents="3"  format="ascii">-0.25 -1 0  -0.225 -1 0  -0.2 -1 0  -0.175 -1 0  -0.15 -1 0  -0.125 -1 0  -0.1 -1 0  -0.07500000000000001 -1 0  -0.04999999999999999 -1 0  -0.02499999999999999 -1 0  0 -1 0  0.02500000000000002 -1 0  0.04999999999999999 -1 0  0.07500000000000001 -1 0  0.09999999999999998 -1 0  0.125 -1 0  0.15 -1 0  0.175 -1 0  0.2 -1 0  0.225 -1 0  0.25 -1 0  -0.25 -0.975 0  -0.225 -0.975 0  -0.2 -0.975 0  -0.175 -0.975 0  -0.15 -0.975 0  -0.125 -0.975 0  -0.1 -0.975 0  -0.07500000000000001 -0.975 0  -0.04999999999999999 -0.975 0  -0.02499999999999999 -0.975 0  0 -0.975 0  0.02500000000000002 -0.975 0  0.04999999999999999 -0.975 0  0.07500000000000001 -0.975 0  0.09999999999999998 -0.975 0  0.125 -0.975 0  0.15 -0.975 0  0.175 -0.975 0  0.2 -0.975 0  0.225 -0.975 0  0.25 -0.975 0  -0.25 -0.95 0  -0.225 -0.95 0  -0.2 -0.95 0  -0.175 -0.95 0  -0.15 -0.95 0  -0.125 -0.95 0  -0.1 -0.95 0  -0.07500000000000001 -0.95 0  -0.04999999999999999 -0.95 0  -0.02499999999999999 -0.95 0  0 -0.95 0  0.02500000000000002 -0.95 0  0.04999999999999999 -0.95 0  0.07500000000000001 -0.95 0  0.09999999999999998 -0.95 0  0.125 -0.95 0  0.15 -0.95 0  0.175 -0.95 0  0.2 -0.95 0  0.225 -0.95 0  0.25 -0.95 0  -0.25 -0.925 0  -0.225 -0.925 0  -0.2 -0.925 0  -0.175 -0.925 0  -0.15 -0.925 0  -0.125 -0.925 0  -0.1 -0.925 0  -0.07500000000000001 -0.925 0  -0.04999999999999999 -0.925 0  -0.02499999999999999 -0.925 0  0 -0.925 0  0.02500000000000002 -0.925 0  0.04999999999999999 -0.925 0  0.07500000000000001 -0.925 0  0.09999999999999998 -0.925 0  0.125 -0.925 0  0.15 -0.925 0  0.175 -0.925 0  0.2 -0.925 0  0.225 -0.925 0  0.25 -0.925 0  -0.25 -0.9 0  -0.225 -0.9 0  -0.2 -0.9 0  -0.175 -0.9 0  -0.15 -0.9 0  -0.125 -0.9 0  -0.1 -0.9 0  -0.07500000000000001 -0.9 0  -0.04999999999999999 -0.9 0  -0.02499999999999999 -0.9 0  0 -0.9 0  0.02500000000000002 -0.9 0  0.04999999999999999 -0.9 0  0.07500000000000001 -0.9 0  0.09999999999999998 -0.9 0  0.125 -0.9 0  0.15 -0.9 0  0.175 -0.9 0  0.2 -0.9 0  0.225 -0.9 0  0.25 -0.9 0  -0.25 -0.875 0  -0.225 -0.875 0  -0.2 -0.875 0  -0.175 -0.875 0  -0.15 -0.875 0  -0.125 -0.875 0  -0.1 -0.875 0  -0.07500000000000001 -0.875 0  -0.04999999999999999 -0.875 0  -0.02499999999999999 -0.875 0  0 -0.875 0  0.02500000000000002 -0.875 0  0.04999999999999999 -0.875 0  0.07500000000000001 -0.875 0  0.09999999999999998 -0.875 0  0.125 -0.875 0  0.15 -0.875 0  0.175 -0.875 0  0.2 -0.875 0  0.225 -0.875 0  0.25 -0.875 0  -0.25 -0.85 0  -0.225 -0.85 0  -0.2 -0.85 0  -0.175 -0.85 0  -0.15 -0.85 0  -0.125 -0.85 0  -0.1 -0.85 0  -0.07500000000000001 -0.85 0  -0.04999999999999999 -0.85 0  -0.02499999999999999 -0.85 0  0 -0.85 0  0.02500000000000002 -0.85 0  0.04999999999999999 -0.85 0  0.07500000000000001 -0.85 0  0.09999999999999998 -0.85 0  0.125 -0.85 0  0.15 -0.85 0  0.175 -0.85 0  0.2 -0.85 0  0.225 -0.85 0  0.25 -0.85 0  -0.25 -0.825 0  -0.225 -0.825 0  -0.2 -0.825 0  -0.175 -0.825 0  -0.15 -0.825 0  -0.125 -0.825 0  -0.1 -0.825 0  -0.07500000000000001 -0.825 0  -0.04999999999999999 -0.825 0  -0.02499999999999999 -0.825 0  0 -0.825 0  0.02500000000000002 -0.825 0  0.04999999999999999 -0.825 0  0.07500000000000001 -0.825 0  0.09999999999999998 -0.825 0  0.125 -0.825 0  0.15 -0.825 0  0.175 -0.825 0  0.2 -0.825 0  0.225 -0.825 0  0.25 -0.825 0  -0.25 -0.8 0  -0.225 -0.8 0  -0.2 -0.8 0  -0.175 -0.8 0  -0.15 -0.8 0  -0.125 -0.8 0  -0.1 -0.8 0  -0.07500000000000001 -0.8 0  -0.04999999999999999 -0.8 0  -0.02499999999999999 -0.8 0  0 -0.8 0  0.02500000000000002 -0.8 0  0.04999999999999999 -0.8 0  0.07500000000000001 -0.8 0  0.09999999999999998 -0.8 0  0.125 -0.8 0  0.15 -0.8 0  0.175 -0.8 0  0.2 -0.8 0  0.225 -0.8 0  0.25 -0.8 0  -0.25 -0.775 0  -0.225 -0.775 0  -0.2 -0.775 0  -0.175 -0.775 0  -0.15 -0.775 0  -0.125 -0.775 0  -0.1 -0.775 0  -0.07500000000000001 -0.775 0  -0.04999999999999999 -0.775 0  -0.02499999999999999 -0.775 0  0 -0.775 0  0.02500000000000002 -0.775 0  0.04999999999999999 -0.775 0  0.07500000000000001 -0.775 0  0.09999999999999998 -0.775 0  0.125 -0.775 0  0.15 -0.775 0  0.175 -0.775 0  0.2 -0.775 0  0.225 -0.775 0  0.25 -0.775 0  -0.25 -0.75 0  -0.225 -0.75 0  -0.2 -0.75 0  -0.175 -0.75 0  -0.15 -0.75 0  -0.125 -0.75 0  -0.1 -0.75 0  -0.07500000000000001 -0.75 0  -0.04999999999999999 -0.75 0  -0.02499999999999999 -0.75 0  0 -0.75 0  0.02500000000000002 -0.75 0  0.04999999999999999 -0.75 0  0.07500000000000001 -0.75 0  0.09999999999999998 -0.75 0  0.125 -0.75 0  0.15 -0.75 0  0.175 -0.75 0  0.2 -0.75 0  0.225 -0.75 0  0.25 -0.75 0  -0.25 -0.725 0  -0.225 -0.725 0  -0.2 -0.725 0  -0.175 -0.725 0  -0.15 -0.725 0  -0.125 -0.725 0  -0.1 -0.725 0  -0.07500000000000001 -0.725 0  -0.04999999999999999 -0.725 0  -0.02499999999999999 -0.725 0  0 -0.725 0  0.02500000000000002 -0.725 0  0.04999999999999999 -0.725 0  0.07500000000000001 -0.725 0  0.09999999999999998 -0.725 0  0.125 -0.725 0  0.15 -0.725 0  0.175 -0.725 0  0.2 -0.725 0  0.225 -0.725 0  0.25 -0.725 0  -0.25 -0.7 0  -0.225 -0.7 0  -0.2 -0.7 0  -0.175 -0.7 0  -0.15 -0.7 0  -0.125 -0.7 0  -0.1 -0.7 0  -0.07500000000000001 -0.7 0  -0.04999999999999999 -0.7 0  -0.02499999999999999 -0.7 0  0 -0.7 0  0.02500000000000002 -0.7 0  0.04999999999999999 -0.7 0  0.07500000000000001 -0.7 0  0.09999999999999998 -0.7 0  0.125 -0.7 0  0.15 -0.7 0  0.175 -0.7 0  0.2 -0.7 0  0.225 -0.7 0  0.25 -0.7 0  -0.25 -0.675 0  -0.225 -0.675 0  -0.2 -0.675 0  -0.175 -0.675 0  -0.15 -0.675 0  -0.125 -0.675 0  -0.1 -0.675 0  -0.07500000000000001 -0.675 0  -0.04999999999999999 -0.675 0  -0.02499999999999999 -0.675 0  0 -0.675 0  0.02500000000000002 -0.675 0  0.04999999999999999 -0.675 0  0.07500000000000001 -0.675 0  0.09999999999999998 -0.675 0  0.125 -0.675 0  0.15 -0.675 0  0.175 -0.675 0  0.2 -0.675 0  0.225 -0.675 0  0.25 -0.675 0  -0.25 -0.65 0  -0.225 -0.65 0  -0.2 -0.65 0  -0.175 -0.65 0  -0.15 -0.65 0  -0.125 -0.65 0  -0.1 -0.65 0  -0.07500000000000001 -0.65 0  -0.04999999999999999 -0.65 0  -0.02499999999999999 -0.65 0  0 -0.65 0  0.02500000000000002 -0.65 0  0.04999999999999999 -0.65 0  0.07500000000000001 -0.65 0  0.09999999999999998 -0.65 0  0.125 -0.65 0  0.15 -0.65 0  0.175 -0.65 0  0.2 -0.65 0  0.225 -0.65 0  0.25 -0.65 0  -0.25 -0.625 0  -0.225 -0.625 0  -0.2 -0.625 0  -0.175 -0.625 0  -0.15 -0.625 0  -0.125 -0.625 0  -0.1 -0.625 0  -0.07500000000000001 -0.625 0  -0.04999999999999999 -0.625 0  -0.02499999999999999 -0.625 0  0 -0.625 0  0.02500000000000002 -0.625 0  0.04999999999999999 -0.625 0  0.07500000000000001 -0.625 0  0.09999999999999998 -0.625 0  0.125 -0.625 0  0.15 -0.625 0  0.175 -0.625 0  0.2 -0.625 0  0.225 -0.625 0  0.25 -0.625 0  -0.25 -0.6 0  -0.225 -0.6 0  -0.2 -0.6 0  -0.175 -0.6 0  -0.15 -0.6 0  -0.125 -0.6 0  -0.1 -0.6 0  -0.07500000000000001 -0.6 0  -0.04999999999999999 -0.6 0  -0.02499999999999999 -0.6 0  0 -0.6 0  0.02500000000000002 -0.6 0  0.04999999999999999 -0.6 0  0.07500000000000001 -0.6 0  0.09999999999999998 -0.6 0  0.125 -0.6 0  0.15 -0.6 0  0.175 -0.6 0  0.2 -0.6 0  0.225 -0.6 0  0.25 -0.6 0  -0.25 -0.575 0  -0.225 -0.575 0  -0.2 -0.575 0  -0.175 -0.575 0  -0.15 -0.575 0  -0.125 -0.575 0  -0.1 -0.575 0  -0.07500000000000001 -0.575 0  -0.04999999999999999 -0.575 0  -0.02499999999999999 -0.575 0  0 -0.575 0  0.02500000000000002 -0.575 0  0.04999999999999999 -0.575 0  0.07500000000000001 -0.575 0  0.09999999999999998 -0.575 0  0.125 -0.575 0  0.15 -0.575 0  0.175 -0.575 0  0.2 -0.575 0  0.225 -0.575 0  0.25 -0.575 0  -0.25 -0.55 0  -0.225 -0.55 0  -0.2 -0.55 0  -0.175 -0.55 0  -0.15 -0.55 0  -0.125 -0.55 0  -0.1 -0.55 0  -0.07500000000000001 -0.55 0  -0.04999999999999999 -0.55 0  -0.02499999999999999 -0.55 0  0 -0.55 0  0.02500000000000002 -0.55 0  0.04999999999999999 -0.55 0  0.07500000000000001 -0.55 0  0.09999999999999998 -0.55 0  0.125 -0.55 0  0.15 -0.55 0  0.175 -0.55 0  0.2 -0.55 0  0.225 -0.55 0  0.25 -0.55 0  -0.25 -0.525 0  -0.225 -0.525 0  -0.2 -0.525 0  -0.175 -0.525 0  -0.15 -0.525 0  -0.125 -0.525 0  -0.1 -0.525 0  -0.07500000000000001 -0.525 0  -0.04999999999999999 -0.525 0  -0.02499999999999999 -0.525 0  0 -0.525 0  0.02500000000000002 -0.525 0  0.04999999999999999 -0.525 0  0.07500000000000001 -0.525 0  0.09999999999999998 -0.525 0  0.125 -0.525 0  0.15 -0.525 0  0.175 -0.525 0  0.2 -0.525 0  0.225 -0.525 0  0.25 -0.525 0  -0.25 -0.5 0  -0.225 -0.5 0  -0.2 -0.5 0  -0.175 -0.5 0  -0.15 -0.5 0  -0.125 -0.5 0  -0.1 -0.5 0  -0.07500000000000001 -0.5 0  -0.04999999999999999 -0.5 0  -0.02499999999999999 -0.5 0  0 -0.5 0  0.02500000000000002 -0.5 0  0.04999999999999999 -0.5 0  0.07500000000000001 -0.5 0  0.09999999999999998 -0.5 0  0.125 -0.5 0  0.15 -0.5 0  0.175 -0.5 0  0.2 -0.5 0  0.225 -0.5 0  0.25 -0.5 0  -0.25 -0.475 0  -0.225 -0.475 0  -0.2 -0.475 0  -0.175 -0.475 0  -0.15 -0.475 0  -0.125 -0.475 0  -0.1 -0.475 0  -0.07500000000000001 -0.475 0  -0.04999999999999999 -0.475 0  -0.02499999999999999 -0.475 0  0 -0.475 0  0.02500000000000002 -0.475 0  0.04999999999999999 -0.475 0  0.07500000000000001 -0.475 0  0.09999999999999998 -0.475 0  0.125 -0.475 0  0.15 -0.475 0  0.175 -0.475 0  0.2 -0.475 0  0.225 -0.475 0  0.25 -0.475 0  -0.25 -0.45 0  -0.225 -0.45 0  -0.2 -0.45 0  -0.175 -0.45 0  -0.15 -0.45 0  -0.125 -0.45 0  -0.1 -0.45 0  -0.07500000000000001 -0.45 0  -0.04999999999999999 -0.45 0  -0.02499999999999999 -0.45 0  0 -0.45 0  0.02500000000000002 -0.45 0  0.04999999999999999 -0.45 0  0.07500000000000001 -0.45 0  0.09999999999999998 -0.45 0  0.125 -0.45 0  0.15 -0.45 0  0.175 -0.45 0  0.2 -0.45 0  0.225 -0.45 0  0.25 -0.45 0  -0.25 -0.425 0  -0.225 -0.425 0  -0.2 -0.425 0  -0.175 -0.425 0  -0.15 -0.425 0  -0.125 -0.425 0  -0.1 -0.425 0  -0.07500000000000001 -0.425 0  -0.04999999999999999 -0.425 0  -0.02499999999999999 -0.425 0  0 -0.425 0  0.02500000000000002 -0.425 0  0.04999999999999999 -0.425 0  0.07500000000000001 -0.425 0  0.
[...]
<PointData  Vectors="flow"> 
<DataArray  type="Float64"  Name="flow"  NumberOfComponents="3" format="ascii">-3.0220784087586561e-01 6.0442208938040676e-01 0.0000000000000000e+00  1.4563353595996031e-05 6.0442208937946429e-01 0.0000000000000000e+00  -7.0395062524914249e-10 6.0442208937806219e-01 0.0000000000000000e+00  3.9745397786690426e-13 6.0442208937916753e-01 0.0000000000000000e+00  -6.1944972340030791e-13 6.0442208937882069e-01 0.0000000000000000e+00  -1.4357860763263678e-12 6.0442208937808428e-01 0.0000000000000000e+00  -2.0870280486921652e-12 6.0442208937834030e-01 0.0000000000000000e+00  -2.0211482316038089e-12 6.0442208937871966e-01 0.0000000000000000e+00  -4.2271224791699508e-12 6.0442208937731612e-01 0.0000000000000000e+00  -3.1662559253497669e-12 6.0442208937933439e-01 0.0000000000000000e+00  -2.6408934464236326e-12 6.0442208938229347e-01 0.0000000000000000e+00  -2.1405084160653375e-12 6.0442208937852415e-01 0.0000000000000000e+00  -2.3270871004381944e-12 6.0442208938024744e-01 0.0000000000000000e+00  -2.8467827635826143e-12 6.0442208937945330e-01 0.0000000000000000e+00  -3.4195427101536155e-12 6.0442208938690412e-01 0.0000000000000000e+00  1.2629494418943228e-12 6.0442208937804898e-01 0.0000000000000000e+00  -8.0533334312367945e-13 6.0442208937913688e-01 0.0000000000000000e+00  -2.3192674092877944e-13 6.0442208938188291e-01 0.0000000000000000e+00  7.0090909674351290e-10 6.0442208937673347e-01 0.0000000000000000e+00  -1.4563355650356488e-05 6.0442208937928665e-01 0.0000000000000000e+00  3.0220784087840008e-01 6.0442208937798925e-01 0.0000000000000000e+00  -3.0197484964791482e-01 1.8127356225040960e+00 0.0000000000000000e+00  1.4552126246684694e-05 1.8127356225041023e+00 0.0000000000000000e+00  -7.0311147293943552e-10 1.8127356225047055e+00 0.0000000000000000e+00  -2.9916759014610090e-13 1.8127356225040214e+00 0.0000000000000000e+00  -1.5155509949525115e-12 1.8127356225040452e+00 0.0000000000000000e+00  -7.2217853607170740e-13 1.8127356225036415e+00 0.0000000000000000e+00  -1.8081078547124042e-12 1.8127356225032922e+00 0.0000000000000000e+00  -3.7577888340526000e-12 1.8127356225037081e+00 0.0000000000000000e+00  -2.6467020213250938e-12 1.8127356225032034e+00 0.0000000000000000e+00  -2.2802287815577421e-12 1.8127356225037734e+00 0.0000000000000000e+00  -3.7182506124249961e-12 1.8127356225025757e+00 0.0000000000000000e+00  -2.2298739157541434e-12 1.8127356225032898e+00 0.0000000000000000e+00  -2.1907881446838830e-12 1.8127356225030384e+00 0.0000000000000000e+00  -1.2095473507411503e-12 1.8127356225029683e+00 0.0000000000000000e+00  -2.2982916754690926e-12 1.8127356225044833e+00 0.0000000000000000e+00  -1.7789695308842636e-12 1.8127356225042994e+00 0.0000000000000000e+00  -3.6051708609430156e-13 1.8127356225041826e+00 0.0000000000000000e+00  -8.1355520188465093e-13 1.8127356225040481e+00 0.0000000000000000e+00  7.0061323188912040e-10 1.8127356225031208e+00 0.0000000000000000e+00  -1.4552127720879099e-05 1.8127356225032523e+00 0.0000000000000000e+00  3.0197484965168131e-01 1.8127356225027664e+00 0.0000000000000000e+00  -3.0127623522089098e-01 3.6226761388569511e+00 0.0000000000000000e+00  1.4518460282964318e-05 3.6226761388573543e+00 0.0000000000000000e+00  -7.0100685997054690e-10 3.6226761388577073e+00 0.0000000000000000e+00  -8.1508739993744510e-13 3.6226761388580138e+00 0.0000000000000000e+00  -1.1710643597748936e-12 3.6226761388576918e+00 0.0000000000000000e+00  -1.8385213851239674e-12 3.6226761388566913e+00 0.0000000000000000e+00  -1.9140967790775729e-12 3.6226761388550623e+00 0.0000000000000000e+00  -2.8542280130186399e-12 3.6226761388557405e+00 0.0000000000000000e+00  -2.6338522011036982e-12 3.6226761388570834e+00 0.0000000000000000e+00  -3.9663555474746094e-12 3.6226761388567796e+00 0.0000000000000000e+00  -2.6495149845968248e-12 3.6226761388573161e+00 0.0000000000000000e+00  -1.4239349211864082e-12 3.6226761388579987e+00 0.0000000000000000e+00  -2.6079320725579752e-12 3.6226761388570146e+00 0.0000000000000000e+00  -5.2220790289368625e-13 3.6226761388582993e+00 0.0000000000000000e+00  -1.8829413543142688e-12 3.6226761388583619e+00 0.0000000000000000e+00  -9.7451013368574068e-13 3.6226761388583393e+00 0.0000000000000000e+00  -1.5641437496989565e-12 3.6226761388572908e+00 0.0000000000000000e+00  -8.2053560907926510e-13 3.6226761388570754e+00 0.0000000000000000e+00  6.9884696793074025e-10 3.6226761388589086e+00 0.0000000000000000e+00  -1.4518461917439805e-05 3.6226761388579982e+00 0.0000000000000000e+00  3.0127623522766867e-01 3.6226761388592212e+00 0.0000000000000000e+00  -3.0011307480502347e-01 5.4270307527506025e+00 0.0000000000000000e+00  1.4462408032202667e-05 5.4270307527524411e+00 0.0000000000000000e+00  -6.9777935879494228e-10 5.4270307527518424e+00 0.0000000000000000e+00  -6.4737952326045628e-13 5.4270307527527502e+00 0.0000000000000000e+00  -2.3896177469455827e-12 5.4270307527534269e+00 0.0000000000000000e+00  -2.3825424719967030e-12 5.4270307527521773e+00 0.0000000000000000e+00  -2.8937786477522868e-12 5.4270307527517820e+00 0.0000000000000000e+00  -1.8968103593086416e-12 5.4270307527521284e+00 0.0000000000000000e+00  -1.7232227446010202e-12 5.4270307527524455e+00 0.0000000000000000e+00  -2.8069126081693445e-12 5.4270307527530033e+00 0.0000000000000000e+00  -3.1630360213965096e-12 5.4270307527535762e+00 0.0000000000000000e+00  -1.8380656302849995e-12 5.4270307527521329e+00 0.0000000000000000e+00  -2.5687684283209323e-12 5.4270307527521133e+00 0.0000000000000000e+00  -1.6275603323019817e-12 5.4270307527513655e+00 0.0000000000000000e+00  -1.2919476900421757e-12 5.4270307527524277e+00 0.0000000000000000e+00  -1.3539785000211143e-12 5.4270307527518975e+00 0.0000000000000000e+00  -1.3358989760284000e-12 5.4270307527523123e+00 0.0000000000000000e+00  4.7128384531224542e-14 5.4270307527522723e+00 0.0000000000000000e+00  6.9709237968629224e-10 5.4270307527523709e+00 0.0000000000000000e+00  -1.4462409584869093e-05 5.4270307527528168e+00 0.0000000000000000e+00  3.0011307480790289e-01 5.4270307527527146e+00 0.0000000000000000e+00  -2.9848716190565910e-01 7.2230172809140525e+00 0.0000000000000000e+00  1.4384057281374732e-05 7.2230172809139859e+00 0.0000000000000000e+00  -6.9457640270971784e-10 7.2230172809144628e+00 0.0000000000000000e+00  8.4771875754506640e-13 7.2230172809143536e+00 0.0000000000000000e+00  -2.3948976442353727e-12 7.2230172809137994e+00 0.0000000000000000e+00  -3.7920023582540724e-12 7.2230172809143491e+00 0.0000000000000000e+00  -1.8563763451558774e-12 7.2230172809149815e+00 0.0000000000000000e+00  -2.4126690635810151e-12 7.2230172809147986e+00 0.0000000000000000e+00  -2.0094966626279141e-12 7.2230172809151734e+00 0.0000000000000000e+00  -2.4637788367022214e-12 7.2230172809147586e+00 0.0000000000000000e+00  -2.6869597146562033e-12 7.2230172809142266e+00 0.0000000000000000e+00  -3.5641860559707558e-12 7.2230172809143864e+00 0.0000000000000000e+00  -3.0042300256317172e-12 7.2230172809145330e+00 0.0000000000000000e+00  8.1547147827493457e-13 7.2230172809142283e+00 0.0000000000000000e+00  -1.6774395312206604e-12 7.2230172809131847e+00 0.0000000000000000e+00  -2.5424036138270423e-12 7.2230172809131572e+00 0.0000000000000000e+00  -7.0867927207571979e-13 7.2230172809148518e+00 0.0000000000000000e+00  -8.7360912208732031e-13 7.2230172809134450e+00 0.0000000000000000e+00  6.9370481730061835e-10 7.2230172809144362e+00 0.0000000000000000e+00  -1.4384056794030194e-05 7.2230172809152835e+00 0.0000000000000000e+00  2.9848716190656749e-01 7.2230172809143953e+00 0.0000000000000000e+00  -2.9640100355486160e-01 9.0078664430220901e+00 0.0000000000000000e+00  1.4283524808649672e-05 9.0078664430199957e+00 0.0000000000000000e+00  -6.8915162696858444e-10 9.0078664430199424e+00 0.0000000000000000e+00  -1.1020979948584999e-12 9.0078664430200348e+00 0.0000000000000000e+00  -2.8021356397716976e-12 9.0078664430188002e+00 0.0000000000000000e+00  -1.3428449190191158e-12 9.0078664430192763e+00 0.0000000000000000e+00  -2.7037017452615901e-12 9.0078664430176776e+00 0.0000000000000000e+00  -1.3146929623616333e-12 9.0078664430198678e+00 0.0000000000000000e+00  -1.5571877351273726e-12 9.0078664430208200e+00 0.0000000000000000e+00  -3.7762893654317328e-12 9.0078664430194788e+00 0.0000000000000000e+00  -3.8986159214111960e-12 9.0078664430194468e+00 0.0000000000000000e+00  -1.7445377112538888e-12 9.0078664430189761e+00 0.0000000000000000e+00  -2.3812057752151466e-12 9.0078664430200330e+00 0.0000000000000000e+00  -3.0627500612341835e-12 9.0078664430202107e+00 0.0000000000000000e+00  -2.2202917131435770e-12 9.0078664430183331e+00 0.0000000000000000e+00  1.3209200028049523e-12 9.0078664430198607e+00 0.0000000000000000e+00  -1.6948825432056445e-12 9.0078664430191946e+00 0.0000000000000000e+00  -9.2341313447617341e-13 9.0078664430196937e+00 0.0000000000000000e+00  6.8998895886680426e-10 9.0078664430193278e+00 0.0000000000000000e+00  -1.4283525388837400e-05 9.0078664430187398e+00 0.0000000000000000e+00  2.9640100355541033e-01 9.0078664430192319e+00 0.0000000000000000e+00  -2.9385781644946679e-01 1.0778826131711547e+01 0.0000000000000000e+00  1.4160968146655714e-05 1.0778826131711936e+01 0.0000000000000000e+00  -6.8361409371837724e-10 1.0778826131712055e+01 0.0000000000000000e+00  -5.1507552477091813e-13 1.0778826131711099e+01 0.0000000000000000e+00  -2.5410826463125555e-12 1.0778826131712282e+01 0.0000000000000000e+00  -3.5357896249661268e-12 1.0778826131712488e+01 0.0000000000000000e+00  -2.0601485824365301e-12 1.0778826131711966e+01 0.0000000000000000e+00  1.2543331222275937e-12 1.0778826131713032e+01 0.0000000000000000e+00  -3.2150313251845859e-12 1.0778826131711083e+01 0.0000000000000000e+00  -3.6840276171440555e-12 1.0778826131712011e+01 0.0000000000000000e+00  -2.9941777522887259e-12 1.0778826131712123e+01 0.0000000000000000e+00  -2.9788274589512085e-12 1.0778826131711950e+01 0.0000000000000000e+00  -2.1845797109774959e-12 1.0778826131711247e+01 0.0000000000000000e+00  -5.7232732350393957e-13 1.0778826131710952e+01 0.0000000000000000e+00  -2.2188029135030250e-12 1.0778826131713171e+01 0.0000000000000000e+00  -2.4998784007968879e-12 1.0778826131712140e+01 0.0000000000000000e+00  -6.0125272082982089e-13 1.0778826131710341e+01 0.0000000000000000e+00  1.6587996088557038e-13 1.0778826131712389e+01 0.0000000000000000e+00  6.8203644191604396e-10 1.0778826131711181e+01 0.0000000000000000e+00  -1.4160969991652487e-05 1.0778826131711449e+01 0.0000000000000000e+00  2.9385781645072501e-01 1.0778826131711051e+01 0.0000000000000000e+00  -2.9086152198926124e-01 1.2533165656145009e+01 0.0000000000000000e+00  1.4016577717193912e-05 1.2533165656143163e+01 0.0000000000000000e+00  -6.7619231503936852e-10 1.2533165656144876e+01 0.0000000000000000e+00  -1.2010114899697923e-12 1.2533165656144261e+01 0.0000000000000000e+00  -2.2721552515109964e-12 1.2533165656144702e+01 0.0000000000000000e+00  -2.0451965106085221e-12 1.2533165656143952e+01 0.0000000000000000e+00  -2.5601786674973448e-12 1.2533165656145181e+01 0.0000000000000000e+00  -1.9322336501660341e-12 1.2533165656142295e+01 0.0000000000000000e+00  -1.8821609735618087e-12 1.2533165656142453e+01 0.0000000000000000e+00  -3.4951010188663424e-12 1.2533165656142462e+01 0.0000000000000000e+00  -3.9068490839645904e-12 1.2533165656143344e+01 0.0000000000000000e+00  -1.6242226108385290e-12 1.2533165656143012e+01 0.0000000000000000e+00  -3.2685882536032922e-12 1.2533165656143398e+01 0.0000000000000000e+00  -1.1394238232253718e-12 1.2533165656143318e+01 0.0000000000000000e+00  -1.0939329856936866e-12 1.2533165656141300e+01 0.0000000000000000e+00  -1.6828419405479219e-12 1.2533165656143350e+01 0.0000000000000000e+00  -1.0314478392818765e-12 1.2533165656143909e+01 0.0000000000000000e+00  -5.7105621726832740e-13 1.2533165656143224e+01 0.0000000000000000e+00  6.7643126216019741e-10 1.2533165656143725e+01 0.0000000000000000e+00  -1.4016579564099243e-05 1.2533165656143121e+01 0.0000000000000000e+00  2.9086152199328974e-01 1.2533165656143593e+01 0.0000000000000000e+00  -2.8741674023691932e-01 1.4268179952493943e+01 0.0000000000000000e+00  1.3850574654073393e-05 1.4268179952495597e+01 0.0000000000000000e+00  -6.6741894883277778e-10 1.4268179952495506e+01 0.0000000000000000e+00  -4.3492594919315047e-13 1.4268179952496581e+01 0.0000000000000000e+00  -2.0411126029110593e-12 1.4268179952496949e+01 0.0000000000000000e+00  -3.6287323643219131e-12 1.4268179952496489e+01 0.0000000000000000e+00  -2.6227447885396830e-12 1.4268179952496725e+01 0.0000000000000000e+00  -2.7346119712221229e-12 1.4268179952495766e+01 0.0000000000000000e+00  -1.9692672592952392e-12 1.4268179952496437e+01 0.0000000000000000e+00  -2.6171660835814665e-12 1.4268179952496448e+01 0.0000000000000000e+00  -2.5191856339064029e-12 1.4268179952496691e+01 0.0000000000000000e+00  -3.3427587660535722e-12 1.4268179952497563e+01 0.0000000000000000e+00  -2.8255496283642663e-12 1.4268179952496457e+01 0.0000000000000000e+00  -3.0658374564405922e-12 1.4268179952495780e+01 0.0000000000000000e+00  -2.1676062178451370e-12 1.4268179952494870e+01 0.0000000000000000e+00  4.3603688501489675e-13 1.4268179952493973e+01 0.0000000000000000e+00  -2.8150685889777988e-13 1.4268179952497924e+01 0.0000000000000000e+00  -6.0684640226271725e-13 1.4268179952496199e+01 0.0000000000000000e+00  6.6784286658296953e-10 1.4268179952496464e+01 0.0000000000000000e+00  -1.3850575954975041e-05 1.4268179952497860e+01 0.0000000000000000e+00  2.8741674023756825e-01 1.4268179952498491e+01 0.0000000000000000e+00  -2.8352878277828997e-01 1.5981193754984162e+01 0.0000000000000000e+00  1.3663215552336544e-05 1.5981193754984671e+01 0.0000000000000000e+00  -6.5878597397098878e-10 1.5981193754984082e+01 0.0000000000000000e+00  3.4879592674228037e-13 1.5981193754984139e+01 0.0000000000000000e+00  -2.1500976084333646e-12 1.5981193754984218e+01 0.0000000000000000e+00  -2.5740991968558231e-12 1.5981193754985377e+01 0.0000000000000000e+00  -2.6858490516731588e-12 1.5981193754986005e+01 0.0000000000000000e+00  -2.2094051776303152e-12 1.5981193754985252e+01 0.0000000000000000e+00  -1.5273649541324559e-12 1.5981193754985444e+01 0.0000000000000000e+00  -3.9060238694916183e-12 1.5981193754985366e+01 0.0000000000000000e+00  -3.5126534882809691e-12 1.5981193754984654e+01 0.0000000000000000e+00  -2.0480258529176419e-12 1.5981193754984137e+01 0.0000000000000000e+00  -2.9964278037959495e-12 1.5981193754984281e+01 0.0000000000000000e+00  -2.5420727769091295e-12 1.5981193754984950e+01 0.0000000000000000e+00  -2.9108689277476750e-12 1.5981193754985807e+01 0.0000000000000000e+00  8.8464451189561697e-13 1.5981193754985428e+01 0.0000000000000000e+00  1.5425470302434779e-12 1.5981193754985345e+01 0.0000000000000000e+00  -2.4835258258881763e-12 1.5981193754986238e+01 0.0000000000000000e+00  6.5935634460433763e-10 1.5981193754985117e+01 0.0000000000000000e+00  -1.3663214397491551e-05 1.5981193754985220e+01 0.0000000000000000e+00  2.8352878277880295e-01 1.5981193754984929e+01 0.0000000000000000e+00  -2.7920364455409397e-01 1.7669565720914658e+01 0.0000000000000000e+00  1.3454788102977259e-05 1.7669565720914203e+01 0.0000000000000000e+00  -6.4887507732209101e-10 1.7669565720914157e+01 0.0000000000000000e+00  -7.3596386054394649e-13 1.7669565720913816e+01 0.0000000000000000e+00  -1.1428954644752117e-12 1.7669565720913901e+01 0.0000000000000000e+00  -1.7666141171644832e-12 1.7669565720913710e+01 0.0000000000000000e+00  -3.0159677460788251e-12 1.7669565720914324e+01 0.0000000000000000e+00  -2.5244851949295145e-12 1.7669565720914576e+01 0.0000000000000000e+00  -2.8717940144967685e-12 1.7669565720913759e+01 0.0000000000000000e+00  -2.3966007185883907e-12 1.7669565720913653e+01 0.0000000000000000e+00  -3.2472237505030317e-12 1.7669565720914392e+01 0.0000000000000000e+00  -3.7701970231556297e-12 1.7669565720913560e+01 0.0000000000000000e+00  -3.1801464892535982e-12 1.7669565720913003e+01 0.0000000000000000e+00  -1.9846905375213665e-12 1.7669565720913081e+01 0.0000000000000000e+00  -1.2114037918448472e-12 1.7669565720914353e+01 0.0000000000000000e+00  1.1493291924368474e-13 1.7669565720915880e+01 0.0000000000000000e+00  7.8085966612689448e-15 1.7669565720912235e+01 0.0000000000000000e+00  1.4177543000720456e-13 1.7669565720913809e+01 0.0000000000000000e+00  6.4822478058497216e-10 1.7669565720913823e+01 0.0000000000000000e+00  -1.3454787511125052e-05 1.7669565720913663e+01 0.0000000000000000e+00  2.7920364455496327e-01 1.7669565720913354e+01 0.0000000000000000e+00  -2.7444799459601293e-01 1.9330692503433976e+01 0.0000000000000000e+00  1.3225614016071097e-05 1.9330692503434648e+01 0.0000000000000000e+00  -6.3846053449115467e-10 1.9330692503434705e+01 0.0000000000000000e+00  1.0681701178383039e-12 1.9330692503435479e+01 0.0000000000000000e+00  -1.6610217400951032e-12 1.9330692503435625e+01 0.0000000000000000e+00  -2.4460141179887448e-12 1.9330692503436353e+01 0.0000000000000000e+00  -2.7259816110500123e-12 1.9330692503434591e+01 0.0000000000000000e+00  -2.8688907690725533e-12 1.9330692503435763e+01 0.0000000000000000e+00  -1.9722521318093276e-12 1.9330692503435056e+01 0.0000000000000000e+00  -3.7074488296299198e-12 1.9330692503434950e+01 0.0000000000000000e+00  -3.8376232200817741e-12 1.9330692503433553e+01 0.0000000000000000e+00  -2.8169382227955214e-12 1.9330692503433788e+01 0.0000000000000000e+00  -3.1133319471501054e-12 1.9330692503435028e+01 0.0000000000000000e+00  -1.5609324923777105e-12 1.9330692503434200e+01 0.0000000000000000e+00  -7.5387575971358313e-13 1.9330692503432804e+01 0.0000000000000000e+00  -7.5140202755296772e-13 1.9330692503432992e+01 0.0000000000000000e+00  -1.4885800754054657e-13 1.9330692503433667e+01 0.0000000000000000e+00  -8.2612611406812160e-13 1.9330692503433486e+01 0.0000000000000000e+00  6.3725093933039719e-10 1.9330692503433148e+01 0.0000000000000000e+00  -1.3225614360145201e-05 1.9330692503432552e+01 0.0000000000000000e+00  2.7444799459802061e-01 1.9330692503432772e+01 0.0000000000000000e+00  -2.6926916575955701e-01 2.0962012765707577e+01 0.0000000000000000e+00  1.2976048860609824e-05 2.0962012765707609e+01 0.0000000000000000e+00  -6.2498009092242036e-10 2.0962012765709130e+01 0.0000000000000000e+00  -5.3597823650251762e-13 2.0962012765709179e+01 0.0000000000000000e+00  -1.3114077877997141e-12 2.0962012765708671e+01 0.0000000000000000e+00  -2.5742991526911218e-12 2.0962012765708185e+01 0.0000000000000000e+00  -2.6193600804015281e-12 2.0962012765708234e+01 0.0000000000000000e+00  -2.6306024493179907e-12 2.0962012765707605e+01 0.0000000000000000e+00  -2.7991799808162245e-12 2.0962012765708089e+01 0.0000000000000000e+00  -4.3484680211920078e-12 2.0962012765707950e+01 0.0000000000000000e+00  -3.6314693967325911e-12 2.0962012765707854e+01 0.0000000000000000e+00  -3.1977093245979633e-12 2.0962012765707517e+01 0.0000000000000000e+00  -2.8915881658589429e-12 2.0962012765706238e+01 0.0000000000000000e+00  -2.8492188454949595e-12 2.0962012765708060e+01 0.0000000000000000e+00  -1.0847464598356389e-12 2.0962012765707073e+01 0.0000000000000000e+00  -4.9329441860178163e-13 2.0962012765707019e+01 0.0000000000000000e+00  -3.8440933079513754e-13 2.0962012765706163e+01 0.0000000000000000e+00  -3.0392957583993876e-13 2.0962012765705740e+01 0.0000000000000000e+00  6.2466576182211718e-10 2.0962012765706319e+01 0.0000000000000000e+00  -1.2976048031734737e-05 2.0962012765705953e+01 0.0000000000000000e+00  2.6926916576198312e-01 2.0962012765705005e+01 0.0000000000000000e+00  -2.6367514340594328e-01 2.2561011130298997e+01 0.0000000000000000e+00  1.2706473241549021e-05 2.2561011130299480e+01 0.0000000000000000e+00  -6.1199228953203605e-10 2.2561011130297612e+01 0.0000000000000000e+00  4.4826737663426904e-13 2.2561011130298077e+01 0.0000000000000000e+00  -1.5676455560922623e-12 2.2561011130298795e+01 0.0000000000000000e+00  -2.4297919059414188e-12 2.2561011130298652e+01 0.0000000000000000e+00  -3.3733185279315478e-12 2.2561011130298752e+01 0.0000000000000000e+00  -3.6492899130747597e-12 2.2561011130298514e+01 0.0000000000000000e+00