<?xml version="1.0"?>
<VTKFile type="UnstructuredGrid"  version="0.1"  >
<UnstructuredGrid>
<Piece  NumberOfPoints="842" NumberOfCells="1558">
<Points>
<DataArray  type="Float64"  NumberOfComponents="3"  format="ascii">-0.0276663799715744 -0.01092484037076335 0  -0.02564535436017864 -0.01084511294647212 0  -0.02670367363770539 -0.009673121330096374 0  -0.005263160237910004 -0.02021752904783427 0  -0.007142011617282996 -0.01910283839912953 0  -0.005721283706472954 -0.01885557948612299 0  -0.0281698471591208 -0.02275267842199816 0  -0.02903513146439706 -0.02434883282751898 0  -0.02995923345153408 -0.02281962011159115 0  -0.02194671231853508 -0.02685161179016307 0  -0.01998381313981156 -0.02559788065223443 0  -0.02251591588925926 -0.02534187964809537 0  -0.01232728691104433 -0.02110916578981165 0  -0.01088465027479771 -0.02276583133720164 0  -0.01252602534445095 -0.02273869080129673 0  0.005715900577929808 -0.01040157292959515 0  0.004247300133094481 -0.009831459016042156 0  0.004907604482269278 -0.01163228449796421 0  -0.03410210568064787 -0.008693516596393575 0  -0.03379801363784417 -0.0103885645650361 0  -0.03562726343960552 -0.009426495186475627 0  0.006078421240027776 -0.01533115251916825 0  0.007761962215727216 -0.01436391407193771 0  0.007560746450350726 -0.01596246015309179 0  -7.74643124966494e-05 -0.01210497681433211 0  0.002001407188016981 -0.01282170755437008 0  0.0005044285752298626 -0.01379044141987053 0  -0.00554502207324609 -0.01082482616207859 0  -0.006966384852671079 -0.01037459975243556 0  -0.007325780537656768 -0.01169056999739311 0  0.0002817996959115863 -0.02849048409288438 0  -0.000521210781477624 -0.03017876919236858 0  -0.001093500833290798 -0.02871309477119382 0  -0.03855671686840088 -0.01158279252224793 0  -0.03682332408031391 -0.01225302138555511 0  -0.0368905664630186 -0.01067239776272578 0  -0.03477498087981482 -0.02000619738968918 0  -0.03576754543181598 -0.02199302756157714 0  -0.0368712770501877 -0.02020029047180321 0  -0.04703432812742372 -0.02574389618985774 0  -0.04510990978682888 -0.02604639913600089 0  -0.04632952237384835 -0.02712048465619426 0  -0.002527586879520364 -0.00629891729928651 0  -0.0001503063646937945 -0.006276275587524281 0  -0.001326895479615754 -0.004595719664517121 0  -0.0391644784367541 -0.01475132581728818 0  -0.03830472500445715 -0.01681657123351652 0  -0.03747211747330889 -0.01525838136698858 0  -0.04075246902758298 -0.009218971500852071 0  -0.0390524324035903 -0.007885807867200442 0  -0.03901033695063318 -0.009802432939280079 0  0.003472222222222224 -0.02569444444444444 0  0.0056511112593847 -0.02488019662884799 0  0.003895180821987836 -0.0236393607118779 0  -0.008984816994941665 -0.02386872512578754 0  -0.01047523617110418 -0.02424834223494819 0  -0.008755951219614224 -0.02540612226970509 0  -0.02607827560230913 -0.005825920664671352 0  -0.02366594197767203 -0.005292891736900223 0  -0.0244176916399364 -0.007091582381241824 0  -0.02367778516049199 -0.03017364301424246 0  -0.02386650680183691 -0.02796326546759065 0  -0.02530794991191344 -0.02877131804044909 0  -0.01141704038127351 -0.0167818866184824 0  -0.01018001736303466 -0.01731677346741527 0  -0.01092651995755553 -0.01555498543504074 0  0.001146640918992101 -0.03102340112947342 0  0.002374909778313783 -0.03024414641598028 0  0.0007456373584565139 -0.02974621554810341 0  -0.04340535430000796 -0.0269894710178804 0  -0.04155359187777521 -0.02721283122394998 0  -0.04292416821868097 -0.02527853614675298 0  -0.0359068175526368 -0.02378498890761314 0  -0.0344744899149291 -0.02368696530563707 0  -0.03869629983246461 -0.02993079031598002 0  -0.04001755749432813 -0.03154569960410863 0  -0.03773880776055265 -0.03135466038045543 0  -0.01519286889167067 -0.02524713998052752 0  -0.01372769770201255 -0.02474768454376013 0  -0.01539547060946176 -0.02382892795598995 0  -0.01339366522435274 -0.01536013878562232 0  -0.01394780381623048 -0.01383273374796204 0  -0.01490915618241073 -0.01544996258508927 0  -0.02045411777499171 -0.02137437814389278 0  -0.01808827066958148 -0.02161702253189069 0  -0.01944913613402156 -0.02323068114780422 0  -0.02083333333333333 -0.02916666666666667 0  -0.01996045286964509 -0.02732161636951317 0  -0.01948607568027211 -0.02870451566043084 0  7.979462213787225e-05 -0.02582162422291141 0  -0.0009137538293355649 -0.02723890034088429 0  -0.001688252126561377 -0.02596267815987898 0  -0.02992158084177625 -0.03174834582032531 0  -0.03167994964754182 -0.03258206454415181 0  -0.03225438180362809 -0.03107962040142952 0  -0.0332818926824345 -0.03653956979812621 0  -0.03199324472616771 -0.03821759015296883 0  -0.03208329558284936 -0.0356823713947898 0  -0.04681050916597652 -0.03624892877251493 0  -0.04845991064854558 -0.03673512378254998 0  -0.04871075467533732 -0.03533381496454418 0  -0.01532173405145471 -0.01057512148167935 0  -0.01329391795258302 -0.01114439183113224 0  -0.01330341998558062 -0.00913423680360549 0  -0.007685836574511986 -0.007395433330292244 0  -0.009035679641316699 -0.005678099849451732 0  -0.009317707561007742 -0.00723817591573791 0  -0.001242692848311552 -0.02453787375321078 0  0.0002330144247192046 -0.02434070912065012 0  -0.02842807177184132 -0.008782837269883144 0  -0.02944926228062005 -0.009670420328744092 0  -0.01885631351121119 -0.01192416515989788 0  -0.01691676593555981 -0.01170096973318147 0  -0.01773829605562014 -0.01310079118234815 0  0.004614118426858764 -0.003565458483726032 0  0.002509334680925278 -0.004358807632452355 0  0.002343081211279474 -0.002873718352678741 0  -0.0256811132162094 -0.01574526990493712 0  -0.02690767244945899 -0.01528906187458992 0  -0.02622650184931827 -0.01695490013392893 0  -0.0389700769880035 -0.02479351460937479 0  -0.04037085504457759 -0.02357245548155283 0  -0.03967306021942603 -0.02235634449025938 0  0.003888413565608712 -0.01876506087328944 0  0.004891551310597494 -0.02075766768178287 0  0.00544129398496433 -0.01923210266410404 0  0.003071894030292726 -0.02042492932582908 0  0.002062167648373497 -0.0188974618762693 0  -0.0057072681558855 -0.02389109188241274 0  -0.007219239710984426 -0.02563954733366955 0  -0.007346103689937933 -0.02388886401972043 0  -0.004305627510404235 -0.01860920323802679 0  -0.003838294149787177 -0.01997663600034633 0  -0.04002020625879645 -0.03599772838717169 0  -0.04003280620145459 -0.03837589288876646 0  -0.04154988470785092 -0.03717873950518868 0  -0.0225476961674239 -0.01444132597291705 0  -0.02025701458283329 -0.01494682055541054 0  -0.0216061340761294 -0.01561750970419796 0  -0.02829648461666062 -0.01956624970699918 0  -0.02707115965843617 -0.02111328273495852 0  -0.0292085379373125 -0.02119822803744204 0  -0.04728154767137447 -0.006405108493471457 0  -0.04604470251786473 -0.007179652518545553 0  -0.0465402423867751 -0.005257825588374055 0  -0.046875 0 0  -0.04531250000000001 -0.001756154364948668 0  -0.04771549300742191 -0.002284506992578096 0  -0.0009083904135866786 -0.008529558496548306 0  0.000950029780725288 -0.009981924865605908 0  0.0008390356868680526 -0.007863289832610657 0  -0.0078125 -0.001818766801925782 0  -0.009005249798019331 -0.003220453989580621 0  -0.006849416828355778 -0.002880654960679921 0  -0.02769414424234968 -0.004535329022474685 0  -0.02757189723697045 -0.007051096417690477 0  -0.0448635495855776 -0.02761310087595703 0  -0.03862197093400277 -0.01903101690089815 0  -0.040801568013976 -0.01930730968599865 0  -0.04009200278840774 -0.02061118635583271 0  -0.04746877202505475 -0.0109375 0  -0.04625552207057551 -0.01250248254200394 0  -0.04822282986172321 -0.01254746375338932 0  -0.005471962873640671 -0.002483469538180225 0  -0.004703752454419383 -0.003891541969087049 0  -0.006032357434950986 -0.00440111221351207 0  0.015625 0 0  0.0140625 0 0  0.01388737105418562 -0.001431809280784936 0  -0.01181095915764366 -0.02754518578663798 0  -0.01362705441163126 -0.02658032522347269 0  -0.0131583949593131 -0.02788978773038426 0  -0.01813881802721089 -0.02824236465419501 0  -0.01783316571178066 -0.02961095015928098 0  -0.008680555555555554 -0.02743055555555555 0  -0.01019665171916844 -0.02882888222490615 0  -0.01030008360592415 -0.02730207136590873 0  -0.002966181741115359 -0.02519100039815357 0  -0.003650638982939926 -0.02687347943237787 0  -0.004763226258762934 -0.02544039938959696 0  -0.00733492014463835 -0.0222500651304849 0  -0.005550790196063865 -0.02199648679170341 0  0.001807424563025037 -0.0170842299175074 0  -8.496028144727461e-05 -0.0173220879651638 0  0.001003955519332805 -0.01812162078302066 0  0.001645105436913761 -0.01133910380044415 0  -0.02782210082246164 -0.01245307863511379 0  -0.0272180192319855 -0.01366321175396599 0  -0.02859666188170644 -0.01347995636094129 0  -0.03001746758328084 -0.01854532903596594 0  -0.02875526836452914 -0.01771333367449953 0  -0.03729550197386729 -0.009143045021487963 0  -0.03106530920251624 -0.021416390819467 0  -0.03121801362079181 -0.02311719699921014 0  -0.02412336947070342 -0.002392407656188244 0  -0.02517425035907583 -0.004044451102670074 0  -0.02553047554310944 -0.001551189984565228 0  -0.04332752203014248 -0.02894861994940035 0  -0.03361300586943999 -0.03280621050224407 0  -0.03504726554755612 -0.03214148367483272 0  -0.03446251600527064 -0.03401240796041776 0  -0.02666093500983432 -0.02972007434472025 0  -0.02825737921890155 -0.03078867343507981 0  -0.02691307433272296 -0.03107019967741321 0  -0.02412288540753498 -0.02548656141284193 0  -0.02502601119571767 -0.02452216257656308 0  -0.02523744315919711 -0.0261723293570944 0  0.007590321611890428 -0.01002544604880517 0  0.009217381127136798 -0.01087786990918838 0  0.008858123610367597 -0.009584568252459222 0  0.01075672523973394 -0.01188005193203498 0  0.008545263046002623 -0.01258731613206785 0  -0.002401366537453123 -0.02012997179630549 0  -0.003768377061401588 -0.02226186400376761 0  -0.001934031832172576 -0.02146311508091197 0  -0.001242172060814776 -0.02269478175693585 0  -0.002687248212944535 -0.02354019374584471 0  -0.008385574756346015 -0.01083162927881422 0  -0.007996120807677542 -0.00927
[...]
<PointData  Vectors="flow"> 
<DataArray  type="Float64"  Name="flow"  NumberOfComponents="3" format="ascii">-6.7959301335214525e-07 -2.4553470163522739e-07 0.0000000000000000e+00  3.8437602286532885e-08 4.4274152951625218e-07 0.0000000000000000e+00  3.3870526594611761e-07 -3.6369909924659889e-07 0.0000000000000000e+00  -7.8467083301440203e-09 1.0963755530443220e-07 0.0000000000000000e+00  1.1345799905797267e-07 1.7930021707325431e-07 0.0000000000000000e+00  -7.5406042863392410e-08 1.2980302216209203e-08 0.0000000000000000e+00  -1.4224046943130715e-07 -1.0173632855327904e-06 0.0000000000000000e+00  4.0822596445250625e-07 7.4962874211208254e-07 0.0000000000000000e+00  8.6127307485029219e-07 -1.2987088912616141e-07 0.0000000000000000e+00  -2.4415111404189975e-07 3.0335315437503938e-07 0.0000000000000000e+00  3.6072765588493057e-07 -7.1114007993137760e-07 0.0000000000000000e+00  -2.1004477833463219e-07 -6.1840905442195370e-07 0.0000000000000000e+00  -3.5743387065381016e-08 -1.4651712747606211e-07 0.0000000000000000e+00  -1.5644672683623906e-07 2.0519179216247113e-07 0.0000000000000000e+00  -1.1227498485878450e-07 -1.7178368879084489e-07 0.0000000000000000e+00  8.7267093625983490e-08 1.1802327183924596e-08 0.0000000000000000e+00  -2.5493729364448611e-08 -3.1591019786640038e-08 0.0000000000000000e+00  2.4132164456558161e-07 -4.8607556678354540e-08 0.0000000000000000e+00  -1.1445251485308569e-06 9.6774340445261097e-07 0.0000000000000000e+00  5.6601014607035458e-07 -9.5280783611800297e-07 0.0000000000000000e+00  -6.8180314554937758e-07 -5.1333137820624461e-07 0.0000000000000000e+00  -6.3692337841831705e-08 -1.2258906567287070e-07 0.0000000000000000e+00  5.9131880994218677e-08 2.8956200807433891e-08 0.0000000000000000e+00  -3.5172369265342594e-08 2.5814075590709271e-07 0.0000000000000000e+00  2.0473458677640921e-08 2.3088607488607961e-08 0.0000000000000000e+00  -6.3747566441909486e-08 -1.0430910558030957e-08 0.0000000000000000e+00  7.5001037718734759e-08 9.4312897414465757e-08 0.0000000000000000e+00  -2.4692173225489308e-08 -3.0219901981665340e-08 0.0000000000000000e+00  7.1424157404695777e-08 -1.0229285424525536e-07 0.0000000000000000e+00  1.0921684721818262e-08 -2.0121596511880608e-08 0.0000000000000000e+00  -8.9401909313971198e-09 -2.3143807871421855e-07 0.0000000000000000e+00  1.6325616733341958e-07 1.4142876796044655e-07 0.0000000000000000e+00  3.0347824685304591e-08 2.8496566487322033e-07 0.0000000000000000e+00  1.9471363549748109e-07 5.2755931077058063e-07 0.0000000000000000e+00  -9.4321433100293246e-07 8.5952792951714990e-07 0.0000000000000000e+00  7.6504480981141934e-07 -3.6024988077832608e-07 0.0000000000000000e+00  -2.6536880658352037e-07 -2.2542234804115780e-06 0.0000000000000000e+00  9.5913927215344256e-07 1.9190071750922890e-07 0.0000000000000000e+00  1.2457547184979089e-06 2.2829895841533489e-06 0.0000000000000000e+00  -5.4494194224242703e-07 -5.8212073240365962e-07 0.0000000000000000e+00  -8.9416109881224117e-08 -3.2309227046948870e-08 0.0000000000000000e+00  3.7218488007504003e-08 1.4815047027861510e-07 0.0000000000000000e+00  -8.3332613050548446e-08 1.2853837041222087e-07 0.0000000000000000e+00  9.4637941305144415e-08 -3.9505326496681228e-09 0.0000000000000000e+00  -6.4434315138776724e-08 -9.1784727955176555e-08 0.0000000000000000e+00  1.6006821989985104e-07 -2.7863248908768663e-07 0.0000000000000000e+00  4.5067952047657410e-07 -4.7318375187983420e-07 0.0000000000000000e+00  -1.1118662795561812e-06 8.6190642504121680e-07 0.0000000000000000e+00  3.4297975652462964e-07 -1.0518372686799366e-07 0.0000000000000000e+00  -2.2676677500675406e-08 3.4092234302304812e-07 0.0000000000000000e+00  -8.5220246384608311e-07 -6.8735832586368804e-07 0.0000000000000000e+00  7.6230706588014582e-09 1.3770855001330426e-08 0.0000000000000000e+00  2.1087032375524324e-08 -1.1940103289074671e-07 0.0000000000000000e+00  3.8225710826811519e-08 3.8344559504326387e-08 0.0000000000000000e+00  2.2472446329269491e-07 5.5514811429864331e-08 0.0000000000000000e+00  8.0498470406254255e-08 -2.5196644417583834e-07 0.0000000000000000e+00  5.8394717845252067e-08 4.6942955523291669e-08 0.0000000000000000e+00  4.9835912771766680e-08 -2.4533077806022061e-07 0.0000000000000000e+00  -1.3921479050572478e-08 8.8889563185452276e-09 0.0000000000000000e+00  3.0882599841176991e-07 1.0984139215558770e-07 0.0000000000000000e+00  5.6167683461337307e-07 -3.7597581918687896e-07 0.0000000000000000e+00  -9.5146221483627283e-08 1.1184927209722515e-06 0.0000000000000000e+00  -2.2811367805838230e-07 -8.0857003972575766e-07 0.0000000000000000e+00  -2.4036936715065514e-07 2.9225726580028054e-08 0.0000000000000000e+00  -1.1468962672467921e-07 7.1103028614734850e-09 0.0000000000000000e+00  4.3343846548928613e-07 6.9745884191715926e-08 0.0000000000000000e+00  1.9118859702817999e-07 5.0162162625635419e-07 0.0000000000000000e+00  -1.4038939111826127e-07 1.8765843300284633e-07 0.0000000000000000e+00  -7.0223050825197036e-08 -1.2878636251718777e-07 0.0000000000000000e+00  5.4510662273984862e-07 -9.0367662799485126e-07 0.0000000000000000e+00  -3.9560915397406960e-07 -5.5958228726727644e-08 0.0000000000000000e+00  -6.0168926893019827e-07 4.2099783137197308e-08 0.0000000000000000e+00  -1.3308849204627307e-06 1.5677917421721501e-06 0.0000000000000000e+00  4.9160079952968064e-07 -5.2560196187312708e-07 0.0000000000000000e+00  -1.3357845033044777e-07 -5.6507672299857005e-07 0.0000000000000000e+00  -1.2879395414557526e-08 3.9590617412683683e-07 0.0000000000000000e+00  -8.5303295488468751e-08 5.5664153032841667e-07 0.0000000000000000e+00  5.1293740475242884e-07 1.9897524571152402e-07 0.0000000000000000e+00  -5.3790000187161858e-07 1.9268860788519217e-07 0.0000000000000000e+00  3.1081714490878795e-08 9.8460513881948735e-08 0.0000000000000000e+00  9.2708931704714406e-08 -1.2876587033926958e-07 0.0000000000000000e+00  -7.9188184151241160e-08 1.5940963247100068e-07 0.0000000000000000e+00  2.6723736034261578e-07 -3.0690425767011171e-07 0.0000000000000000e+00  -1.1179564536712609e-06 -3.8872300096207751e-08 0.0000000000000000e+00  3.7584646681597223e-08 -3.4506742399961712e-07 0.0000000000000000e+00  1.1276964430529549e-06 7.2763284732146016e-08 0.0000000000000000e+00  6.7719267749178062e-07 6.0641227367186185e-07 0.0000000000000000e+00  -9.9353907493449097e-07 -7.8466083302632810e-07 0.0000000000000000e+00  7.2152687791243848e-07 5.1648553964469977e-08 0.0000000000000000e+00  9.0158680582292665e-08 -5.2077338763568980e-08 0.0000000000000000e+00  2.0285037870304702e-07 -1.6692669075439069e-07 0.0000000000000000e+00  1.7722584920939240e-07 -1.6685789297716388e-08 0.0000000000000000e+00  -7.4355246022871702e-08 4.0311972279359853e-07 0.0000000000000000e+00  1.0695717909991533e-06 -4.3378415863716900e-07 0.0000000000000000e+00  -1.8634783354165361e-07 5.5038531316195464e-07 0.0000000000000000e+00  -1.3826030026409367e-07 3.1460204529578918e-07 0.0000000000000000e+00  4.1979460527595148e-07 -5.4335425039780905e-08 0.0000000000000000e+00  9.8219683453403505e-07 1.0412329779208783e-06 0.0000000000000000e+00  6.4312532864981467e-08 -7.1794829477038001e-08 0.0000000000000000e+00  4.1259538077622091e-08 1.7443020251713265e-07 0.0000000000000000e+00  -5.7086413083713194e-08 -2.4519580453054953e-10 0.0000000000000000e+00  2.6051971992549948e-07 5.6849559418033329e-08 0.0000000000000000e+00  -2.2516985570807230e-07 -2.7657419561130258e-07 0.0000000000000000e+00  -4.8865824570124178e-08 2.0255184342286782e-07 0.0000000000000000e+00  7.0953703949234311e-09 5.1872197033527499e-08 0.0000000000000000e+00  -1.2963985657111522e-10 4.4975956529740412e-09 0.0000000000000000e+00  1.5068805658542782e-07 -8.4735938355096473e-08 0.0000000000000000e+00  1.3073433732512784e-07 2.0003997484678773e-07 0.0000000000000000e+00  -1.3528772316180792e-07 -9.7523810447542212e-08 0.0000000000000000e+00  3.7115385800885076e-07 2.3965732161784916e-07 0.0000000000000000e+00  3.3039151841845935e-07 -4.2988321031251533e-07 0.0000000000000000e+00  -4.2425520831753655e-07 2.8449584863641404e-07 0.0000000000000000e+00  3.6520485790292823e-07 -6.0309777068081306e-07 0.0000000000000000e+00  -1.6614924616837390e-07 2.5113550719224320e-07 0.0000000000000000e+00  -4.7771306712007971e-08 1.9214663840453644e-08 0.0000000000000000e+00  3.4649376052636231e-08 -6.2259184040707207e-08 0.0000000000000000e+00  5.2679794511579731e-09 -8.9292155456449703e-09 0.0000000000000000e+00  8.7919473668255890e-07 -4.9411803343825796e-07 0.0000000000000000e+00  8.1199719729834066e-08 1.0985532835740216e-07 0.0000000000000000e+00  -1.8038427687570277e-07 1.7080593759906092e-06 0.0000000000000000e+00  1.7883123282136895e-07 1.0708841989787142e-06 0.0000000000000000e+00  -5.3627437823746343e-07 -3.5799481834299673e-07 0.0000000000000000e+00  9.0196378145500473e-07 -4.7332968226916068e-07 0.0000000000000000e+00  -1.1173336672039533e-07 1.8784623074169412e-07 0.0000000000000000e+00  4.2627763730004291e-08 1.7302529502650537e-09 0.0000000000000000e+00  -2.2520652635717337e-07 -2.3436290250657928e-07 0.0000000000000000e+00  1.1413968685849405e-07 -1.0841045281048622e-07 0.0000000000000000e+00  -3.3504913419024966e-09 1.9277899361121782e-07 0.0000000000000000e+00  1.2341772746815266e-07 8.3918030001430626e-08 0.0000000000000000e+00  -6.1956453557899142e-08 -1.8268203973482255e-07 0.0000000000000000e+00  -1.2522603014372679e-07 -2.9976415925036860e-08 0.0000000000000000e+00  -5.8152857593952323e-08 -5.9654561452800568e-09 0.0000000000000000e+00  6.2406291048029276e-08 6.4097894549784835e-08 0.0000000000000000e+00  3.2922114189463841e-07 -8.6416770752900758e-08 0.0000000000000000e+00  1.6206054145960300e-07 -1.2552769945544486e-07 0.0000000000000000e+00  -2.8547058355651105e-07 -9.3649535491465342e-07 0.0000000000000000e+00  1.9603096920366021e-07 -4.8473242826960412e-07 0.0000000000000000e+00  -2.8220501089211399e-07 3.0485181339470141e-07 0.0000000000000000e+00  1.2633096110245182e-07 -1.9592711920384802e-07 0.0000000000000000e+00  1.3170626772547281e-06 1.4515696262938452e-06 0.0000000000000000e+00  1.0093661515538386e-06 2.9155959413952693e-07 0.0000000000000000e+00  -1.1354607023732916e-06 -5.3065929642238420e-07 0.0000000000000000e+00  -2.9467818350101624e-07 -1.8401663536205333e-07 0.0000000000000000e+00  -5.2442048220072329e-07 1.0922075152667874e-07 0.0000000000000000e+00  -4.1771334652800785e-07 -4.5174067884390147e-08 0.0000000000000000e+00  -4.5415168310409207e-08 3.5457217870342793e-07 0.0000000000000000e+00  1.6000076825713142e-07 -3.6741638104462095e-08 0.0000000000000000e+00  -2.3874534782839293e-07 -1.4430902448263802e-08 0.0000000000000000e+00  8.8708125716089455e-08 -5.6537992134132826e-08 0.0000000000000000e+00  -5.0975534676673819e-08 9.9152425907264891e-11 0.0000000000000000e+00  -1.0164111111385676e-07 8.4203913358285136e-08 0.0000000000000000e+00  7.9591561528347003e-08 -2.5789847653365882e-09 0.0000000000000000e+00  4.3072900634015019e-08 -7.0623831116424897e-08 0.0000000000000000e+00  -4.2251859258068656e-08 2.6573170937029867e-08 0.0000000000000000e+00  1.3113577139284208e-07 -2.2362628381190809e-07 0.0000000000000000e+00  -3.5947121228402622e-07 2.3276060752031225e-07 0.0000000000000000e+00  2.2364496692203387e-07 4.3026113897513216e-07 0.0000000000000000e+00  1.1844852202590633e-06 -5.6780283672631170e-07 0.0000000000000000e+00  -3.6450707983677889e-07 -3.8094695739432015e-07 0.0000000000000000e+00  -2.2364893540452149e-07 5.5965093862072102e-07 0.0000000000000000e+00  3.0847942474530920e-08 -2.8810081364850423e-07 0.0000000000000000e+00  -4.2205485126205708e-07 2.3660705119096543e-07 0.0000000000000000e+00  2.8786275609779014e-07 3.1961376304314776e-08 0.0000000000000000e+00  -1.0683272236740070e-07 -6.6106616563998656e-08 0.0000000000000000e+00  5.2356362728344658e-08 -5.9273759016079211e-08 0.0000000000000000e+00  -2.9257457840124975e-08 1.0111066220701163e-08 0.0000000000000000e+00  -3.0267934292936254e-07 1.1252545438466171e-06 0.0000000000000000e+00  9.5244593422533814e-07 -9.3236174694002541e-07 0.0000000000000000e+00  7.0715882227089842e-08 -9.2149683637307076e-08 0.0000000000000000e+00  -7.7321433099809022e-07 -9.3351804838406408e-07 0.0000000000000000e+00  4.3204096592305267e-07 -3.3220038844417354e-07 0.0000000000000000e+00  3.9127201116786094e-07 -3.0982654793359186e-07 0.0000000000000000e+00  1.9929060021647103e-07 3.4974962816305500e-07 0.0000000000000000e+00  -1.0431827483053311e-06 6.2820110044354631e-07 0.0000000000000000e+00  7.9668562109877547e-08 1.2664306849152013e-07 0.0000000000000000e+00  -2.7888703907079410e-07 2.5320608530420369e-07 0.0000000000000000e+00  2.4133514590653985e-07 -2.4227566368395133e-07 0.0000000000000000e+00  -9.4097119099608064e-08 1.8932123864833053e-07 0.0000000000000000e+00  -2.3237079544117283e-07 -2.7059394653469824e-07 0.0000000000000000e+00  3.6046832938761961e-08 8.4569567725765291e-08 0.0000000000000000e+00  -9.7975292923106911e-08 -2.0729447115197632e-08 0.0000000000000000e+00  2.6769103133878368e-08 -1.3808961357375753e-07 0.0000000000000000e+00  1.7706174793624065e-08 -8.4288286787962483e-08 0.0000000000000000e+00  4.1800654221204051e-08 4.1134058893212570e-08 0.0000000000000000e+00  -2.6447592597645046e-07 -1.3827868672105674e-07 0.0000000000000000e+00  1.6535993548607412e-08 -1.6806928708129905e-07 0.0000000000000000e+00  -8.4673176428512781e-07 1.6098288378450758e-06 0.0000000000000000e+00  -1.0604111503536280e-06 -6.5838007434929781e-07 0.0000000000000000e+00  1.0783054349635183e-06 -1.4652158660069587e-06 0.0000000000000000e+00  -6.0963806731968829e-08 -1.5073741886358392e-06 0.0000000000000000e+00  2.9555048875927790e-06 1.0310398649760303e-06 0.0000000000000000e+00  3.7634007154114509e-07 6.6397083519924432e-08 0.0000000000000000e+00  4.4126411133463027e-07 2.7568735701436236e-06 0.0000000000000000e+00  -9.9522361653595751e-08 7.0924600651711186e-07 0.0000000000000000e+00  3.1818646752028524e-07 -1.4201382084663889e-07 0.0000000000000000e+00  -1.6026103797202469e-07 5.7288867157224103e-08 0.0000000000000000e+00  -1.6452805055884788e-07 1.1557603788280925e-09 0.0000000000000000e+00  -7.9837291765634986e-08 4.7598146178190719e-07 0.0000000000000000e+00  -1.0053513573625123e-06 2.2194219537535932e-07 0.0000000000000000e+00  -6.9898302410852026e-08 9.9597250428083009e-08 0.0000000000000000e+00  -2.2654291929382410e-07 -3.1157575842536269e-07 0.0000000000000000e+00  -9.0353629963026361e-08 -6.5524218406953772e-08 0.0000000000000000e+00  -5.5285708406963151e-07 1.7982648759157218e-06 0.0000000000000000e+00  4.7254603581940174e-08 -1.8704145800445664e-07 0.0000000000000000e+00  3.7980136313669626e-07 1.8396181095011531e-07 0.0000000000000000e+00  -7.6887989655584068e-07 1.3213315126617719e-06 0.0000000000000000e+00  -2.0774347993041341e-07 -6.5107209154320105e-07 0.0000000000000000e+00  -3.0476148903171930e-07 2.4194574552714475e-07 0.0000000000000000e+00  -9.2146289510612609e-08 -2.6484443976291965e-07 0.0000000000000000e+00  3.8556209439833402e-07 2.9935930349179491e-07 0.0000000000000000e+00  -1.0751178297828089e-08 1.2097050667994510e-07 0.0000000000000000e+00  3.0983710851124719e-07 -2.6046223850720101e-07 0.0000000000000000e+00  1.5620938433161533e-08 -1.4206311167012254e-07 0.0000000000000000e+00  -4.0935808251141419e-09 -2.7148429281787728e-08 0.0000000000000000e+00  4.4772782321577610e-08 1.7419817544788970e-07 0.0000000000000000e+00  -3.3223216299743263e-08 -7.5785563404416335e-08 0.0000000000000000e+00  5.8471488096793987e-08 -8.5125043396736892e-08 0.0000000000000000e+00  4.0651203882484128e-08 -1.9753929193895020e-08 0.0000000000000000e+00  -1.6035926194105162e-08 7.7001368559201279e-08 0.0000000000000000e+00  -4.6918716806311726e-08 1.3767134953569141e-07 0.0000000000000000e+00  6.6663394378021678e-08 -6.5172606957571949e-08 0.0000000000000000e+00  -2.6448566341838949e-07 -2.2064915551414070e-08 0.0000000000000000e+00  -5.6229769139642538e-07 5.4403858770361344e-07 0.0000000000000000e+00  2.5100435606098281e-07 7.7369282854934957e-09 0.0000000000000000e+00  6.3561057168534380e-07 5.0438073888224872e-08 0.0000000000000000e+00  1.5540251076303431e-07 -1.2975753145464489e-07 0.0000000000000000e+00  2.4756771580391331e-07 -2.0640266661612971e-07 0.0000000000000000e+00  -3.4816874758073927e-08 3.1769168650598896e-07 0.0000000000000000e+00  7.9050475369047159e-07 -1.0173365257082295e-07 0.0000000000000000e+00  -1.1226981042018928e-06 -6.7097272001055408e-07 0.0000000000000000e+00  7.8947084431077060e-07 -3.8790934174953038e-07 0.0000000000000000e+00  2.3883121104738294e-07 -1.4170381920695041e-06 0.0000000000000000e+00  -2.0634128655522977e-06 9.4567069753174570e-07 0.0000000000000000e+00  2.0204670123891233e-08 1.0176186594693393e-06 0.0000000000000000e+00  2.2614344018987283e-07 -7.3900992491117784e-07 0.0000000000000000e+00  -6.4060031983745864e-08 -6.7666651997018477e-07 0.0000000000000000e+00  3.1067593383198852e-07 1.2895771382050456e-07 0.0000000000000000e+00  3.4979335199460217e-07 1.3228505444851481e-07 0.0000000000000000e+00  -4.3154903035580185e-07 2.6107958418419547e-08 0.0000000000000000e+00  2.1865042239021298e-07 -3.6729700509420589e-07 0.0000000000000000e+00  2.6856786108681939e-07 1.5034186055519871e-07 0.0000000000000000e+00  4.8662439340097523e-07 -5.3184181431435319e-07 0.0000000000000000e+00  -2.0195472106447782e-07 2.1289728628707996e-07 0.0000000000000000e+00  1.4746331172271979e-08 -4.4243506787239744e-08 0.0000000000000000e+00  7.1909131662998803e-07 3.8219037045441531e-07 0.0000000000000000e+00  -1.3269940837137920e-07 -3.0901200989417003e-07 0.0000000000000000e+00  -1.0636380205366933e-07 2.9740746413661368e-07 0.0000000000000000e+00  -6.3355911951994471e-07 3.1493351793819442e-07 0.0000000000000000e+00  -4.8021318340308036e-07 -7.1104584994090202e-07 0.0000000000000000e+00  1.1174845148469330e-06 -9.8310113945453475e-08 0.0000000000000000e+00  2.4704056928302470e-07 -6.4278165981011054e-07 0.0000000000000000e+00  1.4487782065020470e-08 -1.9604944488813300e-07 0.0000000000000000e+00  -1.3429200361194693e-08 -2.7838453695160808e-07 0.0000000000000000e+00  4.9333467851546170e-07 -1.7740804593618772e-07 0.0000000000000000e+00  -5.2553693442406411e-07 2.4690325044763541e-06 0.0000000000000000e+00  -5.8206857159168981e-07 7.0224338167187802e-07 0.0000000000000000e+00  2.5418220332208804e-08 -8.0664220588327625e-07 0.0000000000000000e+00  -3.6330158117159050e-07 -3.4338784635405355e-07 0.0000000000000000e+00  2.1721222563100772e-07 1.9913447629010550e-07 0.0000000000000000e+00  3.7060349937765328e-07 9.5022338703226722e-08 0.0000000000000000e+00  -3.1269090544387207e-09 4.9353737969734283e-07 0.0000000000000000e+00  -4.3580389010308989e-07 3.4152468860080165e-07 0.0000000000000000e+00  6.8531943675383613e-08 2.0934396716855057e-07 0.0000000000000000e+00  -3.9866429384176817e-07 -4.3662310800890343e-07 0.0000000000000000e+00  -8.6114880857797626e-08 -2.1006353166220263e-08 0.0000000000000000e+00  2.1579766343644485e-07 5.0529277050830784e-07 0.0000000000000000e+00  6.3825339484355836e-08 -1.0021920086484675e-07 0.0000000000000000e+00  -7.6820358992934116e-07 -2.0495063887553123e-06 0.0000000000000000e+00  1.5301568081681443e-06 -1.0179927775596156e-07 0.0000000000000000e+00  4.2715769048689556e-07 -4.7311010929712385e-08 0.0000000000000000e+00  1.7008909532365064e-07 2.0972896941309021e-06 0.0000000000000000e+00  -1.2276106673130756e-08 -2.8117440467094619e-08 0.0000000000000000e+00  1.4397204002581277e-07 -1.3326485966349453e-07 0.0000000000000000e+00  5.0581607504324462e-08 7.4983702915452810e-08 0.0000000000000000e+00  -2.0925260566328167e-07 4.5669561351344727e-08 0.0000000000000000e+00  3.2278942520173668e-08 3.3705006614169460e-08 0.0000000000000000e+00  -2.6431872893552718e-08 2.3232695653516719e-08 0.0000000000000000e+00  -5.9660423704320156e-08 -1.1703493361938620e-08 0.0000000000000000e+00  -1.2058968042987436e-07 -5.1539166401037598e-08 0.0000000000000000e+00  2.4716364381460115e-07 -4.4938357081192428e-07 0.0000000000000000e+00  -4.96589180219