<?xml version="1.0"?>
<VTKFile type="UnstructuredGrid"  version="0.1"  >
<UnstructuredGrid>
<Piece  NumberOfPoints="1661" NumberOfCells="3200">
<Points>
<DataArray  type="Float64"  NumberOfComponents="3"  format="ascii">-0.25 -1 0  -0.225 -1 0  -0.2 -1 0  -0.175 -1 0  -0.15 -1 0  -0.125 -1 0  -0.1 -1 0  -0.07500000000000001 -1 0  -0.04999999999999999 -1 0  -0.02499999999999999 -1 0  0 -1 0  0.02500000000000002 -1 0  0.04999999999999999 -1 0  0.07500000000000001 -1 0  0.09999999999999998 -1 0  0.125 -1 0  0.15 -1 0  0.175 -1 0  0.2 -1 0  0.225 -1 0  0.25 -1 0  -0.25 -0.975 0  -0.225 -0.975 0  -0.2 -0.975 0  -0.175 -0.975 0  -0.15 -0.975 0  -0.125 -0.975 0  -0.1 -0.975 0  -0.07500000000000001 -0.975 0  -0.04999999999999999 -0.975 0  -0.02499999999999999 -0.975 0  0 -0.975 0  0.02500000000000002 -0.975 0  0.04999999999999999 -0.975 0  0.07500000000000001 -0.975 0  0.09999999999999998 -0.975 0  0.125 -0.975 0  0.15 -0.975 0  0.175 -0.975 0  0.2 -0.975 0  0.225 -0.975 0  0.25 -0.975 0  -0.25 -0.95 0  -0.225 -0.95 0  -0.2 -0.95 0  -0.175 -0.95 0  -0.15 -0.95 0  -0.125 -0.95 0  -0.1 -0.95 0  -0.07500000000000001 -0.95 0  -0.04999999999999999 -0.95 0  -0.02499999999999999 -0.95 0  0 -0.95 0  0.02500000000000002 -0.95 0  0.04999999999999999 -0.95 0  0.07500000000000001 -0.95 0  0.09999999999999998 -0.95 0  0.125 -0.95 0  0.15 -0.95 0  0.175 -0.95 0  0.2 -0.95 0  0.225 -0.95 0  0.25 -0.95 0  -0.25 -0.925 0  -0.225 -0.925 0  -0.2 -0.925 0  -0.175 -0.925 0  -0.15 -0.925 0  -0.125 -0.925 0  -0.1 -0.925 0  -0.07500000000000001 -0.925 0  -0.04999999999999999 -0.925 0  -0.02499999999999999 -0.925 0  0 -0.925 0  0.02500000000000002 -0.925 0  0.04999999999999999 -0.925 0  0.07500000000000001 -0.925 0  0.09999999999999998 -0.925 0  0.125 -0.925 0  0.15 -0.925 0  0.175 -0.925 0  0.2 -0.925 0  0.225 -0.925 0  0.25 -0.925 0  -0.25 -0.9 0  -0.225 -0.9 0  -0.2 -0.9 0  -0.175 -0.9 0  -0.15 -0.9 0  -0.125 -0.9 0  -0.1 -0.9 0  -0.07500000000000001 -0.9 0  -0.04999999999999999 -0.9 0  -0.02499999999999999 -0.9 0  0 -0.9 0  0.02500000000000002 -0.9 0  0.04999999999999999 -0.9 0  0.07500000000000001 -0.9 0  0.09999999999999998 -0.9 0  0.125 -0.9 0  0.15 -0.9 0  0.175 -0.9 0  0.2 -0.9 0  0.225 -0.9 0  0.25 -0.9 0  -0.25 -0.875 0  -0.225 -0.875 0  -0.2 -0.875 0  -0.175 -0.875 0  -0.15 -0.875 0  -0.125 -0.875 0  -0.1 -0.875 0  -0.07500000000000001 -0.875 0  -0.04999999999999999 -0.875 0  -0.02499999999999999 -0.875 0  0 -0.875 0  0.02500000000000002 -0.875 0  0.04999999999999999 -0.875 0  0.07500000000000001 -0.875 0  0.09999999999999998 -0.875 0  0.125 -0.875 0  0.15 -0.875 0  0.175 -0.875 0  0.2 -0.875 0  0.225 -0.875 0  0.25 -0.875 0  -0.25 -0.85 0  -0.225 -0.85 0  -0.2 -0.85 0  -0.175 -0.85 0  -0.15 -0.85 0  -0.125 -0.85 0  -0.1 -0.85 0  -0.07500000000000001 -0.85 0  -0.04999999999999999 -0.85 0  -0.02499999999999999 -0.85 0  0 -0.85 0  0.02500000000000002 -0.85 0  0.04999999999999999 -0.85 0  0.07500000000000001 -0.85 0  0.09999999999999998 -0.85 0  0.125 -0.85 0  0.15 -0.85 0  0.175 -0.85 0  0.2 -0.85 0  0.225 -0.85 0  0.25 -0.85 0  -0.25 -0.825 0  -0.225 -0.825 0  -0.2 -0.825 0  -0.175 -0.825 0  -0.15 -0.825 0  -0.125 -0.825 0  -0.1 -0.825 0  -0.07500000000000001 -0.825 0  -0.04999999999999999 -0.825 0  -0.02499999999999999 -0.825 0  0 -0.825 0  0.02500000000000002 -0.825 0  0.04999999999999999 -0.825 0  0.07500000000000001 -0.825 0  0.09999999999999998 -0.825 0  0.125 -0.825 0  0.15 -0.825 0  0.175 -0.825 0  0.2 -0.825 0  0.225 -0.825 0  0.25 -0.825 0  -0.25 -0.8 0  -0.225 -0.8 0  -0.2 -0.8 0  -0.175 -0.8 0  -0.15 -0.8 0  -0.125 -0.8 0  -0.1 -0.8 0  -0.07500000000000001 -0.8 0  -0.04999999999999999 -0.8 0  -0.02499999999999999 -0.8 0  0 -0.8 0  0.02500000000000002 -0.8 0  0.04999999999999999 -0.8 0  0.07500000000000001 -0.8 0  0.09999999999999998 -0.8 0  0.125 -0.8 0  0.15 -0.8 0  0.175 -0.8 0  0.2 -0.8 0  0.225 -0.8 0  0.25 -0.8 0  -0.25 -0.775 0  -0.225 -0.775 0  -0.2 -0.775 0  -0.175 -0.775 0  -0.15 -0.775 0  -0.125 -0.775 0  -0.1 -0.775 0  -0.07500000000000001 -0.775 0  -0.04999999999999999 -0.775 0  -0.02499999999999999 -0.775 0  0 -0.775 0  0.02500000000000002 -0.775 0  0.04999999999999999 -0.775 0  0.07500000000000001 -0.775 0  0.09999999999999998 -0.775 0  0.125 -0.775 0  0.15 -0.775 0  0.175 -0.775 0  0.2 -0.775 0  0.225 -0.775 0  0.25 -0.775 0  -0.25 -0.75 0  -0.225 -0.75 0  -0.2 -0.75 0  -0.175 -0.75 0  -0.15 -0.75 0  -0.125 -0.75 0  -0.1 -0.75 0  -0.07500000000000001 -0.75 0  -0.04999999999999999 -0.75 0  -0.02499999999999999 -0.75 0  0 -0.75 0  0.02500000000000002 -0.75 0  0.04999999999999999 -0.75 0  0.07500000000000001 -0.75 0  0.09999999999999998 -0.75 0  0.125 -0.75 0  0.15 -0.75 0  0.175 -0.75 0  0.2 -0.75 0  0.225 -0.75 0  0.25 -0.75 0  -0.25 -0.725 0  -0.225 -0.725 0  -0.2 -0.725 0  -0.175 -0.725 0  -0.15 -0.725 0  -0.125 -0.725 0  -0.1 -0.725 0  -0.07500000000000001 -0.725 0  -0.04999999999999999 -0.725 0  -0.02499999999999999 -0.725 0  0 -0.725 0  0.02500000000000002 -0.725 0  0.04999999999999999 -0.725 0  0.07500000000000001 -0.725 0  0.09999999999999998 -0.725 0  0.125 -0.725 0  0.15 -0.725 0  0.175 -0.725 0  0.2 -0.725 0  0.225 -0.725 0  0.25 -0.725 0  -0.25 -0.7 0  -0.225 -0.7 0  -0.2 -0.7 0  -0.175 -0.7 0  -0.15 -0.7 0  -0.125 -0.7 0  -0.1 -0.7 0  -0.07500000000000001 -0.7 0  -0.04999999999999999 -0.7 0  -0.02499999999999999 -0.7 0  0 -0.7 0  0.02500000000000002 -0.7 0  0.04999999999999999 -0.7 0  0.07500000000000001 -0.7 0  0.09999999999999998 -0.7 0  0.125 -0.7 0  0.15 -0.7 0  0.175 -0.7 0  0.2 -0.7 0  0.225 -0.7 0  0.25 -0.7 0  -0.25 -0.675 0  -0.225 -0.675 0  -0.2 -0.675 0  -0.175 -0.675 0  -0.15 -0.675 0  -0.125 -0.675 0  -0.1 -0.675 0  -0.07500000000000001 -0.675 0  -0.04999999999999999 -0.675 0  -0.02499999999999999 -0.675 0  0 -0.675 0  0.02500000000000002 -0.675 0  0.04999999999999999 -0.675 0  0.07500000000000001 -0.675 0  0.09999999999999998 -0.675 0  0.125 -0.675 0  0.15 -0.675 0  0.175 -0.675 0  0.2 -0.675 0  0.225 -0.675 0  0.25 -0.675 0  -0.25 -0.65 0  -0.225 -0.65 0  -0.2 -0.65 0  -0.175 -0.65 0  -0.15 -0.65 0  -0.125 -0.65 0  -0.1 -0.65 0  -0.07500000000000001 -0.65 0  -0.04999999999999999 -0.65 0  -0.02499999999999999 -0.65 0  0 -0.65 0  0.02500000000000002 -0.65 0  0.04999999999999999 -0.65 0  0.07500000000000001 -0.65 0  0.09999999999999998 -0.65 0  0.125 -0.65 0  0.15 -0.65 0  0.175 -0.65 0  0.2 -0.65 0  0.225 -0.65 0  0.25 -0.65 0  -0.25 -0.625 0  -0.225 -0.625 0  -0.2 -0.625 0  -0.175 -0.625 0  -0.15 -0.625 0  -0.125 -0.625 0  -0.1 -0.625 0  -0.07500000000000001 -0.625 0  -0.04999999999999999 -0.625 0  -0.02499999999999999 -0.625 0  0 -0.625 0  0.02500000000000002 -0.625 0  0.04999999999999999 -0.625 0  0.07500000000000001 -0.625 0  0.09999999999999998 -0.625 0  0.125 -0.625 0  0.15 -0.625 0  0.175 -0.625 0  0.2 -0.625 0  0.225 -0.625 0  0.25 -0.625 0  -0.25 -0.6 0  -0.225 -0.6 0  -0.2 -0.6 0  -0.175 -0.6 0  -0.15 -0.6 0  -0.125 -0.6 0  -0.1 -0.6 0  -0.07500000000000001 -0.6 0  -0.04999999999999999 -0.6 0  -0.02499999999999999 -0.6 0  0 -0.6 0  0.02500000000000002 -0.6 0  0.04999999999999999 -0.6 0  0.07500000000000001 -0.6 0  0.09999999999999998 -0.6 0  0.125 -0.6 0  0.15 -0.6 0  0.175 -0.6 0  0.2 -0.6 0  0.225 -0.6 0  0.25 -0.6 0  -0.25 -0.575 0  -0.225 -0.575 0  -0.2 -0.575 0  -0.175 -0.575 0  -0.15 -0.575 0  -0.125 -0.575 0  -0.1 -0.575 0  -0.07500000000000001 -0.575 0  -0.04999999999999999 -0.575 0  -0.02499999999999999 -0.575 0  0 -0.575 0  0.02500000000000002 -0.575 0  0.04999999999999999 -0.575 0  0.07500000000000001 -0.575 0  0.09999999999999998 -0.575 0  0.125 -0.575 0  0.15 -0.575 0  0.175 -0.575 0  0.2 -0.575 0  0.225 -0.575 0  0.25 -0.575 0  -0.25 -0.55 0  -0.225 -0.55 0  -0.2 -0.55 0  -0.175 -0.55 0  -0.15 -0.55 0  -0.125 -0.55 0  -0.1 -0.55 0  -0.07500000000000001 -0.55 0  -0.04999999999999999 -0.55 0  -0.02499999999999999 -0.55 0  0 -0.55 0  0.02500000000000002 -0.55 0  0.04999999999999999 -0.55 0  0.07500000000000001 -0.55 0  0.09999999999999998 -0.55 0  0.125 -0.55 0  0.15 -0.55 0  0.175 -0.55 0  0.2 -0.55 0  0.225 -0.55 0  0.25 -0.55 0  -0.25 -0.525 0  -0.225 -0.525 0  -0.2 -0.525 0  -0.175 -0.525 0  -0.15 -0.525 0  -0.125 -0.525 0  -0.1 -0.525 0  -0.07500000000000001 -0.525 0  -0.04999999999999999 -0.525 0  -0.02499999999999999 -0.525 0  0 -0.525 0  0.02500000000000002 -0.525 0  0.04999999999999999 -0.525 0  0.07500000000000001 -0.525 0  0.09999999999999998 -0.525 0  0.125 -0.525 0  0.15 -0.525 0  0.175 -0.525 0  0.2 -0.525 0  0.225 -0.525 0  0.25 -0.525 0  -0.25 -0.5 0  -0.225 -0.5 0  -0.2 -0.5 0  -0.175 -0.5 0  -0.15 -0.5 0  -0.125 -0.5 0  -0.1 -0.5 0  -0.07500000000000001 -0.5 0  -0.04999999999999999 -0.5 0  -0.02499999999999999 -0.5 0  0 -0.5 0  0.02500000000000002 -0.5 0  0.04999999999999999 -0.5 0  0.07500000000000001 -0.5 0  0.09999999999999998 -0.5 0  0.125 -0.5 0  0.15 -0.5 0  0.175 -0.5 0  0.2 -0.5 0  0.225 -0.5 0  0.25 -0.5 0  -0.25 -0.475 0  -0.225 -0.475 0  -0.2 -0.475 0  -0.175 -0.475 0  -0.15 -0.475 0  -0.125 -0.475 0  -0.1 -0.475 0  -0.07500000000000001 -0.475 0  -0.04999999999999999 -0.475 0  -0.02499999999999999 -0.475 0  0 -0.475 0  0.02500000000000002 -0.475 0  0.04999999999999999 -0.475 0  0.07500000000000001 -0.475 0  0.09999999999999998 -0.475 0  0.125 -0.475 0  0.15 -0.475 0  0.175 -0.475 0  0.2 -0.475 0  0.225 -0.475 0  0.25 -0.475 0  -0.25 -0.45 0  -0.225 -0.45 0  -0.2 -0.45 0  -0.175 -0.45 0  -0.15 -0.45 0  -0.125 -0.45 0  -0.1 -0.45 0  -0.07500000000000001 -0.45 0  -0.04999999999999999 -0.45 0  -0.02499999999999999 -0.45 0  0 -0.45 0  0.02500000000000002 -0.45 0  0.04999999999999999 -0.45 0  0.07500000000000001 -0.45 0  0.09999999999999998 -0.45 0  0.125 -0.45 0  0.15 -0.45 0  0.175 -0.45 0  0.2 -0.45 0  0.225 -0.45 0  0.25 -0.45 0  -0.25 -0.425 0  -0.225 -0.425 0  -0.2 -0.425 0  -0.175 -0.425 0  -0.15 -0.425 0  -0.125 -0.425 0  -0.1 -0.425 0  -0.07500000000000001 -0.425 0  -0.04999999999999999 -0.425 0  -0.02499999999999999 -0.425 0  0 -0.425 0  0.02500000000000002 -0.425 0  0.04999999999999999 -0.425 0  0.07500000000000001 -0.425 0  0.
[...]
<PointData  Vectors="flow"> 
<DataArray  type="Float64"  Name="flow"  NumberOfComponents="3" format="ascii">-2.0225682572147625e+00 4.0451520528266354e+00 0.0000000000000000e+00  3.6369064418557630e-05 4.0451520528125311e+00 0.0000000000000000e+00  2.4203533009977846e-08 4.0451520528035116e+00 0.0000000000000000e+00  -2.1303631714384664e-11 4.0451520528133376e+00 0.0000000000000000e+00  -9.8949004144911889e-12 4.0451520528234211e+00 0.0000000000000000e+00  -6.9408785686425214e-12 4.0451520528117566e+00 0.0000000000000000e+00  -1.4979334334556514e-11 4.0451520528080032e+00 0.0000000000000000e+00  -1.5079368081398364e-11 4.0451520528179863e+00 0.0000000000000000e+00  -1.7919176683637586e-11 4.0451520528140250e+00 0.0000000000000000e+00  -2.8689477572039171e-11 4.0451520528194331e+00 0.0000000000000000e+00  -1.5437438141540007e-11 4.0451520528234646e+00 0.0000000000000000e+00  -1.9426131626091865e-11 4.0451520528072207e+00 0.0000000000000000e+00  -1.8074929280626507e-11 4.0451520528285903e+00 0.0000000000000000e+00  -1.9238271629241753e-11 4.0451520528193514e+00 0.0000000000000000e+00  -1.3512402995186550e-11 4.0451520528497467e+00 0.0000000000000000e+00  -7.9741805764457112e-12 4.0451520528350331e+00 0.0000000000000000e+00  -1.1973604691092477e-11 4.0451520528287670e+00 0.0000000000000000e+00  1.0883055522773431e-11 4.0451520528220781e+00 0.0000000000000000e+00  -2.4217425328689164e-08 4.0451520528098079e+00 0.0000000000000000e+00  -3.6369074782172198e-05 4.0451520528228446e+00 0.0000000000000000e+00  2.0225682572370340e+00 4.0451520528047107e+00 0.0000000000000000e+00  -2.0219855777450593e+00 1.2134129861341215e+01 0.0000000000000000e+00  3.6756100815800503e-05 1.2134129861346059e+01 0.0000000000000000e+00  2.4018151603982076e-08 1.2134129861349033e+01 0.0000000000000000e+00  -1.7903572563616740e-11 1.2134129861353511e+01 0.0000000000000000e+00  -1.1229278135237540e-11 1.2134129861344105e+01 0.0000000000000000e+00  -1.0597857833490616e-11 1.2134129861352994e+01 0.0000000000000000e+00  -1.1463938505875784e-11 1.2134129861343727e+01 0.0000000000000000e+00  -2.3057796838889564e-11 1.2134129861349193e+01 0.0000000000000000e+00  -1.7473263988560069e-11 1.2134129861340647e+01 0.0000000000000000e+00  -1.8543282739194399e-11 1.2134129861344972e+01 0.0000000000000000e+00  -2.6002216585259225e-11 1.2134129861350914e+01 0.0000000000000000e+00  -1.6423816054507621e-11 1.2134129861337140e+01 0.0000000000000000e+00  -1.7645172415232945e-11 1.2134129861342700e+01 0.0000000000000000e+00  -9.2102538038906255e-12 1.2134129861339876e+01 0.0000000000000000e+00  -1.3719420753832483e-11 1.2134129861344899e+01 0.0000000000000000e+00  -1.3611011752184816e-11 1.2134129861344130e+01 0.0000000000000000e+00  -9.9882333723565760e-12 1.2134129861343220e+01 0.0000000000000000e+00  3.0468455718468210e-12 1.2134129861346873e+01 0.0000000000000000e+00  -2.4027472721970444e-08 1.2134129861343402e+01 0.0000000000000000e+00  -3.6756105569247000e-05 1.2134129861341453e+01 0.0000000000000000e+00  2.0219855777420945e+00 1.2134129861345828e+01 0.0000000000000000e+00  -2.0202251663489608e+00 2.4261240418864158e+01 0.0000000000000000e+00  3.7911172051271142e-05 2.4261240418867033e+01 0.0000000000000000e+00  2.3456645878829792e-08 2.4261240418867143e+01 0.0000000000000000e+00  -1.9829327911598795e-11 2.4261240418872390e+01 0.0000000000000000e+00  -1.2383121718745148e-11 2.4261240418872806e+01 0.0000000000000000e+00  -1.2955321734589485e-11 2.4261240418868304e+01 0.0000000000000000e+00  -1.6500472408601304e-11 2.4261240418866546e+01 0.0000000000000000e+00  -1.4462410885951234e-11 2.4261240418865558e+01 0.0000000000000000e+00  -1.6678560054819372e-11 2.4261240418876294e+01 0.0000000000000000e+00  -2.0847459086876807e-11 2.4261240418870187e+01 0.0000000000000000e+00  -2.5664173535341754e-11 2.4261240418866738e+01 0.0000000000000000e+00  -2.0977948192652855e-11 2.4261240418871541e+01 0.0000000000000000e+00  -1.9609125340561043e-11 2.4261240418865917e+01 0.0000000000000000e+00  -1.1898577344929280e-11 2.4261240418866301e+01 0.0000000000000000e+00  -1.0221662021029465e-11 2.4261240418865139e+01 0.0000000000000000e+00  -9.5393928378598904e-12 2.4261240418866748e+01 0.0000000000000000e+00  -1.2621810469958046e-11 2.4261240418870848e+01 0.0000000000000000e+00  1.1607198574103784e-11 2.4261240418873207e+01 0.0000000000000000e+00  -2.3468216020754165e-08 2.4261240418878728e+01 0.0000000000000000e+00  -3.7911179412077199e-05 2.4261240418869942e+01 0.0000000000000000e+00  2.0202251663666257e+00 2.4261240418864116e+01 0.0000000000000000e+00  -2.0172500968960518e+00 3.6374164316152154e+01 0.0000000000000000e+00  3.9816258786758129e-05 3.6374164316143528e+01 0.0000000000000000e+00  2.2522313634081590e-08 3.6374164316150399e+01 0.0000000000000000e+00  -1.6180660427792463e-11 3.6374164316141972e+01 0.0000000000000000e+00  -1.6329005595109099e-11 3.6374164316147400e+01 0.0000000000000000e+00  -7.5236025963662673e-12 3.6374164316140885e+01 0.0000000000000000e+00  -1.5909564919097918e-11 3.6374164316151514e+01 0.0000000000000000e+00  -1.4719418425547621e-11 3.6374164316145354e+01 0.0000000000000000e+00  -1.9797164296727205e-11 3.6374164316149219e+01 0.0000000000000000e+00  -2.6789841208536156e-11 3.6374164316147294e+01 0.0000000000000000e+00  -1.9411767410586506e-11 3.6374164316142263e+01 0.0000000000000000e+00  -2.0957871279500309e-11 3.6374164316150150e+01 0.0000000000000000e+00  -1.9900689927219232e-11 3.6374164316147400e+01 0.0000000000000000e+00  -1.3780521212922860e-11 3.6374164316148864e+01 0.0000000000000000e+00  -1.2490338264422910e-11 3.6374164316147933e+01 0.0000000000000000e+00  -1.0062849450916009e-11 3.6374164316143791e+01 0.0000000000000000e+00  4.2220280702558417e-12 3.6374164316148871e+01 0.0000000000000000e+00  1.3917569025308752e-12 3.6374164316146761e+01 0.0000000000000000e+00  -2.2534291656864004e-08 3.6374164316140956e+01 0.0000000000000000e+00  -3.9816267131140775e-05 3.6374164316150569e+01 0.0000000000000000e+00  2.0172500969011167e+00 3.6374164316151592e+01 0.0000000000000000e+00  -2.0129994663010971e+00 4.8465440400329200e+01 0.0000000000000000e+00  4.2441567652100796e-05 4.8465440400333371e+01 0.0000000000000000e+00  2.1238348544668145e-08 4.8465440400332064e+01 0.0000000000000000e+00  -1.2255456450951026e-11 4.8465440400335126e+01 0.0000000000000000e+00  -1.3767971579144119e-11 4.8465440400335673e+01 0.0000000000000000e+00  -1.6313943243993874e-11 4.8465440400334728e+01 0.0000000000000000e+00  -1.6442428788824867e-11 4.8465440400328717e+01 0.0000000000000000e+00  -9.8041073990236155e-12 4.8465440400337037e+01 0.0000000000000000e+00  -2.0343593345472071e-11 4.8465440400325853e+01 0.0000000000000000e+00  -2.3366695764673085e-11 4.8465440400328852e+01 0.0000000000000000e+00  -2.3845727341294746e-11 4.8465440400336711e+01 0.0000000000000000e+00  -2.3219482732515714e-11 4.8465440400329030e+01 0.0000000000000000e+00  -1.4990223560774282e-11 4.8465440400335538e+01 0.0000000000000000e+00  -1.6968949171196329e-11 4.8465440400328490e+01 0.0000000000000000e+00  -8.1418807292620057e-12 4.8465440400329015e+01 0.0000000000000000e+00  -1.4015381454782850e-11 4.8465440400334060e+01 0.0000000000000000e+00  -6.3500223529814774e-12 4.8465440400324383e+01 0.0000000000000000e+00  7.9234623300969395e-12 4.8465440400326770e+01 0.0000000000000000e+00  -2.1247132584992053e-08 4.8465440400336156e+01 0.0000000000000000e+00  -4.2441568234121048e-05 4.8465440400330380e+01 0.0000000000000000e+00  2.0129994663083179e+00 4.8465440400329570e+01 0.0000000000000000e+00  -2.0073893470168223e+00 6.0527172568164545e+01 0.0000000000000000e+00  4.5745909354238560e-05 6.0527172568171316e+01 0.0000000000000000e+00  1.9602732604308388e-08 6.0527172568172048e+01 0.0000000000000000e+00  -1.6897778890665039e-11 6.0527172568167671e+01 0.0000000000000000e+00  -1.5249340617985556e-11 6.0527172568166790e+01 0.0000000000000000e+00  -1.6463399679963568e-11 6.0527172568169988e+01 0.0000000000000000e+00  -8.7119626411155861e-12 6.0527172568169554e+01 0.0000000000000000e+00  -1.4203098027946410e-11 6.0527172568165419e+01 0.0000000000000000e+00  -2.6692940656155839e-11 6.0527172568168879e+01 0.0000000000000000e+00  -1.6867485549968334e-11 6.0527172568174748e+01 0.0000000000000000e+00  -2.0653156858111678e-11 6.0527172568169576e+01 0.0000000000000000e+00  -1.9599939041662234e-11 6.0527172568173441e+01 0.0000000000000000e+00  -1.8958657143294745e-11 6.0527172568171764e+01 0.0000000000000000e+00  -2.1204299730199484e-11 6.0527172568168382e+01 0.0000000000000000e+00  -1.0934057190030665e-11 6.0527172568173633e+01 0.0000000000000000e+00  -1.0479723998813979e-11 6.0527172568167138e+01 0.0000000000000000e+00  -7.9846462714091255e-12 6.0527172568170293e+01 0.0000000000000000e+00  9.1823532624437439e-12 6.0527172568164751e+01 0.0000000000000000e+00  -1.9612065182828787e-08 6.0527172568166797e+01 0.0000000000000000e+00  -4.5745909051676785e-05 6.0527172568172283e+01 0.0000000000000000e+00  2.0073893470377002e+00 6.0527172568173761e+01 0.0000000000000000e+00  -2.0003141045567778e+00 7.2550895427540723e+01 0.0000000000000000e+00  4.9677155260325693e-05 7.2550895427532382e+01 0.0000000000000000e+00  1.7652183183656969e-08 7.2550895427529781e+01 0.0000000000000000e+00  -1.3750203606573484e-11 7.2550895427529170e+01 0.0000000000000000e+00  -1.2563050655587164e-11 7.2550895427535323e+01 0.0000000000000000e+00  -8.4085114439753077e-12 7.2550895427534471e+01 0.0000000000000000e+00  -1.9982337817551613e-11 7.2550895427535835e+01 0.0000000000000000e+00  -2.2177103105241795e-11 7.2550895427533092e+01 0.0000000000000000e+00  -6.9601313566875906e-12 7.2550895427531302e+01 0.0000000000000000e+00  -2.5162182283801823e-11 7.2550895427536034e+01 0.0000000000000000e+00  -2.3496950346887402e-11 7.2550895427536119e+01 0.0000000000000000e+00  -1.7859503559287067e-11 7.2550895427535295e+01 0.0000000000000000e+00  -2.4991785876204918e-11 7.2550895427537057e+01 0.0000000000000000e+00  -1.1537871016622261e-11 7.2550895427536531e+01 0.0000000000000000e+00  -1.2766831749482821e-11 7.2550895427533177e+01 0.0000000000000000e+00  -7.1870950170036982e-12 7.2550895427541761e+01 0.0000000000000000e+00  -1.1561268577225915e-11 7.2550895427537597e+01 0.0000000000000000e+00  5.8076160408148903e-12 7.2550895427544845e+01 0.0000000000000000e+00  -1.7657014512209252e-08 7.2550895427536204e+01 0.0000000000000000e+00  -4.9677157858818559e-05 7.2550895427538904e+01 0.0000000000000000e+00  2.0003141045682131e+00 7.2550895427540752e+01 0.0000000000000000e+00  -1.9916480637346325e+00 8.4527448917693093e+01 0.0000000000000000e+00  5.4172921893110525e-05 8.4527448917696404e+01 0.0000000000000000e+00  1.5402850556363289e-08 8.4527448917691245e+01 0.0000000000000000e+00  -1.1310262818682444e-11 8.4527448917700156e+01 0.0000000000000000e+00  -1.1803999524700439e-11 8.4527448917691558e+01 0.0000000000000000e+00  -1.0338002009909251e-11 8.4527448917698948e+01 0.0000000000000000e+00  -1.6996122569439502e-11 8.4527448917695338e+01 0.0000000000000000e+00  -1.4995389161624165e-11 8.4527448917706508e+01 0.0000000000000000e+00  -1.7893507576332367e-11 8.4527448917703595e+01 0.0000000000000000e+00  -1.7830886371652888e-11 8.4527448917697782e+01 0.0000000000000000e+00  -1.9486239521531536e-11 8.4527448917704191e+01 0.0000000000000000e+00  -1.9882423195874824e-11 8.4527448917699502e+01 0.0000000000000000e+00  -2.0841538510667297e-11 8.4527448917698550e+01 0.0000000000000000e+00  -2.0707364807769132e-11 8.4527448917704746e+01 0.0000000000000000e+00  -9.7403089166823870e-12 8.4527448917703765e+01 0.0000000000000000e+00  -8.8574162942755551e-12 8.4527448917698180e+01 0.0000000000000000e+00  -1.2112637448537381e-11 8.4527448917697427e+01 0.0000000000000000e+00  5.1524133793799417e-12 8.4527448917694599e+01 0.0000000000000000e+00  -1.5413258037728184e-08 8.4527448917696731e+01 0.0000000000000000e+00  -5.4172923401997385e-05 8.4527448917694471e+01 0.0000000000000000e+00  1.9916480637451335e+00 8.4527448917696645e+01 0.0000000000000000e+00  -1.9812475037467425e+00 9.6446863922610859e+01 0.0000000000000000e+00  5.9161314268656107e-05 9.6446863922614511e+01 0.0000000000000000e+00  1.2893861961810130e-08 9.6446863922617595e+01 0.0000000000000000e+00  -1.4922167658021042e-11 9.6446863922624601e+01 0.0000000000000000e+00  -1.1560215743638413e-11 9.6446863922624431e+01 0.0000000000000000e+00  -9.9271674536868116e-12 9.6446863922618292e+01 0.0000000000000000e+00  -1.1469050339410648e-11 9.6446863922624530e+01 0.0000000000000000e+00  -1.3181705458255329e-11 9.6446863922619627e+01 0.0000000000000000e+00  -1.9676431156971888e-11 9.6446863922624161e+01 0.0000000000000000e+00  -2.3641555747037385e-11 9.6446863922622555e+01 0.0000000000000000e+00  -1.8750476992766416e-11 9.6446863922615066e+01 0.0000000000000000e+00  -2.2738322709767173e-11 9.6446863922624274e+01 0.0000000000000000e+00  -2.1766987373103048e-11 9.6446863922617268e+01 0.0000000000000000e+00  -9.6262930050905590e-12 9.6446863922617823e+01 0.0000000000000000e+00  -1.4323539916954747e-11 9.6446863922614725e+01 0.0000000000000000e+00  -9.4558642098827429e-12 9.6446863922615023e+01 0.0000000000000000e+00  -1.1762367785336380e-11 9.6446863922621688e+01 0.0000000000000000e+00  6.0794513166362200e-12 9.6446863922620054e+01 0.0000000000000000e+00  -1.2895212560672612e-08 9.6446863922614810e+01 0.0000000000000000e+00  -5.9161319321615196e-05 9.6446863922621972e+01 0.0000000000000000e+00  1.9812475037577697e+00 9.6446863922619372e+01 0.0000000000000000e+00  -1.9689529570766626e+00 1.0829826077676856e+02 0.0000000000000000e+00  6.4561814646753695e-05 1.0829826077676306e+02 0.0000000000000000e+00  1.0135964733144251e-08 1.0829826077676825e+02 0.0000000000000000e+00  -7.4494193931647691e-12 1.0829826077675985e+02 0.0000000000000000e+00  -1.0062961289149472e-11 1.0829826077677050e+02 0.0000000000000000e+00  -1.2933590784096043e-11 1.0829826077676896e+02 0.0000000000000000e+00  -1.0237319194676337e-11 1.0829826077676670e+02 0.0000000000000000e+00  -1.5252984583988093e-11 1.0829826077676768e+02 0.0000000000000000e+00  -1.8201897741257949e-11 1.0829826077676691e+02 0.0000000000000000e+00  -2.5792204656600048e-11 1.0829826077676725e+02 0.0000000000000000e+00  -2.0353187054291910e-11 1.0829826077676405e+02 0.0000000000000000e+00  -1.7834638045772524e-11 1.0829826077675980e+02 0.0000000000000000e+00  -2.2480412625532702e-11 1.0829826077676660e+02 0.0000000000000000e+00  -1.9341454114881300e-11 1.0829826077676704e+02 0.0000000000000000e+00  -1.3773830527335299e-11 1.0829826077676356e+02 0.0000000000000000e+00  -8.8120616266108196e-12 1.0829826077676961e+02 0.0000000000000000e+00  -8.5811819704547450e-12 1.0829826077676353e+02 0.0000000000000000e+00  3.4565541436982867e-12 1.0829826077676935e+02 0.0000000000000000e+00  -1.0139006561931707e-08 1.0829826077677026e+02 0.0000000000000000e+00  -6.4561815173830897e-05 1.0829826077677352e+02 0.0000000000000000e+00  1.9689529570805282e+00 1.0829826077676034e+02 0.0000000000000000e+00  -1.9545917840924094e+00 1.2006976240379329e+02 0.0000000000000000e+00  7.0286295374810031e-05 1.2006976240379413e+02 0.0000000000000000e+00  7.1736129296209127e-09 1.2006976240379282e+02 0.0000000000000000e+00  -4.9531690884440109e-12 1.2006976240379120e+02 0.0000000000000000e+00  -5.4920987424975664e-12 1.2006976240379343e+02 0.0000000000000000e+00  -1.2014742053225380e-11 1.2006976240379822e+02 0.0000000000000000e+00  -1.6277000581345049e-11 1.2006976240379436e+02 0.0000000000000000e+00  -1.5181284365879757e-11 1.2006976240379443e+02 0.0000000000000000e+00  -1.7841489892824784e-11 1.2006976240379322e+02 0.0000000000000000e+00  -2.5351366971580028e-11 1.2006976240379335e+02 0.0000000000000000e+00  -2.3906685328137606e-11 1.2006976240379687e+02 0.0000000000000000e+00  -2.1125043720600249e-11 1.2006976240379409e+02 0.0000000000000000e+00  -1.8843714685445403e-11 1.2006976240379586e+02 0.0000000000000000e+00  -1.4990923986156142e-11 1.2006976240379231e+02 0.0000000000000000e+00  -1.2274722664599249e-11 1.2006976240380160e+02 0.0000000000000000e+00  -5.8431742251712866e-12 1.2006976240379468e+02 0.0000000000000000e+00  -1.5799490846220998e-11 1.2006976240379542e+02 0.0000000000000000e+00  4.6326554966451113e-12 1.2006976240378890e+02 0.0000000000000000e+00  -7.1738777678714896e-09 1.2006976240379400e+02 0.0000000000000000e+00  -7.0286298257962610e-05 1.2006976240378967e+02 0.0000000000000000e+00  1.9545917841007034e+00 1.2006976240379902e+02 0.0000000000000000e+00  -1.9379809907918286e+00 1.3174842364593908e+02 0.0000000000000000e+00  7.6240129434730920e-05 1.3174842364593860e+02 0.0000000000000000e+00  4.0468681932883450e-09 1.3174842364593883e+02 0.0000000000000000e+00  -1.7884367903766869e-12 1.3174842364593792e+02 0.0000000000000000e+00  -7.0159882330609313e-12 1.3174842364593331e+02 0.0000000000000000e+00  -1.2131371470103206e-11 1.3174842364593326e+02 0.0000000000000000e+00  -1.4331432588209040e-11 1.3174842364593721e+02 0.0000000000000000e+00  -1.6731264017875573e-11 1.3174842364593081e+02 0.0000000000000000e+00  -1.2295690963158089e-11 1.3174842364593545e+02 0.0000000000000000e+00  -2.7910731788332759e-11 1.3174842364593312e+02 0.0000000000000000e+00  -1.9392566887478343e-11 1.3174842364593775e+02 0.0000000000000000e+00  -2.0234281691749759e-11 1.3174842364593491e+02 0.0000000000000000e+00  -2.1050376313008089e-11 1.3174842364593715e+02 0.0000000000000000e+00  -1.3420775537465780e-11 1.3174842364593408e+02 0.0000000000000000e+00  -1.4652423029820661e-11 1.3174842364593110e+02 0.0000000000000000e+00  -1.2350931356142673e-11 1.3174842364593681e+02 0.0000000000000000e+00  -4.0735007492734236e-12 1.3174842364593877e+02 0.0000000000000000e+00  -3.5537542058388917e-12 1.3174842364594571e+02 0.0000000000000000e+00  -4.0513446735308077e-09 1.3174842364593900e+02 0.0000000000000000e+00  -7.6240135059766053e-05 1.3174842364593528e+02 0.0000000000000000e+00  1.9379809907919774e+00 1.3174842364593766e+02 0.0000000000000000e+00  -1.9189302541625881e+00 1.4332017813783344e+02 0.0000000000000000e+00  8.2323437401898397e-05 1.4332017813783139e+02 0.0000000000000000e+00  8.0169181946430656e-10 1.4332017813783128e+02 0.0000000000000000e+00  -8.7675039309442380e-12 1.4332017813783483e+02 0.0000000000000000e+00  -7.7351525379086216e-12 1.4332017813782764e+02 0.0000000000000000e+00  -1.0647196919334709e-11 1.4332017813782787e+02 0.0000000000000000e+00  -1.6455526225609605e-11 1.4332017813782423e+02 0.0000000000000000e+00  -1.7877086502251242e-11 1.4332017813782869e+02 0.0000000000000000e+00  -1.4965428133880783e-11 1.4332017813782954e+02 0.0000000000000000e+00  -2.5472432662758008e-11 1.4332017813782744e+02 0.0000000000000000e+00  -1.9133911350314546e-11 1.4332017813783042e+02 0.0000000000000000e+00  -2.3906168824326218e-11 1.4332017813783281e+02 0.0000000000000000e+00  -1.9281713536715866e-11 1.4332017813782446e+02 0.0000000000000000e+00  -1.6640058630575411e-11 1.4332017813782954e+02 0.0000000000000000e+00  -1.1331688331513754e-11 1.4332017813782716e+02 0.0000000000000000e+00  -2.7735634226221555e-12 1.4332017813783014e+02 0.0000000000000000e+00  -6.1579931984566703e-12 1.4332017813783048e+02 0.0000000000000000e+00  -4.9529165155341658e-12 1.4332017813782875e+02 0.0000000000000000e+00  -8.0754260662180496e-10 1.4332017813783369e+02 0.0000000000000000e+00  -8.2323439405654553e-05 1.4332017813782912e+02 0.0000000000000000e+00  1.9189302541652240e+00 1.4332017813782866e+02 0.0000000000000000e+00  -1.8972451161967430e+00 1.5476980385469565e+02 0.0000000000000000e+00  8.8432327838537984e-05 1.5476980385469670e+02 0.0000000000000000e+00  -2.5245013588845920e-09 1.5476980385469659e+02 0.0000000000000000e+00  -2.2539317042066476e-12 1.5476980385469588e+02 0.0000000000000000e+00  -1.0289223664922954e-11 1.5476980385470588e+02 0.0000000000000000e+00  -1.6045809679054407e-11 1.5476980385469935e+02 0.0000000000000000e+00  -1.2923319474044537e-11 1.5476980385470429e+02 0.0000000000000000e+00  -1.1687231686102948e-11 1.5476980385469577e+02 0.000000000000000