<?xml version="1.0"?>
<VTKFile type="UnstructuredGrid"  version="0.1"  >
<UnstructuredGrid>
<Piece  NumberOfPoints="1091" NumberOfCells="2050">
<Points>
<DataArray  type="Float64"  NumberOfComponents="3"  format="ascii">-0.5 -1 0  -0.4 -1 0  -0.3 -1 0  -0.2 -1 0  -0.09999999999999998 -1 0  0 -1 0  0.09999999999999998 -1 0  0.2 -1 0  0.3 -1 0  0.4 -1 0  0.5 -1 0  -0.5 -0.98 0  -0.4 -0.98 0  -0.3 -0.98 0  -0.2 -0.98 0  -0.09999999999999998 -0.98 0  0 -0.98 0  0.09999999999999998 -0.98 0  0.2 -0.98 0  0.3 -0.98 0  0.4 -0.98 0  0.5 -0.98 0  -0.5 -0.96 0  -0.4 -0.96 0  -0.3 -0.96 0  -0.2 -0.96 0  -0.09999999999999998 -0.96 0  0 -0.96 0  0.09999999999999998 -0.96 0  0.2 -0.96 0  0.3 -0.96 0  0.4 -0.96 0  0.5 -0.96 0  -0.5 -0.9399999999999999 0  -0.4 -0.9399999999999999 0  -0.3 -0.9399999999999999 0  -0.2 -0.9399999999999999 0  -0.09999999999999998 -0.9399999999999999 0  0 -0.9399999999999999 0  0.09999999999999998 -0.9399999999999999 0  0.2 -0.9399999999999999 0  0.3 -0.9399999999999999 0  0.4 -0.9399999999999999 0  0.5 -0.9399999999999999 0  -0.5 -0.92 0  -0.4 -0.92 0  -0.3 -0.92 0  -0.2 -0.92 0  -0.09999999999999998 -0.92 0  0 -0.92 0  0.09999999999999998 -0.92 0  0.2 -0.92 0  0.3 -0.92 0  0.4 -0.92 0  0.5 -0.92 0  -0.5 -0.9 0  -0.4 -0.9 0  -0.3 -0.9 0  -0.2 -0.9 0  -0.09999999999999998 -0.9 0  0 -0.9 0  0.09999999999999998 -0.9 0  0.2 -0.9 0  0.3 -0.9 0  0.4 -0.9 0  0.5 -0.9 0  -0.5 -0.88 0  -0.4 -0.88 0  -0.3 -0.88 0  -0.2 -0.88 0  -0.09999999999999998 -0.88 0  0 -0.88 0  0.09999999999999998 -0.88 0  0.2 -0.88 0  0.3 -0.88 0  0.4 -0.88 0  0.5 -0.88 0  -0.5 -0.86 0  -0.4 -0.86 0  -0.3 -0.86 0  -0.2 -0.86 0  -0.09999999999999998 -0.86 0  0 -0.86 0  0.09999999999999998 -0.86 0  0.2 -0.86 0  0.3 -0.86 0  0.4 -0.86 0  0.5 -0.86 0  -0.5 -0.84 0  -0.4 -0.84 0  -0.3 -0.84 0  -0.2 -0.84 0  -0.09999999999999998 -0.84 0  0 -0.84 0  0.09999999999999998 -0.84 0  0.2 -0.84 0  0.3 -0.84 0  0.4 -0.84 0  0.5 -0.84 0  -0.5 -0.8200000000000001 0  -0.4 -0.8200000000000001 0  -0.3 -0.8200000000000001 0  -0.2 -0.8200000000000001 0  -0.09999999999999998 -0.8200000000000001 0  0 -0.8200000000000001 0  0.09999999999999998 -0.8200000000000001 0  0.2 -0.8200000000000001 0  0.3 -0.8200000000000001 0  0.4 -0.8200000000000001 0  0.5 -0.8200000000000001 0  -0.5 -0.8 0  -0.4 -0.8 0  -0.3 -0.8 0  -0.2 -0.8 0  -0.09999999999999998 -0.8 0  0 -0.8 0  0.09999999999999998 -0.8 0  0.2 -0.8 0  0.3 -0.8 0  0.4 -0.8 0  0.5 -0.8 0  -0.5 -0.78 0  -0.4 -0.78 0  -0.3 -0.78 0  -0.2 -0.78 0  -0.09999999999999998 -0.78 0  0 -0.78 0  0.09999999999999998 -0.78 0  0.2 -0.78 0  0.3 -0.78 0  0.4 -0.78 0  0.5 -0.78 0  -0.5 -0.76 0  -0.4 -0.76 0  -0.3 -0.76 0  -0.2 -0.76 0  -0.09999999999999998 -0.76 0  0 -0.76 0  0.09999999999999998 -0.76 0  0.2 -0.76 0  0.3 -0.76 0  0.4 -0.76 0  0.5 -0.76 0  -0.5 -0.74 0  -0.4 -0.74 0  -0.3 -0.74 0  -0.2 -0.74 0  -0.09999999999999998 -0.74 0  0 -0.74 0  0.09999999999999998 -0.74 0  0.2 -0.74 0  0.3 -0.74 0  0.4 -0.74 0  0.5 -0.74 0  -0.5 -0.72 0  -0.4 -0.72 0  -0.3 -0.72 0  -0.2 -0.72 0  -0.09999999999999998 -0.72 0  0 -0.72 0  0.09999999999999998 -0.72 0  0.2 -0.72 0  0.3 -0.72 0  0.4 -0.72 0  0.5 -0.72 0  -0.5 -0.7 0  -0.4 -0.7 0  -0.3 -0.7 0  -0.2 -0.7 0  -0.09999999999999998 -0.7 0  0 -0.7 0  0.09999999999999998 -0.7 0  0.2 -0.7 0  0.3 -0.7 0  0.4 -0.7 0  0.5 -0.7 0  -0.5 -0.6799999999999999 0  -0.4 -0.6799999999999999 0  -0.3 -0.6799999999999999 0  -0.2 -0.6799999999999999 0  -0.09999999999999998 -0.6799999999999999 0  0 -0.6799999999999999 0  0.09999999999999998 -0.6799999999999999 0  0.2 -0.6799999999999999 0  0.3 -0.6799999999999999 0  0.4 -0.6799999999999999 0  0.5 -0.6799999999999999 0  -0.5 -0.6599999999999999 0  -0.4 -0.6599999999999999 0  -0.3 -0.6599999999999999 0  -0.2 -0.6599999999999999 0  -0.09999999999999998 -0.6599999999999999 0  0 -0.6599999999999999 0  0.09999999999999998 -0.6599999999999999 0  0.2 -0.6599999999999999 0  0.3 -0.6599999999999999 0  0.4 -0.6599999999999999 0  0.5 -0.6599999999999999 0  -0.5 -0.64 0  -0.4 -0.64 0  -0.3 -0.64 0  -0.2 -0.64 0  -0.09999999999999998 -0.64 0  0 -0.64 0  0.09999999999999998 -0.64 0  0.2 -0.64 0  0.3 -0.64 0  0.4 -0.64 0  0.5 -0.64 0  -0.5 -0.62 0  -0.4 -0.62 0  -0.3 -0.62 0  -0.2 -0.62 0  -0.09999999999999998 -0.62 0  0 -0.62 0  0.09999999999999998 -0.62 0  0.2 -0.62 0  0.3 -0.62 0  0.4 -0.62 0  0.5 -0.62 0  -0.5 -0.6 0  -0.4 -0.6 0  -0.3 -0.6 0  -0.2 -0.6 0  -0.09999999999999998 -0.6 0  0 -0.6 0  0.09999999999999998 -0.6 0  0.2 -0.6 0  0.3 -0.6 0  0.4 -0.6 0  0.5 -0.6 0  -0.5 -0.5800000000000001 0  -0.4 -0.5800000000000001 0  -0.3 -0.5800000000000001 0  -0.2 -0.5800000000000001 0  -0.09999999999999998 -0.5800000000000001 0  0 -0.5800000000000001 0  0.09999999999999998 -0.5800000000000001 0  0.2 -0.5800000000000001 0  0.3 -0.5800000000000001 0  0.4 -0.5800000000000001 0  0.5 -0.5800000000000001 0  -0.5 -0.5600000000000001 0  -0.4 -0.5600000000000001 0  -0.3 -0.5600000000000001 0  -0.2 -0.5600000000000001 0  -0.09999999999999998 -0.5600000000000001 0  0 -0.5600000000000001 0  0.09999999999999998 -0.5600000000000001 0  0.2 -0.5600000000000001 0  0.3 -0.5600000000000001 0  0.4 -0.5600000000000001 0  0.5 -0.5600000000000001 0  -0.5 -0.54 0  -0.4 -0.54 0  -0.3 -0.54 0  -0.2 -0.54 0  -0.09999999999999998 -0.54 0  0 -0.54 0  0.09999999999999998 -0.54 0  0.2 -0.54 0  0.3 -0.54 0  0.4 -0.54 0  0.5 -0.54 0  -0.5 -0.52 0  -0.4 -0.52 0  -0.3 -0.52 0  -0.2 -0.52 0  -0.09999999999999998 -0.52 0  0 -0.52 0  0.09999999999999998 -0.52 0  0.2 -0.52 0  0.3 -0.52 0  0.4 -0.52 0  0.5 -0.52 0  -0.5 -0.5 0  -0.4 -0.5 0  -0.3 -0.5 0  -0.2 -0.5 0  -0.09999999999999998 -0.5 0  0 -0.5 0  0.09999999999999998 -0.5 0  0.2 -0.5 0  0.3 -0.5 0  0.4 -0.5 0  0.5 -0.5 0  -0.5 -0.48 0  -0.4 -0.48 0  -0.3 -0.48 0  -0.2 -0.48 0  -0.09999999999999998 -0.48 0  0 -0.48 0  0.09999999999999998 -0.48 0  0.2 -0.48 0  0.3 -0.48 0  0.4 -0.48 0  0.5 -0.48 0  -0.5 -0.46 0  -0.4 -0.46 0  -0.3 -0.46 0  -0.2 -0.46 0  -0.09999999999999998 -0.46 0  0 -0.46 0  0.09999999999999998 -0.46 0  0.2 -0.46 0  0.3 -0.46 0  0.4 -0.46 0  0.5 -0.46 0  -0.5 -0.4399999999999999 0  -0.4 -0.4399999999999999 0  -0.3 -0.4399999999999999 0  -0.2 -0.4399999999999999 0  -0.09999999999999998 -0.4399999999999999 0  0 -0.4399999999999999 0  0.09999999999999998 -0.4399999999999999 0  0.2 -0.4399999999999999 0  0.3 -0.4399999999999999 0  0.4 -0.4399999999999999 0  0.5 -0.4399999999999999 0  -0.5 -0.42 0  -0.4 -0.42 0  -0.3 -0.42 0  -0.2 -0.42 0  -0.09999999999999998 -0.42 0  0 -0.42 0  0.09999999999999998 -0.42 0  0.2 -0.42 0  0.3 -0.42 0  0.4 -0.42 0  0.5 -0.42 0  -0.5 -0.4 0  -0.4 -0.4 0  -0.3 -0.4 0  -0.2 -0.4 0  -0.09999999999999998 -0.4 0  0 -0.4 0  0.09999999999999998 -0.4 0  0.2 -0.4 0  0.3 -0.4 0  0.4 -0.4 0  0.5 -0.4 0  -0.5 -0.38 0  -0.4 -0.38 0  -0.3 -0.38 0  -0.2 -0.38 0  -0.09999999999999998 -0.38 0  0 -0.38 0  0.09999999999999998 -0.38 0  0.2 -0.38 0  0.3 -0.38 0  0.4 -0.38 0  0.5 -0.38 0  -0.5 -0.36 0  -0.4 -0.36 0  -0.3 -0.36 0  -0.2 -0.36 0  -0.09999999999999998 -0.36 0  0 -0.36 0  0.09999999999999998 -0.36 0  0.2 -0.36 0  0.3 -0.36 0  0.4 -0.36 0  0.5 -0.36 0  -0.5 -0.34 0  -0.4 -0.34 0  -0.3 -0.34 0  -0.2 -0.34 0  -0.09999999999999998 -0.34 0  0 -0.34 0  0.09999999999999998 -0.34 0  0.2 -0.34 0  0.3 -0.34 0  0.4 -0.34 0  0.5 -0.34 0  -0.5 -0.32 0  -0.4 -0.32 0  -0.3 -0.32 0  -0.2 -0.32 0  -0.09999999999999998 -0.32 0  0 -0.32 0  0.09999999999999998 -0.32 0  0.2 -0.32 0  0.3 -0.32 0  0.4 -0.32 0  0.5 -0.32 0  -0.5 -0.3 0  -0.4 -0.3 0  -0.3 -0.3 0  -0.2 -0.3 0  -0.09999999999999998 -0.3 0  0 -0.3 0  0.09999999999999998 -0.3 0  0.2 -0.3 0  0.3 -0.3 0  0.4 -0.3 0  0.5 -0.3 0  -0.5 -0.28 0  -0.4 -0.28 0  -0.3 -0.28 0  -0.2 -0.28 0  -0.09999999999999998 -0.28 0  0 -0.28 0  0.09999999999999998 -0.28 0  0.2 -0.28 0  0.3 -0.28 0  0.4 -0.28 0  0.5 -0.28 0  -0.5 -0.26 0  -0.4 -0.26 0  -0.3 -0.26 0  -0.2 -0.26 0  -0.09999999999999998 -0.26 0  0 -0.26 0  0.09999999999999998 -0.26 0  0.2 -0.26 0  0.3 -0.26 0  0.4 -0.26 0  0.5 -0.26 0  -0.5 -0.24 0  -0.4 -0.24 0  -0.3 -0.24 0  -0.2 -0.24 0  -0.09999999999999998 -0.24 0  0 -0.24 0  0.09999999999999998 -0.24 0  0.2 -0.24 0  0.3 -0.24 0  0.4 -0.24 0  0.5 -0.24 0  -0.5 -0.22 0  -0.4 -0.22 0  -0.3 -0.22 0  -0.2 -0.22 0  -0.09999999999999998 -0.22 0  0 -0.22 0  0.09999999999999998 -0.22 0  0.2 -0.22 0  0.3 -0.22 0  0.4 -0.22 0  0.5 -0.22 0  -0.5 -0.2 0  -0.4 -0.2 0  -0.3 -0.2 0  -0.2 -0.2 0  -0.09999999999999998 -0.2 0  0 -0.2 0  0.09999999999999998 -0.2 0  0.2 -0.2 0  0.3 -0.2 0  0.4 -0.2 0  0.5 -0.2 0  -0.5 -0.18 0  -0.4 -0.18 0  -0.3 -0.18 0  -0.2 -0.18 0  -0.09999999999999998 -0.18 0  0 -0.18 0  0.09999999999999998 -0.18 0  0.2 -0.18 0  0.3 -0.18 0  0.4 -0.18 0  0.5 -0.18 0  -0.5 -0.16 0  -0.4 -0.16 0  -0.3 -0.16 0  -0.2 -0.16 0  -0.09999999999999998 -0.16 0  0 -0.16 0  0.09999999999999998 -0.16 0  0.2 -0.16 0  0.3 -0.16 0  0.4 -0.16 0  0.5 -0.16 0  -0.5 -0.14 0  -0.4 -0.14 0  -0.3 -0.14 0  -0.2 -0.14 0  -0.09999999999999998 -0.14 0  0 -0.14 0  0.09999999999999998 -0.14 0  0.2 -0.14 0  0.3 -0.14 0  0.4 -0.14 0  0.5 -0.14 0  -0.5 -0.12 0  -0.4 -0.12 0  -0.3 -0.12 0  -0.2 -0.12 0  -0.09999999999999998 -0.12 0  0 -0.12 0  0.09999999999999998 -0.12 0  0.2 -0.12 0  0.3 -0.12 0  0.4 -0.12 0  0.5 -0.12 0  -0.5 -0.09999999999999998 0  -0.4 -0.09999999999999998 0  -0.3 -0.09999999999999998 0  -0.2 -0.09999999999999998 0  -0.09999999999999998 -0.09999999999999998 0  0 -0.09999999999999998 0  0.09999999999999998 -0.09999999999999998 0  0.2 -0.09999999999999998 0  0.3 -0.09999999999999998 0  0.4 -0.09999999999999998 0  0.5 -0.09999999999999998 0  -0.5 -0.07999999999999996 0  -0.4 -0.07999999999999996 0  -0.3 -0.07999999999999996 0  -0.2 -0.07999999999999996 0  -0.09999999999999998 -0.07999999999999996 0  0 -0.07999999999999996 0  0.09999999999999998 -0.07999999999999996 0  0.2 -0.07999999999999996 0  0.3 -0.07999999999999996 0  0.4 -0.07999999999999996 0  0.5 -0.07999999999999996 0  -0.5 -0.06000000000000005 0  -0.4 -0.06000000000000005 0  -0.3 -0.06000000000000005 0  -0.2 -0.06000000000000005 0  -0.09999999
[...]
<PointData  Vectors="flow"> 
<DataArray  type="Float64"  Name="flow"  NumberOfComponents="3" format="ascii">-3.6835106844178905e-15 -2.9663334429058311e-15 0.0000000000000000e+00  -1.8476963079697046e-15 5.8313014343026411e-15 0.0000000000000000e+00  6.5104339741003698e-17 -2.9363837314684487e-15 0.0000000000000000e+00  2.5578538476080842e-15 -4.5144662925553785e-15 0.0000000000000000e+00  -5.2399283083053694e-17 -2.0451310703190540e-15 0.0000000000000000e+00  8.7623136279161120e-16 -4.0103099426907780e-15 0.0000000000000000e+00  3.4201622262266570e-15 1.8676727286284747e-15 0.0000000000000000e+00  8.6272979360857692e-16 -4.0156467670600616e-15 0.0000000000000000e+00  2.7254009971126115e-16 5.8581030559140844e-15 0.0000000000000000e+00  1.4734079997638669e-15 -7.1899535822589499e-15 0.0000000000000000e+00  1.3665384496499000e-15 -3.7896739889550859e-15 0.0000000000000000e+00  -1.0453233694121966e-15 3.3528853186514771e-16 0.0000000000000000e+00  -2.4247621627418430e-15 4.1542789412307385e-15 0.0000000000000000e+00  -2.8679499961359804e-16 -2.5505338903983575e-15 0.0000000000000000e+00  2.3476690750028544e-15 5.3329830978324252e-15 0.0000000000000000e+00  -7.4618231589827501e-17 3.1637287222520102e-15 0.0000000000000000e+00  1.7037515550867292e-15 1.3419092777661724e-15 0.0000000000000000e+00  3.3654239806503139e-15 -5.4563847986953671e-16 0.0000000000000000e+00  6.4250227262437405e-16 4.4370614083006375e-15 0.0000000000000000e+00  5.6408384827376870e-16 4.0561354156011985e-15 0.0000000000000000e+00  6.3671722912404533e-16 3.2253641698454381e-15 0.0000000000000000e+00  2.3489157730854530e-15 -5.6101047601754077e-16 0.0000000000000000e+00  -7.8379712468502220e-16 -1.0150519652791721e-14 0.0000000000000000e+00  -2.2265185384596343e-15 -3.1995027880550731e-16 0.0000000000000000e+00  3.2924832178711871e-16 -9.1757235201353639e-15 0.0000000000000000e+00  3.8716721564287696e-15 4.8473773125995160e-15 0.0000000000000000e+00  -1.0436926487003715e-16 -1.5200286060672328e-15 0.0000000000000000e+00  2.6943862046971371e-16 6.5963554746491113e-15 0.0000000000000000e+00  3.8092604097325634e-15 1.2175172123084708e-14 0.0000000000000000e+00  1.1129289253050793e-15 7.0433317989108794e-15 0.0000000000000000e+00  1.7104676451096339e-16 -4.4750145301689433e-15 0.0000000000000000e+00  4.1423484309818173e-16 2.6857245596572878e-15 0.0000000000000000e+00  8.6657157051069387e-16 6.8886329090811638e-16 0.0000000000000000e+00  1.4667402070243017e-15 1.2729723385766486e-14 0.0000000000000000e+00  -3.2040062844537320e-15 3.0533257301533169e-15 0.0000000000000000e+00  3.6431688655988792e-16 -6.2063166860660170e-15 0.0000000000000000e+00  3.1940277007883505e-15 -4.1401565174522755e-15 0.0000000000000000e+00  -4.5091975402669324e-16 -1.0825528320012895e-14 0.0000000000000000e+00  4.5641670654864628e-15 3.7227803168349694e-15 0.0000000000000000e+00  4.0227895260455493e-15 1.6197601454060972e-14 0.0000000000000000e+00  -2.3478745368206902e-15 1.3070705123356646e-14 0.0000000000000000e+00  -3.6845223943870362e-16 -1.7730462058931389e-14 0.0000000000000000e+00  2.5528268887105097e-15 7.3433203327152517e-15 0.0000000000000000e+00  -8.6862948335469724e-16 3.6149690167114998e-15 0.0000000000000000e+00  -7.7798761438666931e-16 5.3134867431758413e-15 0.0000000000000000e+00  -4.7110198695991251e-15 -3.9641299087301911e-15 0.0000000000000000e+00  -5.6960799745280336e-17 8.4840298365273345e-16 0.0000000000000000e+00  3.2902240298336629e-15 -1.3149045458599382e-14 0.0000000000000000e+00  1.7794789338046660e-15 1.0148945720822343e-14 0.0000000000000000e+00  5.5602492580847827e-15 7.5451615155646282e-15 0.0000000000000000e+00  5.7258164516851610e-15 1.1824003737180919e-14 0.0000000000000000e+00  -7.6915397448649419e-15 1.7004703027296855e-14 0.0000000000000000e+00  -1.0364989600858474e-15 -2.1058577092319752e-14 0.0000000000000000e+00  5.0278465070338953e-15 2.8820305877713219e-15 0.0000000000000000e+00  -5.2461519986973129e-15 -1.7287661969442324e-14 0.0000000000000000e+00  -6.0233437545900959e-15 8.7774832860404091e-15 0.0000000000000000e+00  -4.0395619128440433e-15 -6.9704775408238430e-15 0.0000000000000000e+00  -3.6081703066088128e-15 5.7067053148760306e-15 0.0000000000000000e+00  4.7515938907631745e-15 -1.2788993144341194e-14 0.0000000000000000e+00  4.1453488542496706e-15 -1.1720827863010196e-15 0.0000000000000000e+00  5.0242356550399942e-15 -5.9800705489882725e-15 0.0000000000000000e+00  7.0132612878667226e-15 -2.9060563631092203e-15 0.0000000000000000e+00  -8.7525279446253911e-15 7.7746313566287607e-15 0.0000000000000000e+00  -2.2023501987898072e-15 -6.3729274637885446e-16 0.0000000000000000e+00  2.8102548939393897e-15 2.7549909510858124e-16 0.0000000000000000e+00  -6.1360269909320614e-15 -1.4760457017730272e-14 0.0000000000000000e+00  -1.0724172212856972e-14 -9.8016037542510593e-15 0.0000000000000000e+00  -3.9367991245427405e-15 -1.5343528477091848e-14 0.0000000000000000e+00  -4.6742966986205095e-16 -5.3394977863594774e-16 0.0000000000000000e+00  2.9647103110009489e-15 1.0839042327585093e-14 0.0000000000000000e+00  2.4833504195456129e-15 -2.1919228169781758e-15 0.0000000000000000e+00  4.8181452056325131e-15 -7.1718933688189972e-15 0.0000000000000000e+00  7.2459968381661433e-15 -1.8363727109230362e-14 0.0000000000000000e+00  -6.8521261787688077e-15 -6.9769498627380785e-15 0.0000000000000000e+00  -2.3170290859866704e-15 1.3540704270840085e-15 0.0000000000000000e+00  2.3913016510429508e-15 4.0685384558166934e-15 0.0000000000000000e+00  -7.9367159037280526e-15 -7.8170619865910959e-15 0.0000000000000000e+00  -4.6422109555580780e-15 -1.7555464198874774e-14 0.0000000000000000e+00  -3.7456440394226579e-15 9.2639710046531390e-16 0.0000000000000000e+00  7.2925954098806132e-16 3.8681802553690469e-15 0.0000000000000000e+00  4.3709693760175219e-15 -1.0354351373654978e-14 0.0000000000000000e+00  8.8629173760525202e-16 5.2012551035900063e-15 0.0000000000000000e+00  2.6325485872454172e-15 -3.7313651035117025e-15 0.0000000000000000e+00  6.8691613517367368e-15 2.6310853922689395e-14 0.0000000000000000e+00  -4.8445476310807969e-15 -6.1830461460345904e-15 0.0000000000000000e+00  -3.5202972664526006e-16 -1.4315393176420002e-15 0.0000000000000000e+00  -2.3807909921998373e-16 1.7147707127399619e-15 0.0000000000000000e+00  -1.0223892007938969e-14 -5.7108345714442668e-15 0.0000000000000000e+00  -3.1541840207249781e-15 -1.2626810679264171e-14 0.0000000000000000e+00  1.5852648121113641e-15 1.1519732515913264e-14 0.0000000000000000e+00  -1.8002940472127024e-15 2.6281093705691432e-15 0.0000000000000000e+00  3.3948782353537082e-15 2.2421075820969115e-15 0.0000000000000000e+00  1.9821079484842142e-15 1.5130216048100216e-14 0.0000000000000000e+00  9.5734743349639685e-15 -8.8347401205816497e-15 0.0000000000000000e+00  6.9083281969127979e-15 4.6345502813501299e-14 0.0000000000000000e+00  -1.2967236281984718e-14 1.7613264467634387e-14 0.0000000000000000e+00  1.0548042335926742e-15 -9.5417298103115344e-15 0.0000000000000000e+00  1.2572131438909436e-15 3.4287517172229859e-14 0.0000000000000000e+00  -1.2447209285862233e-14 8.0711019925279675e-16 0.0000000000000000e+00  5.0611096758429282e-16 3.3331406649507434e-14 0.0000000000000000e+00  -3.4994160021624018e-15 2.4256261628308949e-14 0.0000000000000000e+00  -1.3574914924745084e-15 3.2406964526212343e-15 0.0000000000000000e+00  7.2996563010624693e-15 -2.6359382819033434e-15 0.0000000000000000e+00  -7.5945679908020101e-16 7.4992874022251337e-15 0.0000000000000000e+00  8.8799113156581941e-15 -1.2154343842350423e-15 0.0000000000000000e+00  1.2710881362604290e-14 -6.4332756859867201e-15 0.0000000000000000e+00  -1.7512692435220005e-14 6.5944566125549675e-15 0.0000000000000000e+00  3.3208658115653172e-15 1.0972670850034042e-14 0.0000000000000000e+00  1.6439029870575183e-15 7.3557996948411859e-15 0.0000000000000000e+00  -2.6646438834456551e-14 -1.6337912158924101e-14 0.0000000000000000e+00  -1.7960332053501997e-15 -5.8921143438412629e-15 0.0000000000000000e+00  -1.1981940352181138e-15 1.6312981925606622e-14 0.0000000000000000e+00  -5.5274096748878670e-15 2.6914795627819600e-14 0.0000000000000000e+00  1.0337437326397988e-15 -2.2653893107131378e-14 0.0000000000000000e+00  3.9616206502127342e-15 -1.5934846290034209e-14 0.0000000000000000e+00  5.2293011385511952e-15 8.6406948020088244e-15 0.0000000000000000e+00  9.5136758318736973e-15 -3.6574651768928483e-14 0.0000000000000000e+00  -9.5183218048257802e-15 -1.5359804900133867e-14 0.0000000000000000e+00  1.3165041454203181e-15 2.9233165701737905e-14 0.0000000000000000e+00  -2.7920852334888897e-15 -1.4560842358724645e-14 0.0000000000000000e+00  -1.9868537986083531e-14 -1.4587969145823353e-14 0.0000000000000000e+00  2.5384572288803689e-15 8.5864859176056931e-15 0.0000000000000000e+00  2.2556398667887600e-15 3.5305277047693345e-14 0.0000000000000000e+00  -1.1491537416940565e-14 8.3664101739685282e-16 0.0000000000000000e+00  2.9488080599385580e-16 -1.1039335565804865e-14 0.0000000000000000e+00  6.6056273141382749e-15 1.2941221322839965e-15 0.0000000000000000e+00  5.0321007187933400e-15 2.1450404532231789e-14 0.0000000000000000e+00  7.8691419720839389e-15 6.2620571071585360e-15 0.0000000000000000e+00  -4.5925289450550158e-15 -1.4606252690609570e-15 0.0000000000000000e+00  9.4488379492194753e-16 2.5384480270287771e-14 0.0000000000000000e+00  -6.7710594717022318e-15 2.7576642551213916e-14 0.0000000000000000e+00  -3.1148309350784685e-14 -9.7831551198841261e-15 0.0000000000000000e+00  9.1869634770367283e-15 1.5989000207770065e-14 0.0000000000000000e+00  -4.9149521275058273e-16 1.0211446278933449e-14 0.0000000000000000e+00  -1.5872171963474575e-14 -3.9808522252643601e-14 0.0000000000000000e+00  2.3587403421104022e-15 6.6709992605647667e-15 0.0000000000000000e+00  6.9560721165343493e-15 -2.2946333575312065e-14 0.0000000000000000e+00  6.6783194127861551e-15 3.7267859254261295e-14 0.0000000000000000e+00  4.0889830625698476e-15 -4.3967592497116741e-14 0.0000000000000000e+00  -2.9957286331602526e-15 -6.6325790923384428e-14 0.0000000000000000e+00  6.2319305285191316e-15 3.9722413358742601e-14 0.0000000000000000e+00  -8.2469977067588345e-15 -9.8285607136156883e-15 0.0000000000000000e+00  -3.2105018752337146e-14 4.5021695779791888e-15 0.0000000000000000e+00  8.3123244418525130e-15 1.8238574060591599e-14 0.0000000000000000e+00  -1.1911342238732810e-14 1.2639603799846757e-14 0.0000000000000000e+00  -1.0924169007321561e-14 -7.4156556010821377e-14 0.0000000000000000e+00  4.2699151907025420e-15 -9.9087635190968575e-15 0.0000000000000000e+00  1.4270848531959482e-14 -4.2274553533201297e-15 0.0000000000000000e+00  1.5989342307194518e-15 2.5949727291649864e-14 0.0000000000000000e+00  -1.4172909678409304e-14 -4.8969545486512317e-14 0.0000000000000000e+00  1.3075510055571897e-14 -8.5355989931385599e-15 0.0000000000000000e+00  1.1591936197258697e-14 3.1699583784507401e-15 0.0000000000000000e+00  -1.3275031674317976e-14 7.4653090903954583e-15 0.0000000000000000e+00  -2.3237499500770638e-14 3.1455091017662406e-14 0.0000000000000000e+00  1.0971271937074261e-14 -1.5796705828040057e-14 0.0000000000000000e+00  -1.8439613654003453e-14 3.2449399491144583e-14 0.0000000000000000e+00  -1.6350224413751936e-14 -8.6788096516452660e-14 0.0000000000000000e+00  1.1634057899823451e-14 -2.7568883577322299e-14 0.0000000000000000e+00  1.4860142531461583e-14 2.4196613957948931e-14 0.0000000000000000e+00  -2.2643278164186396e-15 -2.1397739603391694e-14 0.0000000000000000e+00  -1.3643343482157398e-15 -2.9193445022705616e-15 0.0000000000000000e+00  7.8285089356182880e-15 3.0514915518783027e-14 0.0000000000000000e+00  8.3732012151479527e-15 -3.1263925529727606e-14 0.0000000000000000e+00  -5.8644751009228397e-15 4.2288135037580056e-14 0.0000000000000000e+00  -2.6549165509955415e-14 -1.6735638704133353e-15 0.0000000000000000e+00  1.8010467318217438e-14 2.7942012950116377e-14 0.0000000000000000e+00  -2.8817112329121529e-14 6.8556535969708176e-14 0.0000000000000000e+00  -2.4983002125512440e-14 -4.1944121860363042e-14 0.0000000000000000e+00  2.6909378744062028e-14 8.3753594604732919e-15 0.0000000000000000e+00  1.7476368855497108e-14 3.3987421297749597e-14 0.0000000000000000e+00  -6.2612429199962657e-15 -1.1642017601511369e-14 0.0000000000000000e+00  -7.0524183546199424e-15 -2.4954975715833616e-14 0.0000000000000000e+00  4.9470850492899429e-15 -7.2737869653875646e-14 0.0000000000000000e+00  1.7491364305541909e-14 -2.0193359181087897e-14 0.0000000000000000e+00  -3.7351443997728848e-15 3.8023980216370994e-15 0.0000000000000000e+00  -3.0775766582651473e-14 1.8051962504636741e-14 0.0000000000000000e+00  2.5612079005005924e-14 -3.8048252693130229e-15 0.0000000000000000e+00  -2.7619618661583281e-14 -9.4270750004096526e-15 0.0000000000000000e+00  -2.8203172370508582e-14 2.0669776090543436e-14 0.0000000000000000e+00  2.6938540099178166e-14 3.4990953062945499e-14 0.0000000000000000e+00  8.9475593814987678e-15 -3.2170669229389577e-14 0.0000000000000000e+00  -1.2368068863547671e-14 -5.4465587981680731e-14 0.0000000000000000e+00  -6.2784956990142108e-15 -5.3077170183900451e-14 0.0000000000000000e+00  1.3446151191898202e-14 -7.7937719352213300e-15 0.0000000000000000e+00  2.0070679460676736e-14 3.2839401731809231e-14 0.0000000000000000e+00  -3.3982827003011543e-15 7.4400241547193239e-15 0.0000000000000000e+00  -2.5184442987955222e-14 2.7344942704611810e-14 0.0000000000000000e+00  1.2180591511689479e-14 6.2998061599620948e-14 0.0000000000000000e+00  -2.8829161446978139e-14 -3.6611749038389722e-14 0.0000000000000000e+00  -1.5811826660413082e-14 3.4067329707123418e-14 0.0000000000000000e+00  2.0689315429710804e-14 4.1250300620549723e-14 0.0000000000000000e+00  -9.3136270154173094e-16 4.1499282777306675e-15 0.0000000000000000e+00  -1.2480463154252643e-14 -1.4466260122331508e-14 0.0000000000000000e+00  -8.0278132545182600e-15 -1.1610484055848078e-16 0.0000000000000000e+00  2.0015101335508634e-14 -3.9311224995295207e-14 0.0000000000000000e+00  2.1043391158397331e-14 -5.4993629913004896e-14 0.0000000000000000e+00  1.0985271842826348e-15 2.8241960551862417e-15 0.0000000000000000e+00  -2.3526429213714174e-14 -4.0909161730955980e-15 0.0000000000000000e+00  1.9220001612103521e-15 5.0901975512422487e-14 0.0000000000000000e+00  -3.5248274039880771e-14 -6.1076350363517270e-14 0.0000000000000000e+00  -1.2070621702000151e-14 3.0968550082630058e-14 0.0000000000000000e+00  1.7302126965884986e-14 -1.7544317990506607e-14 0.0000000000000000e+00  -3.8252016627854919e-15 -4.1395438734050622e-14 0.0000000000000000e+00  -6.1606229352998900e-15 -6.2235340234867988e-14 0.0000000000000000e+00  -4.6045552655041114e-15 7.1940893578204881e-14 0.0000000000000000e+00  5.7569895874118387e-15 2.7038611171462842e-14 0.0000000000000000e+00  2.4983919389242600e-14 -4.0894559971040205e-14 0.0000000000000000e+00  2.1706433063875132e-15 -5.4128446782364491e-15 0.0000000000000000e+00  -2.8786229290205525e-14 -4.6826218909238820e-14 0.0000000000000000e+00  -2.9580674285842964e-14 2.2222111937986717e-14 0.0000000000000000e+00  -3.2159467149992340e-14 -3.7774043993274863e-14 0.0000000000000000e+00  -2.0212377385583225e-15 4.0119233860999644e-14 0.0000000000000000e+00  6.9290654579221100e-15 5.6921658297485623e-14 0.0000000000000000e+00  -1.3014126919134206e-14 -1.7171591231192527e-14 0.0000000000000000e+00  1.5374237487301603e-15 -2.7604501974130863e-14 0.0000000000000000e+00  8.3765912339290161e-15 -1.0439429581885855e-14 0.0000000000000000e+00  -2.7197134966408626e-15 -3.6878645087095946e-16 0.0000000000000000e+00  1.9381922327720644e-14 -9.7407078395851283e-16 0.0000000000000000e+00  7.7788439074323973e-16 1.2002530774980292e-14 0.0000000000000000e+00  -3.6480922493074433e-14 -4.9768907466750425e-14 0.0000000000000000e+00  -3.4079923992117828e-14 -1.7750622034517718e-14 0.0000000000000000e+00  -2.8309793975186652e-14 1.4755195319902802e-14 0.0000000000000000e+00  9.3151424623993399e-16 -1.9012236255931447e-14 0.0000000000000000e+00  1.0307340989399866e-14 3.9906389040387095e-14 0.0000000000000000e+00  -1.6400679751845272e-14 -2.2572352186065379e-14 0.0000000000000000e+00  1.6811626411510129e-15 5.6078542395268725e-14 0.0000000000000000e+00  -3.6114358482754263e-15 4.7911907765192180e-14 0.0000000000000000e+00  7.8231692424189526e-15 6.3719021888782229e-14 0.0000000000000000e+00  2.3136039675772361e-14 3.0024754933709320e-14 0.0000000000000000e+00  -7.7683686833089117e-15 4.2675697459020881e-14 0.0000000000000000e+00  -5.6072834071331134e-14 -5.8864289105496318e-14 0.0000000000000000e+00  -1.9952625950101329e-14 -4.3135612429959253e-15 0.0000000000000000e+00  -3.1681317737289515e-14 4.1081328366725255e-14 0.0000000000000000e+00  -1.2221205741043926e-16 -2.8702653407035215e-14 0.0000000000000000e+00  4.8232261482517872e-15 -1.5992281321435758e-14 0.0000000000000000e+00  -1.6454368278298352e-14 -2.2049926623461016e-14 0.0000000000000000e+00  1.7212874109462980e-14 -8.3650557547592009e-14 0.0000000000000000e+00  1.3510198282254373e-14 7.7256239806850865e-14 0.0000000000000000e+00  -4.8632043946922967e-15 9.7449484863768419e-14 0.0000000000000000e+00  1.5268289446640176e-14 -4.8778809544605450e-14 0.0000000000000000e+00  -1.3305378235718586e-14 4.9807808597336491e-14 0.0000000000000000e+00  -7.7462466913569000e-14 -2.5391578223386747e-14 0.0000000000000000e+00  -1.4196594757120918e-14 5.4204056751359279e-15 0.0000000000000000e+00  -3.9006205268580056e-14 1.1564208420086787e-14 0.0000000000000000e+00  -1.9043205718600453e-15 -4.6905070222630062e-14 0.0000000000000000e+00  1.1801421893358229e-14 4.4175818260035568e-14 0.0000000000000000e+00  -2.4032047431423700e-14 1.1147810025818663e-14 0.0000000000000000e+00  1.8377732942749260e-14 2.3539777322953346e-14 0.0000000000000000e+00  3.0301917161309259e-14 3.4302526384357402e-14 0.0000000000000000e+00  -2.2689886061803712e-14 3.1003812246812283e-14 0.0000000000000000e+00  1.6596152841593078e-14 -2.5622100237623225e-15 0.0000000000000000e+00  -5.9044444847218012e-15 -4.2665075792076930e-15 0.0000000000000000e+00  -9.2399098965124290e-14 -4.0652527665429968e-14 0.0000000000000000e+00  -4.9766134192457973e-15 -3.8206431699116656e-15 0.0000000000000000e+00  -3.8612694018427772e-14 1.2668185812159941e-13 0.0000000000000000e+00  1.8468177903580698e-15 -1.1250630946912354e-14 0.0000000000000000e+00  8.8195929223620007e-15 8.4911877503696549e-15 0.0000000000000000e+00  -2.2954585047356141e-14 -2.7216805635148392e-15 0.0000000000000000e+00  2.1492616931480092e-14 2.2252934056052873e-14 0.0000000000000000e+00  2.0235168108397730e-14 2.1549877535681561e-14 0.0000000000000000e+00  -1.0867587822439880e-14 1.9737600543289780e-14 0.0000000000000000e+00  8.4471057988192788e-15 6.3945744117971679e-14 0.0000000000000000e+00  -1.8583639005497145e-14 -4.2416157735375431e-14 0.0000000000000000e+00  -8.2809960191836530e-14 -3.2742759926567207e-14 0.0000000000000000e+00  2.2769235458606069e-14 -4.6425247448095046e-14 0.0000000000000000e+00  -4.0812817940971611e-14 -1.3961736777082954e-14 0.0000000000000000e+00  -2.4338757499009759e-14 -3.4077737560520770e-14 0.0000000000000000e+00  2.0407516803623747e-14 -1.0965050948096171e-13 0.0000000000000000e+00  -1.1359616841725450e-14 1.0368939392400691e-13 0.0000000000000000e+00  2.2229331213808771e-14 7.4886027291831919e-15 0.0000000000000000e+00  2.3337184297285142e-14 8.9853381938486773e-14 0.0000000000000000e+00  -1.7754185098813743e-14 -3.5815854612575125e-14 0.0000000000000000e+00  9.9927142854812571e-15 2.6115178611618896e-14 0.0000000000000000e+00  -2.8140177057020223e-14 -3.2639648734769364e-14 0.0000000000000000e+00  -7.4282197464531550e-14 3.6922298143161693e-14 0.0000000000000000e+00  5.9983967932213107e-15 -4.5262395912823725e-14 0.0000000000000000e+00  -3.0380000044168921e-14 -5.2930449712090107e-14 0.0000000000000000e+00  -2.2490539973816802e-14 -4.6864952620791549e-15 0.0000000000000000e+00  2.9793946774638255e-14 2.7492294123524006e-15 0.0000000000000000e+00  -6.2285431966924232e-15 5.7966715811468772e-14 0.0000000000000000e+00  1.552158270487