<?xml version="1.0"?>
<VTKFile type="UnstructuredGrid"  version="0.1"  >
<UnstructuredGrid>
<Piece  NumberOfPoints="1091" NumberOfCells="2050">
<Points>
<DataArray  type="Float64"  NumberOfComponents="3"  format="ascii">-0.5 -1 0  -0.4 -1 0  -0.3 -1 0  -0.2 -1 0  -0.09999999999999998 -1 0  0 -1 0  0.09999999999999998 -1 0  0.2 -1 0  0.3 -1 0  0.4 -1 0  0.5 -1 0  -0.5 -0.98 0  -0.4 -0.98 0  -0.3 -0.98 0  -0.2 -0.98 0  -0.09999999999999998 -0.98 0  0 -0.98 0  0.09999999999999998 -0.98 0  0.2 -0.98 0  0.3 -0.98 0  0.4 -0.98 0  0.5 -0.98 0  -0.5 -0.96 0  -0.4 -0.96 0  -0.3 -0.96 0  -0.2 -0.96 0  -0.09999999999999998 -0.96 0  0 -0.96 0  0.09999999999999998 -0.96 0  0.2 -0.96 0  0.3 -0.96 0  0.4 -0.96 0  0.5 -0.96 0  -0.5 -0.9399999999999999 0  -0.4 -0.9399999999999999 0  -0.3 -0.9399999999999999 0  -0.2 -0.9399999999999999 0  -0.09999999999999998 -0.9399999999999999 0  0 -0.9399999999999999 0  0.09999999999999998 -0.9399999999999999 0  0.2 -0.9399999999999999 0  0.3 -0.9399999999999999 0  0.4 -0.9399999999999999 0  0.5 -0.9399999999999999 0  -0.5 -0.92 0  -0.4 -0.92 0  -0.3 -0.92 0  -0.2 -0.92 0  -0.09999999999999998 -0.92 0  0 -0.92 0  0.09999999999999998 -0.92 0  0.2 -0.92 0  0.3 -0.92 0  0.4 -0.92 0  0.5 -0.92 0  -0.5 -0.9 0  -0.4 -0.9 0  -0.3 -0.9 0  -0.2 -0.9 0  -0.09999999999999998 -0.9 0  0 -0.9 0  0.09999999999999998 -0.9 0  0.2 -0.9 0  0.3 -0.9 0  0.4 -0.9 0  0.5 -0.9 0  -0.5 -0.88 0  -0.4 -0.88 0  -0.3 -0.88 0  -0.2 -0.88 0  -0.09999999999999998 -0.88 0  0 -0.88 0  0.09999999999999998 -0.88 0  0.2 -0.88 0  0.3 -0.88 0  0.4 -0.88 0  0.5 -0.88 0  -0.5 -0.86 0  -0.4 -0.86 0  -0.3 -0.86 0  -0.2 -0.86 0  -0.09999999999999998 -0.86 0  0 -0.86 0  0.09999999999999998 -0.86 0  0.2 -0.86 0  0.3 -0.86 0  0.4 -0.86 0  0.5 -0.86 0  -0.5 -0.84 0  -0.4 -0.84 0  -0.3 -0.84 0  -0.2 -0.84 0  -0.09999999999999998 -0.84 0  0 -0.84 0  0.09999999999999998 -0.84 0  0.2 -0.84 0  0.3 -0.84 0  0.4 -0.84 0  0.5 -0.84 0  -0.5 -0.8200000000000001 0  -0.4 -0.8200000000000001 0  -0.3 -0.8200000000000001 0  -0.2 -0.8200000000000001 0  -0.09999999999999998 -0.8200000000000001 0  0 -0.8200000000000001 0  0.09999999999999998 -0.8200000000000001 0  0.2 -0.8200000000000001 0  0.3 -0.8200000000000001 0  0.4 -0.8200000000000001 0  0.5 -0.8200000000000001 0  -0.5 -0.8 0  -0.4 -0.8 0  -0.3 -0.8 0  -0.2 -0.8 0  -0.09999999999999998 -0.8 0  0 -0.8 0  0.09999999999999998 -0.8 0  0.2 -0.8 0  0.3 -0.8 0  0.4 -0.8 0  0.5 -0.8 0  -0.5 -0.78 0  -0.4 -0.78 0  -0.3 -0.78 0  -0.2 -0.78 0  -0.09999999999999998 -0.78 0  0 -0.78 0  0.09999999999999998 -0.78 0  0.2 -0.78 0  0.3 -0.78 0  0.4 -0.78 0  0.5 -0.78 0  -0.5 -0.76 0  -0.4 -0.76 0  -0.3 -0.76 0  -0.2 -0.76 0  -0.09999999999999998 -0.76 0  0 -0.76 0  0.09999999999999998 -0.76 0  0.2 -0.76 0  0.3 -0.76 0  0.4 -0.76 0  0.5 -0.76 0  -0.5 -0.74 0  -0.4 -0.74 0  -0.3 -0.74 0  -0.2 -0.74 0  -0.09999999999999998 -0.74 0  0 -0.74 0  0.09999999999999998 -0.74 0  0.2 -0.74 0  0.3 -0.74 0  0.4 -0.74 0  0.5 -0.74 0  -0.5 -0.72 0  -0.4 -0.72 0  -0.3 -0.72 0  -0.2 -0.72 0  -0.09999999999999998 -0.72 0  0 -0.72 0  0.09999999999999998 -0.72 0  0.2 -0.72 0  0.3 -0.72 0  0.4 -0.72 0  0.5 -0.72 0  -0.5 -0.7 0  -0.4 -0.7 0  -0.3 -0.7 0  -0.2 -0.7 0  -0.09999999999999998 -0.7 0  0 -0.7 0  0.09999999999999998 -0.7 0  0.2 -0.7 0  0.3 -0.7 0  0.4 -0.7 0  0.5 -0.7 0  -0.5 -0.6799999999999999 0  -0.4 -0.6799999999999999 0  -0.3 -0.6799999999999999 0  -0.2 -0.6799999999999999 0  -0.09999999999999998 -0.6799999999999999 0  0 -0.6799999999999999 0  0.09999999999999998 -0.6799999999999999 0  0.2 -0.6799999999999999 0  0.3 -0.6799999999999999 0  0.4 -0.6799999999999999 0  0.5 -0.6799999999999999 0  -0.5 -0.6599999999999999 0  -0.4 -0.6599999999999999 0  -0.3 -0.6599999999999999 0  -0.2 -0.6599999999999999 0  -0.09999999999999998 -0.6599999999999999 0  0 -0.6599999999999999 0  0.09999999999999998 -0.6599999999999999 0  0.2 -0.6599999999999999 0  0.3 -0.6599999999999999 0  0.4 -0.6599999999999999 0  0.5 -0.6599999999999999 0  -0.5 -0.64 0  -0.4 -0.64 0  -0.3 -0.64 0  -0.2 -0.64 0  -0.09999999999999998 -0.64 0  0 -0.64 0  0.09999999999999998 -0.64 0  0.2 -0.64 0  0.3 -0.64 0  0.4 -0.64 0  0.5 -0.64 0  -0.5 -0.62 0  -0.4 -0.62 0  -0.3 -0.62 0  -0.2 -0.62 0  -0.09999999999999998 -0.62 0  0 -0.62 0  0.09999999999999998 -0.62 0  0.2 -0.62 0  0.3 -0.62 0  0.4 -0.62 0  0.5 -0.62 0  -0.5 -0.6 0  -0.4 -0.6 0  -0.3 -0.6 0  -0.2 -0.6 0  -0.09999999999999998 -0.6 0  0 -0.6 0  0.09999999999999998 -0.6 0  0.2 -0.6 0  0.3 -0.6 0  0.4 -0.6 0  0.5 -0.6 0  -0.5 -0.5800000000000001 0  -0.4 -0.5800000000000001 0  -0.3 -0.5800000000000001 0  -0.2 -0.5800000000000001 0  -0.09999999999999998 -0.5800000000000001 0  0 -0.5800000000000001 0  0.09999999999999998 -0.5800000000000001 0  0.2 -0.5800000000000001 0  0.3 -0.5800000000000001 0  0.4 -0.5800000000000001 0  0.5 -0.5800000000000001 0  -0.5 -0.5600000000000001 0  -0.4 -0.5600000000000001 0  -0.3 -0.5600000000000001 0  -0.2 -0.5600000000000001 0  -0.09999999999999998 -0.5600000000000001 0  0 -0.5600000000000001 0  0.09999999999999998 -0.5600000000000001 0  0.2 -0.5600000000000001 0  0.3 -0.5600000000000001 0  0.4 -0.5600000000000001 0  0.5 -0.5600000000000001 0  -0.5 -0.54 0  -0.4 -0.54 0  -0.3 -0.54 0  -0.2 -0.54 0  -0.09999999999999998 -0.54 0  0 -0.54 0  0.09999999999999998 -0.54 0  0.2 -0.54 0  0.3 -0.54 0  0.4 -0.54 0  0.5 -0.54 0  -0.5 -0.52 0  -0.4 -0.52 0  -0.3 -0.52 0  -0.2 -0.52 0  -0.09999999999999998 -0.52 0  0 -0.52 0  0.09999999999999998 -0.52 0  0.2 -0.52 0  0.3 -0.52 0  0.4 -0.52 0  0.5 -0.52 0  -0.5 -0.5 0  -0.4 -0.5 0  -0.3 -0.5 0  -0.2 -0.5 0  -0.09999999999999998 -0.5 0  0 -0.5 0  0.09999999999999998 -0.5 0  0.2 -0.5 0  0.3 -0.5 0  0.4 -0.5 0  0.5 -0.5 0  -0.5 -0.48 0  -0.4 -0.48 0  -0.3 -0.48 0  -0.2 -0.48 0  -0.09999999999999998 -0.48 0  0 -0.48 0  0.09999999999999998 -0.48 0  0.2 -0.48 0  0.3 -0.48 0  0.4 -0.48 0  0.5 -0.48 0  -0.5 -0.46 0  -0.4 -0.46 0  -0.3 -0.46 0  -0.2 -0.46 0  -0.09999999999999998 -0.46 0  0 -0.46 0  0.09999999999999998 -0.46 0  0.2 -0.46 0  0.3 -0.46 0  0.4 -0.46 0  0.5 -0.46 0  -0.5 -0.4399999999999999 0  -0.4 -0.4399999999999999 0  -0.3 -0.4399999999999999 0  -0.2 -0.4399999999999999 0  -0.09999999999999998 -0.4399999999999999 0  0 -0.4399999999999999 0  0.09999999999999998 -0.4399999999999999 0  0.2 -0.4399999999999999 0  0.3 -0.4399999999999999 0  0.4 -0.4399999999999999 0  0.5 -0.4399999999999999 0  -0.5 -0.42 0  -0.4 -0.42 0  -0.3 -0.42 0  -0.2 -0.42 0  -0.09999999999999998 -0.42 0  0 -0.42 0  0.09999999999999998 -0.42 0  0.2 -0.42 0  0.3 -0.42 0  0.4 -0.42 0  0.5 -0.42 0  -0.5 -0.4 0  -0.4 -0.4 0  -0.3 -0.4 0  -0.2 -0.4 0  -0.09999999999999998 -0.4 0  0 -0.4 0  0.09999999999999998 -0.4 0  0.2 -0.4 0  0.3 -0.4 0  0.4 -0.4 0  0.5 -0.4 0  -0.5 -0.38 0  -0.4 -0.38 0  -0.3 -0.38 0  -0.2 -0.38 0  -0.09999999999999998 -0.38 0  0 -0.38 0  0.09999999999999998 -0.38 0  0.2 -0.38 0  0.3 -0.38 0  0.4 -0.38 0  0.5 -0.38 0  -0.5 -0.36 0  -0.4 -0.36 0  -0.3 -0.36 0  -0.2 -0.36 0  -0.09999999999999998 -0.36 0  0 -0.36 0  0.09999999999999998 -0.36 0  0.2 -0.36 0  0.3 -0.36 0  0.4 -0.36 0  0.5 -0.36 0  -0.5 -0.34 0  -0.4 -0.34 0  -0.3 -0.34 0  -0.2 -0.34 0  -0.09999999999999998 -0.34 0  0 -0.34 0  0.09999999999999998 -0.34 0  0.2 -0.34 0  0.3 -0.34 0  0.4 -0.34 0  0.5 -0.34 0  -0.5 -0.32 0  -0.4 -0.32 0  -0.3 -0.32 0  -0.2 -0.32 0  -0.09999999999999998 -0.32 0  0 -0.32 0  0.09999999999999998 -0.32 0  0.2 -0.32 0  0.3 -0.32 0  0.4 -0.32 0  0.5 -0.32 0  -0.5 -0.3 0  -0.4 -0.3 0  -0.3 -0.3 0  -0.2 -0.3 0  -0.09999999999999998 -0.3 0  0 -0.3 0  0.09999999999999998 -0.3 0  0.2 -0.3 0  0.3 -0.3 0  0.4 -0.3 0  0.5 -0.3 0  -0.5 -0.28 0  -0.4 -0.28 0  -0.3 -0.28 0  -0.2 -0.28 0  -0.09999999999999998 -0.28 0  0 -0.28 0  0.09999999999999998 -0.28 0  0.2 -0.28 0  0.3 -0.28 0  0.4 -0.28 0  0.5 -0.28 0  -0.5 -0.26 0  -0.4 -0.26 0  -0.3 -0.26 0  -0.2 -0.26 0  -0.09999999999999998 -0.26 0  0 -0.26 0  0.09999999999999998 -0.26 0  0.2 -0.26 0  0.3 -0.26 0  0.4 -0.26 0  0.5 -0.26 0  -0.5 -0.24 0  -0.4 -0.24 0  -0.3 -0.24 0  -0.2 -0.24 0  -0.09999999999999998 -0.24 0  0 -0.24 0  0.09999999999999998 -0.24 0  0.2 -0.24 0  0.3 -0.24 0  0.4 -0.24 0  0.5 -0.24 0  -0.5 -0.22 0  -0.4 -0.22 0  -0.3 -0.22 0  -0.2 -0.22 0  -0.09999999999999998 -0.22 0  0 -0.22 0  0.09999999999999998 -0.22 0  0.2 -0.22 0  0.3 -0.22 0  0.4 -0.22 0  0.5 -0.22 0  -0.5 -0.2 0  -0.4 -0.2 0  -0.3 -0.2 0  -0.2 -0.2 0  -0.09999999999999998 -0.2 0  0 -0.2 0  0.09999999999999998 -0.2 0  0.2 -0.2 0  0.3 -0.2 0  0.4 -0.2 0  0.5 -0.2 0  -0.5 -0.18 0  -0.4 -0.18 0  -0.3 -0.18 0  -0.2 -0.18 0  -0.09999999999999998 -0.18 0  0 -0.18 0  0.09999999999999998 -0.18 0  0.2 -0.18 0  0.3 -0.18 0  0.4 -0.18 0  0.5 -0.18 0  -0.5 -0.16 0  -0.4 -0.16 0  -0.3 -0.16 0  -0.2 -0.16 0  -0.09999999999999998 -0.16 0  0 -0.16 0  0.09999999999999998 -0.16 0  0.2 -0.16 0  0.3 -0.16 0  0.4 -0.16 0  0.5 -0.16 0  -0.5 -0.14 0  -0.4 -0.14 0  -0.3 -0.14 0  -0.2 -0.14 0  -0.09999999999999998 -0.14 0  0 -0.14 0  0.09999999999999998 -0.14 0  0.2 -0.14 0  0.3 -0.14 0  0.4 -0.14 0  0.5 -0.14 0  -0.5 -0.12 0  -0.4 -0.12 0  -0.3 -0.12 0  -0.2 -0.12 0  -0.09999999999999998 -0.12 0  0 -0.12 0  0.09999999999999998 -0.12 0  0.2 -0.12 0  0.3 -0.12 0  0.4 -0.12 0  0.5 -0.12 0  -0.5 -0.09999999999999998 0  -0.4 -0.09999999999999998 0  -0.3 -0.09999999999999998 0  -0.2 -0.09999999999999998 0  -0.09999999999999998 -0.09999999999999998 0  0 -0.09999999999999998 0  0.09999999999999998 -0.09999999999999998 0  0.2 -0.09999999999999998 0  0.3 -0.09999999999999998 0  0.4 -0.09999999999999998 0  0.5 -0.09999999999999998 0  -0.5 -0.07999999999999996 0  -0.4 -0.07999999999999996 0  -0.3 -0.07999999999999996 0  -0.2 -0.07999999999999996 0  -0.09999999999999998 -0.07999999999999996 0  0 -0.07999999999999996 0  0.09999999999999998 -0.07999999999999996 0  0.2 -0.07999999999999996 0  0.3 -0.07999999999999996 0  0.4 -0.07999999999999996 0  0.5 -0.07999999999999996 0  -0.5 -0.06000000000000005 0  -0.4 -0.06000000000000005 0  -0.3 -0.06000000000000005 0  -0.2 -0.06000000000000005 0  -0.09999999
[...]
<PointData  Vectors="flow"> 
<DataArray  type="Float64"  Name="flow"  NumberOfComponents="3" format="ascii">-9.4552810482916440e-04 2.6477125670215282e-03 0.0000000000000000e+00  2.8556266905130302e-08 2.6477125670497769e-03 0.0000000000000000e+00  -7.1924255432905694e-13 2.6477125670201743e-03 0.0000000000000000e+00  7.6827288944857450e-15 2.6477125670339714e-03 0.0000000000000000e+00  1.2889875727940247e-14 2.6477125670304946e-03 0.0000000000000000e+00  1.6004847219954883e-16 2.6477125670109907e-03 0.0000000000000000e+00  -3.9267555006563655e-14 2.6477125670336939e-03 0.0000000000000000e+00  -4.5931546170274401e-14 2.6477125670247913e-03 0.0000000000000000e+00  6.6501719167208900e-13 2.6477125670322961e-03 0.0000000000000000e+00  -2.8556306780697915e-08 2.6477125669888478e-03 0.0000000000000000e+00  9.4552810479469848e-04 2.6477125670320784e-03 0.0000000000000000e+00  -9.4507122721430956e-04 1.4748855720397162e-02 0.0000000000000000e+00  2.8544860129674934e-08 1.4748855720386781e-02 0.0000000000000000e+00  -7.1777030414980807e-13 1.4748855720383850e-02 0.0000000000000000e+00  8.9075128371194741e-15 1.4748855720372324e-02 0.0000000000000000e+00  1.1153308519489863e-14 1.4748855720380963e-02 0.0000000000000000e+00  2.9258780730424619e-15 1.4748855720383522e-02 0.0000000000000000e+00  -4.0687937251725212e-14 1.4748855720369942e-02 0.0000000000000000e+00  -4.7874345485013100e-14 1.4748855720376536e-02 0.0000000000000000e+00  6.6835408132284754e-13 1.4748855720383879e-02 0.0000000000000000e+00  -2.8544907809955568e-08 1.4748855720379072e-02 0.0000000000000000e+00  9.4507122719086521e-04 1.4748855720367146e-02 0.0000000000000000e+00  -9.4370095932426413e-04 2.9483457963737920e-02 0.0000000000000000e+00  2.8510637631730274e-08 2.9483457963704465e-02 0.0000000000000000e+00  -7.2186222460379724e-13 2.9483457963733223e-02 0.0000000000000000e+00  9.2175589681690917e-15 2.9483457963709658e-02 0.0000000000000000e+00  1.3162894423123468e-14 2.9483457963748662e-02 0.0000000000000000e+00  -2.9067690771998992e-16 2.9483457963735641e-02 0.0000000000000000e+00  -4.1068840286274255e-14 2.9483457963720983e-02 0.0000000000000000e+00  -4.6128681270350072e-14 2.9483457963725708e-02 0.0000000000000000e+00  6.7059044712958496e-13 2.9483457963733251e-02 0.0000000000000000e+00  -2.8510687244276168e-08 2.9483457963710980e-02 0.0000000000000000e+00  9.4370095929339657e-04 2.9483457963724292e-02 0.0000000000000000e+00  -9.4141839635603227e-04 4.4189564640206055e-02 0.0000000000000000e+00  2.8453554622406865e-08 4.4189564640147921e-02 0.0000000000000000e+00  -7.2151985862967115e-13 4.4189564640116946e-02 0.0000000000000000e+00  9.9628277833194871e-15 4.4189564640145611e-02 0.0000000000000000e+00  1.5918250080747941e-14 4.4189564640149760e-02 0.0000000000000000e+00  -1.2932280691538994e-15 4.4189564640152758e-02 0.0000000000000000e+00  -4.3310475592125758e-14 4.4189564640148539e-02 0.0000000000000000e+00  -4.6249582802936795e-14 4.4189564640132850e-02 0.0000000000000000e+00  6.7062695801586935e-13 4.4189564640130914e-02 0.0000000000000000e+00  -2.8453607672618370e-08 4.4189564640134932e-02 0.0000000000000000e+00  9.4141839631507165e-04 4.4189564640130657e-02 0.0000000000000000e+00  -9.3822536496843514e-04 5.8852956446574123e-02 0.0000000000000000e+00  2.8373544645605243e-08 5.8852956446581839e-02 0.0000000000000000e+00  -7.2336967014083916e-13 5.8852956446561445e-02 0.0000000000000000e+00  1.3419536629245732e-14 5.8852956446573741e-02 0.0000000000000000e+00  1.6943785972750688e-14 5.8852956446548838e-02 0.0000000000000000e+00  -1.6500690478220779e-15 5.8852956446603280e-02 0.0000000000000000e+00  -4.4521902355981966e-14 5.8852956446573804e-02 0.0000000000000000e+00  -4.8858258061444790e-14 5.8852956446558267e-02 0.0000000000000000e+00  6.7546762630175942e-13 5.8852956446553646e-02 0.0000000000000000e+00  -2.8373610173924886e-08 5.8852956446550746e-02 0.0000000000000000e+00  9.3822536491489799e-04 5.8852956446538755e-02 0.0000000000000000e+00  -9.3412442529428106e-04 7.3459448291287838e-02 0.0000000000000000e+00  2.8270550631631586e-08 7.3459448291291751e-02 0.0000000000000000e+00  -7.3172568265700876e-13 7.3459448291290502e-02 0.0000000000000000e+00  8.8423191105353658e-15 7.3459448291293056e-02 0.0000000000000000e+00  2.3412567668245906e-14 7.3459448291308960e-02 0.0000000000000000e+00  2.1836645642331357e-15 7.3459448291312623e-02 0.0000000000000000e+00  -5.2472249045050908e-14 7.3459448291281856e-02 0.0000000000000000e+00  -5.1812432253270931e-14 7.3459448291280871e-02 0.0000000000000000e+00  6.7367498969474942e-13 7.3459448291249743e-02 0.0000000000000000e+00  -2.8270606096019058e-08 7.3459448291236629e-02 0.0000000000000000e+00  9.3412442525033391e-04 7.3459448291300369e-02 0.0000000000000000e+00  -9.2911887362114498e-04 8.7994900755320363e-02 0.0000000000000000e+00  2.8144430461029222e-08 8.7994900755275246e-02 0.0000000000000000e+00  -7.3172390973625545e-13 8.7994900755271777e-02 0.0000000000000000e+00  1.6948203407538208e-14 8.7994900755312452e-02 0.0000000000000000e+00  2.0433847004785703e-14 8.7994900755313674e-02 0.0000000000000000e+00  -5.8071610473992874e-15 8.7994900755280547e-02 0.0000000000000000e+00  -4.9752319675404918e-14 8.7994900755289873e-02 0.0000000000000000e+00  -5.4298270645396000e-14 8.7994900755288305e-02 0.0000000000000000e+00  6.7493665761899274e-13 8.7994900755266253e-02 0.0000000000000000e+00  -2.8144487965372916e-08 8.7994900755272526e-02 0.0000000000000000e+00  9.2911887357838415e-04 8.7994900755266628e-02 0.0000000000000000e+00  -9.2321274582365270e-04 1.0244523160144026e-01 0.0000000000000000e+00  2.7995079172193883e-08 1.0244523160141666e-01 0.0000000000000000e+00  -7.3160246013435073e-13 1.0244523160146281e-01 0.0000000000000000e+00  1.7516253679152243e-14 1.0244523160139915e-01 0.0000000000000000e+00  1.7667725173787864e-14 1.0244523160145980e-01 0.0000000000000000e+00  -6.3914022279125077e-15 1.0244523160141937e-01 0.0000000000000000e+00  -4.9496830151952489e-14 1.0244523160147220e-01 0.0000000000000000e+00  -5.7902201840479002e-14 1.0244523160139812e-01 0.0000000000000000e+00  6.7718346402244745e-13 1.0244523160139361e-01 0.0000000000000000e+00  -2.7995141086291371e-08 1.0244523160137486e-01 0.0000000000000000e+00  9.2321274577192108e-04 1.0244523160136643e-01 0.0000000000000000e+00  -9.1641082137942844e-04 1.1679642734198248e-01 0.0000000000000000e+00  2.7822352454235727e-08 1.1679642734199562e-01 0.0000000000000000e+00  -7.4424002069322253e-13 1.1679642734201809e-01 0.0000000000000000e+00  1.4855073026414215e-14 1.1679642734193693e-01 0.0000000000000000e+00  2.2902320595848623e-14 1.1679642734198237e-01 0.0000000000000000e+00  -1.7906886533219333e-15 1.1679642734194352e-01 0.0000000000000000e+00  -5.2654020990070031e-14 1.1679642734200964e-01 0.0000000000000000e+00  -7.1001572779978869e-14 1.1679642734194619e-01 0.0000000000000000e+00  6.8242338295453598e-13 1.1679642734192362e-01 0.0000000000000000e+00  -2.7822411784955115e-08 1.1679642734194680e-01 0.0000000000000000e+00  9.1641082131517309e-04 1.1679642734191124e-01 0.0000000000000000e+00  -9.0871862796717260e-04 1.3103455487374330e-01 0.0000000000000000e+00  2.7626083364763799e-08 1.3103455487377741e-01 0.0000000000000000e+00  -7.5666816590255130e-13 1.3103455487372404e-01 0.0000000000000000e+00  1.3083772886428575e-14 1.3103455487374396e-01 0.0000000000000000e+00  2.1264363532219104e-14 1.3103455487371610e-01 0.0000000000000000e+00  -8.9628383675018864e-16 1.3103455487374574e-01 0.0000000000000000e+00  -4.9904679061612811e-14 1.3103455487366192e-01 0.0000000000000000e+00  -7.5199673255369863e-14 1.3103455487376911e-01 0.0000000000000000e+00  6.8713515761862310e-13 1.3103455487371660e-01 0.0000000000000000e+00  -2.7626144713013378e-08 1.3103455487369398e-01 0.0000000000000000e+00  9.0871862790874766e-04 1.3103455487366292e-01 0.0000000000000000e+00  -9.0014244662098362e-04 1.4514577318868446e-01 0.0000000000000000e+00  2.7406103301422869e-08 1.4514577318868713e-01 0.0000000000000000e+00  -7.5408727373981983e-13 1.4514577318873431e-01 0.0000000000000000e+00  1.3345076247906580e-14 1.4514577318879371e-01 0.0000000000000000e+00  1.8573603004284892e-14 1.4514577318871746e-01 0.0000000000000000e+00  -1.1892116128997985e-14 1.4514577318875585e-01 0.0000000000000000e+00  -4.7925713189421356e-14 1.4514577318865271e-01 0.0000000000000000e+00  -6.2684062802221626e-14 1.4514577318878066e-01 0.0000000000000000e+00  6.7680750565888403e-13 1.4514577318869790e-01 0.0000000000000000e+00  -2.7406169691915868e-08 1.4514577318862854e-01 0.0000000000000000e+00  9.0014244656818417e-04 1.4514577318867464e-01 0.0000000000000000e+00  -8.9068931701273026e-04 1.5911634516678461e-01 0.0000000000000000e+00  2.7162241678975307e-08 1.5911634516681941e-01 0.0000000000000000e+00  -7.5473980313829483e-13 1.5911634516678963e-01 0.0000000000000000e+00  1.1065218810037202e-14 1.5911634516675197e-01 0.0000000000000000e+00  1.5397335691740957e-14 1.5911634516683895e-01 0.0000000000000000e+00  -1.3876551827886303e-14 1.5911634516677059e-01 0.0000000000000000e+00  -4.2350339585292199e-14 1.5911634516677786e-01 0.0000000000000000e+00  -6.2953697099963819e-14 1.5911634516678180e-01 0.0000000000000000e+00  6.6787978829199884e-13 1.5911634516676579e-01 0.0000000000000000e+00  -2.7162306620615945e-08 1.5911634516674869e-01 0.0000000000000000e+00  8.9068931696546154e-04 1.5911634516672382e-01 0.0000000000000000e+00  -8.8036704320627684e-04 1.7293264945547829e-01 0.0000000000000000e+00  2.6894305121411268e-08 1.7293264945554146e-01 0.0000000000000000e+00  -7.7531981247123635e-13 1.7293264945551023e-01 0.0000000000000000e+00  2.3463517320904473e-14 1.7293264945548872e-01 0.0000000000000000e+00  2.1791262607951126e-14 1.7293264945556472e-01 0.0000000000000000e+00  -2.4964047871293199e-14 1.7293264945549985e-01 0.0000000000000000e+00  -4.7327773288689456e-14 1.7293264945551212e-01 0.0000000000000000e+00  -6.5298539130893609e-14 1.7293264945539610e-01 0.0000000000000000e+00  6.8354361363775977e-13 1.7293264945550196e-01 0.0000000000000000e+00  -2.6894374214030276e-08 1.7293264945549749e-01 0.0000000000000000e+00  8.8036704316700107e-04 1.7293264945545153e-01 0.0000000000000000e+00  -8.6918419956436585e-04 1.8658119244010665e-01 0.0000000000000000e+00  2.6602121932365893e-08 1.8658119244010757e-01 0.0000000000000000e+00  -7.7940947571797269e-13 1.8658119244012014e-01 0.0000000000000000e+00  2.0916869224091812e-14 1.8658119244016580e-01 0.0000000000000000e+00  2.0064093170921214e-14 1.8658119244009841e-01 0.0000000000000000e+00  -2.8239840971011755e-14 1.8658119244009794e-01 0.0000000000000000e+00  -6.4182638199209583e-14 1.8658119244005700e-01 0.0000000000000000e+00  -6.2915300319395088e-14 1.8658119244001797e-01 0.0000000000000000e+00  6.9744924441248038e-13 1.8658119244007002e-01 0.0000000000000000e+00  -2.6602193262051722e-08 1.8658119244009699e-01 0.0000000000000000e+00  8.6918419952209660e-04 1.8658119244007970e-01 0.0000000000000000e+00  -8.5715013650645186e-04 2.0004862030485923e-01 0.0000000000000000e+00  2.6285496798552318e-08 2.0004862030481502e-01 0.0000000000000000e+00  -7.7087219693034778e-13 2.0004862030482640e-01 0.0000000000000000e+00  1.5138034053848503e-14 2.0004862030493786e-01 0.0000000000000000e+00  1.0393118760337081e-14 2.0004862030484216e-01 0.0000000000000000e+00  -3.0325463636496705e-14 2.0004862030481813e-01 0.0000000000000000e+00  -6.4896777981959804e-14 2.0004862030481144e-01 0.0000000000000000e+00  -6.3700796627959462e-14 2.0004862030480011e-01 0.0000000000000000e+00  7.1016892543802028e-13 2.0004862030474185e-01 0.0000000000000000e+00  -2.6285561021047720e-08 2.0004862030485168e-01 0.0000000000000000e+00  8.5715013644927526e-04 2.0004862030486734e-01 0.0000000000000000e+00  -8.4427498623919892e-04 2.1332173118523232e-01 0.0000000000000000e+00  2.5944269457651336e-08 2.1332173118520512e-01 0.0000000000000000e+00  -7.6659080005758672e-13 2.1332173118517309e-01 0.0000000000000000e+00  2.8900490424345871e-14 2.1332173118520437e-01 0.0000000000000000e+00  -4.0754645148570436e-15 2.1332173118534134e-01 0.0000000000000000e+00  -3.6511805215678166e-14 2.1332173118520495e-01 0.0000000000000000e+00  -6.6193511125105033e-14 2.1332173118521805e-01 0.0000000000000000e+00  -7.3635532291086000e-14 2.1332173118519318e-01 0.0000000000000000e+00  7.2011481315452665e-13 2.1332173118517328e-01 0.0000000000000000e+00  -2.5944322717717186e-08 2.1332173118522760e-01 0.0000000000000000e+00  8.4427498619508122e-04 2.1332173118524614e-01 0.0000000000000000e+00  -8.3056966832495958e-04 2.2638748740779979e-01 0.0000000000000000e+00  2.5578272622724359e-08 2.2638748740783765e-01 0.0000000000000000e+00  -7.7994266412295586e-13 2.2638748740781531e-01 0.0000000000000000e+00  4.3459048250197245e-14 2.2638748740773065e-01 0.0000000000000000e+00  4.7769781581012648e-15 2.2638748740778042e-01 0.0000000000000000e+00  -4.8520212707378848e-14 2.2638748740780143e-01 0.0000000000000000e+00  -6.8821213259546174e-14 2.2638748740778450e-01 0.0000000000000000e+00  -7.7734296631280257e-14 2.2638748740772002e-01 0.0000000000000000e+00  7.2512533156144450e-13 2.2638748740769482e-01 0.0000000000000000e+00  -2.5578331284611089e-08 2.2638748740773185e-01 0.0000000000000000e+00  8.3056966825959693e-04 2.2638748740773015e-01 0.0000000000000000e+00  -8.1604589459821381e-04 2.3923302781283595e-01 0.0000000000000000e+00  2.5187391213904090e-08 2.3923302781287792e-01 0.0000000000000000e+00  -7.9779240496320944e-13 2.3923302781288563e-01 0.0000000000000000e+00  2.6057250687979067e-14 2.3923302781278727e-01 0.0000000000000000e+00  1.3505324931753130e-14 2.3923302781280228e-01 0.0000000000000000e+00  -3.7232773760854628e-14 2.3923302781289252e-01 0.0000000000000000e+00  -8.4711744663179940e-14 2.3923302781285352e-01 0.0000000000000000e+00  -8.5551339413124605e-14 2.3923302781271436e-01 0.0000000000000000e+00  7.3125438366480753e-13 2.3923302781280589e-01 0.0000000000000000e+00  -2.5187432848872790e-08 2.3923302781277436e-01 0.0000000000000000e+00  8.1604589457098928e-04 2.3923302781282452e-01 0.0000000000000000e+00  -8.0071617401184262e-04 2.5184568015252196e-01 0.0000000000000000e+00  2.4771466828144020e-08 2.5184568015239012e-01 0.0000000000000000e+00  -8.0543847909843111e-13 2.5184568015245251e-01 0.0000000000000000e+00  2.6481537838085478e-14 2.5184568015237047e-01 0.0000000000000000e+00  2.4549840381363199e-14 2.5184568015243897e-01 0.0000000000000000e+00  -3.8275874344410405e-14 2.5184568015241227e-01 0.0000000000000000e+00  -1.0386780636335433e-13 2.5184568015239400e-01 0.0000000000000000e+00  -8.6834609477686559e-14 2.5184568015236941e-01 0.0000000000000000e+00  7.3881807035498613e-13 2.5184568015237496e-01 0.0000000000000000e+00  -2.4771517714141776e-08 2.5184568015236308e-01 0.0000000000000000e+00  8.0071617397643160e-04 2.5184568015237241e-01 0.0000000000000000e+00  -7.8459381611010884e-04 2.6421297355421608e-01 0.0000000000000000e+00  2.4330424834264415e-08 2.6421297355424084e-01 0.0000000000000000e+00  -8.0446490931084755e-13 2.6421297355420942e-01 0.0000000000000000e+00  2.1537019192229202e-14 2.6421297355417672e-01 0.0000000000000000e+00  1.9808282159550210e-14 2.6421297355419376e-01 0.0000000000000000e+00  -4.3145409071513060e-14 2.6421297355424617e-01 0.0000000000000000e+00  -9.4555900671718882e-14 2.6421297355423828e-01 0.0000000000000000e+00  -9.0182121374129051e-14 2.6421297355424728e-01 0.0000000000000000e+00  7.4220590879593307e-13 2.6421297355416340e-01 0.0000000000000000e+00  -2.4330470226863340e-08 2.6421297355430645e-01 0.0000000000000000e+00  7.8459381604779270e-04 2.6421297355423917e-01 0.0000000000000000e+00  -7.6769293426808092e-04 2.7632265103928988e-01 0.0000000000000000e+00  2.3864193596801557e-08 2.7632265103935560e-01 0.0000000000000000e+00  -8.2436274571166064e-13 2.7632265103921422e-01 0.0000000000000000e+00  2.6901660975395616e-14 2.7632265103916892e-01 0.0000000000000000e+00  4.0668117700270989e-14 2.7632265103926512e-01 0.0000000000000000e+00  -3.7087959828323531e-14 2.7632265103938691e-01 0.0000000000000000e+00  -1.0449019811741453e-13 2.7632265103926051e-01 0.0000000000000000e+00  -1.0276928269862762e-13 2.7632265103931392e-01 0.0000000000000000e+00  7.5024098032416821e-13 2.7632265103924869e-01 0.0000000000000000e+00  -2.3864247232940374e-08 2.7632265103924936e-01 0.0000000000000000e+00  7.6769293420583004e-04 2.7632265103921272e-01 0.0000000000000000e+00  -7.5002844769954521e-04 2.8816268207906437e-01 0.0000000000000000e+00  2.3372756249441256e-08 2.8816268207908513e-01 0.0000000000000000e+00  -8.3714866221450057e-13 2.8816268207899964e-01 0.0000000000000000e+00  2.9987581011687650e-14 2.8816268207908363e-01 0.0000000000000000e+00  6.6876289806263221e-14 2.8816268207897933e-01 0.0000000000000000e+00  -3.6827632929460250e-14 2.8816268207923995e-01 0.0000000000000000e+00  -1.0489668006665600e-13 2.8816268207911444e-01 0.0000000000000000e+00  -9.6364517791644846e-14 2.8816268207920687e-01 0.0000000000000000e+00  7.3278932401441134e-13 2.8816268207917811e-01 0.0000000000000000e+00  -2.3372818804739376e-08 2.8816268207909973e-01 0.0000000000000000e+00  7.5002844766325339e-04 2.8816268207911455e-01 0.0000000000000000e+00  -7.3161608231584146e-04 2.9972127517618441e-01 0.0000000000000000e+00  2.2856108839633063e-08 2.9972127517619535e-01 0.0000000000000000e+00  -8.2574911617738629e-13 2.9972127517615599e-01 0.0000000000000000e+00  1.7910089107226347e-14 2.9972127517619385e-01 0.0000000000000000e+00  6.8078495517325892e-14 2.9972127517607933e-01 0.0000000000000000e+00  -1.4732873243154078e-14 2.9972127517622255e-01 0.0000000000000000e+00  -1.1246360613875853e-13 2.9972127517621383e-01 0.0000000000000000e+00  -8.6853761765699711e-14 2.9972127517621999e-01 0.0000000000000000e+00  7.2970279829179692e-13 2.9972127517620223e-01 0.0000000000000000e+00  -2.2856186505206858e-08 2.9972127517625813e-01 0.0000000000000000e+00  7.3161608226494316e-04 2.9972127517618014e-01 0.0000000000000000e+00  -7.1247237033267004e-04 3.1098689044893196e-01 0.0000000000000000e+00  2.2314329603696299e-08 3.1098689044892042e-01 0.0000000000000000e+00  -8.2944276647704746e-13 3.1098689044887790e-01 0.0000000000000000e+00  2.4266165868761802e-14 3.1098689044890576e-01 0.0000000000000000e+00  6.9924721220674242e-14 3.1098689044898586e-01 0.0000000000000000e+00  -1.0266238280566464e-14 3.1098689044882927e-01 0.0000000000000000e+00  -1.0794530221741673e-13 3.1098689044894312e-01 0.0000000000000000e+00  -9.7736548695815240e-14 3.1098689044893429e-01 0.0000000000000000e+00  7.3162292922296184e-13 3.1098689044889510e-01 0.0000000000000000e+00  -2.2314408763341961e-08 3.1098689044896671e-01 0.0000000000000000e+00  7.1247237025506989e-04 3.1098689044886169e-01 0.0000000000000000e+00  -6.9261464854763870e-04 3.2194825220023199e-01 0.0000000000000000e+00  2.1747497167555054e-08 3.2194825220021767e-01 0.0000000000000000e+00  -8.2704427210160318e-13 3.2194825220018575e-01 0.0000000000000000e+00  3.5245676812961455e-14 3.2194825220027462e-01 0.0000000000000000e+00  5.2609953175753039e-14 3.2194825220017864e-01 0.0000000000000000e+00  -1.2650651379219310e-14 3.2194825220020079e-01 0.0000000000000000e+00  -8.8943924101621401e-14 3.2194825220029583e-01 0.0000000000000000e+00  -1.0291950683642629e-13 3.2194825220024403e-01 0.0000000000000000e+00  7.2887013046032825e-13 3.2194825220018686e-01 0.0000000000000000e+00  -2.1747578347972618e-08 3.2194825220019718e-01 0.0000000000000000e+00  6.9261464846927950e-04 3.2194825220031104e-01 0.0000000000000000e+00  -6.7206105502932588e-04 3.3259436144647408e-01 0.0000000000000000e+00  2.1155782074666276e-08 3.3259436144642096e-01 0.0000000000000000e+00  -7.9931826177335311e-13 3.3259436144644211e-01 0.0000000000000000e+00  2.5531166812262411e-14 3.3259436144654142e-01 0.0000000000000000e+00  5.7581787449842989e-14 3.3259436144644522e-01 0.0000000000000000e+00  2.9293973408862496e-15 3.3259436144655141e-01 0.0000000000000000e+00  -9.9201086409851840e-14 3.3259436144654053e-01 0.0000000000000000e+00  -