<?xml version="1.0"?>
<VTKFile type="UnstructuredGrid"  version="0.1"  >
<UnstructuredGrid>
<Piece  NumberOfPoints="1091" NumberOfCells="2050">
<Points>
<DataArray  type="Float64"  NumberOfComponents="3"  format="ascii">-0.5 -1 0  -0.4 -1 0  -0.3 -1 0  -0.2 -1 0  -0.09999999999999998 -1 0  0 -1 0  0.09999999999999998 -1 0  0.2 -1 0  0.3 -1 0  0.4 -1 0  0.5 -1 0  -0.5 -0.98 0  -0.4 -0.98 0  -0.3 -0.98 0  -0.2 -0.98 0  -0.09999999999999998 -0.98 0  0 -0.98 0  0.09999999999999998 -0.98 0  0.2 -0.98 0  0.3 -0.98 0  0.4 -0.98 0  0.5 -0.98 0  -0.5 -0.96 0  -0.4 -0.96 0  -0.3 -0.96 0  -0.2 -0.96 0  -0.09999999999999998 -0.96 0  0 -0.96 0  0.09999999999999998 -0.96 0  0.2 -0.96 0  0.3 -0.96 0  0.4 -0.96 0  0.5 -0.96 0  -0.5 -0.9399999999999999 0  -0.4 -0.9399999999999999 0  -0.3 -0.9399999999999999 0  -0.2 -0.9399999999999999 0  -0.09999999999999998 -0.9399999999999999 0  0 -0.9399999999999999 0  0.09999999999999998 -0.9399999999999999 0  0.2 -0.9399999999999999 0  0.3 -0.9399999999999999 0  0.4 -0.9399999999999999 0  0.5 -0.9399999999999999 0  -0.5 -0.92 0  -0.4 -0.92 0  -0.3 -0.92 0  -0.2 -0.92 0  -0.09999999999999998 -0.92 0  0 -0.92 0  0.09999999999999998 -0.92 0  0.2 -0.92 0  0.3 -0.92 0  0.4 -0.92 0  0.5 -0.92 0  -0.5 -0.9 0  -0.4 -0.9 0  -0.3 -0.9 0  -0.2 -0.9 0  -0.09999999999999998 -0.9 0  0 -0.9 0  0.09999999999999998 -0.9 0  0.2 -0.9 0  0.3 -0.9 0  0.4 -0.9 0  0.5 -0.9 0  -0.5 -0.88 0  -0.4 -0.88 0  -0.3 -0.88 0  -0.2 -0.88 0  -0.09999999999999998 -0.88 0  0 -0.88 0  0.09999999999999998 -0.88 0  0.2 -0.88 0  0.3 -0.88 0  0.4 -0.88 0  0.5 -0.88 0  -0.5 -0.86 0  -0.4 -0.86 0  -0.3 -0.86 0  -0.2 -0.86 0  -0.09999999999999998 -0.86 0  0 -0.86 0  0.09999999999999998 -0.86 0  0.2 -0.86 0  0.3 -0.86 0  0.4 -0.86 0  0.5 -0.86 0  -0.5 -0.84 0  -0.4 -0.84 0  -0.3 -0.84 0  -0.2 -0.84 0  -0.09999999999999998 -0.84 0  0 -0.84 0  0.09999999999999998 -0.84 0  0.2 -0.84 0  0.3 -0.84 0  0.4 -0.84 0  0.5 -0.84 0  -0.5 -0.8200000000000001 0  -0.4 -0.8200000000000001 0  -0.3 -0.8200000000000001 0  -0.2 -0.8200000000000001 0  -0.09999999999999998 -0.8200000000000001 0  0 -0.8200000000000001 0  0.09999999999999998 -0.8200000000000001 0  0.2 -0.8200000000000001 0  0.3 -0.8200000000000001 0  0.4 -0.8200000000000001 0  0.5 -0.8200000000000001 0  -0.5 -0.8 0  -0.4 -0.8 0  -0.3 -0.8 0  -0.2 -0.8 0  -0.09999999999999998 -0.8 0  0 -0.8 0  0.09999999999999998 -0.8 0  0.2 -0.8 0  0.3 -0.8 0  0.4 -0.8 0  0.5 -0.8 0  -0.5 -0.78 0  -0.4 -0.78 0  -0.3 -0.78 0  -0.2 -0.78 0  -0.09999999999999998 -0.78 0  0 -0.78 0  0.09999999999999998 -0.78 0  0.2 -0.78 0  0.3 -0.78 0  0.4 -0.78 0  0.5 -0.78 0  -0.5 -0.76 0  -0.4 -0.76 0  -0.3 -0.76 0  -0.2 -0.76 0  -0.09999999999999998 -0.76 0  0 -0.76 0  0.09999999999999998 -0.76 0  0.2 -0.76 0  0.3 -0.76 0  0.4 -0.76 0  0.5 -0.76 0  -0.5 -0.74 0  -0.4 -0.74 0  -0.3 -0.74 0  -0.2 -0.74 0  -0.09999999999999998 -0.74 0  0 -0.74 0  0.09999999999999998 -0.74 0  0.2 -0.74 0  0.3 -0.74 0  0.4 -0.74 0  0.5 -0.74 0  -0.5 -0.72 0  -0.4 -0.72 0  -0.3 -0.72 0  -0.2 -0.72 0  -0.09999999999999998 -0.72 0  0 -0.72 0  0.09999999999999998 -0.72 0  0.2 -0.72 0  0.3 -0.72 0  0.4 -0.72 0  0.5 -0.72 0  -0.5 -0.7 0  -0.4 -0.7 0  -0.3 -0.7 0  -0.2 -0.7 0  -0.09999999999999998 -0.7 0  0 -0.7 0  0.09999999999999998 -0.7 0  0.2 -0.7 0  0.3 -0.7 0  0.4 -0.7 0  0.5 -0.7 0  -0.5 -0.6799999999999999 0  -0.4 -0.6799999999999999 0  -0.3 -0.6799999999999999 0  -0.2 -0.6799999999999999 0  -0.09999999999999998 -0.6799999999999999 0  0 -0.6799999999999999 0  0.09999999999999998 -0.6799999999999999 0  0.2 -0.6799999999999999 0  0.3 -0.6799999999999999 0  0.4 -0.6799999999999999 0  0.5 -0.6799999999999999 0  -0.5 -0.6599999999999999 0  -0.4 -0.6599999999999999 0  -0.3 -0.6599999999999999 0  -0.2 -0.6599999999999999 0  -0.09999999999999998 -0.6599999999999999 0  0 -0.6599999999999999 0  0.09999999999999998 -0.6599999999999999 0  0.2 -0.6599999999999999 0  0.3 -0.6599999999999999 0  0.4 -0.6599999999999999 0  0.5 -0.6599999999999999 0  -0.5 -0.64 0  -0.4 -0.64 0  -0.3 -0.64 0  -0.2 -0.64 0  -0.09999999999999998 -0.64 0  0 -0.64 0  0.09999999999999998 -0.64 0  0.2 -0.64 0  0.3 -0.64 0  0.4 -0.64 0  0.5 -0.64 0  -0.5 -0.62 0  -0.4 -0.62 0  -0.3 -0.62 0  -0.2 -0.62 0  -0.09999999999999998 -0.62 0  0 -0.62 0  0.09999999999999998 -0.62 0  0.2 -0.62 0  0.3 -0.62 0  0.4 -0.62 0  0.5 -0.62 0  -0.5 -0.6 0  -0.4 -0.6 0  -0.3 -0.6 0  -0.2 -0.6 0  -0.09999999999999998 -0.6 0  0 -0.6 0  0.09999999999999998 -0.6 0  0.2 -0.6 0  0.3 -0.6 0  0.4 -0.6 0  0.5 -0.6 0  -0.5 -0.5800000000000001 0  -0.4 -0.5800000000000001 0  -0.3 -0.5800000000000001 0  -0.2 -0.5800000000000001 0  -0.09999999999999998 -0.5800000000000001 0  0 -0.5800000000000001 0  0.09999999999999998 -0.5800000000000001 0  0.2 -0.5800000000000001 0  0.3 -0.5800000000000001 0  0.4 -0.5800000000000001 0  0.5 -0.5800000000000001 0  -0.5 -0.5600000000000001 0  -0.4 -0.5600000000000001 0  -0.3 -0.5600000000000001 0  -0.2 -0.5600000000000001 0  -0.09999999999999998 -0.5600000000000001 0  0 -0.5600000000000001 0  0.09999999999999998 -0.5600000000000001 0  0.2 -0.5600000000000001 0  0.3 -0.5600000000000001 0  0.4 -0.5600000000000001 0  0.5 -0.5600000000000001 0  -0.5 -0.54 0  -0.4 -0.54 0  -0.3 -0.54 0  -0.2 -0.54 0  -0.09999999999999998 -0.54 0  0 -0.54 0  0.09999999999999998 -0.54 0  0.2 -0.54 0  0.3 -0.54 0  0.4 -0.54 0  0.5 -0.54 0  -0.5 -0.52 0  -0.4 -0.52 0  -0.3 -0.52 0  -0.2 -0.52 0  -0.09999999999999998 -0.52 0  0 -0.52 0  0.09999999999999998 -0.52 0  0.2 -0.52 0  0.3 -0.52 0  0.4 -0.52 0  0.5 -0.52 0  -0.5 -0.5 0  -0.4 -0.5 0  -0.3 -0.5 0  -0.2 -0.5 0  -0.09999999999999998 -0.5 0  0 -0.5 0  0.09999999999999998 -0.5 0  0.2 -0.5 0  0.3 -0.5 0  0.4 -0.5 0  0.5 -0.5 0  -0.5 -0.48 0  -0.4 -0.48 0  -0.3 -0.48 0  -0.2 -0.48 0  -0.09999999999999998 -0.48 0  0 -0.48 0  0.09999999999999998 -0.48 0  0.2 -0.48 0  0.3 -0.48 0  0.4 -0.48 0  0.5 -0.48 0  -0.5 -0.46 0  -0.4 -0.46 0  -0.3 -0.46 0  -0.2 -0.46 0  -0.09999999999999998 -0.46 0  0 -0.46 0  0.09999999999999998 -0.46 0  0.2 -0.46 0  0.3 -0.46 0  0.4 -0.46 0  0.5 -0.46 0  -0.5 -0.4399999999999999 0  -0.4 -0.4399999999999999 0  -0.3 -0.4399999999999999 0  -0.2 -0.4399999999999999 0  -0.09999999999999998 -0.4399999999999999 0  0 -0.4399999999999999 0  0.09999999999999998 -0.4399999999999999 0  0.2 -0.4399999999999999 0  0.3 -0.4399999999999999 0  0.4 -0.4399999999999999 0  0.5 -0.4399999999999999 0  -0.5 -0.42 0  -0.4 -0.42 0  -0.3 -0.42 0  -0.2 -0.42 0  -0.09999999999999998 -0.42 0  0 -0.42 0  0.09999999999999998 -0.42 0  0.2 -0.42 0  0.3 -0.42 0  0.4 -0.42 0  0.5 -0.42 0  -0.5 -0.4 0  -0.4 -0.4 0  -0.3 -0.4 0  -0.2 -0.4 0  -0.09999999999999998 -0.4 0  0 -0.4 0  0.09999999999999998 -0.4 0  0.2 -0.4 0  0.3 -0.4 0  0.4 -0.4 0  0.5 -0.4 0  -0.5 -0.38 0  -0.4 -0.38 0  -0.3 -0.38 0  -0.2 -0.38 0  -0.09999999999999998 -0.38 0  0 -0.38 0  0.09999999999999998 -0.38 0  0.2 -0.38 0  0.3 -0.38 0  0.4 -0.38 0  0.5 -0.38 0  -0.5 -0.36 0  -0.4 -0.36 0  -0.3 -0.36 0  -0.2 -0.36 0  -0.09999999999999998 -0.36 0  0 -0.36 0  0.09999999999999998 -0.36 0  0.2 -0.36 0  0.3 -0.36 0  0.4 -0.36 0  0.5 -0.36 0  -0.5 -0.34 0  -0.4 -0.34 0  -0.3 -0.34 0  -0.2 -0.34 0  -0.09999999999999998 -0.34 0  0 -0.34 0  0.09999999999999998 -0.34 0  0.2 -0.34 0  0.3 -0.34 0  0.4 -0.34 0  0.5 -0.34 0  -0.5 -0.32 0  -0.4 -0.32 0  -0.3 -0.32 0  -0.2 -0.32 0  -0.09999999999999998 -0.32 0  0 -0.32 0  0.09999999999999998 -0.32 0  0.2 -0.32 0  0.3 -0.32 0  0.4 -0.32 0  0.5 -0.32 0  -0.5 -0.3 0  -0.4 -0.3 0  -0.3 -0.3 0  -0.2 -0.3 0  -0.09999999999999998 -0.3 0  0 -0.3 0  0.09999999999999998 -0.3 0  0.2 -0.3 0  0.3 -0.3 0  0.4 -0.3 0  0.5 -0.3 0  -0.5 -0.28 0  -0.4 -0.28 0  -0.3 -0.28 0  -0.2 -0.28 0  -0.09999999999999998 -0.28 0  0 -0.28 0  0.09999999999999998 -0.28 0  0.2 -0.28 0  0.3 -0.28 0  0.4 -0.28 0  0.5 -0.28 0  -0.5 -0.26 0  -0.4 -0.26 0  -0.3 -0.26 0  -0.2 -0.26 0  -0.09999999999999998 -0.26 0  0 -0.26 0  0.09999999999999998 -0.26 0  0.2 -0.26 0  0.3 -0.26 0  0.4 -0.26 0  0.5 -0.26 0  -0.5 -0.24 0  -0.4 -0.24 0  -0.3 -0.24 0  -0.2 -0.24 0  -0.09999999999999998 -0.24 0  0 -0.24 0  0.09999999999999998 -0.24 0  0.2 -0.24 0  0.3 -0.24 0  0.4 -0.24 0  0.5 -0.24 0  -0.5 -0.22 0  -0.4 -0.22 0  -0.3 -0.22 0  -0.2 -0.22 0  -0.09999999999999998 -0.22 0  0 -0.22 0  0.09999999999999998 -0.22 0  0.2 -0.22 0  0.3 -0.22 0  0.4 -0.22 0  0.5 -0.22 0  -0.5 -0.2 0  -0.4 -0.2 0  -0.3 -0.2 0  -0.2 -0.2 0  -0.09999999999999998 -0.2 0  0 -0.2 0  0.09999999999999998 -0.2 0  0.2 -0.2 0  0.3 -0.2 0  0.4 -0.2 0  0.5 -0.2 0  -0.5 -0.18 0  -0.4 -0.18 0  -0.3 -0.18 0  -0.2 -0.18 0  -0.09999999999999998 -0.18 0  0 -0.18 0  0.09999999999999998 -0.18 0  0.2 -0.18 0  0.3 -0.18 0  0.4 -0.18 0  0.5 -0.18 0  -0.5 -0.16 0  -0.4 -0.16 0  -0.3 -0.16 0  -0.2 -0.16 0  -0.09999999999999998 -0.16 0  0 -0.16 0  0.09999999999999998 -0.16 0  0.2 -0.16 0  0.3 -0.16 0  0.4 -0.16 0  0.5 -0.16 0  -0.5 -0.14 0  -0.4 -0.14 0  -0.3 -0.14 0  -0.2 -0.14 0  -0.09999999999999998 -0.14 0  0 -0.14 0  0.09999999999999998 -0.14 0  0.2 -0.14 0  0.3 -0.14 0  0.4 -0.14 0  0.5 -0.14 0  -0.5 -0.12 0  -0.4 -0.12 0  -0.3 -0.12 0  -0.2 -0.12 0  -0.09999999999999998 -0.12 0  0 -0.12 0  0.09999999999999998 -0.12 0  0.2 -0.12 0  0.3 -0.12 0  0.4 -0.12 0  0.5 -0.12 0  -0.5 -0.09999999999999998 0  -0.4 -0.09999999999999998 0  -0.3 -0.09999999999999998 0  -0.2 -0.09999999999999998 0  -0.09999999999999998 -0.09999999999999998 0  0 -0.09999999999999998 0  0.09999999999999998 -0.09999999999999998 0  0.2 -0.09999999999999998 0  0.3 -0.09999999999999998 0  0.4 -0.09999999999999998 0  0.5 -0.09999999999999998 0  -0.5 -0.07999999999999996 0  -0.4 -0.07999999999999996 0  -0.3 -0.07999999999999996 0  -0.2 -0.07999999999999996 0  -0.09999999999999998 -0.07999999999999996 0  0 -0.07999999999999996 0  0.09999999999999998 -0.07999999999999996 0  0.2 -0.07999999999999996 0  0.3 -0.07999999999999996 0  0.4 -0.07999999999999996 0  0.5 -0.07999999999999996 0  -0.5 -0.06000000000000005 0  -0.4 -0.06000000000000005 0  -0.3 -0.06000000000000005 0  -0.2 -0.06000000000000005 0  -0.09999999
[...]
<PointData  Vectors="flow"> 
<DataArray  type="Float64"  Name="flow"  NumberOfComponents="3" format="ascii">-4.5664953465280374e-15 -6.4643993850923401e-15 0.0000000000000000e+00  -2.0369473340221049e-15 -8.3318148462841958e-16 0.0000000000000000e+00  1.8285688575888707e-16 3.4946665565707056e-15 0.0000000000000000e+00  2.0973907241583278e-15 2.2356795897391278e-15 0.0000000000000000e+00  2.4445537296381903e-16 3.3571104089244652e-15 0.0000000000000000e+00  7.5064818951900677e-16 -4.1109613967931745e-15 0.0000000000000000e+00  3.8542021556860114e-15 2.4981267851639755e-16 0.0000000000000000e+00  5.5596745335634313e-16 1.6778522669938160e-15 0.0000000000000000e+00  1.9206769133656420e-17 4.7028953204367947e-15 0.0000000000000000e+00  2.4917469243108543e-15 -3.7353998295980785e-15 0.0000000000000000e+00  8.1129652531898086e-16 2.7010638562411191e-15 0.0000000000000000e+00  -3.0279194793993938e-15 -1.0027054443271386e-15 0.0000000000000000e+00  -2.1515713188667162e-15 3.5437796789882506e-15 0.0000000000000000e+00  -4.7442298177774486e-17 -4.6688065034755193e-15 0.0000000000000000e+00  2.0518432827152790e-15 1.8175933678941076e-15 0.0000000000000000e+00  1.8826972482082440e-16 1.4504290801375515e-15 0.0000000000000000e+00  1.5947866100325526e-15 1.2026733293003225e-15 0.0000000000000000e+00  3.7325386013614287e-15 1.3892480294707090e-15 0.0000000000000000e+00  7.5422211236957198e-16 7.6488879153125131e-16 0.0000000000000000e+00  5.6847357484276471e-17 4.2055392924335754e-15 0.0000000000000000e+00  1.9260008251212116e-15 3.9218936453931269e-15 0.0000000000000000e+00  8.8094699223093147e-16 -1.8741419809947155e-15 0.0000000000000000e+00  -8.7674139336609154e-16 -6.8444543364179130e-15 0.0000000000000000e+00  -2.0951256821632642e-15 3.0764385909992483e-15 0.0000000000000000e+00  -3.9104174417195423e-16 -6.5782253435950613e-15 0.0000000000000000e+00  3.4658363074930480e-15 2.4894735616583441e-15 0.0000000000000000e+00  1.9104586208804784e-16 -7.4825278341698599e-16 0.0000000000000000e+00  7.4625148377480295e-16 4.3760134461415764e-15 0.0000000000000000e+00  3.5695990776001680e-15 8.8976066211928654e-15 0.0000000000000000e+00  1.2408050172459450e-15 6.6803387387887106e-15 0.0000000000000000e+00  4.6989800479921317e-16 -1.5631564516455941e-16 0.0000000000000000e+00  1.0165788069373618e-15 2.2100740160629156e-15 0.0000000000000000e+00  -1.1118951057797224e-15 4.7917992356615684e-15 0.0000000000000000e+00  -6.4473759369520971e-16 7.1619437488728754e-15 0.0000000000000000e+00  -2.6090577038486006e-15 -2.6699210629778647e-15 0.0000000000000000e+00  -2.4304190136827283e-16 -4.2046718374693620e-15 0.0000000000000000e+00  3.6711217539627963e-15 1.5241460030583860e-15 0.0000000000000000e+00  1.7991647939302862e-16 -5.8492608264932614e-15 0.0000000000000000e+00  3.4416758676373579e-15 5.6906521925252920e-15 0.0000000000000000e+00  4.3852946541894603e-15 1.6858348170064285e-14 0.0000000000000000e+00  -1.5196335100870028e-15 1.3176714795296065e-14 0.0000000000000000e+00  -6.3761029651165162e-16 -1.8812543200099577e-14 0.0000000000000000e+00  2.9734612475195418e-15 5.7057308558910440e-15 0.0000000000000000e+00  2.1752300256200988e-15 -1.8722993153571960e-15 0.0000000000000000e+00  -3.6075330448511947e-15 1.4749339738519658e-14 0.0000000000000000e+00  -4.2572552457175654e-15 -7.1307143604346871e-15 0.0000000000000000e+00  6.0036208353258252e-16 4.8003937874549178e-16 0.0000000000000000e+00  2.7495852376146687e-15 -8.7657813007785024e-15 0.0000000000000000e+00  6.8333485731945855e-16 5.6108321824933591e-15 0.0000000000000000e+00  6.1744953844680448e-15 6.6663240210964495e-15 0.0000000000000000e+00  5.3830457401309483e-15 1.3411908083261500e-14 0.0000000000000000e+00  -7.2644239752140415e-15 1.7233796751639997e-14 0.0000000000000000e+00  -2.6808107933565183e-16 -2.5580216144177731e-14 0.0000000000000000e+00  4.7167787118035131e-15 7.2283147217664521e-15 0.0000000000000000e+00  -5.1772602311750556e-15 -1.6181525637880836e-14 0.0000000000000000e+00  -8.5265161334748994e-15 9.9794852854183669e-15 0.0000000000000000e+00  -5.5756953013811459e-15 -1.7323853439290237e-15 0.0000000000000000e+00  -9.0853765682377719e-16 4.0784261159232286e-15 0.0000000000000000e+00  4.3790161508390126e-15 -1.0100612834175003e-14 0.0000000000000000e+00  3.2426445078066075e-15 1.2139418742762312e-15 0.0000000000000000e+00  4.5818512994728333e-15 -7.2470259337041671e-15 0.0000000000000000e+00  6.4876808218157223e-15 -1.1907095867760516e-14 0.0000000000000000e+00  -7.9810505335369664e-15 1.5705145382383144e-15 0.0000000000000000e+00  -2.2619243459036614e-15 4.6368309907497964e-15 0.0000000000000000e+00  3.5032516848855098e-15 -5.4245391404823038e-15 0.0000000000000000e+00  -5.0332403514298929e-15 -1.2661258694822053e-14 0.0000000000000000e+00  -7.8265538163128155e-15 -1.9521361898023833e-14 0.0000000000000000e+00  -4.9351247129984693e-15 -7.6590644792198941e-15 0.0000000000000000e+00  1.0409359536277414e-16 -6.2992932675320527e-15 0.0000000000000000e+00  2.5217210772266448e-15 8.6868718754834419e-15 0.0000000000000000e+00  1.7959623375265042e-15 -1.1528699772685522e-14 0.0000000000000000e+00  3.9679728944754579e-15 -7.8768409869671858e-15 0.0000000000000000e+00  6.7835319105912028e-15 -1.1069033958191095e-14 0.0000000000000000e+00  -5.0849522894100420e-15 -5.4264071138037637e-15 0.0000000000000000e+00  -1.4631632619591622e-15 -4.3477006128053053e-15 0.0000000000000000e+00  2.3882362511436900e-15 5.7276345121299035e-15 0.0000000000000000e+00  -4.5175220183584244e-15 -2.7929279443326264e-16 0.0000000000000000e+00  -3.2245044499779740e-15 -2.0540294891651833e-14 0.0000000000000000e+00  -3.3541376848153830e-15 -1.1636552016982611e-15 0.0000000000000000e+00  1.6887973874828344e-15 4.6243189356012883e-15 0.0000000000000000e+00  3.0740283107654655e-15 -7.0326847650714468e-15 0.0000000000000000e+00  5.3234241204275901e-16 9.6265550904967245e-15 0.0000000000000000e+00  4.0255040925886412e-15 2.4077271203103784e-15 0.0000000000000000e+00  6.5753942867362140e-15 2.7548557693366381e-14 0.0000000000000000e+00  -5.4438089939443927e-15 -8.0167590524358956e-17 0.0000000000000000e+00  -6.2058894519401283e-16 2.4513819649348717e-15 0.0000000000000000e+00  1.6743118454560729e-15 3.8639872720429103e-15 0.0000000000000000e+00  -8.9537358956695656e-15 -1.3321283843674924e-14 0.0000000000000000e+00  -4.0574004513130069e-15 -6.0352318729675248e-15 0.0000000000000000e+00  8.1185232818168608e-17 9.1202217960301437e-15 0.0000000000000000e+00  -1.1551722108996002e-15 3.6714103313763287e-16 0.0000000000000000e+00  3.4514757383627537e-15 -6.4346033898854363e-15 0.0000000000000000e+00  1.5807789870170499e-15 1.2944159749403582e-14 0.0000000000000000e+00  8.6651040535562264e-15 -1.2531226431865348e-14 0.0000000000000000e+00  7.0209025080613433e-15 4.3096741008771351e-14 0.0000000000000000e+00  -1.1312767270493324e-14 8.9371685616745808e-15 0.0000000000000000e+00  1.4914388686709623e-15 -6.0329498335417878e-15 0.0000000000000000e+00  2.6723143508335735e-17 3.3080221375735920e-14 0.0000000000000000e+00  -8.7036891119914180e-15 -5.2919266476428605e-15 0.0000000000000000e+00  -4.4721362817531302e-16 2.0498658457491097e-14 0.0000000000000000e+00  -1.4528279428884579e-15 2.1128522284910064e-14 0.0000000000000000e+00  -1.9064722944548931e-15 1.8723959526054395e-14 0.0000000000000000e+00  6.0213244608134219e-15 -3.0901042658168772e-15 0.0000000000000000e+00  6.0619104300777695e-16 1.0756762709045659e-14 0.0000000000000000e+00  1.0021042654723260e-14 3.5716562640064912e-15 0.0000000000000000e+00  1.0176309956753797e-14 -4.7365150143394126e-15 0.0000000000000000e+00  -1.8209673917091613e-14 1.4738395245610906e-14 0.0000000000000000e+00  4.7438107987060543e-15 -7.2398803061690252e-15 0.0000000000000000e+00  2.9087976144194227e-15 3.2755159935575248e-15 0.0000000000000000e+00  -2.5557311350556261e-14 -3.4911218033834184e-15 0.0000000000000000e+00  -4.0214906484729093e-15 9.1799835051048829e-15 0.0000000000000000e+00  3.0017867804420898e-16 6.3536028364775404e-15 0.0000000000000000e+00  -5.7615666545891171e-15 2.0531583522233960e-14 0.0000000000000000e+00  1.0962489442670626e-15 -2.5710830852496324e-14 0.0000000000000000e+00  3.0337933502930840e-15 -7.5574823871673412e-15 0.0000000000000000e+00  4.5700295308530394e-15 -2.4363677993772008e-15 0.0000000000000000e+00  1.2456133910664238e-14 -3.7629423738433113e-14 0.0000000000000000e+00  -9.8179053403871787e-15 1.5964420522111110e-15 0.0000000000000000e+00  -9.5194133612555916e-16 3.9065073134067102e-14 0.0000000000000000e+00  -1.2306603143172723e-15 -3.5982384174379961e-15 0.0000000000000000e+00  -1.8931310041517205e-14 -3.3538353278689110e-14 0.0000000000000000e+00  2.3652358396938886e-15 5.3478604878131269e-15 0.0000000000000000e+00  1.7600304300536073e-16 3.7183237567475779e-14 0.0000000000000000e+00  -7.7256639535868719e-15 -5.6569329573217033e-15 0.0000000000000000e+00  -1.0201997709780859e-15 7.7765710550800771e-16 0.0000000000000000e+00  5.6384508802585529e-15 -1.9202879870518364e-14 0.0000000000000000e+00  5.6113788060227932e-15 1.5852223942925115e-14 0.0000000000000000e+00  8.3917289022104756e-15 4.0752181007950285e-15 0.0000000000000000e+00  -4.9269831459414318e-15 -2.3798472459615327e-14 0.0000000000000000e+00  1.4317091929531317e-15 1.6725473661939490e-14 0.0000000000000000e+00  -6.7965777512906357e-15 1.7580853044292085e-14 0.0000000000000000e+00  -3.2240483088860143e-14 -1.0849316380766884e-14 0.0000000000000000e+00  1.0826674042528233e-14 2.8423464852930508e-15 0.0000000000000000e+00  -3.1593405156924121e-15 1.4265076052727414e-14 0.0000000000000000e+00  -1.1429590053874293e-14 -3.6546184849796490e-14 0.0000000000000000e+00  -9.9356392529094568e-17 -6.4765031353221643e-16 0.0000000000000000e+00  5.9135564180878024e-15 -1.9586059167975574e-14 0.0000000000000000e+00  6.1180669547685902e-15 5.1399606914989038e-14 0.0000000000000000e+00  4.0071325173739211e-15 -4.8135978023689741e-14 0.0000000000000000e+00  -1.3542814688470464e-16 -5.6369591831734879e-14 0.0000000000000000e+00  6.7906735629671083e-15 5.4978297511237680e-14 0.0000000000000000e+00  -1.0378187517078315e-14 2.8856924786696639e-15 0.0000000000000000e+00  -3.1771999310108618e-14 3.2887505939232888e-15 0.0000000000000000e+00  4.5880958379986848e-15 2.1701908269430010e-14 0.0000000000000000e+00  -8.4852333267587806e-15 9.4342740932751243e-15 0.0000000000000000e+00  -1.2503460299689551e-14 -6.4943936616153742e-14 0.0000000000000000e+00  8.6394742497595733e-16 -1.8279396939006597e-14 0.0000000000000000e+00  1.8466064571013648e-14 -8.0911439659959401e-15 0.0000000000000000e+00  3.5975185217933384e-15 2.8962775443529322e-14 0.0000000000000000e+00  -1.3826792001017004e-14 -2.5436850753560237e-14 0.0000000000000000e+00  8.8771445000934111e-15 -9.4598091512694519e-15 0.0000000000000000e+00  1.2830479894204262e-14 -2.6996768212482878e-14 0.0000000000000000e+00  -1.4790801899029073e-14 -1.2596001116979745e-14 0.0000000000000000e+00  -2.1461223606998526e-14 1.8401141954485151e-14 0.0000000000000000e+00  1.2033138985039684e-14 9.3486009653097726e-15 0.0000000000000000e+00  -1.7852803524738026e-14 3.7465586917848823e-14 0.0000000000000000e+00  -1.6215415458423400e-14 -8.6425101017337417e-14 0.0000000000000000e+00  1.2276455949358587e-14 -1.0417043199372727e-14 0.0000000000000000e+00  1.1318737424817524e-14 3.8221790967711437e-14 0.0000000000000000e+00  -1.2914676690686263e-15 -3.3854909240198094e-14 0.0000000000000000e+00  -2.0880077228369649e-15 -3.5349673839926059e-14 0.0000000000000000e+00  6.3610830510112430e-15 2.5591919539851826e-14 0.0000000000000000e+00  8.0327951055221857e-15 -2.0248613660781353e-14 0.0000000000000000e+00  -5.8161640865562848e-15 2.8659116968853925e-14 0.0000000000000000e+00  -2.4548553505958871e-14 7.7299344768303693e-15 0.0000000000000000e+00  1.4566681308615610e-14 -3.7782393787891488e-15 0.0000000000000000e+00  -2.8622043385617570e-14 4.1782369853685521e-14 0.0000000000000000e+00  -2.1672703649391171e-14 -4.8905956080894814e-14 0.0000000000000000e+00  2.4762995821866865e-14 6.3412663361422608e-15 0.0000000000000000e+00  1.6869963802311610e-14 3.2515742672572174e-14 0.0000000000000000e+00  -5.9494559198329384e-15 -2.8688558976186918e-15 0.0000000000000000e+00  -4.1584575784920614e-15 -7.6480487871933121e-15 0.0000000000000000e+00  5.9397473324621872e-15 -4.2757868787239308e-14 0.0000000000000000e+00  1.2515552330530267e-14 -9.0380175016191186e-15 0.0000000000000000e+00  -3.1061088855507540e-15 3.6839216563639059e-14 0.0000000000000000e+00  -3.2665851735475511e-14 2.4074583017798271e-14 0.0000000000000000e+00  2.1204738573412506e-14 5.2663966722331741e-15 0.0000000000000000e+00  -2.8744306118304101e-14 1.5319608354178881e-14 0.0000000000000000e+00  -2.1998428630494409e-14 3.4288172851672686e-14 0.0000000000000000e+00  2.7037929534616871e-14 2.9769877439328855e-14 0.0000000000000000e+00  9.1981210133660114e-15 -5.1260129411567621e-15 0.0000000000000000e+00  -1.5060104473117284e-14 -4.4533236230030753e-14 0.0000000000000000e+00  -5.8986389378882463e-15 -5.5726013269366096e-14 0.0000000000000000e+00  1.1075370694080401e-14 -2.5959860655533905e-14 0.0000000000000000e+00  2.1332672028172092e-14 1.2618153672771696e-14 0.0000000000000000e+00  -4.4555949017549199e-15 8.4552996525966367e-15 0.0000000000000000e+00  -3.2244091065576573e-14 4.9535621214839811e-15 0.0000000000000000e+00  1.7757261156948846e-14 4.3222724825193566e-14 0.0000000000000000e+00  -2.1836042793088099e-14 -3.1108478123025858e-14 0.0000000000000000e+00  -1.7898254980882234e-14 5.1314827100132058e-14 0.0000000000000000e+00  1.7633907911441954e-14 3.8567565486503170e-14 0.0000000000000000e+00  1.1158230205536509e-15 -5.8288341547915180e-15 0.0000000000000000e+00  -1.3754638415845471e-14 -1.9205863450190036e-14 0.0000000000000000e+00  -5.5195495110931581e-15 1.2082811517979024e-14 0.0000000000000000e+00  1.5547934066284716e-14 -2.9940085692357778e-14 0.0000000000000000e+00  2.2952622431155308e-14 -5.1912161809577647e-14 0.0000000000000000e+00  2.2878522064147576e-15 1.0983687835532518e-14 0.0000000000000000e+00  -2.7630019872271496e-14 4.2499181597665638e-14 0.0000000000000000e+00  -9.3082676069813399e-16 7.0945514586767265e-14 0.0000000000000000e+00  -3.1458002665519290e-14 -7.6904943425680041e-14 0.0000000000000000e+00  -9.9185600471872289e-15 -6.1599186906606406e-15 0.0000000000000000e+00  1.8585280312881392e-14 -1.2862211158590231e-14 0.0000000000000000e+00  -2.6623848403903051e-15 -2.5953375201617424e-14 0.0000000000000000e+00  -1.1493610074444984e-14 -5.7756233990611793e-14 0.0000000000000000e+00  -3.2589080678947274e-15 5.6420699804473575e-14 0.0000000000000000e+00  1.0941654350212423e-15 -1.8501349496151457e-14 0.0000000000000000e+00  2.8198248045630762e-14 -3.9485553636842849e-14 0.0000000000000000e+00  4.2353176000244326e-15 -1.8396381316270023e-14 0.0000000000000000e+00  -3.1654721170283722e-14 -7.8665881099127956e-14 0.0000000000000000e+00  -2.8700997506428788e-14 2.3020905589435575e-14 0.0000000000000000e+00  -3.3926915232034518e-14 -3.6450571712421176e-14 0.0000000000000000e+00  1.1496407960455128e-15 4.1306270807428595e-14 0.0000000000000000e+00  8.3248336926037476e-15 4.7866676103523669e-14 0.0000000000000000e+00  -1.0285591826441704e-14 -4.2010316206417423e-14 0.0000000000000000e+00  1.7279181384623829e-15 -4.6356863347246827e-14 0.0000000000000000e+00  5.7598390636961694e-15 3.2322654888200181e-14 0.0000000000000000e+00  -8.2024183337938885e-15 4.2033841442588670e-14 0.0000000000000000e+00  2.8133697620845491e-14 4.0704920230000756e-14 0.0000000000000000e+00  -3.5975194914528824e-15 5.2498235451289708e-15 0.0000000000000000e+00  -3.8538080957599841e-14 -2.4523170566142569e-14 0.0000000000000000e+00  -3.6509211577616820e-14 2.2252713093269701e-14 0.0000000000000000e+00  -3.0101762955273774e-14 1.0700602889170290e-14 0.0000000000000000e+00  4.5498228305538795e-15 -5.0392837676365785e-15 0.0000000000000000e+00  6.0970213164046485e-15 4.5322472880571841e-14 0.0000000000000000e+00  -1.8812231482558610e-14 -3.6727477137254961e-14 0.0000000000000000e+00  1.5061289100353545e-15 3.5556249986934143e-14 0.0000000000000000e+00  5.8346373396565080e-15 5.8895634420118986e-15 0.0000000000000000e+00  6.3544356783817930e-15 5.6601716211446183e-14 0.0000000000000000e+00  2.0263948608531981e-14 1.1231454560435797e-14 0.0000000000000000e+00  -8.3334031408909966e-15 4.6097944492173416e-14 0.0000000000000000e+00  -4.6782196238652594e-14 -3.3358796389406057e-14 0.0000000000000000e+00  -3.3195331458327663e-14 -1.2114403633216772e-14 0.0000000000000000e+00  -3.6741209467791185e-14 5.0260656625648942e-14 0.0000000000000000e+00  3.4991978316033039e-15 -6.1838920282154540e-14 0.0000000000000000e+00  2.1354610215840591e-15 -2.4909322390740102e-14 0.0000000000000000e+00  -1.1645339802894661e-14 1.9390020576146722e-15 0.0000000000000000e+00  1.5976700936481777e-14 -3.8259543612205893e-14 0.0000000000000000e+00  1.0790601761486504e-14 8.6090973025586026e-14 0.0000000000000000e+00  -5.0827600790433253e-15 5.8572028625249876e-14 0.0000000000000000e+00  1.5976459784787614e-14 -5.4626829482177104e-14 0.0000000000000000e+00  -7.2872728081190669e-15 2.2391289319285123e-14 0.0000000000000000e+00  -8.3063560424898840e-14 -6.4311460677687036e-14 0.0000000000000000e+00  -7.5788552581527500e-15 -3.9296051512621713e-14 0.0000000000000000e+00  -3.9148011889617578e-14 1.9438264145244572e-14 0.0000000000000000e+00  -4.2298224396977646e-15 -4.6431628707481381e-15 0.0000000000000000e+00  1.6050542555030102e-14 6.2084928767306368e-14 0.0000000000000000e+00  -2.1225773416402900e-14 -9.7625328645571997e-16 0.0000000000000000e+00  1.2593926668933756e-14 1.5241189254166289e-14 0.0000000000000000e+00  2.7239757202563103e-14 4.4538766730900127e-14 0.0000000000000000e+00  -1.7797767874255813e-14 6.4997991367034629e-14 0.0000000000000000e+00  1.5386295322220636e-14 4.1160850705236616e-14 0.0000000000000000e+00  -9.5034124057674961e-15 1.1492943347357272e-14 0.0000000000000000e+00  -9.0105103176601355e-14 -3.4203251765635184e-14 0.0000000000000000e+00  -1.5467961724531773e-14 2.0116353188489941e-15 0.0000000000000000e+00  -3.2804439890920806e-14 6.2186762122416067e-14 0.0000000000000000e+00  4.8175677685764306e-15 -2.4770365460119255e-15 0.0000000000000000e+00  4.2249224251962068e-16 6.3764156945345819e-16 0.0000000000000000e+00  -1.9847564636626236e-14 -4.4219830480290363e-14 0.0000000000000000e+00  2.6141373041401097e-14 5.9009893106861392e-15 0.0000000000000000e+00  2.2173094357131983e-14 2.1825766784140960e-15 0.0000000000000000e+00  -1.3138099874585033e-14 2.0231562608766594e-14 0.0000000000000000e+00  8.9624731801682925e-15 1.6952073257771221e-14 0.0000000000000000e+00  -2.0951074346385442e-14 -4.1184943731900018e-14 0.0000000000000000e+00  -8.6474907022766478e-14 6.9842817596920015e-16 0.0000000000000000e+00  3.3493162490818523e-15 -2.2334811319847222e-14 0.0000000000000000e+00  -3.4593929369660662e-14 2.0848063520107275e-15 0.0000000000000000e+00  -1.6359998475102653e-14 -1.6207592331623656e-14 0.0000000000000000e+00  1.8757435565023957e-14 -1.2339859249257145e-13 0.0000000000000000e+00  -2.1936082057217865e-14 1.5182031474995556e-13 0.0000000000000000e+00  2.4491598183306231e-14 -3.4731189759373049e-15 0.0000000000000000e+00  2.7491429102070763e-14 8.3700320058772818e-14 0.0000000000000000e+00  -1.8303685512654141e-14 -3.6946243358524014e-14 0.0000000000000000e+00  5.5078681488087660e-15 1.7030427632232143e-14 0.0000000000000000e+00  -1.8992102485219145e-14 -3.6094717203852983e-14 0.0000000000000000e+00  -6.6738543975618845e-14 3.4348739926753332e-15 0.0000000000000000e+00  7.2254232181876603e-16 -1.4923097673016043e-14 0.0000000000000000e+00  -3.0116202608024770e-14 -1.0450711049887506e-14 0.0000000000000000e+00  -2.3697562715892372e-14 -4.8609576236669012e-15 0.0000000000000000e+00  2.5538139102209926e-14 -2.0909724761934333e-14 0.0000000000000000e+00  7.0675430383432441e-16 3.7424863818797478e-14 0.0000000000000000e+00  1.3472282022445396e-14 -1.11