<?xml version="1.0"?>
<VTKFile type="UnstructuredGrid"  version="0.1"  >
<UnstructuredGrid>
<Piece  NumberOfPoints="1661" NumberOfCells="3200">
<Points>
<DataArray  type="Float64"  NumberOfComponents="3"  format="ascii">-0.25 -1 0  -0.225 -1 0  -0.2 -1 0  -0.175 -1 0  -0.15 -1 0  -0.125 -1 0  -0.1 -1 0  -0.07500000000000001 -1 0  -0.04999999999999999 -1 0  -0.02499999999999999 -1 0  0 -1 0  0.02500000000000002 -1 0  0.04999999999999999 -1 0  0.07500000000000001 -1 0  0.09999999999999998 -1 0  0.125 -1 0  0.15 -1 0  0.175 -1 0  0.2 -1 0  0.225 -1 0  0.25 -1 0  -0.25 -0.975 0  -0.225 -0.975 0  -0.2 -0.975 0  -0.175 -0.975 0  -0.15 -0.975 0  -0.125 -0.975 0  -0.1 -0.975 0  -0.07500000000000001 -0.975 0  -0.04999999999999999 -0.975 0  -0.02499999999999999 -0.975 0  0 -0.975 0  0.02500000000000002 -0.975 0  0.04999999999999999 -0.975 0  0.07500000000000001 -0.975 0  0.09999999999999998 -0.975 0  0.125 -0.975 0  0.15 -0.975 0  0.175 -0.975 0  0.2 -0.975 0  0.225 -0.975 0  0.25 -0.975 0  -0.25 -0.95 0  -0.225 -0.95 0  -0.2 -0.95 0  -0.175 -0.95 0  -0.15 -0.95 0  -0.125 -0.95 0  -0.1 -0.95 0  -0.07500000000000001 -0.95 0  -0.04999999999999999 -0.95 0  -0.02499999999999999 -0.95 0  0 -0.95 0  0.02500000000000002 -0.95 0  0.04999999999999999 -0.95 0  0.07500000000000001 -0.95 0  0.09999999999999998 -0.95 0  0.125 -0.95 0  0.15 -0.95 0  0.175 -0.95 0  0.2 -0.95 0  0.225 -0.95 0  0.25 -0.95 0  -0.25 -0.925 0  -0.225 -0.925 0  -0.2 -0.925 0  -0.175 -0.925 0  -0.15 -0.925 0  -0.125 -0.925 0  -0.1 -0.925 0  -0.07500000000000001 -0.925 0  -0.04999999999999999 -0.925 0  -0.02499999999999999 -0.925 0  0 -0.925 0  0.02500000000000002 -0.925 0  0.04999999999999999 -0.925 0  0.07500000000000001 -0.925 0  0.09999999999999998 -0.925 0  0.125 -0.925 0  0.15 -0.925 0  0.175 -0.925 0  0.2 -0.925 0  0.225 -0.925 0  0.25 -0.925 0  -0.25 -0.9 0  -0.225 -0.9 0  -0.2 -0.9 0  -0.175 -0.9 0  -0.15 -0.9 0  -0.125 -0.9 0  -0.1 -0.9 0  -0.07500000000000001 -0.9 0  -0.04999999999999999 -0.9 0  -0.02499999999999999 -0.9 0  0 -0.9 0  0.02500000000000002 -0.9 0  0.04999999999999999 -0.9 0  0.07500000000000001 -0.9 0  0.09999999999999998 -0.9 0  0.125 -0.9 0  0.15 -0.9 0  0.175 -0.9 0  0.2 -0.9 0  0.225 -0.9 0  0.25 -0.9 0  -0.25 -0.875 0  -0.225 -0.875 0  -0.2 -0.875 0  -0.175 -0.875 0  -0.15 -0.875 0  -0.125 -0.875 0  -0.1 -0.875 0  -0.07500000000000001 -0.875 0  -0.04999999999999999 -0.875 0  -0.02499999999999999 -0.875 0  0 -0.875 0  0.02500000000000002 -0.875 0  0.04999999999999999 -0.875 0  0.07500000000000001 -0.875 0  0.09999999999999998 -0.875 0  0.125 -0.875 0  0.15 -0.875 0  0.175 -0.875 0  0.2 -0.875 0  0.225 -0.875 0  0.25 -0.875 0  -0.25 -0.85 0  -0.225 -0.85 0  -0.2 -0.85 0  -0.175 -0.85 0  -0.15 -0.85 0  -0.125 -0.85 0  -0.1 -0.85 0  -0.07500000000000001 -0.85 0  -0.04999999999999999 -0.85 0  -0.02499999999999999 -0.85 0  0 -0.85 0  0.02500000000000002 -0.85 0  0.04999999999999999 -0.85 0  0.07500000000000001 -0.85 0  0.09999999999999998 -0.85 0  0.125 -0.85 0  0.15 -0.85 0  0.175 -0.85 0  0.2 -0.85 0  0.225 -0.85 0  0.25 -0.85 0  -0.25 -0.825 0  -0.225 -0.825 0  -0.2 -0.825 0  -0.175 -0.825 0  -0.15 -0.825 0  -0.125 -0.825 0  -0.1 -0.825 0  -0.07500000000000001 -0.825 0  -0.04999999999999999 -0.825 0  -0.02499999999999999 -0.825 0  0 -0.825 0  0.02500000000000002 -0.825 0  0.04999999999999999 -0.825 0  0.07500000000000001 -0.825 0  0.09999999999999998 -0.825 0  0.125 -0.825 0  0.15 -0.825 0  0.175 -0.825 0  0.2 -0.825 0  0.225 -0.825 0  0.25 -0.825 0  -0.25 -0.8 0  -0.225 -0.8 0  -0.2 -0.8 0  -0.175 -0.8 0  -0.15 -0.8 0  -0.125 -0.8 0  -0.1 -0.8 0  -0.07500000000000001 -0.8 0  -0.04999999999999999 -0.8 0  -0.02499999999999999 -0.8 0  0 -0.8 0  0.02500000000000002 -0.8 0  0.04999999999999999 -0.8 0  0.07500000000000001 -0.8 0  0.09999999999999998 -0.8 0  0.125 -0.8 0  0.15 -0.8 0  0.175 -0.8 0  0.2 -0.8 0  0.225 -0.8 0  0.25 -0.8 0  -0.25 -0.775 0  -0.225 -0.775 0  -0.2 -0.775 0  -0.175 -0.775 0  -0.15 -0.775 0  -0.125 -0.775 0  -0.1 -0.775 0  -0.07500000000000001 -0.775 0  -0.04999999999999999 -0.775 0  -0.02499999999999999 -0.775 0  0 -0.775 0  0.02500000000000002 -0.775 0  0.04999999999999999 -0.775 0  0.07500000000000001 -0.775 0  0.09999999999999998 -0.775 0  0.125 -0.775 0  0.15 -0.775 0  0.175 -0.775 0  0.2 -0.775 0  0.225 -0.775 0  0.25 -0.775 0  -0.25 -0.75 0  -0.225 -0.75 0  -0.2 -0.75 0  -0.175 -0.75 0  -0.15 -0.75 0  -0.125 -0.75 0  -0.1 -0.75 0  -0.07500000000000001 -0.75 0  -0.04999999999999999 -0.75 0  -0.02499999999999999 -0.75 0  0 -0.75 0  0.02500000000000002 -0.75 0  0.04999999999999999 -0.75 0  0.07500000000000001 -0.75 0  0.09999999999999998 -0.75 0  0.125 -0.75 0  0.15 -0.75 0  0.175 -0.75 0  0.2 -0.75 0  0.225 -0.75 0  0.25 -0.75 0  -0.25 -0.725 0  -0.225 -0.725 0  -0.2 -0.725 0  -0.175 -0.725 0  -0.15 -0.725 0  -0.125 -0.725 0  -0.1 -0.725 0  -0.07500000000000001 -0.725 0  -0.04999999999999999 -0.725 0  -0.02499999999999999 -0.725 0  0 -0.725 0  0.02500000000000002 -0.725 0  0.04999999999999999 -0.725 0  0.07500000000000001 -0.725 0  0.09999999999999998 -0.725 0  0.125 -0.725 0  0.15 -0.725 0  0.175 -0.725 0  0.2 -0.725 0  0.225 -0.725 0  0.25 -0.725 0  -0.25 -0.7 0  -0.225 -0.7 0  -0.2 -0.7 0  -0.175 -0.7 0  -0.15 -0.7 0  -0.125 -0.7 0  -0.1 -0.7 0  -0.07500000000000001 -0.7 0  -0.04999999999999999 -0.7 0  -0.02499999999999999 -0.7 0  0 -0.7 0  0.02500000000000002 -0.7 0  0.04999999999999999 -0.7 0  0.07500000000000001 -0.7 0  0.09999999999999998 -0.7 0  0.125 -0.7 0  0.15 -0.7 0  0.175 -0.7 0  0.2 -0.7 0  0.225 -0.7 0  0.25 -0.7 0  -0.25 -0.675 0  -0.225 -0.675 0  -0.2 -0.675 0  -0.175 -0.675 0  -0.15 -0.675 0  -0.125 -0.675 0  -0.1 -0.675 0  -0.07500000000000001 -0.675 0  -0.04999999999999999 -0.675 0  -0.02499999999999999 -0.675 0  0 -0.675 0  0.02500000000000002 -0.675 0  0.04999999999999999 -0.675 0  0.07500000000000001 -0.675 0  0.09999999999999998 -0.675 0  0.125 -0.675 0  0.15 -0.675 0  0.175 -0.675 0  0.2 -0.675 0  0.225 -0.675 0  0.25 -0.675 0  -0.25 -0.65 0  -0.225 -0.65 0  -0.2 -0.65 0  -0.175 -0.65 0  -0.15 -0.65 0  -0.125 -0.65 0  -0.1 -0.65 0  -0.07500000000000001 -0.65 0  -0.04999999999999999 -0.65 0  -0.02499999999999999 -0.65 0  0 -0.65 0  0.02500000000000002 -0.65 0  0.04999999999999999 -0.65 0  0.07500000000000001 -0.65 0  0.09999999999999998 -0.65 0  0.125 -0.65 0  0.15 -0.65 0  0.175 -0.65 0  0.2 -0.65 0  0.225 -0.65 0  0.25 -0.65 0  -0.25 -0.625 0  -0.225 -0.625 0  -0.2 -0.625 0  -0.175 -0.625 0  -0.15 -0.625 0  -0.125 -0.625 0  -0.1 -0.625 0  -0.07500000000000001 -0.625 0  -0.04999999999999999 -0.625 0  -0.02499999999999999 -0.625 0  0 -0.625 0  0.02500000000000002 -0.625 0  0.04999999999999999 -0.625 0  0.07500000000000001 -0.625 0  0.09999999999999998 -0.625 0  0.125 -0.625 0  0.15 -0.625 0  0.175 -0.625 0  0.2 -0.625 0  0.225 -0.625 0  0.25 -0.625 0  -0.25 -0.6 0  -0.225 -0.6 0  -0.2 -0.6 0  -0.175 -0.6 0  -0.15 -0.6 0  -0.125 -0.6 0  -0.1 -0.6 0  -0.07500000000000001 -0.6 0  -0.04999999999999999 -0.6 0  -0.02499999999999999 -0.6 0  0 -0.6 0  0.02500000000000002 -0.6 0  0.04999999999999999 -0.6 0  0.07500000000000001 -0.6 0  0.09999999999999998 -0.6 0  0.125 -0.6 0  0.15 -0.6 0  0.175 -0.6 0  0.2 -0.6 0  0.225 -0.6 0  0.25 -0.6 0  -0.25 -0.575 0  -0.225 -0.575 0  -0.2 -0.575 0  -0.175 -0.575 0  -0.15 -0.575 0  -0.125 -0.575 0  -0.1 -0.575 0  -0.07500000000000001 -0.575 0  -0.04999999999999999 -0.575 0  -0.02499999999999999 -0.575 0  0 -0.575 0  0.02500000000000002 -0.575 0  0.04999999999999999 -0.575 0  0.07500000000000001 -0.575 0  0.09999999999999998 -0.575 0  0.125 -0.575 0  0.15 -0.575 0  0.175 -0.575 0  0.2 -0.575 0  0.225 -0.575 0  0.25 -0.575 0  -0.25 -0.55 0  -0.225 -0.55 0  -0.2 -0.55 0  -0.175 -0.55 0  -0.15 -0.55 0  -0.125 -0.55 0  -0.1 -0.55 0  -0.07500000000000001 -0.55 0  -0.04999999999999999 -0.55 0  -0.02499999999999999 -0.55 0  0 -0.55 0  0.02500000000000002 -0.55 0  0.04999999999999999 -0.55 0  0.07500000000000001 -0.55 0  0.09999999999999998 -0.55 0  0.125 -0.55 0  0.15 -0.55 0  0.175 -0.55 0  0.2 -0.55 0  0.225 -0.55 0  0.25 -0.55 0  -0.25 -0.525 0  -0.225 -0.525 0  -0.2 -0.525 0  -0.175 -0.525 0  -0.15 -0.525 0  -0.125 -0.525 0  -0.1 -0.525 0  -0.07500000000000001 -0.525 0  -0.04999999999999999 -0.525 0  -0.02499999999999999 -0.525 0  0 -0.525 0  0.02500000000000002 -0.525 0  0.04999999999999999 -0.525 0  0.07500000000000001 -0.525 0  0.09999999999999998 -0.525 0  0.125 -0.525 0  0.15 -0.525 0  0.175 -0.525 0  0.2 -0.525 0  0.225 -0.525 0  0.25 -0.525 0  -0.25 -0.5 0  -0.225 -0.5 0  -0.2 -0.5 0  -0.175 -0.5 0  -0.15 -0.5 0  -0.125 -0.5 0  -0.1 -0.5 0  -0.07500000000000001 -0.5 0  -0.04999999999999999 -0.5 0  -0.02499999999999999 -0.5 0  0 -0.5 0  0.02500000000000002 -0.5 0  0.04999999999999999 -0.5 0  0.07500000000000001 -0.5 0  0.09999999999999998 -0.5 0  0.125 -0.5 0  0.15 -0.5 0  0.175 -0.5 0  0.2 -0.5 0  0.225 -0.5 0  0.25 -0.5 0  -0.25 -0.475 0  -0.225 -0.475 0  -0.2 -0.475 0  -0.175 -0.475 0  -0.15 -0.475 0  -0.125 -0.475 0  -0.1 -0.475 0  -0.07500000000000001 -0.475 0  -0.04999999999999999 -0.475 0  -0.02499999999999999 -0.475 0  0 -0.475 0  0.02500000000000002 -0.475 0  0.04999999999999999 -0.475 0  0.07500000000000001 -0.475 0  0.09999999999999998 -0.475 0  0.125 -0.475 0  0.15 -0.475 0  0.175 -0.475 0  0.2 -0.475 0  0.225 -0.475 0  0.25 -0.475 0  -0.25 -0.45 0  -0.225 -0.45 0  -0.2 -0.45 0  -0.175 -0.45 0  -0.15 -0.45 0  -0.125 -0.45 0  -0.1 -0.45 0  -0.07500000000000001 -0.45 0  -0.04999999999999999 -0.45 0  -0.02499999999999999 -0.45 0  0 -0.45 0  0.02500000000000002 -0.45 0  0.04999999999999999 -0.45 0  0.07500000000000001 -0.45 0  0.09999999999999998 -0.45 0  0.125 -0.45 0  0.15 -0.45 0  0.175 -0.45 0  0.2 -0.45 0  0.225 -0.45 0  0.25 -0.45 0  -0.25 -0.425 0  -0.225 -0.425 0  -0.2 -0.425 0  -0.175 -0.425 0  -0.15 -0.425 0  -0.125 -0.425 0  -0.1 -0.425 0  -0.07500000000000001 -0.425 0  -0.04999999999999999 -0.425 0  -0.02499999999999999 -0.425 0  0 -0.425 0  0.02500000000000002 -0.425 0  0.04999999999999999 -0.425 0  0.07500000000000001 -0.425 0  0.
[...]
<PointData  Vectors="flow"> 
<DataArray  type="Float64"  Name="flow"  NumberOfComponents="3" format="ascii">-9.7650437394128736e-02 1.9530294524374869e-01 0.0000000000000000e+00  4.7057620011116131e-06 1.9530294524324338e-01 0.0000000000000000e+00  -2.2685086923980649e-10 1.9530294524392958e-01 0.0000000000000000e+00  -1.0425075507558294e-12 1.9530294524301300e-01 0.0000000000000000e+00  -6.6345359810828199e-13 1.9530294524410446e-01 0.0000000000000000e+00  -1.5957776256633812e-12 1.9530294524430222e-01 0.0000000000000000e+00  -1.0352722894094842e-12 1.9530294524459418e-01 0.0000000000000000e+00  -4.3557016016715163e-13 1.9530294524442615e-01 0.0000000000000000e+00  -9.1155334777260093e-13 1.9530294524377992e-01 0.0000000000000000e+00  -1.4840517177682108e-12 1.9530294524414293e-01 0.0000000000000000e+00  -1.6178584597078079e-12 1.9530294524336658e-01 0.0000000000000000e+00  -1.2404071606065369e-12 1.9530294524348404e-01 0.0000000000000000e+00  -1.1094811910194258e-12 1.9530294524388714e-01 0.0000000000000000e+00  -1.3986789980166350e-12 1.9530294524329020e-01 0.0000000000000000e+00  -1.6457738232761282e-13 1.9530294524354497e-01 0.0000000000000000e+00  7.0825442714838249e-13 1.9530294524279079e-01 0.0000000000000000e+00  5.7084147521052682e-13 1.9530294524349393e-01 0.0000000000000000e+00  9.0176479868174464e-13 1.9530294524419511e-01 0.0000000000000000e+00  2.2697451917130003e-10 1.9530294524324593e-01 0.0000000000000000e+00  -4.7057626929018416e-06 1.9530294524414749e-01 0.0000000000000000e+00  9.7650437394221953e-02 1.9530294524398251e-01 0.0000000000000000e+00  -9.7575152446065627e-02 5.8573737163843764e-01 0.0000000000000000e+00  4.7021345530117252e-06 5.8573737163854911e-01 0.0000000000000000e+00  -2.2711824710558623e-10 5.8573737163823192e-01 0.0000000000000000e+00  -8.1306077563580464e-13 5.8573737163834416e-01 0.0000000000000000e+00  -7.1171712172029862e-13 5.8573737163829565e-01 0.0000000000000000e+00  -1.2357405998542311e-12 5.8573737163883488e-01 0.0000000000000000e+00  -1.1035977825704331e-12 5.8573737163992956e-01 0.0000000000000000e+00  -5.4439857074565498e-13 5.8573737163878892e-01 0.0000000000000000e+00  -9.1424338053781878e-13 5.8573737163835782e-01 0.0000000000000000e+00  -1.7341044749264409e-12 5.8573737163857387e-01 0.0000000000000000e+00  -1.5829136845495866e-12 5.8573737163807382e-01 0.0000000000000000e+00  -8.5457063226935624e-13 5.8573737163818773e-01 0.0000000000000000e+00  -1.3833771594281688e-12 5.8573737163893136e-01 0.0000000000000000e+00  -1.4575329209480631e-12 5.8573737163856365e-01 0.0000000000000000e+00  -6.2151382586134294e-13 5.8573737163796669e-01 0.0000000000000000e+00  7.7771567671785215e-13 5.8573737163830797e-01 0.0000000000000000e+00  1.1973534725363037e-12 5.8573737163856854e-01 0.0000000000000000e+00  5.4531558599098025e-13 5.8573737163870310e-01 0.0000000000000000e+00  2.2687828296015075e-10 5.8573737163865580e-01 0.0000000000000000e+00  -4.7021344943870469e-06 5.8573737163845896e-01 0.0000000000000000e+00  9.7575152446163146e-02 5.8573737163831918e-01 0.0000000000000000e+00  -9.7349413685462599e-02 1.1705715787050286e+00 0.0000000000000000e+00  4.6912558974192261e-06 1.1705715787051567e+00 0.0000000000000000e+00  -2.2680791566071280e-10 1.1705715787049817e+00 0.0000000000000000e+00  -5.1807608074839989e-13 1.1705715787053634e+00 0.0000000000000000e+00  -6.4450182510026200e-13 1.1705715787052997e+00 0.0000000000000000e+00  3.7360039840468770e-13 1.1705715787053361e+00 0.0000000000000000e+00  -1.2888900765121651e-12 1.1705715787055562e+00 0.0000000000000000e+00  -1.6641236539534153e-12 1.1705715787054025e+00 0.0000000000000000e+00  -9.8864922292276994e-13 1.1705715787054796e+00 0.0000000000000000e+00  -1.9090804060577708e-12 1.1705715787054389e+00 0.0000000000000000e+00  -2.1935341372174869e-12 1.1705715787059721e+00 0.0000000000000000e+00  -5.8544912559512333e-13 1.1705715787053119e+00 0.0000000000000000e+00  -9.6522043402446035e-13 1.1705715787052113e+00 0.0000000000000000e+00  -2.0080379564662692e-12 1.1705715787055173e+00 0.0000000000000000e+00  -4.2168742158129198e-13 1.1705715787048423e+00 0.0000000000000000e+00  1.3898092962033839e-12 1.1705715787052207e+00 0.0000000000000000e+00  9.7861155956282876e-13 1.1705715787051272e+00 0.0000000000000000e+00  6.9295028286205693e-13 1.1705715787048430e+00 0.0000000000000000e+00  2.2641230687296805e-10 1.1705715787052009e+00 0.0000000000000000e+00  -4.6912564334342909e-06 1.1705715787052258e+00 0.0000000000000000e+00  9.7349413685378555e-02 1.1705715787057194e+00 0.0000000000000000e+00  -9.6973569184523781e-02 1.7536008492416759e+00 0.0000000000000000e+00  4.6731441864394849e-06 1.7536008492421125e+00 0.0000000000000000e+00  -2.2539218434855122e-10 1.7536008492424431e+00 0.0000000000000000e+00  -6.2731812355846726e-13 1.7536008492421211e+00 0.0000000000000000e+00  -6.5125499464373910e-13 1.7536008492427326e+00 0.0000000000000000e+00  -1.0132723136542452e-12 1.7536008492419621e+00 0.0000000000000000e+00  -1.0881219882170399e-12 1.7536008492407351e+00 0.0000000000000000e+00  -9.1510651498071015e-13 1.7536008492416952e+00 0.0000000000000000e+00  -9.4566897393549647e-13 1.7536008492422013e+00 0.0000000000000000e+00  -1.0304913613522863e-12 1.7536008492421857e+00 0.0000000000000000e+00  -1.4205388348175081e-12 1.7536008492428781e+00 0.0000000000000000e+00  -1.4061974407834657e-12 1.7536008492432933e+00 0.0000000000000000e+00  -1.2878091718512024e-12 1.7536008492427548e+00 0.0000000000000000e+00  -2.2350745843921321e-12 1.7536008492428539e+00 0.0000000000000000e+00  -9.3321261528232227e-13 1.7536008492442241e+00 0.0000000000000000e+00  1.2017649481004328e-12 1.7536008492428266e+00 0.0000000000000000e+00  1.0226341062171030e-12 1.7536008492420680e+00 0.0000000000000000e+00  4.1545654511483640e-13 1.7536008492418627e+00 0.0000000000000000e+00  2.2607875193840864e-10 1.7536008492419592e+00 0.0000000000000000e+00  -4.6731444176683258e-06 1.7536008492419899e+00 0.0000000000000000e+00  9.6973569184198916e-02 1.7536008492416100e+00 0.0000000000000000e+00  -9.6448198467320792e-02 2.3339261943729204e+00 0.0000000000000000e+00  4.6478271240453937e-06 2.3339261943734142e+00 0.0000000000000000e+00  -2.2463186560448171e-10 2.3339261943730185e+00 0.0000000000000000e+00  -4.5895504313273036e-13 2.3339261943730678e+00 0.0000000000000000e+00  -4.7323309316867324e-13 2.3339261943730545e+00 0.0000000000000000e+00  -2.0082381038995318e-12 2.3339261943731362e+00 0.0000000000000000e+00  -1.3202188199774392e-12 2.3339261943732210e+00 0.0000000000000000e+00  -3.9340228194455711e-14 2.3339261943731580e+00 0.0000000000000000e+00  -6.2159694503811878e-13 2.3339261943729075e+00 0.0000000000000000e+00  -1.3022153633223216e-12 2.3339261943731966e+00 0.0000000000000000e+00  -1.2521212339812036e-12 2.3339261943736167e+00 0.0000000000000000e+00  -6.5478975317856968e-13 2.3339261943743979e+00 0.0000000000000000e+00  -1.2104258784353332e-12 2.3339261943743557e+00 0.0000000000000000e+00  -2.8521523535663569e-13 2.3339261943746932e+00 0.0000000000000000e+00  -5.7621879580296005e-13 2.3339261943761955e+00 0.0000000000000000e+00  -1.0368483765444898e-12 2.3339261943744991e+00 0.0000000000000000e+00  2.1309363105885704e-14 2.3339261943734222e+00 0.0000000000000000e+00  3.8453948570713772e-13 2.3339261943729479e+00 0.0000000000000000e+00  2.2446263127372515e-10 2.3339261943726934e+00 0.0000000000000000e+00  -4.6478270631852548e-06 2.3339261943728338e+00 0.0000000000000000e+00  9.6448198468799193e-02 2.3339261943726668e+00 0.0000000000000000e+00  -9.5774111620504518e-02 2.9106527944789686e+00 0.0000000000000000e+00  4.6153426357016205e-06 2.9106527944780725e+00 0.0000000000000000e+00  -2.2288074661512696e-10 2.9106527944780169e+00 0.0000000000000000e+00  -4.7948851698437800e-13 2.9106527944790863e+00 0.0000000000000000e+00  -6.5070251293681617e-13 2.9106527944786049e+00 0.0000000000000000e+00  -6.6779609566787329e-13 2.9106527944790117e+00 0.0000000000000000e+00  -1.1431601108578068e-12 2.9106527944807516e+00 0.0000000000000000e+00  -1.4910573415372571e-12 2.9106527944788287e+00 0.0000000000000000e+00  -7.6382133064399098e-13 2.9106527944775298e+00 0.0000000000000000e+00  -1.8455622912129390e-13 2.9106527944793466e+00 0.0000000000000000e+00  -1.6163947300914035e-13 2.9106527944803933e+00 0.0000000000000000e+00  -1.0088365848564459e-12 2.9106527944788265e+00 0.0000000000000000e+00  -1.1484793182891893e-12 2.9106527944805602e+00 0.0000000000000000e+00  -2.0727622739186299e-13 2.9106527944799985e+00 0.0000000000000000e+00  -7.2588220311986959e-13 2.9106527944805851e+00 0.0000000000000000e+00  -1.3951810526718723e-12 2.9106527944804443e+00 0.0000000000000000e+00  -8.0116424341112405e-13 2.9106527944801881e+00 0.0000000000000000e+00  -6.5386294514627672e-14 2.9106527944795251e+00 0.0000000000000000e+00  2.2304171238356747e-10 2.9106527944788869e+00 0.0000000000000000e+00  -4.6153426278996560e-06 2.9106527944787950e+00 0.0000000000000000e+00  9.5774111621759708e-02 2.9106527944787048e+00 0.0000000000000000e+00  -9.4952348036131923e-02 3.4828913789449265e+00 0.0000000000000000e+00  4.5757415285858079e-06 3.4828913789444993e+00 0.0000000000000000e+00  -2.2046379352701922e-10 3.4828913789450722e+00 0.0000000000000000e+00  1.2664187648217664e-13 3.4828913789443057e+00 0.0000000000000000e+00  -5.1657456853651975e-13 3.4828913789446099e+00 0.0000000000000000e+00  -6.2128259052921119e-14 3.4828913789440628e+00 0.0000000000000000e+00  -1.3047388507078187e-12 3.4828913789439189e+00 0.0000000000000000e+00  -3.0502849002142517e-12 3.4828913789446494e+00 0.0000000000000000e+00  -1.5053649635547936e-13 3.4828913789453888e+00 0.0000000000000000e+00  1.1302893696039081e-12 3.4828913789454083e+00 0.0000000000000000e+00  -1.3622526186937247e-12 3.4828913789450575e+00 0.0000000000000000e+00  -6.4090598369897720e-13 3.4828913789451361e+00 0.0000000000000000e+00  8.7225149318551292e-14 3.4828913789454758e+00 0.0000000000000000e+00  -7.2385043522863155e-13 3.4828913789450247e+00 0.0000000000000000e+00  -4.5251609470445323e-13 3.4828913789444669e+00 0.0000000000000000e+00  -1.1504170549878859e-12 3.4828913789455673e+00 0.0000000000000000e+00  -6.9905381016729889e-13 3.4828913789459683e+00 0.0000000000000000e+00  -8.3568062410956873e-13 3.4828913789455265e+00 0.0000000000000000e+00  2.2026396356004950e-10 3.4828913789451930e+00 0.0000000000000000e+00  -4.5757422951831276e-06 3.4828913789451166e+00 0.0000000000000000e+00  9.4952348036869000e-02 3.4828913789453861e+00 0.0000000000000000e+00  -9.3984174812655183e-02 4.0497595973482543e+00 0.0000000000000000e+00  4.5290863092578916e-06 4.0497595973507696e+00 0.0000000000000000e+00  -2.1909071047079202e-10 4.0497595973493166e+00 0.0000000000000000e+00  -8.2971986020206625e-13 4.0497595973478306e+00 0.0000000000000000e+00  -5.0261394230614712e-13 4.0497595973472320e+00 0.0000000000000000e+00  -1.4787004915295506e-12 4.0497595973483120e+00 0.0000000000000000e+00  -8.9092163726429345e-13 4.0497595973469176e+00 0.0000000000000000e+00  1.3306727177042062e-13 4.0497595973494196e+00 0.0000000000000000e+00  8.0780339499816444e-14 4.0497595973512581e+00 0.0000000000000000e+00  -3.4297021630444272e-13 4.0497595973499019e+00 0.0000000000000000e+00  -4.6863387642790025e-13 4.0497595973493175e+00 0.0000000000000000e+00  -8.9175356193675185e-13 4.0497595973504996e+00 0.0000000000000000e+00  -9.5852645951604988e-13 4.0497595973489942e+00 0.0000000000000000e+00  -9.2922342247648916e-13 4.0497595973495875e+00 0.0000000000000000e+00  -1.3669784485300862e-13 4.0497595973495502e+00 0.0000000000000000e+00  -1.2820788734512425e-13 4.0497595973489151e+00 0.0000000000000000e+00  -1.1563024142776786e-12 4.0497595973490874e+00 0.0000000000000000e+00  -9.6400591637522112e-13 4.0497595973492810e+00 0.0000000000000000e+00  2.1853806833518586e-10 4.0497595973495848e+00 0.0000000000000000e+00  -4.5290857743585268e-06 4.0497595973499925e+00 0.0000000000000000e+00  9.3984174812574414e-02 4.0497595973502163e+00 0.0000000000000000e+00  -9.2871084799783232e-02 4.6103833799875007e+00 0.0000000000000000e+00  4.4754465068803945e-06 4.6103833799874332e+00 0.0000000000000000e+00  -2.1877901553125163e-10 4.6103833799864598e+00 0.0000000000000000e+00  -2.1856089327650144e-12 4.6103833799870415e+00 0.0000000000000000e+00  -1.9666683955496110e-13 4.6103833799868514e+00 0.0000000000000000e+00  -4.1452120597006058e-13 4.6103833799876801e+00 0.0000000000000000e+00  -1.3119581136471575e-14 4.6103833799881668e+00 0.0000000000000000e+00  1.5068689630803319e-12 4.6103833799883827e+00 0.0000000000000000e+00  -1.4208196308646054e-13 4.6103833799881890e+00 0.0000000000000000e+00  -6.3074552574891779e-13 4.6103833799879999e+00 0.0000000000000000e+00  -3.9891399950937850e-13 4.6103833799879741e+00 0.0000000000000000e+00  -7.6477075120789222e-13 4.6103833799878107e+00 0.0000000000000000e+00  -9.1348275436994715e-13 4.6103833799875318e+00 0.0000000000000000e+00  -4.9535589952061872e-13 4.6103833799878364e+00 0.0000000000000000e+00  -1.1136015745092189e-12 4.6103833799869660e+00 0.0000000000000000e+00  -1.4756949768088725e-12 4.6103833799873888e+00 0.0000000000000000e+00  -1.6366949125233499e-13 4.6103833799865859e+00 0.0000000000000000e+00  -3.8238181790762971e-13 4.6103833799882210e+00 0.0000000000000000e+00  2.1607025550009934e-10 4.6103833799891145e+00 0.0000000000000000e+00  -4.4754459718027640e-06 4.6103833799880505e+00 0.0000000000000000e+00  9.2871084803269083e-02 4.6103833799877130e+00 0.0000000000000000e+00  -9.1614794312537329e-02 5.1638982856220572e+00 0.0000000000000000e+00  4.4149051266508458e-06 5.1638982856200597e+00 0.0000000000000000e+00  -2.1363559360615173e-10 5.1638982856214479e+00 0.0000000000000000e+00  -9.4027659858845164e-14 5.1638982856226336e+00 0.0000000000000000e+00  3.9076381013688943e-14 5.1638982856236488e+00 0.0000000000000000e+00  -2.3401219524405054e-13 5.1638982856229285e+00 0.0000000000000000e+00  -2.8423754277604386e-13 5.1638982856252351e+00 0.0000000000000000e+00  2.1117661599861029e-13 5.1638982856228512e+00 0.0000000000000000e+00  -2.8277469302862903e-13 5.1638982856223219e+00 0.0000000000000000e+00  -3.3174419941962568e-13 5.1638982856226416e+00 0.0000000000000000e+00  -1.4246951899396111e-12 5.1638982856218707e+00 0.0000000000000000e+00  -1.5300424936363647e-12 5.1638982856218165e+00 0.0000000000000000e+00  -9.1681028994773161e-13 5.1638982856216460e+00 0.0000000000000000e+00  -1.2899528042704306e-12 5.1638982856216220e+00 0.0000000000000000e+00  -6.7802075023040121e-13 5.1638982856195188e+00 0.0000000000000000e+00  -7.0901872345401631e-13 5.1638982856210403e+00 0.0000000000000000e+00  -2.5528748420958864e-13 5.1638982856214843e+00 0.0000000000000000e+00  1.7703763650006602e-12 5.1638982856217028e+00 0.0000000000000000e+00  2.1291810844189647e-10 5.1638982856227775e+00 0.0000000000000000e+00  -4.4149065813288765e-06 5.1638982856221798e+00 0.0000000000000000e+00  9.1614794312891115e-02 5.1638982856218538e+00 0.0000000000000000e+00  -9.0217240448993000e-02 5.7094508343865691e+00 0.0000000000000000e+00  4.3475574237647826e-06 5.7094508343867494e+00 0.0000000000000000e+00  -2.1035980331862416e-10 5.7094508343874741e+00 0.0000000000000000e+00  -3.5868622393691388e-13 5.7094508343866899e+00 0.0000000000000000e+00  6.9463414239229711e-14 5.7094508343868933e+00 0.0000000000000000e+00  1.8851687339669078e-12 5.7094508343873782e+00 0.0000000000000000e+00  2.2477921132505149e-13 5.7094508343885231e+00 0.0000000000000000e+00  -2.1852715130153987e-12 5.7094508343884147e+00 0.0000000000000000e+00  -6.2126471495896362e-13 5.7094508343877077e+00 0.0000000000000000e+00  -1.0540242663758618e-12 5.7094508343866988e+00 0.0000000000000000e+00  -8.9047122360099832e-13 5.7094508343866393e+00 0.0000000000000000e+00  -6.3046575820489437e-13 5.7094508343870967e+00 0.0000000000000000e+00  -1.0272389045750697e-12 5.7094508343873658e+00 0.0000000000000000e+00  -2.3254917838854213e-12 5.7094508343865931e+00 0.0000000000000000e+00  -1.9238439328678648e-12 5.7094508343865300e+00 0.0000000000000000e+00  7.7684777619100356e-13 5.7094508343860086e+00 0.0000000000000000e+00  5.9427930705672271e-13 5.7094508343882726e+00 0.0000000000000000e+00  8.8874999927042299e-13 5.7094508343873658e+00 0.0000000000000000e+00  2.1001822266393076e-10 5.7094508343858372e+00 0.0000000000000000e+00  -4.3475588547065124e-06 5.7094508343860495e+00 0.0000000000000000e+00  9.0217240449054770e-02 5.7094508343859074e+00 0.0000000000000000e+00  -8.8680578140539562e-02 6.2461998237942460e+00 0.0000000000000000e+00  4.2735066698410455e-06 6.2461998237954566e+00 0.0000000000000000e+00  -2.0650759920778178e-10 6.2461998237954521e+00 0.0000000000000000e+00  -3.0102857191274927e-13 6.2461998237957825e+00 0.0000000000000000e+00  1.9437670682143493e-13 6.2461998237962151e+00 0.0000000000000000e+00  1.2760913025560800e-12 6.2461998237963190e+00 0.0000000000000000e+00  8.8455742873716904e-13 6.2461998237947052e+00 0.0000000000000000e+00  -8.4268179051661190e-13 6.2461998237967338e+00 0.0000000000000000e+00  -9.7834131545238552e-13 6.2461998237965934e+00 0.0000000000000000e+00  -1.5808058854473483e-12 6.2461998237964771e+00 0.0000000000000000e+00  -1.2403182905149343e-12 6.2461998237959415e+00 0.0000000000000000e+00  -1.3060449571904294e-12 6.2461998237952274e+00 0.0000000000000000e+00  -1.6086090255436453e-12 6.2461998237945968e+00 0.0000000000000000e+00  -2.1119782536235287e-12 6.2461998237936305e+00 0.0000000000000000e+00  -1.1586165576523203e-12 6.2461998237938694e+00 0.0000000000000000e+00  8.2188439243344324e-13 6.2461998237945773e+00 0.0000000000000000e+00  9.0021256806795387e-13 6.2461998237941847e+00 0.0000000000000000e+00  -5.0924281406710283e-13 6.2461998237948162e+00 0.0000000000000000e+00  2.0493344374703990e-10 6.2461998237934866e+00 0.0000000000000000e+00  -4.2735067476988893e-06 6.2461998237938969e+00 0.0000000000000000e+00  8.8680578141489205e-02 6.2461998237944290e+00 0.0000000000000000e+00  -8.7007176805936448e-02 6.7733176258103684e+00 0.0000000000000000e+00  4.1928657826982312e-06 6.7733176258099697e+00 0.0000000000000000e+00  -2.0296247794110075e-10 6.7733176258093311e+00 0.0000000000000000e+00  7.0389033710834405e-13 6.7733176258110435e+00 0.0000000000000000e+00  4.2364167421369158e-13 6.7733176258118641e+00 0.0000000000000000e+00  4.9883443687003112e-13 6.7733176258109697e+00 0.0000000000000000e+00  5.0000979277405318e-13 6.7733176258105221e+00 0.0000000000000000e+00  -7.4139999696520252e-13 6.7733176258088497e+00 0.0000000000000000e+00  -6.5040633004558520e-13 6.7733176258093355e+00 0.0000000000000000e+00  -2.1294915479623930e-12 6.7733176258089651e+00 0.0000000000000000e+00  -1.8378853984549726e-12 6.7733176258080414e+00 0.0000000000000000e+00  -1.3351346830608723e-12 6.7733176258087191e+00 0.0000000000000000e+00  -2.6672896379667450e-12 6.7733176258082581e+00 0.0000000000000000e+00  -3.0758113568750882e-12 6.7733176258082768e+00 0.0000000000000000e+00  -1.2045707557210683e-12 6.7733176258071790e+00 0.0000000000000000e+00  1.0066507778449223e-12 6.7733176258073753e+00 0.0000000000000000e+00  9.7131075726799989e-13 6.7733176258074552e+00 0.0000000000000000e+00  1.4053158373774770e-13 6.7733176258073451e+00 0.0000000000000000e+00  2.0169231415516151e-10 6.7733176258085432e+00 0.0000000000000000e+00  -4.1928651992942234e-06 6.7733176258085095e+00 0.0000000000000000e+00  8.7007176809256667e-02 6.7733176258084580e+00 0.0000000000000000e+00  -8.5199616715652612e-02 7.2899914629855180e+00 0.0000000000000000e+00  4.1057585323344116e-06 7.2899914629849647e+00 0.0000000000000000e+00  -1.9722296465639762e-10 7.2899914629865146e+00 0.0000000000000000e+00  2.1423956694317987e-12 7.2899914629869684e+00 0.0000000000000000e+00  8.9847247777222203e-14 7.2899914629877154e+00 0.0000000000000000e+00  1.8852074945107124e-15 7.2899914629868290e+00 0.0000000000000000e+00  -1.0059989073437159e-12 7.2899914629868148e+00 0.0000000000000000e+00  -1.6072984471605116e-12 7.2899914629847009e+00 0.0000000000000000e+00  -1.0070391551958072e-12 7.