<?xml version="1.0"?>
<VTKFile type="UnstructuredGrid"  version="0.1"  >
<UnstructuredGrid>
<Piece  NumberOfPoints="506" NumberOfCells="927">
<Points>
<DataArray  type="Float64"  NumberOfComponents="3"  format="ascii">0.0253163763831596 -0.05095008515408326 0  0.02646635899959049 -0.05225988253257415 0  0.02502149670340228 -0.05243561046763882 0  0.01846824474048517 -0.04149541481145257 0  0.01782868919038702 -0.04338851755545801 0  0.01904305817301197 -0.04274419001873621 0  0.0192363369162766 -0.06806970979678284 0  0.01785689970612189 -0.06858119646279974 0  0.01816465710605705 -0.06729533536873264 0  0.03307580228966352 -0.05623244866465846 0  0.03304454983566926 -0.05808833194342944 0  0.03147362087845901 -0.05656070851086208 0  0.01533533535351063 -0.06979991037261025 0  0.0177806445325376 -0.07005043122102393 0  0.01646203234597888 -0.06811342443084387 0  0.01017345837010273 -0.05769818894326342 0  0.01257096511573747 -0.05741073122222133 0  0.01199697692997241 -0.058984518130708 0  0.01470753125203114 -0.04816506250406229 0  0.01581567795051093 -0.04979263651326838 0  0.01423898291326179 -0.04967510961170915 0  0.05 -0.046875 0  0.04838162252857063 -0.0484375 0  0.04830480312230745 -0.04673855680545282 0  0.03965658412817928 -0.06102022076500465 0  0.03788556172893791 -0.06203052595151176 0  0.04026188792608635 -0.06274413791360257 0  0.03646473132841593 -0.0487266977067035 0  0.03567804538662531 -0.04684423509208469 0  0.03720001892537535 -0.04655850289330472 0  0.03072628767995273 -0.06184751883997637 0  0.03115040578880909 -0.06003372802837696 0  0.03202687516019807 -0.06100224316397799 0  0.01914387172830702 -0.06345432668240811 0  0.01904183715184792 -0.06150750363943223 0  0.01763933584190689 -0.06216030655882796 0  0.0328125 -0.05312500000000001 0  0.03185172221986971 -0.05133039393955258 0  0.03328223773659549 -0.05171902792461655 0  0.003880552158806201 -0.04910058949648512 0  0.004639589519810899 -0.05108934613081326 0  0.005570108460811736 -0.0499414484761177 0  0.03470250342566425 -0.06222309747987002 0  0.03270661615787385 -0.06211766788261659 0  0.03364747500351112 -0.06325105457070009 0  0.0337884473891351 -0.05460718489330078 0  0.0321356245381919 -0.05463308953185839 0  0.0396437922234081 -0.05261372697940805 0  0.03997754446209789 -0.0511507576845467 0  0.04105826602165569 -0.05283533998746703 0  0.0247793305670809 -0.05631957595084435 0  0.02619917778579364 -0.05802778737135143 0  0.02492128034734876 -0.05869428615775265 0  0.02164306295595804 -0.06702658770968295 0  0.02309723803175772 -0.06832518233624925 0  0.02097971601908238 -0.06879409185499595 0  0.01711132032047017 -0.07193570335093875 0  0.01598258986133356 -0.07106798872868814 0  0.01066098305406274 -0.05999515557027461 0  0.01209909079558958 -0.06050787089223954 0  0.01649073826091686 -0.06319659086967212 0  0.01570123454296709 -0.06506178719416507 0  0.01770106090999505 -0.06452207583910662 0  0.01728938824664831 -0.06065342293474459 0  0.002672434464373351 -0.05782442806434116 0  0.004205271826810189 -0.05906909110223223 0  0.003621073244015077 -0.05672544031758242 0  0.009461554335003694 -0.05904950974817084 0  0.03290049244401597 -0.04238139970258363 0  0.03373646600975794 -0.04433173846458283 0  0.03511731072848739 -0.04293786140075419 0  0.04464334080337827 -0.06477056026673604 0  0.04502387202811982 -0.06659229383285178 0  0.04636594091932174 -0.06552590861214863 0  0.003579743803523502 -0.05527424030410576 0  0.00495579046143639 -0.05615428398934548 0  0.01809300284513205 -0.05689299134079161 0  0.01981701831826052 -0.05842591866861049 0  0.01792103282159441 -0.05882232399720749 0  0.01454995940546648 -0.05199794358506395 0  0.01686434304608255 -0.05145915617355584 0  0.007184194424042271 -0.04772337119454249 0  0.009116470808511714 -0.04731590763080268 0  0.007927373114962557 -0.04646231940317579 0  0.02185322155471688 -0.04796886364206988 0  0.02117147262782209 -0.04651482738331746 0  0.02317806061277227 -0.04726948819474937 0  0.03869863810845114 -0.05851213874557144 0  0.04018585363524062 -0.05724246148436949 0  0.03970578764389624 -0.05956444608131971 0  0.01270832488148558 -0.05007117248908488 0  0.01282123189459499 -0.04818811416515179 0  0.01182500023256633 -0.04907329480983055 0  0.04205467609998415 -0.06146564627654705 0  0.04107518642763387 -0.06006088126008405 0  0.04241869617792832 -0.06016796568913897 0  0.01439721346977286 -0.05583102001882564 0  0.01422104128432557 -0.0574728398015178 0  0.02088671269095009 -0.06240702469651116 0  0.0278582381998454 -0.05655080703154879 0  0.02860271266695176 -0.05463752982112181 0  0.02637310899341614 -0.0557118438524549 0  0.02378330144214598 -0.0516705092605356 0  0.02507311958935473 -0.06271161136998743 0  0.02657608507230502 -0.06228073040903606 0  0.02551730029560318 -0.06142426381158862 0  0.0305796626780135 -0.05519119088158705 0  0.0314309378115113 -0.04933875006157912 0  0.03311732503601984 -0.04913370444965118 0  0.0376081921684235 -0.05245551308128505 0  0.03762419922489806 -0.05459874974087802 0  0.03635973676985995 -0.05369008569158945 0  0.04767128262860884 -0.05537540323700023 0  0.04546530640752131 -0.05503961419206276 0  0.04578782911147741 -0.05675321623119051 0  0.03686548041120438 -0.06032818054708596 0  0.036644526860098 -0.05856190909012812 0  0.03769074722308389 -0.05932798700863462 0  0.01172901776142153 -0.07037684730407788 0  0.01149171032184903 -0.07201869888808959 0  0.01024567414151233 -0.07100052562916147 0  0.04321758283034931 -0.06704044172466167 0  0.04133630972986371 -0.06599851068428712 0  0.04130559735643655 -0.06764829107165204 0  0.04313110864619899 -0.06285939600837437 0  0.04345056050076136 -0.06150011966148285 0  0.006734928674614752 -0.05146463867314664 0  0.008637288779891891 -0.05258740018528525 0  0.00688671743750553 -0.05338047456655459 0  0.01132326291384637 -0.05562964572743351 0  0.01288299677436642 -0.05538292627510294 0  0.02073553625659391 -0.06054214652517984 0  0.01913420206319778 -0.05989244632510003 0  0.02307251020656784 -0.04577510415514846 0  0.0213724062387126 -0.04492151990354357 0  0.04141166808534667 -0.05159229946940671 0  0.04316771177950235 -0.05055961249403544 0  0.04178869705860652 -0.05022403725139264 0  0.037033205797572 -0.05682482417137066 0  0.03841317868273451 -0.05712832193281868 0  0.005332838990544739 -0.06042849285714701 0  0.005783754170669378 -0.06253278840008002 0  0.006730960667624127 -0.06048731509119946 0  0.01437979286162626 -0.04363939227738707 0  0.01278171761862835 -0.04367259786063482 0  0.01355286895323156 -0.0423139200217296 0  0.0472227281394374 -0.06404123962307648 0  0.04542281870194612 -0.06345085768052849 0  0.04651019676850526 -0.06237066804404576 0  0.01512933394003292 -0.07220768844695416 0  0.02448333984417315 -0.04800472330961902 0  0.02500654499424886 -0.04669303744947168 0  0.02389766944944421 -0.05336055352824819 0  0.02505789171550941 -0.05462571702396751 0  0.0200352813999171 -0.04944197410413204 0  0.01897132622274226 -0.04818917069836885 0  0.02039596393456947 -0.04786566231201216 0  0.02255522939491745 -0.05050381790686167 0  0.02095559199324484 -0.05077897888898596 0  0.02151442938367597 -0.04940906557037485 0  0.04101455865131804 -0.05412690199292355 0  0.04137242529330159 -0.05622945225612468 0  0.04300194989211428 -0.05554265833234732 0  0.04458359100409873 -0.05142183950571137 0  0.0450942789909098 -0.0535172481422591 0  0.04558556164603902 -0.05228757776095139 0  0.04038356695604921 -0.04718651728124535 0  0.04087499337498022 -0.04913801795025204 0  0.03949842572283077 -0.04854765949591838 0  0.04661131594773271 -0.05312500000000001 0  0.03574277499268416 -0.04107817866960801 0  0.03820043002416379 -0.04093979798944077 0  0.03707928880466434 -0.04292150796345522 0  0.03243759091146019 -0.06496581287053931 0  0.03455716392834415 -0.06440960832956279 0  0.03353474093578226 -0.06589739558154034 0  0.0323993317698328 -0.06678194662539473 0  0.03108390978108366 -0.06594845893192823 0  0.02679267124047066 -0.0428532372923227 0  0.02821806380327154 -0.04112526145165905 0  0.02615798433030357 -0.04116160286013801 0  0.02372950319315786 -0.05788378649075276 0  0.02250150625287546 -0.06335204673888746 0  0.02250509796962503 -0.06529043073346426 0  0.02084932671181944 -0.0642776468381467 0  0.03083821191399366 -0.04255063245582474 0  0.03197162211996991 -0.04371228374323241 0  0.03072615116502058 -0.04446503378680532 0  0.01965556274601837 -0.05175082112889391 0  0.01877450229532074 -0.05042027151892382 0  0.04223301087510136 -0.04569262834787229 0  0.04031932057730703 -0.04493236495192904 0  0.03939012096774194 -0.04309475806451613 0  0.04119780571004474 -0.04209087172511992 0  0.04081367777890351 -0.04352865775540111 0  0.01197199101441062 -0.06755294829741498 0  0.01337340521578251 -0.06909593087496524 0  0.01186406041631937 -0.06896606418534836 0  0.04808091073522938 -0.06576331931689557 0  0.04861206813000137 -0.06395989746230757 0  0.04678717767873879 -0.06718750000000001 0  0.008313665520766877 -0.06005709425733914 0  0.007768576962588843 -0.05771474349345229 0  0.00657822564587902 -0.05909631678341087 0  0.01354726629139471 -0.05961923898792222 0  0.003215512932028335 -0.04739683855119951 0  0.002603650539220802 -0.04934298948539233 0  0.002176752981164273 -0.0505705863148308 0  0.01395860158789553 -0.06402955474289401 0  0.01448547405983569 -0.06574069725137739 0  0.01349893281808287 -0.07116271226355417 0  0.04717288172427113 -0.0578125 0  0.04846232952183962 -0.05680668843943944 0  0.04858644086213557 -0.05859375 0  0.03479367289758345 -0.04895195240542109 0  0.02934782918035935 -0.04845372965486152 0  0.03107876921314726 -0.04727360457566997 0  0.03580429802300419 -0.04480791474934491 0  0.03387767081518499 -0.04110627416298633 0  0.031751809693708 -0.04128127335665044 0  0.02805149774555685 -0.05153506231567133 0  0.02853879771183543 -0.04983387946955761 0  0.02677174314827488 -0.05083202728684691 0  0.03031862075128205 -0.05266953722613586 0  0.029
[...]
<PointData  Vectors="flow"> 
<DataArray  type="Float64"  Name="flow"  NumberOfComponents="3" format="ascii">-1.2615062588754735e-07 1.8661758677728932e-08 0.0000000000000000e+00  2.3740971040521086e-09 -1.1689478878283710e-07 0.0000000000000000e+00  1.0962346527773749e-07 1.2857111482435619e-07 0.0000000000000000e+00  -1.2783520640335274e-08 -1.0512029853137925e-08 0.0000000000000000e+00  -2.8628516753587338e-08 -2.6013401167510074e-08 0.0000000000000000e+00  7.8829198606465374e-08 4.2623594481645355e-08 0.0000000000000000e+00  -3.5441950184335047e-08 7.4649464354618216e-08 0.0000000000000000e+00  2.5734864675646390e-09 8.8685664123771223e-08 0.0000000000000000e+00  -2.9784456828312762e-08 1.3701151532671139e-08 0.0000000000000000e+00  -3.5397579727541670e-08 3.5119399639383959e-09 0.0000000000000000e+00  -3.8837751101516201e-08 1.4149153835915348e-08 0.0000000000000000e+00  -1.7448273005686983e-07 -1.4080478135080315e-09 0.0000000000000000e+00  -2.2695479969347608e-10 1.8991052938415042e-08 0.0000000000000000e+00  -2.1348202549378342e-08 -1.7879374243930868e-08 0.0000000000000000e+00  1.2740406034469813e-08 -6.1286349579347354e-08 0.0000000000000000e+00  -1.2010831209216086e-08 -2.0876382152381251e-08 0.0000000000000000e+00  -4.6755268948584234e-08 8.4425492977074026e-08 0.0000000000000000e+00  9.2824828598420463e-08 -6.7937910949200301e-08 0.0000000000000000e+00  9.3244151803886839e-09 5.2136270247869847e-09 0.0000000000000000e+00  1.7642143922424252e-08 3.4404637158496543e-08 0.0000000000000000e+00  -2.2521194933087328e-08 -5.4466735675635948e-08 0.0000000000000000e+00  -7.3166761526129010e-09 -4.6500850767839667e-08 0.0000000000000000e+00  -4.7348670202243564e-09 5.6709038809621006e-09 0.0000000000000000e+00  -4.8582347813598068e-08 1.9428058319630360e-08 0.0000000000000000e+00  2.0376076334514627e-08 1.3088583029545336e-10 0.0000000000000000e+00  4.3586502727552123e-09 -1.6154061771237028e-08 0.0000000000000000e+00  -2.1416111782974185e-08 -1.6031127698831755e-08 0.0000000000000000e+00  -4.8820504572819787e-08 7.0444666892328788e-08 0.0000000000000000e+00  5.8986948169801642e-09 3.7984670346406273e-08 0.0000000000000000e+00  8.1008608771170574e-08 7.6781037144110820e-09 0.0000000000000000e+00  -3.0027455628781658e-08 2.5428316907760233e-08 0.0000000000000000e+00  1.3950820269586028e-07 -4.1428166064515534e-08 0.0000000000000000e+00  -1.2658198156984374e-07 1.7394458756266611e-08 0.0000000000000000e+00  2.8381573171499348e-08 -4.3442136530270064e-09 0.0000000000000000e+00  -9.9248603373853337e-08 -2.9134830450200392e-08 0.0000000000000000e+00  1.2807498045382164e-07 -4.1313634063986779e-08 0.0000000000000000e+00  3.7695252785492790e-08 -6.7380221142184095e-08 0.0000000000000000e+00  -7.6111997764896853e-08 -4.8229685439551520e-08 0.0000000000000000e+00  1.9584782222186618e-08 8.3898636341292278e-08 0.0000000000000000e+00  -5.7786010879061631e-09 3.5514580384456172e-09 0.0000000000000000e+00  -3.0190338819243136e-08 -5.7152751538775186e-09 0.0000000000000000e+00  1.3252117285878531e-08 -1.0563637834840346e-08 0.0000000000000000e+00  -2.5215220038903021e-08 1.7572543843582364e-08 0.0000000000000000e+00  -1.8356567786214864e-08 -6.7443205000915411e-08 0.0000000000000000e+00  1.5194249747296307e-08 -4.7204308309840413e-08 0.0000000000000000e+00  1.7053106594430323e-08 1.3623846839726868e-07 0.0000000000000000e+00  3.8900234059680578e-08 -6.5228913805655940e-08 0.0000000000000000e+00  5.6004200588732694e-09 1.1082076897260373e-07 0.0000000000000000e+00  -4.0769925517437644e-08 -1.7995399843328933e-08 0.0000000000000000e+00  5.9609369118312056e-08 -1.4523071306015815e-08 0.0000000000000000e+00  -1.5669261466594068e-07 -1.5045715285958929e-07 0.0000000000000000e+00  1.1997664077151645e-07 8.5249611830047797e-08 0.0000000000000000e+00  -1.1193898655500971e-07 1.1872850814454839e-07 0.0000000000000000e+00  3.1968902779886066e-08 3.1277850766924895e-08 0.0000000000000000e+00  -5.5833540313446191e-08 -5.7562401158793837e-08 0.0000000000000000e+00  3.8421698174609762e-08 1.2833866929035283e-08 0.0000000000000000e+00  -3.1760123721475711e-09 -3.4121253023714913e-09 0.0000000000000000e+00  -1.2743854540504191e-08 6.1414482659967611e-08 0.0000000000000000e+00  -3.0884731341798572e-08 -1.3133307556504782e-08 0.0000000000000000e+00  -1.2366798751362887e-07 1.7699125125313729e-08 0.0000000000000000e+00  1.0466831597837134e-08 -1.1444632643501698e-07 0.0000000000000000e+00  5.8576882814557110e-09 1.0669049860020504e-07 0.0000000000000000e+00  -6.8993170094045243e-08 9.1675484112782636e-08 0.0000000000000000e+00  -7.2807504692338208e-08 8.0569759873662391e-08 0.0000000000000000e+00  9.4876234928431037e-09 7.9065668639508106e-09 0.0000000000000000e+00  4.1763040803975531e-08 7.7111009250122471e-09 0.0000000000000000e+00  -4.1402969031252775e-09 -5.7706194909933989e-09 0.0000000000000000e+00  4.3968005001768592e-09 -1.1682809580737475e-07 0.0000000000000000e+00  -3.3694258004114125e-08 2.6447488030860519e-08 0.0000000000000000e+00  7.7664443122488732e-09 -6.4018736649677719e-08 0.0000000000000000e+00  1.2306568638280258e-08 -1.7437237511276423e-10 0.0000000000000000e+00  -6.8600198808704222e-09 6.3874886536443756e-09 0.0000000000000000e+00  7.5245959265100796e-09 4.4238297943099593e-09 0.0000000000000000e+00  9.4358682998183076e-10 -1.4873835790310422e-08 0.0000000000000000e+00  -7.1853985155432340e-09 1.0027622432653341e-09 0.0000000000000000e+00  7.6093767235493289e-09 -1.2614004971193622e-08 0.0000000000000000e+00  7.3532177226092767e-08 -2.6587159933297323e-08 0.0000000000000000e+00  -5.8581760125412682e-08 1.4672026740196332e-07 0.0000000000000000e+00  2.9395157794680312e-08 7.8598501449019687e-08 0.0000000000000000e+00  -6.5936773157058358e-08 -1.1958934234280924e-08 0.0000000000000000e+00  -1.1904830733525766e-08 4.0541163375702623e-09 0.0000000000000000e+00  -2.2253012567947424e-08 -1.8327553295430428e-08 0.0000000000000000e+00  1.9562919545205381e-08 -1.1693844922201035e-08 0.0000000000000000e+00  2.2115461853775155e-08 7.1155916120988734e-09 0.0000000000000000e+00  -1.4783051263139458e-08 -1.4372010747817829e-08 0.0000000000000000e+00  -1.0261425846891569e-08 3.8719670850767727e-08 0.0000000000000000e+00  3.7851490666535596e-08 -1.7352643395049329e-08 0.0000000000000000e+00  8.2636127951576345e-09 -9.8005049755764170e-08 0.0000000000000000e+00  -1.4505694878588014e-08 3.7488427162922326e-08 0.0000000000000000e+00  -2.3969396448483235e-08 7.9515459650369382e-09 0.0000000000000000e+00  3.4621976372441091e-08 -1.2930415565447580e-08 0.0000000000000000e+00  -2.9319273691563807e-09 9.0901795410799514e-09 0.0000000000000000e+00  2.3507005858498374e-08 2.6845260755612609e-10 0.0000000000000000e+00  -7.1666823957885163e-10 1.8621512586869133e-08 0.0000000000000000e+00  2.7965673227128012e-08 -4.7720832475327085e-09 0.0000000000000000e+00  -9.3293179454731531e-08 1.1794071431294955e-08 0.0000000000000000e+00  3.8206239605716362e-09 7.0931507850929273e-08 0.0000000000000000e+00  -1.4912126763559894e-08 -7.0064475802007694e-08 0.0000000000000000e+00  -4.7686057142180945e-09 -1.8135860414163211e-08 0.0000000000000000e+00  -8.3658713664891521e-08 -1.8783993218298689e-07 0.0000000000000000e+00  -4.9229346897394193e-08 1.4931647729959213e-07 0.0000000000000000e+00  5.9246214794287943e-08 -2.1826171695921003e-08 0.0000000000000000e+00  1.7987805895815149e-08 1.6686185237258385e-07 0.0000000000000000e+00  -1.5561325191906742e-07 -3.3979239205340341e-07 0.0000000000000000e+00  6.4376984219151223e-08 -6.0193630046508657e-08 0.0000000000000000e+00  1.3414470197102871e-07 1.2623500448777126e-07 0.0000000000000000e+00  1.0663489721996086e-07 -7.2308470560723118e-08 0.0000000000000000e+00  1.3227155344891808e-09 4.3005562693133745e-08 0.0000000000000000e+00  7.3613834654277345e-08 -3.0834453024266487e-08 0.0000000000000000e+00  3.3575665008762764e-09 4.9133515006455869e-08 0.0000000000000000e+00  2.9505647356268867e-08 -4.8768437831219968e-08 0.0000000000000000e+00  1.3542679310955228e-07 9.8241451323382642e-08 0.0000000000000000e+00  -1.6422506582146149e-08 1.3461548321277021e-09 0.0000000000000000e+00  2.1364983785480884e-08 -1.4618016310055399e-08 0.0000000000000000e+00  -1.8780715204764709e-08 4.2329419322817021e-08 0.0000000000000000e+00  3.8865877835718257e-08 1.2357609420589464e-08 0.0000000000000000e+00  -3.4601156197284465e-08 7.4452735984985689e-09 0.0000000000000000e+00  1.4309437260481079e-08 4.4751362094486450e-09 0.0000000000000000e+00  -2.3772706602049644e-08 -1.1860947400507301e-08 0.0000000000000000e+00  4.7600978190136561e-09 -5.8208713462560217e-09 0.0000000000000000e+00  -1.6451014068288608e-08 -5.1480862479146103e-10 0.0000000000000000e+00  -7.3848195345430963e-09 -1.3334226319659984e-10 0.0000000000000000e+00  -4.4170975772732007e-09 -1.1558129007436919e-08 0.0000000000000000e+00  1.0068027045264935e-09 9.7050854101587364e-09 0.0000000000000000e+00  -3.4775076481078210e-09 -1.7608520685965508e-08 0.0000000000000000e+00  2.1720923494826647e-08 -1.7668289284124572e-08 0.0000000000000000e+00  1.7508518085852841e-08 -1.0518820260046671e-08 0.0000000000000000e+00  -1.5574435161221946e-08 -1.5003473484858054e-09 0.0000000000000000e+00  4.8867227814486338e-09 1.8119899448351870e-08 0.0000000000000000e+00  4.5534523670184989e-08 1.3392412010565809e-08 0.0000000000000000e+00  -1.1338576045099934e-07 -8.1580226957680351e-08 0.0000000000000000e+00  5.5814530193069708e-08 -3.6665285305208701e-08 0.0000000000000000e+00  1.0028299448433786e-07 -5.2372440738112215e-08 0.0000000000000000e+00  6.0611539694784184e-09 -6.0710556758943993e-08 0.0000000000000000e+00  -4.2975825664697168e-08 -2.1195678917177129e-08 0.0000000000000000e+00  -1.6455662722676090e-08 -7.2073104192078915e-08 0.0000000000000000e+00  1.1538373183328025e-08 -2.4965235774567255e-08 0.0000000000000000e+00  4.1014022345348349e-08 2.2738726562589815e-08 0.0000000000000000e+00  3.9273043038559594e-08 2.9022795824557605e-08 0.0000000000000000e+00  -5.2524645721328821e-09 6.7191750584222212e-08 0.0000000000000000e+00  1.3399407955413148e-08 1.9259988699560350e-08 0.0000000000000000e+00  9.3725684869420991e-09 2.2247477584422320e-08 0.0000000000000000e+00  -1.5137549330897088e-08 3.1188273597859987e-08 0.0000000000000000e+00  -4.8076138997371734e-09 -1.0028808932833332e-08 0.0000000000000000e+00  8.5799405129505603e-09 5.6817861227567599e-09 0.0000000000000000e+00  -7.5821700919641316e-09 -4.1015290607382558e-09 0.0000000000000000e+00  -1.2829490741440115e-08 2.0495366859148420e-08 0.0000000000000000e+00  -7.2470678673221900e-10 8.1341541308919905e-10 0.0000000000000000e+00  1.5927363903848917e-08 -1.1423590716057052e-08 0.0000000000000000e+00  -1.0226117008859797e-08 -2.0358379879619861e-08 0.0000000000000000e+00  -1.4407268604424545e-08 2.2861716764895175e-08 0.0000000000000000e+00  -2.0966307800549929e-08 4.4307172750758312e-08 0.0000000000000000e+00  -3.3623524268256927e-07 1.5869360484673550e-08 0.0000000000000000e+00  9.0435459741848528e-08 -9.5052553504918964e-08 0.0000000000000000e+00  -5.4977185079340785e-09 4.5920085796320569e-08 0.0000000000000000e+00  -5.9154536178276884e-08 3.7671039451809135e-09 0.0000000000000000e+00  1.0618183787396808e-08 -6.8772811514373243e-09 0.0000000000000000e+00  5.4623464320322345e-08 1.6490519088236938e-08 0.0000000000000000e+00  -4.0718281147857444e-08 9.1657641594338039e-08 0.0000000000000000e+00  6.2277865726038430e-08 -6.9998286840759508e-09 0.0000000000000000e+00  7.6555961282291787e-08 4.4023018742394595e-08 0.0000000000000000e+00  -2.0407128426688771e-08 -1.1318327187071835e-08 0.0000000000000000e+00  1.5031607027118867e-08 -5.9324830234108358e-09 0.0000000000000000e+00  -2.4659653619139632e-08 -5.6009999750717567e-09 0.0000000000000000e+00  -2.1940191832670407e-09 -1.2228129417278989e-08 0.0000000000000000e+00  1.3826729318886545e-08 9.8537768652161871e-08 0.0000000000000000e+00  2.8093643500279789e-08 -1.0489288012944130e-07 0.0000000000000000e+00  -3.7634550861748836e-08 5.4985646683928521e-08 0.0000000000000000e+00  4.1751597396337509e-09 4.5076606010134690e-08 0.0000000000000000e+00  -9.7073250599931680e-09 -1.7855121012587345e-08 0.0000000000000000e+00  1.0795108811279981e-08 2.4263434781184546e-08 0.0000000000000000e+00  -1.3274333272562691e-08 -6.9884846563302082e-09 0.0000000000000000e+00  4.7234021219988670e-09 1.5601180182366369e-08 0.0000000000000000e+00  3.0954688850322567e-08 3.1783401229830498e-08 0.0000000000000000e+00  -2.6370304435985736e-08 -2.0910111131174638e-09 0.0000000000000000e+00  5.6394807142505405e-09 3.9092143290125658e-08 0.0000000000000000e+00  -2.4016567353645219e-08 2.1205800379506191e-08 0.0000000000000000e+00  1.8296716619102978e-09 -3.1390214682853141e-08 0.0000000000000000e+00  -1.3027211949710598e-08 -3.6544399295007829e-08 0.0000000000000000e+00  1.0080015244037610e-08 1.4850248803807124e-08 0.0000000000000000e+00  -4.7368560562384689e-09 -1.8996517787305305e-08 0.0000000000000000e+00  -4.7286838866064189e-08 7.5035654408802347e-08 0.0000000000000000e+00  1.2487114478488768e-07 -6.1486228234856711e-08 0.0000000000000000e+00  -6.2344872008974583e-09 1.9804095852528080e-08 0.0000000000000000e+00  -5.6997600504640290e-08 -2.6429285789926528e-08 0.0000000000000000e+00  1.7870344306056957e-08 6.8411958758191216e-10 0.0000000000000000e+00  1.1736864075044536e-08 1.4167763290857854e-09 0.0000000000000000e+00  -5.2655726271752853e-09 -6.3890080649772592e-09 0.0000000000000000e+00  -1.2306490488483353e-07 6.4953931243078367e-08 0.0000000000000000e+00  -9.1571653298671083e-10 -5.7081937183529161e-08 0.0000000000000000e+00  -2.0802814910675993e-08 4.4294532737313213e-08 0.0000000000000000e+00  5.1052851865650344e-08 6.3326442833276069e-08 0.0000000000000000e+00  -2.6798584984501384e-09 6.6661524859575914e-09 0.0000000000000000e+00  -7.1319593532976391e-09 4.5497459729580035e-08 0.0000000000000000e+00  -2.0407305131232145e-08 -7.3208133089575146e-08 0.0000000000000000e+00  -2.9658035751575416e-08 -3.3624126872720179e-08 0.0000000000000000e+00  1.0912060910798133e-08 -1.1063303595527302e-08 0.0000000000000000e+00  -2.2042873464400508e-09 1.0148806225155893e-07 0.0000000000000000e+00  -3.1545755195739056e-09 -7.8407881870838221e-09 0.0000000000000000e+00  1.1171371649286848e-08 7.6656298315584244e-09 0.0000000000000000e+00  -4.4295232442227994e-09 4.4733029674414882e-09 0.0000000000000000e+00  4.5927198954368355e-08 9.0059295987170946e-08 0.0000000000000000e+00  -6.1629000835869862e-09 -5.7213991670734493e-08 0.0000000000000000e+00  -4.2984627093147122e-08 -4.7087941448275103e-08 0.0000000000000000e+00  4.9995620645391736e-08 -7.2657738238989686e-09 0.0000000000000000e+00  1.8487455073197350e-08 -1.8117883173719975e-08 0.0000000000000000e+00  -1.1820331828176370e-08 -8.7306522044390405e-09 0.0000000000000000e+00  2.3275004799569370e-08 5.9692013077215888e-09 0.0000000000000000e+00  1.7270701676104832e-08 -7.6498629986129273e-09 0.0000000000000000e+00  -5.0501651127660136e-08 -4.3678324148315813e-08 0.0000000000000000e+00  2.7705853211327520e-08 -1.7958331660658958e-08 0.0000000000000000e+00  6.4158638838246169e-09 -2.2452375650790010e-08 0.0000000000000000e+00  3.9309387320986642e-08 2.9690276484622084e-08 0.0000000000000000e+00  1.3774412560156964e-08 -4.8194076041310504e-08 0.0000000000000000e+00  -2.3776820705035137e-08 -6.6701843195239741e-08 0.0000000000000000e+00  -3.4864729195176135e-08 -2.2455204218203020e-08 0.0000000000000000e+00  1.0810441990496382e-08 2.0973798360740614e-08 0.0000000000000000e+00  -2.1810489852542855e-08 -4.8258668151841332e-08 0.0000000000000000e+00  -5.7885465396009938e-09 -6.2039225849502741e-09 0.0000000000000000e+00  -4.5650681330865669e-09 -2.2411935462423835e-08 0.0000000000000000e+00  8.1159941764000218e-08 -2.1812743811138009e-08 0.0000000000000000e+00  5.2134884180119180e-08 7.1075636554744493e-08 0.0000000000000000e+00  -6.5133889507168455e-08 6.5879098176786300e-08 0.0000000000000000e+00  1.6735445190384452e-08 6.4284259440190471e-08 0.0000000000000000e+00  -1.8316769446668430e-09 -6.6214474693862483e-08 0.0000000000000000e+00  2.0789825185341562e-08 -1.4320211444483396e-08 0.0000000000000000e+00  -9.6041531394191346e-08 -3.6000283640829664e-08 0.0000000000000000e+00  1.5588175382597303e-07 -9.7160668278416857e-09 0.0000000000000000e+00  1.1116421974762657e-08 -3.9901065359616386e-08 0.0000000000000000e+00  -3.4645604016957707e-09 -7.3338299686342710e-10 0.0000000000000000e+00  -1.0591912513210830e-09 1.7976154734498080e-08 0.0000000000000000e+00  6.6182920183055075e-09 -6.2365098418180935e-09 0.0000000000000000e+00  -8.3871516489106764e-09 2.3527261758893402e-08 0.0000000000000000e+00  -2.3199172155901893e-08 -5.3959821371665634e-09 0.0000000000000000e+00  1.9875029025423188e-08 -1.2020366581223571e-07 0.0000000000000000e+00  -4.1187240283130921e-08 8.2918540674466437e-08 0.0000000000000000e+00  -4.0538097985250040e-08 -1.1373608746424410e-07 0.0000000000000000e+00  1.4622308950301462e-07 -4.9562625229155785e-08 0.0000000000000000e+00  8.4151093487575934e-09 3.0176079935871894e-08 0.0000000000000000e+00  2.2253802969238759e-09 7.5901412154023760e-10 0.0000000000000000e+00  2.0789669245553513e-09 8.6141792575662528e-09 0.0000000000000000e+00  2.9642590725692190e-08 -7.0263967826434879e-08 0.0000000000000000e+00  -4.4020178138673445e-08 -9.2837590900871482e-08 0.0000000000000000e+00  -6.4537295118763276e-09 5.5730996048833127e-08 0.0000000000000000e+00  2.5876349750345584e-08 -1.6472666353054778e-08 0.0000000000000000e+00  -1.1307211397215559e-08 -1.2337932001624173e-08 0.0000000000000000e+00  2.2706838534552722e-09 -9.0556707476953156e-10 0.0000000000000000e+00  8.9784346127633114e-09 -1.3204388429300949e-08 0.0000000000000000e+00  -4.4577631823750508e-09 7.0000496152182314e-10 0.0000000000000000e+00  -2.9487283924302058e-08 1.4833430622781199e-08 0.0000000000000000e+00  7.1873893632196799e-08 1.1013415865490028e-07 0.0000000000000000e+00  -3.4886647702802794e-08 -3.7536822942670117e-08 0.0000000000000000e+00  -1.6638016748515573e-07 -2.4308763993548885e-08 0.0000000000000000e+00  5.5886255848557757e-09 -1.4059983038039124e-08 0.0000000000000000e+00  -2.0237292563025130e-09 1.5529591882462869e-08 0.0000000000000000e+00  7.9764125162658108e-08 5.7401783432558498e-08 0.0000000000000000e+00  -1.7398602013928767e-08 7.3813053502674711e-09 0.0000000000000000e+00  1.8495156725937768e-07 6.6134075615256830e-08 0.0000000000000000e+00  -1.5472672683194082e-07 -1.3663635872984979e-07 0.0000000000000000e+00  2.3828993420703913e-08 2.0707907581188900e-08 0.0000000000000000e+00  8.9342645217928449e-09 -1.5744310447233805e-08 0.0000000000000000e+00  -1.5352816785244183e-08 7.2316893839448851e-09 0.0000000000000000e+00  -4.3522876032925425e-09 -1.5485256300841203e-08 0.0000000000000000e+00  1.1314901704881142e-08 -7.0907859173411790e-10 0.0000000000000000e+00  -2.4595089823945160e-08 -1.5134768629037502e-08 0.0000000000000000e+00  9.9924708098945978e-09 3.6279161149878717e-09 0.0000000000000000e+00  2.0612045787111294e-09 2.7910376607878571e-09 0.0000000000000000e+00  -4.3318944602151713e-08 -1.9068773193428559e-09 0.0000000000000000e+00  1.9238114590464659e-08 -7.1078337493539987e-08 0.0000000000000000e+00  -5.3868244501406176e-11 -2.2587041237426914e-08 0.0000000000000000e+00  1.5154020669883909e-08 7.2534377139329850e-08 0.0000000000000000e+00  -3.2414116734150260e-09 1.4339268684296419e-08 0.0000000000000000e+00  2.0146872509627387e-09 -6.3762040390715081e-09 0.0000000000000000e+00  -5.0770255200305797e-10 5.3824213087574630e-09 0.0000000000000000e+00  -4.7256965673693747e-09 -7.0392820122204884e-09 0.0000000000000000e+00  -1.7850177368717341e-08 -7.5912684654637663e-09 0.0000000000000000e+00  3.4752009421780240e-08 -1.9794047519629266e-08 0.0000000000000000e+00  1.0663224801177137e-08 -9.5423971785971843e-09 0.0000000000000000e+00  -1.3572695001642042e-08 1.4474031482833972e-08 0.0000000000000000e+00  2.4896399593549667e-08 1.5921518785119773e-08 0.0000000000000000e+00  -4.