<?xml version="1.0"?>
<VTKFile type="UnstructuredGrid"  version="0.1"  >
<UnstructuredGrid>
<Piece  NumberOfPoints="806" NumberOfCells="1504">
<Points>
<DataArray  type="Float64"  NumberOfComponents="3"  format="ascii">0.01846824474048517 -0.04149541481145257 0  0.01782868919038702 -0.04338851755545801 0  0.01904305817301197 -0.04274419001873621 0  0.04733901150449811 -0.03996872119408579 0  0.04829208008188312 -0.04092308629865739 0  0.04667373753676338 -0.04108798278486302 0  0.01552943322599933 -0.01039223976967649 0  0.01561231669066057 -0.008674083460499629 0  0.01413052010119659 -0.009389502160894639 0  0.03295147424067876 -0.01620437186370464 0  0.032001952132051 -0.01447302962147942 0  0.03352088685144456 -0.01473415368338696 0  0.009071852058287186 -0.03111646240531644 0  0.009454590536262899 -0.02926375325908127 0  0.008053957990568473 -0.0299402944179232 0  0.04393709534775342 -0.03399416543518065 0  0.0450552879070476 -0.03228428374499481 0  0.04345356682255066 -0.03218454146111794 0  0.03218160891894395 -0.02842571783788788 0  0.03055812711423551 -0.02730942100275788 0  0.03190841513955275 -0.02696645140373315 0  0.02059820391388823 -0.008744628494184007 0  0.02236002896120308 -0.01029553220276665 0  0.02069438039481685 -0.01041153970082536 0  0.01492528999248245 -0.002433543897202234 0  0.01607090679295778 -0.003444215195152167 0  0.01610599002356381 -0.001455662474053389 0  0.01533845899304755 -0.03450745320159019 0  0.01291635033112928 -0.03408703642975243 0  0.01431567335582407 -0.03550779203295518 0  0.05 -0.046875 0  0.04838162252857063 -0.0484375 0  0.04830480312230745 -0.04673855680545282 0  0.0335055138043014 -0.01319301380430141 0  0.03503329596179407 -0.0150307462328856 0  0.03473191852987378 -0.01692937153329831 0  0.03062350339451905 -0.01195958995920541 0  0.02880183116468505 -0.01324826702959288 0  0.0303485822656615 -0.01350285709122089 0  0.03646473132841593 -0.0487266977067035 0  0.03567804538662531 -0.04684423509208469 0  0.03720001892537535 -0.04655850289330472 0  0.0328125 -0.05312500000000001 0  0.03185172221986971 -0.05133039393955258 0  0.03328223773659549 -0.05171902792461655 0  0.03686427007144817 -0.01349487103951888 0  0.03895981700495387 -0.01307268484765471 0  0.03814432517406528 -0.01443672202163861 0  0.03125 -0.01875 0  0.03293360810408181 -0.02017879740592817 0  0.0324533095215602 -0.01771284205542287 0  0.0439453125 -0.0158203125 0  0.04237763270340716 -0.0175875744465049 0  0.04439608695310726 -0.01807389191733877 0  0.0182766464026848 -0.03019791398854459 0  0.02042604155621803 -0.02955189065163524 0  0.0197299190175258 -0.03137365445772399 0  0.01379230725571167 -0.03273328139531854 0  0.01501791995124707 -0.03322599139945957 0  0.02155204304257197 -0.03095624460965786 0  0.02191349065759114 -0.02853819219671415 0  0.02305230917876158 -0.02994446202994329 0  0.01329990464676595 -0.03651525526650057 0  0.01388418709928712 -0.03784026285822586 0  0.01225930750566253 -0.03749767039702803 0  0.01916997955773587 -0.006358580516425179 0  0.01891769558890485 -0.008130063332440622 0  0.02112680287951949 -0.007182894483686506 0  0.02574373313225683 -0.03940295267576162 0  0.02615798433030357 -0.04116160286013801 0  0.0269435244416797 -0.04004845471237795 0  0.04178251006096394 -0.04010753294115062 0  0.03983623436998167 -0.03985552902859401 0  0.03972114507343055 -0.04145797640088977 0  0.0396437922234081 -0.05261372697940805 0  0.03997754446209789 -0.0511507576845467 0  0.04105826602165569 -0.05283533998746703 0  0.01799242424242424 -0.02474747474747475 0  0.02040180503127184 -0.02521033163928926 0  0.01894698490238263 -0.02628094230654713 0  0.03290049244401597 -0.04238139970258363 0  0.03373646600975794 -0.04433173846458283 0  0.03511731072848739 -0.04293786140075419 0  0.02944299575463769 -0.03636599160900477 0  0.03143045878689962 -0.03761358300069494 0  0.02971390183888059 -0.03864436635289215 0  0.03288892842300365 -0.01064996769981432 0  0.03377610246494524 -0.009222958628701677 0  0.0338514560775198 -0.01176286534847487 0  0.02619510373908494 -0.03269003457969499 0  0.0275586803855839 -0.03187539353157028 0  0.02742869656996046 -0.03320634507295468 0  0.02874387712996077 -0.03249477747950242 0  0.02185322155471688 -0.04796886364206988 0  0.02117147262782209 -0.04651482738331746 0  0.02317806061277227 -0.04726948819474937 0  0.02680283228650296 -0.03047836992429558 0  0.0116140763143414 -0.0200294715722589 0  0.01255567389343238 -0.01875669977713929 0  0.01289863565765652 -0.02096070221481863 0  0.01436274818423154 -0.02590687146513118 0  0.01376997500590554 -0.02405110063143605 0  0.01312811451181107 -0.02527868237689237 0  0.01949511126133643 -0.01820257885343882 0  0.02139928780926671 -0.01727718666003668 0  0.0213075702412433 -0.01884184167804088 0  0.02497985483238342 -0.02695583927646755 0  0.02684519161778724 -0.0267528581889257 0  0.02643712606206802 -0.02872481488326032 0  0.015181836533936 -0.03191525840546049 0  0.01661043679905785 -0.0331297702723849 0  0.01668600241955626 -0.03097866552280258 0  0.01731419597837964 -0.008924158772178585 0  0.01661233695577045 -0.007784557864161785 0  0.03981046946253874 -0.03478997461063087 0  0.03923171642400429 -0.03668144702800514 0  0.03815781162724478 -0.03511154933377432 0  0.03750000000000001 -0.0234375 0  0.03984375 -0.02421875 0  0.03962211318754 -0.02284278772918 0  0.0427971170360452 -0.03332935475267775 0  0.04375 -0.02812499999999999 0  0.04385526423731859 -0.03063080462925618 0  0.04505180385920117 -0.02932542691051523 0  0.04351553199404762 -0.003199311755952383 0  0.04512082117182855 -0.003163798472886603 0  0.04401605677651377 -0.001297662503700671 0  0.0390625 -0.0109375 0  0.0372198611846347 -0.01157707748388981 0  0.03759210355280668 -0.00967538398276712 0  0.02477813524465676 -0.01678535620910663 0  0.02619491424319022 -0.0173145931035252 0  0.02598372025486592 -0.01588172067947947 0  0.02238005005866955 -0.01540092856280071 0  0.02431018836113115 -0.01482674916194362 0  0.02332186392374201 -0.01385922635918935 0  0.02884403036520363 -0.006188288310987947 0  0.02969512228739365 -0.00509576713021739 0  0.02778956775368434 -0.005398372891070042 0  0.02670820946356766 -0.004645696321677782 0  0.02871424332948464 -0.004118098239242162 0  0.02465272733345908 -0.006813979148103671 0  0.02264625626357764 -0.007822965885707606 0  0.02414717730575611 -0.008308169938046369 0  0.02810798947459298 -0.007488551531561166 0  0.02945001669058807 -0.007399522190517364 0  0.04184946453364417 -0.03213642906728832 0  0.04771258783191607 -0.01632642762110901 0  0.04588066889095144 -0.01568840097202207 0  0.04557265674790806 -0.01715141471048685 0  0.01595944973070434 -0.01665864079534912 0  0.01490811737430122 -0.01815748923040521 0  0.01620791970234805 -0.01795106480095328 0  0.01520615639784498 -0.01268049936812179 0  0.01475119078452227 -0.0148270426093771 0  0.01391218072944126 -0.01352772495826596 0  0.04683437186992465 -0.007865496666910285 0  0.04815155286411878 -0.006537230068970651 0  0.04728475614638013 -0.00546067617800606 0  0.04527103964454355 -0.01105720832240294 0  0.04606007517071044 -0.00949294628814989 0  0.04403762685149307 -0.01007408063750094 0  0.03949793158361206 -0.004200900444856822 0  0.03721979924877703 -0.0047651458494762 0  0.03878857822445099 -0.006173037334646442 0  0.0328125 -0.002435282534944978 0  0.03421085901935263 -0.004025902711367846 0  0.0344724171911955 -0.001781402336893533 0  0.01398706243080254 -0.0221150896608866 0  0.01258564041330076 -0.02332910432433855 0  0.009194419875177533 -0.02206075900562258 0  0.01024587951903527 -0.02330935545630703 0  0.01055332124836828 -0.02122269026435361 0  0.04537177463340432 -0.04110310095312193 0  0.04358182320191761 -0.04058844132853304 0  0.04571692188981746 -0.03936013908857622 0  0.0314309378115113 -0.04933875006157912 0  0.03311732503601984 -0.04913370444965118 0  0.03188089108105607 -0.03248232675683183 0  0.03342833160640403 -0.03055758844544694 0  0.03201928783414298 -0.02995112197871371 0  0.02861389331433733 -0.03382572902088683 0  0.03040673456957986 -0.03464600775368622 0  0.03013279554826485 -0.03287534219077422 0  0.04322916666666667 -0.01979114533068931 0  0.04127822573223301 -0.02004610997813836 0  0.04153902537676457 -0.01868765030406217 0  0.03530867441197051 -0.01196661860082494 0  0.03531896729860391 -0.01351198182519367 0  0.0390625 -0.0265625 0  0.040625 -0.02578125 0  0.03451316441232027 -0.02102466779383987 0  0.03546014347486393 -0.02326403694972784 0  0.03659060654472844 -0.02205092307513984 0  0.02436828498060588 -0.0409137505577845 0  0.02461490540344126 -0.04309047366990028 0  0.02353555540376851 -0.04211043040913431 0  0.02307251020656784 -0.04577510415514846 0  0.0213724062387126 -0.04492151990354357 0  0.04141166808534667 -0.05159229946940671 0  0.04316771177950235 -0.05055961249403544 0  0.04178869705860652 -0.05022403725139264 0  0.04636190916549267 -0.03071368166901467 0  0.01135833061239636 -0.03411864136424596 0  0.01234457162076637 -0.03542175489045764 0  0.01484586826671411 -0.03892294491435778 0  0.01682229953162608 -0.03997649591280195 0  0.01537065409622362 -0.04031910134814119 0  0.01953075217518766 -0.02799030610032226 0  0.02166562205297151 -0.0393857222105142 0  0.02247248496586275 -0.04111275187432602 0  0.02017264389999211 -0.04022967569049397 0  0.04635416666666667 -0.02552083333333333 0  0.04494656968390805 -0.02386179956896552 0  0.04418402777777777 -0.0259548611111111 0  0.04583333333333334 -0.021875 0  0.04638335129310345 -0.02331178160919541 0  0.04711179217743537 -0.02134513195633085 0  0.0333620841728586 -0.03258513616480065 0  0.0321298013877258 -0.03393512344096119 0  0.028125 -0.028125 0  0.02855580875793202 -0.02965235453857057 0  0.02093749816297855 -0.01566161699728076 0  0.0296875 -0.0234375 0  0.03158523513293739 -0.0234101749700282 0  0.03065193331477824 -0.02450488542779667 0  0.0379771404208144 -0.02861644968655365 0  0.03946078836391552 -0.02808670649690729 0  0.03750
[...]
<PointData  Vectors="flow"> 
<DataArray  type="Float64"  Name="flow"  NumberOfComponents="3" format="ascii">-6.1035846631431520e-07 -1.1989053367329018e-07 0.0000000000000000e+00  -1.1613586501767618e-07 -9.7052673555287663e-08 0.0000000000000000e+00  1.6311902669277804e-06 -1.0284466803651886e-07 0.0000000000000000e+00  6.6717274692235058e-08 -3.2308570474779499e-07 0.0000000000000000e+00  3.8971446080801993e-07 2.5769354626342664e-07 0.0000000000000000e+00  -8.8008782911574181e-07 4.9106336023101425e-08 0.0000000000000000e+00  2.0250050452141650e-08 1.0790152078796366e-08 0.0000000000000000e+00  1.3426392390742428e-07 3.5134456047595061e-08 0.0000000000000000e+00  2.5849254349728494e-07 1.1246880817683974e-07 0.0000000000000000e+00  -1.4920298140859533e-07 2.0575616540939474e-07 0.0000000000000000e+00  2.5428136131932113e-08 8.2600002779685297e-08 0.0000000000000000e+00  1.7762555629499189e-08 -2.0841648034688808e-07 0.0000000000000000e+00  7.0240899466271339e-08 5.4700849219048917e-09 0.0000000000000000e+00  -1.0927860991494905e-07 5.2176268396403356e-09 0.0000000000000000e+00  5.3032836630570392e-08 8.4495671860019513e-08 0.0000000000000000e+00  -1.6557390248765393e-06 1.3962731330979492e-07 0.0000000000000000e+00  -2.6696404564485795e-07 2.0740207925364784e-07 0.0000000000000000e+00  2.7058842167616145e-07 -3.1462363402500118e-08 0.0000000000000000e+00  2.2892618002639340e-07 -3.0220009990309264e-07 0.0000000000000000e+00  2.7849901445329491e-07 1.7029641708414641e-08 0.0000000000000000e+00  -1.3389936937946246e-07 -4.4571415516496456e-07 0.0000000000000000e+00  7.9668985092820050e-08 3.8627350960048535e-08 0.0000000000000000e+00  2.1713284088394701e-07 1.3449279097438024e-07 0.0000000000000000e+00  -4.4000895929453410e-08 -2.2785351150492981e-07 0.0000000000000000e+00  -3.2687553703512242e-07 -2.2703443694024420e-07 0.0000000000000000e+00  -4.6077198226719386e-08 3.8112425574593367e-08 0.0000000000000000e+00  -6.3157857558693482e-08 1.6455218469389276e-07 0.0000000000000000e+00  2.9398420252130091e-07 6.7259339869437803e-07 0.0000000000000000e+00  -9.9831884667127612e-09 3.4608547710327629e-07 0.0000000000000000e+00  3.0414240390763572e-07 4.6711762441446405e-07 0.0000000000000000e+00  -2.5292259285765228e-08 -8.0375422421313086e-07 0.0000000000000000e+00  -5.5519653585727792e-08 2.1181385323806450e-07 0.0000000000000000e+00  -6.9978329391575201e-07 3.6728457972128580e-07 0.0000000000000000e+00  -4.7782079876275736e-07 1.4662506781771304e-07 0.0000000000000000e+00  1.8881721942703914e-07 -1.6238898995809000e-07 0.0000000000000000e+00  2.9920399997211121e-07 -1.6342238996332319e-07 0.0000000000000000e+00  6.5837157437839479e-08 -9.8843116214918733e-08 0.0000000000000000e+00  -1.5747523404624358e-07 1.6089226940170488e-07 0.0000000000000000e+00  2.6319661731565062e-07 5.9098982577660396e-08 0.0000000000000000e+00  -9.0334737220054405e-07 1.4239941421506175e-06 0.0000000000000000e+00  5.4659558075271820e-07 5.5551113879309079e-07 0.0000000000000000e+00  1.2304743356136964e-06 4.6158041325699539e-08 0.0000000000000000e+00  6.1784362724365835e-07 -1.1440048998145921e-06 0.0000000000000000e+00  -1.3698268181609736e-06 -9.2046927567148341e-07 0.0000000000000000e+00  4.9133917148081620e-07 1.4594300990658299e-06 0.0000000000000000e+00  1.8844084216733011e-07 -2.2942964195684585e-07 0.0000000000000000e+00  -1.5318705444691999e-07 -5.5670564418730628e-08 0.0000000000000000e+00  -9.4833152225675089e-08 -9.5048337369976365e-08 0.0000000000000000e+00  -4.6023680152761320e-08 4.3150455685937434e-08 0.0000000000000000e+00  2.1684188251654110e-07 -2.0761605641766312e-08 0.0000000000000000e+00  7.2861324323037909e-08 -1.0402226326858702e-07 0.0000000000000000e+00  -1.9238025599398245e-07 1.5600834489654416e-09 0.0000000000000000e+00  -8.7903760744062124e-08 2.3543911137226727e-07 0.0000000000000000e+00  3.1604844388033155e-07 1.9337232976429840e-08 0.0000000000000000e+00  -4.6562486225617036e-07 2.5699564255372297e-07 0.0000000000000000e+00  3.3644020533909245e-07 4.1277038030857374e-07 0.0000000000000000e+00  2.3519597073651961e-07 -2.7599968144990556e-07 0.0000000000000000e+00  1.7770348592814339e-07 7.6241233606242348e-09 0.0000000000000000e+00  3.5404499283130220e-08 -6.6989370658336437e-07 0.0000000000000000e+00  3.6048128468103731e-07 -2.2468635291056361e-07 0.0000000000000000e+00  -1.6945620146923250e-07 5.4139912785810126e-08 0.0000000000000000e+00  -1.8087680413715249e-07 1.0207537775374689e-07 0.0000000000000000e+00  -2.5402163442364707e-07 -5.9465844261512530e-07 0.0000000000000000e+00  2.0276122526246099e-07 2.7728041113825300e-07 0.0000000000000000e+00  1.6842861788665404e-07 -2.9378068396825037e-07 0.0000000000000000e+00  1.1776700555365459e-08 2.7910999012367971e-07 0.0000000000000000e+00  -2.3939744048140510e-07 -1.0316755102153858e-07 0.0000000000000000e+00  1.8416020200907174e-07 -4.6667621138267494e-08 0.0000000000000000e+00  7.5031598925948570e-07 7.4393047250597766e-07 0.0000000000000000e+00  7.9638054529847552e-07 -1.0068520121737032e-06 0.0000000000000000e+00  9.1402155140261349e-07 2.4393924879948578e-07 0.0000000000000000e+00  2.4487189755813536e-07 -1.4470396524304467e-07 0.0000000000000000e+00  3.6009649366689968e-07 -4.0353798883001572e-07 0.0000000000000000e+00  6.0451081674575086e-08 -5.7637089514653891e-07 0.0000000000000000e+00  -4.9137442300254989e-08 1.9140805537523525e-06 0.0000000000000000e+00  -6.6303460506630691e-07 -3.1007542144537548e-07 0.0000000000000000e+00  9.2904304034452004e-07 -3.3765956795830135e-07 0.0000000000000000e+00  1.8808173491506337e-07 1.9854838480266227e-07 0.0000000000000000e+00  -2.6460225343602767e-07 6.2166141109710167e-08 0.0000000000000000e+00  1.3031956610764987e-07 4.9916779345984096e-08 0.0000000000000000e+00  -4.9281333296694713e-07 1.0357075899341691e-06 0.0000000000000000e+00  5.8710654794985194e-07 -9.1872675014558139e-07 0.0000000000000000e+00  2.9500752670701180e-07 -2.8864075857915207e-07 0.0000000000000000e+00  1.3545255911794696e-07 -1.7646227630366222e-07 0.0000000000000000e+00  -1.0680877678808395e-07 1.2019456952636729e-07 0.0000000000000000e+00  -4.0414767724054044e-07 -6.0358905946029834e-08 0.0000000000000000e+00  3.2052558170155301e-07 -5.9548518964280061e-07 0.0000000000000000e+00  5.8292146000515407e-07 -4.7930101478641851e-07 0.0000000000000000e+00  -6.5016336265418468e-08 4.9636145384837736e-07 0.0000000000000000e+00  4.2794671717352565e-08 -4.4445953199982607e-08 0.0000000000000000e+00  -2.7741813069546667e-07 -4.1003765660899393e-07 0.0000000000000000e+00  6.4003443059445872e-09 8.5288089890061135e-07 0.0000000000000000e+00  2.2212983019420219e-07 -5.3748384173617696e-07 0.0000000000000000e+00  4.1878366559297684e-09 -1.0038243699918676e-06 0.0000000000000000e+00  -2.8384449172563027e-07 9.9526038303754134e-07 0.0000000000000000e+00  1.1214047307310826e-06 9.6638018249372913e-08 0.0000000000000000e+00  9.0004122123984510e-08 1.8199119689210323e-07 0.0000000000000000e+00  -2.2552253982705525e-07 -2.9393408651469204e-08 0.0000000000000000e+00  1.8731980801768462e-07 1.8929308725717140e-07 0.0000000000000000e+00  3.5333207872851829e-07 3.1671251111815049e-07 0.0000000000000000e+00  9.1981016556090563e-08 -4.6833356333818035e-08 0.0000000000000000e+00  -1.4970378092500897e-07 -6.5000153438583283e-08 0.0000000000000000e+00  -1.4287991578357652e-07 -2.7843173618993440e-09 0.0000000000000000e+00  -6.8500649064295025e-08 4.2411852320059190e-08 0.0000000000000000e+00  -2.0099564609503272e-07 9.5803241791162801e-08 0.0000000000000000e+00  1.6413842844402230e-07 1.9428081471884148e-07 0.0000000000000000e+00  1.2214449151577482e-07 1.6419559009057262e-07 0.0000000000000000e+00  6.5306944690536251e-08 -5.4012736265526145e-08 0.0000000000000000e+00  -2.2594353865341730e-08 -1.7026842771482332e-07 0.0000000000000000e+00  -3.1667695920072990e-08 -1.4157331794232350e-07 0.0000000000000000e+00  -4.6707829436820853e-07 7.8303890077606663e-08 0.0000000000000000e+00  3.0531061077995403e-08 -4.9047616033222512e-08 0.0000000000000000e+00  -1.7403821697573468e-07 3.8727951056826491e-07 0.0000000000000000e+00  2.5549807498071111e-08 -1.1473736748819026e-07 0.0000000000000000e+00  -3.2305005394637106e-08 -1.8625716303100364e-08 0.0000000000000000e+00  3.4856537334482473e-07 -1.1815158784858827e-07 0.0000000000000000e+00  5.1109731164096122e-07 -5.8736633332139225e-08 0.0000000000000000e+00  5.2258174880202440e-08 -1.3176310660703315e-07 0.0000000000000000e+00  6.9975013670571206e-08 -3.9366987019220793e-07 0.0000000000000000e+00  -2.5677942307137319e-07 6.7870788555450588e-08 0.0000000000000000e+00  7.8516908560643790e-07 -1.2122850045685042e-07 0.0000000000000000e+00  5.9879668844447582e-07 -4.6563953535737606e-08 0.0000000000000000e+00  1.7936673999305357e-07 -1.0135027744086522e-07 0.0000000000000000e+00  -2.0363128437385724e-07 2.3039748080037585e-07 0.0000000000000000e+00  -4.7463602135012810e-08 1.9134037781979939e-07 0.0000000000000000e+00  4.3817210820561859e-08 3.1183354372292211e-08 0.0000000000000000e+00  3.0903167302517068e-08 -4.2221735799888626e-08 0.0000000000000000e+00  -2.3762160465182179e-07 4.8276399790109886e-07 0.0000000000000000e+00  1.8323305077565039e-07 -3.2348999506818713e-08 0.0000000000000000e+00  6.3550884971182977e-07 -2.2467362820749688e-07 0.0000000000000000e+00  -1.2142153611967530e-07 4.7994966021581714e-08 0.0000000000000000e+00  -1.8677537512799770e-07 -5.8508509178018073e-08 0.0000000000000000e+00  2.3260630875037819e-07 2.9057704724631617e-09 0.0000000000000000e+00  -7.8086996161208993e-08 -1.1080741456485087e-08 0.0000000000000000e+00  -1.6108061255746098e-07 -6.9696550460184703e-08 0.0000000000000000e+00  1.3806319789631783e-07 1.2594345885461442e-07 0.0000000000000000e+00  4.0690297796298850e-07 -5.7298840560100951e-07 0.0000000000000000e+00  -5.8896785955609976e-07 -3.5322549200767610e-08 0.0000000000000000e+00  -6.9668148191902883e-07 5.0284742599555187e-07 0.0000000000000000e+00  3.9307775088041718e-07 -2.4893369817722770e-08 0.0000000000000000e+00  -4.0588711033781260e-08 4.5198478412645163e-07 0.0000000000000000e+00  -1.9690401139254362e-07 4.3350792261357676e-08 0.0000000000000000e+00  6.2139036508512520e-08 -2.9636026642856353e-08 0.0000000000000000e+00  3.1239660963695991e-08 -1.0955633873457054e-07 0.0000000000000000e+00  -2.9556174794194254e-08 -4.1806908664466026e-07 0.0000000000000000e+00  1.1781116603939611e-06 1.8918915053781153e-07 0.0000000000000000e+00  1.0598978370135072e-07 1.7564030919944064e-07 0.0000000000000000e+00  2.9492821810990824e-07 1.3170289091058982e-07 0.0000000000000000e+00  -2.8855360653690817e-07 -2.2774828131897026e-07 0.0000000000000000e+00  -3.3699182573980575e-08 -4.3749287238980411e-07 0.0000000000000000e+00  9.3378653402859356e-08 2.9367509683756062e-08 0.0000000000000000e+00  -1.0983519623328517e-08 -2.0275026527602913e-08 0.0000000000000000e+00  6.8908559573255395e-07 1.4675081670073816e-07 0.0000000000000000e+00  -1.1031741144880166e-08 8.2655882015507510e-08 0.0000000000000000e+00  9.5802286341333802e-09 3.2413169811487638e-08 0.0000000000000000e+00  -7.3015551883145081e-08 9.5743019049587163e-08 0.0000000000000000e+00  7.7582275431945475e-08 -2.1428285808391800e-08 0.0000000000000000e+00  -1.2160322400340042e-08 6.2426829995826939e-09 0.0000000000000000e+00  -1.4481659781416964e-07 3.5645417590315270e-08 0.0000000000000000e+00  -1.0913265987271590e-08 -1.7263743840905232e-08 0.0000000000000000e+00  4.5369381744054566e-08 -4.7321434518262360e-08 0.0000000000000000e+00  5.4444302074853590e-08 -1.1768819667860400e-07 0.0000000000000000e+00  2.1681930445951201e-07 2.3783545124380555e-07 0.0000000000000000e+00  2.9636035040472932e-07 -7.0873736922388173e-07 0.0000000000000000e+00  -4.3574885089085026e-07 -2.0218918012757934e-07 0.0000000000000000e+00  -1.1983473691742965e-07 -1.2072307523284766e-06 0.0000000000000000e+00  -6.9173382133888820e-07 -1.3983181806704507e-07 0.0000000000000000e+00  4.8050727291804682e-07 -2.3715171685915498e-07 0.0000000000000000e+00  1.1118790245640260e-07 7.6912373252495251e-08 0.0000000000000000e+00  -2.1560093257067404e-07 9.9365745971535639e-08 0.0000000000000000e+00  9.0399189374806095e-08 4.6822986499320391e-09 0.0000000000000000e+00  -7.3454931061746524e-08 3.2339619097460516e-07 0.0000000000000000e+00  5.6782744569682078e-08 -6.9863479033509959e-08 0.0000000000000000e+00  3.0603503984005055e-07 4.3000941933347839e-07 0.0000000000000000e+00  -1.3225149594917867e-07 -2.4046527868664308e-07 0.0000000000000000e+00  -4.6021474964049958e-08 -8.2124211595797919e-07 0.0000000000000000e+00  -3.0317336797266004e-08 7.7541903720223625e-07 0.0000000000000000e+00  1.5434902094440812e-06 -5.7963384833198386e-07 0.0000000000000000e+00  3.8195479449299390e-07 -2.9573843726252274e-07 0.0000000000000000e+00  -2.0184955390237849e-07 -4.0876175480947527e-07 0.0000000000000000e+00  4.7600605219623507e-08 4.9440697363180523e-07 0.0000000000000000e+00  3.2520714342649776e-07 1.0360002829024118e-06 0.0000000000000000e+00  2.4173995796297444e-07 -3.9456625215797384e-07 0.0000000000000000e+00  -2.3065777361932187e-07 -2.6365343822334812e-07 0.0000000000000000e+00  -1.9140565392348929e-07 -1.5200096594753888e-07 0.0000000000000000e+00  2.7498261893854677e-07 -3.1106048829168873e-08 0.0000000000000000e+00  2.5418749941340309e-08 -2.6835548506748193e-07 0.0000000000000000e+00  -8.6310043768126594e-08 4.1785848756749707e-07 0.0000000000000000e+00  2.3518973567694288e-07 -5.4854011584155800e-07 0.0000000000000000e+00  -6.5085763158610498e-08 1.1206713526576592e-07 0.0000000000000000e+00  1.8567842492545595e-07 2.0014230773409018e-07 0.0000000000000000e+00  -2.2438330611388462e-07 1.6396315933188857e-07 0.0000000000000000e+00  -1.2051802113664779e-07 -3.4170777769914252e-07 0.0000000000000000e+00  2.7203293551843243e-07 9.3467485108745529e-08 0.0000000000000000e+00  -1.7578452787404309e-06 8.1975189122250083e-08 0.0000000000000000e+00  8.3279611505311064e-07 1.7666870843437600e-07 0.0000000000000000e+00  -6.2265969279520902e-07 -2.0976774394539676e-06 0.0000000000000000e+00  3.8725375579065017e-08 -1.7639559806487698e-06 0.0000000000000000e+00  -8.2899191983012706e-07 -3.9086358956957083e-07 0.0000000000000000e+00  -1.6851310751748434e-07 -1.0668836512458810e-06 0.0000000000000000e+00  2.3484302221804852e-07 -4.4421303587853127e-07 0.0000000000000000e+00  4.8828010466712959e-07 3.3860085123464273e-07 0.0000000000000000e+00  -3.9410497304967823e-08 -2.5436359395374181e-07 0.0000000000000000e+00  3.6557709289997918e-07 -8.3615228089026436e-08 0.0000000000000000e+00  -7.6791679590097542e-07 7.2028224525763045e-08 0.0000000000000000e+00  2.5118324099501749e-07 4.5049917919689599e-07 0.0000000000000000e+00  -4.0952190201527782e-07 -5.1983294447213590e-07 0.0000000000000000e+00  5.5982071295379137e-07 -6.9455617518967507e-07 0.0000000000000000e+00  -2.5992437933402269e-08 -7.4996210737342855e-08 0.0000000000000000e+00  1.4146096235012648e-06 2.4673034999186932e-07 0.0000000000000000e+00  4.4895079158841112e-08 -6.5538785117746249e-07 0.0000000000000000e+00  -3.6158537654511076e-07 -5.2624359491026342e-07 0.0000000000000000e+00  -3.5053661728561805e-07 -2.6093966885709476e-07 0.0000000000000000e+00  2.6714685199904584e-07 4.3753498667245989e-07 0.0000000000000000e+00  8.4869699578644045e-08 -1.4624924711793785e-07 0.0000000000000000e+00  7.9035037261344930e-08 -7.5911406065172836e-07 0.0000000000000000e+00  -7.7680837712839486e-07 3.5995816189930383e-07 0.0000000000000000e+00  2.3038057571233835e-07 1.6159683899960432e-07 0.0000000000000000e+00  -3.9963339606062977e-08 2.9194185448636008e-07 0.0000000000000000e+00  -2.3538631324219942e-07 4.3515281018698427e-07 0.0000000000000000e+00  1.3019352860044649e-08 7.3209717884298106e-08 0.0000000000000000e+00  -5.5483218885169803e-08 1.4519203763704583e-07 0.0000000000000000e+00  4.1099264658139135e-08 -3.4073381160647762e-07 0.0000000000000000e+00  9.9714300948396737e-09 3.3772477311806085e-08 0.0000000000000000e+00  2.4462088632384435e-08 -2.1672891220251981e-07 0.0000000000000000e+00  1.8666287618561615e-09 -9.0493355212885485e-08 0.0000000000000000e+00  -4.2017176387423268e-07 6.1028404833099089e-07 0.0000000000000000e+00  3.5287587673241773e-07 -1.0201112589018789e-06 0.0000000000000000e+00  -2.0004747037834111e-07 -3.8804173616447026e-07 0.0000000000000000e+00  3.8191430853471773e-07 -2.5554365805879706e-07 0.0000000000000000e+00  1.5696070079532510e-07 2.4596178801779684e-07 0.0000000000000000e+00  2.1774074657967165e-07 -5.2485657409556275e-07 0.0000000000000000e+00  -2.0996968153083065e-07 1.6990316132460829e-07 0.0000000000000000e+00  -1.2653745682470606e-08 3.1122704269323256e-08 0.0000000000000000e+00  -1.8936856107234149e-08 -1.5977504235177063e-08 0.0000000000000000e+00  2.8184443447959210e-07 2.1590247765847101e-07 0.0000000000000000e+00  1.4260802370615457e-08 2.9695082814273814e-09 0.0000000000000000e+00  -4.9423502107765731e-07 6.3166982465742734e-08 0.0000000000000000e+00  -2.1503112249054143e-07 -2.2120301948031431e-07 0.0000000000000000e+00  1.1384860722236082e-07 1.5003143563984638e-07 0.0000000000000000e+00  -5.1150395337684337e-08 -1.2523614719420830e-07 0.0000000000000000e+00  -5.5663931093773352e-07 2.7896394630189902e-08 0.0000000000000000e+00  -1.1256467409763448e-06 7.6842172013380276e-07 0.0000000000000000e+00  1.8677222381107169e-08 -1.2173222548055709e-07 0.0000000000000000e+00  1.8375565912874865e-08 9.1757060758713879e-08 0.0000000000000000e+00  -1.3564172878043822e-07 -3.1072904841541764e-07 0.0000000000000000e+00  -8.9337646227702668e-08 2.5007087096021800e-08 0.0000000000000000e+00  -2.2804527745588113e-07 -4.0131473630857057e-07 0.0000000000000000e+00  3.7021428439650587e-07 -3.8134435182396408e-08 0.0000000000000000e+00  -2.2140705173730437e-07 5.2542251774576500e-07 0.0000000000000000e+00  3.4783315637507781e-07 4.7122301237273709e-07 0.0000000000000000e+00  6.2004377370548026e-07 8.4214593237184791e-07 0.0000000000000000e+00  -7.3792325528035968e-07 -8.7810404309660237e-07 0.0000000000000000e+00  7.8879285933550156e-10 -6.2401646389826476e-07 0.0000000000000000e+00  -1.7341989468674476e-07 -1.2645086273875569e-07 0.0000000000000000e+00  -5.2988250187934302e-08 7.3977198222063244e-08 0.0000000000000000e+00  2.0580323173002559e-07 -3.1575647465777112e-08 0.0000000000000000e+00  1.7605176969361430e-08 2.4809639606866158e-08 0.0000000000000000e+00  -2.6304328740147622e-07 -1.0067685979229777e-07 0.0000000000000000e+00  -5.2204424414208089e-08 -1.0361189019529680e-07 0.0000000000000000e+00  2.8616556243902683e-07 1.4554971875273857e-06 0.0000000000000000e+00  1.3416433384071122e-08 -1.5188732164783371e-07 0.0000000000000000e+00  -1.9273469597411504e-07 2.3255919510115570e-07 0.0000000000000000e+00  -6.2801983630759575e-08 -1.2586833874900408e-07 0.0000000000000000e+00  9.7496594342305561e-08 1.2549081595812006e-07 0.0000000000000000e+00  8.0210912621336303e-07 -1.9725436750839489e-06 0.0000000000000000e+00  -6.8143787216442869e-07 9.8091575890134490e-07 0.0000000000000000e+00  1.7069025915348051e-07 6.9637597198364474e-07 0.0000000000000000e+00  -1.9680533913466345e-07 -2.1631292867896304e-07 0.0000000000000000e+00  3.4824193117600981e-07 -2.9540599511191169e-07 0.0000000000000000e+00  -7.0927303348299824e-07 3.1647206922123179e-07 0.0000000000000000e+00  2.0657399818559683e-07 -4.2092451938557773e-07 0.0000000000000000e+00  -1.4404143663550829e-07 3.6085472012649953e-07 0.0000000000000000e+00  2.2087946622844285e-08 -5.2368079856864298e-08 0.0000000000000000e+00  -8.8809373930364288e-08 4.0705222256323249e-07 0.0000000000000000e+00  5.4594290469368306e-07 -1.8767414111564821e-07 0.0000000000000000e+00  1.3788832511774836e-07 -6.2772119626482481e-07 0.0000000000000000e+00  -7.7726146444471477e-07 -3.1626516382960158e-07 0.0000000000000000e+00  1.9301998206961791e-07 7.2813425600004990e-07 0.0000000000000000e+00  -4.8790123462098280e-08 -1.5870390668116737e-07 0.0000000000000000e+00  -9.5222471985194412e-