<?xml version="1.0"?>
<VTKFile type="UnstructuredGrid"  version="0.1"  >
<UnstructuredGrid>
<Piece  NumberOfPoints="854" NumberOfCells="1585">
<Points>
<DataArray  type="Float64"  NumberOfComponents="3"  format="ascii">-0.04301769881032727 -0.07789766764724927 0  -0.04189181960277685 -0.07611574955633513 0  -0.04113485614380685 -0.0778406702871829 0  0.00624679979509361 -0.0777776748102709 0  0.007568916227461957 -0.07713354619579388 0  0.007382729841747624 -0.07843031623139499 0  -0.02649300547176505 -0.08702975760517451 0  -0.0263406063065554 -0.08511740888024559 0  -0.02550850615665724 -0.08614596759352909 0  -0.02084933550610458 -0.06779624883491528 0  -0.01911675057012764 -0.06710909061847127 0  -0.02127151809726676 -0.06627988887730912 0  -0.02355932395340094 -0.07300565754440523 0  -0.02424120674399909 -0.07083644762466612 0  -0.02528234839396254 -0.07235550507120665 0  0.003414444410662295 -0.06667387755197443 0  0.004779010705117206 -0.06723343326758101 0  0.004898532170245292 -0.06588470706159105 0  -0.04508450624939216 -0.07289877322312201 0  -0.04334072568701926 -0.07281119722011131 0  -0.04498843852561831 -0.07457396944552638 0  -0.01233019290593089 -0.08678347112328397 0  -0.0112338405684588 -0.08880426352507724 0  -0.01273075515225664 -0.08916786604196794 0  -0.02487731781150031 -0.08912078797260026 0  -0.02308076237772397 -0.08987146331792781 0  -0.02363550833345763 -0.08867396749658046 0  -0.04364710778737727 -0.08947610695391849 0  -0.04301418522453009 -0.09191095606957841 0  -0.04235961703442911 -0.0904411189668541 0  -0.04202545149712906 -0.0795481471424079 0  -0.04353098224731951 -0.07984041100116517 0  -0.0001289479518082485 -0.09093484953796985 0  -0.001537361812977841 -0.09183103635621589 0  -0.0001024440023580193 -0.09250311526682992 0  -0.02717633928571428 -0.0671875 0  -0.02547575840129358 -0.06789917861829771 0  -0.02660892302130463 -0.0686732810860967 0  -0.02804244587606518 -0.08423194559419436 0  -0.02986151651701308 -0.08345542126252224 0  -0.02944273228431295 -0.08497307522931515 0  0.002378144654088049 -0.07627751572327045 0  0.001485836510060817 -0.07417176389937385 0  0.003438601733579284 -0.07409333596484037 0  -0.01416772838726675 -0.08358641717367554 0  -0.01438092441757664 -0.08541614012962434 0  -0.01595884200481777 -0.08511847584202997 0  -0.0262424283318852 -0.08092416785272258 0  -0.02665141823057518 -0.07860444913168425 0  -0.02515036422374465 -0.07979337743849195 0  0.002005314181027703 -0.07160953721069377 0  0.0005042659000463546 -0.0706442070080241 0  0.001542585041404355 -0.06977073503056669 0  -0.009584768711776409 -0.07507825100308022 0  -0.01157990020702555 -0.0737556443498108 0  -0.01030858530652727 -0.07292718465895769 0  -0.01253972891058217 -0.09069641732879728 0  -0.01384411344556504 -0.0922333898441426 0  -0.01239315970166911 -0.09214278956462488 0  -0.0257700475618113 -0.09648057567556882 0  -0.0263560920378603 -0.09429152410769577 0  -0.02703095132911369 -0.09564516741633013 0  -0.02134487277949115 -0.09413554396678402 0  -0.01968877658969745 -0.09485076374227272 0  -0.02091719731974153 -0.09542021937800599 0  -0.04010064634197606 -0.07057924971757969 0  -0.04164168012530915 -0.06976888025874925 0  -0.04132738058798338 -0.07207961939964694 0  -0.04488879840437942 -0.07631145991727138 0  -0.04340011400537071 -0.07606345743554926 0  -0.001826518818718755 -0.09549248911561954 0  -0.003437109196252027 -0.09614075558673832 0  -0.002233023995066442 -0.09680739911547753 0  -0.007255992924199247 -0.09568128265964732 0  -0.005724784492378706 -0.09504408502530426 0  -0.007780810481280456 -0.09395812364190835 0  -0.0137118687932259 -0.08158202687391057 0  -0.01248023965029664 -0.08291617032045073 0  -0.0108014823312422 -0.07149204022071302 0  -0.009032588102341152 -0.06986902027922305 0  -0.01095681711124807 -0.06954729451736746 0  -0.002931194584325539 -0.06897337298686135 0  -0.002446866923003689 -0.06726113607087911 0  -0.001229707650287227 -0.0686706673061121 0  0.002880492093639446 -0.06466240859797964 0  0.008907581557938372 -0.07010677444136433 0  0.008194986331135287 -0.07203719082326678 0  0.01024567414151233 -0.07100052562916147 0  0.01066098305406274 -0.05999515557027461 0  0.01199697692997241 -0.058984518130708 0  0.01209909079558958 -0.06050787089223954 0  -0.01454856551814738 -0.07721315778584886 0  -0.0152166235939798 -0.07557541333693718 0  -0.0165260688143757 -0.07591326249582545 0  -0.01285352492073821 -0.07211050370584039 0  -0.01748218666510975 -0.06813878302001214 0  -0.01762923752875039 -0.06598599581991983 0  -0.01789083831616858 -0.0715804492939822 0  -0.01780358103167474 -0.07332099473903625 0  -0.01632599156523281 -0.07243771640431323 0  -0.007183493015576356 -0.06924166753497944 0  -0.00855263833068491 -0.06824491119945986 0  -0.03564751029865867 -0.07439774731271727 0  -0.03395211491563267 -0.07495322214508 0  -0.03366797019368069 -0.0734877242641562 0  -0.03455208564641323 -0.08194382303888702 0  -0.03255269639564686 -0.08229603199409749 0  -0.03339906579048692 -0.08124954414524603 0  -0.02704324561419352 -0.07289471972323462 0  -0.02481643742317179 -0.07372899787113088 0  -0.03738360545745725 -0.08168537983806289 0  -0.03599322360724295 -0.08337896242457203 0  -0.03806191498716771 -0.08365977489794321 0  -0.03365282590339484 -0.08692313372691331 0  -0.03558005079508717 -0.08742320875628713 0  -0.03453986567279773 -0.08544024026264552 0  -0.03438518618490685 -0.09242829621017326 0  -0.03487102961521734 -0.09394739526994358 0  -0.03284347077283539 -0.0928402886718603 0  -0.03695888676976247 -0.07756467740738612 0  -0.03501579601208976 -0.07651430571098827 0  -0.03642910979197705 -0.07622226076359578 0  -0.03014613125358451 -0.07424633768158163 0  -0.03047893372488195 -0.07206737163976487 0  -0.03121734171721906 -0.07329504990619225 0  -0.03834687844188856 -0.07228526864991387 0  -0.03836933328569094 -0.07055391585998522 0  -0.03697141779064224 -0.07127734686192946 0  -0.007450830811539287 -0.08780052063043026 0  -0.009320310705092061 -0.08838540211273728 0  -0.008068072222769229 -0.08621390726582412 0  -0.04531250000000001 -0.09690794883681851 0  -0.04493199712142847 -0.09520323073982323 0  -0.04325023819755165 -0.0968739896865731 0  0.009375 -0.09682257628260371 0  0.007808664082198944 -0.09597107339876711 0  0.008444268623215768 -0.09461046788110308 0  0.0007125495420706774 -0.09384324413309353 0  -0.001324185801125433 -0.09348673451877551 0  4.55158174537929e-05 -0.09559543642801521 0  -0.002638588467448458 -0.08480290334513936 0  -0.0009523537286110506 -0.08539467671252784 0  -0.002123245304167003 -0.08646438588906058 0  0.00707564389875579 -0.08712042819884332 0  0.006175460256179339 -0.08529300011325083 0  0.00579688305402835 -0.08777872249611265 0  -0.01551784317154422 -0.09006879589254792 0  -0.01402328543009905 -0.08832981739043477 0  -0.01558909581522321 -0.08849582318267966 0  -0.034375 -0.1 0  -0.03423696779068536 -0.09746140864191191 0  -0.03619635067639472 -0.09830927380456798 0  -0.0171875 -0.09842209667188512 0  -0.01907578470877056 -0.09811482038481674 0  -0.01794864954210933 -0.09714392486344528 0  -0.0203125 -0.09665517208936659 0  -0.01807747440893156 -0.09566187359880164 0  -0.04636382294280632 -0.08303782715171144 0  -0.04457664116340198 -0.08227588074917039 0  -0.04479628068135219 -0.08441144033909778 0  -0.04665725025786571 -0.07474883737689871 0  -0.04839656261803055 -0.07397023150741729 0  -0.04715929032803928 -0.07353832403414237 0  -0.006496208247169712 -0.07958930721574266 0  -0.007818588748072135 -0.078515126908775 0  -0.008658337353509663 -0.07992113794005237 0  -0.0005048909647391475 -0.07529755637084348 0  0.0009893486840984126 -0.07561681737863528 0  -0.0003488571704173114 -0.07659863563213469 0  -0.002439376396341518 -0.08212944253333339 0  -0.002444152277402757 -0.08018925365413369 0  -0.00381630162417183 -0.0820268413935732 0  -0.02264613483542079 -0.0820413651645792 0  -0.02433746493959434 -0.08113892035160643 0  -0.02322485160458113 -0.08039154261165993 0  -0.01754533292962527 -0.08487053535373217 0  -0.01612535708344472 -0.08352138452691246 0  -0.01860487144251813 -0.08356851163246476 0  -0.03140806455272695 -0.06619583248002962 0  -0.03353512095382387 -0.06678277612275996 0  -0.03286485146038919 -0.06502660822956426 0  -0.01924800164333928 -0.07429606467324316 0  -0.01784284706265305 -0.07560523021790183 0  -0.01627524721575662 -0.07415843609645587 0  -0.02247505510150612 -0.07631841748069951 0  -0.02103221323394636 -0.07503488050239412 0  -0.02265507431745275 -0.07446773357752805 0  -0.02426505803403166 -0.07507046582579038 0  -0.02758628374191479 -0.08598038504817176 0  -0.03146202181458926 -0.07916958962906337 0  -0.03201932651192579 -0.08072863592367834 0  -0.03268498819409774 -0.07961155343193971 0  0.004333204611837944 -0.09457186870462708 0  0.004719118187944253 -0.09325290342309187 0  0.003210521597263091 -0.09393581815995514 0  -0.02699880677727343 -0.06528383311259306 0  -0.02816272306545877 -0.06613540002135666 0  -0.02796267299524422 -0.07502143545925727 0  -0.02864174901762227 -0.07347143860603883 0  0.01172901776142153 -0.07037684730407788 0  0.01149171032184903 -0.07201869888808959 0  0.008329705248451892 -0.07582893826919467 0  0.006579345813181347 -0.07604559218577921 0  0.007340105850365504 -0.07377496925579345 0  0.005649608925003106 -0.07293541457290909 0  0.006920603710509551 -0.07248150249158494 0  -0.03293339707392893 -0.06890569867093572 0  -0.03497293050757541 -0.06853622981877409 0  -0.03955829636164478 -0.06618721975980241 0  -0.03996948399416095 -0.06794165841102252 0  -0.04136249049824998 -0.0662651475401172 0  0.005332838990544739 -0.06042849285714701 0  0.005783754170669378 -0.06253278840008002 0  0.006730960667624127 -0.06048731509119946 0  0.006082007269868802 -0.06654253260679399 0  -0.01384023034695557 -0.06772003352402545 0  -0.01561760000785632 -0.06830868095647734 0  -0.01463379778004665 -0.06978387898440573 0  -0.009770499137943315 -0.08620544990365804 0
[...]
<PointData  Vectors="flow"> 
<DataArray  type="Float64"  Name="flow"  NumberOfComponents="3" format="ascii">5.5749392606046192e-09 3.3380604777958813e-09 0.0000000000000000e+00  4.3983680853293073e-09 -1.0642320640787207e-08 0.0000000000000000e+00  -5.9942277573056257e-09 2.1577884190032766e-09 0.0000000000000000e+00  -2.0299874756055090e-08 4.0199162020510771e-08 0.0000000000000000e+00  -2.3432214182635335e-08 9.8873382588849480e-08 0.0000000000000000e+00  -1.6541451946097670e-08 -1.1288229098146540e-08 0.0000000000000000e+00  -2.3479597302563477e-08 -2.0179203831379716e-08 0.0000000000000000e+00  7.5029303754344782e-08 1.2837698286701181e-08 0.0000000000000000e+00  4.3760654826896896e-08 4.5115789403145014e-08 0.0000000000000000e+00  -1.5238568877748833e-08 -2.9979304288347099e-08 0.0000000000000000e+00  3.4111387044520284e-08 8.4365363059321183e-09 0.0000000000000000e+00  1.9339598041132248e-08 2.6003098842345585e-08 0.0000000000000000e+00  9.3459731616064957e-09 6.8995188585628027e-09 0.0000000000000000e+00  -2.2151541619395154e-08 -2.6281855059203308e-08 0.0000000000000000e+00  1.9988557227386103e-08 3.4846857067478283e-08 0.0000000000000000e+00  -4.8816936498702128e-08 4.2494259401962532e-08 0.0000000000000000e+00  9.6322254595132630e-08 7.6829553501369247e-09 0.0000000000000000e+00  4.4989968762168808e-09 -6.7994874367533830e-08 0.0000000000000000e+00  3.0322705092661191e-09 1.9462100943076181e-09 0.0000000000000000e+00  9.3658088061295187e-10 -2.0830883772933061e-09 0.0000000000000000e+00  4.6779041832330058e-09 -3.3125430287213701e-09 0.0000000000000000e+00  1.1113126999372499e-07 4.7749288604489707e-08 0.0000000000000000e+00  -1.1177454519793774e-08 5.8567924661423499e-08 0.0000000000000000e+00  7.9219619133610102e-08 -9.5116456824156985e-08 0.0000000000000000e+00  -2.0087865262974538e-08 5.6017207883348308e-08 0.0000000000000000e+00  -6.7279446847834233e-08 2.4697103613809302e-09 0.0000000000000000e+00  -2.6984907564596799e-08 -1.2744315174974849e-07 0.0000000000000000e+00  1.0279728313663753e-09 -2.5103066546020274e-10 0.0000000000000000e+00  6.6114790451118888e-09 -2.3083048586828271e-10 0.0000000000000000e+00  -4.2115703720094568e-10 -1.8362880684020117e-09 0.0000000000000000e+00  1.9109685889300251e-09 3.5487905714589381e-09 0.0000000000000000e+00  8.9401296844520184e-10 -6.1498214940302531e-09 0.0000000000000000e+00  -8.1649118716396965e-09 -9.8815647347921727e-08 0.0000000000000000e+00  4.5755683384356193e-08 1.2034866249346745e-07 0.0000000000000000e+00  -1.8159744784554534e-09 -9.4823336612647326e-08 0.0000000000000000e+00  7.1976876255076757e-09 2.9629008664190896e-08 0.0000000000000000e+00  -1.3310999214742963e-08 -1.4416242475294642e-08 0.0000000000000000e+00  1.4685052372449955e-08 -1.1574361090270585e-08 0.0000000000000000e+00  -7.2300442471391816e-08 4.7646864929725177e-09 0.0000000000000000e+00  3.6454120238469125e-08 4.1818580504586659e-09 0.0000000000000000e+00  -3.9994131619226239e-10 -1.6883189436936250e-10 0.0000000000000000e+00  1.2398009822433475e-08 5.2913705121520366e-09 0.0000000000000000e+00  8.8759758728021378e-09 -5.3968895099331560e-09 0.0000000000000000e+00  1.6217847529497257e-08 -9.0686796391381736e-09 0.0000000000000000e+00  -4.8157800693762262e-10 -4.5132162914175438e-08 0.0000000000000000e+00  5.0300532525775140e-10 5.6400782506971328e-08 0.0000000000000000e+00  5.8894475182354316e-08 -1.0034547285867955e-07 0.0000000000000000e+00  6.2758855143658128e-08 5.0374681969548025e-08 0.0000000000000000e+00  4.7191858096027170e-09 -3.5799179048167153e-08 0.0000000000000000e+00  -1.1099859453679753e-07 2.9906321396963641e-08 0.0000000000000000e+00  -2.9794809184880030e-08 2.7350592302067996e-08 0.0000000000000000e+00  4.6660134098245974e-08 -4.9864247657067922e-09 0.0000000000000000e+00  1.5064923648494795e-08 -3.2683918129813580e-08 0.0000000000000000e+00  1.1036336464212686e-08 1.3279244625797130e-09 0.0000000000000000e+00  2.6956313046321278e-08 9.2836113203385423e-09 0.0000000000000000e+00  -3.1525791633387988e-08 1.1180526660178808e-08 0.0000000000000000e+00  1.2347042503776791e-08 -5.4175827278989207e-10 0.0000000000000000e+00  2.7295872603722009e-08 7.2443186407406974e-08 0.0000000000000000e+00  -1.3384339052275173e-07 7.1220827709127679e-08 0.0000000000000000e+00  1.6652626557108595e-08 2.9297080043124045e-08 0.0000000000000000e+00  -3.5829175513168858e-08 1.5935554534704971e-08 0.0000000000000000e+00  -2.1702842415045322e-08 -1.3961070164174961e-08 0.0000000000000000e+00  -1.4457971943507315e-08 5.2531630014091404e-08 0.0000000000000000e+00  -8.8378410044648540e-08 -4.0389592116646544e-08 0.0000000000000000e+00  -1.2098684590862703e-08 -1.6616296526705058e-08 0.0000000000000000e+00  5.5784327229343693e-09 -6.2456040602340114e-09 0.0000000000000000e+00  -2.0581717557967952e-09 5.0944483952241443e-09 0.0000000000000000e+00  -4.6948901873121063e-09 1.1202931941125532e-09 0.0000000000000000e+00  -6.0312721647818543e-09 3.4251456303256053e-09 0.0000000000000000e+00  4.0722800588903254e-09 2.6524868049454614e-09 0.0000000000000000e+00  -2.3601320264148976e-07 6.7813063109283956e-08 0.0000000000000000e+00  1.5438665166464907e-07 5.2059092863255844e-08 0.0000000000000000e+00  -7.5553238172401954e-08 -1.3317863573742877e-07 0.0000000000000000e+00  -1.0554492891480027e-07 6.0962898453879735e-08 0.0000000000000000e+00  -2.6139284036184034e-08 7.9506783554033179e-08 0.0000000000000000e+00  6.9863677412830705e-08 -6.6079294417305578e-08 0.0000000000000000e+00  -7.4961417381840040e-08 3.5604224826047849e-08 0.0000000000000000e+00  5.5032959190816258e-08 4.8699741419833978e-08 0.0000000000000000e+00  -3.0033868172724186e-08 -2.5357857065454208e-08 0.0000000000000000e+00  8.1464153527520364e-09 -2.8170156142856435e-08 0.0000000000000000e+00  -3.5390733346547575e-09 -3.7511228151472737e-09 0.0000000000000000e+00  2.4939525052199250e-10 -1.6269878443641768e-08 0.0000000000000000e+00  7.5678220765078504e-09 1.7253678274428246e-08 0.0000000000000000e+00  -2.3868233666593079e-08 3.8422919521964661e-08 0.0000000000000000e+00  1.7909023875576886e-09 -9.4313331780309007e-09 0.0000000000000000e+00  -7.0955043669752437e-09 -5.0705667158238249e-08 0.0000000000000000e+00  -2.7056302416761394e-09 2.4307890554351412e-08 0.0000000000000000e+00  -4.2882193583061983e-08 1.9522463586960474e-09 0.0000000000000000e+00  -5.7998129206821946e-08 -1.6304196209962611e-08 0.0000000000000000e+00  2.2718766958380925e-07 -1.8613358168281627e-07 0.0000000000000000e+00  -4.0390744099793721e-07 7.1169202081155972e-08 0.0000000000000000e+00  7.2561491823691887e-08 4.8701005172251580e-08 0.0000000000000000e+00  -3.7514814268141808e-08 -2.8838913272995453e-08 0.0000000000000000e+00  7.9421347371496456e-08 1.1632267394685513e-07 0.0000000000000000e+00  3.4239219474690181e-08 4.2556716533168804e-08 0.0000000000000000e+00  -1.2087315783006500e-08 -2.9092529912986611e-09 0.0000000000000000e+00  -5.3257205492508749e-09 -1.0198494292016734e-09 0.0000000000000000e+00  2.7154555187725091e-08 -2.4627804037344277e-08 0.0000000000000000e+00  -1.1322008272552906e-08 2.6608821325091225e-08 0.0000000000000000e+00  -1.9062131911178366e-08 5.8513712070377236e-09 0.0000000000000000e+00  -5.5297184365720968e-09 2.7962257293335114e-09 0.0000000000000000e+00  -7.1774858482615911e-09 2.5085752528006472e-08 0.0000000000000000e+00  -2.7843288329837588e-09 -1.4772702770112662e-09 0.0000000000000000e+00  2.4080206510478103e-09 -2.8864444468318982e-09 0.0000000000000000e+00  4.5501410633721369e-09 1.3391177607160098e-09 0.0000000000000000e+00  1.1778997170945752e-08 3.9784285173814240e-09 0.0000000000000000e+00  -2.9015604876791322e-08 -1.1331613565904012e-08 0.0000000000000000e+00  -9.7222331218906707e-09 -1.1233526764700024e-08 0.0000000000000000e+00  -1.4981581912426776e-08 1.4775649170978277e-08 0.0000000000000000e+00  2.8076483607524288e-08 2.0519339456740298e-08 0.0000000000000000e+00  -1.0729433757266331e-08 -4.3562062091047843e-09 0.0000000000000000e+00  -8.9369820481835123e-09 -2.1459189930048165e-09 0.0000000000000000e+00  7.9418238489964580e-09 1.9039257795561248e-09 0.0000000000000000e+00  9.6617865490860727e-09 1.6743166786554427e-08 0.0000000000000000e+00  -6.6810354954469036e-09 1.1096124266768971e-09 0.0000000000000000e+00  -5.4729211376586213e-10 -8.4775458157174514e-09 0.0000000000000000e+00  -7.2675155629650978e-09 -2.7587311880726191e-08 0.0000000000000000e+00  -6.7979045513568004e-09 3.5363364883751145e-08 0.0000000000000000e+00  7.7880264790861694e-09 1.3731978880516785e-09 0.0000000000000000e+00  4.3872231451791573e-09 -1.5482112571201653e-10 0.0000000000000000e+00  -3.3537395170507260e-09 1.0124182151291718e-09 0.0000000000000000e+00  -6.3034575748095865e-09 8.5807107165133002e-11 0.0000000000000000e+00  9.9068742033134657e-09 -2.4150637771655670e-08 0.0000000000000000e+00  -6.0049419444631914e-10 -7.5642230542287176e-09 0.0000000000000000e+00  2.2216598422880110e-09 1.2700053787984911e-08 0.0000000000000000e+00  2.6078360802322891e-09 1.4876455883633333e-09 0.0000000000000000e+00  2.7044507214088131e-09 7.5429894523535299e-09 0.0000000000000000e+00  -7.8096625840298837e-09 -2.0319340870421931e-09 0.0000000000000000e+00  -7.3040897159552786e-08 -4.2026967263568366e-08 0.0000000000000000e+00  3.3241158204062059e-08 -1.6937333633355507e-08 0.0000000000000000e+00  1.4620008013938043e-07 2.2096716759274300e-08 0.0000000000000000e+00  7.0256805178558928e-10 -9.5342810034322464e-10 0.0000000000000000e+00  2.7529808206643593e-09 -8.3787560399764597e-10 0.0000000000000000e+00  -1.4902949892338595e-09 -2.6481697374386078e-10 0.0000000000000000e+00  3.4777471044709948e-08 -3.2737968690062404e-08 0.0000000000000000e+00  -8.9226399781114844e-08 -1.7035799237719496e-07 0.0000000000000000e+00  -4.7312475291792411e-08 2.7596457954660234e-08 0.0000000000000000e+00  -7.7879138577180787e-08 3.1631338599107571e-08 0.0000000000000000e+00  -1.6649840341586807e-08 2.3366334553254577e-08 0.0000000000000000e+00  1.5619504014762772e-07 6.9798471848602713e-08 0.0000000000000000e+00  1.3073750451936616e-07 -7.1771322441200660e-08 0.0000000000000000e+00  -2.5123353209263222e-07 -7.9430100038560072e-08 0.0000000000000000e+00  1.0363662912685093e-07 -3.3753097873307597e-08 0.0000000000000000e+00  6.0588128723944436e-08 3.4990661831428205e-08 0.0000000000000000e+00  6.8566690363337762e-09 -4.3448728382997480e-09 0.0000000000000000e+00  -7.2505988545225073e-08 -2.5543087251236961e-08 0.0000000000000000e+00  -3.7595129556472554e-08 2.9872031722046782e-08 0.0000000000000000e+00  -3.5545156461458721e-08 -4.2299254469742313e-08 0.0000000000000000e+00  4.4469970782203220e-09 -1.0245060577379560e-08 0.0000000000000000e+00  8.9374661809057058e-09 -2.1526241718703668e-08 0.0000000000000000e+00  1.6508697597083793e-08 7.3540080156063812e-09 0.0000000000000000e+00  1.8368284504374186e-08 8.1738153930175219e-09 0.0000000000000000e+00  1.4459271925295166e-07 -1.2229221065291828e-08 0.0000000000000000e+00  -6.3366205440731084e-08 -1.7843214296309229e-08 0.0000000000000000e+00  1.5344834924968736e-08 -2.8267865278605017e-08 0.0000000000000000e+00  2.9314694714168944e-08 5.6608166184378869e-08 0.0000000000000000e+00  2.2321209174612400e-08 -3.8415622263544432e-08 0.0000000000000000e+00  -1.3565752746020011e-08 -3.0070353766500969e-09 0.0000000000000000e+00  5.3964363643632280e-09 -1.9606621648804022e-10 0.0000000000000000e+00  1.7474289827231609e-09 -3.2086365713511561e-10 0.0000000000000000e+00  6.0450834789697517e-09 -4.5268647239141642e-09 0.0000000000000000e+00  2.5234410512427426e-09 7.4282454594134891e-09 0.0000000000000000e+00  -1.2134757824057906e-08 -1.1319809615704583e-08 0.0000000000000000e+00  -7.5478706337118414e-08 2.2823532200000062e-08 0.0000000000000000e+00  -3.8049686708704062e-08 -4.2431670545081385e-08 0.0000000000000000e+00  6.5283534778630664e-08 -5.5025907896905366e-08 0.0000000000000000e+00  -6.8373932321532117e-09 -1.4861940311107678e-08 0.0000000000000000e+00  -1.5609682664501933e-08 -2.4029322281128389e-08 0.0000000000000000e+00  1.9949749689956990e-08 -6.5099248947458473e-09 0.0000000000000000e+00  -1.2511235605475569e-08 7.3023764714279839e-08 0.0000000000000000e+00  1.5507171662761409e-08 4.6781981160424070e-09 0.0000000000000000e+00  -7.5785421920963325e-08 3.2072638307085676e-08 0.0000000000000000e+00  9.3820894257267096e-08 6.4020065979005496e-08 0.0000000000000000e+00  8.9615199519485458e-09 -1.3550823217090868e-08 0.0000000000000000e+00  1.0641341952473846e-07 -2.7225028996111301e-08 0.0000000000000000e+00  -3.5103872895471612e-08 -8.7544216183905417e-09 0.0000000000000000e+00  -5.3012920818610076e-08 5.1629749598713892e-08 0.0000000000000000e+00  1.7772329500728587e-08 5.5993747695163256e-08 0.0000000000000000e+00  -1.6907794901898807e-08 5.3774397845266903e-09 0.0000000000000000e+00  -1.1877469163526445e-08 1.0829084820037833e-08 0.0000000000000000e+00  1.0143209823475281e-08 1.6983581573654427e-08 0.0000000000000000e+00  3.5664279952112573e-09 8.1853106697867136e-09 0.0000000000000000e+00  -1.0197017255699932e-07 -7.4188409528025531e-09 0.0000000000000000e+00  4.7873873276301319e-08 -3.2383367379235438e-08 0.0000000000000000e+00  8.7321340211714344e-08 4.8779077959486429e-08 0.0000000000000000e+00  2.4902971214505662e-09 -7.7697449072543870e-08 0.0000000000000000e+00  -6.7349035053262025e-08 -3.9930075275811609e-09 0.0000000000000000e+00  3.2116134070406925e-08 -7.2154938547006360e-08 0.0000000000000000e+00  -7.8622506513125065e-09 -1.5250339975202333e-08 0.0000000000000000e+00  3.0698693112146077e-08 -1.0584204781243203e-08 0.0000000000000000e+00  -7.5416390930103054e-09 3.8828170830901248e-08 0.0000000000000000e+00  -4.4732735002478317e-09 2.2277274322949886e-08 0.0000000000000000e+00  2.1441469215684291e-08 3.3748404592069202e-09 0.0000000000000000e+00  -7.0279802448186071e-08 4.8511698815401820e-08 0.0000000000000000e+00  6.6199706782415109e-08 -1.9271335208040714e-08 0.0000000000000000e+00  -1.1607488876952891e-09 -1.8867218248429552e-08 0.0000000000000000e+00  4.6856656382869358e-08 4.1526122708021975e-09 0.0000000000000000e+00  4.2062392814219940e-09 4.7879663921287661e-10 0.0000000000000000e+00  -7.7076823685534832e-09 -3.1791342451372667e-10 0.0000000000000000e+00  -6.7136666692187271e-08 -2.1798853949944378e-08 0.0000000000000000e+00  2.3015592992187847e-08 -2.6422303411637565e-08 0.0000000000000000e+00  -5.1927704722964452e-09 5.2557289417515970e-09 0.0000000000000000e+00  2.3836720230342875e-08 -5.4148794921049278e-08 0.0000000000000000e+00  2.6794105988926026e-08 1.3515701663940405e-08 0.0000000000000000e+00  -5.6651657566796320e-09 5.0934226419376584e-08 0.0000000000000000e+00  -1.6488938448817036e-08 2.5691041204609075e-08 0.0000000000000000e+00  -1.2560752665635673e-08 -2.1650796889319810e-09 0.0000000000000000e+00  -3.2874133878671280e-10 -3.7516838294833958e-09 0.0000000000000000e+00  4.7196379749791950e-09 -4.1706990845598614e-09 0.0000000000000000e+00  5.4620995491571342e-10 1.4436576475112588e-09 0.0000000000000000e+00  -4.5306989477812544e-09 -1.2974926369615765e-08 0.0000000000000000e+00  3.7170481912988669e-08 5.6125220141138974e-08 0.0000000000000000e+00  1.2321638435727195e-08 3.6952066418162590e-08 0.0000000000000000e+00  -3.8824855368195847e-08 1.3218010771836271e-07 0.0000000000000000e+00  1.0527883470224911e-09 -5.0959253759938410e-08 0.0000000000000000e+00  5.3657682186215977e-10 -2.8788432754089285e-09 0.0000000000000000e+00  -9.2731082898164249e-10 5.9864547223358477e-09 0.0000000000000000e+00  3.0642463628797055e-08 3.8126197426432312e-08 0.0000000000000000e+00  -1.0745225481855824e-07 -3.9402342398304358e-09 0.0000000000000000e+00  7.9342784974493388e-08 2.5649987048378125e-08 0.0000000000000000e+00  -1.4659368142284878e-07 4.8331357543816251e-08 0.0000000000000000e+00  1.2104660858400838e-07 -9.7827553954605034e-08 0.0000000000000000e+00  1.9690157407043311e-08 5.1144860159685221e-09 0.0000000000000000e+00  -4.4356957330723353e-08 -8.6898493855769566e-08 0.0000000000000000e+00  -1.9935209125684066e-08 -4.2472496959507108e-08 0.0000000000000000e+00  2.5774988061016340e-08 1.4538139572208775e-07 0.0000000000000000e+00  9.3532503252524587e-08 -7.4012766891221414e-10 0.0000000000000000e+00  9.4176677692312245e-08 5.8223511696645409e-08 0.0000000000000000e+00  3.8924506350730900e-08 2.4163720663738505e-08 0.0000000000000000e+00  -5.1386782727188577e-08 1.3832440035546858e-07 0.0000000000000000e+00  2.2692854093955670e-08 4.2568931708907412e-09 0.0000000000000000e+00  -4.6969591394211928e-08 -2.2818500015467144e-09 0.0000000000000000e+00  2.0512078954709386e-09 1.0785000967408701e-09 0.0000000000000000e+00  4.1298911664438200e-08 7.9850499372393457e-08 0.0000000000000000e+00  1.6264724073552247e-08 -2.8807700790287979e-08 0.0000000000000000e+00  -6.7059372269056430e-09 1.9189702189109933e-09 0.0000000000000000e+00  2.2525953556338184e-09 -2.4882228980349411e-09 0.0000000000000000e+00  -3.3127655031128849e-10 9.1428951214520962e-10 0.0000000000000000e+00  -1.4193681731970932e-08 -9.0656506821482436e-11 0.0000000000000000e+00  1.7371759324442234e-08 6.3852104430502045e-09 0.0000000000000000e+00  -1.1505757493581412e-08 -3.0935650225231362e-08 0.0000000000000000e+00  3.2737978772372411e-08 3.2624215867874134e-08 0.0000000000000000e+00  -9.5419739449735505e-09 -6.2146905676468350e-09 0.0000000000000000e+00  1.2656151107099416e-08 -1.2481279137453743e-08 0.0000000000000000e+00  -2.3048073444382570e-08 4.6128378373108209e-08 0.0000000000000000e+00  3.7666746735565550e-08 -4.7557743601604180e-08 0.0000000000000000e+00  4.3381216286139283e-08 8.2236306541685025e-09 0.0000000000000000e+00  -3.4363203016969797e-09 -1.3097741560231841e-09 0.0000000000000000e+00  4.1806915881039518e-10 1.1794081278335482e-08 0.0000000000000000e+00  -3.2404152533221765e-09 -3.0359904480134932e-09 0.0000000000000000e+00  -1.5889007472437447e-08 3.6364981473100986e-09 0.0000000000000000e+00  -2.0622511577020908e-09 4.6938303733669493e-09 0.0000000000000000e+00  -4.6837273056097485e-09 7.9166467573090272e-09 0.0000000000000000e+00  -2.3022211851850302e-08 -2.4205109203498361e-08 0.0000000000000000e+00  6.9659453700816135e-09 -2.0103906370835941e-09 0.0000000000000000e+00  -7.0040411536112415e-09 -2.2879121646444387e-09 0.0000000000000000e+00  -3.5221524484958153e-09 2.5163821381320872e-09 0.0000000000000000e+00  5.1743840038735988e-09 2.2258804953888441e-08 0.0000000000000000e+00  -2.8340221787018673e-09 -1.4175850462753970e-08 0.0000000000000000e+00  1.3457822257391493e-08 -3.3867842144211283e-09 0.0000000000000000e+00  3.9258096618174985e-08 -5.2838799152865981e-08 0.0000000000000000e+00  -3.6513771280244737e-08 -3.1886791473178977e-08 0.0000000000000000e+00  -6.9963816114526727e-08 -6.1038986891530682e-08 0.0000000000000000e+00  1.2047805453846706e-07 -2.7826878120724459e-08 0.0000000000000000e+00  1.2847055079683661e-07 -2.2859387026528787e-09 0.0000000000000000e+00  -1.9374109546083524e-08 3.8436203014699671e-08 0.0000000000000000e+00  -1.1100364173472788e-08 -8.3339755325602484e-08 0.0000000000000000e+00  6.6388616959567888e-09 8.2867401000562928e-08 0.0000000000000000e+00  -3.0766388408117623e-08 -1.3228137125824807e-08 0.0000000000000000e+00  9.5555607976391292e-09 2.6635746803425747e-09 0.0000000000000000e+00  -2.4973092317447287e-09 1.1318283227367961e-09 0.0000000000000000e+00  3.4080951192165604e-08 1.4506887124411854e-08 0.0000000000000000e+00  1.8022135075756523e-08 -1.9388125503383112e-08 0.0000000000000000e+00  2.1409901554243108e-08 4.4614785708322369e-08 0.0000000000000000e+00  2.1737912310831992e-08 3.6979825906107690e-08 0.0000000000000000e+00  -1.0653137173615382e-08 -2.5980844960050005e-08 0.0000000000000000e+00  8.1152802507764126e-08 3.1010964737889365e-08 0.0000000000000000e+00  -1.7694765301361716e-07 6.6456013020474458e-08 0.0000000000000000e+00  4.5199112972723924e-08 1.9547195250842672e-08 0.0000000000000000e+00  -9.8688468708012537e-09 -1.0018899426166315e-08 0.0000000000000000e+00  -7.6035842607760595