<?xml version="1.0"?>
<VTKFile type="UnstructuredGrid"  version="0.1"  >
<UnstructuredGrid>
<Piece  NumberOfPoints="1091" NumberOfCells="2050">
<Points>
<DataArray  type="Float64"  NumberOfComponents="3"  format="ascii">-0.5 -1 0  -0.4 -1 0  -0.3 -1 0  -0.2 -1 0  -0.09999999999999998 -1 0  0 -1 0  0.09999999999999998 -1 0  0.2 -1 0  0.3 -1 0  0.4 -1 0  0.5 -1 0  -0.5 -0.98 0  -0.4 -0.98 0  -0.3 -0.98 0  -0.2 -0.98 0  -0.09999999999999998 -0.98 0  0 -0.98 0  0.09999999999999998 -0.98 0  0.2 -0.98 0  0.3 -0.98 0  0.4 -0.98 0  0.5 -0.98 0  -0.5 -0.96 0  -0.4 -0.96 0  -0.3 -0.96 0  -0.2 -0.96 0  -0.09999999999999998 -0.96 0  0 -0.96 0  0.09999999999999998 -0.96 0  0.2 -0.96 0  0.3 -0.96 0  0.4 -0.96 0  0.5 -0.96 0  -0.5 -0.9399999999999999 0  -0.4 -0.9399999999999999 0  -0.3 -0.9399999999999999 0  -0.2 -0.9399999999999999 0  -0.09999999999999998 -0.9399999999999999 0  0 -0.9399999999999999 0  0.09999999999999998 -0.9399999999999999 0  0.2 -0.9399999999999999 0  0.3 -0.9399999999999999 0  0.4 -0.9399999999999999 0  0.5 -0.9399999999999999 0  -0.5 -0.92 0  -0.4 -0.92 0  -0.3 -0.92 0  -0.2 -0.92 0  -0.09999999999999998 -0.92 0  0 -0.92 0  0.09999999999999998 -0.92 0  0.2 -0.92 0  0.3 -0.92 0  0.4 -0.92 0  0.5 -0.92 0  -0.5 -0.9 0  -0.4 -0.9 0  -0.3 -0.9 0  -0.2 -0.9 0  -0.09999999999999998 -0.9 0  0 -0.9 0  0.09999999999999998 -0.9 0  0.2 -0.9 0  0.3 -0.9 0  0.4 -0.9 0  0.5 -0.9 0  -0.5 -0.88 0  -0.4 -0.88 0  -0.3 -0.88 0  -0.2 -0.88 0  -0.09999999999999998 -0.88 0  0 -0.88 0  0.09999999999999998 -0.88 0  0.2 -0.88 0  0.3 -0.88 0  0.4 -0.88 0  0.5 -0.88 0  -0.5 -0.86 0  -0.4 -0.86 0  -0.3 -0.86 0  -0.2 -0.86 0  -0.09999999999999998 -0.86 0  0 -0.86 0  0.09999999999999998 -0.86 0  0.2 -0.86 0  0.3 -0.86 0  0.4 -0.86 0  0.5 -0.86 0  -0.5 -0.84 0  -0.4 -0.84 0  -0.3 -0.84 0  -0.2 -0.84 0  -0.09999999999999998 -0.84 0  0 -0.84 0  0.09999999999999998 -0.84 0  0.2 -0.84 0  0.3 -0.84 0  0.4 -0.84 0  0.5 -0.84 0  -0.5 -0.8200000000000001 0  -0.4 -0.8200000000000001 0  -0.3 -0.8200000000000001 0  -0.2 -0.8200000000000001 0  -0.09999999999999998 -0.8200000000000001 0  0 -0.8200000000000001 0  0.09999999999999998 -0.8200000000000001 0  0.2 -0.8200000000000001 0  0.3 -0.8200000000000001 0  0.4 -0.8200000000000001 0  0.5 -0.8200000000000001 0  -0.5 -0.8 0  -0.4 -0.8 0  -0.3 -0.8 0  -0.2 -0.8 0  -0.09999999999999998 -0.8 0  0 -0.8 0  0.09999999999999998 -0.8 0  0.2 -0.8 0  0.3 -0.8 0  0.4 -0.8 0  0.5 -0.8 0  -0.5 -0.78 0  -0.4 -0.78 0  -0.3 -0.78 0  -0.2 -0.78 0  -0.09999999999999998 -0.78 0  0 -0.78 0  0.09999999999999998 -0.78 0  0.2 -0.78 0  0.3 -0.78 0  0.4 -0.78 0  0.5 -0.78 0  -0.5 -0.76 0  -0.4 -0.76 0  -0.3 -0.76 0  -0.2 -0.76 0  -0.09999999999999998 -0.76 0  0 -0.76 0  0.09999999999999998 -0.76 0  0.2 -0.76 0  0.3 -0.76 0  0.4 -0.76 0  0.5 -0.76 0  -0.5 -0.74 0  -0.4 -0.74 0  -0.3 -0.74 0  -0.2 -0.74 0  -0.09999999999999998 -0.74 0  0 -0.74 0  0.09999999999999998 -0.74 0  0.2 -0.74 0  0.3 -0.74 0  0.4 -0.74 0  0.5 -0.74 0  -0.5 -0.72 0  -0.4 -0.72 0  -0.3 -0.72 0  -0.2 -0.72 0  -0.09999999999999998 -0.72 0  0 -0.72 0  0.09999999999999998 -0.72 0  0.2 -0.72 0  0.3 -0.72 0  0.4 -0.72 0  0.5 -0.72 0  -0.5 -0.7 0  -0.4 -0.7 0  -0.3 -0.7 0  -0.2 -0.7 0  -0.09999999999999998 -0.7 0  0 -0.7 0  0.09999999999999998 -0.7 0  0.2 -0.7 0  0.3 -0.7 0  0.4 -0.7 0  0.5 -0.7 0  -0.5 -0.6799999999999999 0  -0.4 -0.6799999999999999 0  -0.3 -0.6799999999999999 0  -0.2 -0.6799999999999999 0  -0.09999999999999998 -0.6799999999999999 0  0 -0.6799999999999999 0  0.09999999999999998 -0.6799999999999999 0  0.2 -0.6799999999999999 0  0.3 -0.6799999999999999 0  0.4 -0.6799999999999999 0  0.5 -0.6799999999999999 0  -0.5 -0.6599999999999999 0  -0.4 -0.6599999999999999 0  -0.3 -0.6599999999999999 0  -0.2 -0.6599999999999999 0  -0.09999999999999998 -0.6599999999999999 0  0 -0.6599999999999999 0  0.09999999999999998 -0.6599999999999999 0  0.2 -0.6599999999999999 0  0.3 -0.6599999999999999 0  0.4 -0.6599999999999999 0  0.5 -0.6599999999999999 0  -0.5 -0.64 0  -0.4 -0.64 0  -0.3 -0.64 0  -0.2 -0.64 0  -0.09999999999999998 -0.64 0  0 -0.64 0  0.09999999999999998 -0.64 0  0.2 -0.64 0  0.3 -0.64 0  0.4 -0.64 0  0.5 -0.64 0  -0.5 -0.62 0  -0.4 -0.62 0  -0.3 -0.62 0  -0.2 -0.62 0  -0.09999999999999998 -0.62 0  0 -0.62 0  0.09999999999999998 -0.62 0  0.2 -0.62 0  0.3 -0.62 0  0.4 -0.62 0  0.5 -0.62 0  -0.5 -0.6 0  -0.4 -0.6 0  -0.3 -0.6 0  -0.2 -0.6 0  -0.09999999999999998 -0.6 0  0 -0.6 0  0.09999999999999998 -0.6 0  0.2 -0.6 0  0.3 -0.6 0  0.4 -0.6 0  0.5 -0.6 0  -0.5 -0.5800000000000001 0  -0.4 -0.5800000000000001 0  -0.3 -0.5800000000000001 0  -0.2 -0.5800000000000001 0  -0.09999999999999998 -0.5800000000000001 0  0 -0.5800000000000001 0  0.09999999999999998 -0.5800000000000001 0  0.2 -0.5800000000000001 0  0.3 -0.5800000000000001 0  0.4 -0.5800000000000001 0  0.5 -0.5800000000000001 0  -0.5 -0.5600000000000001 0  -0.4 -0.5600000000000001 0  -0.3 -0.5600000000000001 0  -0.2 -0.5600000000000001 0  -0.09999999999999998 -0.5600000000000001 0  0 -0.5600000000000001 0  0.09999999999999998 -0.5600000000000001 0  0.2 -0.5600000000000001 0  0.3 -0.5600000000000001 0  0.4 -0.5600000000000001 0  0.5 -0.5600000000000001 0  -0.5 -0.54 0  -0.4 -0.54 0  -0.3 -0.54 0  -0.2 -0.54 0  -0.09999999999999998 -0.54 0  0 -0.54 0  0.09999999999999998 -0.54 0  0.2 -0.54 0  0.3 -0.54 0  0.4 -0.54 0  0.5 -0.54 0  -0.5 -0.52 0  -0.4 -0.52 0  -0.3 -0.52 0  -0.2 -0.52 0  -0.09999999999999998 -0.52 0  0 -0.52 0  0.09999999999999998 -0.52 0  0.2 -0.52 0  0.3 -0.52 0  0.4 -0.52 0  0.5 -0.52 0  -0.5 -0.5 0  -0.4 -0.5 0  -0.3 -0.5 0  -0.2 -0.5 0  -0.09999999999999998 -0.5 0  0 -0.5 0  0.09999999999999998 -0.5 0  0.2 -0.5 0  0.3 -0.5 0  0.4 -0.5 0  0.5 -0.5 0  -0.5 -0.48 0  -0.4 -0.48 0  -0.3 -0.48 0  -0.2 -0.48 0  -0.09999999999999998 -0.48 0  0 -0.48 0  0.09999999999999998 -0.48 0  0.2 -0.48 0  0.3 -0.48 0  0.4 -0.48 0  0.5 -0.48 0  -0.5 -0.46 0  -0.4 -0.46 0  -0.3 -0.46 0  -0.2 -0.46 0  -0.09999999999999998 -0.46 0  0 -0.46 0  0.09999999999999998 -0.46 0  0.2 -0.46 0  0.3 -0.46 0  0.4 -0.46 0  0.5 -0.46 0  -0.5 -0.4399999999999999 0  -0.4 -0.4399999999999999 0  -0.3 -0.4399999999999999 0  -0.2 -0.4399999999999999 0  -0.09999999999999998 -0.4399999999999999 0  0 -0.4399999999999999 0  0.09999999999999998 -0.4399999999999999 0  0.2 -0.4399999999999999 0  0.3 -0.4399999999999999 0  0.4 -0.4399999999999999 0  0.5 -0.4399999999999999 0  -0.5 -0.42 0  -0.4 -0.42 0  -0.3 -0.42 0  -0.2 -0.42 0  -0.09999999999999998 -0.42 0  0 -0.42 0  0.09999999999999998 -0.42 0  0.2 -0.42 0  0.3 -0.42 0  0.4 -0.42 0  0.5 -0.42 0  -0.5 -0.4 0  -0.4 -0.4 0  -0.3 -0.4 0  -0.2 -0.4 0  -0.09999999999999998 -0.4 0  0 -0.4 0  0.09999999999999998 -0.4 0  0.2 -0.4 0  0.3 -0.4 0  0.4 -0.4 0  0.5 -0.4 0  -0.5 -0.38 0  -0.4 -0.38 0  -0.3 -0.38 0  -0.2 -0.38 0  -0.09999999999999998 -0.38 0  0 -0.38 0  0.09999999999999998 -0.38 0  0.2 -0.38 0  0.3 -0.38 0  0.4 -0.38 0  0.5 -0.38 0  -0.5 -0.36 0  -0.4 -0.36 0  -0.3 -0.36 0  -0.2 -0.36 0  -0.09999999999999998 -0.36 0  0 -0.36 0  0.09999999999999998 -0.36 0  0.2 -0.36 0  0.3 -0.36 0  0.4 -0.36 0  0.5 -0.36 0  -0.5 -0.34 0  -0.4 -0.34 0  -0.3 -0.34 0  -0.2 -0.34 0  -0.09999999999999998 -0.34 0  0 -0.34 0  0.09999999999999998 -0.34 0  0.2 -0.34 0  0.3 -0.34 0  0.4 -0.34 0  0.5 -0.34 0  -0.5 -0.32 0  -0.4 -0.32 0  -0.3 -0.32 0  -0.2 -0.32 0  -0.09999999999999998 -0.32 0  0 -0.32 0  0.09999999999999998 -0.32 0  0.2 -0.32 0  0.3 -0.32 0  0.4 -0.32 0  0.5 -0.32 0  -0.5 -0.3 0  -0.4 -0.3 0  -0.3 -0.3 0  -0.2 -0.3 0  -0.09999999999999998 -0.3 0  0 -0.3 0  0.09999999999999998 -0.3 0  0.2 -0.3 0  0.3 -0.3 0  0.4 -0.3 0  0.5 -0.3 0  -0.5 -0.28 0  -0.4 -0.28 0  -0.3 -0.28 0  -0.2 -0.28 0  -0.09999999999999998 -0.28 0  0 -0.28 0  0.09999999999999998 -0.28 0  0.2 -0.28 0  0.3 -0.28 0  0.4 -0.28 0  0.5 -0.28 0  -0.5 -0.26 0  -0.4 -0.26 0  -0.3 -0.26 0  -0.2 -0.26 0  -0.09999999999999998 -0.26 0  0 -0.26 0  0.09999999999999998 -0.26 0  0.2 -0.26 0  0.3 -0.26 0  0.4 -0.26 0  0.5 -0.26 0  -0.5 -0.24 0  -0.4 -0.24 0  -0.3 -0.24 0  -0.2 -0.24 0  -0.09999999999999998 -0.24 0  0 -0.24 0  0.09999999999999998 -0.24 0  0.2 -0.24 0  0.3 -0.24 0  0.4 -0.24 0  0.5 -0.24 0  -0.5 -0.22 0  -0.4 -0.22 0  -0.3 -0.22 0  -0.2 -0.22 0  -0.09999999999999998 -0.22 0  0 -0.22 0  0.09999999999999998 -0.22 0  0.2 -0.22 0  0.3 -0.22 0  0.4 -0.22 0  0.5 -0.22 0  -0.5 -0.2 0  -0.4 -0.2 0  -0.3 -0.2 0  -0.2 -0.2 0  -0.09999999999999998 -0.2 0  0 -0.2 0  0.09999999999999998 -0.2 0  0.2 -0.2 0  0.3 -0.2 0  0.4 -0.2 0  0.5 -0.2 0  -0.5 -0.18 0  -0.4 -0.18 0  -0.3 -0.18 0  -0.2 -0.18 0  -0.09999999999999998 -0.18 0  0 -0.18 0  0.09999999999999998 -0.18 0  0.2 -0.18 0  0.3 -0.18 0  0.4 -0.18 0  0.5 -0.18 0  -0.5 -0.16 0  -0.4 -0.16 0  -0.3 -0.16 0  -0.2 -0.16 0  -0.09999999999999998 -0.16 0  0 -0.16 0  0.09999999999999998 -0.16 0  0.2 -0.16 0  0.3 -0.16 0  0.4 -0.16 0  0.5 -0.16 0  -0.5 -0.14 0  -0.4 -0.14 0  -0.3 -0.14 0  -0.2 -0.14 0  -0.09999999999999998 -0.14 0  0 -0.14 0  0.09999999999999998 -0.14 0  0.2 -0.14 0  0.3 -0.14 0  0.4 -0.14 0  0.5 -0.14 0  -0.5 -0.12 0  -0.4 -0.12 0  -0.3 -0.12 0  -0.2 -0.12 0  -0.09999999999999998 -0.12 0  0 -0.12 0  0.09999999999999998 -0.12 0  0.2 -0.12 0  0.3 -0.12 0  0.4 -0.12 0  0.5 -0.12 0  -0.5 -0.09999999999999998 0  -0.4 -0.09999999999999998 0  -0.3 -0.09999999999999998 0  -0.2 -0.09999999999999998 0  -0.09999999999999998 -0.09999999999999998 0  0 -0.09999999999999998 0  0.09999999999999998 -0.09999999999999998 0  0.2 -0.09999999999999998 0  0.3 -0.09999999999999998 0  0.4 -0.09999999999999998 0  0.5 -0.09999999999999998 0  -0.5 -0.07999999999999996 0  -0.4 -0.07999999999999996 0  -0.3 -0.07999999999999996 0  -0.2 -0.07999999999999996 0  -0.09999999999999998 -0.07999999999999996 0  0 -0.07999999999999996 0  0.09999999999999998 -0.07999999999999996 0  0.2 -0.07999999999999996 0  0.3 -0.07999999999999996 0  0.4 -0.07999999999999996 0  0.5 -0.07999999999999996 0  -0.5 -0.06000000000000005 0  -0.4 -0.06000000000000005 0  -0.3 -0.06000000000000005 0  -0.2 -0.06000000000000005 0  -0.09999999
[...]
<PointData  Vectors="flow"> 
<DataArray  type="Float64"  Name="flow"  NumberOfComponents="3" format="ascii">-3.4729905341634481e-15 -3.5420589291664028e-15 0.0000000000000000e+00  -2.0725854330381677e-15 -3.4006648339041794e-15 0.0000000000000000e+00  -4.5913778418595294e-17 1.6773818536139409e-15 0.0000000000000000e+00  2.9251048083450093e-15 5.8203556599638703e-16 0.0000000000000000e+00  6.0161166013536035e-17 3.4655678610382092e-15 0.0000000000000000e+00  7.5121321226710553e-16 -4.2066250283713560e-15 0.0000000000000000e+00  3.9732523425135112e-15 3.7050478204430851e-15 0.0000000000000000e+00  6.2570975858989615e-16 3.9204852019044025e-15 0.0000000000000000e+00  4.5628860969649851e-16 3.6637299940016280e-15 0.0000000000000000e+00  1.8484723418035398e-15 -3.0217956456594580e-15 0.0000000000000000e+00  1.6187231696958484e-15 -7.8985626502723884e-16 0.0000000000000000e+00  -2.6902563174376255e-15 1.3114735826953357e-15 0.0000000000000000e+00  -2.0708622610384706e-15 3.1196331652723806e-15 0.0000000000000000e+00  1.4211341747917154e-16 -1.4165389289328912e-15 0.0000000000000000e+00  2.1897751119352517e-15 1.5855895067665722e-15 0.0000000000000000e+00  -5.5178479316882447e-16 -8.7285749433625135e-16 0.0000000000000000e+00  1.2252296465287121e-15 3.0760533083249476e-16 0.0000000000000000e+00  4.4262264137101627e-15 3.9639574387400269e-16 0.0000000000000000e+00  8.7280049056486574e-16 -4.3594879447849484e-16 0.0000000000000000e+00  3.8275967917006497e-16 2.8560057745237327e-15 0.0000000000000000e+00  1.6291727352662345e-15 3.9580028971226633e-15 0.0000000000000000e+00  1.5760543583744031e-15 -6.1762375480980019e-16 0.0000000000000000e+00  -7.0621188772169353e-16 -4.2567247060537843e-15 0.0000000000000000e+00  -2.2824387276542684e-15 3.3249569191000640e-15 0.0000000000000000e+00  -4.3311862012964577e-16 -6.2761384124904573e-15 0.0000000000000000e+00  3.1886941004290277e-15 1.2979653308999275e-15 0.0000000000000000e+00  3.8297990032376319e-16 3.4564530686683920e-15 0.0000000000000000e+00  1.1530047031734517e-15 6.7682596699136175e-15 0.0000000000000000e+00  3.1932286920932644e-15 9.6570355254817475e-15 0.0000000000000000e+00  1.1684634952667005e-15 4.8316084440178247e-15 0.0000000000000000e+00  1.1438472488647490e-15 -3.3481869491439998e-15 0.0000000000000000e+00  6.5226559107141377e-16 1.2793587571691637e-15 0.0000000000000000e+00  3.1157873493800052e-16 -2.2185385037119935e-16 0.0000000000000000e+00  -1.5836943044382688e-16 5.2489643971997229e-15 0.0000000000000000e+00  -2.4782316789806502e-15 -7.4816723588039627e-16 0.0000000000000000e+00  -1.9581186859953038e-16 -1.5007896885396969e-15 0.0000000000000000e+00  3.5633656145129551e-15 1.8664754954992519e-15 0.0000000000000000e+00  -3.4104299910195914e-16 -9.2324876096958680e-15 0.0000000000000000e+00  3.5170400900983749e-15 4.5586715438624611e-15 0.0000000000000000e+00  4.5082794211253165e-15 1.9531485688286192e-14 0.0000000000000000e+00  -2.4544526193712773e-15 1.3988178058672187e-14 0.0000000000000000e+00  3.2444441643407453e-17 -1.8420105079296335e-14 0.0000000000000000e+00  3.0734677018375831e-15 1.0474442121008753e-14 0.0000000000000000e+00  8.3531676102726130e-16 6.2212936260977890e-15 0.0000000000000000e+00  -1.4516710448016644e-15 1.0426124509676261e-14 0.0000000000000000e+00  -3.6737154354712246e-15 -2.0496846355978771e-15 0.0000000000000000e+00  -2.8661900493896686e-16 -5.1694430888374842e-15 0.0000000000000000e+00  2.5160059009339356e-15 -1.2744230765801322e-14 0.0000000000000000e+00  1.3099108995803055e-15 6.5153453026625843e-15 0.0000000000000000e+00  6.7652912522607007e-15 9.6121273423553998e-15 0.0000000000000000e+00  4.1248079487253700e-15 5.7309479872035742e-15 0.0000000000000000e+00  -7.1089009631371829e-15 1.2226554708649360e-14 0.0000000000000000e+00  1.7728361664777506e-15 -1.5328254131693438e-14 0.0000000000000000e+00  4.6420826237462888e-15 4.4037424864004068e-15 0.0000000000000000e+00  -5.7328318095236733e-15 -1.7757936074128853e-14 0.0000000000000000e+00  -5.8721654562044361e-15 1.4141772467439643e-15 0.0000000000000000e+00  -4.5952559387599552e-15 -6.3641087817558799e-15 0.0000000000000000e+00  -2.4991832435024828e-15 1.2425721257141765e-15 0.0000000000000000e+00  5.7813227240456780e-15 -8.3466421512706909e-16 0.0000000000000000e+00  2.3352507342755169e-15 4.3200976134503464e-15 0.0000000000000000e+00  3.6121739244073270e-15 -1.5518818097861027e-14 0.0000000000000000e+00  7.0318462642948703e-15 -9.1859643050895167e-15 0.0000000000000000e+00  -6.6771990242489057e-15 9.9090582533651336e-15 0.0000000000000000e+00  -2.5666681691195171e-15 3.9775143652997997e-15 0.0000000000000000e+00  3.6909807805209982e-15 -1.2889231963744100e-14 0.0000000000000000e+00  -5.6042897246064517e-15 -1.3575495388378746e-15 0.0000000000000000e+00  -6.9306241777034759e-15 -7.0940194657087972e-15 0.0000000000000000e+00  -4.2244949819373336e-15 -8.1751718124750585e-15 0.0000000000000000e+00  4.7913800322935071e-16 -2.2328662640556805e-16 0.0000000000000000e+00  3.4192855679625628e-15 1.0075673619134676e-14 0.0000000000000000e+00  -2.2624753745948985e-16 -1.6829786118441369e-14 0.0000000000000000e+00  4.2582724807108915e-15 -1.1983594254453295e-15 0.0000000000000000e+00  7.3247608153568075e-15 -4.6774968794876559e-15 0.0000000000000000e+00  -4.7770240237164797e-15 -1.3180403740730613e-14 0.0000000000000000e+00  -2.3775297178069464e-15 -3.7517122641378192e-15 0.0000000000000000e+00  3.5784428007697595e-15 9.4193616429836697e-15 0.0000000000000000e+00  -3.4780970984178377e-15 -9.8941084721260271e-15 0.0000000000000000e+00  -5.2158997268373094e-15 -1.5978064413684001e-14 0.0000000000000000e+00  -2.4587229356469895e-15 -3.8534468474733236e-15 0.0000000000000000e+00  1.0547822083955423e-15 8.1246992898094639e-15 0.0000000000000000e+00  2.3134496509501130e-15 -4.5426984788195262e-15 0.0000000000000000e+00  9.0753574043210520e-16 4.1719514469857515e-15 0.0000000000000000e+00  3.7988116984932824e-15 6.9580825766401609e-16 0.0000000000000000e+00  6.3367925331638258e-15 1.6367415646056734e-14 0.0000000000000000e+00  -4.7160381638104360e-15 -1.6856139312519795e-15 0.0000000000000000e+00  8.1641928298827354e-16 1.9194706484883385e-15 0.0000000000000000e+00  8.6584485470104252e-16 1.4526666222736735e-14 0.0000000000000000e+00  -9.4340060896775629e-15 -2.1716798558981634e-14 0.0000000000000000e+00  -7.3733032543353929e-15 -3.4916993206363690e-15 0.0000000000000000e+00  4.9007441878800553e-16 -1.2852563253859930e-15 0.0000000000000000e+00  1.9473206000783336e-15 -4.5093131214688315e-16 0.0000000000000000e+00  1.0328063932648604e-15 5.8815196671884187e-16 0.0000000000000000e+00  2.2066217741878756e-17 9.3622892894193292e-15 0.0000000000000000e+00  9.0146923511922687e-15 -9.0397151221811099e-15 0.0000000000000000e+00  5.6412085917719089e-15 5.0355007706394064e-14 0.0000000000000000e+00  -9.1150727488293796e-15 1.0396036730009312e-14 0.0000000000000000e+00  3.2769179521305879e-15 -3.7370831515057404e-15 0.0000000000000000e+00  -4.8121040572136923e-16 2.7811460356447295e-14 0.0000000000000000e+00  -1.3471500025188227e-14 5.1975878775023123e-15 0.0000000000000000e+00  -6.2211797228079617e-16 1.9354813027737437e-14 0.0000000000000000e+00  -2.8643050333778605e-15 3.8284793853622565e-14 0.0000000000000000e+00  7.6216622874581268e-18 1.3488807732061271e-14 0.0000000000000000e+00  4.1988124904801138e-15 -1.5683538401358569e-14 0.0000000000000000e+00  4.0724378386498347e-16 1.3057894174429101e-14 0.0000000000000000e+00  1.0781094025309040e-14 -8.0127554830037639e-16 0.0000000000000000e+00  9.5914356341195077e-15 -1.5594238367416811e-14 0.0000000000000000e+00  -1.4900330973777672e-14 1.8964575656276272e-14 0.0000000000000000e+00  2.5437545250063854e-15 -1.3231175353788840e-14 0.0000000000000000e+00  2.3966905648719716e-15 -2.0186722033725272e-15 0.0000000000000000e+00  -2.2014233308500709e-14 -7.9050522727240335e-15 0.0000000000000000e+00  -8.5577328248152912e-16 -3.7314494735722111e-15 0.0000000000000000e+00  8.4517690222500982e-16 3.1225765439641131e-16 0.0000000000000000e+00  -6.0951132888727974e-15 2.7644179198875808e-14 0.0000000000000000e+00  9.4628058056154359e-17 -1.1767332388068170e-14 0.0000000000000000e+00  2.5138855478101725e-15 -2.1163847939779283e-14 0.0000000000000000e+00  3.6638955571859015e-15 4.8571880230202241e-15 0.0000000000000000e+00  1.0887603184488518e-14 -4.2548467764555366e-14 0.0000000000000000e+00  -7.5912537245232959e-15 1.0047784570491956e-15 0.0000000000000000e+00  -9.8424181253351679e-16 2.8914494554632747e-14 0.0000000000000000e+00  1.2335328921979736e-15 1.2097859619737353e-14 0.0000000000000000e+00  -2.2156950425385491e-14 -3.0599613200312916e-14 0.0000000000000000e+00  -3.0654033767212407e-15 1.4959137999137959e-14 0.0000000000000000e+00  3.1378490713913180e-15 2.3171876768730640e-14 0.0000000000000000e+00  -6.2620170391030033e-15 -3.3353098834306533e-15 0.0000000000000000e+00  -5.3702474646161534e-15 -3.7929660557611353e-15 0.0000000000000000e+00  5.3670996337628887e-15 -5.5237860844796355e-15 0.0000000000000000e+00  5.2118185131446077e-15 8.3754781713798515e-15 0.0000000000000000e+00  8.7472901790069813e-15 9.2827410690385060e-15 0.0000000000000000e+00  -4.2032915416715973e-15 -2.6166269727842921e-14 0.0000000000000000e+00  4.3145282982419910e-15 1.9131551039348951e-14 0.0000000000000000e+00  -6.4753506649425706e-15 1.4866405243720206e-14 0.0000000000000000e+00  -3.8873515206418350e-14 -1.7596093701551600e-14 0.0000000000000000e+00  4.7964723291205305e-15 -2.9155772412035202e-15 0.0000000000000000e+00  -1.6659877587142866e-15 1.8162517328754096e-14 0.0000000000000000e+00  -1.0165892604656545e-14 -4.8941903625295174e-14 0.0000000000000000e+00  1.0508388051195577e-15 -1.5799238303642768e-14 0.0000000000000000e+00  4.8965037791746345e-15 -9.0790536016099886e-15 0.0000000000000000e+00  4.7065970116823935e-15 4.5497274971645872e-14 0.0000000000000000e+00  7.9599280178068723e-15 -3.6392162054200637e-14 0.0000000000000000e+00  -2.6739100767827291e-15 -2.9910189650044490e-14 0.0000000000000000e+00  6.5525847842587551e-15 3.6466030810810824e-14 0.0000000000000000e+00  -1.1646336737720668e-14 -1.0670123661784907e-14 0.0000000000000000e+00  -3.2265798997840436e-14 -2.3264484100807693e-14 0.0000000000000000e+00  2.7016549048012843e-15 1.1639767830046529e-14 0.0000000000000000e+00  -6.8152030629979580e-15 4.5595892637339656e-15 0.0000000000000000e+00  -1.2735544424785298e-14 -4.4892133446584811e-14 0.0000000000000000e+00  2.0863776651975270e-15 -2.7551048303380199e-15 0.0000000000000000e+00  1.5446298201445822e-14 -2.0966243236708603e-16 0.0000000000000000e+00  4.2055319163915274e-16 2.2538151999418861e-14 0.0000000000000000e+00  -8.1892660562519252e-15 -4.7004749596370702e-14 0.0000000000000000e+00  5.7314946225328923e-15 -2.3510059072044717e-14 0.0000000000000000e+00  1.1970830574724379e-14 -1.9877867487976951e-14 0.0000000000000000e+00  -1.3172427246173189e-14 9.3515406622009294e-15 0.0000000000000000e+00  -3.0817049370795886e-14 2.8818221294597747e-14 0.0000000000000000e+00  3.1256846545726976e-15 1.9327005844311264e-14 0.0000000000000000e+00  -1.4599312250912149e-14 2.9684666356944734e-14 0.0000000000000000e+00  -1.2405647682274485e-14 -6.9389307895513208e-14 0.0000000000000000e+00  1.2062508061842499e-14 -1.8168885413873017e-14 0.0000000000000000e+00  8.7311305824002870e-15 2.7142056822925314e-14 0.0000000000000000e+00  -4.2281389955533673e-15 -2.6091702418933399e-14 0.0000000000000000e+00  1.1584217710633240e-15 -1.3785811778520348e-14 0.0000000000000000e+00  5.9586469060453169e-15 1.3475215703865495e-14 0.0000000000000000e+00  1.0802535257572250e-14 -1.0493507736653508e-14 0.0000000000000000e+00  -7.9168260558731637e-15 2.6710272614704126e-14 0.0000000000000000e+00  -3.1317955610069584e-14 1.4689342803516808e-14 0.0000000000000000e+00  1.1232861594557086e-14 1.0232287439347468e-14 0.0000000000000000e+00  -2.3570672232218045e-14 3.7851499795745041e-14 0.0000000000000000e+00  -2.2010976706886658e-14 -4.2456774355780714e-14 0.0000000000000000e+00  2.2669624158813917e-14 3.5077715739310386e-15 0.0000000000000000e+00  1.2921742756772554e-14 3.9649279175007559e-14 0.0000000000000000e+00  -5.3321241738233938e-15 -5.3366520710103826e-16 0.0000000000000000e+00  -2.9721494296969166e-15 -2.0337893561852244e-14 0.0000000000000000e+00  2.6279783377928059e-15 -3.6235591921981925e-14 0.0000000000000000e+00  1.6153003812313325e-14 -1.4806973715669748e-14 0.0000000000000000e+00  -3.4239147675273703e-15 3.8526786854606557e-15 0.0000000000000000e+00  -3.8924006410610347e-14 1.9721415858259367e-14 0.0000000000000000e+00  1.2435416324492278e-14 2.3833368082805717e-14 0.0000000000000000e+00  -2.7363955204769605e-14 -1.3220770975262579e-14 0.0000000000000000e+00  -1.6660915611226378e-14 2.1313273725006945e-14 0.0000000000000000e+00  2.5355655428167356e-14 4.2740912367940777e-14 0.0000000000000000e+00  9.2919838330553688e-15 -1.1713169637015722e-14 0.0000000000000000e+00  -1.6204829854880284e-14 -1.0369546589396388e-14 0.0000000000000000e+00  -5.3028974998250945e-15 -2.6507797998542470e-14 0.0000000000000000e+00  1.3567252929357615e-14 -1.4276675679911691e-14 0.0000000000000000e+00  1.3451016067366623e-14 8.7855744910767538e-15 0.0000000000000000e+00  -4.0877822814356731e-15 -4.2563489132451837e-15 0.0000000000000000e+00  -2.2591784010923447e-14 2.5866973025390489e-14 0.0000000000000000e+00  5.0923973762073589e-15 2.4070618764333176e-14 0.0000000000000000e+00  -2.7131260033178452e-14 -5.7313631274718234e-15 0.0000000000000000e+00  -8.5169105561297069e-15 2.5030923931926696e-14 0.0000000000000000e+00  1.5510295640184305e-14 7.7700272732025192e-15 0.0000000000000000e+00  8.5142244660890804e-16 -1.3854790325050571e-14 0.0000000000000000e+00  -9.2297342618683628e-15 -5.1737764233295440e-14 0.0000000000000000e+00  -1.0130490723015703e-14 -4.2377124429378722e-15 0.0000000000000000e+00  1.1991737470202544e-14 -3.2077293049502109e-14 0.0000000000000000e+00  2.2575255145877398e-14 -4.4881956314469020e-14 0.0000000000000000e+00  2.7985831721378892e-15 4.5250648952238536e-14 0.0000000000000000e+00  -2.1657257514756853e-14 1.6698645494913457e-16 0.0000000000000000e+00  5.4640159709927185e-16 2.7064541117533140e-14 0.0000000000000000e+00  -2.7757368435425756e-14 -3.9776711805426007e-14 0.0000000000000000e+00  -1.2745038180072021e-14 2.2047092392239610e-14 0.0000000000000000e+00  1.6396474246925560e-14 4.9595203279862311e-15 0.0000000000000000e+00  -9.8095325072531293e-16 -2.6368906352061810e-14 0.0000000000000000e+00  -9.2782526216628209e-15 -4.5555971919575015e-14 0.0000000000000000e+00  9.4581451392762136e-16 5.9943192003216092e-14 0.0000000000000000e+00  -2.3411966961280239e-17 -1.0720984739350903e-15 0.0000000000000000e+00  2.3488609806570473e-14 -5.8588015940048878e-14 0.0000000000000000e+00  4.1580900331158867e-15 -2.2083839550266468e-14 0.0000000000000000e+00  -4.1272474268860520e-14 -4.7535749770567739e-14 0.0000000000000000e+00  -2.3222898389431779e-14 5.2370097952620266e-14 0.0000000000000000e+00  -2.7613141646265611e-14 -3.1022275779846475e-14 0.0000000000000000e+00  -1.2246942958825608e-15 1.5251501752565935e-14 0.0000000000000000e+00  6.5825698096088284e-15 4.7791917080306980e-14 0.0000000000000000e+00  -1.0328199833349269e-14 -3.2607509983783405e-14 0.0000000000000000e+00  1.4580834958121802e-15 -2.3674763389570119e-14 0.0000000000000000e+00  2.6054936765537773e-15 1.7224346491297689e-14 0.0000000000000000e+00  -6.8901180462482316e-15 8.4318195952911195e-15 0.0000000000000000e+00  2.3489149854645772e-14 3.4179264822995206e-14 0.0000000000000000e+00  8.4819602810075553e-16 2.1652074391968664e-14 0.0000000000000000e+00  -4.0891085843376908e-14 -6.9312327922971854e-14 0.0000000000000000e+00  -3.4186486502673231e-14 5.6652448518091669e-15 0.0000000000000000e+00  -3.0691219705068499e-14 -1.3938414694553381e-14 0.0000000000000000e+00  1.5212555738443397e-15 -1.4242569242891919e-14 0.0000000000000000e+00  1.2259409640574296e-14 4.1143788798038571e-14 0.0000000000000000e+00  -1.6804034552793867e-14 -1.8421899719924870e-14 0.0000000000000000e+00  3.1048319158177782e-15 3.3234576382484714e-15 0.0000000000000000e+00  9.9514191092980933e-16 2.6186292008328382e-14 0.0000000000000000e+00  1.2858521401283682e-15 5.4168240380423993e-14 0.0000000000000000e+00  2.4631607559408893e-14 1.2540747642550518e-15 0.0000000000000000e+00  -8.3981001355766712e-15 2.3915575302324330e-14 0.0000000000000000e+00  -5.9385707105391422e-14 -8.0452837984044970e-15 0.0000000000000000e+00  -2.3997983807382497e-14 -1.0984974730440457e-14 0.0000000000000000e+00  -3.1919061656247925e-14 3.9459893698931245e-14 0.0000000000000000e+00  3.8043457456073728e-15 -2.7146332477190084e-14 0.0000000000000000e+00  4.2090389512239655e-15 -2.4982295536540386e-14 0.0000000000000000e+00  -1.5383881933724774e-14 -1.0184328457675314e-14 0.0000000000000000e+00  1.5222618109431201e-14 -2.5919836669475497e-14 0.0000000000000000e+00  1.4650020129584965e-14 7.8093543353263915e-14 0.0000000000000000e+00  -8.3917401692934032e-15 8.9891314042092153e-14 0.0000000000000000e+00  1.1823533695814861e-14 1.2940176166731602e-14 0.0000000000000000e+00  -6.0631583615917801e-15 5.2759565118490263e-16 0.0000000000000000e+00  -6.9480629897008211e-14 -3.1225410214899591e-14 0.0000000000000000e+00  -2.2445145374906159e-14 -9.9831893848284036e-15 0.0000000000000000e+00  -3.7208390665994752e-14 1.3509108249926052e-14 0.0000000000000000e+00  -3.2539855753884779e-16 -1.3172993718845088e-14 0.0000000000000000e+00  1.1247989776450864e-14 6.7783779383335734e-14 0.0000000000000000e+00  -1.7451860434187995e-14 -1.5419588657791401e-14 0.0000000000000000e+00  1.2544493398966756e-14 -1.1839580770044427e-14 0.0000000000000000e+00  2.3149693506876607e-14 1.7627512332444640e-14 0.0000000000000000e+00  -1.4708885380265357e-14 1.0659573336527579e-14 0.0000000000000000e+00  1.4635248507958785e-14 -1.7940266917879437e-14 0.0000000000000000e+00  -1.5291082188501972e-14 -1.0249552005771679e-14 0.0000000000000000e+00  -7.4191447079461058e-14 -6.5369585002584405e-14 0.0000000000000000e+00  -1.9690154719201348e-14 1.7486593531762246e-15 0.0000000000000000e+00  -2.9877917481032692e-14 8.2333656016308165e-14 0.0000000000000000e+00  6.9158975905382949e-15 -1.6280360950511101e-14 0.0000000000000000e+00  4.1199683923742481e-15 1.3245806225940982e-14 0.0000000000000000e+00  -2.9324757085160813e-14 -8.0540109111529280e-15 0.0000000000000000e+00  2.5401483732747243e-14 2.8231988945811840e-14 0.0000000000000000e+00  2.3524709618905630e-14 3.5846800937804024e-14 0.0000000000000000e+00  -1.8596497427171128e-14 3.0573218907283938e-14 0.0000000000000000e+00  9.4198680931889648e-15 4.2476235107401691e-14 0.0000000000000000e+00  -1.8347643342678489e-14 -1.0987720978125386e-14 0.0000000000000000e+00  -7.0795606683322279e-14 2.6338234395656589e-14 0.0000000000000000e+00  1.7682090936369411e-16 -1.8069070409896294e-14 0.0000000000000000e+00  -3.7697426853342852e-14 -3.6182651206524308e-14 0.0000000000000000e+00  -1.5743077666870877e-14 -4.3384684916868504e-15 0.0000000000000000e+00  1.6508156279939786e-14 -1.2542567299538999e-13 0.0000000000000000e+00  -1.7445073063198728e-14 4.4840054263034907e-14 0.0000000000000000e+00  2.4201902419909680e-14 -1.7984714191271645e-14 0.0000000000000000e+00  2.4299425274297918e-14 4.5559848885774259e-14 0.0000000000000000e+00  -1.7669729643178712e-14 -1.9528496946768688e-14 0.0000000000000000e+00  5.6589928490226112e-15 8.5889235810874612e-16 0.0000000000000000e+00  -1.8905840518895506e-14 -2.4172217614613473e-14 0.0000000000000000e+00  -6.6669091437996502e-14 -1.3904452686741057e-14 0.0000000000000000e+00  -1.9661353281942886e-14 -3.8355226480978037e-14 0.0000000000000000e+00  -2.8762165500050677e-14 -5.9856038249929515e-14 0.0000000000000000e+00  -6.6293475160922544e-15 -1.1234780359344814e-14 0.0000000000000000e+00  1.1455919805875403e-14 -1.0390826671785686e-14 0.0000000000000000e+00  -3.3825075620041152e-15 9.6364528718659389e-14 0.0000000000000000e+00  1.8748585284767176