<?xml version="1.0"?>
<VTKFile type="UnstructuredGrid"  version="0.1"  >
<UnstructuredGrid>
<Piece  NumberOfPoints="1661" NumberOfCells="3200">
<Points>
<DataArray  type="Float64"  NumberOfComponents="3"  format="ascii">-0.25 -1 0  -0.225 -1 0  -0.2 -1 0  -0.175 -1 0  -0.15 -1 0  -0.125 -1 0  -0.1 -1 0  -0.07500000000000001 -1 0  -0.04999999999999999 -1 0  -0.02499999999999999 -1 0  0 -1 0  0.02500000000000002 -1 0  0.04999999999999999 -1 0  0.07500000000000001 -1 0  0.09999999999999998 -1 0  0.125 -1 0  0.15 -1 0  0.175 -1 0  0.2 -1 0  0.225 -1 0  0.25 -1 0  -0.25 -0.975 0  -0.225 -0.975 0  -0.2 -0.975 0  -0.175 -0.975 0  -0.15 -0.975 0  -0.125 -0.975 0  -0.1 -0.975 0  -0.07500000000000001 -0.975 0  -0.04999999999999999 -0.975 0  -0.02499999999999999 -0.975 0  0 -0.975 0  0.02500000000000002 -0.975 0  0.04999999999999999 -0.975 0  0.07500000000000001 -0.975 0  0.09999999999999998 -0.975 0  0.125 -0.975 0  0.15 -0.975 0  0.175 -0.975 0  0.2 -0.975 0  0.225 -0.975 0  0.25 -0.975 0  -0.25 -0.95 0  -0.225 -0.95 0  -0.2 -0.95 0  -0.175 -0.95 0  -0.15 -0.95 0  -0.125 -0.95 0  -0.1 -0.95 0  -0.07500000000000001 -0.95 0  -0.04999999999999999 -0.95 0  -0.02499999999999999 -0.95 0  0 -0.95 0  0.02500000000000002 -0.95 0  0.04999999999999999 -0.95 0  0.07500000000000001 -0.95 0  0.09999999999999998 -0.95 0  0.125 -0.95 0  0.15 -0.95 0  0.175 -0.95 0  0.2 -0.95 0  0.225 -0.95 0  0.25 -0.95 0  -0.25 -0.925 0  -0.225 -0.925 0  -0.2 -0.925 0  -0.175 -0.925 0  -0.15 -0.925 0  -0.125 -0.925 0  -0.1 -0.925 0  -0.07500000000000001 -0.925 0  -0.04999999999999999 -0.925 0  -0.02499999999999999 -0.925 0  0 -0.925 0  0.02500000000000002 -0.925 0  0.04999999999999999 -0.925 0  0.07500000000000001 -0.925 0  0.09999999999999998 -0.925 0  0.125 -0.925 0  0.15 -0.925 0  0.175 -0.925 0  0.2 -0.925 0  0.225 -0.925 0  0.25 -0.925 0  -0.25 -0.9 0  -0.225 -0.9 0  -0.2 -0.9 0  -0.175 -0.9 0  -0.15 -0.9 0  -0.125 -0.9 0  -0.1 -0.9 0  -0.07500000000000001 -0.9 0  -0.04999999999999999 -0.9 0  -0.02499999999999999 -0.9 0  0 -0.9 0  0.02500000000000002 -0.9 0  0.04999999999999999 -0.9 0  0.07500000000000001 -0.9 0  0.09999999999999998 -0.9 0  0.125 -0.9 0  0.15 -0.9 0  0.175 -0.9 0  0.2 -0.9 0  0.225 -0.9 0  0.25 -0.9 0  -0.25 -0.875 0  -0.225 -0.875 0  -0.2 -0.875 0  -0.175 -0.875 0  -0.15 -0.875 0  -0.125 -0.875 0  -0.1 -0.875 0  -0.07500000000000001 -0.875 0  -0.04999999999999999 -0.875 0  -0.02499999999999999 -0.875 0  0 -0.875 0  0.02500000000000002 -0.875 0  0.04999999999999999 -0.875 0  0.07500000000000001 -0.875 0  0.09999999999999998 -0.875 0  0.125 -0.875 0  0.15 -0.875 0  0.175 -0.875 0  0.2 -0.875 0  0.225 -0.875 0  0.25 -0.875 0  -0.25 -0.85 0  -0.225 -0.85 0  -0.2 -0.85 0  -0.175 -0.85 0  -0.15 -0.85 0  -0.125 -0.85 0  -0.1 -0.85 0  -0.07500000000000001 -0.85 0  -0.04999999999999999 -0.85 0  -0.02499999999999999 -0.85 0  0 -0.85 0  0.02500000000000002 -0.85 0  0.04999999999999999 -0.85 0  0.07500000000000001 -0.85 0  0.09999999999999998 -0.85 0  0.125 -0.85 0  0.15 -0.85 0  0.175 -0.85 0  0.2 -0.85 0  0.225 -0.85 0  0.25 -0.85 0  -0.25 -0.825 0  -0.225 -0.825 0  -0.2 -0.825 0  -0.175 -0.825 0  -0.15 -0.825 0  -0.125 -0.825 0  -0.1 -0.825 0  -0.07500000000000001 -0.825 0  -0.04999999999999999 -0.825 0  -0.02499999999999999 -0.825 0  0 -0.825 0  0.02500000000000002 -0.825 0  0.04999999999999999 -0.825 0  0.07500000000000001 -0.825 0  0.09999999999999998 -0.825 0  0.125 -0.825 0  0.15 -0.825 0  0.175 -0.825 0  0.2 -0.825 0  0.225 -0.825 0  0.25 -0.825 0  -0.25 -0.8 0  -0.225 -0.8 0  -0.2 -0.8 0  -0.175 -0.8 0  -0.15 -0.8 0  -0.125 -0.8 0  -0.1 -0.8 0  -0.07500000000000001 -0.8 0  -0.04999999999999999 -0.8 0  -0.02499999999999999 -0.8 0  0 -0.8 0  0.02500000000000002 -0.8 0  0.04999999999999999 -0.8 0  0.07500000000000001 -0.8 0  0.09999999999999998 -0.8 0  0.125 -0.8 0  0.15 -0.8 0  0.175 -0.8 0  0.2 -0.8 0  0.225 -0.8 0  0.25 -0.8 0  -0.25 -0.775 0  -0.225 -0.775 0  -0.2 -0.775 0  -0.175 -0.775 0  -0.15 -0.775 0  -0.125 -0.775 0  -0.1 -0.775 0  -0.07500000000000001 -0.775 0  -0.04999999999999999 -0.775 0  -0.02499999999999999 -0.775 0  0 -0.775 0  0.02500000000000002 -0.775 0  0.04999999999999999 -0.775 0  0.07500000000000001 -0.775 0  0.09999999999999998 -0.775 0  0.125 -0.775 0  0.15 -0.775 0  0.175 -0.775 0  0.2 -0.775 0  0.225 -0.775 0  0.25 -0.775 0  -0.25 -0.75 0  -0.225 -0.75 0  -0.2 -0.75 0  -0.175 -0.75 0  -0.15 -0.75 0  -0.125 -0.75 0  -0.1 -0.75 0  -0.07500000000000001 -0.75 0  -0.04999999999999999 -0.75 0  -0.02499999999999999 -0.75 0  0 -0.75 0  0.02500000000000002 -0.75 0  0.04999999999999999 -0.75 0  0.07500000000000001 -0.75 0  0.09999999999999998 -0.75 0  0.125 -0.75 0  0.15 -0.75 0  0.175 -0.75 0  0.2 -0.75 0  0.225 -0.75 0  0.25 -0.75 0  -0.25 -0.725 0  -0.225 -0.725 0  -0.2 -0.725 0  -0.175 -0.725 0  -0.15 -0.725 0  -0.125 -0.725 0  -0.1 -0.725 0  -0.07500000000000001 -0.725 0  -0.04999999999999999 -0.725 0  -0.02499999999999999 -0.725 0  0 -0.725 0  0.02500000000000002 -0.725 0  0.04999999999999999 -0.725 0  0.07500000000000001 -0.725 0  0.09999999999999998 -0.725 0  0.125 -0.725 0  0.15 -0.725 0  0.175 -0.725 0  0.2 -0.725 0  0.225 -0.725 0  0.25 -0.725 0  -0.25 -0.7 0  -0.225 -0.7 0  -0.2 -0.7 0  -0.175 -0.7 0  -0.15 -0.7 0  -0.125 -0.7 0  -0.1 -0.7 0  -0.07500000000000001 -0.7 0  -0.04999999999999999 -0.7 0  -0.02499999999999999 -0.7 0  0 -0.7 0  0.02500000000000002 -0.7 0  0.04999999999999999 -0.7 0  0.07500000000000001 -0.7 0  0.09999999999999998 -0.7 0  0.125 -0.7 0  0.15 -0.7 0  0.175 -0.7 0  0.2 -0.7 0  0.225 -0.7 0  0.25 -0.7 0  -0.25 -0.675 0  -0.225 -0.675 0  -0.2 -0.675 0  -0.175 -0.675 0  -0.15 -0.675 0  -0.125 -0.675 0  -0.1 -0.675 0  -0.07500000000000001 -0.675 0  -0.04999999999999999 -0.675 0  -0.02499999999999999 -0.675 0  0 -0.675 0  0.02500000000000002 -0.675 0  0.04999999999999999 -0.675 0  0.07500000000000001 -0.675 0  0.09999999999999998 -0.675 0  0.125 -0.675 0  0.15 -0.675 0  0.175 -0.675 0  0.2 -0.675 0  0.225 -0.675 0  0.25 -0.675 0  -0.25 -0.65 0  -0.225 -0.65 0  -0.2 -0.65 0  -0.175 -0.65 0  -0.15 -0.65 0  -0.125 -0.65 0  -0.1 -0.65 0  -0.07500000000000001 -0.65 0  -0.04999999999999999 -0.65 0  -0.02499999999999999 -0.65 0  0 -0.65 0  0.02500000000000002 -0.65 0  0.04999999999999999 -0.65 0  0.07500000000000001 -0.65 0  0.09999999999999998 -0.65 0  0.125 -0.65 0  0.15 -0.65 0  0.175 -0.65 0  0.2 -0.65 0  0.225 -0.65 0  0.25 -0.65 0  -0.25 -0.625 0  -0.225 -0.625 0  -0.2 -0.625 0  -0.175 -0.625 0  -0.15 -0.625 0  -0.125 -0.625 0  -0.1 -0.625 0  -0.07500000000000001 -0.625 0  -0.04999999999999999 -0.625 0  -0.02499999999999999 -0.625 0  0 -0.625 0  0.02500000000000002 -0.625 0  0.04999999999999999 -0.625 0  0.07500000000000001 -0.625 0  0.09999999999999998 -0.625 0  0.125 -0.625 0  0.15 -0.625 0  0.175 -0.625 0  0.2 -0.625 0  0.225 -0.625 0  0.25 -0.625 0  -0.25 -0.6 0  -0.225 -0.6 0  -0.2 -0.6 0  -0.175 -0.6 0  -0.15 -0.6 0  -0.125 -0.6 0  -0.1 -0.6 0  -0.07500000000000001 -0.6 0  -0.04999999999999999 -0.6 0  -0.02499999999999999 -0.6 0  0 -0.6 0  0.02500000000000002 -0.6 0  0.04999999999999999 -0.6 0  0.07500000000000001 -0.6 0  0.09999999999999998 -0.6 0  0.125 -0.6 0  0.15 -0.6 0  0.175 -0.6 0  0.2 -0.6 0  0.225 -0.6 0  0.25 -0.6 0  -0.25 -0.575 0  -0.225 -0.575 0  -0.2 -0.575 0  -0.175 -0.575 0  -0.15 -0.575 0  -0.125 -0.575 0  -0.1 -0.575 0  -0.07500000000000001 -0.575 0  -0.04999999999999999 -0.575 0  -0.02499999999999999 -0.575 0  0 -0.575 0  0.02500000000000002 -0.575 0  0.04999999999999999 -0.575 0  0.07500000000000001 -0.575 0  0.09999999999999998 -0.575 0  0.125 -0.575 0  0.15 -0.575 0  0.175 -0.575 0  0.2 -0.575 0  0.225 -0.575 0  0.25 -0.575 0  -0.25 -0.55 0  -0.225 -0.55 0  -0.2 -0.55 0  -0.175 -0.55 0  -0.15 -0.55 0  -0.125 -0.55 0  -0.1 -0.55 0  -0.07500000000000001 -0.55 0  -0.04999999999999999 -0.55 0  -0.02499999999999999 -0.55 0  0 -0.55 0  0.02500000000000002 -0.55 0  0.04999999999999999 -0.55 0  0.07500000000000001 -0.55 0  0.09999999999999998 -0.55 0  0.125 -0.55 0  0.15 -0.55 0  0.175 -0.55 0  0.2 -0.55 0  0.225 -0.55 0  0.25 -0.55 0  -0.25 -0.525 0  -0.225 -0.525 0  -0.2 -0.525 0  -0.175 -0.525 0  -0.15 -0.525 0  -0.125 -0.525 0  -0.1 -0.525 0  -0.07500000000000001 -0.525 0  -0.04999999999999999 -0.525 0  -0.02499999999999999 -0.525 0  0 -0.525 0  0.02500000000000002 -0.525 0  0.04999999999999999 -0.525 0  0.07500000000000001 -0.525 0  0.09999999999999998 -0.525 0  0.125 -0.525 0  0.15 -0.525 0  0.175 -0.525 0  0.2 -0.525 0  0.225 -0.525 0  0.25 -0.525 0  -0.25 -0.5 0  -0.225 -0.5 0  -0.2 -0.5 0  -0.175 -0.5 0  -0.15 -0.5 0  -0.125 -0.5 0  -0.1 -0.5 0  -0.07500000000000001 -0.5 0  -0.04999999999999999 -0.5 0  -0.02499999999999999 -0.5 0  0 -0.5 0  0.02500000000000002 -0.5 0  0.04999999999999999 -0.5 0  0.07500000000000001 -0.5 0  0.09999999999999998 -0.5 0  0.125 -0.5 0  0.15 -0.5 0  0.175 -0.5 0  0.2 -0.5 0  0.225 -0.5 0  0.25 -0.5 0  -0.25 -0.475 0  -0.225 -0.475 0  -0.2 -0.475 0  -0.175 -0.475 0  -0.15 -0.475 0  -0.125 -0.475 0  -0.1 -0.475 0  -0.07500000000000001 -0.475 0  -0.04999999999999999 -0.475 0  -0.02499999999999999 -0.475 0  0 -0.475 0  0.02500000000000002 -0.475 0  0.04999999999999999 -0.475 0  0.07500000000000001 -0.475 0  0.09999999999999998 -0.475 0  0.125 -0.475 0  0.15 -0.475 0  0.175 -0.475 0  0.2 -0.475 0  0.225 -0.475 0  0.25 -0.475 0  -0.25 -0.45 0  -0.225 -0.45 0  -0.2 -0.45 0  -0.175 -0.45 0  -0.15 -0.45 0  -0.125 -0.45 0  -0.1 -0.45 0  -0.07500000000000001 -0.45 0  -0.04999999999999999 -0.45 0  -0.02499999999999999 -0.45 0  0 -0.45 0  0.02500000000000002 -0.45 0  0.04999999999999999 -0.45 0  0.07500000000000001 -0.45 0  0.09999999999999998 -0.45 0  0.125 -0.45 0  0.15 -0.45 0  0.175 -0.45 0  0.2 -0.45 0  0.225 -0.45 0  0.25 -0.45 0  -0.25 -0.425 0  -0.225 -0.425 0  -0.2 -0.425 0  -0.175 -0.425 0  -0.15 -0.425 0  -0.125 -0.425 0  -0.1 -0.425 0  -0.07500000000000001 -0.425 0  -0.04999999999999999 -0.425 0  -0.02499999999999999 -0.425 0  0 -0.425 0  0.02500000000000002 -0.425 0  0.04999999999999999 -0.425 0  0.07500000000000001 -0.425 0  0.
[...]
<PointData  Vectors="flow"> 
<DataArray  type="Float64"  Name="flow"  NumberOfComponents="3" format="ascii">-1.5694634527080655e+00 3.1389583183994501e+00 0.0000000000000000e+00  7.1469034909272199e-05 3.1389583183854661e+00 0.0000000000000000e+00  -1.6452511853599457e-09 3.1389583183919538e+00 0.0000000000000000e+00  1.4136945550429773e-12 3.1389583183899625e+00 0.0000000000000000e+00  -7.6313612272368678e-12 3.1389583183989322e+00 0.0000000000000000e+00  -2.5030460754142350e-12 3.1389583183992005e+00 0.0000000000000000e+00  -1.5097891782154760e-11 3.1389583184019476e+00 0.0000000000000000e+00  -1.2082323991799599e-11 3.1389583183961838e+00 0.0000000000000000e+00  -1.4353562052280379e-11 3.1389583183834953e+00 0.0000000000000000e+00  -1.6816494860377111e-11 3.1389583184093102e+00 0.0000000000000000e+00  -1.5522987218371010e-11 3.1389583183885246e+00 0.0000000000000000e+00  -1.3953748665360200e-11 3.1389583183913063e+00 0.0000000000000000e+00  -1.2746291183916290e-11 3.1389583184000314e+00 0.0000000000000000e+00  -1.0929826380086192e-11 3.1389583183940299e+00 0.0000000000000000e+00  -1.5879923189125117e-11 3.1389583183937524e+00 0.0000000000000000e+00  -6.3007997863741646e-12 3.1389583183967988e+00 0.0000000000000000e+00  -2.8711484544561874e-12 3.1389583183847680e+00 0.0000000000000000e+00  -3.6458352061237382e-12 3.1389583183909564e+00 0.0000000000000000e+00  1.6433137219973407e-09 3.1389583184001997e+00 0.0000000000000000e+00  -7.1469047430870134e-05 3.1389583183997138e+00 0.0000000000000000e+00  1.5694634527116891e+00 3.1389583184020515e+00 0.0000000000000000e+00  -1.5683200004693030e+00 9.4142707567655197e+00 0.0000000000000000e+00  7.1442790516593129e-05 9.4142707567698114e+00 0.0000000000000000e+00  -1.6568595574721943e-09 9.4142707567714350e+00 0.0000000000000000e+00  -4.3180685132435501e-12 9.4142707567716339e+00 0.0000000000000000e+00  -8.3126457081270225e-12 9.4142707567646315e+00 0.0000000000000000e+00  3.1280653398371038e-13 9.4142707567705131e+00 0.0000000000000000e+00  -1.1998041873479030e-11 9.4142707567678752e+00 0.0000000000000000e+00  -1.9213352401466488e-11 9.4142707567695805e+00 0.0000000000000000e+00  -7.3756784228922229e-12 9.4142707567720727e+00 0.0000000000000000e+00  -1.7775636100456636e-11 9.4142707567684383e+00 0.0000000000000000e+00  -1.8898303121596872e-11 9.4142707567718649e+00 0.0000000000000000e+00  -1.0274489619894985e-11 9.4142707567711259e+00 0.0000000000000000e+00  -1.4310733012788430e-11 9.4142707567729786e+00 0.0000000000000000e+00  -1.4071002721444021e-11 9.4142707567657560e+00 0.0000000000000000e+00  -7.9502183532944850e-12 9.4142707567676389e+00 0.0000000000000000e+00  -6.9807899006199025e-12 9.4142707567718205e+00 0.0000000000000000e+00  -9.1674534655917253e-12 9.4142707567717654e+00 0.0000000000000000e+00  -1.2194614378206829e-12 9.4142707567723622e+00 0.0000000000000000e+00  1.6497059108883612e-09 9.4142707567704278e+00 0.0000000000000000e+00  -7.1442790933501431e-05 9.4142707567671131e+00 0.0000000000000000e+00  1.5683200004694349e+00 9.4142707567705486e+00 0.0000000000000000e+00  -1.5648904846511416e+00 1.8814821933093690e+01 0.0000000000000000e+00  7.1363653483205443e-05 1.8814821933088613e+01 0.0000000000000000e+00  -1.6897390947781855e-09 1.8814821933086019e+01 0.0000000000000000e+00  -1.9915131845764045e-12 1.8814821933085966e+01 0.0000000000000000e+00  -9.3221419337061563e-12 1.8814821933086865e+01 0.0000000000000000e+00  -7.0450241594080722e-12 1.8814821933082047e+01 0.0000000000000000e+00  -1.2210691838919182e-11 1.8814821933081809e+01 0.0000000000000000e+00  -8.2578086637607997e-12 1.8814821933082285e+01 0.0000000000000000e+00  -9.8363606425782087e-12 1.8814821933088922e+01 0.0000000000000000e+00  -1.7128815085518860e-11 1.8814821933085391e+01 0.0000000000000000e+00  -1.5872900962503664e-11 1.8814821933086883e+01 0.0000000000000000e+00  -1.7498797031156250e-11 1.8814821933083653e+01 0.0000000000000000e+00  -1.1213316474089013e-11 1.8814821933076516e+01 0.0000000000000000e+00  -1.2922340429347422e-11 1.8814821933088574e+01 0.0000000000000000e+00  -1.1054779898131585e-11 1.8814821933085359e+01 0.0000000000000000e+00  -3.8073365286493042e-12 1.8814821933085781e+01 0.0000000000000000e+00  -5.7983878993435719e-12 1.8814821933091658e+01 0.0000000000000000e+00  -5.4310247681798623e-12 1.8814821933087700e+01 0.0000000000000000e+00  1.6845435113501932e-09 1.8814821933088698e+01 0.0000000000000000e+00  -7.1363663575900162e-05 1.8814821933087806e+01 0.0000000000000000e+00  1.5648904846640599e+00 1.8814821933079731e+01 0.0000000000000000e+00  -1.5591774395613840e+00 2.8187944064883411e+01 0.0000000000000000e+00  7.1230585968700151e-05 2.8187944064891688e+01 0.0000000000000000e+00  -1.7428189727407994e-09 2.8187944064891283e+01 0.0000000000000000e+00  -1.0477911341884799e-11 2.8187944064895241e+01 0.0000000000000000e+00  -5.1478949108598137e-12 2.8187944064897337e+01 0.0000000000000000e+00  -6.8870270226532235e-12 2.8187944064886342e+01 0.0000000000000000e+00  -7.0088791706596527e-12 2.8187944064894207e+01 0.0000000000000000e+00  -1.3052882071127493e-11 2.8187944064888651e+01 0.0000000000000000e+00  -1.2108562026724736e-11 2.8187944064889997e+01 0.0000000000000000e+00  -1.3728437278106416e-11 2.8187944064897557e+01 0.0000000000000000e+00  -1.6516953771005314e-11 2.8187944064892665e+01 0.0000000000000000e+00  -1.7028570497710771e-11 2.8187944064900975e+01 0.0000000000000000e+00  -1.6586286993248959e-11 2.8187944064895152e+01 0.0000000000000000e+00  -6.8068852566484015e-12 2.8187944064894911e+01 0.0000000000000000e+00  -1.4135419820671924e-11 2.8187944064897508e+01 0.0000000000000000e+00  -1.0189592390987429e-12 2.8187944064894332e+01 0.0000000000000000e+00  -4.5107235199661520e-12 2.8187944064893102e+01 0.0000000000000000e+00  -4.7417361125093766e-12 2.8187944064892026e+01 0.0000000000000000e+00  1.7382901032892215e-09 2.8187944064891475e+01 0.0000000000000000e+00  -7.1230591212324167e-05 2.8187944064894808e+01 0.0000000000000000e+00  1.5591774395589788e+00 2.8187944064898424e+01 0.0000000000000000e+00  -1.5511851270338350e+00 3.7519948058204484e+01 0.0000000000000000e+00  7.1041803449890657e-05 3.7519948058204946e+01 0.0000000000000000e+00  -1.8189572007895127e-09 3.7519948058200640e+01 0.0000000000000000e+00  2.4201640158274897e-13 3.7519948058205088e+01 0.0000000000000000e+00  -1.3584366621022899e-11 3.7519948058199958e+01 0.0000000000000000e+00  -1.1612686465419384e-11 3.7519948058206445e+01 0.0000000000000000e+00  -8.3850492836250305e-12 3.7519948058200505e+01 0.0000000000000000e+00  -9.3223365919520154e-12 3.7519948058209756e+01 0.0000000000000000e+00  -9.9837801306166187e-12 3.7519948058201983e+01 0.0000000000000000e+00  -1.2427067905761400e-11 3.7519948058201280e+01 0.0000000000000000e+00  -1.9691910613004811e-11 3.7519948058203241e+01 0.0000000000000000e+00  -1.2297510551106960e-11 3.7519948058203013e+01 0.0000000000000000e+00  -2.0022810481463632e-11 3.7519948058209607e+01 0.0000000000000000e+00  -9.4739604041004821e-12 3.7519948058200207e+01 0.0000000000000000e+00  -1.0083456673145582e-11 3.7519948058200022e+01 0.0000000000000000e+00  -5.6208395027548828e-12 3.7519948058198906e+01 0.0000000000000000e+00  -4.1695371036858437e-12 3.7519948058202239e+01 0.0000000000000000e+00  -5.5811949778208846e-12 3.7519948058199617e+01 0.0000000000000000e+00  1.8156546046245359e-09 3.7519948058202885e+01 0.0000000000000000e+00  -7.1041807960309591e-05 3.7519948058207916e+01 0.0000000000000000e+00  1.5511851270370487e+00 3.7519948058198374e+01 0.0000000000000000e+00  -1.5409195929113366e+00 4.6797175714929821e+01 0.0000000000000000e+00  7.0794891136966343e-05 4.6797175714925302e+01 0.0000000000000000e+00  -1.9119838789500135e-09 4.6797175714927874e+01 0.0000000000000000e+00  -9.2312319046831868e-12 4.6797175714923853e+01 0.0000000000000000e+00  -7.6457212036519904e-12 4.6797175714925601e+01 0.0000000000000000e+00  -6.9713387080167907e-12 4.6797175714932756e+01 0.0000000000000000e+00  -1.2013176873805277e-11 4.6797175714929061e+01 0.0000000000000000e+00  -6.4960614010197688e-12 4.6797175714929757e+01 0.0000000000000000e+00  -1.4394133699590592e-11 4.6797175714927285e+01 0.0000000000000000e+00  -1.7972588092736955e-11 4.6797175714922616e+01 0.0000000000000000e+00  -1.5826601251949351e-11 4.6797175714923888e+01 0.0000000000000000e+00  -7.3354719326607797e-12 4.6797175714920911e+01 0.0000000000000000e+00  -1.8398279569189986e-11 4.6797175714921330e+01 0.0000000000000000e+00  -1.3441355957276393e-11 4.6797175714926588e+01 0.0000000000000000e+00  -8.7944623372576577e-12 4.6797175714923789e+01 0.0000000000000000e+00  -5.5916254759929066e-12 4.6797175714925793e+01 0.0000000000000000e+00  -4.2434280060869421e-12 4.6797175714923533e+01 0.0000000000000000e+00  -8.0318425807461233e-12 4.6797175714926986e+01 0.0000000000000000e+00  1.9158809635862092e-09 4.6797175714923583e+01 0.0000000000000000e+00  -7.0794893176877199e-05 4.6797175714925579e+01 0.0000000000000000e+00  1.5409195928972592e+00 4.6797175714930738e+01 0.0000000000000000e+00  -1.5283887445599216e+00 5.6006010661243643e+01 0.0000000000000000e+00  7.0486789160064284e-05 5.6006010661243891e+01 0.0000000000000000e+00  -2.0399021214907154e-09 5.6006010661242378e+01 0.0000000000000000e+00  -1.8995228081319063e-12 5.6006010661237362e+01 0.0000000000000000e+00  -9.4435398652351005e-13 5.6006010661243145e+01 0.0000000000000000e+00  -7.8100579687776748e-12 5.6006010661239678e+01 0.0000000000000000e+00  -9.3480719788104686e-12 5.6006010661246634e+01 0.0000000000000000e+00  -1.1700901340371728e-11 5.6006010661238349e+01 0.0000000000000000e+00  -1.4590324275967496e-11 5.6006010661238783e+01 0.0000000000000000e+00  -1.5656304101057802e-11 5.6006010661242740e+01 0.0000000000000000e+00  -1.6391764583513724e-11 5.6006010661242314e+01 0.0000000000000000e+00  -1.3199621879798206e-11 5.6006010661243025e+01 0.0000000000000000e+00  -1.7602039670777193e-11 5.6006010661242534e+01 0.0000000000000000e+00  -1.4324561233638448e-11 5.6006010661237191e+01 0.0000000000000000e+00  -8.7167483598514725e-12 5.6006010661243735e+01 0.0000000000000000e+00  -4.4984628233893414e-12 5.6006010661247977e+01 0.0000000000000000e+00  -5.7848354454388659e-12 5.6006010661243877e+01 0.0000000000000000e+00  -2.9515630554421401e-12 5.6006010661242158e+01 0.0000000000000000e+00  2.0267684686309822e-09 5.6006010661246478e+01 0.0000000000000000e+00  -7.0486787010294583e-05 5.6006010661243444e+01 0.0000000000000000e+00  1.5283887445579611e+00 5.6006010661248645e+01 0.0000000000000000e+00  -1.5136024485371036e+00 6.5132889801927277e+01 0.0000000000000000e+00  7.0113876825515404e-05 6.5132889801922559e+01 0.0000000000000000e+00  -2.1599502435419729e-09 6.5132889801929878e+01 0.0000000000000000e+00  -3.3491198680996396e-12 6.5132889801931469e+01 0.0000000000000000e+00  -6.7666334044356589e-12 6.5132889801929537e+01 0.0000000000000000e+00  -8.2429324997035803e-12 6.5132889801923440e+01 0.0000000000000000e+00  -8.8676688202368986e-12 6.5132889801923639e+01 0.0000000000000000e+00  -1.6112392738959326e-11 6.5132889801924279e+01 0.0000000000000000e+00  -7.0748069764528681e-12 6.5132889801928826e+01 0.0000000000000000e+00  -1.6872217730020455e-11 6.5132889801930332e+01 0.0000000000000000e+00  -1.7041244249754925e-11 6.5132889801930915e+01 0.0000000000000000e+00  -1.1169529978931198e-11 6.5132889801930475e+01 0.0000000000000000e+00  -1.8096359165440988e-11 6.5132889801927334e+01 0.0000000000000000e+00  -1.3010285704678872e-11 6.5132889801929892e+01 0.0000000000000000e+00  -2.5695749260427726e-12 6.5132889801930034e+01 0.0000000000000000e+00  -4.5604853521671096e-12 6.5132889801924378e+01 0.0000000000000000e+00  -1.2320241544707451e-11 6.5132889801926552e+01 0.0000000000000000e+00  -9.0555666887300104e-13 6.5132889801925842e+01 0.0000000000000000e+00  2.1526207157251644e-09 6.5132889801928840e+01 0.0000000000000000e+00  -7.0113878333829033e-05 6.5132889801923000e+01 0.0000000000000000e+00  1.5136024485272321e+00 6.5132889801921550e+01 0.0000000000000000e+00  -1.4965726461359714e+00 7.4164315415194451e+01 0.0000000000000000e+00  6.9672034972768421e-05 7.4164315415202950e+01 0.0000000000000000e+00  -2.3015696739816164e-09 7.4164315415199113e+01 0.0000000000000000e+00  -2.4541792853309801e-12 7.4164315415200605e+01 0.0000000000000000e+00  -3.0666123282748522e-12 7.4164315415202935e+01 0.0000000000000000e+00  -1.4275433762099097e-11 7.4164315415206474e+01 0.0000000000000000e+00  -8.2537468855849693e-12 7.4164315415202978e+01 0.0000000000000000e+00  -1.0460469202418412e-11 7.4164315415208733e+01 0.0000000000000000e+00  -1.2989237377643627e-11 7.4164315415207241e+01 0.0000000000000000e+00  -1.3495130097384347e-11 7.4164315415202239e+01 0.0000000000000000e+00  -1.5943158037907519e-11 7.4164315415203049e+01 0.0000000000000000e+00  -1.9791671603541554e-11 7.4164315415199823e+01 0.0000000000000000e+00  -1.3933491033259079e-11 7.4164315415200150e+01 0.0000000000000000e+00  -1.1617130792586328e-11 7.4164315415204811e+01 0.0000000000000000e+00  -1.2058232147395839e-11 7.4164315415195887e+01 0.0000000000000000e+00  -4.3946237080786278e-12 7.4164315415199653e+01 0.0000000000000000e+00  -8.0608973961585896e-12 7.4164315415204086e+01 0.0000000000000000e+00  -7.4459742739658765e-15 7.4164315415203504e+01 0.0000000000000000e+00  2.3000133887321205e-09 7.4164315415197862e+01 0.0000000000000000e+00  -6.9672041548935550e-05 7.4164315415206275e+01 0.0000000000000000e+00  1.4965726461440947e+00 7.4164315415201600e+01 0.0000000000000000e+00  -1.4773134855701744e+00 8.3086867991559288e+01 0.0000000000000000e+00  6.9156687501136898e-05 8.3086867991560965e+01 0.0000000000000000e+00  -2.4530608658363638e-09 8.3086867991559515e+01 0.0000000000000000e+00  -1.7921121741554265e-12 8.3086867991565612e+01 0.0000000000000000e+00  -8.2602418487840104e-12 8.3086867991560339e+01 0.0000000000000000e+00  -5.4244100067720989e-12 8.3086867991564773e+01 0.0000000000000000e+00  -7.2209375067405465e-12 8.3086867991563409e+01 0.0000000000000000e+00  -1.5062554574537089e-11 8.3086867991561206e+01 0.0000000000000000e+00  -9.5317832010374964e-12 8.3086867991559558e+01 0.0000000000000000e+00  -1.5077908834200276e-11 8.3086867991562826e+01 0.0000000000000000e+00  -2.0650245333350527e-11 8.3086867991558165e+01 0.0000000000000000e+00  -1.6155808939167780e-11 8.3086867991561931e+01 0.0000000000000000e+00  -1.6751847968909464e-11 8.3086867991559188e+01 0.0000000000000000e+00  -1.3512019580619315e-11 8.3086867991556801e+01 0.0000000000000000e+00  -1.1156364113122558e-11 8.3086867991561064e+01 0.0000000000000000e+00  2.3377648518533873e-12 8.3086867991558307e+01 0.0000000000000000e+00  -4.3945514312154449e-12 8.3086867991558790e+01 0.0000000000000000e+00  -6.9842361714105684e-12 8.3086867991563167e+01 0.0000000000000000e+00  2.4521071579007822e-09 8.3086867991563182e+01 0.0000000000000000e+00  -6.9156690871044387e-05 8.3086867991559032e+01 0.0000000000000000e+00  1.4773134855783976e+00 8.3086867991560283e+01 0.0000000000000000e+00  -1.4558414677013989e+00 9.1887219907305820e+01 0.0000000000000000e+00  6.8562923241718900e-05 9.1887219907302125e+01 0.0000000000000000e+00  -2.6171440024986309e-09 9.1887219907304058e+01 0.0000000000000000e+00  -3.6276482550666941e-12 9.1887219907296213e+01 0.0000000000000000e+00  -6.3190073730340327e-12 9.1887219907300079e+01 0.0000000000000000e+00  -6.4120436215180089e-12 9.1887219907297251e+01 0.0000000000000000e+00  -9.0157041766235690e-12 9.1887219907299439e+01 0.0000000000000000e+00  -1.2125207523334861e-11 9.1887219907299141e+01 0.0000000000000000e+00  -1.1375595427896751e-11 9.1887219907301812e+01 0.0000000000000000e+00  -1.8397485668794012e-11 9.1887219907296881e+01 0.0000000000000000e+00  -1.7159369030448486e-11 9.1887219907300974e+01 0.0000000000000000e+00  -1.5603944346097184e-11 9.1887219907297805e+01 0.0000000000000000e+00  -1.8512151993360464e-11 9.1887219907302111e+01 0.0000000000000000e+00  -7.1375422548427180e-12 9.1887219907299638e+01 0.0000000000000000e+00  -1.1938615127763036e-11 9.1887219907301798e+01 0.0000000000000000e+00  -7.9574633857310620e-12 9.1887219907300434e+01 0.0000000000000000e+00  -5.1708066292728680e-12 9.1887219907298999e+01 0.0000000000000000e+00  8.7890428164570764e-13 9.1887219907297165e+01 0.0000000000000000e+00  2.6157448857069115e-09 9.1887219907299539e+01 0.0000000000000000e+00  -6.8562924793784098e-05 9.1887219907301301e+01 0.0000000000000000e+00  1.4558414677006546e+00 9.1887219907306971e+01 0.0000000000000000e+00  -1.4321756035273299e+00 1.0055215000897908e+02 0.0000000000000000e+00  6.7885535229005327e-05 1.0055215000897657e+02 0.0000000000000000e+00  -2.7869885255939873e-09 1.0055215000897904e+02 0.0000000000000000e+00  -1.2870504804348871e-12 1.0055215000897756e+02 0.0000000000000000e+00  -5.8076353682870850e-12 1.0055215000897745e+02 0.0000000000000000e+00  -5.6248035540728124e-12 1.0055215000898035e+02 0.0000000000000000e+00  -1.0100417840162982e-11 1.0055215000897792e+02 0.0000000000000000e+00  -1.6823258791915987e-11 1.0055215000897519e+02 0.0000000000000000e+00  -1.2117497665326215e-11 1.0055215000897564e+02 0.0000000000000000e+00  -1.4165745637072170e-11 1.0055215000897360e+02 0.0000000000000000e+00  -1.9074012610810725e-11 1.0055215000897755e+02 0.0000000000000000e+00  -1.6630102273326623e-11 1.0055215000897444e+02 0.0000000000000000e+00  -1.4950615743179562e-11 1.0055215000897492e+02 0.0000000000000000e+00  -1.5056449610680663e-11 1.0055215000897859e+02 0.0000000000000000e+00  -7.1059842977400792e-12 1.0055215000897655e+02 0.0000000000000000e+00  -3.1875516927321115e-12 1.0055215000898130e+02 0.0000000000000000e+00  -1.6708834457198137e-12 1.0055215000897635e+02 0.0000000000000000e+00  -9.0903168681731691e-12 1.0055215000898052e+02 0.0000000000000000e+00  2.7842700398465697e-09 1.0055215000897778e+02 0.0000000000000000e+00  -6.7885534388568178e-05 1.0055215000897635e+02 0.0000000000000000e+00  1.4321756035300752e+00 1.0055215000897584e+02 0.0000000000000000e+00  -1.4063375801102631e+00 1.0906855916895356e+02 0.0000000000000000e+00  6.7119164018398139e-05 1.0906855916895186e+02 0.0000000000000000e+00  -2.9553237053166000e-09 1.0906855916895016e+02 0.0000000000000000e+00  -9.0552782830310412e-12 1.0906855916895523e+02 0.0000000000000000e+00  -4.3758132159098089e-12 1.0906855916895317e+02 0.0000000000000000e+00  -7.8145602970103180e-12 1.0906855916894966e+02 0.0000000000000000e+00  -1.0531615023949822e-11 1.0906855916894942e+02 0.0000000000000000e+00  -9.0854191132614999e-12 1.0906855916894936e+02 0.0000000000000000e+00  -1.4864858610382320e-11 1.0906855916895266e+02 0.0000000000000000e+00  -1.2097254324925980e-11 1.0906855916895503e+02 0.0000000000000000e+00  -1.7717747423275802e-11 1.0906855916895469e+02 0.0000000000000000e+00  -1.9993444911776569e-11 1.0906855916895445e+02 0.0000000000000000e+00  -1.5549861487176741e-11 1.0906855916895205e+02 0.0000000000000000e+00  -8.5000968898044068e-12 1.0906855916895177e+02 0.0000000000000000e+00  -8.8975974991560744e-12 1.0906855916895192e+02 0.0000000000000000e+00  -9.2619106573771150e-12 1.0906855916895306e+02 0.0000000000000000e+00  1.9614544825371801e-12 1.0906855916895556e+02 0.0000000000000000e+00  -9.6720097439545569e-13 1.0906855916896103e+02 0.0000000000000000e+00  2.9523899281590027e-09 1.0906855916895992e+02 0.0000000000000000e+00  -6.7119169992242714e-05 1.0906855916895691e+02 0.0000000000000000e+00  1.4063375801202080e+00 1.0906855916895289e+02 0.0000000000000000e+00  -1.3783519322338198e+00 1.1742348685513818e+02 0.0000000000000000e+00  6.6258350460343486e-05 1.1742348685514146e+02 0.0000000000000000e+00  -3.1220964924151967e-09 1.1742348685513909e+02 0.0000000000000000e+00  2.1949379908703034e-12 1.1742348685514268e+02 0.0000000000000000e+00  -8.3591246127571585e-12 1.1742348685514466e+02 0.0000000000000000e+00  -1.2392265895368233e-11 1.1742348685513737e+02 0.0000000000000000e+00  -9.2435032930702926e-12 1.1742348685514494e+02 0.0000000000000000e+00  -1.1130516952540101e-11 1.1742348685514317e+02 0.0000000000