<?xml version="1.0"?>
<VTKFile type="UnstructuredGrid"  version="0.1"  >
<UnstructuredGrid>
<Piece  NumberOfPoints="787" NumberOfCells="1467">
<Points>
<DataArray  type="Float64"  NumberOfComponents="3"  format="ascii">0.0253163763831596 -0.05095008515408326 0  0.02646635899959049 -0.05225988253257415 0  0.02502149670340228 -0.05243561046763882 0  0.0192363369162766 -0.06806970979678284 0  0.01785689970612189 -0.06858119646279974 0  0.01816465710605705 -0.06729533536873264 0  0.01263888697332505 -0.07850851049115726 0  0.01156618300102526 -0.08035095936378936 0  0.01063628931142468 -0.07857606263072298 0  0.03742133235740961 -0.09005672929239181 0  0.03821948520829777 -0.08878625345726171 0  0.03882498194897689 -0.09005259581168121 0  0.02831316747097568 -0.08353943177895332 0  0.02680418453963673 -0.08396552000116861 0  0.02856782985571023 -0.08503864443391608 0  0.02197300492838798 -0.07785849992225746 0  0.0236515119744492 -0.07882937295138227 0  0.02399582230499316 -0.07726175314528801 0  0.03830062369057925 -0.07890970096328502 0  0.04001413922274079 -0.07947217220789768 0  0.0394739904630113 -0.07822641714535092 0  0.03307580228966352 -0.05623244866465846 0  0.03304454983566926 -0.05808833194342944 0  0.03147362087845901 -0.05656070851086208 0  0.01008019185444602 -0.0897030704995445 0  0.01216681726782447 -0.08857720631714282 0  0.01204980799896014 -0.09085690702402351 0  0.01427753806508674 -0.08965722182118722 0  0.01499662781635355 -0.09120498855657148 0  0.01375614872125667 -0.09084038570529977 0  0.02454468748321089 -0.07169143887984709 0  0.02436733001795869 -0.07015802637527714 0  0.02295612571718715 -0.0715890179003351 0  0.01533533535351063 -0.06979991037261025 0  0.0177806445325376 -0.07005043122102393 0  0.01646203234597888 -0.06811342443084387 0  0.03965658412817928 -0.06102022076500465 0  0.03788556172893791 -0.06203052595151176 0  0.04026188792608635 -0.06274413791360257 0  0.04364884417698481 -0.07754216050898051 0  0.04382140937462677 -0.07954037552804112 0  0.0421967587521993 -0.07768066254010801 0  0.03348214285714286 -0.08348214285714287 0  0.03423230346285393 -0.08200465277485418 0  0.03243162425094744 -0.08246417709341107 0  0.03072628767995273 -0.06184751883997637 0  0.03115040578880909 -0.06003372802837696 0  0.03202687516019807 -0.06100224316397799 0  0.01914387172830702 -0.06345432668240811 0  0.01904183715184792 -0.06150750363943223 0  0.01763933584190689 -0.06216030655882796 0  0.01719551374627341 -0.0830513925183794 0  0.01933763519132608 -0.08192062756666578 0  0.01921813111793967 -0.08404606885628335 0  0.03470250342566425 -0.06222309747987002 0  0.03270661615787385 -0.06211766788261659 0  0.03364747500351112 -0.06325105457070009 0  0.0337884473891351 -0.05460718489330078 0  0.0321356245381919 -0.05463308953185839 0  0.01400809758125955 -0.08758125694359854 0  0.01289591636702387 -0.089754840573112 0  0.03188613320287887 -0.09091108404481391 0  0.0300036120570274 -0.09202382523642311 0  0.03071003455387907 -0.09027106838440507 0  0.03949346768185091 -0.08799370978142433 0  0.04083982813554821 -0.0893700658764271 0  0.02938595614515601 -0.08632050280733992 0  0.03040971863707885 -0.08765127485705719 0  0.02890982094386123 -0.08799498718573706 0  0.04345783710819453 -0.09110483561269606 0  0.04497005514864892 -0.09093463669157506 0  0.0430759581110159 -0.08978773661708545 0  0.0247793305670809 -0.05631957595084435 0  0.02619917778579364 -0.05802778737135143 0  0.02492128034734876 -0.05869428615775265 0  0.02164306295595804 -0.06702658770968295 0  0.02309723803175772 -0.06832518233624925 0  0.02097971601908238 -0.06879409185499595 0  0.02057363836381549 -0.07561467685960577 0  0.01923138543540909 -0.07596279202513538 0  0.0201836820135381 -0.07437805413953116 0  0.03169978531106885 -0.08534923982812244 0  0.0331891491596804 -0.0863907328258092 0  0.03075063691921128 -0.08632983044099815 0  0.01711132032047017 -0.07193570335093875 0  0.01598258986133356 -0.07106798872868814 0  0.03505406134441619 -0.08335106406575787 0  0.03311297132996835 -0.08491400694606925 0  0.02804257120035339 -0.07849071976552029 0  0.03034478515829682 -0.07792111926930155 0  0.02892546366582221 -0.07680880088540872 0  0.02416154146863935 -0.08070016162395202 0  0.0224843414054342 -0.08250864398128172 0  0.02411024678398856 -0.08233455566936589 0  0.025334823172674 -0.08341820123348352 0  0.02522643562136178 -0.08512845143297179 0  0.01649073826091686 -0.06319659086967212 0  0.01570123454296709 -0.06506178719416507 0  0.01770106090999505 -0.06452207583910662 0  0.01728938824664831 -0.06065342293474459 0  0.04464334080337827 -0.06477056026673604 0  0.04502387202811982 -0.06659229383285178 0  0.04636594091932174 -0.06552590861214863 0  0.01809300284513205 -0.05689299134079161 0  0.01981701831826052 -0.05842591866861049 0  0.01792103282159441 -0.05882232399720749 0  0.01454995940546648 -0.05199794358506395 0  0.01686434304608255 -0.05145915617355584 0  0.01581567795051093 -0.04979263651326838 0  0.03869863810845114 -0.05851213874557144 0  0.04018585363524062 -0.05724246148436949 0  0.03970578764389624 -0.05956444608131971 0  0.04500704918173798 -0.08941332064415353 0  0.0468279944940574 -0.09080811063091072 0  0.04534211210420257 -0.09241021952437389 0  0.04670060681091085 -0.09670060681091086 0  0.04504539898905737 -0.09601953464091741 0  0.04639081665769942 -0.09510162937447562 0  0.04205467609998415 -0.06146564627654705 0  0.04107518642763387 -0.06006088126008405 0  0.04241869617792832 -0.06016796568913897 0  0.03694482364888862 -0.07483282559208632 0  0.03610885884382378 -0.07281806235528819 0  0.03807023319162758 -0.07320682963349499 0  0.02958027680234551 -0.07172324007054222 0  0.02856154711422706 -0.07386136174728263 0  0.02755543059494003 -0.07239631376986599 0  0.03639778858618781 -0.07619102435699082 0  0.0384705842660954 -0.07508656202965074 0  0.04684624656174251 -0.07187500000000001 0  0.04842312328087126 -0.07343340336823168 0  0.04685549256184014 -0.07344263060849651 0  0.04337196116786825 -0.07463925880684733 0  0.04210124169070797 -0.07622511749289544 0  0.04354979210673399 -0.07608378292408841 0  0.03637679552963742 -0.07765509762578199 0  0.0385769480595515 -0.0766296156204922 0  0.02736491626781095 -0.07590524263897044 0  0.02687859119369121 -0.07741425412276508 0  0.009435764744425919 -0.08043238240966273 0  0.00926086646052551 -0.08713687094856779 0  0.01084917183279576 -0.08758400344942135 0  0.009765258461052893 -0.08838972595063958 0  0.025 -0.1 0  0.02574660752638188 -0.09831523885802962 0  0.02425762309203308 -0.09845112215652949 0  0.02717161535066178 -0.09714682300539645 0  0.02814040517327717 -0.09840897789012983 0  0.0287187101773846 -0.09677522339481145 0  0.01875 -0.09260679016400503 0  0.01746426634563599 -0.0946966824898527 0  0.02000489244543809 -0.09471513491297798 0  0.04446421559415197 -0.08718473081338503 0  0.04367940145364908 -0.0885562994627993 0  0.02088671269095009 -0.06240702469651116 0  0.0278582381998454 -0.05655080703154879 0  0.02860271266695176 -0.05463752982112181 0  0.02637310899341614 -0.0557118438524549 0  0.02378330144214598 -0.0516705092605356 0  0.02507311958935473 -0.06271161136998743 0  0.02657608507230502 -0.06228073040903606 0  0.02551730029560318 -0.06142426381158862 0  0.0305796626780135 -0.05519119088158705 0  0.0328125 -0.05312500000000001 0  0.0376081921684235 -0.05245551308128505 0  0.03762419922489806 -0.05459874974087802 0  0.03635973676985995 -0.05369008569158945 0  0.04767128262860884 -0.05537540323700023 0  0.04546530640752131 -0.05503961419206276 0  0.04578782911147741 -0.05675321623119051 0  0.03686548041120438 -0.06032818054708596 0  0.036644526860098 -0.05856190909012812 0  0.03769074722308389 -0.05932798700863462 0  0.02063243529930224 -0.08719964433792667 0  0.01908514024155837 -0.0863776329894482 0  0.0199696387685163 -0.08525850927813482 0  0.006250000000000001 -0.08914373740925415 0  0.007964066885959199 -0.090800007287408 0  0.008299592740779536 -0.0888576775342028 0  0.008695080668314235 -0.07807940410525299 0  0.0155154430127655 -0.07780260757679426 0  0.01598440846056885 -0.07579471522088828 0  0.01473201805325772 -0.07656091781105955 0  0.04321758283034931 -0.06704044172466167 0  0.04133630972986371 -0.06599851068428712 0  0.04130559735643655 -0.06764829107165204 0  0.04313110864619899 -0.06285939600837437 0  0.04345056050076136 -0.06150011966148285 0  0.02073553625659391 -0.06054214652517984 0  0.01913420206319778 -0.05989244632510003 0  0.03660603257347798 -0.08363301208285871 0  0.03867852709227757 -0.08328665052822476 0  0.03686505600937307 -0.08180844633712978 0  0.03556210456271347 -0.08208668761276301 0  0.05 -0.08437500000000001 0  0.05 -0.0859375 0  0.04860490583514159 -0.08575133884125646 0  0.04553386586880761 -0.08075612830980353 0  0.04441800636074661 -0.08248315021781349 0  0.0457909677211155 -0.08214624565084092 0  0.04210310889254143 -0.08866781429134733 0  0.037033205797572 -0.05682482417137066 0  0.03841317868273451 -0.05712832193281868 0  0.04143681828516032 -0.09324577512300852 0  0.04028474823910268 -0.09217836090091314 0  0.04215449354704975 -0.0918988737706147 0  0.0472227281394374 -0.06404123962307648 0  0.04542281870194612 -0.06345085768052849 0  0.04651019676850526 -0.06237066804404576 0  0.01512933394003292 -0.07220768844695416 0  0.02353466441496152 -0.07572444547906115 0  0.02206053129225047 -0.07549746227010537 0  0.02286879863971965 -0.07432437058595016 0  0.02389766944944421 -0.05336055352824819 0  0.02505789171550941 -0.05462571702396751 0  0.0200352813999171 -0.04944197410413204 0  0.01897132622274226 -0.04818917069836885 0  0.02039596393456947 -0.04786566231201216 0  0.02255522939491745 -0.05050381790686167 0  0.02095559199324484 -0.05077897888898596 0  0.02151442938367597 -0.04940906557037485 0  0.03419217537052396 -0.09402564429600242 0  0.03559757304728373 -0.09285131497116357 0  0.03429324813307534 -0.09271847386402299 0  0.03956847501260272 -0.09552117233795018 0  0.03805996984719
[...]
<PointData  Vectors="flow"> 
<DataArray  type="Float64"  Name="flow"  NumberOfComponents="3" format="ascii">-2.6213809141704639e-05 3.2787147228317384e-06 0.0000000000000000e+00  4.2164472995491430e-07 -2.6731669683461187e-05 0.0000000000000000e+00  2.2783953437286430e-05 2.5512115662964828e-05 0.0000000000000000e+00  -6.2391991479281447e-06 1.3252581147258062e-05 0.0000000000000000e+00  4.1915443395646683e-07 1.5486854320961607e-05 0.0000000000000000e+00  -4.5092890912593595e-06 1.5388541800562400e-06 0.0000000000000000e+00  -3.7454845511407188e-06 3.8212807781729206e-06 0.0000000000000000e+00  -3.5137672014591004e-06 -2.8258183363336151e-06 0.0000000000000000e+00  4.7240382127907799e-06 1.6330605338466763e-07 0.0000000000000000e+00  -1.6567286733068621e-06 2.2814845799406243e-08 0.0000000000000000e+00  1.5444394868215513e-06 9.8208431451623285e-07 0.0000000000000000e+00  1.6170911764854646e-06 -1.6449883017149201e-06 0.0000000000000000e+00  7.2174937118090237e-06 -3.4990778058534606e-06 0.0000000000000000e+00  3.0152055756378107e-06 -1.0120273032960762e-06 0.0000000000000000e+00  -7.1672922949383636e-06 1.5616261029819566e-05 0.0000000000000000e+00  -3.2685277396092679e-06 -3.8633058932437837e-06 0.0000000000000000e+00  1.0974810089491470e-06 9.7402156949085550e-07 0.0000000000000000e+00  -3.2330003427245973e-06 2.8826774747248435e-07 0.0000000000000000e+00  -1.1638394008814580e-06 8.9469920820690937e-07 0.0000000000000000e+00  -3.6546922341601270e-07 6.4144950698161952e-07 0.0000000000000000e+00  -9.5649287646545695e-07 -1.0005391544284696e-06 0.0000000000000000e+00  -5.5535340780476003e-06 -1.3953675399124077e-07 0.0000000000000000e+00  -8.7028296500337328e-06 2.9830468674840568e-06 0.0000000000000000e+00  -3.8677517145128684e-05 -2.4315686445283676e-06 0.0000000000000000e+00  1.0185301482669204e-06 4.0361809326287722e-08 0.0000000000000000e+00  5.5026548344408232e-07 6.0504458112838754e-06 0.0000000000000000e+00  3.2255945625482392e-06 -2.0711654008547257e-06 0.0000000000000000e+00  1.5062024160489997e-06 -1.4478412384515317e-07 0.0000000000000000e+00  -8.6570313076497272e-06 -6.7647896705707681e-06 0.0000000000000000e+00  7.5633615958347611e-06 8.5387144947868741e-07 0.0000000000000000e+00  -2.6092604273350267e-07 -5.9112557649027293e-06 0.0000000000000000e+00  -9.0287669175663745e-06 4.8691442869581031e-06 0.0000000000000000e+00  1.4233680744602277e-06 4.1153840837216259e-06 0.0000000000000000e+00  -1.8240085689073275e-07 3.1578338635708813e-06 0.0000000000000000e+00  -3.4688795548213489e-06 -2.9833530138166302e-06 0.0000000000000000e+00  2.8081254025134844e-06 -1.0552221845263300e-05 0.0000000000000000e+00  3.5388454377642099e-06 -1.2647169723293430e-06 0.0000000000000000e+00  7.8659191330612629e-07 -2.8390592174770412e-06 0.0000000000000000e+00  -3.9031915215849154e-06 -2.1337737353066263e-06 0.0000000000000000e+00  2.7680134878728119e-07 -1.0658479550265435e-06 0.0000000000000000e+00  -4.8981464918579312e-07 7.7436629233202195e-07 0.0000000000000000e+00  -1.8200001551668178e-06 4.9164460344190174e-07 0.0000000000000000e+00  3.3744657267487640e-06 1.0467551143764163e-05 0.0000000000000000e+00  3.3468011976908430e-07 -5.0358630491389361e-07 0.0000000000000000e+00  4.1313989606517209e-07 3.2620297641299639e-06 0.0000000000000000e+00  -8.1734105850217867e-06 4.7408366599940360e-06 0.0000000000000000e+00  2.7673870949698342e-05 -6.4462819157477058e-06 0.0000000000000000e+00  -2.3880620659974426e-05 1.8417524280035699e-06 0.0000000000000000e+00  6.0709333954550988e-06 -1.6901167511714382e-06 0.0000000000000000e+00  -1.6610919120724325e-05 -5.4493618574537885e-06 0.0000000000000000e+00  2.0379076844278640e-05 -7.4250024025539291e-06 0.0000000000000000e+00  -1.7345367588888832e-06 -6.5845950700647672e-07 0.0000000000000000e+00  -3.1400015522099774e-07 1.2992432804921321e-06 0.0000000000000000e+00  -7.7347577054474136e-07 1.9051583301747753e-06 0.0000000000000000e+00  -5.3811978593540871e-06 2.9405183569866347e-06 0.0000000000000000e+00  -2.7662099488394037e-06 -1.3038803280063707e-05 0.0000000000000000e+00  3.0501037835689000e-06 -9.4590183988919346e-06 0.0000000000000000e+00  4.5653328178829184e-06 3.0454821456349025e-05 0.0000000000000000e+00  7.9388386275055971e-06 -1.3422154564965710e-05 0.0000000000000000e+00  4.3778525964311062e-07 -1.2344048311764546e-06 0.0000000000000000e+00  -7.3572856572185716e-06 1.1160415478136938e-06 0.0000000000000000e+00  8.2530426299257333e-06 4.9913846293887189e-06 0.0000000000000000e+00  -2.2908986855539347e-06 -2.0351156848615032e-07 0.0000000000000000e+00  -2.4975264161943000e-06 -7.8227794321170089e-07 0.0000000000000000e+00  3.9742959194979337e-07 4.5466777034275832e-06 0.0000000000000000e+00  -4.4975857784639079e-06 -3.4624842693905083e-06 0.0000000000000000e+00  4.1215065758845057e-07 -8.4856468085529534e-06 0.0000000000000000e+00  5.9669771235893466e-07 -7.1073299591673030e-06 0.0000000000000000e+00  -1.7337316497127890e-06 -6.7766130917362815e-06 0.0000000000000000e+00  -1.8625560612429441e-07 1.3009200175949839e-06 0.0000000000000000e+00  5.9359655884165771e-07 4.9478530661686156e-07 0.0000000000000000e+00  1.6828032777878505e-06 -2.3668588785671757e-06 0.0000000000000000e+00  -3.2277745827198221e-05 -2.9516891187008063e-05 0.0000000000000000e+00  2.5357865463857455e-05 1.6880977269622141e-05 0.0000000000000000e+00  -2.2943368439919704e-05 2.4816897386125690e-05 0.0000000000000000e+00  6.4906570206146688e-06 5.5474555700825309e-06 0.0000000000000000e+00  -9.8669980098606257e-06 -9.9628893505292123e-06 0.0000000000000000e+00  6.5430529238904473e-06 2.2005285928590472e-06 0.0000000000000000e+00  -8.6733431963315575e-06 4.1849635441617897e-06 0.0000000000000000e+00  3.4118531496110840e-06 2.2965319594850267e-06 0.0000000000000000e+00  -1.4186467258701672e-06 -3.1716815009374321e-08 0.0000000000000000e+00  -9.1731821843022970e-06 -6.3012713385480838e-06 0.0000000000000000e+00  -4.0055572346518002e-06 3.6073641314271761e-06 0.0000000000000000e+00  1.5036484624323593e-05 1.1413625909173207e-05 0.0000000000000000e+00  -6.4392617004474827e-07 -3.5790090226398823e-07 0.0000000000000000e+00  -1.9700051775818877e-06 1.0217424506580076e-05 0.0000000000000000e+00  -6.9677504106390851e-09 -1.3704470645102712e-06 0.0000000000000000e+00  -8.7156993414869477e-07 -3.4906556635446677e-06 0.0000000000000000e+00  2.2451244945735917e-06 3.6082718157227454e-07 0.0000000000000000e+00  8.2274131260638275e-07 -3.0415420399699431e-06 0.0000000000000000e+00  -5.8722291230063538e-06 7.5452784854444244e-07 0.0000000000000000e+00  -2.8198232920268733e-06 1.4744547689772256e-06 0.0000000000000000e+00  -2.3344531720487597e-06 -3.8041320754371097e-07 0.0000000000000000e+00  6.4057913904880401e-06 2.8013747074478956e-06 0.0000000000000000e+00  -1.7279656555577350e-06 5.8060754744572372e-07 0.0000000000000000e+00  3.0283234363992750e-06 1.0138059032039052e-06 0.0000000000000000e+00  2.1552211042116998e-06 -2.0288266877273413e-05 0.0000000000000000e+00  1.1811330521470131e-07 1.8524723922400027e-05 0.0000000000000000e+00  -1.2275147643314760e-05 1.6382025616990852e-05 0.0000000000000000e+00  -1.3297831850523987e-05 1.2624698985233226e-05 0.0000000000000000e+00  -1.4102530220953720e-06 1.6428030084265140e-06 0.0000000000000000e+00  1.2718148047491631e-06 6.4903646217446303e-07 0.0000000000000000e+00  2.2579212155277193e-07 -2.5708305433459303e-06 0.0000000000000000e+00  1.4021970010849930e-05 -5.3930869815817466e-06 0.0000000000000000e+00  -1.1870139999103725e-05 2.8731161803461234e-05 0.0000000000000000e+00  5.4046781749649365e-06 1.5772253259514516e-05 0.0000000000000000e+00  -9.4337917089279214e-06 -3.0875971417863485e-06 0.0000000000000000e+00  -2.4609901986727356e-06 2.0641409450040091e-06 0.0000000000000000e+00  6.0718746638433955e-07 3.9564967734657548e-06 0.0000000000000000e+00  2.0918084174304964e-06 -2.0708909428647114e-05 0.0000000000000000e+00  -2.0735466180134031e-06 6.8343489083017927e-06 0.0000000000000000e+00  -4.7219349749683548e-06 2.1127399785889798e-06 0.0000000000000000e+00  -5.4276169952245733e-07 -7.5363980792569727e-07 0.0000000000000000e+00  -7.9832346280909765e-07 -5.9795422372516428e-07 0.0000000000000000e+00  -1.0904533751711853e-06 7.3269468548755267e-08 0.0000000000000000e+00  7.5782733855939902e-07 8.7736261864516852e-08 0.0000000000000000e+00  -8.1389904739219890e-07 -1.5080847484152557e-07 0.0000000000000000e+00  1.5052509642754179e-06 9.9026303629397954e-07 0.0000000000000000e+00  -2.3673516550531921e-07 3.1383179164378447e-06 0.0000000000000000e+00  4.9619295039455969e-06 -4.9860154035990362e-07 0.0000000000000000e+00  -1.4683878699701258e-05 2.5274464717523896e-06 0.0000000000000000e+00  -2.0958384048422424e-06 1.7597660934619080e-06 0.0000000000000000e+00  -1.1405268885961275e-07 -4.3615583227101254e-06 0.0000000000000000e+00  -1.9322987645489949e-07 1.7246894389211023e-07 0.0000000000000000e+00  -1.7219721565153950e-05 1.8889361364829555e-08 0.0000000000000000e+00  5.9044110934800814e-06 -5.3086369487979638e-07 0.0000000000000000e+00  9.1631894813375944e-06 1.9765157869315610e-05 0.0000000000000000e+00  -2.6103371529065174e-06 3.7462647996552327e-08 0.0000000000000000e+00  2.5394820851201471e-06 1.3745855287184912e-06 0.0000000000000000e+00  1.6637496234292911e-06 -1.0204509103944465e-06 0.0000000000000000e+00  7.8872120288536680e-07 -9.2412565656278941e-07 0.0000000000000000e+00  -2.7067735719122515e-06 6.6007647300739093e-07 0.0000000000000000e+00  8.7580124609227345e-07 1.0340488372021340e-06 0.0000000000000000e+00  4.1518908792957210e-07 -1.2730635005531082e-06 0.0000000000000000e+00  -2.4819072316221444e-06 3.1153991984158802e-06 0.0000000000000000e+00  8.1386905341793455e-07 -2.6255628448484564e-07 0.0000000000000000e+00  4.5322164619581879e-07 -2.5340587810176601e-06 0.0000000000000000e+00  2.1777224103881860e-06 -3.6707410032494038e-06 0.0000000000000000e+00  2.8863914225885770e-06 -1.0425740031665318e-07 0.0000000000000000e+00  -4.1457075218360880e-07 2.8637295079671702e-07 0.0000000000000000e+00  3.5145844433640593e-07 -2.1647820878438243e-06 0.0000000000000000e+00  1.8447296548682317e-06 -4.1560561033305838e-06 0.0000000000000000e+00  5.4185523544166672e-06 1.6760222888814371e-05 0.0000000000000000e+00  2.4078341750074997e-06 2.6173375690073253e-06 0.0000000000000000e+00  2.1151073796369032e-06 -3.0557604827450193e-06 0.0000000000000000e+00  -1.3595998021082826e-06 -1.6496634849334104e-06 0.0000000000000000e+00  5.2357750844196389e-07 3.6149914073092692e-07 0.0000000000000000e+00  -1.5162093982853603e-06 -4.7071892010103225e-06 0.0000000000000000e+00  -2.9122492066043052e-07 -1.1355851677040265e-06 0.0000000000000000e+00  -3.5989117609115204e-06 3.6926135192843566e-06 0.0000000000000000e+00  6.1133888495356648e-06 4.0463640032245017e-06 0.0000000000000000e+00  -5.1080803503044748e-06 -1.0766086107642043e-05 0.0000000000000000e+00  -1.9859513133819132e-06 -1.4033241307774001e-06 0.0000000000000000e+00  9.0592535018874746e-07 9.5263685887888316e-07 0.0000000000000000e+00  -4.6882984244342207e-07 -2.7817109298660185e-06 0.0000000000000000e+00  -1.9688942723494830e-05 -3.7789233575032071e-05 0.0000000000000000e+00  -9.0340898624776651e-06 3.1456884763974445e-05 0.0000000000000000e+00  1.2586156563606207e-05 -6.1840589581460439e-06 0.0000000000000000e+00  3.9959812867601490e-06 3.1348652719749546e-05 0.0000000000000000e+00  -2.8598323364848485e-05 -6.1210257979319051e-05 0.0000000000000000e+00  1.0642502086120004e-05 -1.0675724081889047e-05 0.0000000000000000e+00  2.5248884739283239e-05 2.2136529711698634e-05 0.0000000000000000e+00  2.2523080785045043e-05 -1.3370968372521591e-05 0.0000000000000000e+00  7.5646136250411109e-06 -1.3980230942607370e-05 0.0000000000000000e+00  6.9344958901484340e-07 1.0092420708489382e-05 0.0000000000000000e+00  5.3492794452263505e-06 -1.0555860395633269e-05 0.0000000000000000e+00  2.7543064795322814e-05 2.2866505781077760e-05 0.0000000000000000e+00  -2.3694584148309665e-06 6.4053171241565717e-07 0.0000000000000000e+00  4.2468347794427219e-06 -3.6093209845124247e-06 0.0000000000000000e+00  -3.0167617892621578e-06 7.5805895359738589e-06 0.0000000000000000e+00  7.5993058695093415e-06 2.5303542394575872e-06 0.0000000000000000e+00  -7.1453382040371976e-06 1.9142328813350727e-06 0.0000000000000000e+00  2.3002402524690986e-06 1.6023663758540471e-07 0.0000000000000000e+00  -4.6128066946896568e-06 -5.2696350232528453e-06 0.0000000000000000e+00  2.1778594526277728e-06 -8.1516671736926490e-06 0.0000000000000000e+00  9.5897962905201866e-06 4.8793451488227958e-06 0.0000000000000000e+00  -2.7462420342583974e-06 -7.9111874009218571e-07 0.0000000000000000e+00  4.0783541334274724e-07 -4.9180426482415881e-06 0.0000000000000000e+00  -4.1403392141782887e-06 6.8520375431245836e-07 0.0000000000000000e+00  1.8592339068566881e-07 -4.5584793829628633e-07 0.0000000000000000e+00  -5.3608090803130866e-06 -6.0924756326864453e-07 0.0000000000000000e+00  2.5861614884324520e-07 4.2965737678897896e-07 0.0000000000000000e+00  -5.3388313864434300e-06 4.0459090012726231e-06 0.0000000000000000e+00  -1.6590851784305423e-06 -6.4882175815643082e-08 0.0000000000000000e+00  -6.2844455593354014e-07 -2.2057224506620670e-06 0.0000000000000000e+00  5.0942420221668052e-07 2.1311203577492916e-06 0.0000000000000000e+00  -3.7909617726820849e-07 -3.4973300399456993e-06 0.0000000000000000e+00  3.3582107415720011e-06 -2.3299730319595683e-06 0.0000000000000000e+00  1.1532127550360277e-05 -8.3046561757629042e-06 0.0000000000000000e+00  1.7176582734640923e-05 -8.1988755005713339e-06 0.0000000000000000e+00  3.1893634205961962e-06 -1.1934105226470649e-06 0.0000000000000000e+00  -1.1976155755504948e-06 -1.8619424196720221e-06 0.0000000000000000e+00  2.6271376882415998e-06 1.7948879926778638e-06 0.0000000000000000e+00  -2.7701371201492001e-06 6.0048543414807334e-09 0.0000000000000000e+00  -2.4104300294956932e-06 8.9506526114235278e-07 0.0000000000000000e+00  3.3598897878783712e-06 -2.8437657949559203e-06 0.0000000000000000e+00  -1.1999291848913316e-06 2.8483093172166220e-06 0.0000000000000000e+00  2.8649821607395125e-06 -1.5117291278142421e-06 0.0000000000000000e+00  8.3980757873818747e-07 -9.5612761108216806e-07 0.0000000000000000e+00  -1.0581179485827548e-06 6.8577319276246636e-07 0.0000000000000000e+00  3.4167959954453157e-06 1.7085449362470850e-06 0.0000000000000000e+00  8.2977765723123795e-06 5.0847841542169970e-06 0.0000000000000000e+00  -2.3180433229429166e-06 1.6164446726764324e-05 0.0000000000000000e+00  -1.3071585610301231e-06 -1.4915724492601708e-06 0.0000000000000000e+00  3.9539634007699314e-07 2.2956540483377494e-06 0.0000000000000000e+00  8.4727604312433506e-07 -2.6467646555720765e-07 0.0000000000000000e+00  -2.1990593755357466e-06 4.2998429413727942e-06 0.0000000000000000e+00  -2.0412399202996570e-07 -3.6458740888792683e-07 0.0000000000000000e+00  3.5625989964959693e-06 -2.2013208749149558e-06 0.0000000000000000e+00  -2.0745354955004299e-06 -3.1974588015905262e-06 0.0000000000000000e+00  -6.0141725744321966e-06 -2.6133509200160323e-06 0.0000000000000000e+00  5.4712121199011167e-06 -5.9690825177206278e-06 0.0000000000000000e+00  9.6425150959823979e-06 4.9917671337603608e-07 0.0000000000000000e+00  -6.6565367951829105e-05 3.6120641376615975e-06 0.0000000000000000e+00  1.8303769401361911e-05 -1.9136515262641254e-05 0.0000000000000000e+00  5.9997180086313678e-06 7.0763248559994349e-06 0.0000000000000000e+00  -1.2378755346427030e-05 4.5478384681358583e-06 0.0000000000000000e+00  -2.9081752710830458e-06 -1.9406699379642771e-06 0.0000000000000000e+00  9.0283888353870171e-06 4.7116383924793481e-06 0.0000000000000000e+00  -9.8260232327940426e-06 1.8264779071661875e-05 0.0000000000000000e+00  1.0976139038772813e-05 -1.1903199809081630e-06 0.0000000000000000e+00  -1.6975803598544642e-06 -4.7453776874463173e-06 0.0000000000000000e+00  3.1903341101900353e-06 2.2782866681691027e-06 0.0000000000000000e+00  -8.9338857076377483e-07 -1.2022240554351998e-06 0.0000000000000000e+00  -2.4167113024802701e-07 2.1412490074613637e-07 0.0000000000000000e+00  1.6485524632383231e-06 -6.4120695073249430e-07 0.0000000000000000e+00  -7.1382874829926356e-07 -3.4426024411068595e-07 0.0000000000000000e+00  -7.4724789828555706e-07 4.7454517073085531e-07 0.0000000000000000e+00  9.3542486341342996e-07 1.3282745619163355e-06 0.0000000000000000e+00  7.0492287970770279e-06 5.2051187532164916e-06 0.0000000000000000e+00  -1.1113706595531112e-07 5.5680168284326563e-07 0.0000000000000000e+00  -8.3688168787695062e-08 -2.5273757553149239e-06 0.0000000000000000e+00  1.6036608919110416e-06 7.4871016290197981e-07 0.0000000000000000e+00  2.3466745414858249e-07 -3.9241056972658566e-06 0.0000000000000000e+00  2.2540939621585219e-06 5.4463519240012313e-06 0.0000000000000000e+00  3.9339639291375478e-06 -4.0828519399126168e-06 0.0000000000000000e+00  -5.8530599698567923e-06 3.6559054226819483e-06 0.0000000000000000e+00  -5.1154805206304916e-06 -6.6818733580010372e-06 0.0000000000000000e+00  -6.9991352887666143e-07 -8.3052384831899824e-06 0.0000000000000000e+00  -9.0623974008006441e-06 9.8136031681563589e-06 0.0000000000000000e+00  5.5372768638819264e-06 7.7078505580933879e-06 0.0000000000000000e+00  1.9546471693856319e-05 -2.6666644919372333e-05 0.0000000000000000e+00  -1.0430518414043778e-05 2.2071478296766863e-05 0.0000000000000000e+00  -3.2561654117898161e-05 1.8907253757427113e-05 0.0000000000000000e+00  -6.0215009156421917e-07 -6.6416548293620310e-06 0.0000000000000000e+00  8.6352469951509195e-07 3.3664624246410044e-06 0.0000000000000000e+00  4.7573299096708096e-06 1.0373589932547921e-05 0.0000000000000000e+00  -2.1744877902224826e-06 -1.0114324695675362e-08 0.0000000000000000e+00  7.4056667372897389e-07 -9.1190212913111047e-06 0.0000000000000000e+00  -2.8416707664530181e-06 -3.3354462976077394e-07 0.0000000000000000e+00  2.4567217398813970e-06 4.5603317436526997e-06 0.0000000000000000e+00  -4.4410211333601133e-06 -4.2230731730561566e-07 0.0000000000000000e+00  -1.1852441421364599e-06 5.0817681621284209e-06 0.0000000000000000e+00  7.1300496347034403e-06 -2.7740158403740382e-06 0.0000000000000000e+00  -5.7085285291083983e-06 -3.2304146207078376e-06 0.0000000000000000e+00  -2.8080500306532725e-06 -1.8968185402462239e-07 0.0000000000000000e+00  1.1324555974319965e-06 1.9323658730889225e-06 0.0000000000000000e+00  -8.6132970001956353e-06 -4.4110777855712020e-06 0.0000000000000000e+00  2.3095467280352681e-06 3.9013257552492036e-06 0.0000000000000000e+00  -4.8462985266780724e-06 -8.6078527791180299e-06 0.0000000000000000e+00  -2.3116653523099115e-06 -2.5214057055031104e-06 0.0000000000000000e+00  1.1237276618708577e-06 1.2298462715185282e-07 0.0000000000000000e+00  -7.4219844599961168e-07 -1.3211273037496604e-07 0.0000000000000000e+00  9.7758763654214705e-07 -1.8556263110168656e-06 0.0000000000000000e+00  1.5183783715986481e-06 -9.5737743196123174e-07 0.0000000000000000e+00  1.5940904686942059e-05 8.2715246289739061e-06 0.0000000000000000e+00  -4.2746585079462750e-06 -2.1456947493457897e-06 0.0000000000000000e+00  2.4318343160060916e-06 -1.0923831790061533e-06 0.0000000000000000e+00  3.3316175686054420e-05 -1.8102254133441505e-05 0.0000000000000000e+00  -1.9257957776411965e-05 1.6520969037317668e-05 0.0000000000000000e+00  2.4442201746753834e-07 -2.7637336526237051e-06 0.0000000000000000e+00  6.9476050562956076e-06 6.2636650155539753e-06 0.0000000000000000e+00  -5.4250483830776098e-06 1.2443708439152537e-07 0.0000000000000000e+00  9.6328470426328277e-07 6.8823628282080133e-06 0.0000000000000000e+00  -3.9089710865025443e-06 3.3521628971550666e-06 0.0000000000000000e+00  1.1222856412628639e-07 -6.5493083219270997e-06 0.0000000000000000e+00  -1.7724148996702470e-05 -9.0839537029932119e-06 0.0000000000000000e+00  4.2543240154297892e-07 -4.1876661122683024e-06 0.0000000000000000e+00  -8.7342139528327214e-06 8.6839239674657989e-06 0.0000000000000000e+00  -4.2892390972638698e-09 -2.2138325412393343e-06 0.0000000000000000e+00  7.6386600523