<?xml version="1.0"?>
<VTKFile type="UnstructuredGrid"  version="0.1"  >
<UnstructuredGrid>
<Piece  NumberOfPoints="1091" NumberOfCells="2050">
<Points>
<DataArray  type="Float64"  NumberOfComponents="3"  format="ascii">-0.5 -1 0  -0.4 -1 0  -0.3 -1 0  -0.2 -1 0  -0.09999999999999998 -1 0  0 -1 0  0.09999999999999998 -1 0  0.2 -1 0  0.3 -1 0  0.4 -1 0  0.5 -1 0  -0.5 -0.98 0  -0.4 -0.98 0  -0.3 -0.98 0  -0.2 -0.98 0  -0.09999999999999998 -0.98 0  0 -0.98 0  0.09999999999999998 -0.98 0  0.2 -0.98 0  0.3 -0.98 0  0.4 -0.98 0  0.5 -0.98 0  -0.5 -0.96 0  -0.4 -0.96 0  -0.3 -0.96 0  -0.2 -0.96 0  -0.09999999999999998 -0.96 0  0 -0.96 0  0.09999999999999998 -0.96 0  0.2 -0.96 0  0.3 -0.96 0  0.4 -0.96 0  0.5 -0.96 0  -0.5 -0.9399999999999999 0  -0.4 -0.9399999999999999 0  -0.3 -0.9399999999999999 0  -0.2 -0.9399999999999999 0  -0.09999999999999998 -0.9399999999999999 0  0 -0.9399999999999999 0  0.09999999999999998 -0.9399999999999999 0  0.2 -0.9399999999999999 0  0.3 -0.9399999999999999 0  0.4 -0.9399999999999999 0  0.5 -0.9399999999999999 0  -0.5 -0.92 0  -0.4 -0.92 0  -0.3 -0.92 0  -0.2 -0.92 0  -0.09999999999999998 -0.92 0  0 -0.92 0  0.09999999999999998 -0.92 0  0.2 -0.92 0  0.3 -0.92 0  0.4 -0.92 0  0.5 -0.92 0  -0.5 -0.9 0  -0.4 -0.9 0  -0.3 -0.9 0  -0.2 -0.9 0  -0.09999999999999998 -0.9 0  0 -0.9 0  0.09999999999999998 -0.9 0  0.2 -0.9 0  0.3 -0.9 0  0.4 -0.9 0  0.5 -0.9 0  -0.5 -0.88 0  -0.4 -0.88 0  -0.3 -0.88 0  -0.2 -0.88 0  -0.09999999999999998 -0.88 0  0 -0.88 0  0.09999999999999998 -0.88 0  0.2 -0.88 0  0.3 -0.88 0  0.4 -0.88 0  0.5 -0.88 0  -0.5 -0.86 0  -0.4 -0.86 0  -0.3 -0.86 0  -0.2 -0.86 0  -0.09999999999999998 -0.86 0  0 -0.86 0  0.09999999999999998 -0.86 0  0.2 -0.86 0  0.3 -0.86 0  0.4 -0.86 0  0.5 -0.86 0  -0.5 -0.84 0  -0.4 -0.84 0  -0.3 -0.84 0  -0.2 -0.84 0  -0.09999999999999998 -0.84 0  0 -0.84 0  0.09999999999999998 -0.84 0  0.2 -0.84 0  0.3 -0.84 0  0.4 -0.84 0  0.5 -0.84 0  -0.5 -0.8200000000000001 0  -0.4 -0.8200000000000001 0  -0.3 -0.8200000000000001 0  -0.2 -0.8200000000000001 0  -0.09999999999999998 -0.8200000000000001 0  0 -0.8200000000000001 0  0.09999999999999998 -0.8200000000000001 0  0.2 -0.8200000000000001 0  0.3 -0.8200000000000001 0  0.4 -0.8200000000000001 0  0.5 -0.8200000000000001 0  -0.5 -0.8 0  -0.4 -0.8 0  -0.3 -0.8 0  -0.2 -0.8 0  -0.09999999999999998 -0.8 0  0 -0.8 0  0.09999999999999998 -0.8 0  0.2 -0.8 0  0.3 -0.8 0  0.4 -0.8 0  0.5 -0.8 0  -0.5 -0.78 0  -0.4 -0.78 0  -0.3 -0.78 0  -0.2 -0.78 0  -0.09999999999999998 -0.78 0  0 -0.78 0  0.09999999999999998 -0.78 0  0.2 -0.78 0  0.3 -0.78 0  0.4 -0.78 0  0.5 -0.78 0  -0.5 -0.76 0  -0.4 -0.76 0  -0.3 -0.76 0  -0.2 -0.76 0  -0.09999999999999998 -0.76 0  0 -0.76 0  0.09999999999999998 -0.76 0  0.2 -0.76 0  0.3 -0.76 0  0.4 -0.76 0  0.5 -0.76 0  -0.5 -0.74 0  -0.4 -0.74 0  -0.3 -0.74 0  -0.2 -0.74 0  -0.09999999999999998 -0.74 0  0 -0.74 0  0.09999999999999998 -0.74 0  0.2 -0.74 0  0.3 -0.74 0  0.4 -0.74 0  0.5 -0.74 0  -0.5 -0.72 0  -0.4 -0.72 0  -0.3 -0.72 0  -0.2 -0.72 0  -0.09999999999999998 -0.72 0  0 -0.72 0  0.09999999999999998 -0.72 0  0.2 -0.72 0  0.3 -0.72 0  0.4 -0.72 0  0.5 -0.72 0  -0.5 -0.7 0  -0.4 -0.7 0  -0.3 -0.7 0  -0.2 -0.7 0  -0.09999999999999998 -0.7 0  0 -0.7 0  0.09999999999999998 -0.7 0  0.2 -0.7 0  0.3 -0.7 0  0.4 -0.7 0  0.5 -0.7 0  -0.5 -0.6799999999999999 0  -0.4 -0.6799999999999999 0  -0.3 -0.6799999999999999 0  -0.2 -0.6799999999999999 0  -0.09999999999999998 -0.6799999999999999 0  0 -0.6799999999999999 0  0.09999999999999998 -0.6799999999999999 0  0.2 -0.6799999999999999 0  0.3 -0.6799999999999999 0  0.4 -0.6799999999999999 0  0.5 -0.6799999999999999 0  -0.5 -0.6599999999999999 0  -0.4 -0.6599999999999999 0  -0.3 -0.6599999999999999 0  -0.2 -0.6599999999999999 0  -0.09999999999999998 -0.6599999999999999 0  0 -0.6599999999999999 0  0.09999999999999998 -0.6599999999999999 0  0.2 -0.6599999999999999 0  0.3 -0.6599999999999999 0  0.4 -0.6599999999999999 0  0.5 -0.6599999999999999 0  -0.5 -0.64 0  -0.4 -0.64 0  -0.3 -0.64 0  -0.2 -0.64 0  -0.09999999999999998 -0.64 0  0 -0.64 0  0.09999999999999998 -0.64 0  0.2 -0.64 0  0.3 -0.64 0  0.4 -0.64 0  0.5 -0.64 0  -0.5 -0.62 0  -0.4 -0.62 0  -0.3 -0.62 0  -0.2 -0.62 0  -0.09999999999999998 -0.62 0  0 -0.62 0  0.09999999999999998 -0.62 0  0.2 -0.62 0  0.3 -0.62 0  0.4 -0.62 0  0.5 -0.62 0  -0.5 -0.6 0  -0.4 -0.6 0  -0.3 -0.6 0  -0.2 -0.6 0  -0.09999999999999998 -0.6 0  0 -0.6 0  0.09999999999999998 -0.6 0  0.2 -0.6 0  0.3 -0.6 0  0.4 -0.6 0  0.5 -0.6 0  -0.5 -0.5800000000000001 0  -0.4 -0.5800000000000001 0  -0.3 -0.5800000000000001 0  -0.2 -0.5800000000000001 0  -0.09999999999999998 -0.5800000000000001 0  0 -0.5800000000000001 0  0.09999999999999998 -0.5800000000000001 0  0.2 -0.5800000000000001 0  0.3 -0.5800000000000001 0  0.4 -0.5800000000000001 0  0.5 -0.5800000000000001 0  -0.5 -0.5600000000000001 0  -0.4 -0.5600000000000001 0  -0.3 -0.5600000000000001 0  -0.2 -0.5600000000000001 0  -0.09999999999999998 -0.5600000000000001 0  0 -0.5600000000000001 0  0.09999999999999998 -0.5600000000000001 0  0.2 -0.5600000000000001 0  0.3 -0.5600000000000001 0  0.4 -0.5600000000000001 0  0.5 -0.5600000000000001 0  -0.5 -0.54 0  -0.4 -0.54 0  -0.3 -0.54 0  -0.2 -0.54 0  -0.09999999999999998 -0.54 0  0 -0.54 0  0.09999999999999998 -0.54 0  0.2 -0.54 0  0.3 -0.54 0  0.4 -0.54 0  0.5 -0.54 0  -0.5 -0.52 0  -0.4 -0.52 0  -0.3 -0.52 0  -0.2 -0.52 0  -0.09999999999999998 -0.52 0  0 -0.52 0  0.09999999999999998 -0.52 0  0.2 -0.52 0  0.3 -0.52 0  0.4 -0.52 0  0.5 -0.52 0  -0.5 -0.5 0  -0.4 -0.5 0  -0.3 -0.5 0  -0.2 -0.5 0  -0.09999999999999998 -0.5 0  0 -0.5 0  0.09999999999999998 -0.5 0  0.2 -0.5 0  0.3 -0.5 0  0.4 -0.5 0  0.5 -0.5 0  -0.5 -0.48 0  -0.4 -0.48 0  -0.3 -0.48 0  -0.2 -0.48 0  -0.09999999999999998 -0.48 0  0 -0.48 0  0.09999999999999998 -0.48 0  0.2 -0.48 0  0.3 -0.48 0  0.4 -0.48 0  0.5 -0.48 0  -0.5 -0.46 0  -0.4 -0.46 0  -0.3 -0.46 0  -0.2 -0.46 0  -0.09999999999999998 -0.46 0  0 -0.46 0  0.09999999999999998 -0.46 0  0.2 -0.46 0  0.3 -0.46 0  0.4 -0.46 0  0.5 -0.46 0  -0.5 -0.4399999999999999 0  -0.4 -0.4399999999999999 0  -0.3 -0.4399999999999999 0  -0.2 -0.4399999999999999 0  -0.09999999999999998 -0.4399999999999999 0  0 -0.4399999999999999 0  0.09999999999999998 -0.4399999999999999 0  0.2 -0.4399999999999999 0  0.3 -0.4399999999999999 0  0.4 -0.4399999999999999 0  0.5 -0.4399999999999999 0  -0.5 -0.42 0  -0.4 -0.42 0  -0.3 -0.42 0  -0.2 -0.42 0  -0.09999999999999998 -0.42 0  0 -0.42 0  0.09999999999999998 -0.42 0  0.2 -0.42 0  0.3 -0.42 0  0.4 -0.42 0  0.5 -0.42 0  -0.5 -0.4 0  -0.4 -0.4 0  -0.3 -0.4 0  -0.2 -0.4 0  -0.09999999999999998 -0.4 0  0 -0.4 0  0.09999999999999998 -0.4 0  0.2 -0.4 0  0.3 -0.4 0  0.4 -0.4 0  0.5 -0.4 0  -0.5 -0.38 0  -0.4 -0.38 0  -0.3 -0.38 0  -0.2 -0.38 0  -0.09999999999999998 -0.38 0  0 -0.38 0  0.09999999999999998 -0.38 0  0.2 -0.38 0  0.3 -0.38 0  0.4 -0.38 0  0.5 -0.38 0  -0.5 -0.36 0  -0.4 -0.36 0  -0.3 -0.36 0  -0.2 -0.36 0  -0.09999999999999998 -0.36 0  0 -0.36 0  0.09999999999999998 -0.36 0  0.2 -0.36 0  0.3 -0.36 0  0.4 -0.36 0  0.5 -0.36 0  -0.5 -0.34 0  -0.4 -0.34 0  -0.3 -0.34 0  -0.2 -0.34 0  -0.09999999999999998 -0.34 0  0 -0.34 0  0.09999999999999998 -0.34 0  0.2 -0.34 0  0.3 -0.34 0  0.4 -0.34 0  0.5 -0.34 0  -0.5 -0.32 0  -0.4 -0.32 0  -0.3 -0.32 0  -0.2 -0.32 0  -0.09999999999999998 -0.32 0  0 -0.32 0  0.09999999999999998 -0.32 0  0.2 -0.32 0  0.3 -0.32 0  0.4 -0.32 0  0.5 -0.32 0  -0.5 -0.3 0  -0.4 -0.3 0  -0.3 -0.3 0  -0.2 -0.3 0  -0.09999999999999998 -0.3 0  0 -0.3 0  0.09999999999999998 -0.3 0  0.2 -0.3 0  0.3 -0.3 0  0.4 -0.3 0  0.5 -0.3 0  -0.5 -0.28 0  -0.4 -0.28 0  -0.3 -0.28 0  -0.2 -0.28 0  -0.09999999999999998 -0.28 0  0 -0.28 0  0.09999999999999998 -0.28 0  0.2 -0.28 0  0.3 -0.28 0  0.4 -0.28 0  0.5 -0.28 0  -0.5 -0.26 0  -0.4 -0.26 0  -0.3 -0.26 0  -0.2 -0.26 0  -0.09999999999999998 -0.26 0  0 -0.26 0  0.09999999999999998 -0.26 0  0.2 -0.26 0  0.3 -0.26 0  0.4 -0.26 0  0.5 -0.26 0  -0.5 -0.24 0  -0.4 -0.24 0  -0.3 -0.24 0  -0.2 -0.24 0  -0.09999999999999998 -0.24 0  0 -0.24 0  0.09999999999999998 -0.24 0  0.2 -0.24 0  0.3 -0.24 0  0.4 -0.24 0  0.5 -0.24 0  -0.5 -0.22 0  -0.4 -0.22 0  -0.3 -0.22 0  -0.2 -0.22 0  -0.09999999999999998 -0.22 0  0 -0.22 0  0.09999999999999998 -0.22 0  0.2 -0.22 0  0.3 -0.22 0  0.4 -0.22 0  0.5 -0.22 0  -0.5 -0.2 0  -0.4 -0.2 0  -0.3 -0.2 0  -0.2 -0.2 0  -0.09999999999999998 -0.2 0  0 -0.2 0  0.09999999999999998 -0.2 0  0.2 -0.2 0  0.3 -0.2 0  0.4 -0.2 0  0.5 -0.2 0  -0.5 -0.18 0  -0.4 -0.18 0  -0.3 -0.18 0  -0.2 -0.18 0  -0.09999999999999998 -0.18 0  0 -0.18 0  0.09999999999999998 -0.18 0  0.2 -0.18 0  0.3 -0.18 0  0.4 -0.18 0  0.5 -0.18 0  -0.5 -0.16 0  -0.4 -0.16 0  -0.3 -0.16 0  -0.2 -0.16 0  -0.09999999999999998 -0.16 0  0 -0.16 0  0.09999999999999998 -0.16 0  0.2 -0.16 0  0.3 -0.16 0  0.4 -0.16 0  0.5 -0.16 0  -0.5 -0.14 0  -0.4 -0.14 0  -0.3 -0.14 0  -0.2 -0.14 0  -0.09999999999999998 -0.14 0  0 -0.14 0  0.09999999999999998 -0.14 0  0.2 -0.14 0  0.3 -0.14 0  0.4 -0.14 0  0.5 -0.14 0  -0.5 -0.12 0  -0.4 -0.12 0  -0.3 -0.12 0  -0.2 -0.12 0  -0.09999999999999998 -0.12 0  0 -0.12 0  0.09999999999999998 -0.12 0  0.2 -0.12 0  0.3 -0.12 0  0.4 -0.12 0  0.5 -0.12 0  -0.5 -0.09999999999999998 0  -0.4 -0.09999999999999998 0  -0.3 -0.09999999999999998 0  -0.2 -0.09999999999999998 0  -0.09999999999999998 -0.09999999999999998 0  0 -0.09999999999999998 0  0.09999999999999998 -0.09999999999999998 0  0.2 -0.09999999999999998 0  0.3 -0.09999999999999998 0  0.4 -0.09999999999999998 0  0.5 -0.09999999999999998 0  -0.5 -0.07999999999999996 0  -0.4 -0.07999999999999996 0  -0.3 -0.07999999999999996 0  -0.2 -0.07999999999999996 0  -0.09999999999999998 -0.07999999999999996 0  0 -0.07999999999999996 0  0.09999999999999998 -0.07999999999999996 0  0.2 -0.07999999999999996 0  0.3 -0.07999999999999996 0  0.4 -0.07999999999999996 0  0.5 -0.07999999999999996 0  -0.5 -0.06000000000000005 0  -0.4 -0.06000000000000005 0  -0.3 -0.06000000000000005 0  -0.2 -0.06000000000000005 0  -0.09999999
[...]
<PointData  Vectors="flow"> 
<DataArray  type="Float64"  Name="flow"  NumberOfComponents="3" format="ascii">-4.3938423007586254e-15 -7.6266420819443229e-15 0.0000000000000000e+00  -2.0458695287442809e-15 3.0754081028289250e-15 0.0000000000000000e+00  4.8523169077656995e-16 2.3588182211357955e-15 0.0000000000000000e+00  1.8221012233990990e-15 -8.7394234127852130e-16 0.0000000000000000e+00  2.5891871036567352e-16 1.8843717393693447e-15 0.0000000000000000e+00  1.4017091930090137e-15 -4.3585397229039343e-15 0.0000000000000000e+00  3.3649381548288528e-15 4.3358298036503199e-15 0.0000000000000000e+00  4.8107827266426592e-16 1.3362661572931784e-16 0.0000000000000000e+00  5.7342326104600817e-17 3.4878748445683897e-15 0.0000000000000000e+00  2.0844692232240590e-15 1.0968295438090423e-15 0.0000000000000000e+00  1.5128996915315323e-15 -5.8989422532022648e-16 0.0000000000000000e+00  -1.7692913199730328e-15 6.5316538154725163e-16 0.0000000000000000e+00  -1.9435368028251079e-15 4.7229458294368432e-15 0.0000000000000000e+00  -1.6484383933620506e-16 -2.1746441399269856e-15 0.0000000000000000e+00  2.1826771055502983e-15 3.6502590576761724e-15 0.0000000000000000e+00  3.0447735504234660e-17 1.4831594378851066e-15 0.0000000000000000e+00  1.3515265734130273e-15 -1.6244327786178030e-16 0.0000000000000000e+00  4.1680442111741869e-15 -3.5133134503249879e-16 0.0000000000000000e+00  -2.7958574399885598e-16 -3.1958449448436456e-16 0.0000000000000000e+00  5.5463459945628646e-16 3.7810327018718614e-15 0.0000000000000000e+00  1.7568713121995444e-15 1.6862846555124941e-15 0.0000000000000000e+00  7.0835855500510009e-16 -9.0689223367603997e-16 0.0000000000000000e+00  -1.5081205308085338e-15 -6.3536551235067684e-15 0.0000000000000000e+00  -2.1349680059414136e-15 -3.4070061528516960e-16 0.0000000000000000e+00  2.7439096102214002e-16 -7.4761695514361057e-15 0.0000000000000000e+00  3.4910393340014438e-15 3.7673798906966353e-15 0.0000000000000000e+00  -5.3700263137151328e-17 1.0824050632743120e-15 0.0000000000000000e+00  4.9140971156847201e-16 5.2722892955947172e-15 0.0000000000000000e+00  3.3261560825905600e-15 9.1169577125263540e-15 0.0000000000000000e+00  1.2182325720325157e-15 5.6808541006290819e-15 0.0000000000000000e+00  5.1738468421096306e-16 1.0014517024983013e-16 0.0000000000000000e+00  4.7335495205657072e-16 1.9805142141359062e-15 0.0000000000000000e+00  1.1156187035693276e-15 1.7399460984624637e-15 0.0000000000000000e+00  -2.0779427018454193e-15 1.5396895457818348e-15 0.0000000000000000e+00  -1.7845692796464900e-15 1.5974515152460342e-15 0.0000000000000000e+00  -4.3365730731575056e-16 -5.8246596005031208e-15 0.0000000000000000e+00  3.2427070181959153e-15 -3.4243758677619572e-15 0.0000000000000000e+00  -2.7755081541568611e-16 -7.2195128842459325e-15 0.0000000000000000e+00  3.6906594044143536e-15 3.0968918037625681e-15 0.0000000000000000e+00  5.0905080812558258e-15 2.0587211530516315e-14 0.0000000000000000e+00  -2.5810196831617722e-15 1.6880832183816634e-14 0.0000000000000000e+00  -3.6467696276745382e-16 -2.1543753062506535e-14 0.0000000000000000e+00  2.8518152880685556e-15 5.6082790962993469e-15 0.0000000000000000e+00  2.7116152130103719e-15 5.0840756168576840e-16 0.0000000000000000e+00  -1.8151791749615838e-15 2.1024675733859774e-14 0.0000000000000000e+00  -4.2204716258195399e-15 3.8302943872794827e-16 0.0000000000000000e+00  -1.4615098780895776e-16 2.7956765998498241e-15 0.0000000000000000e+00  3.6458031156537153e-15 -7.3963998427164316e-15 0.0000000000000000e+00  1.5615199230602912e-15 9.3837448603469738e-15 0.0000000000000000e+00  5.2331017872848065e-15 1.1508741600982551e-14 0.0000000000000000e+00  5.1920843505120170e-15 9.2895765798562187e-15 0.0000000000000000e+00  -7.5452773200092801e-15 1.3806995236389584e-14 0.0000000000000000e+00  -8.7258058851912020e-16 -1.6960588049152805e-14 0.0000000000000000e+00  5.2249862388386315e-15 9.1310536044947394e-15 0.0000000000000000e+00  -4.2047581507054890e-15 -1.4588249258652478e-14 0.0000000000000000e+00  -7.0118489388243873e-15 -1.6427748146453303e-16 0.0000000000000000e+00  -5.1547897573492841e-15 -1.6394103351139956e-14 0.0000000000000000e+00  -1.1876208307970298e-15 -5.3216871952742426e-16 0.0000000000000000e+00  3.8384616782775957e-15 -7.1237195577426317e-15 0.0000000000000000e+00  3.5867270032545691e-15 -4.6151738759011912e-15 0.0000000000000000e+00  4.4461868537164598e-15 -9.6521556554991954e-15 0.0000000000000000e+00  6.6406683898135592e-15 -3.5584647382754291e-15 0.0000000000000000e+00  -7.8574277935285038e-15 4.4359370360116831e-15 0.0000000000000000e+00  -1.9720253014415686e-15 2.3227380873155543e-16 0.0000000000000000e+00  3.0935450169567766e-15 -3.5149653275255923e-15 0.0000000000000000e+00  -9.8562489631099423e-15 -1.1213155980047807e-14 0.0000000000000000e+00  -9.1335660459333098e-15 -6.0866771138681150e-15 0.0000000000000000e+00  -4.9418425699410928e-15 -1.7810991861158866e-15 0.0000000000000000e+00  1.1804632123018824e-15 -2.7810125257236061e-15 0.0000000000000000e+00  2.8274544138028849e-15 5.0186993075755246e-15 0.0000000000000000e+00  1.4877531809392152e-15 -4.5139728301816413e-15 0.0000000000000000e+00  5.2533894395881547e-15 -2.7759198162959549e-15 0.0000000000000000e+00  6.5383417016770719e-15 -1.5147410644705025e-14 0.0000000000000000e+00  -6.6363825967719286e-15 -5.5599643034727784e-15 0.0000000000000000e+00  -2.3651527439566617e-15 -4.4010593193979988e-15 0.0000000000000000e+00  2.9937733218887767e-15 -3.0005092170076519e-15 0.0000000000000000e+00  -4.2921095961394602e-15 -1.0288131962339201e-14 0.0000000000000000e+00  -5.7880034629755079e-15 -2.5905895115722213e-14 0.0000000000000000e+00  -2.8832970543302712e-15 -9.4122722033262933e-16 0.0000000000000000e+00  2.5374432492059973e-17 1.2460032137738547e-14 0.0000000000000000e+00  4.8215341249111042e-15 -6.2015527438408480e-15 0.0000000000000000e+00  7.6502599776678621e-16 7.5862719155103462e-15 0.0000000000000000e+00  2.4105973531193397e-15 -6.7267500793685159e-15 0.0000000000000000e+00  6.4760449556055534e-15 2.5174848024125777e-14 0.0000000000000000e+00  -5.1062900649576685e-15 -4.9574625900247854e-15 0.0000000000000000e+00  -1.1464359570280059e-15 -2.0193832609085933e-15 0.0000000000000000e+00  6.3136170755564729e-16 6.3774439812291792e-15 0.0000000000000000e+00  -6.5748679888016673e-15 -1.2158516368280002e-14 0.0000000000000000e+00  -3.2050245975287778e-15 -4.0454104481461243e-16 0.0000000000000000e+00  1.4399270207206988e-15 7.6405587822727365e-15 0.0000000000000000e+00  -1.8439731026376236e-15 -9.7525105580763219e-15 0.0000000000000000e+00  3.1843186826692362e-15 -5.1326389645410107e-15 0.0000000000000000e+00  7.6719834920373566e-16 1.4532909406830973e-14 0.0000000000000000e+00  9.6276274193365951e-15 -4.2863224451721296e-15 0.0000000000000000e+00  6.9372501340484425e-15 4.8196648725949699e-14 0.0000000000000000e+00  -1.2002871548372883e-14 1.5792685970635158e-14 0.0000000000000000e+00  8.1373216619050067e-16 5.8016618539874899e-16 0.0000000000000000e+00  1.4958130767815556e-15 4.0184966596156835e-14 0.0000000000000000e+00  -1.1069811721960414e-14 8.0406882432102257e-15 0.0000000000000000e+00  1.2009822562215060e-15 1.8368582149003895e-14 0.0000000000000000e+00  -3.1898446335129808e-15 2.9274289496320695e-14 0.0000000000000000e+00  -1.7423054196028645e-15 1.8465468866424276e-14 0.0000000000000000e+00  6.8155333482434071e-15 -8.9362935322712087e-15 0.0000000000000000e+00  2.4716797061819381e-15 3.3316950479061421e-15 0.0000000000000000e+00  8.0277937966615796e-15 -3.2628644952130298e-15 0.0000000000000000e+00  9.9906242172748877e-15 -1.5001112492695445e-14 0.0000000000000000e+00  -1.6931495224818049e-14 5.1621135647812456e-15 0.0000000000000000e+00  3.3171091118869030e-15 -1.1804882507237362e-14 0.0000000000000000e+00  3.1405236040641855e-15 2.0844187629934998e-15 0.0000000000000000e+00  -2.9313184576322433e-14 -1.6677397958903038e-14 0.0000000000000000e+00  -1.3109618356858625e-15 -1.9528776351893376e-15 0.0000000000000000e+00  -2.2336671957108776e-17 -1.8224268202040259e-15 0.0000000000000000e+00  -6.1950635301318111e-15 2.0747698085749298e-14 0.0000000000000000e+00  7.9364091696575544e-16 -1.3549926936964112e-14 0.0000000000000000e+00  3.4994287464164751e-15 -6.9867967567937029e-15 0.0000000000000000e+00  4.9367638577589545e-15 7.5645366335140664e-15 0.0000000000000000e+00  1.1475104267944945e-14 -2.3245200689317720e-14 0.0000000000000000e+00  -9.8397522879417729e-15 8.3918288414306449e-15 0.0000000000000000e+00  -1.4478276109361293e-15 4.4382119837115331e-14 0.0000000000000000e+00  3.6666838355833480e-16 -9.2082087792334449e-15 0.0000000000000000e+00  -2.2136550383270665e-14 -2.3403935736067924e-14 0.0000000000000000e+00  -1.1910778706823657e-15 1.3645123691565577e-16 0.0000000000000000e+00  2.4285116664154198e-15 3.5128897965695576e-14 0.0000000000000000e+00  -6.8018118318800832e-15 1.5142679979405120e-15 0.0000000000000000e+00  -1.5407270996180365e-15 -1.2875655116161252e-14 0.0000000000000000e+00  6.0747724600726401e-15 -6.4136620471565272e-16 0.0000000000000000e+00  5.5985062835150579e-15 1.2249814094480662e-14 0.0000000000000000e+00  6.6256082981311557e-15 -5.8925170598265771e-15 0.0000000000000000e+00  -4.1283905385375236e-15 -3.1694819133749560e-14 0.0000000000000000e+00  1.2727683795080962e-15 1.6852251412307786e-14 0.0000000000000000e+00  -8.0085937748722506e-15 2.1099276435226458e-14 0.0000000000000000e+00  -3.3166088350710907e-14 -1.1610278178019449e-14 0.0000000000000000e+00  1.1539626472901157e-14 1.7360980999799075e-14 0.0000000000000000e+00  -1.5670655475498432e-15 2.9392169591732014e-14 0.0000000000000000e+00  -1.4081210748358505e-14 -3.8593419698105581e-14 0.0000000000000000e+00  2.2179344139796046e-15 9.0666959690206224e-15 0.0000000000000000e+00  6.3335932741502775e-15 -4.0998911718801432e-14 0.0000000000000000e+00  5.0319445787756897e-15 4.1129537748771756e-14 0.0000000000000000e+00  5.6443325151155842e-15 -4.3387380833310696e-14 0.0000000000000000e+00  -3.5822170342143488e-15 -5.1069531742766140e-14 0.0000000000000000e+00  7.7024550630214172e-15 4.6464788763813405e-14 0.0000000000000000e+00  -8.0767535387936340e-15 -2.0723615297801762e-15 0.0000000000000000e+00  -2.9537675500557414e-14 1.6206163981370094e-14 0.0000000000000000e+00  9.4876161690075428e-15 2.7484214651585295e-14 0.0000000000000000e+00  -9.3550675208127480e-15 -7.6921180382785064e-17 0.0000000000000000e+00  -9.9279751388791377e-15 -7.6737014455773909e-14 0.0000000000000000e+00  5.8070083433080337e-16 -2.4431904899931579e-15 0.0000000000000000e+00  1.3337358934220088e-14 4.8946796060964403e-15 0.0000000000000000e+00  4.7522801423113293e-15 2.9113508306513862e-14 0.0000000000000000e+00  -1.5254722119283396e-14 -3.9149041127002950e-14 0.0000000000000000e+00  1.2946708762084362e-14 -1.0585441838085708e-14 0.0000000000000000e+00  1.1015913466794048e-14 -4.3790720713183696e-15 0.0000000000000000e+00  -1.3031282118920996e-14 5.0993213911610565e-15 0.0000000000000000e+00  -2.2867955266196989e-14 4.4627363863642981e-15 0.0000000000000000e+00  7.5497332653206892e-15 1.1097585175156944e-15 0.0000000000000000e+00  -1.9368713069567338e-14 3.8042519637283777e-14 0.0000000000000000e+00  -1.7170754770298968e-14 -7.6931495548099758e-14 0.0000000000000000e+00  1.5470152490882977e-14 -4.2216867065781519e-14 0.0000000000000000e+00  1.0990127935118181e-14 3.0020868263092214e-14 0.0000000000000000e+00  -1.5034661522148231e-15 -2.3313615098644383e-14 0.0000000000000000e+00  -1.4443604781430421e-15 -1.4675068493482231e-14 0.0000000000000000e+00  6.7615211188537662e-15 3.1888336340102580e-14 0.0000000000000000e+00  8.6997509763521944e-15 -4.2673675827475707e-14 0.0000000000000000e+00  -6.9347823896379608e-15 2.8388887749722014e-14 0.0000000000000000e+00  -3.3052407046753669e-14 4.9406931186029499e-15 0.0000000000000000e+00  1.6237765233047823e-14 -6.3085993427116266e-15 0.0000000000000000e+00  -2.6974630260554970e-14 5.6618125782832587e-14 0.0000000000000000e+00  -2.4830361449791725e-14 -5.9807321157513784e-14 0.0000000000000000e+00  2.4463061922730486e-14 1.9403431946203831e-14 0.0000000000000000e+00  1.9010456819743395e-14 2.6049204877183105e-14 0.0000000000000000e+00  -7.4842417309402449e-15 -2.2411290841014523e-15 0.0000000000000000e+00  -4.6831238556226775e-15 -2.9457455100348123e-14 0.0000000000000000e+00  6.9929644918789435e-15 -4.0947782137712477e-14 0.0000000000000000e+00  1.1858675052177712e-14 5.5149354420399175e-15 0.0000000000000000e+00  -2.1933791239272205e-15 2.4510446559020439e-14 0.0000000000000000e+00  -2.7308632039839002e-14 2.2962904701596719e-14 0.0000000000000000e+00  3.4009662302348811e-14 2.5182011342801763e-14 0.0000000000000000e+00  -3.1971166291937239e-14 5.6643017605746393e-15 0.0000000000000000e+00  -2.3073680705033933e-14 2.9085527221225315e-14 0.0000000000000000e+00  2.9191111202807255e-14 4.5435881157717993e-14 0.0000000000000000e+00  5.8179521830251106e-15 -1.0012037470281269e-14 0.0000000000000000e+00  -1.1852545615035926e-14 -5.3780075051235283e-14 0.0000000000000000e+00  -7.3315803454438485e-15 -4.3444228953761585e-14 0.0000000000000000e+00  1.4074539937549770e-14 -4.2743450260357010e-14 0.0000000000000000e+00  2.0127414913771293e-14 6.0307861707903623e-15 0.0000000000000000e+00  -5.7720760425625504e-15 2.5959334637896769e-15 0.0000000000000000e+00  -3.3619386851835043e-14 2.1207019124887365e-14 0.0000000000000000e+00  1.2755687910788084e-14 3.7131773070333808e-14 0.0000000000000000e+00  -2.6517345675751676e-14 -5.0085067395694267e-14 0.0000000000000000e+00  -1.5738224470910955e-14 6.3534288340522582e-14 0.0000000000000000e+00  1.9346582040531841e-14 1.6767487519592224e-14 0.0000000000000000e+00  -9.5426518865937103e-16 -1.0354758792463126e-14 0.0000000000000000e+00  -1.3030925575938682e-14 -2.3911595958729592e-14 0.0000000000000000e+00  -8.2608270428575984e-15 -1.1190447171752148e-15 0.0000000000000000e+00  1.9319126125646656e-14 -2.3389055433294141e-14 0.0000000000000000e+00  2.1839528813679026e-14 -2.8860346808477892e-14 0.0000000000000000e+00  8.8307551027984502e-16 6.6944551664903227e-15 0.0000000000000000e+00  -2.0968194750887194e-14 1.1809838476993267e-14 0.0000000000000000e+00  3.2132254330803851e-16 6.8931196219177318e-14 0.0000000000000000e+00  -3.0176862675656835e-14 -4.3185884422183885e-14 0.0000000000000000e+00  -1.1660000649319780e-14 -4.1411475541022640e-15 0.0000000000000000e+00  1.5532446559052214e-14 -1.2141199082476900e-14 0.0000000000000000e+00  -4.8859746688005922e-15 -3.2565480655874380e-14 0.0000000000000000e+00  -4.9658400902860680e-15 -5.5732320984313815e-14 0.0000000000000000e+00  -3.6143684324797778e-15 8.7748184917282857e-14 0.0000000000000000e+00  4.7763707070529433e-15 8.0426718281928978e-15 0.0000000000000000e+00  2.6176748259323751e-14 -5.6379676552922091e-14 0.0000000000000000e+00  1.1180185826769747e-16 -6.2243347324105434e-15 0.0000000000000000e+00  -2.9414981504616515e-14 -5.9171491723785426e-14 0.0000000000000000e+00  -2.3088711707608706e-14 -5.5247717497990976e-16 0.0000000000000000e+00  -3.5545442789481686e-14 -5.6655916094345030e-14 0.0000000000000000e+00  -2.5799346404110826e-15 3.9434345253898293e-14 0.0000000000000000e+00  1.1099961758663747e-14 5.8053250789861330e-14 0.0000000000000000e+00  -1.2696303813558301e-14 -2.0678015862628633e-14 0.0000000000000000e+00  3.8768881239606009e-15 -2.0432187174421297e-14 0.0000000000000000e+00  5.0761062439402477e-15 -1.0263884514780937e-14 0.0000000000000000e+00  -5.6036466949808031e-15 1.0028310437604781e-14 0.0000000000000000e+00  2.3746608618711795e-14 2.2048470143661039e-14 0.0000000000000000e+00  -5.3943254111201837e-16 1.5720633233714745e-14 0.0000000000000000e+00  -4.6028694277661509e-14 -3.1765483330490328e-14 0.0000000000000000e+00  -3.6864576986201141e-14 2.4436748945103469e-14 0.0000000000000000e+00  -2.6783901129169977e-14 2.1132923870677098e-14 0.0000000000000000e+00  3.4174096675575156e-15 -1.1326140991851703e-15 0.0000000000000000e+00  5.0749278962845994e-15 2.7984015993851877e-14 0.0000000000000000e+00  -1.2697700460595645e-14 -3.0161612057386432e-14 0.0000000000000000e+00  -1.8610874562702820e-16 5.0136988594964449e-14 0.0000000000000000e+00  -3.4299942311070349e-15 1.4252043630901642e-14 0.0000000000000000e+00  9.0768078839773101e-15 5.2748793910958618e-14 0.0000000000000000e+00  2.1829432304587764e-14 5.2837814856587483e-15 0.0000000000000000e+00  -7.1637693327048504e-15 2.4543530263382393e-14 0.0000000000000000e+00  -5.4484329864889068e-14 -6.0543291002679395e-14 0.0000000000000000e+00  -2.5965359314332045e-14 -2.5618928574116915e-14 0.0000000000000000e+00  -3.4496313111300208e-14 4.5449988732595288e-14 0.0000000000000000e+00  2.3048444562853260e-15 -6.1166273026802870e-14 0.0000000000000000e+00  3.3995660083966750e-15 2.4623382835191195e-15 0.0000000000000000e+00  -1.2636370174638108e-14 -1.3816788014839536e-14 0.0000000000000000e+00  1.6496792271510325e-14 -8.8529665832816354e-14 0.0000000000000000e+00  1.0411078121453224e-14 1.1310939011792653e-13 0.0000000000000000e+00  -6.1730763992969589e-15 8.2489122827703448e-14 0.0000000000000000e+00  1.5889356512093996e-14 -5.1496832421285825e-14 0.0000000000000000e+00  -1.1564216259960954e-14 3.9760421208293433e-14 0.0000000000000000e+00  -7.7812691523694210e-14 -3.3083579411544110e-14 0.0000000000000000e+00  -2.5213993522012706e-15 -5.9297197281633808e-15 0.0000000000000000e+00  -3.7065709711694648e-14 3.7142261210439290e-14 0.0000000000000000e+00  -7.2050210092453791e-15 -3.7994427780782965e-15 0.0000000000000000e+00  1.4912443296054422e-14 3.6609447387428239e-14 0.0000000000000000e+00  -2.6907183309536825e-14 -8.6249675170192519e-15 0.0000000000000000e+00  1.6759690571224852e-14 6.2734016071547501e-15 0.0000000000000000e+00  3.1837503650548744e-14 1.3592530906496240e-14 0.0000000000000000e+00  -2.2717242157457909e-14 5.6183254807858204e-14 0.0000000000000000e+00  1.7510144721425199e-14 3.3627516192913085e-14 0.0000000000000000e+00  -6.7698798952773164e-15 -6.0556688347077699e-15 0.0000000000000000e+00  -8.4201688026594492e-14 -5.3000212797221077e-14 0.0000000000000000e+00  -1.3045044355654644e-14 7.3152496040826352e-15 0.0000000000000000e+00  -3.5936684919213733e-14 3.2526107746222861e-14 0.0000000000000000e+00  6.0478071769702823e-15 -3.6067256061030489e-14 0.0000000000000000e+00  1.2092554159994032e-15 2.4991444912111089e-14 0.0000000000000000e+00  -1.8215743850071141e-14 -3.9526501534664024e-15 0.0000000000000000e+00  2.1468990796306510e-14 4.9823035337077600e-14 0.0000000000000000e+00  2.2319897990798189e-14 2.2213170375891156e-14 0.0000000000000000e+00  -9.3952907109856079e-15 1.6039525387167171e-14 0.0000000000000000e+00  2.4222919015567494e-15 4.4365460393667928e-14 0.0000000000000000e+00  -2.1365027204640393e-14 -3.5200925747938425e-14 0.0000000000000000e+00  -8.6645988901536753e-14 4.2201792037016542e-16 0.0000000000000000e+00  1.3888792743694546e-14 -4.2421558433053980e-14 0.0000000000000000e+00  -4.1428125112359197e-14 2.7591303659275145e-14 0.0000000000000000e+00  -1.3870737451068938e-14 5.3587878194014605e-15 0.0000000000000000e+00  1.7802449179881660e-14 -1.3047932509810870e-13 0.0000000000000000e+00  -1.6954087119007338e-14 1.1088610834488582e-13 0.0000000000000000e+00  2.2935949590824303e-14 -2.1464519857014137e-14 0.0000000000000000e+00  2.1931862350513626e-14 9.2701454053260634e-14 0.0000000000000000e+00  -1.3041328336184043e-14 -5.5441081508661358e-14 0.0000000000000000e+00  7.4088358301747468e-15 2.3781500936477997e-14 0.0000000000000000e+00  -2.2468120162652420e-14 -2.0478434410998071e-14 0.0000000000000000e+00  -7.3536756426846664e-14 1.7826820168134604e-14 0.0000000000000000e+00  3.4891626487435804e-15 -2.1975592859817079e-14 0.0000000000000000e+00  -2.6300070741229259e-14 -1.9594564868969074e-14 0.0000000000000000e+00  -2.4156242838190318e-14 4.3134979045760125e-15 0.0000000000000000e+00  2.4975644699503260e-14 7.8573150268529354e-15 0.0000000000000000e+00  -2.1690217030318729e-15 9.1465615185326071e-14 0.0000000000000000e+00  1.5642588150899383