<?xml version="1.0"?>
<VTKFile type="UnstructuredGrid"  version="0.1"  >
<UnstructuredGrid>
<Piece  NumberOfPoints="431" NumberOfCells="800">
<Points>
<DataArray  type="Float64"  NumberOfComponents="3"  format="ascii">-0.25 -1 0  -0.2 -1 0  -0.15 -1 0  -0.1 -1 0  -0.04999999999999999 -1 0  0 -1 0  0.04999999999999999 -1 0  0.09999999999999998 -1 0  0.15 -1 0  0.2 -1 0  0.25 -1 0  -0.25 -0.95 0  -0.2 -0.95 0  -0.15 -0.95 0  -0.1 -0.95 0  -0.04999999999999999 -0.95 0  0 -0.95 0  0.04999999999999999 -0.95 0  0.09999999999999998 -0.95 0  0.15 -0.95 0  0.2 -0.95 0  0.25 -0.95 0  -0.25 -0.9 0  -0.2 -0.9 0  -0.15 -0.9 0  -0.1 -0.9 0  -0.04999999999999999 -0.9 0  0 -0.9 0  0.04999999999999999 -0.9 0  0.09999999999999998 -0.9 0  0.15 -0.9 0  0.2 -0.9 0  0.25 -0.9 0  -0.25 -0.85 0  -0.2 -0.85 0  -0.15 -0.85 0  -0.1 -0.85 0  -0.04999999999999999 -0.85 0  0 -0.85 0  0.04999999999999999 -0.85 0  0.09999999999999998 -0.85 0  0.15 -0.85 0  0.2 -0.85 0  0.25 -0.85 0  -0.25 -0.8 0  -0.2 -0.8 0  -0.15 -0.8 0  -0.1 -0.8 0  -0.04999999999999999 -0.8 0  0 -0.8 0  0.04999999999999999 -0.8 0  0.09999999999999998 -0.8 0  0.15 -0.8 0  0.2 -0.8 0  0.25 -0.8 0  -0.25 -0.75 0  -0.2 -0.75 0  -0.15 -0.75 0  -0.1 -0.75 0  -0.04999999999999999 -0.75 0  0 -0.75 0  0.04999999999999999 -0.75 0  0.09999999999999998 -0.75 0  0.15 -0.75 0  0.2 -0.75 0  0.25 -0.75 0  -0.25 -0.7 0  -0.2 -0.7 0  -0.15 -0.7 0  -0.1 -0.7 0  -0.04999999999999999 -0.7 0  0 -0.7 0  0.04999999999999999 -0.7 0  0.09999999999999998 -0.7 0  0.15 -0.7 0  0.2 -0.7 0  0.25 -0.7 0  -0.25 -0.65 0  -0.2 -0.65 0  -0.15 -0.65 0  -0.1 -0.65 0  -0.04999999999999999 -0.65 0  0 -0.65 0  0.04999999999999999 -0.65 0  0.09999999999999998 -0.65 0  0.15 -0.65 0  0.2 -0.65 0  0.25 -0.65 0  -0.25 -0.6 0  -0.2 -0.6 0  -0.15 -0.6 0  -0.1 -0.6 0  -0.04999999999999999 -0.6 0  0 -0.6 0  0.04999999999999999 -0.6 0  0.09999999999999998 -0.6 0  0.15 -0.6 0  0.2 -0.6 0  0.25 -0.6 0  -0.25 -0.55 0  -0.2 -0.55 0  -0.15 -0.55 0  -0.1 -0.55 0  -0.04999999999999999 -0.55 0  0 -0.55 0  0.04999999999999999 -0.55 0  0.09999999999999998 -0.55 0  0.15 -0.55 0  0.2 -0.55 0  0.25 -0.55 0  -0.25 -0.5 0  -0.2 -0.5 0  -0.15 -0.5 0  -0.1 -0.5 0  -0.04999999999999999 -0.5 0  0 -0.5 0  0.04999999999999999 -0.5 0  0.09999999999999998 -0.5 0  0.15 -0.5 0  0.2 -0.5 0  0.25 -0.5 0  -0.25 -0.45 0  -0.2 -0.45 0  -0.15 -0.45 0  -0.1 -0.45 0  -0.04999999999999999 -0.45 0  0 -0.45 0  0.04999999999999999 -0.45 0  0.09999999999999998 -0.45 0  0.15 -0.45 0  0.2 -0.45 0  0.25 -0.45 0  -0.25 -0.4 0  -0.2 -0.4 0  -0.15 -0.4 0  -0.1 -0.4 0  -0.04999999999999999 -0.4 0  0 -0.4 0  0.04999999999999999 -0.4 0  0.09999999999999998 -0.4 0  0.15 -0.4 0  0.2 -0.4 0  0.25 -0.4 0  -0.25 -0.35 0  -0.2 -0.35 0  -0.15 -0.35 0  -0.1 -0.35 0  -0.04999999999999999 -0.35 0  0 -0.35 0  0.04999999999999999 -0.35 0  0.09999999999999998 -0.35 0  0.15 -0.35 0  0.2 -0.35 0  0.25 -0.35 0  -0.25 -0.3 0  -0.2 -0.3 0  -0.15 -0.3 0  -0.1 -0.3 0  -0.04999999999999999 -0.3 0  0 -0.3 0  0.04999999999999999 -0.3 0  0.09999999999999998 -0.3 0  0.15 -0.3 0  0.2 -0.3 0  0.25 -0.3 0  -0.25 -0.25 0  -0.2 -0.25 0  -0.15 -0.25 0  -0.1 -0.25 0  -0.04999999999999999 -0.25 0  0 -0.25 0  0.04999999999999999 -0.25 0  0.09999999999999998 -0.25 0  0.15 -0.25 0  0.2 -0.25 0  0.25 -0.25 0  -0.25 -0.2 0  -0.2 -0.2 0  -0.15 -0.2 0  -0.1 -0.2 0  -0.04999999999999999 -0.2 0  0 -0.2 0  0.04999999999999999 -0.2 0  0.09999999999999998 -0.2 0  0.15 -0.2 0  0.2 -0.2 0  0.25 -0.2 0  -0.25 -0.15 0  -0.2 -0.15 0  -0.15 -0.15 0  -0.1 -0.15 0  -0.04999999999999999 -0.15 0  0 -0.15 0  0.04999999999999999 -0.15 0  0.09999999999999998 -0.15 0  0.15 -0.15 0  0.2 -0.15 0  0.25 -0.15 0  -0.25 -0.09999999999999998 0  -0.2 -0.09999999999999998 0  -0.15 -0.09999999999999998 0  -0.1 -0.09999999999999998 0  -0.04999999999999999 -0.09999999999999998 0  0 -0.09999999999999998 0  0.04999999999999999 -0.09999999999999998 0  0.09999999999999998 -0.09999999999999998 0  0.15 -0.09999999999999998 0  0.2 -0.09999999999999998 0  0.25 -0.09999999999999998 0  -0.25 -0.05000000000000004 0  -0.2 -0.05000000000000004 0  -0.15 -0.05000000000000004 0  -0.1 -0.05000000000000004 0  -0.04999999999999999 -0.05000000000000004 0  0 -0.05000000000000004 0  0.04999999999999999 -0.05000000000000004 0  0.09999999999999998 -0.05000000000000004 0  0.15 -0.05000000000000004 0  0.2 -0.05000000000000004 0  0.25 -0.05000000000000004 0  -0.25 0 0  -0.2 0 0  -0.15 0 0  -0.1 0 0  -0.04999999999999999 0 0  0 0 0  0.04999999999999999 0 0  0.09999999999999998 0 0  0.15 0 0  0.2 0 0  0.25 0 0  -0.225 -0.975 0  -0.175 -0.975 0  -0.125 -0.975 0  -0.07500000000000001 -0.975 0  -0.02499999999999999 -0.975 0  0.02500000000000002 -0.975 0  0.07500000000000001 -0.975 0  0.125 -0.975 0  0.175 -0.975 0  0.225 -0.975 0  -0.225 -0.925 0  -0.175 -0.925 0  -0.125 -0.925 0  -0.07500000000000001 -0.925 0  -0.02499999999999999 -0.925 0  0.02500000000000002 -0.925 0  0.07500000000000001 -0.925 0  0.125 -0.925 0  0.175 -0.925 0  0.225 -0.925 0  -0.225 -0.875 0  -0.175 -0.875 0  -0.125 -0.875 0  -0.07500000000000001 -0.875 0  -0.02499999999999999 -0.875 0  0.02500000000000002 -0.875 0  0.07500000000000001 -0.875 0  0.125 -0.875 0  0.175 -0.875 0  0.225 -0.875 0  -0.225 -0.825 0  -0.175 -0.825 0  -0.125 -0.825 0  -0.07500000000000001 -0.825 0  -0.02499999999999999 -0.825 0  0.02500000000000002 -0.825 0  0.07500000000000001 -0.825 0  0.125 -0.825 0  0.175 -0.825 0  0.225 -0.825 0  -0.225 -0.775 0  -0.175 -0.775 0  -0.125 -0.775 0  -0.07500000000000001 -0.775 0  -0.02499999999999999 -0.775 0  0.02500000000000002 -0.775 0  0.07500000000000001 -0.775 0  0.125 -0.775 0  0.175 -0.775 0  0.225 -0.775 0  -0.225 -0.725 0  -0.175 -0.725 0  -0.125 -0.725 0  -0.07500000000000001 -0.725 0  -0.02499999999999999 -0.725 0  0.02500000000000002 -0.725 0  0.07500000000000001 -0.725 0  0.125 -0.725 0  0.175 -0.725 0  0.225 -0.725 0  -0.225 -0.675 0  -0.175 -0.675 0  -0.125 -0.675 0  -0.07500000000000001 -0.675 0  -0.02499999999999999 -0.675 0  0.02500000000000002 -0.675 0  0.07500000000000001 -0.675 0  0.125 -0.675 0  0.175 -0.675 0  0.225 -0.675 0  -0.225 -0.625 0  -0.175 -0.625 0  -0.125 -0.625 0  -0.07500000000000001 -0.625 0  -0.02499999999999999 -0.625 0  0.02500000000000002 -0.625 0  0.07500000000000001 -0.625 0  0.125 -0.625 0  0.175 -0.625 0  0.225 -0.625 0  -0.225 -0.575 0  -0.175 -0.575 0  -0.125 -0.575 0  -0.07500000000000001 -0.575 0  -0.02499999999999999 -0.575 0  0.02500000000000002 -0.575 0  0.07500000000000001 -0.575 0  0.125 -0.575 0  0.175 -0.575 0  0.225 -0.575 0  -0.225 -0.525 0  -0.175 -0.525 0  -0.125 -0.525 0  -0.07500000000000001 -0.525 0  -0.02499999999999999 -0.525 0  0.02500000000000002 -0.525 0  0.07500000000000001 -0.525 0  0.125 -0.525 0  0.175 -0.525 0  0.225 -0.525 0  -0.225 -0.475 0  -0.175 -0.475 0  -0.125 -0.475 0  -0.07500000000000001 -0.475 0  -0.02499999999999999 -0.475 0  0.02500000000000002 -0.475 0  0.07500000000000001 -0.475 0  0.125 -0.475 0  0.175 -0.475 0  0.225 -0.475 0  -0.225 -0.425 0  -0.175 -0.425 0  -0.125 -0.425 0  -0.07500000000000001 -0.425 0  -0.02499999999999999 -0.425 0  0.02500000000000002 -0.425 0  0.07500000000000001 -0.425 0  0.125 -0.425 0  0.175 -0.425 0  0.225 -0.425 0  -0.225 -0.375 0  -0.175 -0.375 0  -0.125 -0.375 0  -0.07500000000000001 -0.375 0  -0.02499999999999999 -0.375 0  0.02500000000000002 -0.375 0  0.07500000000000001 -0.375 0  0.125 -0.375 0  0.175 -0.375 0  0.225 -0.375 0  -0.225 -0.325 0  -0.175 -0.325 0  -0.125 -0.325 0  -0.07500000000000001 -0.325 0  -0.02499999999999999 -0.325 0  0.02500000000000002 -0.325 0  0.07500000000000001 -0.325 0  0.125 -0.325 0  0.175 -0.325 0  0.225 -0.325 0  -0.225 -0.275 0  -0.175 -0.275 0  -0.125 -0.275 0  -0.07500000000000001 -0.275 0  -0.02499999999999999 -0.275 0  0.02500000000000002 -0.275 0  0.07500000000000001 -0.275 0  0.125 -0.275 0  0.175 -0.275 0  0.225 -0.275 0  -0.225 -0.225 0  -0.175 -0.225 0  -0.125 -0.225 0  -0.07500000000000001 -0.225 0  -0.02499999999999999 -0.225 0  0.02500000000000002 -0.225 0  0.07500000000000001 -0.225 0  0.125 -0.225 0  0.175 -0.225 0  0.225 -0.225 0  -0.225 -0.175 0  -0.175 -0.175 0  -0.125 -0.175 0  -0.07500000000000001 -0.175 0  -0.02499999999999999 -0.175 0  0.02500000000000002 -0.175 0  0.07500000000000001 -0.175 0  0.125 -0.175 0  0.175 -0.175 0  0.225 -0.175 0  -0.225 -0.125 0  -0.175 -0.125 0  -0.125 -0.125 0  -0.07500000000000001 -0.125 0  -0.02499999999999999 -0.125 0  0.02500000000000002 -0.125 0  0.07500000000000001 -0.125 0  0.125 -0.125 0  0.175 -0.125 0  0.225 -0.125 0  -0.225 -0.07499999999999996 0  -0.175 -0.07499999999999996 0  -0.125 -0.07499999999999996 0  -0.07500000000000001 -0.07499999999999996 0  -0.02499999999999999 -0.07499999999999996 0  0.02500000000000002 -0.07499999999999996 0  0.07500000000000001 -0.07499999999999996 0  0.125 -0.07499999999999996 0  0.175 -0.07499999999999996 0  0.225 -0.07499999999999996 0  -0.225 -0.02500000000000002 0  -0.175 -0.02500000000000002 0  -0.125 -0.02500000000000002 0  -0.07500000000000001 -0.02500000000000002 0  -0.02499999999999999 -0.02500000000000002 0  0.02500000000000002 -0.02500000000000002 0  0.07500000000000001 -0.02500000000000002 0  0.125 -0.02500000000000002 0  0.175 -0.02500000000000002 0  0.225 -0.02500000000000002 0  </DataArray>
</Points>
<Cells>
[...]
<PointData  Vectors="flow"> 
<DataArray  type="Float64"  Name="flow"  NumberOfComponents="3" format="ascii">-5.6468789662328343e-02 1.1294434409457753e-01 0.0000000000000000e+00  1.0883845175393520e-05 1.1294434409466164e-01 0.0000000000000000e+00  -2.0978663081840336e-09 1.1294434409457503e-01 0.0000000000000000e+00  2.7630337744570253e-13 1.1294434409466697e-01 0.0000000000000000e+00  -1.9207920480609078e-13 1.1294434409461632e-01 0.0000000000000000e+00  -4.1320590749965501e-13 1.1294434409464567e-01 0.0000000000000000e+00  -1.3687565964763037e-13 1.1294434409486810e-01 0.0000000000000000e+00  -3.7991795980470815e-13 1.1294434409463378e-01 0.0000000000000000e+00  2.0976588172124353e-09 1.1294434409462970e-01 0.0000000000000000e+00  -1.0883845135374473e-05 1.1294434409457532e-01 0.0000000000000000e+00  5.6468789662220083e-02 1.1294434409461022e-01 0.0000000000000000e+00  -5.6294715248711845e-02 3.3843457084200962e-01 0.0000000000000000e+00  1.0850293921950036e-05 3.3843457084200956e-01 0.0000000000000000e+00  -2.0913927026655914e-09 3.3843457084205464e-01 0.0000000000000000e+00  2.9032032135035979e-13 3.3843457084198536e-01 0.0000000000000000e+00  -2.4948128666068284e-13 3.3843457084198941e-01 0.0000000000000000e+00  -2.6658417107338267e-13 3.3843457084193956e-01 0.0000000000000000e+00  -2.0283152153608963e-13 3.3843457084200013e-01 0.0000000000000000e+00  -4.6252831446125410e-13 3.3843457084185868e-01 0.0000000000000000e+00  2.0912296587155707e-09 3.3843457084192563e-01 0.0000000000000000e+00  -1.0850293946718675e-05 3.3843457084193929e-01 0.0000000000000000e+00  5.6294715248609392e-02 3.3843457084192308e-01 0.0000000000000000e+00  -5.5773565233587688e-02 6.7478258024517335e-01 0.0000000000000000e+00  1.0749847126767620e-05 6.7478258024517135e-01 0.0000000000000000e+00  -2.0720494944753764e-09 6.7478258024513149e-01 0.0000000000000000e+00  1.9998767041279737e-13 6.7478258024503279e-01 0.0000000000000000e+00  -2.4409856256908666e-13 6.7478258024511228e-01 0.0000000000000000e+00  -3.8089860416694765e-13 6.7478258024506355e-01 0.0000000000000000e+00  -2.1772599925876669e-13 6.7478258024510018e-01 0.0000000000000000e+00  -4.7763732416937490e-13 6.7478258024504345e-01 0.0000000000000000e+00  2.0718835588354317e-09 6.7478258024490601e-01 0.0000000000000000e+00  -1.0749847092213181e-05 6.7478258024490922e-01 0.0000000000000000e+00  5.5773565233496074e-02 6.7478258024497662e-01 0.0000000000000000e+00  -5.4908552676839001e-02 1.0069703311028899e+00 0.0000000000000000e+00  1.0583123837042681e-05 1.0069703311028091e+00 0.0000000000000000e+00  -2.0399753802850480e-09 1.0069703311030118e+00 0.0000000000000000e+00  2.0755028651591192e-13 1.0069703311028344e+00 0.0000000000000000e+00  -1.7959069497852004e-13 1.0069703311027183e+00 0.0000000000000000e+00  -2.9087453331951688e-13 1.0069703311028377e+00 0.0000000000000000e+00  -1.8507350991624536e-13 1.0069703311028404e+00 0.0000000000000000e+00  -6.6258943055359872e-13 1.0069703311029030e+00 0.0000000000000000e+00  2.0396287042607895e-09 1.0069703311027987e+00 0.0000000000000000e+00  -1.0583123895701322e-05 1.0069703311028015e+00 0.0000000000000000e+00  5.4908552677066388e-02 1.0069703311027562e+00 0.0000000000000000e+00  -5.3705010663811698e-02 1.3329497756615762e+00 0.0000000000000000e+00  1.0351152533120959e-05 1.3329497756616535e+00 0.0000000000000000e+00  -1.9951619826262621e-09 1.3329497756615460e+00 0.0000000000000000e+00  -1.0498094253662041e-13 1.3329497756615645e+00 0.0000000000000000e+00  -2.8120482132507379e-13 1.3329497756614332e+00 0.0000000000000000e+00  -2.6795229536665140e-13 1.3329497756613913e+00 0.0000000000000000e+00  -1.3551127009547184e-13 1.3329497756613247e+00 0.0000000000000000e+00  -4.7367551880275104e-13 1.3329497756613538e+00 0.0000000000000000e+00  1.9949390735606866e-09 1.3329497756615745e+00 0.0000000000000000e+00  -1.0351152425121720e-05 1.3329497756616218e+00 0.0000000000000000e+00  5.3705010663700960e-02 1.3329497756613204e+00 0.0000000000000000e+00  -5.2170359423844424e-02 1.6507111424039542e+00 0.0000000000000000e+00  1.0055362448859464e-05 1.6507111424041754e+00 0.0000000000000000e+00  -1.9384338748977906e-09 1.6507111424037331e+00 0.0000000000000000e+00  1.4760376990160248e-13 1.6507111424039382e+00 0.0000000000000000e+00  -3.3663484739678145e-13 1.6507111424040892e+00 0.0000000000000000e+00  -3.8362585248638661e-13 1.6507111424040757e+00 0.0000000000000000e+00  -3.1798606705107568e-13 1.6507111424038605e+00 0.0000000000000000e+00  -3.8326228956714973e-13 1.6507111424039695e+00 0.0000000000000000e+00  1.9381838454654906e-09 1.6507111424040930e+00 0.0000000000000000e+00  -1.0055362710668486e-05 1.6507111424039873e+00 0.0000000000000000e+00  5.2170359423669703e-02 1.6507111424041108e+00 0.0000000000000000e+00  -5.0314060584725769e-02 1.9582953269519388e+00 0.0000000000000000e+00  9.6975779894582226e-06 1.9582953269516070e+00 0.0000000000000000e+00  -1.8694431796812367e-09 1.9582953269518999e+00 0.0000000000000000e+00  1.7354650666729962e-13 1.9582953269520837e+00 0.0000000000000000e+00  -1.8037475009799304e-13 1.9582953269521344e+00 0.0000000000000000e+00  -4.5091043883681838e-13 1.9582953269519967e+00 0.0000000000000000e+00  -1.2456861136680027e-13 1.9582953269520900e+00 0.0000000000000000e+00  -2.6247451472858267e-13 1.9582953269522050e+00 0.0000000000000000e+00  1.8689760493316706e-09 1.9582953269520991e+00 0.0000000000000000e+00  -9.6975781011332808e-06 1.9582953269518566e+00 0.0000000000000000e+00  5.0314060584873151e-02 1.9582953269521284e+00 0.0000000000000000e+00  -4.8147558837396978e-02 2.2538059705887159e+00 0.0000000000000000e+00  9.2800046982027602e-06 2.2538059705889344e+00 0.0000000000000000e+00  -1.7884442894115925e-09 2.2538059705889562e+00 0.0000000000000000e+00  3.6731321978014134e-13 2.2538059705890867e+00 0.0000000000000000e+00  -3.8762607431891859e-13 2.2538059705893003e+00 0.0000000000000000e+00  -5.7226908750402990e-13 2.2538059705889855e+00 0.0000000000000000e+00  -1.6606372020478558e-13 2.2538059705889477e+00 0.0000000000000000e+00  -2.9424020663880037e-13 2.2538059705886608e+00 0.0000000000000000e+00  1.7883701506307479e-09 2.2538059705886710e+00 0.0000000000000000e+00  -9.2800050102588324e-06 2.2538059705886391e+00 0.0000000000000000e+00  4.8147558836916099e-02 2.2538059705884992e+00 0.0000000000000000e+00  -4.5684211375067833e-02 2.5354211519385847e+00 0.0000000000000000e+00  8.8052174448741077e-06 2.5354211519385719e+00 0.0000000000000000e+00  -1.6973478693672932e-09 2.5354211519386043e+00 0.0000000000000000e+00  4.1964215737337685e-13 2.5354211519383676e+00 0.0000000000000000e+00  -2.8834915750754768e-13 2.5354211519382819e+00 0.0000000000000000e+00  -6.2381946489754762e-13 2.5354211519386394e+00 0.0000000000000000e+00  -4.3647850493038391e-13 2.5354211519382126e+00 0.0000000000000000e+00  -5.7990332019193866e-13 2.5354211519380230e+00 0.0000000000000000e+00  1.6970438859902839e-09 2.5354211519379466e+00 0.0000000000000000e+00  -8.8052174757033897e-06 2.5354211519381615e+00 0.0000000000000000e+00  4.5684211375542724e-02 2.5354211519381362e+00 0.0000000000000000e+00  -4.2939205546598691e-02 2.8014046197157931e+00 0.0000000000000000e+00  8.2761416502784616e-06 2.8014046197155369e+00 0.0000000000000000e+00  -1.5945053957734376e-09 2.8014046197156186e+00 0.0000000000000000e+00  -2.3979767750120007e-13 2.8014046197155191e+00 0.0000000000000000e+00  6.9091950617608834e-14 2.8014046197155515e+00 0.0000000000000000e+00  -7.1905893676134746e-13 2.8014046197153912e+00 0.0000000000000000e+00  -1.0510844126722795e-12 2.8014046197153708e+00 0.0000000000000000e+00  -1.3686959415254862e-14 2.8014046197154903e+00 0.0000000000000000e+00  1.5943117357004119e-09 2.8014046197150781e+00 0.0000000000000000e+00  -8.2761417928286670e-06 2.8014046197151026e+00 0.0000000000000000e+00  4.2939205546167737e-02 2.8014046197152274e+00 0.0000000000000000e+00  -3.9929465222664828e-02 3.0501164972955355e+00 0.0000000000000000e+00  7.6960476991468942e-06 3.0501164972959218e+00 0.0000000000000000e+00  -1.4874740488776169e-09 3.0501164972960630e+00 0.0000000000000000e+00  2.6352665676496048e-12 3.0501164972958756e+00 0.0000000000000000e+00  -1.7307282544863983e-12 3.0501164972952104e+00 0.0000000000000000e+00  -7.3631034218423507e-13 3.0501164972951296e+00 0.0000000000000000e+00  8.6566609175874670e-13 3.0501164972955901e+00 0.0000000000000000e+00  -3.3193839227079461e-12 3.0501164972952455e+00 0.0000000000000000e+00  1.4867662320615789e-09 3.0501164972953947e+00 0.0000000000000000e+00  -7.6960475876784577e-06 3.0501164972953836e+00 0.0000000000000000e+00  3.9929465222809171e-02 3.0501164972953170e+00 0.0000000000000000e+00  -3.6673546396463030e-02 3.2800233931038818e+00 0.0000000000000000e+00  7.0684642706949469e-06 3.2800233931039005e+00 0.0000000000000000e+00  -1.3391638642407283e-09 3.2800233931037304e+00 0.0000000000000000e+00  -1.5408554503735241e-11 3.2800233931037872e+00 0.0000000000000000e+00  6.2622337677445361e-12 3.2800233931037650e+00 0.0000000000000000e+00  -3.5514681663778309e-13 3.2800233931038192e+00 0.0000000000000000e+00  -7.7164158114478832e-12 3.2800233931037583e+00 0.0000000000000000e+00  1.4205260909649540e-11 3.2800233931037002e+00 0.0000000000000000e+00  1.3389738723711218e-09 3.2800233931036109e+00 0.0000000000000000e+00  -7.0684640615082860e-06 3.2800233931038614e+00 0.0000000000000000e+00  3.6673546396642179e-02 3.2800233931038876e+00 0.0000000000000000e+00  -3.3191523201218147e-02 3.4897078544929965e+00 0.0000000000000000e+00  6.3975502863827884e-06 3.4897078544927389e+00 0.0000000000000000e+00  -1.3724868405001263e-09 3.4897078544923454e+00 0.0000000000000000e+00  8.5553556752996059e-11 3.4897078544927091e+00 0.0000000000000000e+00  -3.9165611545648236e-11 3.4897078544928282e+00 0.0000000000000000e+00  -7.5571914696867825e-13 3.4897078544930298e+00 0.0000000000000000e+00  3.8111874950805774e-11 3.4897078544930564e+00 0.0000000000000000e+00  -8.6296093172480847e-11 3.4897078544933633e+00 0.0000000000000000e+00  1.3719266910129356e-09 3.4897078544931786e+00 0.0000000000000000e+00  -6.3975501098226271e-06 3.4897078544933779e+00 0.0000000000000000e+00  3.3191523201386262e-02 3.4897078544930618e+00 0.0000000000000000e+00  -2.9504861490148318e-02 3.6778771068201896e+00 0.0000000000000000e+00  5.6856578475249823e-06 3.6778771068199001e+00 0.0000000000000000e+00  -2.7145105991397533e-10 3.6778771068199405e+00 0.0000000000000000e+00  -4.7731056354079789e-10 3.6778771068198868e+00 0.0000000000000000e+00  2.0132238286529746e-10 3.6778771068198637e+00 0.0000000000000000e+00  -2.5563624410761340e-13 3.6778771068197971e+00 0.0000000000000000e+00  -2.0196354577715965e-10 3.6778771068200355e+00 0.0000000000000000e+00  4.7662954318406856e-10 3.6778771068202505e+00 0.0000000000000000e+00  2.7123174355615176e-10 3.6778771068203193e+00 0.0000000000000000e+00  -5.6856583628718857e-06 3.6778771068203255e+00 0.0000000000000000e+00  2.9504861489739947e-02 3.6778771068205849e+00 0.0000000000000000e+00  -2.5636303174980387e-02 3.8433710238428920e+00 0.0000000000000000e+00  4.9482198894971329e-06 3.8433710238430274e+00 0.0000000000000000e+00  -5.7983814217540660e-09 3.8433710238433969e+00 0.0000000000000000e+00  2.5678137027560661e-09 3.8433710238430985e+00 0.0000000000000000e+00  -9.8159321810098997e-10 3.8433710238430616e+00 0.0000000000000000e+00  -6.5856793662031988e-13 3.8433710238430798e+00 0.0000000000000000e+00  9.8112805895854274e-10 3.8433710238429843e+00 0.0000000000000000e+00  -2.5685085402602736e-09 3.8433710238430749e+00 0.0000000000000000e+00  5.7979098570907769e-09 3.8433710238434045e+00 0.0000000000000000e+00  -4.9482198883006862e-06 3.8433710238426482e+00 0.0000000000000000e+00  2.5636303175037681e-02 3.8433710238427565e+00 0.0000000000000000e+00  -2.1609620015518770e-02 3.9851692802978889e+00 0.0000000000000000e+00  4.1209544254200006e-06 3.9851692802980700e+00 0.0000000000000000e+00  2.7217138529540186e-08 3.9851692802981877e+00 0.0000000000000000e+00  -1.3018485815065118e-08 3.9851692802980510e+00 0.0000000000000000e+00  4.2171202041114070e-09 3.9851692802980629e+00 0.0000000000000000e+00  -2.9254832557950055e-13 3.9851692802982055e+00 0.0000000000000000e+00  -4.2178721383092594e-09 3.9851692802978942e+00 0.0000000000000000e+00  1.3017810951994484e-08 3.9851692802979524e+00 0.0000000000000000e+00  -2.7217647489814602e-08 3.9851692802978986e+00 0.0000000000000000e+00  -4.1209548273661492e-06 3.9851692802979612e+00 0.0000000000000000e+00  2.1609620015520956e-02 3.9851692802980727e+00 0.0000000000000000e+00  -1.7450152721537205e-02 4.1023976425574933e+00 0.0000000000000000e+00  3.6416277278249985e-06 4.1023976425571558e+00 0.0000000000000000e+00  -1.5748113464237019e-07 4.1023976425569106e+00 0.0000000000000000e+00  5.8981334033324921e-08 4.1023976425572952e+00 0.0000000000000000e+00  -1.4272152776704712e-08 4.1023976425578983e+00 0.0000000000000000e+00  -6.4209582875641878e-13 4.1023976425577438e+00 0.0000000000000000e+00  1.4271466019528221e-08 4.1023976425574906e+00 0.0000000000000000e+00  -5.8981898785403484e-08 4.1023976425572926e+00 0.0000000000000000e+00  1.5748056650597314e-07 4.1023976425578006e+00 0.0000000000000000e+00  -3.6416274681232294e-06 4.1023976425579374e+00 0.0000000000000000e+00  1.7450152721530575e-02 4.1023976425576967e+00 0.0000000000000000e+00  -1.3180096121824556e-02 4.1943333585826519e+00 0.0000000000000000e+00  7.6808307420668579e-07 4.1943333585826821e+00 0.0000000000000000e+00  8.1216282839007781e-07 4.1943333585822051e+00 0.0000000000000000e+00  -2.0550402004268819e-07 4.1943333585827496e+00 0.0000000000000000e+00  2.7343486323790770e-08 4.1943333585831546e+00 0.0000000000000000e+00  -6.1978174414237624e-13 4.1943333585833429e+00 0.0000000000000000e+00  -2.7344510325833260e-08 4.1943333585831342e+00 0.0000000000000000e+00  2.0550445389849545e-07 4.1943333585828544e+00 0.0000000000000000e+00  -8.1216274099985461e-07 4.1943333585827398e+00 0.0000000000000000e+00  -7.6808376157035203e-07 4.1943333585828730e+00 0.0000000000000000e+00  1.3180096121143592e-02 4.1943333585826856e+00 0.0000000000000000e+00  -8.8501356370420895e-03 4.2604096139411425e+00 0.0000000000000000e+00  1.3016641450237950e-05 4.2604096139412988e+00 0.0000000000000000e+00  -3.2992027867116070e-06 4.2604096139413326e+00 0.0000000000000000e+00  2.3510027264225168e-07 4.2604096139409524e+00 0.0000000000000000e+00  -1.5993767511295923e-08 4.2604096139411922e+00 0.0000000000000000e+00  -9.0113963133995713e-13 4.2604096139411736e+00 0.0000000000000000e+00  1.5993446063525075e-08 4.2604096139412047e+00 0.0000000000000000e+00  -2.3509989221428892e-07 4.2604096139414684e+00 0.0000000000000000e+00  3.2992024752066039e-06 4.2604096139417562e+00 0.0000000000000000e+00  -1.3016641985272501e-05 4.2604096139420440e+00 0.0000000000000000e+00  8.8501356367652537e-03 4.2604096139421506e+00 0.0000000000000000e+00  -4.2941314345852173e-03 4.3002190264163982e+00 0.0000000000000000e+00  -6.6688087361208310e-05 4.3002190264166265e+00 0.0000000000000000e+00  -8.2831765685895098e-07 4.3002190264170537e+00 0.0000000000000000e+00  2.1901305306909831e-07 4.3002190264168849e+00 0.0000000000000000e+00  -3.1770095194669109e-08 4.3002190264164888e+00 0.0000000000000000e+00  -5.3947856347734935e-13 4.3002190264165092e+00 0.0000000000000000e+00  3.1769724478422781e-08 4.3002190264175049e+00 0.0000000000000000e+00  -2.1901271326584658e-07 4.3002190264173086e+00 0.0000000000000000e+00  8.2831798841144202e-07 4.3002190264173397e+00 0.0000000000000000e+00  6.6688087261390614e-05 4.3002190264173059e+00 0.0000000000000000e+00  4.2941314347331536e-03 4.3002190264174898e+00 0.0000000000000000e+00  -1.9076490894824538e-03 4.3135161576624803e+00 0.0000000000000000e+00  -1.6149160946932453e-04 4.3135161576623240e+00 0.0000000000000000e+00  6.9480463825550235e-06 4.3135161576625354e+00 0.0000000000000000e+00  -5.9348094225849351e-07 4.3135161576628258e+00 0.0000000000000000e+00  6.2573781333467476e-08 4.3135161576622751e+00 0.0000000000000000e+00  1.5847570809717869e-13 4.3135161576628311e+00 0.0000000000000000e+00  -6.2573937681672434e-08 4.3135161576630336e+00 0.0000000000000000e+00  5.9348084043965136e-07 4.3135161576637469e+00 0.0000000000000000e+00  -6.9480462787444096e-06 4.3135161576629120e+00 0.0000000000000000e+00  1.6149160956233346e-04 4.3135161576626251e+00 0.0000000000000000e+00  1.9076490892893862e-03 4.3135161576625398e+00 0.0000000000000000e+00  2.8185442692985726e-02 1.1309328305430090e-01 0.0000000000000000e+00  -5.4324874909648419e-06 1.1309328305427978e-01 0.0000000000000000e+00  1.0468696343769014e-09 1.1309328305428447e-01 0.0000000000000000e+00  -3.4521091426308461e-13 1.1309328305428008e-01 0.0000000000000000e+00  -3.0565927760287578e-13 1.1309328305425492e-01 0.0000000000000000e+00  -4.9855865717600676e-13 1.1309328305439859e-01 0.0000000000000000e+00  3.6879043271110028e-13 1.1309328305439043e-01 0.0000000000000000e+00  -1.0471684753153317e-09 1.1309328305428026e-01 0.0000000000000000e+00  5.4324874332944190e-06 1.1309328305425378e-01 0.0000000000000000e+00  -2.8185442692947330e-02 1.1309328305419643e-01 0.0000000000000000e+00  2.8011670085354587e-02 5.0765093800572925e-01 0.0000000000000000e+00  -5.3989943807024993e-06 5.0765093800583327e-01 0.0000000000000000e+00  1.0402984742090532e-09 5.0765093800579020e-01 0.0000000000000000e+00  -3.2357448794012013e-13 5.0765093800567540e-01 0.0000000000000000e+00  -3.8444854136098007e-13 5.0765093800562655e-01 0.0000000000000000e+00  -2.8762000344067749e-13 5.0765093800553285e-01 0.0000000000000000e+00  1.5179918195645801e-13 5.0765093800552652e-01 0.0000000000000000e+00  -1.0407002253699133e-09 5.0765093800552064e-01 0.0000000000000000e+00  5.3989943349544015e-06 5.0765093800552341e-01 0.0000000000000000e+00  -2.8011670085277097e-02 5.0765093800553784e-01 0.0000000000000000e+00  2.7665196234918053e-02 8.4260658441275693e-01 0.0000000000000000e+00  -5.3322147346944093e-06 8.4260658441262204e-01 0.0000000000000000e+00  1.0272450874048666e-09 8.4260658441249325e-01 0.0000000000000000e+00  -2.0528029720063035e-13 8.4260658441260261e-01 0.0000000000000000e+00  -4.1677484165844920e-13 8.4260658441274039e-01 0.0000000000000000e+00  -2.0224786530959809e-13 8.4260658441287006e-01 0.0000000000000000e+00  6.1367483743282781e-14 8.4260658441283787e-01 0.0000000000000000e+00  -1.0279487956105772e-09 8.4260658441263503e-01 0.0000000000000000e+00  5.3322147433407387e-06 8.4260658441252667e-01 0.0000000000000000e+00  -2.7665196234809942e-02 8.4260658441260339e-01 0.0000000000000000e+00  2.7148157266059687e-02 1.1723672815885839e+00 0.0000000000000000e+00  -5.2325599943613189e-06 1.1723672815889274e+00 0.0000000000000000e+00  1.0078169092221986e-09 1.1723672815891317e+00 0.0000000000000000e+00  -2.6613550680509801e-13 1.1723672815887736e+00 0.0000000000000000e+00  -2.8923627950133262e-13 1.1723672815886692e+00 0.0000000000000000e+00  -3.1388848703859086e-13 1.1723672815885924e+00 0.0000000000000000e+00  1.4440583108981762e-13 1.1723672815886483e+00 0.0000000000000000e+00  -1.0087973825549905e-09 1.1723672815888786e+00 0.0000000000000000e+00  5.2325603650659464e-06 1.1723672815889734e+00 0.0000000000000000e+00  -2.7148157266142982e-02 1.1723672815889010e+00 0.0000000000000000e+00  2.6463740893220868e-02 1.4948999453588250e+00 0.0000000000000000e+00  -5.1006452733046593e-06 1.4948999453583429e+00 0.0000000000000000e+00  9.8250930882745078e-10 1.4948999453580589e+00 0.0000000000000000e+00  -4.1077301225434558e-13 1.4948999453583220e+00 0.0000000000000000e+00  -2.8957320315216002e-13 1.4948999453582166e+00 0.0000000000000000e+00  -4.7721476276760289e-13 1.4948999453580916e+00 0.0000000000000000e+00  1.2872869526152050e-13 1.4948999453578655e+00 0.0000000000000000e+00  -9.8316067024616381e-10 1.4948999453578284e+00 0.0000000000000000e+00  5.1006455765276974e-06 1.4948999453581127e+00 0.0000000000000000e+00  -2.6463740893477247e-02 1.4948999453580774e+00 0.0000000000000000e+00  2.5616166767273667e-02 1.8082160547342279e+00 0.00000000