<?xml version="1.0"?>
<VTKFile type="UnstructuredGrid"  version="0.1"  >
<UnstructuredGrid>
<Piece  NumberOfPoints="1091" NumberOfCells="2050">
<Points>
<DataArray  type="Float64"  NumberOfComponents="3"  format="ascii">-0.5 -1 0  -0.4 -1 0  -0.3 -1 0  -0.2 -1 0  -0.09999999999999998 -1 0  0 -1 0  0.09999999999999998 -1 0  0.2 -1 0  0.3 -1 0  0.4 -1 0  0.5 -1 0  -0.5 -0.98 0  -0.4 -0.98 0  -0.3 -0.98 0  -0.2 -0.98 0  -0.09999999999999998 -0.98 0  0 -0.98 0  0.09999999999999998 -0.98 0  0.2 -0.98 0  0.3 -0.98 0  0.4 -0.98 0  0.5 -0.98 0  -0.5 -0.96 0  -0.4 -0.96 0  -0.3 -0.96 0  -0.2 -0.96 0  -0.09999999999999998 -0.96 0  0 -0.96 0  0.09999999999999998 -0.96 0  0.2 -0.96 0  0.3 -0.96 0  0.4 -0.96 0  0.5 -0.96 0  -0.5 -0.9399999999999999 0  -0.4 -0.9399999999999999 0  -0.3 -0.9399999999999999 0  -0.2 -0.9399999999999999 0  -0.09999999999999998 -0.9399999999999999 0  0 -0.9399999999999999 0  0.09999999999999998 -0.9399999999999999 0  0.2 -0.9399999999999999 0  0.3 -0.9399999999999999 0  0.4 -0.9399999999999999 0  0.5 -0.9399999999999999 0  -0.5 -0.92 0  -0.4 -0.92 0  -0.3 -0.92 0  -0.2 -0.92 0  -0.09999999999999998 -0.92 0  0 -0.92 0  0.09999999999999998 -0.92 0  0.2 -0.92 0  0.3 -0.92 0  0.4 -0.92 0  0.5 -0.92 0  -0.5 -0.9 0  -0.4 -0.9 0  -0.3 -0.9 0  -0.2 -0.9 0  -0.09999999999999998 -0.9 0  0 -0.9 0  0.09999999999999998 -0.9 0  0.2 -0.9 0  0.3 -0.9 0  0.4 -0.9 0  0.5 -0.9 0  -0.5 -0.88 0  -0.4 -0.88 0  -0.3 -0.88 0  -0.2 -0.88 0  -0.09999999999999998 -0.88 0  0 -0.88 0  0.09999999999999998 -0.88 0  0.2 -0.88 0  0.3 -0.88 0  0.4 -0.88 0  0.5 -0.88 0  -0.5 -0.86 0  -0.4 -0.86 0  -0.3 -0.86 0  -0.2 -0.86 0  -0.09999999999999998 -0.86 0  0 -0.86 0  0.09999999999999998 -0.86 0  0.2 -0.86 0  0.3 -0.86 0  0.4 -0.86 0  0.5 -0.86 0  -0.5 -0.84 0  -0.4 -0.84 0  -0.3 -0.84 0  -0.2 -0.84 0  -0.09999999999999998 -0.84 0  0 -0.84 0  0.09999999999999998 -0.84 0  0.2 -0.84 0  0.3 -0.84 0  0.4 -0.84 0  0.5 -0.84 0  -0.5 -0.8200000000000001 0  -0.4 -0.8200000000000001 0  -0.3 -0.8200000000000001 0  -0.2 -0.8200000000000001 0  -0.09999999999999998 -0.8200000000000001 0  0 -0.8200000000000001 0  0.09999999999999998 -0.8200000000000001 0  0.2 -0.8200000000000001 0  0.3 -0.8200000000000001 0  0.4 -0.8200000000000001 0  0.5 -0.8200000000000001 0  -0.5 -0.8 0  -0.4 -0.8 0  -0.3 -0.8 0  -0.2 -0.8 0  -0.09999999999999998 -0.8 0  0 -0.8 0  0.09999999999999998 -0.8 0  0.2 -0.8 0  0.3 -0.8 0  0.4 -0.8 0  0.5 -0.8 0  -0.5 -0.78 0  -0.4 -0.78 0  -0.3 -0.78 0  -0.2 -0.78 0  -0.09999999999999998 -0.78 0  0 -0.78 0  0.09999999999999998 -0.78 0  0.2 -0.78 0  0.3 -0.78 0  0.4 -0.78 0  0.5 -0.78 0  -0.5 -0.76 0  -0.4 -0.76 0  -0.3 -0.76 0  -0.2 -0.76 0  -0.09999999999999998 -0.76 0  0 -0.76 0  0.09999999999999998 -0.76 0  0.2 -0.76 0  0.3 -0.76 0  0.4 -0.76 0  0.5 -0.76 0  -0.5 -0.74 0  -0.4 -0.74 0  -0.3 -0.74 0  -0.2 -0.74 0  -0.09999999999999998 -0.74 0  0 -0.74 0  0.09999999999999998 -0.74 0  0.2 -0.74 0  0.3 -0.74 0  0.4 -0.74 0  0.5 -0.74 0  -0.5 -0.72 0  -0.4 -0.72 0  -0.3 -0.72 0  -0.2 -0.72 0  -0.09999999999999998 -0.72 0  0 -0.72 0  0.09999999999999998 -0.72 0  0.2 -0.72 0  0.3 -0.72 0  0.4 -0.72 0  0.5 -0.72 0  -0.5 -0.7 0  -0.4 -0.7 0  -0.3 -0.7 0  -0.2 -0.7 0  -0.09999999999999998 -0.7 0  0 -0.7 0  0.09999999999999998 -0.7 0  0.2 -0.7 0  0.3 -0.7 0  0.4 -0.7 0  0.5 -0.7 0  -0.5 -0.6799999999999999 0  -0.4 -0.6799999999999999 0  -0.3 -0.6799999999999999 0  -0.2 -0.6799999999999999 0  -0.09999999999999998 -0.6799999999999999 0  0 -0.6799999999999999 0  0.09999999999999998 -0.6799999999999999 0  0.2 -0.6799999999999999 0  0.3 -0.6799999999999999 0  0.4 -0.6799999999999999 0  0.5 -0.6799999999999999 0  -0.5 -0.6599999999999999 0  -0.4 -0.6599999999999999 0  -0.3 -0.6599999999999999 0  -0.2 -0.6599999999999999 0  -0.09999999999999998 -0.6599999999999999 0  0 -0.6599999999999999 0  0.09999999999999998 -0.6599999999999999 0  0.2 -0.6599999999999999 0  0.3 -0.6599999999999999 0  0.4 -0.6599999999999999 0  0.5 -0.6599999999999999 0  -0.5 -0.64 0  -0.4 -0.64 0  -0.3 -0.64 0  -0.2 -0.64 0  -0.09999999999999998 -0.64 0  0 -0.64 0  0.09999999999999998 -0.64 0  0.2 -0.64 0  0.3 -0.64 0  0.4 -0.64 0  0.5 -0.64 0  -0.5 -0.62 0  -0.4 -0.62 0  -0.3 -0.62 0  -0.2 -0.62 0  -0.09999999999999998 -0.62 0  0 -0.62 0  0.09999999999999998 -0.62 0  0.2 -0.62 0  0.3 -0.62 0  0.4 -0.62 0  0.5 -0.62 0  -0.5 -0.6 0  -0.4 -0.6 0  -0.3 -0.6 0  -0.2 -0.6 0  -0.09999999999999998 -0.6 0  0 -0.6 0  0.09999999999999998 -0.6 0  0.2 -0.6 0  0.3 -0.6 0  0.4 -0.6 0  0.5 -0.6 0  -0.5 -0.5800000000000001 0  -0.4 -0.5800000000000001 0  -0.3 -0.5800000000000001 0  -0.2 -0.5800000000000001 0  -0.09999999999999998 -0.5800000000000001 0  0 -0.5800000000000001 0  0.09999999999999998 -0.5800000000000001 0  0.2 -0.5800000000000001 0  0.3 -0.5800000000000001 0  0.4 -0.5800000000000001 0  0.5 -0.5800000000000001 0  -0.5 -0.5600000000000001 0  -0.4 -0.5600000000000001 0  -0.3 -0.5600000000000001 0  -0.2 -0.5600000000000001 0  -0.09999999999999998 -0.5600000000000001 0  0 -0.5600000000000001 0  0.09999999999999998 -0.5600000000000001 0  0.2 -0.5600000000000001 0  0.3 -0.5600000000000001 0  0.4 -0.5600000000000001 0  0.5 -0.5600000000000001 0  -0.5 -0.54 0  -0.4 -0.54 0  -0.3 -0.54 0  -0.2 -0.54 0  -0.09999999999999998 -0.54 0  0 -0.54 0  0.09999999999999998 -0.54 0  0.2 -0.54 0  0.3 -0.54 0  0.4 -0.54 0  0.5 -0.54 0  -0.5 -0.52 0  -0.4 -0.52 0  -0.3 -0.52 0  -0.2 -0.52 0  -0.09999999999999998 -0.52 0  0 -0.52 0  0.09999999999999998 -0.52 0  0.2 -0.52 0  0.3 -0.52 0  0.4 -0.52 0  0.5 -0.52 0  -0.5 -0.5 0  -0.4 -0.5 0  -0.3 -0.5 0  -0.2 -0.5 0  -0.09999999999999998 -0.5 0  0 -0.5 0  0.09999999999999998 -0.5 0  0.2 -0.5 0  0.3 -0.5 0  0.4 -0.5 0  0.5 -0.5 0  -0.5 -0.48 0  -0.4 -0.48 0  -0.3 -0.48 0  -0.2 -0.48 0  -0.09999999999999998 -0.48 0  0 -0.48 0  0.09999999999999998 -0.48 0  0.2 -0.48 0  0.3 -0.48 0  0.4 -0.48 0  0.5 -0.48 0  -0.5 -0.46 0  -0.4 -0.46 0  -0.3 -0.46 0  -0.2 -0.46 0  -0.09999999999999998 -0.46 0  0 -0.46 0  0.09999999999999998 -0.46 0  0.2 -0.46 0  0.3 -0.46 0  0.4 -0.46 0  0.5 -0.46 0  -0.5 -0.4399999999999999 0  -0.4 -0.4399999999999999 0  -0.3 -0.4399999999999999 0  -0.2 -0.4399999999999999 0  -0.09999999999999998 -0.4399999999999999 0  0 -0.4399999999999999 0  0.09999999999999998 -0.4399999999999999 0  0.2 -0.4399999999999999 0  0.3 -0.4399999999999999 0  0.4 -0.4399999999999999 0  0.5 -0.4399999999999999 0  -0.5 -0.42 0  -0.4 -0.42 0  -0.3 -0.42 0  -0.2 -0.42 0  -0.09999999999999998 -0.42 0  0 -0.42 0  0.09999999999999998 -0.42 0  0.2 -0.42 0  0.3 -0.42 0  0.4 -0.42 0  0.5 -0.42 0  -0.5 -0.4 0  -0.4 -0.4 0  -0.3 -0.4 0  -0.2 -0.4 0  -0.09999999999999998 -0.4 0  0 -0.4 0  0.09999999999999998 -0.4 0  0.2 -0.4 0  0.3 -0.4 0  0.4 -0.4 0  0.5 -0.4 0  -0.5 -0.38 0  -0.4 -0.38 0  -0.3 -0.38 0  -0.2 -0.38 0  -0.09999999999999998 -0.38 0  0 -0.38 0  0.09999999999999998 -0.38 0  0.2 -0.38 0  0.3 -0.38 0  0.4 -0.38 0  0.5 -0.38 0  -0.5 -0.36 0  -0.4 -0.36 0  -0.3 -0.36 0  -0.2 -0.36 0  -0.09999999999999998 -0.36 0  0 -0.36 0  0.09999999999999998 -0.36 0  0.2 -0.36 0  0.3 -0.36 0  0.4 -0.36 0  0.5 -0.36 0  -0.5 -0.34 0  -0.4 -0.34 0  -0.3 -0.34 0  -0.2 -0.34 0  -0.09999999999999998 -0.34 0  0 -0.34 0  0.09999999999999998 -0.34 0  0.2 -0.34 0  0.3 -0.34 0  0.4 -0.34 0  0.5 -0.34 0  -0.5 -0.32 0  -0.4 -0.32 0  -0.3 -0.32 0  -0.2 -0.32 0  -0.09999999999999998 -0.32 0  0 -0.32 0  0.09999999999999998 -0.32 0  0.2 -0.32 0  0.3 -0.32 0  0.4 -0.32 0  0.5 -0.32 0  -0.5 -0.3 0  -0.4 -0.3 0  -0.3 -0.3 0  -0.2 -0.3 0  -0.09999999999999998 -0.3 0  0 -0.3 0  0.09999999999999998 -0.3 0  0.2 -0.3 0  0.3 -0.3 0  0.4 -0.3 0  0.5 -0.3 0  -0.5 -0.28 0  -0.4 -0.28 0  -0.3 -0.28 0  -0.2 -0.28 0  -0.09999999999999998 -0.28 0  0 -0.28 0  0.09999999999999998 -0.28 0  0.2 -0.28 0  0.3 -0.28 0  0.4 -0.28 0  0.5 -0.28 0  -0.5 -0.26 0  -0.4 -0.26 0  -0.3 -0.26 0  -0.2 -0.26 0  -0.09999999999999998 -0.26 0  0 -0.26 0  0.09999999999999998 -0.26 0  0.2 -0.26 0  0.3 -0.26 0  0.4 -0.26 0  0.5 -0.26 0  -0.5 -0.24 0  -0.4 -0.24 0  -0.3 -0.24 0  -0.2 -0.24 0  -0.09999999999999998 -0.24 0  0 -0.24 0  0.09999999999999998 -0.24 0  0.2 -0.24 0  0.3 -0.24 0  0.4 -0.24 0  0.5 -0.24 0  -0.5 -0.22 0  -0.4 -0.22 0  -0.3 -0.22 0  -0.2 -0.22 0  -0.09999999999999998 -0.22 0  0 -0.22 0  0.09999999999999998 -0.22 0  0.2 -0.22 0  0.3 -0.22 0  0.4 -0.22 0  0.5 -0.22 0  -0.5 -0.2 0  -0.4 -0.2 0  -0.3 -0.2 0  -0.2 -0.2 0  -0.09999999999999998 -0.2 0  0 -0.2 0  0.09999999999999998 -0.2 0  0.2 -0.2 0  0.3 -0.2 0  0.4 -0.2 0  0.5 -0.2 0  -0.5 -0.18 0  -0.4 -0.18 0  -0.3 -0.18 0  -0.2 -0.18 0  -0.09999999999999998 -0.18 0  0 -0.18 0  0.09999999999999998 -0.18 0  0.2 -0.18 0  0.3 -0.18 0  0.4 -0.18 0  0.5 -0.18 0  -0.5 -0.16 0  -0.4 -0.16 0  -0.3 -0.16 0  -0.2 -0.16 0  -0.09999999999999998 -0.16 0  0 -0.16 0  0.09999999999999998 -0.16 0  0.2 -0.16 0  0.3 -0.16 0  0.4 -0.16 0  0.5 -0.16 0  -0.5 -0.14 0  -0.4 -0.14 0  -0.3 -0.14 0  -0.2 -0.14 0  -0.09999999999999998 -0.14 0  0 -0.14 0  0.09999999999999998 -0.14 0  0.2 -0.14 0  0.3 -0.14 0  0.4 -0.14 0  0.5 -0.14 0  -0.5 -0.12 0  -0.4 -0.12 0  -0.3 -0.12 0  -0.2 -0.12 0  -0.09999999999999998 -0.12 0  0 -0.12 0  0.09999999999999998 -0.12 0  0.2 -0.12 0  0.3 -0.12 0  0.4 -0.12 0  0.5 -0.12 0  -0.5 -0.09999999999999998 0  -0.4 -0.09999999999999998 0  -0.3 -0.09999999999999998 0  -0.2 -0.09999999999999998 0  -0.09999999999999998 -0.09999999999999998 0  0 -0.09999999999999998 0  0.09999999999999998 -0.09999999999999998 0  0.2 -0.09999999999999998 0  0.3 -0.09999999999999998 0  0.4 -0.09999999999999998 0  0.5 -0.09999999999999998 0  -0.5 -0.07999999999999996 0  -0.4 -0.07999999999999996 0  -0.3 -0.07999999999999996 0  -0.2 -0.07999999999999996 0  -0.09999999999999998 -0.07999999999999996 0  0 -0.07999999999999996 0  0.09999999999999998 -0.07999999999999996 0  0.2 -0.07999999999999996 0  0.3 -0.07999999999999996 0  0.4 -0.07999999999999996 0  0.5 -0.07999999999999996 0  -0.5 -0.06000000000000005 0  -0.4 -0.06000000000000005 0  -0.3 -0.06000000000000005 0  -0.2 -0.06000000000000005 0  -0.09999999
[...]
<PointData  Vectors="flow"> 
<DataArray  type="Float64"  Name="flow"  NumberOfComponents="3" format="ascii">-8.9799541148835496e-04 2.5146108876475167e-03 0.0000000000000000e+00  2.7318133670693879e-08 2.5146108876477630e-03 0.0000000000000000e+00  -7.4293226632110928e-13 2.5146108876687554e-03 0.0000000000000000e+00  3.4297973542536810e-16 2.5146108876478277e-03 0.0000000000000000e+00  7.9553705795159238e-15 2.5146108876540505e-03 0.0000000000000000e+00  4.2584749142732483e-15 2.5146108876456788e-03 0.0000000000000000e+00  -3.5712677981853836e-14 2.5146108876638196e-03 0.0000000000000000e+00  -4.1791184095581435e-14 2.5146108876637771e-03 0.0000000000000000e+00  6.9169966257033042e-13 2.5146108876517017e-03 0.0000000000000000e+00  -2.7318175100154403e-08 2.5146108876366144e-03 0.0000000000000000e+00  8.9799541145853582e-04 2.5146108876465006e-03 0.0000000000000000e+00  -8.9755834477044192e-04 1.4007405658595595e-02 0.0000000000000000e+00  2.7306329488829314e-08 1.4007405658582510e-02 0.0000000000000000e+00  -7.4483026228089732e-13 1.4007405658576800e-02 0.0000000000000000e+00  1.9469955335142818e-15 1.4007405658551651e-02 0.0000000000000000e+00  9.1738104495922179e-15 1.4007405658578836e-02 0.0000000000000000e+00  1.1106080982821058e-15 1.4007405658575530e-02 0.0000000000000000e+00  -3.5095414166129401e-14 1.4007405658561428e-02 0.0000000000000000e+00  -4.0626135942152238e-14 1.4007405658566412e-02 0.0000000000000000e+00  6.9045080783859614e-13 1.4007405658577199e-02 0.0000000000000000e+00  -2.7306374614044809e-08 1.4007405658559650e-02 0.0000000000000000e+00  8.9755834474295631e-04 1.4007405658553483e-02 0.0000000000000000e+00  -8.9624752234256750e-04 2.8001175978709061e-02 0.0000000000000000e+00  2.7270913865445963e-08 2.8001175978694951e-02 0.0000000000000000e+00  -7.4775903895570842e-13 2.8001175978702386e-02 0.0000000000000000e+00  1.5096060370837881e-15 2.8001175978689157e-02 0.0000000000000000e+00  1.1514399137280272e-14 2.8001175978712500e-02 0.0000000000000000e+00  -2.3511856418084580e-15 2.8001175978692974e-02 0.0000000000000000e+00  -3.6314297022063381e-14 2.8001175978692176e-02 0.0000000000000000e+00  -3.8874032519200293e-14 2.8001175978663306e-02 0.0000000000000000e+00  6.9356926728021286e-13 2.8001175978686243e-02 0.0000000000000000e+00  -2.7270962019510435e-08 2.8001175978681889e-02 0.0000000000000000e+00  8.9624752231718481e-04 2.8001175978693161e-02 0.0000000000000000e+00  -8.9406407748247895e-04 4.1967687407202546e-02 0.0000000000000000e+00  2.7211878711491562e-08 4.1967687407201450e-02 0.0000000000000000e+00  -7.4884630348510748e-13 4.1967687407158769e-02 0.0000000000000000e+00  3.5294173350059568e-15 4.1967687407189903e-02 0.0000000000000000e+00  1.2730691420874294e-14 4.1967687407176511e-02 0.0000000000000000e+00  -3.9711707133829535e-15 4.1967687407199035e-02 0.0000000000000000e+00  -3.8584823890797033e-14 4.1967687407185962e-02 0.0000000000000000e+00  -4.4248261807268714e-14 4.1967687407147583e-02 0.0000000000000000e+00  6.9590390036766807e-13 4.1967687407176830e-02 0.0000000000000000e+00  -2.7211928246875766e-08 4.1967687407152475e-02 0.0000000000000000e+00  8.9406407745254478e-04 4.1967687407149928e-02 0.0000000000000000e+00  -8.9100989929885848e-04 5.5893339964598117e-02 0.0000000000000000e+00  2.7129201475426112e-08 5.5893339964588729e-02 0.0000000000000000e+00  -7.5131871460342320e-13 5.5893339964564602e-02 0.0000000000000000e+00  4.3159417519803921e-15 5.5893339964577786e-02 0.0000000000000000e+00  1.5169414476722492e-14 5.5893339964551890e-02 0.0000000000000000e+00  -1.4447011124805615e-15 5.5893339964635226e-02 0.0000000000000000e+00  -4.6482563165097197e-14 5.5893339964557587e-02 0.0000000000000000e+00  -3.9599281267531018e-14 5.5893339964576953e-02 0.0000000000000000e+00  6.9374297900871287e-13 5.5893339964556650e-02 0.0000000000000000e+00  -2.7129264415665261e-08 5.5893339964527763e-02 0.0000000000000000e+00  8.9100989927186618e-04 5.5893339964522108e-02 0.0000000000000000e+00  -8.8708763328058601e-04 6.9764569039915222e-02 0.0000000000000000e+00  2.7022876538083867e-08 6.9764569039913002e-02 0.0000000000000000e+00  -7.5031556247190347e-13 6.9764569039916055e-02 0.0000000000000000e+00  1.9784092549119965e-15 6.9764569039937024e-02 0.0000000000000000e+00  2.2226604043668812e-14 6.9764569039960700e-02 0.0000000000000000e+00  -3.6767103551981158e-15 6.9764569039919316e-02 0.0000000000000000e+00  -5.2884546742412680e-14 6.9764569039918997e-02 0.0000000000000000e+00  -4.2608529693909789e-14 6.9764569039893407e-02 0.0000000000000000e+00  6.8835274150186502e-13 6.9764569039871382e-02 0.0000000000000000e+00  -2.7022935072176275e-08 6.9764569039874672e-02 0.0000000000000000e+00  8.8708763325427665e-04 6.9764569039895558e-02 0.0000000000000000e+00  -8.8230068189179859e-04 8.3567857194549872e-02 0.0000000000000000e+00  2.6892867709450195e-08 8.3567857194596210e-02 0.0000000000000000e+00  -7.5208863569743764e-13 8.3567857194529777e-02 0.0000000000000000e+00  1.4802747227049168e-14 8.3567857194561834e-02 0.0000000000000000e+00  1.1296479010886442e-14 8.3567857194621467e-02 0.0000000000000000e+00  -7.7163382074390425e-15 8.3567857194526474e-02 0.0000000000000000e+00  -4.8204249334019255e-14 8.3567857194578946e-02 0.0000000000000000e+00  -4.8791925861764628e-14 8.3567857194557144e-02 0.0000000000000000e+00  6.9155416418891934e-13 8.3567857194558115e-02 0.0000000000000000e+00  -2.6892930378563547e-08 8.3567857194572576e-02 0.0000000000000000e+00  8.8230068187163644e-04 8.3567857194546999e-02 0.0000000000000000e+00  -8.7665320544224982e-04 9.7289745977383713e-02 0.0000000000000000e+00  2.6739149689360421e-08 9.7289745977385794e-02 0.0000000000000000e+00  -7.5560675740318610e-13 9.7289745977410719e-02 0.0000000000000000e+00  2.2782165549647554e-14 9.7289745977422737e-02 0.0000000000000000e+00  1.0432354177243455e-14 9.7289745977447689e-02 0.0000000000000000e+00  -1.3450759262999681e-14 9.7289745977391817e-02 0.0000000000000000e+00  -4.8871502844613131e-14 9.7289745977403849e-02 0.0000000000000000e+00  -5.0112561768498683e-14 9.7289745977378939e-02 0.0000000000000000e+00  6.9550019617698561e-13 9.7289745977357456e-02 0.0000000000000000e+00  -2.6739212874119589e-08 9.7289745977376690e-02 0.0000000000000000e+00  8.7665320541128902e-04 9.7289745977341593e-02 0.0000000000000000e+00  -8.7015012293298441e-04 1.1091684775360419e-01 0.0000000000000000e+00  2.6561696781693453e-08 1.1091684775354452e-01 0.0000000000000000e+00  -7.5034028215044675e-13 1.1091684775358968e-01 0.0000000000000000e+00  2.0092104770014412e-14 1.1091684775355186e-01 0.0000000000000000e+00  9.0271191769823088e-15 1.1091684775359001e-01 0.0000000000000000e+00  -1.3310239280709420e-14 1.1091684775355201e-01 0.0000000000000000e+00  -5.1357325252604152e-14 1.1091684775361493e-01 0.0000000000000000e+00  -5.7171148680837138e-14 1.1091684775351782e-01 0.0000000000000000e+00  6.9134834553541991e-13 1.1091684775349900e-01 0.0000000000000000e+00  -2.6561760898803782e-08 1.1091684775349862e-01 0.0000000000000000e+00  8.7015012288927762e-04 1.1091684775346193e-01 0.0000000000000000e+00  -8.6279711301388070e-04 1.2443585754752917e-01 0.0000000000000000e+00  2.6360467661236951e-08 1.2443585754745509e-01 0.0000000000000000e+00  -7.5024388310445145e-13 1.2443585754749953e-01 0.0000000000000000e+00  2.1785093280119365e-14 1.2443585754747880e-01 0.0000000000000000e+00  8.1892549460407081e-15 1.2443585754751928e-01 0.0000000000000000e+00  -1.0715864901311234e-14 1.2443585754747824e-01 0.0000000000000000e+00  -5.7241099990456621e-14 1.2443585754746893e-01 0.0000000000000000e+00  -6.8619293184051949e-14 1.2443585754745777e-01 0.0000000000000000e+00  6.9377498932087720e-13 1.2443585754744599e-01 0.0000000000000000e+00  -2.6360538666952825e-08 1.2443585754745186e-01 0.0000000000000000e+00  8.6279711294760114e-04 1.2443585754742058e-01 0.0000000000000000e+00  -8.5460061495522342e-04 1.3783356490135992e-01 0.0000000000000000e+00  2.6135443679806311e-08 1.3783356490134968e-01 0.0000000000000000e+00  -7.5291493180248313e-13 1.3783356490139645e-01 0.0000000000000000e+00  2.2519395793767841e-14 1.3783356490133761e-01 0.0000000000000000e+00  1.3379218404424887e-14 1.3783356490136039e-01 0.0000000000000000e+00  -2.1843656459232394e-14 1.3783356490136411e-01 0.0000000000000000e+00  -5.6949974080448620e-14 1.3783356490130325e-01 0.0000000000000000e+00  -6.3012429623916564e-14 1.3783356490133206e-01 0.0000000000000000e+00  6.9043256683530154e-13 1.3783356490130119e-01 0.0000000000000000e+00  -2.6135512807410496e-08 1.3783356490131354e-01 0.0000000000000000e+00  8.5460061487801055e-04 1.3783356490133494e-01 0.0000000000000000e+00  -8.4556782952823980e-04 1.5109686574777390e-01 0.0000000000000000e+00  2.5886607803830789e-08 1.5109686574775094e-01 0.0000000000000000e+00  -7.5297183858003698e-13 1.5109686574783407e-01 0.0000000000000000e+00  1.5248885175064252e-14 1.5109686574776471e-01 0.0000000000000000e+00  1.5492781351036921e-14 1.5109686574777306e-01 0.0000000000000000e+00  -2.4916273333328990e-14 1.5109686574775161e-01 0.0000000000000000e+00  -6.1388240553016163e-14 1.5109686574775613e-01 0.0000000000000000e+00  -6.7106985765512677e-14 1.5109686574775533e-01 0.0000000000000000e+00  6.8875940905471899e-13 1.5109686574773529e-01 0.0000000000000000e+00  -2.5886669902959227e-08 1.5109686574768214e-01 0.0000000000000000e+00  8.4556782946551697e-04 1.5109686574767112e-01 0.0000000000000000e+00  -8.3570671985172811e-04 1.6421277429585851e-01 0.0000000000000000e+00  2.5613925319942724e-08 1.6421277429584777e-01 0.0000000000000000e+00  -7.5098409149010009e-13 1.6421277429587033e-01 0.0000000000000000e+00  7.3490230491048834e-15 1.6421277429588577e-01 0.0000000000000000e+00  1.2843459124723490e-14 1.6421277429581510e-01 0.0000000000000000e+00  -2.6804796750974760e-14 1.6421277429584685e-01 0.0000000000000000e+00  -5.7173555080552362e-14 1.6421277429580050e-01 0.0000000000000000e+00  -7.1153290786248380e-14 1.6421277429583558e-01 0.0000000000000000e+00  6.8198470552690003e-13 1.6421277429580550e-01 0.0000000000000000e+00  -2.5613989274112273e-08 1.6421277429582723e-01 0.0000000000000000e+00  8.3570671977994764e-04 1.6421277429580250e-01 0.0000000000000000e+00  -8.2502601185750139e-04 1.7716843492812132e-01 0.0000000000000000e+00  2.5317381730582060e-08 1.7716843492810758e-01 0.0000000000000000e+00  -7.4174924271052348e-13 1.7716843492809398e-01 0.0000000000000000e+00  6.6963810561237552e-15 1.7716843492819664e-01 0.0000000000000000e+00  6.9627718485724030e-15 1.7716843492814677e-01 0.0000000000000000e+00  -3.2717823468167401e-14 1.7716843492814890e-01 0.0000000000000000e+00  -6.2306832390787156e-14 1.7716843492805689e-01 0.0000000000000000e+00  -6.1085313638121968e-14 1.7716843492808390e-01 0.0000000000000000e+00  6.8614476238451325e-13 1.7716843492817044e-01 0.0000000000000000e+00  -2.5317454057159957e-08 1.7716843492813489e-01 0.0000000000000000e+00  8.2502601177100970e-04 1.7716843492810957e-01 0.0000000000000000e+00  -8.1353519472752100e-04 1.8995113410473086e-01 0.0000000000000000e+00  2.4997000346928432e-08 1.8995113410477840e-01 0.0000000000000000e+00  -7.3406262215751237e-13 1.8995113410477091e-01 0.0000000000000000e+00  1.2889123365515843e-14 1.8995113410473224e-01 0.0000000000000000e+00  1.8219571895301346e-15 1.8995113410476128e-01 0.0000000000000000e+00  -3.4935973781205610e-14 1.8995113410474165e-01 0.0000000000000000e+00  -6.7051747955086718e-14 1.8995113410480685e-01 0.0000000000000000e+00  -5.4424025981096107e-14 1.8995113410475223e-01 0.0000000000000000e+00  6.8607023714192042e-13 1.8995113410472891e-01 0.0000000000000000e+00  -2.4997075175930245e-08 1.8995113410475037e-01 0.0000000000000000e+00  8.1353519464149855e-04 1.8995113410476461e-01 0.0000000000000000e+00  -8.0124452073187407e-04 2.0254831226975795e-01 0.0000000000000000e+00  2.4652779750818390e-08 2.0254831226976913e-01 0.0000000000000000e+00  -7.4933265767273956e-13 2.0254831226971937e-01 0.0000000000000000e+00  1.2976391538803219e-14 2.0254831226970588e-01 0.0000000000000000e+00  7.3276953204564889e-15 2.0254831226978876e-01 0.0000000000000000e+00  -2.8310209347909064e-14 2.0254831226975886e-01 0.0000000000000000e+00  -6.6989736832768004e-14 2.0254831226971437e-01 0.0000000000000000e+00  -7.5555726558285781e-14 2.0254831226964104e-01 0.0000000000000000e+00  6.9171399703957670e-13 2.0254831226962611e-01 0.0000000000000000e+00  -2.4652836977556592e-08 2.0254831226978062e-01 0.0000000000000000e+00  8.0124452065322746e-04 2.0254831226975892e-01 0.0000000000000000e+00  -7.8816500493248624e-04 2.1494757575394399e-01 0.0000000000000000e+00  2.4284754568420335e-08 2.1494757575402834e-01 0.0000000000000000e+00  -7.4542544004556784e-13 2.1494757575398399e-01 0.0000000000000000e+00  2.5496295766514410e-14 2.1494757575404835e-01 0.0000000000000000e+00  6.2230520742356763e-15 2.1494757575410858e-01 0.0000000000000000e+00  -4.9136930794770354e-14 2.1494757575398152e-01 0.0000000000000000e+00  -8.3539672491655009e-14 2.1494757575391218e-01 0.0000000000000000e+00  -6.9006821455557907e-14 2.1494757575392326e-01 0.0000000000000000e+00  7.1057158080433976e-13 2.1494757575402043e-01 0.0000000000000000e+00  -2.4284809402096824e-08 2.1494757575398174e-01 0.0000000000000000e+00  7.8816500484234914e-04 2.1494757575397869e-01 0.0000000000000000e+00  -7.7430842401321823e-04 2.2713670866680477e-01 0.0000000000000000e+00  2.3892975830087719e-08 2.2713670866682625e-01 0.0000000000000000e+00  -7.4225687729933968e-13 2.2713670866683355e-01 0.0000000000000000e+00  3.9613217223209281e-14 2.2713670866686156e-01 0.0000000000000000e+00  -2.0285485292635006e-15 2.2713670866692018e-01 0.0000000000000000e+00  -6.1122160453150366e-14 2.2713670866684779e-01 0.0000000000000000e+00  -8.1841075675851239e-14 2.2713670866695959e-01 0.0000000000000000e+00  -6.4023594497963572e-14 2.2713670866683441e-01 0.0000000000000000e+00  7.0134082418720628e-13 2.2713670866682784e-01 0.0000000000000000e+00  -2.3893033053562610e-08 2.2713670866675248e-01 0.0000000000000000e+00  7.7430842396136376e-04 2.2713670866691099e-01 0.0000000000000000e+00  -7.5968731489590947e-04 2.3910368476854721e-01 0.0000000000000000e+00  2.3477510749448312e-08 2.3910368476852947e-01 0.0000000000000000e+00  -7.3819768116869871e-13 2.3910368476855376e-01 0.0000000000000000e+00  4.0261114805842984e-14 2.3910368476847096e-01 0.0000000000000000e+00  5.0115138265375390e-15 2.3910368476852237e-01 0.0000000000000000e+00  -4.7100472602948635e-14 2.3910368476853558e-01 0.0000000000000000e+00  -8.8478330844303491e-14 2.3910368476860208e-01 0.0000000000000000e+00  -8.9735241101202041e-14 2.3910368476851260e-01 0.0000000000000000e+00  6.9051440219144668e-13 2.3910368476844376e-01 0.0000000000000000e+00  -2.3477552397922843e-08 2.3910368476843977e-01 0.0000000000000000e+00  7.5968731487115713e-04 2.3910368476850463e-01 0.0000000000000000e+00  -7.4431497225302314e-04 2.5083667931179943e-01 0.0000000000000000e+00  2.3038458539988313e-08 2.5083667931163139e-01 0.0000000000000000e+00  -7.3744385989574831e-13 2.5083667931167186e-01 0.0000000000000000e+00  2.9100104109190483e-14 2.5083667931169368e-01 0.0000000000000000e+00  4.9615103458399132e-15 2.5083667931167403e-01 0.0000000000000000e+00  -4.1986248486918259e-14 2.5083667931171205e-01 0.0000000000000000e+00  -8.0996760315939296e-14 2.5083667931168524e-01 0.0000000000000000e+00  -8.9314666776794495e-14 2.5083667931176540e-01 0.0000000000000000e+00  6.7409577470067433e-13 2.5083667931168957e-01 0.0000000000000000e+00  -2.3038497418806544e-08 2.5083667931169329e-01 0.0000000000000000e+00  7.4431497224107480e-04 2.5083667931169018e-01 0.0000000000000000e+00  -7.2820544573902002e-04 2.6232408084292419e-01 0.0000000000000000e+00  2.2575903894906034e-08 2.6232408084274800e-01 0.0000000000000000e+00  -7.1811285856705092e-13 2.6232408084274622e-01 0.0000000000000000e+00  4.7455866922447640e-14 2.6232408084280090e-01 0.0000000000000000e+00  2.0221644542208626e-14 2.6232408084288950e-01 0.0000000000000000e+00  -5.1403957670810737e-14 2.6232408084298009e-01 0.0000000000000000e+00  -8.8796203378849484e-14 2.6232408084288811e-01 0.0000000000000000e+00  -9.0274582137626477e-14 2.6232408084277264e-01 0.0000000000000000e+00  6.6995501767174903e-13 2.6232408084281111e-01 0.0000000000000000e+00  -2.2575964631731246e-08 2.6232408084295977e-01 0.0000000000000000e+00  7.2820544566077423e-04 2.6232408084295045e-01 0.0000000000000000e+00  -7.1137353564457476e-04 2.7355450294880157e-01 0.0000000000000000e+00  2.2090060757666800e-08 2.7355450294882289e-01 0.0000000000000000e+00  -7.2017664666246462e-13 2.7355450294879713e-01 0.0000000000000000e+00  4.4994660730132748e-14 2.7355450294872274e-01 0.0000000000000000e+00  3.7421617307929670e-14 2.7355450294861772e-01 0.0000000000000000e+00  -3.4110541351283443e-14 2.7355450294884931e-01 0.0000000000000000e+00  -1.0921412850153055e-13 2.7355450294877687e-01 0.0000000000000000e+00  -1.1001008332200649e-13 2.7355450294883216e-01 0.0000000000000000e+00  6.9236151304432145e-13 2.7355450294873651e-01 0.0000000000000000e+00  -2.2090113667609340e-08 2.7355450294883815e-01 0.0000000000000000e+00  7.1137353553092002e-04 2.7355450294871680e-01 0.0000000000000000e+00  -6.9383478851107539e-04 2.8451679593509754e-01 0.0000000000000000e+00  2.1581094441599929e-08 2.8451679593512358e-01 0.0000000000000000e+00  -7.2450614959875723e-13 2.8451679593507911e-01 0.0000000000000000e+00  1.9890864670391785e-14 2.8451679593499607e-01 0.0000000000000000e+00  4.1281154328312987e-14 2.8451679593490820e-01 0.0000000000000000e+00  -2.7252821504383231e-14 2.8451679593505180e-01 0.0000000000000000e+00  -9.7922237294561453e-14 2.8451679593492729e-01 0.0000000000000000e+00  -9.2904541983122797e-14 2.8451679593512408e-01 0.0000000000000000e+00  6.6986082353931688e-13 2.8451679593505441e-01 0.0000000000000000e+00  -2.1581155498012111e-08 2.8451679593496704e-01 0.0000000000000000e+00  6.9383478839247267e-04 2.8451679593492746e-01 0.0000000000000000e+00  -6.7560549098091046e-04 2.9520005842075531e-01 0.0000000000000000e+00  2.1049202667282349e-08 2.9520005842081132e-01 0.0000000000000000e+00  -7.2976940841802149e-13 2.9520005842057356e-01 0.0000000000000000e+00  1.9207426730500421e-14 2.9520005842078073e-01 0.0000000000000000e+00  5.2602534234678486e-14 2.9520005842074903e-01 0.0000000000000000e+00  -2.5295233721600308e-14 2.9520005842081226e-01 0.0000000000000000e+00  -1.0025787892515188e-13 2.9520005842077041e-01 0.0000000000000000e+00  -9.2563933747134572e-14 2.9520005842082386e-01 0.0000000000000000e+00  6.4360304421192246e-13 2.9520005842069402e-01 0.0000000000000000e+00  -2.1049284266817152e-08 2.9520005842067559e-01 0.0000000000000000e+00  6.7560549087866478e-04 2.9520005842066116e-01 0.0000000000000000e+00  -6.5670266278851450e-04 3.0559364883297407e-01 0.0000000000000000e+00  2.0494631669535199e-08 3.0559364883308693e-01 0.0000000000000000e+00  -7.1580402012802851e-13 3.0559364883293727e-01 0.0000000000000000e+00  4.1775351846116553e-14 3.0559364883311302e-01 0.0000000000000000e+00  3.9205815264652711e-14 3.0559364883294665e-01 0.0000000000000000e+00  -1.7925759267319546e-14 3.0559364883300927e-01 0.0000000000000000e+00  -8.7033716187044205e-14 3.0559364883301365e-01 0.0000000000000000e+00  -1.0285061872999223e-13 3.0559364883313400e-01 0.0000000000000000e+00  6.2445202937473843e-13 3.0559364883298340e-01 0.0000000000000000e+00  -2.0494744256595092e-08 3.0559364883311579e-01 0.0000000000000000e+00  6.5670266268637398e-04 3.0559364883292606e-01 0.0000000000000000e+00  -6.3714404870178585e-04 3.1568719678298163e-01 0.0000000000000000e+00  1.9917745322896485e-08 3.1568719678301088e-01 0.0000000000000000e+00  -7.0412312283119031e-13 3.1568719678310331e-01 0.0000000000000000e+00  3.1013925198406424e-14 3.1568719678298185e-01 0.0000000000000000e+00  3.9990330633193133e-14 3.1568719678302315e-01 0.0000000000000000e+00  -1.9117715151979550e-14 3.1568719678303753e-01 0.0000000000000000e+00  -8.0542522931909108e-14 3.1568719678303092e-01 0.0000000000000000e+00 