<?xml version="1.0"?>
<VTKFile type="UnstructuredGrid"  version="0.1"  >
<UnstructuredGrid>
<Piece  NumberOfPoints="842" NumberOfCells="1558">
<Points>
<DataArray  type="Float64"  NumberOfComponents="3"  format="ascii">-0.0276663799715744 -0.01092484037076335 0  -0.02564535436017864 -0.01084511294647212 0  -0.02670367363770539 -0.009673121330096374 0  -0.005263160237910004 -0.02021752904783427 0  -0.007142011617282996 -0.01910283839912953 0  -0.005721283706472954 -0.01885557948612299 0  -0.0281698471591208 -0.02275267842199816 0  -0.02903513146439706 -0.02434883282751898 0  -0.02995923345153408 -0.02281962011159115 0  -0.02194671231853508 -0.02685161179016307 0  -0.01998381313981156 -0.02559788065223443 0  -0.02251591588925926 -0.02534187964809537 0  -0.01232728691104433 -0.02110916578981165 0  -0.01088465027479771 -0.02276583133720164 0  -0.01252602534445095 -0.02273869080129673 0  0.005715900577929808 -0.01040157292959515 0  0.004247300133094481 -0.009831459016042156 0  0.004907604482269278 -0.01163228449796421 0  -0.03410210568064787 -0.008693516596393575 0  -0.03379801363784417 -0.0103885645650361 0  -0.03562726343960552 -0.009426495186475627 0  0.006078421240027776 -0.01533115251916825 0  0.007761962215727216 -0.01436391407193771 0  0.007560746450350726 -0.01596246015309179 0  -7.74643124966494e-05 -0.01210497681433211 0  0.002001407188016981 -0.01282170755437008 0  0.0005044285752298626 -0.01379044141987053 0  -0.00554502207324609 -0.01082482616207859 0  -0.006966384852671079 -0.01037459975243556 0  -0.007325780537656768 -0.01169056999739311 0  0.0002817996959115863 -0.02849048409288438 0  -0.000521210781477624 -0.03017876919236858 0  -0.001093500833290798 -0.02871309477119382 0  -0.03855671686840088 -0.01158279252224793 0  -0.03682332408031391 -0.01225302138555511 0  -0.0368905664630186 -0.01067239776272578 0  -0.03477498087981482 -0.02000619738968918 0  -0.03576754543181598 -0.02199302756157714 0  -0.0368712770501877 -0.02020029047180321 0  -0.04703432812742372 -0.02574389618985774 0  -0.04510990978682888 -0.02604639913600089 0  -0.04632952237384835 -0.02712048465619426 0  -0.002527586879520364 -0.00629891729928651 0  -0.0001503063646937945 -0.006276275587524281 0  -0.001326895479615754 -0.004595719664517121 0  -0.0391644784367541 -0.01475132581728818 0  -0.03830472500445715 -0.01681657123351652 0  -0.03747211747330889 -0.01525838136698858 0  -0.04075246902758298 -0.009218971500852071 0  -0.0390524324035903 -0.007885807867200442 0  -0.03901033695063318 -0.009802432939280079 0  0.003472222222222224 -0.02569444444444444 0  0.0056511112593847 -0.02488019662884799 0  0.003895180821987836 -0.0236393607118779 0  -0.008984816994941665 -0.02386872512578754 0  -0.01047523617110418 -0.02424834223494819 0  -0.008755951219614224 -0.02540612226970509 0  -0.02607827560230913 -0.005825920664671352 0  -0.02366594197767203 -0.005292891736900223 0  -0.0244176916399364 -0.007091582381241824 0  -0.02367778516049199 -0.03017364301424246 0  -0.02386650680183691 -0.02796326546759065 0  -0.02530794991191344 -0.02877131804044909 0  -0.01141704038127351 -0.0167818866184824 0  -0.01018001736303466 -0.01731677346741527 0  -0.01092651995755553 -0.01555498543504074 0  0.001146640918992101 -0.03102340112947342 0  0.002374909778313783 -0.03024414641598028 0  0.0007456373584565139 -0.02974621554810341 0  -0.04340535430000796 -0.0269894710178804 0  -0.04155359187777521 -0.02721283122394998 0  -0.04292416821868097 -0.02527853614675298 0  -0.0359068175526368 -0.02378498890761314 0  -0.0344744899149291 -0.02368696530563707 0  -0.03869629983246461 -0.02993079031598002 0  -0.04001755749432813 -0.03154569960410863 0  -0.03773880776055265 -0.03135466038045543 0  -0.01519286889167067 -0.02524713998052752 0  -0.01372769770201255 -0.02474768454376013 0  -0.01539547060946176 -0.02382892795598995 0  -0.01339366522435274 -0.01536013878562232 0  -0.01394780381623048 -0.01383273374796204 0  -0.01490915618241073 -0.01544996258508927 0  -0.02045411777499171 -0.02137437814389278 0  -0.01808827066958148 -0.02161702253189069 0  -0.01944913613402156 -0.02323068114780422 0  -0.02083333333333333 -0.02916666666666667 0  -0.01996045286964509 -0.02732161636951317 0  -0.01948607568027211 -0.02870451566043084 0  7.979462213787225e-05 -0.02582162422291141 0  -0.0009137538293355649 -0.02723890034088429 0  -0.001688252126561377 -0.02596267815987898 0  -0.02992158084177625 -0.03174834582032531 0  -0.03167994964754182 -0.03258206454415181 0  -0.03225438180362809 -0.03107962040142952 0  -0.0332818926824345 -0.03653956979812621 0  -0.03199324472616771 -0.03821759015296883 0  -0.03208329558284936 -0.0356823713947898 0  -0.04681050916597652 -0.03624892877251493 0  -0.04845991064854558 -0.03673512378254998 0  -0.04871075467533732 -0.03533381496454418 0  -0.01532173405145471 -0.01057512148167935 0  -0.01329391795258302 -0.01114439183113224 0  -0.01330341998558062 -0.00913423680360549 0  -0.007685836574511986 -0.007395433330292244 0  -0.009035679641316699 -0.005678099849451732 0  -0.009317707561007742 -0.00723817591573791 0  -0.001242692848311552 -0.02453787375321078 0  0.0002330144247192046 -0.02434070912065012 0  -0.02842807177184132 -0.008782837269883144 0  -0.02944926228062005 -0.009670420328744092 0  -0.01885631351121119 -0.01192416515989788 0  -0.01691676593555981 -0.01170096973318147 0  -0.01773829605562014 -0.01310079118234815 0  0.004614118426858764 -0.003565458483726032 0  0.002509334680925278 -0.004358807632452355 0  0.002343081211279474 -0.002873718352678741 0  -0.0256811132162094 -0.01574526990493712 0  -0.02690767244945899 -0.01528906187458992 0  -0.02622650184931827 -0.01695490013392893 0  -0.0389700769880035 -0.02479351460937479 0  -0.04037085504457759 -0.02357245548155283 0  -0.03967306021942603 -0.02235634449025938 0  0.003888413565608712 -0.01876506087328944 0  0.004891551310597494 -0.02075766768178287 0  0.00544129398496433 -0.01923210266410404 0  0.003071894030292726 -0.02042492932582908 0  0.002062167648373497 -0.0188974618762693 0  -0.0057072681558855 -0.02389109188241274 0  -0.007219239710984426 -0.02563954733366955 0  -0.007346103689937933 -0.02388886401972043 0  -0.004305627510404235 -0.01860920323802679 0  -0.003838294149787177 -0.01997663600034633 0  -0.04002020625879645 -0.03599772838717169 0  -0.04003280620145459 -0.03837589288876646 0  -0.04154988470785092 -0.03717873950518868 0  -0.0225476961674239 -0.01444132597291705 0  -0.02025701458283329 -0.01494682055541054 0  -0.0216061340761294 -0.01561750970419796 0  -0.02829648461666062 -0.01956624970699918 0  -0.02707115965843617 -0.02111328273495852 0  -0.0292085379373125 -0.02119822803744204 0  -0.04728154767137447 -0.006405108493471457 0  -0.04604470251786473 -0.007179652518545553 0  -0.0465402423867751 -0.005257825588374055 0  -0.046875 0 0  -0.04531250000000001 -0.001756154364948668 0  -0.04771549300742191 -0.002284506992578096 0  -0.0009083904135866786 -0.008529558496548306 0  0.000950029780725288 -0.009981924865605908 0  0.0008390356868680526 -0.007863289832610657 0  -0.0078125 -0.001818766801925782 0  -0.009005249798019331 -0.003220453989580621 0  -0.006849416828355778 -0.002880654960679921 0  -0.02769414424234968 -0.004535329022474685 0  -0.02757189723697045 -0.007051096417690477 0  -0.0448635495855776 -0.02761310087595703 0  -0.03862197093400277 -0.01903101690089815 0  -0.040801568013976 -0.01930730968599865 0  -0.04009200278840774 -0.02061118635583271 0  -0.04746877202505475 -0.0109375 0  -0.04625552207057551 -0.01250248254200394 0  -0.04822282986172321 -0.01254746375338932 0  -0.005471962873640671 -0.002483469538180225 0  -0.004703752454419383 -0.003891541969087049 0  -0.006032357434950986 -0.00440111221351207 0  0.015625 0 0  0.0140625 0 0  0.01388737105418562 -0.001431809280784936 0  -0.01181095915764366 -0.02754518578663798 0  -0.01362705441163126 -0.02658032522347269 0  -0.0131583949593131 -0.02788978773038426 0  -0.01813881802721089 -0.02824236465419501 0  -0.01783316571178066 -0.02961095015928098 0  -0.008680555555555554 -0.02743055555555555 0  -0.01019665171916844 -0.02882888222490615 0  -0.01030008360592415 -0.02730207136590873 0  -0.002966181741115359 -0.02519100039815357 0  -0.003650638982939926 -0.02687347943237787 0  -0.004763226258762934 -0.02544039938959696 0  -0.00733492014463835 -0.0222500651304849 0  -0.005550790196063865 -0.02199648679170341 0  0.001807424563025037 -0.0170842299175074 0  -8.496028144727461e-05 -0.0173220879651638 0  0.001003955519332805 -0.01812162078302066 0  0.001645105436913761 -0.01133910380044415 0  -0.02782210082246164 -0.01245307863511379 0  -0.0272180192319855 -0.01366321175396599 0  -0.02859666188170644 -0.01347995636094129 0  -0.03001746758328084 -0.01854532903596594 0  -0.02875526836452914 -0.01771333367449953 0  -0.03729550197386729 -0.009143045021487963 0  -0.03106530920251624 -0.021416390819467 0  -0.03121801362079181 -0.02311719699921014 0  -0.02412336947070342 -0.002392407656188244 0  -0.02517425035907583 -0.004044451102670074 0  -0.02553047554310944 -0.001551189984565228 0  -0.04332752203014248 -0.02894861994940035 0  -0.03361300586943999 -0.03280621050224407 0  -0.03504726554755612 -0.03214148367483272 0  -0.03446251600527064 -0.03401240796041776 0  -0.02666093500983432 -0.02972007434472025 0  -0.02825737921890155 -0.03078867343507981 0  -0.02691307433272296 -0.03107019967741321 0  -0.02412288540753498 -0.02548656141284193 0  -0.02502601119571767 -0.02452216257656308 0  -0.02523744315919711 -0.0261723293570944 0  0.007590321611890428 -0.01002544604880517 0  0.009217381127136798 -0.01087786990918838 0  0.008858123610367597 -0.009584568252459222 0  0.01075672523973394 -0.01188005193203498 0  0.008545263046002623 -0.01258731613206785 0  -0.002401366537453123 -0.02012997179630549 0  -0.003768377061401588 -0.02226186400376761 0  -0.001934031832172576 -0.02146311508091197 0  -0.001242172060814776 -0.02269478175693585 0  -0.002687248212944535 -0.02354019374584471 0  -0.008385574756346015 -0.01083162927881422 0  -0.007996120807677542 -0.00927
[...]
<PointData  Vectors="flow"> 
<DataArray  type="Float64"  Name="flow"  NumberOfComponents="3" format="ascii">-3.5220826494439452e-07 -1.2818978785835993e-07 0.0000000000000000e+00  2.1814498512695606e-08 2.2790250210495497e-07 0.0000000000000000e+00  1.7376087219372549e-07 -1.8621969573373256e-07 0.0000000000000000e+00  -3.2352741276022029e-09 5.5861755815219739e-08 0.0000000000000000e+00  5.3994863073684780e-08 8.3529504823216930e-08 0.0000000000000000e+00  -3.8331540541219141e-08 9.5084518078604359e-10 0.0000000000000000e+00  -7.1988074129546555e-08 -5.2469213521074718e-07 0.0000000000000000e+00  2.1280427438608089e-07 3.8490210308373759e-07 0.0000000000000000e+00  4.4419786877608405e-07 -6.7654530626731717e-08 0.0000000000000000e+00  -1.2438018085416091e-07 1.5808282847564422e-07 0.0000000000000000e+00  1.8513179473540429e-07 -3.6411742845440305e-07 0.0000000000000000e+00  -1.1017028993302134e-07 -3.2426247402043461e-07 0.0000000000000000e+00  -1.8517108727879040e-08 -7.5010627938484493e-08 0.0000000000000000e+00  -7.9151535630529301e-08 1.0109559134466293e-07 0.0000000000000000e+00  -5.7226263924107030e-08 -8.2613351363920244e-08 0.0000000000000000e+00  3.9012255341724799e-08 3.7541977116215024e-09 0.0000000000000000e+00  -5.2711270786027803e-09 -1.6559064668285940e-08 0.0000000000000000e+00  1.1156941875991460e-07 -2.1909542741426704e-08 0.0000000000000000e+00  -5.9002671495850766e-07 4.9330715644613767e-07 0.0000000000000000e+00  2.9100595010511931e-07 -4.8871004929429599e-07 0.0000000000000000e+00  -3.4947162281073454e-07 -2.6311576302599705e-07 0.0000000000000000e+00  -2.8445964924586576e-08 -5.4520372886392868e-08 0.0000000000000000e+00  2.3394429389839392e-08 1.5712027469294585e-08 0.0000000000000000e+00  -1.4911456246553285e-08 1.1115181050248649e-07 0.0000000000000000e+00  7.6160482690276553e-09 1.2361362148308188e-08 0.0000000000000000e+00  -2.8707079201227264e-08 -5.4034455215633348e-09 0.0000000000000000e+00  3.4144458158914576e-08 4.5592337180778484e-08 0.0000000000000000e+00  -1.5954283407650282e-08 -1.0570181089061479e-08 0.0000000000000000e+00  3.6163402208908540e-08 -4.9462139053595882e-08 0.0000000000000000e+00  4.0087084813883719e-09 -1.1009627153901517e-08 0.0000000000000000e+00  -2.3272364970584808e-09 -1.1159925589535518e-07 0.0000000000000000e+00  7.7243828563465042e-08 6.9052690101972937e-08 0.0000000000000000e+00  1.2312848213563145e-08 1.3352752704012462e-07 0.0000000000000000e+00  9.9370759184062982e-08 2.7261356936328008e-07 0.0000000000000000e+00  -4.8704267846699856e-07 4.4320862143544829e-07 0.0000000000000000e+00  3.9078816108187872e-07 -1.8242936197578501e-07 0.0000000000000000e+00  -1.3678557293920570e-07 -1.1655500623371083e-06 0.0000000000000000e+00  4.9632694671293083e-07 9.8375049809430784e-08 0.0000000000000000e+00  6.4391206401090123e-07 1.1828517500671219e-06 0.0000000000000000e+00  -2.8290742533983281e-07 -3.0175850069134192e-07 0.0000000000000000e+00  -4.5950089106898347e-08 -1.6797171333732837e-08 0.0000000000000000e+00  1.9147766311321707e-08 7.7522553906441355e-08 0.0000000000000000e+00  -4.0599792548828063e-08 6.0973176646113717e-08 0.0000000000000000e+00  4.3275320842157126e-08 -4.0681192978467690e-09 0.0000000000000000e+00  -2.6448994867651234e-08 -4.4832626304266452e-08 0.0000000000000000e+00  8.3711074539414077e-08 -1.4377411324268411e-07 0.0000000000000000e+00  2.3297206336434674e-07 -2.4714757468592598e-07 0.0000000000000000e+00  -5.7759051594809741e-07 4.4883434590582817e-07 0.0000000000000000e+00  1.7809903505788870e-07 -5.7837188698639370e-08 0.0000000000000000e+00  -7.3989844828482303e-09 1.7466874913625793e-07 0.0000000000000000e+00  -4.3854780529482040e-07 -3.5400464350619528e-07 0.0000000000000000e+00  3.1608339796727372e-09 9.3162453035714724e-09 0.0000000000000000e+00  9.0186758071924467e-09 -5.4124570785367776e-08 0.0000000000000000e+00  1.6439169956762410e-08 1.5495781693408324e-08 0.0000000000000000e+00  1.1105950501157938e-07 3.3330495298384055e-08 0.0000000000000000e+00  3.9052380059457881e-08 -1.2800545344911081e-07 0.0000000000000000e+00  2.8579221369009677e-08 2.8158973989117197e-08 0.0000000000000000e+00  2.6540698350709799e-08 -1.2632828372957607e-07 0.0000000000000000e+00  -6.7551691226509399e-09 5.2398482964169445e-09 0.0000000000000000e+00  1.5968178706933246e-07 5.6343427968752638e-08 0.0000000000000000e+00  2.9541720248127760e-07 -1.9574879629833015e-07 0.0000000000000000e+00  -5.4896867781853748e-08 5.8069704850180232e-07 0.0000000000000000e+00  -1.1925102089751085e-07 -4.1990392294271282e-07 0.0000000000000000e+00  -1.1786887736029759e-07 1.6140602297976153e-08 0.0000000000000000e+00  -5.4669927453004310e-08 2.3373617675006896e-09 0.0000000000000000e+00  2.0493363526012099e-07 4.0664366372615475e-08 0.0000000000000000e+00  9.1310222194270063e-08 2.4096827167812446e-07 0.0000000000000000e+00  -6.6770011324600623e-08 9.1703225299676385e-08 0.0000000000000000e+00  -3.5737597495744746e-08 -6.1360181747571516e-08 0.0000000000000000e+00  2.8257542507589262e-07 -4.6597131021524862e-07 0.0000000000000000e+00  -2.0349770203234566e-07 -2.8576578044667978e-08 0.0000000000000000e+00  -3.1160365918695510e-07 2.1814267189156680e-08 0.0000000000000000e+00  -6.8787307511433332e-07 8.1023240325706434e-07 0.0000000000000000e+00  2.5330275605645714e-07 -2.7302401541782563e-07 0.0000000000000000e+00  -6.9310452506072383e-08 -2.9230990445496344e-07 0.0000000000000000e+00  -6.3724555866711429e-09 2.0490602330177365e-07 0.0000000000000000e+00  -4.4884279760172220e-08 2.8669329567217519e-07 0.0000000000000000e+00  2.6675841613003603e-07 9.9574277711693905e-08 0.0000000000000000e+00  -2.8410495658891166e-07 1.0303176020456535e-07 0.0000000000000000e+00  2.2716337840714486e-08 4.7735361895775904e-08 0.0000000000000000e+00  4.8869542488859328e-08 -6.4931963913410234e-08 0.0000000000000000e+00  -3.9303964399486745e-08 8.5518335581923026e-08 0.0000000000000000e+00  1.2807514582542975e-07 -1.5270917855938273e-07 0.0000000000000000e+00  -5.7172024284384007e-07 -2.0286232505129744e-08 0.0000000000000000e+00  1.8550440559001272e-08 -1.7364816350605417e-07 0.0000000000000000e+00  5.8560249353678637e-07 3.7923876677346595e-08 0.0000000000000000e+00  3.4825565529590708e-07 3.1842954438766508e-07 0.0000000000000000e+00  -5.1629325270959149e-07 -4.1077386980315206e-07 0.0000000000000000e+00  3.8116108865924318e-07 3.0817839347208649e-08 0.0000000000000000e+00  4.4176286601180744e-08 -2.6831465039763760e-08 0.0000000000000000e+00  9.9416433566732557e-08 -7.8341709612849200e-08 0.0000000000000000e+00  8.3982385854983527e-08 -5.7156397217507331e-09 0.0000000000000000e+00  -3.8707493795094361e-08 2.0885975462874452e-07 0.0000000000000000e+00  5.5460587661815139e-07 -2.2368142291151878e-07 0.0000000000000000e+00  -9.5632409686583937e-08 2.8395625689472162e-07 0.0000000000000000e+00  -7.3552488399881124e-08 1.6290998686675979e-07 0.0000000000000000e+00  2.1597560698502743e-07 -2.8983265673253998e-08 0.0000000000000000e+00  5.0827860789890437e-07 5.3867253888105661e-07 0.0000000000000000e+00  3.3222683958467345e-08 -3.6129429400345649e-08 0.0000000000000000e+00  2.0931908587314992e-08 8.9331339634603033e-08 0.0000000000000000e+00  -3.0921973881798209e-08 -1.3604970104626867e-09 0.0000000000000000e+00  1.3211017369507267e-07 3.0198916679329838e-08 0.0000000000000000e+00  -1.1188219848283217e-07 -1.4205618492801929e-07 0.0000000000000000e+00  -2.3481645266812249e-08 1.0290188146500831e-07 0.0000000000000000e+00  2.4138704122998053e-09 2.5079310540808711e-08 0.0000000000000000e+00  -2.5771628279271137e-09 8.7710694784647606e-10 0.0000000000000000e+00  7.5207031421486585e-08 -4.1645965582790742e-08 0.0000000000000000e+00  6.1263231203696880e-08 9.6062380979015747e-08 0.0000000000000000e+00  -6.5680402853976889e-08 -4.5438581464692349e-08 0.0000000000000000e+00  1.9243709684097465e-07 1.2429938089493816e-07 0.0000000000000000e+00  1.6998099523567644e-07 -2.2242216747448981e-07 0.0000000000000000e+00  -2.1726428656745618e-07 1.4533665112317178e-07 0.0000000000000000e+00  1.8585945509872119e-07 -3.1215497805731692e-07 0.0000000000000000e+00  -8.7993552955892407e-08 1.3545814156623830e-07 0.0000000000000000e+00  -1.9774614134934525e-08 9.2032533547565916e-09 0.0000000000000000e+00  1.6659759479780509e-08 -2.3850048729835438e-08 0.0000000000000000e+00  -1.1897743432357606e-10 -4.1418750196336511e-09 0.0000000000000000e+00  4.5477769705515721e-07 -2.5502451627199524e-07 0.0000000000000000e+00  4.2061967729153141e-08 5.6460247950483741e-08 0.0000000000000000e+00  -9.4474137718232849e-08 8.8124584319309947e-07 0.0000000000000000e+00  9.2011364046909730e-08 5.5388301833237713e-07 0.0000000000000000e+00  -2.7762390530269077e-07 -1.8583515892472293e-07 0.0000000000000000e+00  4.6692024679290939e-07 -2.4382206136031509e-07 0.0000000000000000e+00  -5.1160032163587096e-08 8.5409131634626697e-08 0.0000000000000000e+00  1.7435641807056314e-08 -2.1638872151680154e-09 0.0000000000000000e+00  -9.7857664290049982e-08 -1.0255253996987045e-07 0.0000000000000000e+00  5.1803221178448711e-08 -4.9037864607639614e-08 0.0000000000000000e+00  -2.6926657016926595e-09 8.5839914353065341e-08 0.0000000000000000e+00  5.8206933500064470e-08 4.2738570651366402e-08 0.0000000000000000e+00  -2.5487525159819881e-08 -9.6628395001462257e-08 0.0000000000000000e+00  -5.7941830488160449e-08 -1.2944813236783907e-08 0.0000000000000000e+00  -2.6351610793296533e-08 -3.6181694532241647e-09 0.0000000000000000e+00  3.0624170303798972e-08 2.7511323376448485e-08 0.0000000000000000e+00  1.7045786154099500e-07 -4.3900569659315863e-08 0.0000000000000000e+00  8.2769970118677458e-08 -6.4969870360907369e-08 0.0000000000000000e+00  -1.5004455208687618e-07 -4.8619515565827578e-07 0.0000000000000000e+00  1.0123822961154526e-07 -2.5086358122397571e-07 0.0000000000000000e+00  -1.4373994121679137e-07 1.5683676716891803e-07 0.0000000000000000e+00  6.6488184366312896e-08 -1.0407974649070995e-07 0.0000000000000000e+00  6.7976507385388563e-07 7.5001905895510833e-07 0.0000000000000000e+00  5.2095019885872279e-07 1.4851556270414225e-07 0.0000000000000000e+00  -5.8521155096066824e-07 -2.7214612289022784e-07 0.0000000000000000e+00  -1.5750173656466742e-07 -9.6157888535861720e-08 0.0000000000000000e+00  -2.7411888073841731e-07 5.6821472195049878e-08 0.0000000000000000e+00  -2.2339300325361424e-07 -2.0732787301856734e-08 0.0000000000000000e+00  -2.6738185783266170e-08 1.8947625977250713e-07 0.0000000000000000e+00  8.6054101997833432e-08 -2.0301117237011616e-08 0.0000000000000000e+00  -1.2743363196901950e-07 -7.8949292250930395e-09 0.0000000000000000e+00  3.9709710920705633e-08 -2.8521520476155877e-08 0.0000000000000000e+00  -2.3314045089651182e-08 -4.8476520485424335e-10 0.0000000000000000e+00  -4.5516272782538862e-08 4.1458874557523128e-08 0.0000000000000000e+00  3.7897217839762207e-08 -1.8224753209625400e-09 0.0000000000000000e+00  2.0079774038249056e-08 -3.2986834919682549e-08 0.0000000000000000e+00  -1.8684198032851131e-08 1.2680876650150582e-08 0.0000000000000000e+00  6.4820283114757084e-08 -1.1683123833823014e-07 0.0000000000000000e+00  -1.8674403148429432e-07 1.1953230732486923e-07 0.0000000000000000e+00  1.1532817236591416e-07 2.2304812840480799e-07 0.0000000000000000e+00  6.1537530511423432e-07 -2.9450386308621994e-07 0.0000000000000000e+00  -1.8841879561186938e-07 -1.9979475283478032e-07 0.0000000000000000e+00  -1.1450923508732722e-07 2.9021172309319629e-07 0.0000000000000000e+00  1.9079215891518007e-08 -1.4609187768831976e-07 0.0000000000000000e+00  -2.1842094856193374e-07 1.2186110813053805e-07 0.0000000000000000e+00  1.5100600669921849e-07 1.4944473144015205e-08 0.0000000000000000e+00  -5.8008278919844715e-08 -3.2135256505367403e-08 0.0000000000000000e+00  2.2285963973270430e-08 -2.7282578670898575e-08 0.0000000000000000e+00  -1.5361375170445794e-08 7.2792568355313945e-09 0.0000000000000000e+00  -1.2758594357187805e-07 4.7995920176316872e-07 0.0000000000000000e+00  4.0508629526633383e-07 -3.9438818587147404e-07 0.0000000000000000e+00  2.9996148697194050e-08 -4.0880799051968224e-08 0.0000000000000000e+00  -4.0357999208522357e-07 -4.8172182317335858e-07 0.0000000000000000e+00  2.2051850112500799e-07 -1.7713258523150126e-07 0.0000000000000000e+00  2.0324605406628642e-07 -1.5697539804751389e-07 0.0000000000000000e+00  1.0594592687784933e-07 1.8443200398239652e-07 0.0000000000000000e+00  -5.4301770120981289e-07 3.3347397490413175e-07 0.0000000000000000e+00  3.6752675971676827e-08 5.8744007803419186e-08 0.0000000000000000e+00  -1.4521580888926544e-07 1.4045447464355440e-07 0.0000000000000000e+00  1.3021450249229909e-07 -1.2595020473053930e-07 0.0000000000000000e+00  -4.4498771049919374e-08 9.1703342428686942e-08 0.0000000000000000e+00  -1.0973710438526662e-07 -1.2901977629433287e-07 0.0000000000000000e+00  1.8398261921059455e-08 4.3380213338112478e-08 0.0000000000000000e+00  -5.2165289730625455e-08 -1.0726785690525543e-08 0.0000000000000000e+00  1.4189934214313868e-08 -6.9768136909370863e-08 0.0000000000000000e+00  1.4777844068073395e-09 -3.9580049722268779e-08 0.0000000000000000e+00  2.0410989108831733e-08 1.8938301649045362e-08 0.0000000000000000e+00  -1.2270669053242675e-07 -6.3827386813139814e-08 0.0000000000000000e+00  2.6385922956406275e-09 -7.7987330436306831e-08 0.0000000000000000e+00  -4.3744071336612282e-07 8.3072997954759627e-07 0.0000000000000000e+00  -5.4618867187241899e-07 -3.3824153805312729e-07 0.0000000000000000e+00  5.5598302172357290e-07 -7.5285202082259778e-07 0.0000000000000000e+00  -3.2980944448193579e-08 -7.7786495131529850e-07 0.0000000000000000e+00  1.5269062254110316e-06 5.3185311116281000e-07 0.0000000000000000e+00  1.9257508896389768e-07 3.1035222491827898e-08 0.0000000000000000e+00  2.2674848991367648e-07 1.4229424355404964e-06 0.0000000000000000e+00  -5.6392746402204191e-08 3.6755443729644097e-07 0.0000000000000000e+00  1.6608080532679627e-07 -7.2477313704646065e-08 0.0000000000000000e+00  -8.1073031641401889e-08 3.0184799930855911e-08 0.0000000000000000e+00  -8.4709220889305117e-08 1.1291776949760997e-10 0.0000000000000000e+00  -4.2354750931308865e-08 2.4591629383684639e-07 0.0000000000000000e+00  -5.2039272780495977e-07 1.1516369579324886e-07 0.0000000000000000e+00  -3.5864057556577890e-08 5.0152205204403847e-08 0.0000000000000000e+00  -1.1847630719524103e-07 -1.6324384033771731e-07 0.0000000000000000e+00  -4.2969033883927558e-08 -3.5710386835486608e-08 0.0000000000000000e+00  -2.8500465755786625e-07 9.2681812149586415e-07 0.0000000000000000e+00  2.4310964557405900e-08 -9.8665666185234708e-08 0.0000000000000000e+00  1.9861780805710572e-07 9.1252899155118607e-08 0.0000000000000000e+00  -4.0034228638917604e-07 6.8186811394989678e-07 0.0000000000000000e+00  -1.0581927896914959e-07 -3.3280265603769224e-07 0.0000000000000000e+00  -1.3010322171298031e-07 1.0963323557457645e-07 0.0000000000000000e+00  -3.6437185103664604e-08 -1.1018777924527676e-07 0.0000000000000000e+00  1.6852196241271281e-07 1.2855336149706941e-07 0.0000000000000000e+00  -5.3549841986656648e-09 4.8070470473858326e-08 0.0000000000000000e+00  1.3738612096982093e-07 -1.1860975397451719e-07 0.0000000000000000e+00  6.1831332074603363e-09 -6.5392827041617908e-08 0.0000000000000000e+00  -2.1098705611319560e-09 -1.2157581664096892e-08 0.0000000000000000e+00  1.9733331874099658e-08 8.2982143241038482e-08 0.0000000000000000e+00  -1.3590541651867313e-08 -3.6914282030442648e-08 0.0000000000000000e+00  2.7356162144920186e-08 -4.2931995168114922e-08 0.0000000000000000e+00  2.2243292209089060e-08 -1.0932985515699587e-08 0.0000000000000000e+00  -4.3675502506734544e-09 3.6098631088050103e-08 0.0000000000000000e+00  -2.5758921902357361e-08 6.0423512895098390e-08 0.0000000000000000e+00  3.5647356463223945e-08 -3.0185512743846434e-08 0.0000000000000000e+00  -1.2959374940407490e-07 -1.0963890384653773e-08 0.0000000000000000e+00  -2.9148525884638367e-07 2.8295343673419270e-07 0.0000000000000000e+00  1.3096859496347086e-07 3.8558888102963911e-09 0.0000000000000000e+00  3.2973034605243035e-07 2.5831566575099058e-08 0.0000000000000000e+00  8.0791470806859031e-08 -6.6445484604732124e-08 0.0000000000000000e+00  1.2694552397769000e-07 -1.0701689503787605e-07 0.0000000000000000e+00  -1.3630767729684190e-08 1.6334184596404441e-07 0.0000000000000000e+00  4.0616353629908039e-07 -5.0685980188903536e-08 0.0000000000000000e+00  -5.8127861636880745e-07 -3.4740728328668513e-07 0.0000000000000000e+00  4.0745705068394725e-07 -2.0154416564459428e-07 0.0000000000000000e+00  1.2359263292861519e-07 -7.3051987325463877e-07 0.0000000000000000e+00  -1.0663112167420372e-06 4.8809027365599484e-07 0.0000000000000000e+00  1.2255520819381927e-08 5.2348279133305969e-07 0.0000000000000000e+00  1.1456546478469385e-07 -3.7846574552513745e-07 0.0000000000000000e+00  -3.4106021753548407e-08 -3.4939730606175655e-07 0.0000000000000000e+00  1.5701718645700799e-07 6.2486116814502586e-08 0.0000000000000000e+00  1.7877475203579226e-07 6.7303661180047606e-08 0.0000000000000000e+00  -2.2635292771184754e-07 1.3384241935075995e-08 0.0000000000000000e+00  1.1833526726187593e-07 -1.9283202606309123e-07 0.0000000000000000e+00  1.4064063946700260e-07 7.3151860639396175e-08 0.0000000000000000e+00  2.5042226408077930e-07 -2.7472436949069792e-07 0.0000000000000000e+00  -1.0370146327903950e-07 1.0933489287062917e-07 0.0000000000000000e+00  6.3586760442391918e-09 -2.1405973210281446e-08 0.0000000000000000e+00  3.7040995192563096e-07 1.9765720820760449e-07 0.0000000000000000e+00  -6.7681717609677602e-08 -1.5891446618602401e-07 0.0000000000000000e+00  -5.4075408325582237e-08 1.5262533001008778e-07 0.0000000000000000e+00  -3.2443466465525879e-07 1.6386585836137079e-07 0.0000000000000000e+00  -2.4868089898429009e-07 -3.7028562043274549e-07 0.0000000000000000e+00  5.7835991019197238e-07 -5.1776113574877270e-08 0.0000000000000000e+00  1.2795220706086881e-07 -3.3146469329853328e-07 0.0000000000000000e+00  7.3937531743190709e-09 -1.0104215472184965e-07 0.0000000000000000e+00  -8.2290161474245614e-09 -1.4339929022514725e-07 0.0000000000000000e+00  2.6388782469594997e-07 -9.8266793037729355e-08 0.0000000000000000e+00  -2.7657718856691939e-07 1.2893664269805985e-06 0.0000000000000000e+00  -3.0607841922255778e-07 3.5926401090538578e-07 0.0000000000000000e+00  8.3688782977271687e-09 -4.0878862757988717e-07 0.0000000000000000e+00  -1.8979482464639105e-07 -1.7803890564209962e-07 0.0000000000000000e+00  1.1494443047760413e-07 1.0111296490999226e-07 0.0000000000000000e+00  1.8465836923095439e-07 4.7939010877085332e-08 0.0000000000000000e+00  7.7032535730069343e-10 2.4684727275731360e-07 0.0000000000000000e+00  -2.2568112515530465e-07 1.7607341374948202e-07 0.0000000000000000e+00  3.4277127611182672e-08 1.0727536477232946e-07 0.0000000000000000e+00  -2.0382665828830748e-07 -2.2414916203342740e-07 0.0000000000000000e+00  -3.6934355794843173e-08 -1.2068783774016099e-08 0.0000000000000000e+00  9.2342890622604123e-08 2.2170015274973483e-07 0.0000000000000000e+00  2.8362556944528257e-08 -4.4650119210491368e-08 0.0000000000000000e+00  -3.9799557506543264e-07 -1.0589551829374728e-06 0.0000000000000000e+00  7.9041541328693028e-07 -5.1417342582177722e-08 0.0000000000000000e+00  2.2035509331495669e-07 -2.5234116365865668e-08 0.0000000000000000e+00  8.4110121341255233e-08 1.0846099473456175e-06 0.0000000000000000e+00  -7.2222875542424166e-09 -1.3190594874030751e-08 0.0000000000000000e+00  7.4033589676706577e-08 -6.9261020234775372e-08 0.0000000000000000e+00  2.5848702252020445e-08 3.9627936577316351e-08 0.0000000000000000e+00  -1.0808160644782746e-07 2.3686210243401083e-08 0.0000000000000000e+00  1.2757747582973284e-08 1.6821159581602848e-08 0.0000000000000000e+00  -9.1228627522986358e-09 1.1744090416703657e-08 0.0000000000000000e+00  -2.8318245029234791e-08 -6.2479391596713241e-09 0.0000000000000000e+00  -5.8497911147799838e-08 -2.0220737402732967e-08 0.0000000000000000e+00  1.2398576668032377e-07 -2.3099069658119024e-07 0.0000000000000000e+00  -2.353957154