<?xml version="1.0"?>
<VTKFile type="UnstructuredGrid"  version="0.1"  >
<UnstructuredGrid>
<Piece  NumberOfPoints="431" NumberOfCells="800">
<Points>
<DataArray  type="Float64"  NumberOfComponents="3"  format="ascii">-0.25 -1 0  -0.2 -1 0  -0.15 -1 0  -0.1 -1 0  -0.04999999999999999 -1 0  0 -1 0  0.04999999999999999 -1 0  0.09999999999999998 -1 0  0.15 -1 0  0.2 -1 0  0.25 -1 0  -0.25 -0.95 0  -0.2 -0.95 0  -0.15 -0.95 0  -0.1 -0.95 0  -0.04999999999999999 -0.95 0  0 -0.95 0  0.04999999999999999 -0.95 0  0.09999999999999998 -0.95 0  0.15 -0.95 0  0.2 -0.95 0  0.25 -0.95 0  -0.25 -0.9 0  -0.2 -0.9 0  -0.15 -0.9 0  -0.1 -0.9 0  -0.04999999999999999 -0.9 0  0 -0.9 0  0.04999999999999999 -0.9 0  0.09999999999999998 -0.9 0  0.15 -0.9 0  0.2 -0.9 0  0.25 -0.9 0  -0.25 -0.85 0  -0.2 -0.85 0  -0.15 -0.85 0  -0.1 -0.85 0  -0.04999999999999999 -0.85 0  0 -0.85 0  0.04999999999999999 -0.85 0  0.09999999999999998 -0.85 0  0.15 -0.85 0  0.2 -0.85 0  0.25 -0.85 0  -0.25 -0.8 0  -0.2 -0.8 0  -0.15 -0.8 0  -0.1 -0.8 0  -0.04999999999999999 -0.8 0  0 -0.8 0  0.04999999999999999 -0.8 0  0.09999999999999998 -0.8 0  0.15 -0.8 0  0.2 -0.8 0  0.25 -0.8 0  -0.25 -0.75 0  -0.2 -0.75 0  -0.15 -0.75 0  -0.1 -0.75 0  -0.04999999999999999 -0.75 0  0 -0.75 0  0.04999999999999999 -0.75 0  0.09999999999999998 -0.75 0  0.15 -0.75 0  0.2 -0.75 0  0.25 -0.75 0  -0.25 -0.7 0  -0.2 -0.7 0  -0.15 -0.7 0  -0.1 -0.7 0  -0.04999999999999999 -0.7 0  0 -0.7 0  0.04999999999999999 -0.7 0  0.09999999999999998 -0.7 0  0.15 -0.7 0  0.2 -0.7 0  0.25 -0.7 0  -0.25 -0.65 0  -0.2 -0.65 0  -0.15 -0.65 0  -0.1 -0.65 0  -0.04999999999999999 -0.65 0  0 -0.65 0  0.04999999999999999 -0.65 0  0.09999999999999998 -0.65 0  0.15 -0.65 0  0.2 -0.65 0  0.25 -0.65 0  -0.25 -0.6 0  -0.2 -0.6 0  -0.15 -0.6 0  -0.1 -0.6 0  -0.04999999999999999 -0.6 0  0 -0.6 0  0.04999999999999999 -0.6 0  0.09999999999999998 -0.6 0  0.15 -0.6 0  0.2 -0.6 0  0.25 -0.6 0  -0.25 -0.55 0  -0.2 -0.55 0  -0.15 -0.55 0  -0.1 -0.55 0  -0.04999999999999999 -0.55 0  0 -0.55 0  0.04999999999999999 -0.55 0  0.09999999999999998 -0.55 0  0.15 -0.55 0  0.2 -0.55 0  0.25 -0.55 0  -0.25 -0.5 0  -0.2 -0.5 0  -0.15 -0.5 0  -0.1 -0.5 0  -0.04999999999999999 -0.5 0  0 -0.5 0  0.04999999999999999 -0.5 0  0.09999999999999998 -0.5 0  0.15 -0.5 0  0.2 -0.5 0  0.25 -0.5 0  -0.25 -0.45 0  -0.2 -0.45 0  -0.15 -0.45 0  -0.1 -0.45 0  -0.04999999999999999 -0.45 0  0 -0.45 0  0.04999999999999999 -0.45 0  0.09999999999999998 -0.45 0  0.15 -0.45 0  0.2 -0.45 0  0.25 -0.45 0  -0.25 -0.4 0  -0.2 -0.4 0  -0.15 -0.4 0  -0.1 -0.4 0  -0.04999999999999999 -0.4 0  0 -0.4 0  0.04999999999999999 -0.4 0  0.09999999999999998 -0.4 0  0.15 -0.4 0  0.2 -0.4 0  0.25 -0.4 0  -0.25 -0.35 0  -0.2 -0.35 0  -0.15 -0.35 0  -0.1 -0.35 0  -0.04999999999999999 -0.35 0  0 -0.35 0  0.04999999999999999 -0.35 0  0.09999999999999998 -0.35 0  0.15 -0.35 0  0.2 -0.35 0  0.25 -0.35 0  -0.25 -0.3 0  -0.2 -0.3 0  -0.15 -0.3 0  -0.1 -0.3 0  -0.04999999999999999 -0.3 0  0 -0.3 0  0.04999999999999999 -0.3 0  0.09999999999999998 -0.3 0  0.15 -0.3 0  0.2 -0.3 0  0.25 -0.3 0  -0.25 -0.25 0  -0.2 -0.25 0  -0.15 -0.25 0  -0.1 -0.25 0  -0.04999999999999999 -0.25 0  0 -0.25 0  0.04999999999999999 -0.25 0  0.09999999999999998 -0.25 0  0.15 -0.25 0  0.2 -0.25 0  0.25 -0.25 0  -0.25 -0.2 0  -0.2 -0.2 0  -0.15 -0.2 0  -0.1 -0.2 0  -0.04999999999999999 -0.2 0  0 -0.2 0  0.04999999999999999 -0.2 0  0.09999999999999998 -0.2 0  0.15 -0.2 0  0.2 -0.2 0  0.25 -0.2 0  -0.25 -0.15 0  -0.2 -0.15 0  -0.15 -0.15 0  -0.1 -0.15 0  -0.04999999999999999 -0.15 0  0 -0.15 0  0.04999999999999999 -0.15 0  0.09999999999999998 -0.15 0  0.15 -0.15 0  0.2 -0.15 0  0.25 -0.15 0  -0.25 -0.09999999999999998 0  -0.2 -0.09999999999999998 0  -0.15 -0.09999999999999998 0  -0.1 -0.09999999999999998 0  -0.04999999999999999 -0.09999999999999998 0  0 -0.09999999999999998 0  0.04999999999999999 -0.09999999999999998 0  0.09999999999999998 -0.09999999999999998 0  0.15 -0.09999999999999998 0  0.2 -0.09999999999999998 0  0.25 -0.09999999999999998 0  -0.25 -0.05000000000000004 0  -0.2 -0.05000000000000004 0  -0.15 -0.05000000000000004 0  -0.1 -0.05000000000000004 0  -0.04999999999999999 -0.05000000000000004 0  0 -0.05000000000000004 0  0.04999999999999999 -0.05000000000000004 0  0.09999999999999998 -0.05000000000000004 0  0.15 -0.05000000000000004 0  0.2 -0.05000000000000004 0  0.25 -0.05000000000000004 0  -0.25 0 0  -0.2 0 0  -0.15 0 0  -0.1 0 0  -0.04999999999999999 0 0  0 0 0  0.04999999999999999 0 0  0.09999999999999998 0 0  0.15 0 0  0.2 0 0  0.25 0 0  -0.225 -0.975 0  -0.175 -0.975 0  -0.125 -0.975 0  -0.07500000000000001 -0.975 0  -0.02499999999999999 -0.975 0  0.02500000000000002 -0.975 0  0.07500000000000001 -0.975 0  0.125 -0.975 0  0.175 -0.975 0  0.225 -0.975 0  -0.225 -0.925 0  -0.175 -0.925 0  -0.125 -0.925 0  -0.07500000000000001 -0.925 0  -0.02499999999999999 -0.925 0  0.02500000000000002 -0.925 0  0.07500000000000001 -0.925 0  0.125 -0.925 0  0.175 -0.925 0  0.225 -0.925 0  -0.225 -0.875 0  -0.175 -0.875 0  -0.125 -0.875 0  -0.07500000000000001 -0.875 0  -0.02499999999999999 -0.875 0  0.02500000000000002 -0.875 0  0.07500000000000001 -0.875 0  0.125 -0.875 0  0.175 -0.875 0  0.225 -0.875 0  -0.225 -0.825 0  -0.175 -0.825 0  -0.125 -0.825 0  -0.07500000000000001 -0.825 0  -0.02499999999999999 -0.825 0  0.02500000000000002 -0.825 0  0.07500000000000001 -0.825 0  0.125 -0.825 0  0.175 -0.825 0  0.225 -0.825 0  -0.225 -0.775 0  -0.175 -0.775 0  -0.125 -0.775 0  -0.07500000000000001 -0.775 0  -0.02499999999999999 -0.775 0  0.02500000000000002 -0.775 0  0.07500000000000001 -0.775 0  0.125 -0.775 0  0.175 -0.775 0  0.225 -0.775 0  -0.225 -0.725 0  -0.175 -0.725 0  -0.125 -0.725 0  -0.07500000000000001 -0.725 0  -0.02499999999999999 -0.725 0  0.02500000000000002 -0.725 0  0.07500000000000001 -0.725 0  0.125 -0.725 0  0.175 -0.725 0  0.225 -0.725 0  -0.225 -0.675 0  -0.175 -0.675 0  -0.125 -0.675 0  -0.07500000000000001 -0.675 0  -0.02499999999999999 -0.675 0  0.02500000000000002 -0.675 0  0.07500000000000001 -0.675 0  0.125 -0.675 0  0.175 -0.675 0  0.225 -0.675 0  -0.225 -0.625 0  -0.175 -0.625 0  -0.125 -0.625 0  -0.07500000000000001 -0.625 0  -0.02499999999999999 -0.625 0  0.02500000000000002 -0.625 0  0.07500000000000001 -0.625 0  0.125 -0.625 0  0.175 -0.625 0  0.225 -0.625 0  -0.225 -0.575 0  -0.175 -0.575 0  -0.125 -0.575 0  -0.07500000000000001 -0.575 0  -0.02499999999999999 -0.575 0  0.02500000000000002 -0.575 0  0.07500000000000001 -0.575 0  0.125 -0.575 0  0.175 -0.575 0  0.225 -0.575 0  -0.225 -0.525 0  -0.175 -0.525 0  -0.125 -0.525 0  -0.07500000000000001 -0.525 0  -0.02499999999999999 -0.525 0  0.02500000000000002 -0.525 0  0.07500000000000001 -0.525 0  0.125 -0.525 0  0.175 -0.525 0  0.225 -0.525 0  -0.225 -0.475 0  -0.175 -0.475 0  -0.125 -0.475 0  -0.07500000000000001 -0.475 0  -0.02499999999999999 -0.475 0  0.02500000000000002 -0.475 0  0.07500000000000001 -0.475 0  0.125 -0.475 0  0.175 -0.475 0  0.225 -0.475 0  -0.225 -0.425 0  -0.175 -0.425 0  -0.125 -0.425 0  -0.07500000000000001 -0.425 0  -0.02499999999999999 -0.425 0  0.02500000000000002 -0.425 0  0.07500000000000001 -0.425 0  0.125 -0.425 0  0.175 -0.425 0  0.225 -0.425 0  -0.225 -0.375 0  -0.175 -0.375 0  -0.125 -0.375 0  -0.07500000000000001 -0.375 0  -0.02499999999999999 -0.375 0  0.02500000000000002 -0.375 0  0.07500000000000001 -0.375 0  0.125 -0.375 0  0.175 -0.375 0  0.225 -0.375 0  -0.225 -0.325 0  -0.175 -0.325 0  -0.125 -0.325 0  -0.07500000000000001 -0.325 0  -0.02499999999999999 -0.325 0  0.02500000000000002 -0.325 0  0.07500000000000001 -0.325 0  0.125 -0.325 0  0.175 -0.325 0  0.225 -0.325 0  -0.225 -0.275 0  -0.175 -0.275 0  -0.125 -0.275 0  -0.07500000000000001 -0.275 0  -0.02499999999999999 -0.275 0  0.02500000000000002 -0.275 0  0.07500000000000001 -0.275 0  0.125 -0.275 0  0.175 -0.275 0  0.225 -0.275 0  -0.225 -0.225 0  -0.175 -0.225 0  -0.125 -0.225 0  -0.07500000000000001 -0.225 0  -0.02499999999999999 -0.225 0  0.02500000000000002 -0.225 0  0.07500000000000001 -0.225 0  0.125 -0.225 0  0.175 -0.225 0  0.225 -0.225 0  -0.225 -0.175 0  -0.175 -0.175 0  -0.125 -0.175 0  -0.07500000000000001 -0.175 0  -0.02499999999999999 -0.175 0  0.02500000000000002 -0.175 0  0.07500000000000001 -0.175 0  0.125 -0.175 0  0.175 -0.175 0  0.225 -0.175 0  -0.225 -0.125 0  -0.175 -0.125 0  -0.125 -0.125 0  -0.07500000000000001 -0.125 0  -0.02499999999999999 -0.125 0  0.02500000000000002 -0.125 0  0.07500000000000001 -0.125 0  0.125 -0.125 0  0.175 -0.125 0  0.225 -0.125 0  -0.225 -0.07499999999999996 0  -0.175 -0.07499999999999996 0  -0.125 -0.07499999999999996 0  -0.07500000000000001 -0.07499999999999996 0  -0.02499999999999999 -0.07499999999999996 0  0.02500000000000002 -0.07499999999999996 0  0.07500000000000001 -0.07499999999999996 0  0.125 -0.07499999999999996 0  0.175 -0.07499999999999996 0  0.225 -0.07499999999999996 0  -0.225 -0.02500000000000002 0  -0.175 -0.02500000000000002 0  -0.125 -0.02500000000000002 0  -0.07500000000000001 -0.02500000000000002 0  -0.02499999999999999 -0.02500000000000002 0  0.02500000000000002 -0.02500000000000002 0  0.07500000000000001 -0.02500000000000002 0  0.125 -0.02500000000000002 0  0.175 -0.02500000000000002 0  0.225 -0.02500000000000002 0  </DataArray>
</Points>
<Cells>
[...]
<PointData  Vectors="flow"> 
<DataArray  type="Float64"  Name="flow"  NumberOfComponents="3" format="ascii">3.8580010092143311e-14 -7.1788875370254059e-14 0.0000000000000000e+00  1.4435422431930204e-15 -4.3028635034653821e-14 0.0000000000000000e+00  1.2573490307687513e-13 1.7267141741070281e-14 0.0000000000000000e+00  1.9037193596663056e-13 -6.4330186026808529e-14 0.0000000000000000e+00  2.3523931737612507e-13 7.2801037320374374e-14 0.0000000000000000e+00  4.2367836920990352e-13 -1.4402624441614322e-13 0.0000000000000000e+00  4.3670776649124076e-15 -4.8382848129290262e-13 0.0000000000000000e+00  -3.3957786525403906e-13 -1.8208913772527852e-14 0.0000000000000000e+00  -9.2653816193439381e-14 -6.0191249551524992e-15 0.0000000000000000e+00  -3.4314113733817383e-14 -1.2372315845732329e-13 0.0000000000000000e+00  -8.3927153262812106e-14 -1.9123776590217642e-14 0.0000000000000000e+00  4.9253183531607652e-14 -2.0579683643996581e-13 0.0000000000000000e+00  5.7255819382175318e-14 -2.2861440069448309e-13 0.0000000000000000e+00  9.0696773234213789e-14 -1.3856882242218627e-13 0.0000000000000000e+00  2.2495947402903522e-13 -2.9791498258701794e-13 0.0000000000000000e+00  2.1612129389016249e-13 -2.0917336266441581e-13 0.0000000000000000e+00  1.2223612119852676e-13 -1.5823513779295498e-13 0.0000000000000000e+00  9.6254203406104219e-14 -2.3680819764265006e-13 0.0000000000000000e+00  -7.6497399879868087e-14 -2.1000443214650962e-13 0.0000000000000000e+00  -1.6173596634495798e-13 -1.9440919518464195e-13 0.0000000000000000e+00  -7.8443300437862992e-14 -9.5063652936742121e-14 0.0000000000000000e+00  1.4172444101044355e-14 -1.4379198468480955e-13 0.0000000000000000e+00  2.3008133983630375e-14 -4.2140696641889895e-13 0.0000000000000000e+00  7.7895983486624423e-14 -3.2223408058758415e-13 0.0000000000000000e+00  5.3817270391749396e-14 -2.8553658665878490e-13 0.0000000000000000e+00  1.2560601370992734e-13 -5.9427549335545140e-14 0.0000000000000000e+00  3.6809107207262777e-13 -3.9381578109463481e-13 0.0000000000000000e+00  3.4586307306090241e-13 -2.7022784044493006e-13 0.0000000000000000e+00  -4.4581263149173689e-14 -3.9928755692123628e-13 0.0000000000000000e+00  -2.6056667718410898e-13 -3.4530729072006087e-13 0.0000000000000000e+00  1.0917872250393577e-15 -3.5587160409161093e-13 0.0000000000000000e+00  2.3384226329559057e-14 -2.6185203952439354e-13 0.0000000000000000e+00  -9.5901579251601758e-14 -2.6047744524127826e-13 0.0000000000000000e+00  2.7124025287669320e-13 -6.9838783532660594e-13 0.0000000000000000e+00  1.8856199143068555e-13 -6.2336077604907204e-13 0.0000000000000000e+00  3.8047122094881140e-13 -3.0475607017677100e-14 0.0000000000000000e+00  1.0238853810821979e-13 -1.6431783575735208e-13 0.0000000000000000e+00  2.0109129468067742e-14 -3.2444431087615322e-13 0.0000000000000000e+00  1.3329061170044634e-13 -3.8968767697896943e-13 0.0000000000000000e+00  2.1510635436634004e-14 -5.7795594573007346e-13 0.0000000000000000e+00  -4.3224537700339347e-14 -2.6658041845603690e-13 0.0000000000000000e+00  -7.0709559187415068e-14 -2.3743715626039067e-13 0.0000000000000000e+00  7.1915220352112461e-15 -3.5221379636685563e-13 0.0000000000000000e+00  -1.6469965934679147e-14 -3.8045031611497016e-13 0.0000000000000000e+00  5.0845269318267143e-14 -5.4089039154865464e-13 0.0000000000000000e+00  7.3762626319970192e-13 -5.2789365659151712e-13 0.0000000000000000e+00  4.9130530016565258e-13 -5.2158821061515485e-13 0.0000000000000000e+00  -1.7605777397586431e-13 -6.6823593155854055e-13 0.0000000000000000e+00  1.7307148575035903e-13 -3.1584516017146198e-13 0.0000000000000000e+00  5.1147905652679052e-14 -7.0170989061433650e-13 0.0000000000000000e+00  9.8564697496945911e-14 -7.1072590089234411e-13 0.0000000000000000e+00  9.2867403927142599e-14 -7.9684068451755825e-13 0.0000000000000000e+00  -9.5747097300412679e-14 -2.2649493624032328e-15 0.0000000000000000e+00  -1.4903780776209253e-13 -4.3995046079059554e-13 0.0000000000000000e+00  -1.4510899241002047e-13 -7.7937794641075022e-13 0.0000000000000000e+00  2.4451202137095503e-13 -2.9920981073374714e-13 0.0000000000000000e+00  2.1775452152294699e-13 -4.0193105488708129e-13 0.0000000000000000e+00  2.4666415759765514e-13 -8.0934073967960848e-13 0.0000000000000000e+00  3.1608757882389601e-13 -7.6523409546333511e-13 0.0000000000000000e+00  -4.4478998348468217e-14 -8.5120574239927972e-13 0.0000000000000000e+00  -2.3639524674850388e-13 -8.7606167906351634e-13 0.0000000000000000e+00  -8.0642481559486154e-14 -9.6405713381598736e-13 0.0000000000000000e+00  6.6517593479258442e-13 -8.7969044288653170e-13 0.0000000000000000e+00  3.0073314157644508e-13 -7.9937751833636815e-13 0.0000000000000000e+00  -7.1606085393904515e-13 -6.6242608534850848e-13 0.0000000000000000e+00  -6.0787564364706291e-13 -6.1571475447770549e-13 0.0000000000000000e+00  -8.8073977552705366e-14 -6.8670053253306668e-13 0.0000000000000000e+00  2.4228719157018937e-13 -7.7447997891986022e-13 0.0000000000000000e+00  9.0128298615507920e-14 -8.5288933758172249e-13 0.0000000000000000e+00  -1.5173547664101757e-13 -1.1182229386752016e-12 0.0000000000000000e+00  8.6862562905724029e-15 -9.3460644482263067e-13 0.0000000000000000e+00  -9.0748834151662002e-15 -9.2954714067962045e-13 0.0000000000000000e+00  4.0232906844635924e-14 -7.7030497854521644e-13 0.0000000000000000e+00  2.8752190468099924e-13 -7.7161471201264600e-13 0.0000000000000000e+00  9.2519622926645924e-14 -1.5004378446288893e-12 0.0000000000000000e+00  1.4097035675823010e-14 -9.5884948871440676e-13 0.0000000000000000e+00  -1.4313801708954667e-13 -7.1548721175831628e-13 0.0000000000000000e+00  -2.4850173513243375e-14 -5.5316108814087238e-13 0.0000000000000000e+00  5.3439424517642032e-15 -7.9294565735831780e-13 0.0000000000000000e+00  -9.2977047895624779e-14 -1.4879763984367496e-12 0.0000000000000000e+00  2.3993890041197245e-13 -1.1819023705396798e-12 0.0000000000000000e+00  8.7924515369773709e-14 -9.7553271967402066e-13 0.0000000000000000e+00  -3.2475304513920764e-14 -1.0348340658675202e-12 0.0000000000000000e+00  9.8650011621634882e-14 -7.1300365600663723e-13 0.0000000000000000e+00  -9.7661300387412497e-14 -1.1055476278299296e-12 0.0000000000000000e+00  1.0955541598893716e-13 -8.5457476460708013e-13 0.0000000000000000e+00  3.1129083344503992e-14 -1.1077695683066871e-12 0.0000000000000000e+00  -1.1666538345559083e-13 -1.1501695977153642e-12 0.0000000000000000e+00  -2.7916075170270229e-13 -9.8565625429915281e-13 0.0000000000000000e+00  -6.8396606094426745e-13 -9.7019204199207994e-13 0.0000000000000000e+00  -2.3391078489842298e-13 -9.8787699743744850e-13 0.0000000000000000e+00  3.0710748146811325e-13 -1.0373933925710916e-12 0.0000000000000000e+00  2.3627543550409338e-13 -1.1435651029451793e-12 0.0000000000000000e+00  1.3599691080055078e-13 -1.0979323153024813e-12 0.0000000000000000e+00  3.9731646354473397e-14 -1.2969782053967129e-12 0.0000000000000000e+00  1.1754739122531002e-13 -1.1668505272508416e-12 0.0000000000000000e+00  1.9832346136368559e-13 -8.2491245874685626e-13 0.0000000000000000e+00  -2.8290599608270028e-13 -1.1244326097951248e-12 0.0000000000000000e+00  1.1534767028597618e-13 -9.4209733666319480e-13 0.0000000000000000e+00  1.0482492345647507e-13 -1.7033998693380930e-12 0.0000000000000000e+00  -1.4990847248359761e-14 -1.3544503889127564e-12 0.0000000000000000e+00  -1.2221563921020691e-13 -6.6273670577657812e-13 0.0000000000000000e+00  3.4033424741019707e-14 -8.5867489661774038e-13 0.0000000000000000e+00  1.2475864607446814e-13 -1.0262724343629907e-12 0.0000000000000000e+00  -2.2101013272200348e-13 -1.1661167718561743e-12 0.0000000000000000e+00  3.6424956553405459e-14 -1.2859873163247363e-12 0.0000000000000000e+00  3.5402555956217190e-13 -1.2706934601329717e-12 0.0000000000000000e+00  7.3635416462290686e-14 -1.3869308929627538e-12 0.0000000000000000e+00  -1.0454442919214832e-13 -1.3650557419982447e-12 0.0000000000000000e+00  2.0969049729089926e-13 -1.4643182251546290e-12 0.0000000000000000e+00  1.9505686238638087e-13 -1.5662584073558479e-12 0.0000000000000000e+00  3.7594790067126305e-13 -1.3958904922902765e-12 0.0000000000000000e+00  2.0302629609021007e-13 -1.6818856931751638e-12 0.0000000000000000e+00  -4.3233971425862427e-14 -1.2886412929396069e-12 0.0000000000000000e+00  -1.2271410956377233e-13 -1.4142425015508571e-12 0.0000000000000000e+00  -1.5370232122713130e-14 -1.2283421135942006e-12 0.0000000000000000e+00  -1.7718246644616464e-13 -1.0904853974055515e-12 0.0000000000000000e+00  1.3596392764584879e-13 -1.5515804236227784e-12 0.0000000000000000e+00  6.3741584297284511e-14 -1.7307968393959962e-12 0.0000000000000000e+00  -3.1598421181264678e-13 -1.6007540349653218e-12 0.0000000000000000e+00  -4.3805243303014400e-13 -1.9562259653592174e-12 0.0000000000000000e+00  2.2061085866578269e-13 -1.0240760832946889e-12 0.0000000000000000e+00  -1.4590292121320407e-13 -1.6593015366700645e-12 0.0000000000000000e+00  -1.5150708224857644e-13 -1.6871782775470601e-12 0.0000000000000000e+00  4.1408884086882026e-13 -1.8204242554705825e-12 0.0000000000000000e+00  7.9389325302568009e-14 -1.5067243054492786e-12 0.0000000000000000e+00  1.5780588180808769e-13 -1.4459579094776230e-12 0.0000000000000000e+00  -3.3567980348457974e-13 -1.4850940593856289e-12 0.0000000000000000e+00  -2.1913924824233678e-13 -1.3903946396028296e-12 0.0000000000000000e+00  -1.5542042931802559e-14 -1.7281640143911022e-12 0.0000000000000000e+00  -2.6556458484502484e-13 -2.0159115338913379e-12 0.0000000000000000e+00  -3.7118934032253945e-13 -1.6087451711119446e-12 0.0000000000000000e+00  -8.3499178612472406e-13 -1.4093000048137617e-12 0.0000000000000000e+00  -6.4732336123445487e-14 -1.3136144254594330e-12 0.0000000000000000e+00  6.6072651344761724e-14 -1.0339436934654794e-12 0.0000000000000000e+00  2.4655308419176733e-13 -1.1245141380083172e-12 0.0000000000000000e+00  2.1745740848916616e-13 -1.2654372975399622e-12 0.0000000000000000e+00  -1.9031498908472963e-14 -1.1160331718246395e-12 0.0000000000000000e+00  -1.8218954453185968e-13 -1.3545924022741608e-12 0.0000000000000000e+00  -2.1509537413717387e-13 -1.5220297840846595e-12 0.0000000000000000e+00  -4.9510303351514001e-13 -1.8399860433958270e-12 0.0000000000000000e+00  -2.2262151629836968e-13 -1.9207933716797781e-12 0.0000000000000000e+00  3.7649594970020195e-13 -1.3861468973290939e-12 0.0000000000000000e+00  3.1405611838049700e-13 -1.1425925657224256e-12 0.0000000000000000e+00  2.4676529263661670e-14 -8.7658842703837831e-13 0.0000000000000000e+00  -6.5856508017737592e-15 -1.1680427769368417e-12 0.0000000000000000e+00  4.8186616388093203e-14 -9.5460992450140908e-13 0.0000000000000000e+00  1.2792514293636815e-13 -1.4166196820179016e-12 0.0000000000000000e+00  1.4001791106970145e-13 -1.0148529927896726e-12 0.0000000000000000e+00  -6.3933859495542690e-13 -1.2814921728855126e-12 0.0000000000000000e+00  -6.6852875486170110e-13 -1.3288535935886335e-12 0.0000000000000000e+00  -3.3164286111399994e-13 -1.3496230186029692e-12 0.0000000000000000e+00  4.8412151327441372e-14 -8.0520020507136220e-13 0.0000000000000000e+00  6.2056642164055872e-13 -1.1594104097470911e-12 0.0000000000000000e+00  -2.4714911388049200e-13 -9.6516152570321638e-13 0.0000000000000000e+00  -5.0848358471207361e-14 -1.2391331422800702e-12 0.0000000000000000e+00  1.5557655556742778e-13 -1.0064766180619370e-12 0.0000000000000000e+00  2.6548522839700636e-14 -1.3271594636291894e-12 0.0000000000000000e+00  1.5222678852527541e-13 -1.0223272980975728e-12 0.0000000000000000e+00  7.7418574870309902e-14 -1.3767447943807658e-12 0.0000000000000000e+00  -6.2812526480017902e-13 -1.8611332143189706e-12 0.0000000000000000e+00  -2.9509642847464197e-13 -1.1312726092805060e-12 0.0000000000000000e+00  -2.5698416909185497e-15 -1.5691039118985461e-13 0.0000000000000000e+00  -5.6429971249987987e-14 -2.9750569038343499e-13 0.0000000000000000e+00  -4.0207386214048834e-14 -8.2651936946937111e-13 0.0000000000000000e+00  -2.9925718414493708e-13 -7.2276031003088669e-13 0.0000000000000000e+00  -1.8562112308729989e-14 -4.3653799048648968e-13 0.0000000000000000e+00  -1.6614050261193597e-13 -1.2576730548655082e-12 0.0000000000000000e+00  -7.4037281669822321e-14 -1.0994728409303337e-12 0.0000000000000000e+00  1.1355228149197721e-13 -9.9700792658967253e-13 0.0000000000000000e+00  -5.9726643583079910e-13 -1.6626895987985767e-12 0.0000000000000000e+00  -4.3182245858535132e-13 -1.3203847591618704e-12 0.0000000000000000e+00  1.1135959044040094e-12 -7.3668692023389336e-13 0.0000000000000000e+00  5.3298317217652241e-13 -4.7071228180641147e-13 0.0000000000000000e+00  -4.5936760398644633e-13 -3.9152224553673892e-13 0.0000000000000000e+00  -3.4588038180771825e-13 1.0669142322592400e-14 0.0000000000000000e+00  2.7161062082788547e-13 -1.1891957932202357e-12 0.0000000000000000e+00  -4.6556574304345636e-13 -8.4506232497914748e-13 0.0000000000000000e+00  -5.1510541923339356e-13 -6.8852151722858226e-13 0.0000000000000000e+00  3.8206361270272968e-13 -3.2311238033039941e-13 0.0000000000000000e+00  -3.6815676215804358e-13 -4.5470432116488200e-13 0.0000000000000000e+00  -4.4342301845054509e-13 -5.2096285420864595e-13 0.0000000000000000e+00  3.9926123557648440e-13 -1.6665052322683135e-13 0.0000000000000000e+00  5.6973364536966025e-13 -6.6667634123065499e-13 0.0000000000000000e+00  2.0490082315260717e-13 -8.9434643734606987e-13 0.0000000000000000e+00  3.6043603139832348e-13 -4.2419231853407891e-13 0.0000000000000000e+00  2.2322173629595221e-13 -2.7883744960668985e-13 0.0000000000000000e+00  -5.5553374337758842e-14 -5.4569068465230812e-13 0.0000000000000000e+00  4.2757708106732542e-13 -7.9893447198009775e-13 0.0000000000000000e+00  2.2090880481599030e-13 9.5413715215889900e-14 0.0000000000000000e+00  1.2382447789460802e-13 9.1674335398217349e-14 0.0000000000000000e+00  -5.7594440759711541e-14 1.0956137240029534e-13 0.0000000000000000e+00  -3.3099434850336039e-13 4.2065525418720950e-13 0.0000000000000000e+00  -4.8329461709811476e-13 1.8667964682438413e-13 0.0000000000000000e+00  2.4591874273135389e-13 -2.2332374958460945e-13 0.0000000000000000e+00  8.8161139929907996e-13 -1.3963074966717503e-13 0.0000000000000000e+00  1.4838465825765412e-13 -1.8043983743056289e-13 0.0000000000000000e+00  -1.3680452341600415e-13 -2.9927767269776949e-13 0.0000000000000000e+00  2.0856597739130639e-13 1.4882024190622835e-13 0.0000000000000000e+00  1.4278236931200814e-13 1.1471651796240824e-13 0.0000000000000000e+00  6.0023339704125735e-13 -1.5309313024173037e-13 0.0000000000000000e+00  3.4263182543117978e-13 -9.4968822954092563e-14 0.0000000000000000e+00  -1.2544080217192637e-14 3.9720496449955039e-15 0.0000000000000000e+00  -4.1533325224349695e-13 1.2299832658679974e-13 0.0000000000000000e+00  -1.9452155623612090e-13 3.4566263165002131e-13 0.0000000000000000e+00  1.8350292607245138e-13 3.3182983023023303e-13 0.0000000000000000e+00  2.5613261068930708e-13 -2.8755342460328872e-13 0.0000000000000000e+00  2.4345016617177773e-13 -4.0319089513885607e-13 0.0000000000000000e+00  3.8860740261741979e-13 7.1187254928757053e-15 0.0000000000000000e+00  2.2638711259936306e-13 2.3055412158555587e-13 0.0000000000000000e+00  -3.5955085107237600e-14 2.8106330702766934e-13 0.0000000000000000e+00  3.7942716002389697e-14 6.5533575774801362e-15 0.0000000000000000e+00  2.6680212145486843e-13 -3.2749530963581558e-13 0.0000000000000000e+00  1.4766877856135135e-13 -2.9405541815702039e-13 0.0000000000000000e+00  1.3604546593345796e-13 -1.5217242709911950e-13 0.0000000000000000e+00  -3.5279315668215750e-13 1.1634338493591408e-13 0.0000000000000000e+00  -3.0627116291969251e-13 1.1451783376959707e-14 0.0000000000000000e+00  2.1269373135259779e-13 -3.9217714685628816e-14 0.0000000000000000e+00  3.1224327382528717e-13 -1.1698782669557828e-13 0.0000000000000000e+00  4.4818940007006391e-13 -4.7007410525170022e-13 0.0000000000000000e+00  -1.2780162090464002e-13 3.5978490349323902e-13 0.0000000000000000e+00  5.3962710997283752e-14 9.1977745958849978e-14 0.0000000000000000e+00  -1.1798194575911127e-13 3.5844157048858979e-13 0.0000000000000000e+00  1.7859219022990072e-13 1.8664426248543479e-13 0.0000000000000000e+00  -5.7372037669970989e-14 -3.2806190527805012e-13 0.0000000000000000e+00  7.3495670394822724e-14 -3.6935357829261775e-13 0.0000000000000000e+00  -3.9846572242335704e-14 -4.6740552067330465e-13 0.0000000000000000e+00  -5.3613896188520399e-14 2.6576965351626985e-13 0.0000000000000000e+00  1.4338361112724620e-13 1.5104161368999839e-13 0.0000000000000000e+00  -1.7349908624501653e-13 -1.6731268160272655e-13 0.0000000000000000e+00  1.1356033161604288e-13 -3.9798496303327212e-13 0.0000000000000000e+00  -6.2151385704442680e-15 -2.8833356725711287e-14 0.0000000000000000e+00  4.6656533951130420e-14 2.2532616727380165e-14 0.0000000000000000e+00  1.3477694951011971e-13 1.7379002164233520e-14 0.0000000000000000e+00  3.0247077448717565e-13 4.1619997676540596e-14 0.0000000000000000e+00  1.5320473411215281e-13 -4.4215986543935703e-14 0.0000000000000000e+00  5.2763205320789812e-13 -3.7075226452835420e-13 0.0000000000000000e+00  -4.1675807526982596e-13 -2.7910177350560024e-13 0.0000000000000000e+00  -1.5953698536433775e-13 1.0524723445523081e-14 0.0000000000000000e+00  -9.4838989216472724e-14 -5.1098244734222599e-14 0.0000000000000000e+00  1.9695948685037070e-14 -8.7518866777279031e-14 0.0000000000000000e+00  -3.1547587573801425e-14 -3.9629489729776565e-13 0.0000000000000000e+00  1.8508684471537722e-13 -4.0805477179341067e-13 0.0000000000000000e+00  -5.7320701772823813e-14 -5.1533163846354538e-13 0.0000000000000000e+00  3.9240257835173296e-13 -6.1039931718449507e-13 0.0000000000000000e+00  2.3520858555061727e-13 -3.1906293993652253e-13 0.0000000000000000e+00  3.1073772999568895e-13 8.9938127693424919e-15 0.0000000000000000e+00  -2.9069154815710039e-13 -1.8445949469505000e-13 0.0000000000000000e+00  -1.9173208976591346e-13 -4.8101548776980924e-13 0.0000000000000000e+00  4.3568120756809482e-14 -2.8408597150839253e-13 0.0000000000000000e+00  -7.3546342990779275e-15 -1.3289784014079103e-13 0.0000000000000000e+00  3.9575971477359007e-14 -3.6882206404203219e-13 0.0000000000000000e+00  2.8999095549854454e-13 -2.3916130488461754e-13 0.0000000000000000e+00  1.8227543196121626e-13 1.3084798396613053e-13 0.0000000000000000e+00  -3.2089944669595785e-14 1.4845728450561035e-13 0.0000000000000000e+00  4.6854451324454951e-13 -3.3309823697394843e-13 0.0000000000000000e+00  7.7676976453056694e-14 -6.5001899800410499e-13 0.0000000000000000e+00  -1.6776262024899491e-13 -5.7328222789339138e-13 0.0000000000000000e+00  -2.3508672197954009e-13 -2.9388222263410656e-13 0.0000000000000000e+00  1.7508924785594365e-13 -3.7645959519066445e-13 0.0000000000000000e+00  -3.7649080082292528e-14 -3.9310572681183355e-13 0.0000000000000000e+00  3.8534463813239950e-14 -1.0013503784477094e-12 0.0000000000000000e+00  9.8813621419092691e-13 -3.6046020977105390e-13 0.0000000000000000e+00  -2.1582381113094979e-14 -1.8805894932707194e-13 0.0000000000000000e+00  -2.0017644578100109e-13 -5.4520895910497820e-13 0.0000000000000000e+00  4.1649101968702081e-13 -3.5664448107688696e-13 0.0000000000000000e+00  -1.8100380037487979e-13 -2.8394003399151360e-13 0.0000000000000000e+00  2.0200106238953146e-13 -1.8234225775969852e-13 0.0000000000000000e+00  -1.0432255426194061e-13 -1.3114922390179751e-13 0.0000000000000000e+00  -4.8298187995201793e-14 -2.1163122976185922e-13 0.0000000000000000e+00  -6.7987784894817285e-14 -3.2949754079436099e-13 0.0000000000000000e+00  3.5986383384924585e-14 -3.5013827324044451e-14 0.0000000000000000e+00  1.0574797295436967e-12 -6.8374253505185267e-13 0.0000000000000000e+00  -2.6085269815129600e-13 -9.8601507360021376e-13 0.0000000000000000e+00  2.5021909233182711e-13 -3.7940221875907576e-13 0.0000000000000000e+00  -7.8726432545578090e-14 -5.8329304351517600e-13 0.0000000000000000e+00  -1.4750180527058734e-13 -1.0552100612283968e-12 0.0000000000000000e+00  2.7077002470113452e-14 -1.2469320339857722e-12 0.0000000000000000e+00  9.2973671129869642e-13 -4.9799730701635271e-13 0.0000000000000000e