<?xml version="1.0"?>
<VTKFile type="UnstructuredGrid"  version="0.1"  >
<UnstructuredGrid>
<Piece  NumberOfPoints="806" NumberOfCells="1504">
<Points>
<DataArray  type="Float64"  NumberOfComponents="3"  format="ascii">0.01846824474048517 -0.04149541481145257 0  0.01782868919038702 -0.04338851755545801 0  0.01904305817301197 -0.04274419001873621 0  0.04733901150449811 -0.03996872119408579 0  0.04829208008188312 -0.04092308629865739 0  0.04667373753676338 -0.04108798278486302 0  0.01552943322599933 -0.01039223976967649 0  0.01561231669066057 -0.008674083460499629 0  0.01413052010119659 -0.009389502160894639 0  0.03295147424067876 -0.01620437186370464 0  0.032001952132051 -0.01447302962147942 0  0.03352088685144456 -0.01473415368338696 0  0.009071852058287186 -0.03111646240531644 0  0.009454590536262899 -0.02926375325908127 0  0.008053957990568473 -0.0299402944179232 0  0.04393709534775342 -0.03399416543518065 0  0.0450552879070476 -0.03228428374499481 0  0.04345356682255066 -0.03218454146111794 0  0.03218160891894395 -0.02842571783788788 0  0.03055812711423551 -0.02730942100275788 0  0.03190841513955275 -0.02696645140373315 0  0.02059820391388823 -0.008744628494184007 0  0.02236002896120308 -0.01029553220276665 0  0.02069438039481685 -0.01041153970082536 0  0.01492528999248245 -0.002433543897202234 0  0.01607090679295778 -0.003444215195152167 0  0.01610599002356381 -0.001455662474053389 0  0.01533845899304755 -0.03450745320159019 0  0.01291635033112928 -0.03408703642975243 0  0.01431567335582407 -0.03550779203295518 0  0.05 -0.046875 0  0.04838162252857063 -0.0484375 0  0.04830480312230745 -0.04673855680545282 0  0.0335055138043014 -0.01319301380430141 0  0.03503329596179407 -0.0150307462328856 0  0.03473191852987378 -0.01692937153329831 0  0.03062350339451905 -0.01195958995920541 0  0.02880183116468505 -0.01324826702959288 0  0.0303485822656615 -0.01350285709122089 0  0.03646473132841593 -0.0487266977067035 0  0.03567804538662531 -0.04684423509208469 0  0.03720001892537535 -0.04655850289330472 0  0.0328125 -0.05312500000000001 0  0.03185172221986971 -0.05133039393955258 0  0.03328223773659549 -0.05171902792461655 0  0.03686427007144817 -0.01349487103951888 0  0.03895981700495387 -0.01307268484765471 0  0.03814432517406528 -0.01443672202163861 0  0.03125 -0.01875 0  0.03293360810408181 -0.02017879740592817 0  0.0324533095215602 -0.01771284205542287 0  0.0439453125 -0.0158203125 0  0.04237763270340716 -0.0175875744465049 0  0.04439608695310726 -0.01807389191733877 0  0.0182766464026848 -0.03019791398854459 0  0.02042604155621803 -0.02955189065163524 0  0.0197299190175258 -0.03137365445772399 0  0.01379230725571167 -0.03273328139531854 0  0.01501791995124707 -0.03322599139945957 0  0.02155204304257197 -0.03095624460965786 0  0.02191349065759114 -0.02853819219671415 0  0.02305230917876158 -0.02994446202994329 0  0.01329990464676595 -0.03651525526650057 0  0.01388418709928712 -0.03784026285822586 0  0.01225930750566253 -0.03749767039702803 0  0.01916997955773587 -0.006358580516425179 0  0.01891769558890485 -0.008130063332440622 0  0.02112680287951949 -0.007182894483686506 0  0.02574373313225683 -0.03940295267576162 0  0.02615798433030357 -0.04116160286013801 0  0.0269435244416797 -0.04004845471237795 0  0.04178251006096394 -0.04010753294115062 0  0.03983623436998167 -0.03985552902859401 0  0.03972114507343055 -0.04145797640088977 0  0.0396437922234081 -0.05261372697940805 0  0.03997754446209789 -0.0511507576845467 0  0.04105826602165569 -0.05283533998746703 0  0.01799242424242424 -0.02474747474747475 0  0.02040180503127184 -0.02521033163928926 0  0.01894698490238263 -0.02628094230654713 0  0.03290049244401597 -0.04238139970258363 0  0.03373646600975794 -0.04433173846458283 0  0.03511731072848739 -0.04293786140075419 0  0.02944299575463769 -0.03636599160900477 0  0.03143045878689962 -0.03761358300069494 0  0.02971390183888059 -0.03864436635289215 0  0.03288892842300365 -0.01064996769981432 0  0.03377610246494524 -0.009222958628701677 0  0.0338514560775198 -0.01176286534847487 0  0.02619510373908494 -0.03269003457969499 0  0.0275586803855839 -0.03187539353157028 0  0.02742869656996046 -0.03320634507295468 0  0.02874387712996077 -0.03249477747950242 0  0.02185322155471688 -0.04796886364206988 0  0.02117147262782209 -0.04651482738331746 0  0.02317806061277227 -0.04726948819474937 0  0.02680283228650296 -0.03047836992429558 0  0.0116140763143414 -0.0200294715722589 0  0.01255567389343238 -0.01875669977713929 0  0.01289863565765652 -0.02096070221481863 0  0.01436274818423154 -0.02590687146513118 0  0.01376997500590554 -0.02405110063143605 0  0.01312811451181107 -0.02527868237689237 0  0.01949511126133643 -0.01820257885343882 0  0.02139928780926671 -0.01727718666003668 0  0.0213075702412433 -0.01884184167804088 0  0.02497985483238342 -0.02695583927646755 0  0.02684519161778724 -0.0267528581889257 0  0.02643712606206802 -0.02872481488326032 0  0.015181836533936 -0.03191525840546049 0  0.01661043679905785 -0.0331297702723849 0  0.01668600241955626 -0.03097866552280258 0  0.01731419597837964 -0.008924158772178585 0  0.01661233695577045 -0.007784557864161785 0  0.03981046946253874 -0.03478997461063087 0  0.03923171642400429 -0.03668144702800514 0  0.03815781162724478 -0.03511154933377432 0  0.03750000000000001 -0.0234375 0  0.03984375 -0.02421875 0  0.03962211318754 -0.02284278772918 0  0.0427971170360452 -0.03332935475267775 0  0.04375 -0.02812499999999999 0  0.04385526423731859 -0.03063080462925618 0  0.04505180385920117 -0.02932542691051523 0  0.04351553199404762 -0.003199311755952383 0  0.04512082117182855 -0.003163798472886603 0  0.04401605677651377 -0.001297662503700671 0  0.0390625 -0.0109375 0  0.0372198611846347 -0.01157707748388981 0  0.03759210355280668 -0.00967538398276712 0  0.02477813524465676 -0.01678535620910663 0  0.02619491424319022 -0.0173145931035252 0  0.02598372025486592 -0.01588172067947947 0  0.02238005005866955 -0.01540092856280071 0  0.02431018836113115 -0.01482674916194362 0  0.02332186392374201 -0.01385922635918935 0  0.02884403036520363 -0.006188288310987947 0  0.02969512228739365 -0.00509576713021739 0  0.02778956775368434 -0.005398372891070042 0  0.02670820946356766 -0.004645696321677782 0  0.02871424332948464 -0.004118098239242162 0  0.02465272733345908 -0.006813979148103671 0  0.02264625626357764 -0.007822965885707606 0  0.02414717730575611 -0.008308169938046369 0  0.02810798947459298 -0.007488551531561166 0  0.02945001669058807 -0.007399522190517364 0  0.04184946453364417 -0.03213642906728832 0  0.04771258783191607 -0.01632642762110901 0  0.04588066889095144 -0.01568840097202207 0  0.04557265674790806 -0.01715141471048685 0  0.01595944973070434 -0.01665864079534912 0  0.01490811737430122 -0.01815748923040521 0  0.01620791970234805 -0.01795106480095328 0  0.01520615639784498 -0.01268049936812179 0  0.01475119078452227 -0.0148270426093771 0  0.01391218072944126 -0.01352772495826596 0  0.04683437186992465 -0.007865496666910285 0  0.04815155286411878 -0.006537230068970651 0  0.04728475614638013 -0.00546067617800606 0  0.04527103964454355 -0.01105720832240294 0  0.04606007517071044 -0.00949294628814989 0  0.04403762685149307 -0.01007408063750094 0  0.03949793158361206 -0.004200900444856822 0  0.03721979924877703 -0.0047651458494762 0  0.03878857822445099 -0.006173037334646442 0  0.0328125 -0.002435282534944978 0  0.03421085901935263 -0.004025902711367846 0  0.0344724171911955 -0.001781402336893533 0  0.01398706243080254 -0.0221150896608866 0  0.01258564041330076 -0.02332910432433855 0  0.009194419875177533 -0.02206075900562258 0  0.01024587951903527 -0.02330935545630703 0  0.01055332124836828 -0.02122269026435361 0  0.04537177463340432 -0.04110310095312193 0  0.04358182320191761 -0.04058844132853304 0  0.04571692188981746 -0.03936013908857622 0  0.0314309378115113 -0.04933875006157912 0  0.03311732503601984 -0.04913370444965118 0  0.03188089108105607 -0.03248232675683183 0  0.03342833160640403 -0.03055758844544694 0  0.03201928783414298 -0.02995112197871371 0  0.02861389331433733 -0.03382572902088683 0  0.03040673456957986 -0.03464600775368622 0  0.03013279554826485 -0.03287534219077422 0  0.04322916666666667 -0.01979114533068931 0  0.04127822573223301 -0.02004610997813836 0  0.04153902537676457 -0.01868765030406217 0  0.03530867441197051 -0.01196661860082494 0  0.03531896729860391 -0.01351198182519367 0  0.0390625 -0.0265625 0  0.040625 -0.02578125 0  0.03451316441232027 -0.02102466779383987 0  0.03546014347486393 -0.02326403694972784 0  0.03659060654472844 -0.02205092307513984 0  0.02436828498060588 -0.0409137505577845 0  0.02461490540344126 -0.04309047366990028 0  0.02353555540376851 -0.04211043040913431 0  0.02307251020656784 -0.04577510415514846 0  0.0213724062387126 -0.04492151990354357 0  0.04141166808534667 -0.05159229946940671 0  0.04316771177950235 -0.05055961249403544 0  0.04178869705860652 -0.05022403725139264 0  0.04636190916549267 -0.03071368166901467 0  0.01135833061239636 -0.03411864136424596 0  0.01234457162076637 -0.03542175489045764 0  0.01484586826671411 -0.03892294491435778 0  0.01682229953162608 -0.03997649591280195 0  0.01537065409622362 -0.04031910134814119 0  0.01953075217518766 -0.02799030610032226 0  0.02166562205297151 -0.0393857222105142 0  0.02247248496586275 -0.04111275187432602 0  0.02017264389999211 -0.04022967569049397 0  0.04635416666666667 -0.02552083333333333 0  0.04494656968390805 -0.02386179956896552 0  0.04418402777777777 -0.0259548611111111 0  0.04583333333333334 -0.021875 0  0.04638335129310345 -0.02331178160919541 0  0.04711179217743537 -0.02134513195633085 0  0.0333620841728586 -0.03258513616480065 0  0.0321298013877258 -0.03393512344096119 0  0.028125 -0.028125 0  0.02855580875793202 -0.02965235453857057 0  0.02093749816297855 -0.01566161699728076 0  0.0296875 -0.0234375 0  0.03158523513293739 -0.0234101749700282 0  0.03065193331477824 -0.02450488542779667 0  0.0379771404208144 -0.02861644968655365 0  0.03946078836391552 -0.02808670649690729 0  0.03750
[...]
<PointData  Vectors="flow"> 
<DataArray  type="Float64"  Name="flow"  NumberOfComponents="3" format="ascii">-1.3933486166360333e-06 -2.9775288329775279e-07 0.0000000000000000e+00  -2.8634976165755268e-07 -2.3177237713987135e-07 0.0000000000000000e+00  3.7958499449415094e-06 -2.0627409372827867e-07 0.0000000000000000e+00  1.4898551735163697e-07 -7.4392041667257109e-07 0.0000000000000000e+00  9.0871816054438352e-07 6.0386410354119832e-07 0.0000000000000000e+00  -2.0369378601509240e-06 1.1274554721949009e-07 0.0000000000000000e+00  4.6716128136642747e-08 2.9966657166695157e-08 0.0000000000000000e+00  2.5787717958173631e-07 4.1972331236745778e-08 0.0000000000000000e+00  5.1479525855575196e-07 2.2013324459638892e-07 0.0000000000000000e+00  -3.0753549584634900e-07 4.3771603845761533e-07 0.0000000000000000e+00  3.1397361884889833e-08 1.8975787406932125e-07 0.0000000000000000e+00  4.3114824609868516e-08 -4.6266385095332349e-07 0.0000000000000000e+00  1.6738213478102541e-07 4.8447964911912680e-08 0.0000000000000000e+00  -3.2951315553007835e-07 -4.4950975907057697e-08 0.0000000000000000e+00  1.0287119994710710e-07 2.0911386588540673e-07 0.0000000000000000e+00  -3.8252252672817127e-06 3.2362901776128656e-07 0.0000000000000000e+00  -6.0823336411981764e-07 4.8620222232967381e-07 0.0000000000000000e+00  6.2316676740576834e-07 -9.1338697803224530e-08 0.0000000000000000e+00  5.3179778675278926e-07 -6.8291074801202562e-07 0.0000000000000000e+00  6.3927230104155921e-07 2.7636349546707813e-08 0.0000000000000000e+00  -3.0168140151645699e-07 -1.0685434604755344e-06 0.0000000000000000e+00  1.6898447637139320e-07 8.0398267291621816e-08 0.0000000000000000e+00  4.8975385262318495e-07 2.8768734553805233e-07 0.0000000000000000e+00  -8.0049937486172442e-08 -5.3952683151778765e-07 0.0000000000000000e+00  -6.4425794647134349e-07 -4.5054273008392711e-07 0.0000000000000000e+00  -9.1481871737428055e-08 8.7995642229701096e-08 0.0000000000000000e+00  -1.1491227162281157e-07 3.1898306704467932e-07 0.0000000000000000e+00  6.7637751778525774e-07 1.5507765498888571e-06 0.0000000000000000e+00  -2.0861824939127625e-08 7.9686074590537039e-07 0.0000000000000000e+00  7.1528258960176630e-07 1.0763882910968226e-06 0.0000000000000000e+00  -6.0421664440733552e-08 -1.8794395561121544e-06 0.0000000000000000e+00  -1.2747935114071788e-07 4.9052610243311911e-07 0.0000000000000000e+00  -1.6332366720911487e-06 8.5872813450864373e-07 0.0000000000000000e+00  -1.0586455638665138e-06 3.2258552407216662e-07 0.0000000000000000e+00  4.0703641371552604e-07 -3.4906725953232214e-07 0.0000000000000000e+00  6.5244012977924308e-07 -3.6861540093882598e-07 0.0000000000000000e+00  1.5022464199784227e-07 -2.3223592611319898e-07 0.0000000000000000e+00  -3.4681275852728666e-07 3.5041570008815152e-07 0.0000000000000000e+00  5.8814856163598612e-07 1.1728564628102174e-07 0.0000000000000000e+00  -2.0987174141724409e-06 3.3076274433114710e-06 0.0000000000000000e+00  1.2578421889138255e-06 1.2912586705964343e-06 0.0000000000000000e+00  2.8715510134532383e-06 1.1273464652434861e-07 0.0000000000000000e+00  1.4412886133677753e-06 -2.6629196403688846e-06 0.0000000000000000e+00  -3.1881549139927193e-06 -2.1421695307633959e-06 0.0000000000000000e+00  1.1496077168899566e-06 3.3982352128684906e-06 0.0000000000000000e+00  4.2022745505276770e-07 -4.9240749955453630e-07 0.0000000000000000e+00  -3.6465029633288267e-07 -1.2793249463158154e-07 0.0000000000000000e+00  -2.1419726862668412e-07 -1.9601932176087506e-07 0.0000000000000000e+00  -8.1154152710548089e-08 1.0256574834698491e-07 0.0000000000000000e+00  4.6832196359021915e-07 -6.8315227891188248e-08 0.0000000000000000e+00  1.5777028393549975e-07 -2.1985753109363706e-07 0.0000000000000000e+00  -4.2272932007405429e-07 2.9706156438723392e-09 0.0000000000000000e+00  -2.0499418583219187e-07 5.2599447063870633e-07 0.0000000000000000e+00  7.0439097359764851e-07 3.5071277278880598e-08 0.0000000000000000e+00  -1.0734028935522388e-06 5.8825997217856069e-07 0.0000000000000000e+00  7.7346578066956848e-07 9.4781141861304790e-07 0.0000000000000000e+00  5.5554205580795169e-07 -6.3622221602160152e-07 0.0000000000000000e+00  4.0251688489026583e-07 2.7719081730359695e-08 0.0000000000000000e+00  8.8222824886518810e-08 -1.5565575640487762e-06 0.0000000000000000e+00  8.1732249767024168e-07 -5.1239992689573851e-07 0.0000000000000000e+00  -3.9351573216309881e-07 1.2551121337043284e-07 0.0000000000000000e+00  -4.1296343097441110e-07 2.2599592514333420e-07 0.0000000000000000e+00  -5.8411772534110681e-07 -1.3754740678450302e-06 0.0000000000000000e+00  4.7341484785831956e-07 6.3566675285025283e-07 0.0000000000000000e+00  3.8213325058266283e-07 -6.7292815555484989e-07 0.0000000000000000e+00  1.3178731058964667e-08 5.2543246465597662e-07 0.0000000000000000e+00  -5.0729035025181054e-07 -1.8056481642259151e-07 0.0000000000000000e+00  3.7035660294304424e-07 -6.7182651488456959e-08 0.0000000000000000e+00  1.7316306914369846e-06 1.7067095691305481e-06 0.0000000000000000e+00  1.8251666791627943e-06 -2.3239424737345708e-06 0.0000000000000000e+00  2.1036004983041111e-06 5.7231296336724280e-07 0.0000000000000000e+00  5.6825472996280702e-07 -3.3411561584487402e-07 0.0000000000000000e+00  8.4528413547863145e-07 -9.3225828120421935e-07 0.0000000000000000e+00  1.3441074465535368e-07 -1.3232836952528316e-06 0.0000000000000000e+00  -1.1426114589404894e-07 4.4548328384644688e-06 0.0000000000000000e+00  -1.5448742303030836e-06 -7.2186666081378923e-07 0.0000000000000000e+00  2.1645617346782713e-06 -7.8573818286690504e-07 0.0000000000000000e+00  4.1101111908902132e-07 4.6021437766454924e-07 0.0000000000000000e+00  -5.9531455032614463e-07 1.4156880479781535e-07 0.0000000000000000e+00  3.0080508276393172e-07 1.0317306618888777e-07 0.0000000000000000e+00  -1.1473036123067415e-06 2.3906067385762481e-06 0.0000000000000000e+00  1.3538036026691406e-06 -2.1457585486126185e-06 0.0000000000000000e+00  6.7985509099723484e-07 -6.6584627920235575e-07 0.0000000000000000e+00  3.2359473087949639e-07 -4.0943283877804122e-07 0.0000000000000000e+00  -2.4753002417038330e-07 2.8108556171973991e-07 0.0000000000000000e+00  -9.3759351559438378e-07 -1.4046118663244760e-07 0.0000000000000000e+00  7.1782897288588009e-07 -1.3368544920372031e-06 0.0000000000000000e+00  1.2978177739154009e-06 -1.0717831907142845e-06 0.0000000000000000e+00  -1.4027238683887628e-07 1.1159531217895769e-06 0.0000000000000000e+00  8.1605240672287237e-08 -8.8128139271386082e-08 0.0000000000000000e+00  -6.3438769776805958e-07 -9.3878968592389311e-07 0.0000000000000000e+00  1.7724715144569750e-08 1.9525826641429838e-06 0.0000000000000000e+00  5.3231553525559028e-07 -1.2478628535887412e-06 0.0000000000000000e+00  1.7070589046159731e-08 -2.3004909413517104e-06 0.0000000000000000e+00  -6.4931798514210935e-07 2.3047517660735319e-06 0.0000000000000000e+00  2.5812598970127596e-06 2.1249828898501960e-07 0.0000000000000000e+00  2.1238553997695399e-07 4.2958305397952094e-07 0.0000000000000000e+00  -4.9167385350441618e-07 -7.3921239299190153e-08 0.0000000000000000e+00  4.0063125356632311e-07 4.0122174661509613e-07 0.0000000000000000e+00  7.7018966589426683e-07 6.8700068568040144e-07 0.0000000000000000e+00  2.0079732658288086e-07 -1.3518759026412846e-07 0.0000000000000000e+00  -3.2967442836078414e-07 -1.2022397450384923e-07 0.0000000000000000e+00  -3.1198322751765092e-07 3.0121795051824339e-09 0.0000000000000000e+00  -1.4609022411972252e-07 1.0766074389514088e-07 0.0000000000000000e+00  -4.2192804966691175e-07 1.8869762107857540e-07 0.0000000000000000e+00  3.6129541509575467e-07 4.5610586197230673e-07 0.0000000000000000e+00  2.8495476272501222e-07 3.7408930292580340e-07 0.0000000000000000e+00  1.4295216180470292e-07 -1.2086533843339251e-07 0.0000000000000000e+00  -3.4513738331950825e-08 -3.8726020487988569e-07 0.0000000000000000e+00  -6.4815469726783884e-08 -3.1666079357395556e-07 0.0000000000000000e+00  -1.0736060355579670e-06 1.8439394864786689e-07 0.0000000000000000e+00  6.6208202632903228e-08 -1.1238834323751258e-07 0.0000000000000000e+00  -3.3700366890006084e-07 7.8039282768040907e-07 0.0000000000000000e+00  7.8950788346095308e-08 -2.5536367636082981e-07 0.0000000000000000e+00  -7.6066890361248051e-08 -4.9342812863115648e-08 0.0000000000000000e+00  8.1445281192189893e-07 -2.6830206282953992e-07 0.0000000000000000e+00  1.1899630954422534e-06 -1.4098165859642977e-07 0.0000000000000000e+00  1.2372097770592475e-07 -3.0090875337552506e-07 0.0000000000000000e+00  1.5908827567550411e-07 -8.7932514754181685e-07 0.0000000000000000e+00  -5.8178705348185526e-07 1.5437506995025790e-07 0.0000000000000000e+00  1.8056064700427177e-06 -2.8218458758120840e-07 0.0000000000000000e+00  1.3698386632461723e-06 -9.9724719620679275e-08 0.0000000000000000e+00  4.1748907627836229e-07 -2.3194782001727411e-07 0.0000000000000000e+00  -4.6468522975784876e-07 5.2829985763757514e-07 0.0000000000000000e+00  -9.0535514991213686e-08 4.0137110153324660e-07 0.0000000000000000e+00  8.6498698854839245e-08 6.9048105503632179e-08 0.0000000000000000e+00  5.1516319034728902e-08 -9.1802295974249158e-08 0.0000000000000000e+00  -5.2760281443131667e-07 1.0758262060855276e-06 0.0000000000000000e+00  4.0849927542988410e-07 -1.0394592958376745e-07 0.0000000000000000e+00  1.4054487818601206e-06 -4.8335583801527338e-07 0.0000000000000000e+00  -2.6613653357971501e-07 1.1645940431002896e-07 0.0000000000000000e+00  -4.2270299886067586e-07 -1.2682956612594574e-07 0.0000000000000000e+00  5.2174454147699424e-07 -1.5222190196207112e-08 0.0000000000000000e+00  -1.6514823345494514e-07 -2.2225867833653970e-08 0.0000000000000000e+00  -3.6448044539818835e-07 -1.3463360422891122e-07 0.0000000000000000e+00  3.0739432166849884e-07 2.7922526896672006e-07 0.0000000000000000e+00  8.9890684978823790e-07 -1.2893329249147330e-06 0.0000000000000000e+00  -1.3339587590740530e-06 -6.5170779468261532e-08 0.0000000000000000e+00  -1.5677033334873395e-06 1.1419456013072188e-06 0.0000000000000000e+00  9.0116405060199265e-07 -4.6712402422027420e-08 0.0000000000000000e+00  -8.7560249725482318e-08 1.0015444190523658e-06 0.0000000000000000e+00  -4.3382754710113119e-07 8.2503632000613951e-08 0.0000000000000000e+00  1.4999377752011801e-07 -5.8399871481485994e-08 0.0000000000000000e+00  7.4083113643241057e-08 -2.5710553590857223e-07 0.0000000000000000e+00  -5.7562477128433673e-08 -9.4445416176308782e-07 0.0000000000000000e+00  2.6195804172179169e-06 4.1158491894472150e-07 0.0000000000000000e+00  2.4714139803780903e-07 4.1423228298800003e-07 0.0000000000000000e+00  6.4060616717955911e-07 2.8702338822486008e-07 0.0000000000000000e+00  -6.3950728059252180e-07 -5.0116279206952794e-07 0.0000000000000000e+00  -7.8503976756863251e-08 -9.5288064909494775e-07 0.0000000000000000e+00  1.9067919929793674e-07 3.0863244103099694e-08 0.0000000000000000e+00  -2.3170726743575359e-08 -3.0909271765451796e-08 0.0000000000000000e+00  1.5425278917657018e-06 3.0279996784847499e-07 0.0000000000000000e+00  -1.6230323109362691e-08 1.6533048076152437e-07 0.0000000000000000e+00  1.1740713947987461e-08 5.8409959327811771e-08 0.0000000000000000e+00  -1.4280560707853072e-07 2.1972773728209370e-07 0.0000000000000000e+00  1.5613376885490169e-07 -3.8419823188045056e-08 0.0000000000000000e+00  -3.1539670817666636e-08 4.0040692526245333e-08 0.0000000000000000e+00  -2.9939539029679166e-07 7.0642999347229764e-08 0.0000000000000000e+00  -2.5101899596556765e-08 -5.3837893842862684e-08 0.0000000000000000e+00  8.5865870289880020e-08 -9.3941776891218530e-08 0.0000000000000000e+00  1.3629044433795872e-07 -2.3796155053623637e-07 0.0000000000000000e+00  4.6422784537784894e-07 5.2199167974223192e-07 0.0000000000000000e+00  6.5813426230366764e-07 -1.5419475905687090e-06 0.0000000000000000e+00  -9.5020238346652583e-07 -4.5445323441048135e-07 0.0000000000000000e+00  -2.5771397583737726e-07 -2.7194635118180202e-06 0.0000000000000000e+00  -1.5280356346208200e-06 -3.1297861329978374e-07 0.0000000000000000e+00  1.0588539190316373e-06 -5.2829513832851234e-07 0.0000000000000000e+00  2.4464366622897795e-07 1.9217139237539905e-07 0.0000000000000000e+00  -5.0402751334110760e-07 2.2692883762391981e-07 0.0000000000000000e+00  2.0148582577595146e-07 2.1601244706850220e-08 0.0000000000000000e+00  -1.6301627691653126e-07 7.3081037453632421e-07 0.0000000000000000e+00  1.3620369598380553e-07 -1.4552467600582115e-07 0.0000000000000000e+00  6.9769183249563659e-07 1.0038966489677899e-06 0.0000000000000000e+00  -3.1018303520753322e-07 -5.7102168893814163e-07 0.0000000000000000e+00  -9.9729405641940283e-08 -1.8997638312631185e-06 0.0000000000000000e+00  -6.8963419599480731e-08 1.8061978204552627e-06 0.0000000000000000e+00  3.5923861984058235e-06 -1.3481739819669150e-06 0.0000000000000000e+00  8.8343973164096191e-07 -6.7142445188908370e-07 0.0000000000000000e+00  -4.7470687937238793e-07 -9.5720362329335507e-07 0.0000000000000000e+00  1.2151179512191624e-07 1.1442932146718982e-06 0.0000000000000000e+00  7.6839480300246626e-07 2.3930531113906527e-06 0.0000000000000000e+00  5.5030999168914461e-07 -9.1499616603799101e-07 0.0000000000000000e+00  -5.4187747428872280e-07 -6.0107922219252102e-07 0.0000000000000000e+00  -4.3131872961194988e-07 -3.3845098493109772e-07 0.0000000000000000e+00  6.2062482774154971e-07 -6.8360550403400746e-08 0.0000000000000000e+00  5.3756582248918243e-08 -5.9684211143289125e-07 0.0000000000000000e+00  -1.9008083506291449e-07 9.3017780890643015e-07 0.0000000000000000e+00  5.3818649368100000e-07 -1.2277567147614680e-06 0.0000000000000000e+00  -1.4522996083623830e-07 2.4928452560086571e-07 0.0000000000000000e+00  4.1831426254663668e-07 4.4578012953630670e-07 0.0000000000000000e+00  -5.0150313146397300e-07 3.5696316316344366e-07 0.0000000000000000e+00  -2.7775834986857401e-07 -7.7810664276041712e-07 0.0000000000000000e+00  6.0687756204061829e-07 2.2080123575131552e-07 0.0000000000000000e+00  -4.0443580453294322e-06 2.0296273919060348e-07 0.0000000000000000e+00  1.9302902260767063e-06 4.0149333590002492e-07 0.0000000000000000e+00  -1.4186422486593082e-06 -4.8381732079470256e-06 0.0000000000000000e+00  8.4686365115645099e-08 -4.0861313099905259e-06 0.0000000000000000e+00  -1.9242135306042478e-06 -9.0801634268795023e-07 0.0000000000000000e+00  -3.9221768252900358e-07 -2.4820616467188535e-06 0.0000000000000000e+00  5.4268247141230870e-07 -1.0314234873716043e-06 0.0000000000000000e+00  1.1421809431812234e-06 7.8761908008412155e-07 0.0000000000000000e+00  -9.4460797244292474e-08 -5.9105125419477061e-07 0.0000000000000000e+00  8.4212678517821607e-07 -1.6727466569325771e-07 0.0000000000000000e+00  -1.7870783643728773e-06 1.6137650795445424e-07 0.0000000000000000e+00  5.7683767180996656e-07 1.0385313876099653e-06 0.0000000000000000e+00  -9.6749049688971779e-07 -1.2067856066225352e-06 0.0000000000000000e+00  1.2809317538721362e-06 -1.6020491466518650e-06 0.0000000000000000e+00  -4.4331789946797241e-08 -1.6875929008157004e-07 0.0000000000000000e+00  3.2730709538277041e-06 6.1208029052866418e-07 0.0000000000000000e+00  8.6197179230695764e-08 -1.5159596236562247e-06 0.0000000000000000e+00  -8.2822064719989480e-07 -1.2421054108430111e-06 0.0000000000000000e+00  -7.8510675823718433e-07 -5.9222770215275660e-07 0.0000000000000000e+00  5.8673616197717058e-07 9.7832426702268487e-07 0.0000000000000000e+00  1.8623492617313904e-07 -3.2132201050223607e-07 0.0000000000000000e+00  1.7273596669768823e-07 -1.6974058104964983e-06 0.0000000000000000e+00  -1.7377900575173376e-06 8.1224657096715470e-07 0.0000000000000000e+00  5.1471486679377274e-07 3.5786392720381599e-07 0.0000000000000000e+00  -9.5126114371715026e-08 6.9407873817836100e-07 0.0000000000000000e+00  -5.4378414395797654e-07 1.0064647181370903e-06 0.0000000000000000e+00  2.1382185650873899e-08 1.5773199456565009e-07 0.0000000000000000e+00  -1.4165930731837413e-07 3.2660216982120025e-07 0.0000000000000000e+00  9.4686700333455672e-08 -7.8111493438182063e-07 0.0000000000000000e+00  3.4830932291976983e-08 5.5745065656874585e-08 0.0000000000000000e+00  5.4366095102570124e-08 -5.1399579809043747e-07 0.0000000000000000e+00  2.1573222904888834e-09 -1.9971043280613228e-07 0.0000000000000000e+00  -9.5741832202958761e-07 1.4130721676856255e-06 0.0000000000000000e+00  7.9240251623142946e-07 -2.3300801655820767e-06 0.0000000000000000e+00  -4.6255221087250068e-07 -8.9760967474248784e-07 0.0000000000000000e+00  8.9293883566072266e-07 -5.8352812879938530e-07 0.0000000000000000e+00  3.5403700744046990e-07 5.7011404711791999e-07 0.0000000000000000e+00  4.9579855927188142e-07 -1.2058376969068332e-06 0.0000000000000000e+00  -4.6593867774185583e-07 3.8466796959970055e-07 0.0000000000000000e+00  -4.0353420313198796e-08 9.0025133608469062e-08 0.0000000000000000e+00  -7.0163090687199524e-08 -4.7492218848876927e-08 0.0000000000000000e+00  6.3288422561297113e-07 4.2563243721185023e-07 0.0000000000000000e+00  3.9969181164665740e-08 3.2183837301493972e-09 0.0000000000000000e+00  -1.1167628563018362e-06 1.4866671890166252e-07 0.0000000000000000e+00  -4.3485218809584294e-07 -3.8613434740856483e-07 0.0000000000000000e+00  2.1591924523140959e-07 2.8955699532677304e-07 0.0000000000000000e+00  -7.6116804317573890e-08 -2.3833476800330192e-07 0.0000000000000000e+00  -1.2861225762496913e-06 6.9983796625572028e-08 0.0000000000000000e+00  -2.5900920918651525e-06 1.7915258838995466e-06 0.0000000000000000e+00  2.8591238792465243e-08 -3.2143524926673001e-07 0.0000000000000000e+00  6.1850925116560649e-08 1.8736373265397020e-07 0.0000000000000000e+00  -3.1343884043921888e-07 -7.0089057308725131e-07 0.0000000000000000e+00  -2.2436427064443771e-07 9.9013447181007270e-08 0.0000000000000000e+00  -4.9151022660052403e-07 -9.0102072298857853e-07 0.0000000000000000e+00  8.2736416660375581e-07 -9.4750872250852816e-08 0.0000000000000000e+00  -4.9223320320646331e-07 1.1770268559246854e-06 0.0000000000000000e+00  7.7507947710679263e-07 1.0503067481312069e-06 0.0000000000000000e+00  1.3316911298992055e-06 1.8060931184847887e-06 0.0000000000000000e+00  -1.6603512457994582e-06 -1.9342872488270702e-06 0.0000000000000000e+00  2.5256063245301808e-09 -1.3813155562206643e-06 0.0000000000000000e+00  -3.7630997605440236e-07 -2.6744279972822409e-07 0.0000000000000000e+00  -1.4073697737921781e-07 1.8372253086104322e-07 0.0000000000000000e+00  4.4407764502699655e-07 -8.6644105456533740e-08 0.0000000000000000e+00  7.4767151464750450e-08 4.4282936585374100e-08 0.0000000000000000e+00  -6.1312259036244942e-07 -2.3545982373541797e-07 0.0000000000000000e+00  -1.2627957674899853e-07 -2.4823296990835947e-07 0.0000000000000000e+00  6.6050209384217515e-07 3.3943449483411004e-06 0.0000000000000000e+00  4.1164888981036963e-08 -3.3854420658727782e-07 0.0000000000000000e+00  -4.6210713472668490e-07 5.0252549602163323e-07 0.0000000000000000e+00  -1.5569072827980490e-07 -2.5441513607791709e-07 0.0000000000000000e+00  2.0953199962182899e-07 2.5745573926198192e-07 0.0000000000000000e+00  1.8567981844457004e-06 -4.5852797368498630e-06 0.0000000000000000e+00  -1.5796020043263857e-06 2.2799583192140646e-06 0.0000000000000000e+00  3.8933449383347846e-07 1.6314111818354233e-06 0.0000000000000000e+00  -4.6235270961887566e-07 -5.0476502189467133e-07 0.0000000000000000e+00  8.0766106157536535e-07 -6.8770223210038743e-07 0.0000000000000000e+00  -1.6426578449015151e-06 7.3694699767771244e-07 0.0000000000000000e+00  4.8198354632293124e-07 -9.6572590999128900e-07 0.0000000000000000e+00  -3.2311095538094037e-07 8.4437215648975235e-07 0.0000000000000000e+00  3.9697303391325485e-08 -1.2329681822511491e-07 0.0000000000000000e+00  -1.9713764921988951e-07 9.4022788330324949e-07 0.0000000000000000e+00  1.2712004148532080e-06 -4.2782909108045407e-07 0.0000000000000000e+00  3.1715674237204207e-07 -1.4449939978078239e-06 0.0000000000000000e+00  -1.7923843577710309e-06 -7.2837697773754526e-07 0.0000000000000000e+00  4.4489595720152446e-07 1.6810001012918070e-06 0.0000000000000000e+00  -1.2511790364857399e-07 -3.5477530161470897e-07 0.0000000000000000e+00  -1.9891836148785527e