<?xml version="1.0"?>
<VTKFile type="UnstructuredGrid"  version="0.1"  >
<UnstructuredGrid>
<Piece  NumberOfPoints="1661" NumberOfCells="3200">
<Points>
<DataArray  type="Float64"  NumberOfComponents="3"  format="ascii">-0.25 -1 0  -0.225 -1 0  -0.2 -1 0  -0.175 -1 0  -0.15 -1 0  -0.125 -1 0  -0.1 -1 0  -0.07500000000000001 -1 0  -0.04999999999999999 -1 0  -0.02499999999999999 -1 0  0 -1 0  0.02500000000000002 -1 0  0.04999999999999999 -1 0  0.07500000000000001 -1 0  0.09999999999999998 -1 0  0.125 -1 0  0.15 -1 0  0.175 -1 0  0.2 -1 0  0.225 -1 0  0.25 -1 0  -0.25 -0.975 0  -0.225 -0.975 0  -0.2 -0.975 0  -0.175 -0.975 0  -0.15 -0.975 0  -0.125 -0.975 0  -0.1 -0.975 0  -0.07500000000000001 -0.975 0  -0.04999999999999999 -0.975 0  -0.02499999999999999 -0.975 0  0 -0.975 0  0.02500000000000002 -0.975 0  0.04999999999999999 -0.975 0  0.07500000000000001 -0.975 0  0.09999999999999998 -0.975 0  0.125 -0.975 0  0.15 -0.975 0  0.175 -0.975 0  0.2 -0.975 0  0.225 -0.975 0  0.25 -0.975 0  -0.25 -0.95 0  -0.225 -0.95 0  -0.2 -0.95 0  -0.175 -0.95 0  -0.15 -0.95 0  -0.125 -0.95 0  -0.1 -0.95 0  -0.07500000000000001 -0.95 0  -0.04999999999999999 -0.95 0  -0.02499999999999999 -0.95 0  0 -0.95 0  0.02500000000000002 -0.95 0  0.04999999999999999 -0.95 0  0.07500000000000001 -0.95 0  0.09999999999999998 -0.95 0  0.125 -0.95 0  0.15 -0.95 0  0.175 -0.95 0  0.2 -0.95 0  0.225 -0.95 0  0.25 -0.95 0  -0.25 -0.925 0  -0.225 -0.925 0  -0.2 -0.925 0  -0.175 -0.925 0  -0.15 -0.925 0  -0.125 -0.925 0  -0.1 -0.925 0  -0.07500000000000001 -0.925 0  -0.04999999999999999 -0.925 0  -0.02499999999999999 -0.925 0  0 -0.925 0  0.02500000000000002 -0.925 0  0.04999999999999999 -0.925 0  0.07500000000000001 -0.925 0  0.09999999999999998 -0.925 0  0.125 -0.925 0  0.15 -0.925 0  0.175 -0.925 0  0.2 -0.925 0  0.225 -0.925 0  0.25 -0.925 0  -0.25 -0.9 0  -0.225 -0.9 0  -0.2 -0.9 0  -0.175 -0.9 0  -0.15 -0.9 0  -0.125 -0.9 0  -0.1 -0.9 0  -0.07500000000000001 -0.9 0  -0.04999999999999999 -0.9 0  -0.02499999999999999 -0.9 0  0 -0.9 0  0.02500000000000002 -0.9 0  0.04999999999999999 -0.9 0  0.07500000000000001 -0.9 0  0.09999999999999998 -0.9 0  0.125 -0.9 0  0.15 -0.9 0  0.175 -0.9 0  0.2 -0.9 0  0.225 -0.9 0  0.25 -0.9 0  -0.25 -0.875 0  -0.225 -0.875 0  -0.2 -0.875 0  -0.175 -0.875 0  -0.15 -0.875 0  -0.125 -0.875 0  -0.1 -0.875 0  -0.07500000000000001 -0.875 0  -0.04999999999999999 -0.875 0  -0.02499999999999999 -0.875 0  0 -0.875 0  0.02500000000000002 -0.875 0  0.04999999999999999 -0.875 0  0.07500000000000001 -0.875 0  0.09999999999999998 -0.875 0  0.125 -0.875 0  0.15 -0.875 0  0.175 -0.875 0  0.2 -0.875 0  0.225 -0.875 0  0.25 -0.875 0  -0.25 -0.85 0  -0.225 -0.85 0  -0.2 -0.85 0  -0.175 -0.85 0  -0.15 -0.85 0  -0.125 -0.85 0  -0.1 -0.85 0  -0.07500000000000001 -0.85 0  -0.04999999999999999 -0.85 0  -0.02499999999999999 -0.85 0  0 -0.85 0  0.02500000000000002 -0.85 0  0.04999999999999999 -0.85 0  0.07500000000000001 -0.85 0  0.09999999999999998 -0.85 0  0.125 -0.85 0  0.15 -0.85 0  0.175 -0.85 0  0.2 -0.85 0  0.225 -0.85 0  0.25 -0.85 0  -0.25 -0.825 0  -0.225 -0.825 0  -0.2 -0.825 0  -0.175 -0.825 0  -0.15 -0.825 0  -0.125 -0.825 0  -0.1 -0.825 0  -0.07500000000000001 -0.825 0  -0.04999999999999999 -0.825 0  -0.02499999999999999 -0.825 0  0 -0.825 0  0.02500000000000002 -0.825 0  0.04999999999999999 -0.825 0  0.07500000000000001 -0.825 0  0.09999999999999998 -0.825 0  0.125 -0.825 0  0.15 -0.825 0  0.175 -0.825 0  0.2 -0.825 0  0.225 -0.825 0  0.25 -0.825 0  -0.25 -0.8 0  -0.225 -0.8 0  -0.2 -0.8 0  -0.175 -0.8 0  -0.15 -0.8 0  -0.125 -0.8 0  -0.1 -0.8 0  -0.07500000000000001 -0.8 0  -0.04999999999999999 -0.8 0  -0.02499999999999999 -0.8 0  0 -0.8 0  0.02500000000000002 -0.8 0  0.04999999999999999 -0.8 0  0.07500000000000001 -0.8 0  0.09999999999999998 -0.8 0  0.125 -0.8 0  0.15 -0.8 0  0.175 -0.8 0  0.2 -0.8 0  0.225 -0.8 0  0.25 -0.8 0  -0.25 -0.775 0  -0.225 -0.775 0  -0.2 -0.775 0  -0.175 -0.775 0  -0.15 -0.775 0  -0.125 -0.775 0  -0.1 -0.775 0  -0.07500000000000001 -0.775 0  -0.04999999999999999 -0.775 0  -0.02499999999999999 -0.775 0  0 -0.775 0  0.02500000000000002 -0.775 0  0.04999999999999999 -0.775 0  0.07500000000000001 -0.775 0  0.09999999999999998 -0.775 0  0.125 -0.775 0  0.15 -0.775 0  0.175 -0.775 0  0.2 -0.775 0  0.225 -0.775 0  0.25 -0.775 0  -0.25 -0.75 0  -0.225 -0.75 0  -0.2 -0.75 0  -0.175 -0.75 0  -0.15 -0.75 0  -0.125 -0.75 0  -0.1 -0.75 0  -0.07500000000000001 -0.75 0  -0.04999999999999999 -0.75 0  -0.02499999999999999 -0.75 0  0 -0.75 0  0.02500000000000002 -0.75 0  0.04999999999999999 -0.75 0  0.07500000000000001 -0.75 0  0.09999999999999998 -0.75 0  0.125 -0.75 0  0.15 -0.75 0  0.175 -0.75 0  0.2 -0.75 0  0.225 -0.75 0  0.25 -0.75 0  -0.25 -0.725 0  -0.225 -0.725 0  -0.2 -0.725 0  -0.175 -0.725 0  -0.15 -0.725 0  -0.125 -0.725 0  -0.1 -0.725 0  -0.07500000000000001 -0.725 0  -0.04999999999999999 -0.725 0  -0.02499999999999999 -0.725 0  0 -0.725 0  0.02500000000000002 -0.725 0  0.04999999999999999 -0.725 0  0.07500000000000001 -0.725 0  0.09999999999999998 -0.725 0  0.125 -0.725 0  0.15 -0.725 0  0.175 -0.725 0  0.2 -0.725 0  0.225 -0.725 0  0.25 -0.725 0  -0.25 -0.7 0  -0.225 -0.7 0  -0.2 -0.7 0  -0.175 -0.7 0  -0.15 -0.7 0  -0.125 -0.7 0  -0.1 -0.7 0  -0.07500000000000001 -0.7 0  -0.04999999999999999 -0.7 0  -0.02499999999999999 -0.7 0  0 -0.7 0  0.02500000000000002 -0.7 0  0.04999999999999999 -0.7 0  0.07500000000000001 -0.7 0  0.09999999999999998 -0.7 0  0.125 -0.7 0  0.15 -0.7 0  0.175 -0.7 0  0.2 -0.7 0  0.225 -0.7 0  0.25 -0.7 0  -0.25 -0.675 0  -0.225 -0.675 0  -0.2 -0.675 0  -0.175 -0.675 0  -0.15 -0.675 0  -0.125 -0.675 0  -0.1 -0.675 0  -0.07500000000000001 -0.675 0  -0.04999999999999999 -0.675 0  -0.02499999999999999 -0.675 0  0 -0.675 0  0.02500000000000002 -0.675 0  0.04999999999999999 -0.675 0  0.07500000000000001 -0.675 0  0.09999999999999998 -0.675 0  0.125 -0.675 0  0.15 -0.675 0  0.175 -0.675 0  0.2 -0.675 0  0.225 -0.675 0  0.25 -0.675 0  -0.25 -0.65 0  -0.225 -0.65 0  -0.2 -0.65 0  -0.175 -0.65 0  -0.15 -0.65 0  -0.125 -0.65 0  -0.1 -0.65 0  -0.07500000000000001 -0.65 0  -0.04999999999999999 -0.65 0  -0.02499999999999999 -0.65 0  0 -0.65 0  0.02500000000000002 -0.65 0  0.04999999999999999 -0.65 0  0.07500000000000001 -0.65 0  0.09999999999999998 -0.65 0  0.125 -0.65 0  0.15 -0.65 0  0.175 -0.65 0  0.2 -0.65 0  0.225 -0.65 0  0.25 -0.65 0  -0.25 -0.625 0  -0.225 -0.625 0  -0.2 -0.625 0  -0.175 -0.625 0  -0.15 -0.625 0  -0.125 -0.625 0  -0.1 -0.625 0  -0.07500000000000001 -0.625 0  -0.04999999999999999 -0.625 0  -0.02499999999999999 -0.625 0  0 -0.625 0  0.02500000000000002 -0.625 0  0.04999999999999999 -0.625 0  0.07500000000000001 -0.625 0  0.09999999999999998 -0.625 0  0.125 -0.625 0  0.15 -0.625 0  0.175 -0.625 0  0.2 -0.625 0  0.225 -0.625 0  0.25 -0.625 0  -0.25 -0.6 0  -0.225 -0.6 0  -0.2 -0.6 0  -0.175 -0.6 0  -0.15 -0.6 0  -0.125 -0.6 0  -0.1 -0.6 0  -0.07500000000000001 -0.6 0  -0.04999999999999999 -0.6 0  -0.02499999999999999 -0.6 0  0 -0.6 0  0.02500000000000002 -0.6 0  0.04999999999999999 -0.6 0  0.07500000000000001 -0.6 0  0.09999999999999998 -0.6 0  0.125 -0.6 0  0.15 -0.6 0  0.175 -0.6 0  0.2 -0.6 0  0.225 -0.6 0  0.25 -0.6 0  -0.25 -0.575 0  -0.225 -0.575 0  -0.2 -0.575 0  -0.175 -0.575 0  -0.15 -0.575 0  -0.125 -0.575 0  -0.1 -0.575 0  -0.07500000000000001 -0.575 0  -0.04999999999999999 -0.575 0  -0.02499999999999999 -0.575 0  0 -0.575 0  0.02500000000000002 -0.575 0  0.04999999999999999 -0.575 0  0.07500000000000001 -0.575 0  0.09999999999999998 -0.575 0  0.125 -0.575 0  0.15 -0.575 0  0.175 -0.575 0  0.2 -0.575 0  0.225 -0.575 0  0.25 -0.575 0  -0.25 -0.55 0  -0.225 -0.55 0  -0.2 -0.55 0  -0.175 -0.55 0  -0.15 -0.55 0  -0.125 -0.55 0  -0.1 -0.55 0  -0.07500000000000001 -0.55 0  -0.04999999999999999 -0.55 0  -0.02499999999999999 -0.55 0  0 -0.55 0  0.02500000000000002 -0.55 0  0.04999999999999999 -0.55 0  0.07500000000000001 -0.55 0  0.09999999999999998 -0.55 0  0.125 -0.55 0  0.15 -0.55 0  0.175 -0.55 0  0.2 -0.55 0  0.225 -0.55 0  0.25 -0.55 0  -0.25 -0.525 0  -0.225 -0.525 0  -0.2 -0.525 0  -0.175 -0.525 0  -0.15 -0.525 0  -0.125 -0.525 0  -0.1 -0.525 0  -0.07500000000000001 -0.525 0  -0.04999999999999999 -0.525 0  -0.02499999999999999 -0.525 0  0 -0.525 0  0.02500000000000002 -0.525 0  0.04999999999999999 -0.525 0  0.07500000000000001 -0.525 0  0.09999999999999998 -0.525 0  0.125 -0.525 0  0.15 -0.525 0  0.175 -0.525 0  0.2 -0.525 0  0.225 -0.525 0  0.25 -0.525 0  -0.25 -0.5 0  -0.225 -0.5 0  -0.2 -0.5 0  -0.175 -0.5 0  -0.15 -0.5 0  -0.125 -0.5 0  -0.1 -0.5 0  -0.07500000000000001 -0.5 0  -0.04999999999999999 -0.5 0  -0.02499999999999999 -0.5 0  0 -0.5 0  0.02500000000000002 -0.5 0  0.04999999999999999 -0.5 0  0.07500000000000001 -0.5 0  0.09999999999999998 -0.5 0  0.125 -0.5 0  0.15 -0.5 0  0.175 -0.5 0  0.2 -0.5 0  0.225 -0.5 0  0.25 -0.5 0  -0.25 -0.475 0  -0.225 -0.475 0  -0.2 -0.475 0  -0.175 -0.475 0  -0.15 -0.475 0  -0.125 -0.475 0  -0.1 -0.475 0  -0.07500000000000001 -0.475 0  -0.04999999999999999 -0.475 0  -0.02499999999999999 -0.475 0  0 -0.475 0  0.02500000000000002 -0.475 0  0.04999999999999999 -0.475 0  0.07500000000000001 -0.475 0  0.09999999999999998 -0.475 0  0.125 -0.475 0  0.15 -0.475 0  0.175 -0.475 0  0.2 -0.475 0  0.225 -0.475 0  0.25 -0.475 0  -0.25 -0.45 0  -0.225 -0.45 0  -0.2 -0.45 0  -0.175 -0.45 0  -0.15 -0.45 0  -0.125 -0.45 0  -0.1 -0.45 0  -0.07500000000000001 -0.45 0  -0.04999999999999999 -0.45 0  -0.02499999999999999 -0.45 0  0 -0.45 0  0.02500000000000002 -0.45 0  0.04999999999999999 -0.45 0  0.07500000000000001 -0.45 0  0.09999999999999998 -0.45 0  0.125 -0.45 0  0.15 -0.45 0  0.175 -0.45 0  0.2 -0.45 0  0.225 -0.45 0  0.25 -0.45 0  -0.25 -0.425 0  -0.225 -0.425 0  -0.2 -0.425 0  -0.175 -0.425 0  -0.15 -0.425 0  -0.125 -0.425 0  -0.1 -0.425 0  -0.07500000000000001 -0.425 0  -0.04999999999999999 -0.425 0  -0.02499999999999999 -0.425 0  0 -0.425 0  0.02500000000000002 -0.425 0  0.04999999999999999 -0.425 0  0.07500000000000001 -0.425 0  0.
[...]
<PointData  Vectors="flow"> 
<DataArray  type="Float64"  Name="flow"  NumberOfComponents="3" format="ascii">-1.3419411482338668e+00 2.6839102652910412e+00 0.0000000000000000e+00  6.3586951248049796e-05 2.6839102652813454e+00 0.0000000000000000e+00  -2.6042443176746914e-09 2.6839102652890947e+00 0.0000000000000000e+00  8.2296480101374943e-13 2.6839102652784645e+00 0.0000000000000000e+00  -5.3372485667254733e-12 2.6839102652877118e+00 0.0000000000000000e+00  -5.3184860125055718e-12 2.6839102652839255e+00 0.0000000000000000e+00  -1.1692940525329598e-11 2.6839102652904891e+00 0.0000000000000000e+00  -1.0652951664801681e-11 2.6839102652835689e+00 0.0000000000000000e+00  -1.2614609111729908e-11 2.6839102652866211e+00 0.0000000000000000e+00  -1.3837754854400519e-11 2.6839102652882501e+00 0.0000000000000000e+00  -1.3117656415093571e-11 2.6839102652757005e+00 0.0000000000000000e+00  -1.3004207684952928e-11 2.6839102652856837e+00 0.0000000000000000e+00  -3.2408759785143091e-12 2.6839102652901654e+00 0.0000000000000000e+00  -1.1448860444039496e-11 2.6839102652847950e+00 0.0000000000000000e+00  -1.0665291475683738e-11 2.6839102652903564e+00 0.0000000000000000e+00  -6.7496054616057400e-12 2.6839102652893208e+00 0.0000000000000000e+00  -1.7367976027108686e-12 2.6839102652893292e+00 0.0000000000000000e+00  -8.2681860656154193e-12 2.6839102652912614e+00 0.0000000000000000e+00  2.5941914032380652e-09 2.6839102652879969e+00 0.0000000000000000e+00  -6.3586955346052129e-05 2.6839102652906361e+00 0.0000000000000000e+00  1.3419411482446573e+00 2.6839102652894380e+00 0.0000000000000000e+00  -1.3409238399921759e+00 8.0494138549096039e+00 0.0000000000000000e+00  6.3545426058358870e-05 8.0494138549054526e+00 0.0000000000000000e+00  -2.6026697463545542e-09 8.0494138549086642e+00 0.0000000000000000e+00  -4.8025996657374088e-12 8.0494138549069465e+00 0.0000000000000000e+00  -4.9960737114920492e-12 8.0494138549090888e+00 0.0000000000000000e+00  -4.0417942797051478e-12 8.0494138549028751e+00 0.0000000000000000e+00  -1.0861510543629316e-11 8.0494138549080532e+00 0.0000000000000000e+00  -1.3182551167756463e-11 8.0494138549053886e+00 0.0000000000000000e+00  -8.1288455744690004e-12 8.0494138549046870e+00 0.0000000000000000e+00  -1.6651473176868582e-11 8.0494138549099361e+00 0.0000000000000000e+00  -1.3584294732337060e-11 8.0494138549109735e+00 0.0000000000000000e+00  -6.6965106835982942e-12 8.0494138549078009e+00 0.0000000000000000e+00  -1.4051359499137968e-11 8.0494138549081935e+00 0.0000000000000000e+00  -7.5167858350350033e-12 8.0494138548991589e+00 0.0000000000000000e+00  -7.7421225776451899e-12 8.0494138549059855e+00 0.0000000000000000e+00  -8.0572007516346709e-12 8.0494138549063745e+00 0.0000000000000000e+00  -4.7657290288162922e-12 8.0494138549081047e+00 0.0000000000000000e+00  -3.9661911544303417e-12 8.0494138549055076e+00 0.0000000000000000e+00  2.5974302756217758e-09 8.0494138549089911e+00 0.0000000000000000e+00  -6.3545426014351904e-05 8.0494138549075807e+00 0.0000000000000000e+00  1.3409238399944434e+00 8.0494138549069696e+00 0.0000000000000000e+00  -1.3378732443280685e+00 1.6086622928381242e+01 0.0000000000000000e+00  6.3420785813466353e-05 1.6086622928384930e+01 0.0000000000000000e+00  -2.6063629138304340e-09 1.6086622928378471e+01 0.0000000000000000e+00  -4.7653420996299465e-13 1.6086622928385218e+01 0.0000000000000000e+00  -5.9194599038929243e-12 1.6086622928379839e+01 0.0000000000000000e+00  -7.6884652877823573e-12 1.6086622928385800e+01 0.0000000000000000e+00  -7.3071993953821033e-12 1.6086622928374410e+01 0.0000000000000000e+00  -1.4710932176621658e-11 1.6086622928386355e+01 0.0000000000000000e+00  -7.6404440297362221e-12 1.6086622928386035e+01 0.0000000000000000e+00  -1.0645908578274512e-11 1.6086622928383768e+01 0.0000000000000000e+00  -1.6275116495758434e-11 1.6086622928382425e+01 0.0000000000000000e+00  -9.6908608344242410e-12 1.6086622928382024e+01 0.0000000000000000e+00  -1.4416734213758575e-11 1.6086622928381463e+01 0.0000000000000000e+00  -1.1164050558828766e-11 1.6086622928381864e+01 0.0000000000000000e+00  -6.4167893590924713e-12 1.6086622928378336e+01 0.0000000000000000e+00  -4.9518136393609473e-12 1.6086622928378077e+01 0.0000000000000000e+00  -7.4094857340163217e-12 1.6086622928381288e+01 0.0000000000000000e+00  -1.7599995375588010e-12 1.6086622928377533e+01 0.0000000000000000e+00  2.5997636175317796e-09 1.6086622928381985e+01 0.0000000000000000e+00  -6.3420795365106797e-05 1.6086622928379292e+01 0.0000000000000000e+00  1.3378732443387324e+00 1.6086622928378922e+01 0.0000000000000000e+00  -1.3327933497549298e+00 2.4099438390720199e+01 0.0000000000000000e+00  6.3212936465957315e-05 2.4099438390726291e+01 0.0000000000000000e+00  -2.6104548289641631e-09 2.4099438390724760e+01 0.0000000000000000e+00  -7.3033928243438580e-12 2.4099438390725254e+01 0.0000000000000000e+00  -3.8011467019096122e-12 2.4099438390726636e+01 0.0000000000000000e+00  -6.0315760289466162e-12 2.4099438390726498e+01 0.0000000000000000e+00  -1.1164796253961898e-11 2.4099438390731329e+01 0.0000000000000000e+00  -5.6732270498640960e-12 2.4099438390725197e+01 0.0000000000000000e+00  -1.0715659947277797e-11 2.4099438390728018e+01 0.0000000000000000e+00  -1.5666926754798330e-11 2.4099438390726085e+01 0.0000000000000000e+00  -1.3115599437619782e-11 2.4099438390729421e+01 0.0000000000000000e+00  -1.5176681324490546e-11 2.4099438390725840e+01 0.0000000000000000e+00  -1.0886547145171821e-11 2.4099438390722234e+01 0.0000000000000000e+00  -7.1161654813465030e-12 2.4099438390729439e+01 0.0000000000000000e+00  -9.2846378593680784e-12 2.4099438390728757e+01 0.0000000000000000e+00  -5.6304113218827537e-12 2.4099438390727773e+01 0.0000000000000000e+00  -4.4579719667463908e-12 2.4099438390727251e+01 0.0000000000000000e+00  -4.0045041536500206e-12 2.4099438390730771e+01 0.0000000000000000e+00  2.6082913613852853e-09 2.4099438390725506e+01 0.0000000000000000e+00  -6.3212942036961774e-05 2.4099438390730239e+01 0.0000000000000000e+00  1.3327933497675937e+00 2.4099438390729095e+01 0.0000000000000000e+00  -1.3256908079777023e+00 3.2075703330846494e+01 0.0000000000000000e+00  6.2921674042370248e-05 3.2075703330843652e+01 0.0000000000000000e+00  -2.6209540863844427e-09 3.2075703330850779e+01 0.0000000000000000e+00  2.2677111348897396e-12 3.2075703330848256e+01 0.0000000000000000e+00  -8.6739943657038102e-12 3.2075703330850864e+01 0.0000000000000000e+00  -5.7079787628912562e-12 3.2075703330845201e+01 0.0000000000000000e+00  -9.4923342881871640e-12 3.2075703330845037e+01 0.0000000000000000e+00  -1.3355057505766542e-11 3.2075703330845343e+01 0.0000000000000000e+00  -6.5969586248546551e-12 3.2075703330846217e+01 0.0000000000000000e+00  -1.1024989298041581e-11 3.2075703330846459e+01 0.0000000000000000e+00  -1.6974094265035546e-11 3.2075703330841648e+01 0.0000000000000000e+00  -1.5347547492184752e-11 3.2075703330846224e+01 0.0000000000000000e+00  -1.3247952433190968e-11 3.2075703330847624e+01 0.0000000000000000e+00  -6.8926098343080655e-12 3.2075703330845556e+01 0.0000000000000000e+00  -7.2219498853194480e-12 3.2075703330843801e+01 0.0000000000000000e+00  -8.4589564641626368e-12 3.2075703330848093e+01 0.0000000000000000e+00  -3.3895793679636005e-12 3.2075703330841790e+01 0.0000000000000000e+00  -3.1769687882010481e-12 3.2075703330846451e+01 0.0000000000000000e+00  2.6138999320577281e-09 3.2075703330843560e+01 0.0000000000000000e+00  -6.2921672480172828e-05 3.2075703330847944e+01 0.0000000000000000e+00  1.3256908079703638e+00 3.2075703330845592e+01 0.0000000000000000e+00  -1.3165749399913764e+00 4.0003308752830300e+01 0.0000000000000000e+00  6.2546738019387296e-05 4.0003308752827749e+01 0.0000000000000000e+00  -2.6250914238129496e-09 4.0003308752820658e+01 0.0000000000000000e+00  -8.2823082730070633e-12 4.0003308752823820e+01 0.0000000000000000e+00  -4.3307809570223502e-12 4.0003308752821852e+01 0.0000000000000000e+00  -6.6516850741480673e-12 4.0003308752826229e+01 0.0000000000000000e+00  -1.1355601137739402e-11 4.0003308752824047e+01 0.0000000000000000e+00  -9.1306777201284663e-12 4.0003308752826321e+01 0.0000000000000000e+00  -1.0703568559472387e-11 4.0003308752819983e+01 0.0000000000000000e+00  -1.4793544243498341e-11 4.0003308752823955e+01 0.0000000000000000e+00  -1.3886557432326538e-11 4.0003308752823742e+01 0.0000000000000000e+00  -1.4007897742367291e-11 4.0003308752827230e+01 0.0000000000000000e+00  -1.1724057542069515e-11 4.0003308752824310e+01 0.0000000000000000e+00  -5.7687885178548260e-12 4.0003308752822207e+01 0.0000000000000000e+00  -1.3498667645702771e-11 4.0003308752824509e+01 0.0000000000000000e+00  -5.4703500819032205e-12 4.0003308752819223e+01 0.0000000000000000e+00  -1.8892085951130947e-12 4.0003308752825475e+01 0.0000000000000000e+00  -5.2744650152492602e-12 4.0003308752821766e+01 0.0000000000000000e+00  2.6254165207359712e-09 4.0003308752822342e+01 0.0000000000000000e+00  -6.2546736692478078e-05 4.0003308752819947e+01 0.0000000000000000e+00  1.3165749399736317e+00 4.0003308752821475e+01 0.0000000000000000e+00  -1.3054577443237254e+00 4.7870209615687109e+01 0.0000000000000000e+00  6.2087813709777283e-05 4.7870209615687024e+01 0.0000000000000000e+00  -2.6403755180937501e-09 4.7870209615693511e+01 0.0000000000000000e+00  1.1325746228263819e-12 4.7870209615689767e+01 0.0000000000000000e+00  -6.3082938165693269e-12 4.7870209615695110e+01 0.0000000000000000e+00  -7.9910125862667236e-12 4.7870209615686775e+01 0.0000000000000000e+00  -9.5829526260701294e-12 4.7870209615690818e+01 0.0000000000000000e+00  -1.2384733413948448e-11 4.7870209615687259e+01 0.0000000000000000e+00  -1.0844248355774386e-11 4.7870209615689852e+01 0.0000000000000000e+00  -1.0778805326273886e-11 4.7870209615688985e+01 0.0000000000000000e+00  -1.3818481219688880e-11 4.7870209615689987e+01 0.0000000000000000e+00  -1.2114479300338349e-11 4.7870209615687145e+01 0.0000000000000000e+00  -1.5635553356368904e-11 4.7870209615691216e+01 0.0000000000000000e+00  -9.5124243283438219e-12 4.7870209615686910e+01 0.0000000000000000e+00  -1.1101783827639775e-11 4.7870209615687848e+01 0.0000000000000000e+00  -3.7239159532388166e-12 4.7870209615687081e+01 0.0000000000000000e+00  -5.7769901002477342e-12 4.7870209615684566e+01 0.0000000000000000e+00  -3.6689176514594810e-12 4.7870209615688552e+01 0.0000000000000000e+00  2.6349681185350445e-09 4.7870209615687649e+01 0.0000000000000000e+00  -6.2087821988552504e-05 4.7870209615683791e+01 0.0000000000000000e+00  1.3054577443390594e+00 4.7870209615684509e+01 0.0000000000000000e+00  -1.2923539071176633e+00 5.5664440928007664e+01 0.0000000000000000e+00  6.1544559556710475e-05 5.5664440928002080e+01 0.0000000000000000e+00  -2.6476132895891019e-09 5.5664440928002229e+01 0.0000000000000000e+00  -4.9330558023600804e-12 5.5664440928004105e+01 0.0000000000000000e+00  -4.3577155535346215e-12 5.5664440927997916e+01 0.0000000000000000e+00  -1.0385225155383051e-11 5.5664440928006890e+01 0.0000000000000000e+00  -8.3702939865665183e-12 5.5664440927999962e+01 0.0000000000000000e+00  -1.0939946984030506e-11 5.5664440928006051e+01 0.0000000000000000e+00  -1.2248141958282454e-11 5.5664440928004325e+01 0.0000000000000000e+00  -9.4097839176537898e-12 5.5664440928000673e+01 0.0000000000000000e+00  -1.4451592900751070e-11 5.5664440928009448e+01 0.0000000000000000e+00  -1.5853820759490294e-11 5.5664440928002961e+01 0.0000000000000000e+00  -1.2539707684044869e-11 5.5664440927998399e+01 0.0000000000000000e+00  -8.4225296045776836e-12 5.5664440928002222e+01 0.0000000000000000e+00  -1.2396676632225729e-11 5.5664440927999372e+01 0.0000000000000000e+00  -4.5139631637934549e-12 5.5664440928005149e+01 0.0000000000000000e+00  -6.3130942502326604e-12 5.5664440928002975e+01 0.0000000000000000e+00  -3.5045136599724924e-12 5.5664440927999443e+01 0.0000000000000000e+00  2.6447596007481354e-09 5.5664440928001902e+01 0.0000000000000000e+00  -6.1544559576702580e-05 5.5664440928003671e+01 0.0000000000000000e+00  1.2923539071127133e+00 5.5664440928006513e+01 0.0000000000000000e+00  -1.2772808133739266e+00 6.3374133906931618e+01 0.0000000000000000e+00  6.0916573512304776e-05 6.3374133906942831e+01 0.0000000000000000e+00  -2.6634120893465588e-09 6.3374133906938219e+01 0.0000000000000000e+00  2.7224430900558896e-13 6.3374133906944252e+01 0.0000000000000000e+00  -8.6506718952646097e-12 6.3374133906941459e+01 0.0000000000000000e+00  -8.5795424729255145e-12 6.3374133906943172e+01 0.0000000000000000e+00  -6.7253373577785930e-12 6.3374133906943769e+01 0.0000000000000000e+00  -1.2773748441887696e-11 6.3374133906942497e+01 0.0000000000000000e+00  -1.2386963198514802e-11 6.3374133906943399e+01 0.0000000000000000e+00  -9.1232103354548206e-12 6.3374133906945765e+01 0.0000000000000000e+00  -1.4931605358464831e-11 6.3374133906935647e+01 0.0000000000000000e+00  -1.8540487205033887e-11 6.3374133906940131e+01 0.0000000000000000e+00  -1.2532151898087982e-11 6.3374133906942504e+01 0.0000000000000000e+00  -1.0653623443175784e-11 6.3374133906942774e+01 0.0000000000000000e+00  -8.8340384498733300e-12 6.3374133906938532e+01 0.0000000000000000e+00  -3.8734853914054020e-12 6.3374133906943477e+01 0.0000000000000000e+00  -5.9558591549538897e-12 6.3374133906939477e+01 0.0000000000000000e+00  -4.0934214799459574e-12 6.3374133906940358e+01 0.0000000000000000e+00  2.6605591783010321e-09 6.3374133906940997e+01 0.0000000000000000e+00  -6.0916578422362651e-05 6.3374133906944188e+01 0.0000000000000000e+00  1.2772808133712152e+00 6.3374133906942099e+01 0.0000000000000000e+00  -1.2602585594022122e+00 7.0987532208593009e+01 0.0000000000000000e+00  6.0203474687856770e-05 7.0987532208591617e+01 0.0000000000000000e+00  -2.6765293438181789e-09 7.0987532208595624e+01 0.0000000000000000e+00  1.6218759633253076e-12 7.0987532208591588e+01 0.0000000000000000e+00  -7.9650710683055949e-12 7.0987532208596434e+01 0.0000000000000000e+00  -5.2672431447132923e-12 7.0987532208594018e+01 0.0000000000000000e+00  -7.0081960809764043e-12 7.0987532208595624e+01 0.0000000000000000e+00  -1.4151675760097338e-11 7.0987532208597074e+01 0.0000000000000000e+00  -9.8848458549173850e-12 7.0987532208592938e+01 0.0000000000000000e+00  -1.5341577268978373e-11 7.0987532208592810e+01 0.0000000000000000e+00  -1.4959515649858451e-11 7.0987532208594885e+01 0.0000000000000000e+00  -1.2771011513362995e-11 7.0987532208594317e+01 0.0000000000000000e+00  -1.6820312775538744e-11 7.0987532208589926e+01 0.0000000000000000e+00  -1.2366537218125402e-11 7.0987532208591944e+01 0.0000000000000000e+00  -6.0187640751558182e-12 7.0987532208595425e+01 0.0000000000000000e+00  -6.5869316894369782e-12 7.0987532208591702e+01 0.0000000000000000e+00  -4.9175582560361042e-12 7.0987532208593564e+01 0.0000000000000000e+00  -6.4518292619449004e-12 7.0987532208596107e+01 0.0000000000000000e+00  2.6751161800859599e-09 7.0987532208592086e+01 0.0000000000000000e+00  -6.0203470158676747e-05 7.0987532208592398e+01 0.0000000000000000e+00  1.2602585593991751e+00 7.0987532208587439e+01 0.0000000000000000e+00  -1.2413099653214441e+00 7.8493008233179808e+01 0.0000000000000000e+00  5.9404860052762260e-05 7.8493008233175274e+01 0.0000000000000000e+00  -2.6838598820393188e-09 7.8493008233175757e+01 0.0000000000000000e+00  -1.4135174839894059e-12 7.8493008233176496e+01 0.0000000000000000e+00  -6.7435710487746562e-12 7.8493008233174805e+01 0.0000000000000000e+00  -6.9149652940023901e-12 7.8493008233174280e+01 0.0000000000000000e+00  -8.8252200409980570e-12 7.8493008233178102e+01 0.0000000000000000e+00  -1.0215752004860715e-11 7.8493008233173853e+01 0.0000000000000000e+00  -1.6137077952164687e-11 7.8493008233175615e+01 0.0000000000000000e+00  -1.2420528443527345e-11 7.8493008233175487e+01 0.0000000000000000e+00  -1.3410509516777154e-11 7.8493008233176525e+01 0.0000000000000000e+00  -1.9550188036024683e-11 7.8493008233174137e+01 0.0000000000000000e+00  -1.1096671931497660e-11 7.8493008233178003e+01 0.0000000000000000e+00  -7.4237108607636588e-12 7.8493008233175871e+01 0.0000000000000000e+00  -1.0550620696326053e-11 7.8493008233177306e+01 0.0000000000000000e+00  -8.9407747618087803e-12 7.8493008233172702e+01 0.0000000000000000e+00  -2.3315415739809616e-12 7.8493008233177861e+01 0.0000000000000000e+00  -2.7074002256205524e-12 7.8493008233174749e+01 0.0000000000000000e+00  2.6847438619579028e-09 7.8493008233179182e+01 0.0000000000000000e+00  -5.9404864549413656e-05 7.8493008233176212e+01 0.0000000000000000e+00  1.2413099653281017e+00 7.8493008233181683e+01 0.0000000000000000e+00  -1.2204605874185317e+00 8.5879079505326658e+01 0.0000000000000000e+00  5.8520380242081632e-05 8.5879079505326814e+01 0.0000000000000000e+00  -2.6952171181651047e-09 8.5879079505322153e+01 0.0000000000000000e+00  -7.3219590962237780e-13 8.5879079505316199e+01 0.0000000000000000e+00  -9.1266902787862415e-12 8.5879079505323858e+01 0.0000000000000000e+00  2.4833891912622148e-12 8.5879079505320775e+01 0.0000000000000000e+00  -1.2006268526499413e-11 8.5879079505322110e+01 0.0000000000000000e+00  -1.4504864724356237e-11 8.5879079505321400e+01 0.0000000000000000e+00  -9.4606356066567738e-12 8.5879079505324057e+01 0.0000000000000000e+00  -1.6276994732943687e-11 8.5879079505319339e+01 0.0000000000000000e+00  -1.3857960779487023e-11 8.5879079505319226e+01 0.0000000000000000e+00  -1.4028484307417813e-11 8.5879079505320533e+01 0.0000000000000000e+00  -1.4970926714367432e-11 8.5879079505323801e+01 0.0000000000000000e+00  -1.0700186855129936e-11 8.5879079505322409e+01 0.0000000000000000e+00  -8.3186514475277384e-12 8.5879079505319453e+01 0.0000000000000000e+00  -2.4161370249213861e-12 8.5879079505325620e+01 0.0000000000000000e+00  -6.9716566380106918e-12 8.5879079505321357e+01 0.0000000000000000e+00  -6.4323324491324860e-12 8.5879079505322935e+01 0.0000000000000000e+00  2.6937633816837441e-09 8.5879079505319908e+01 0.0000000000000000e+00  -5.8520384396643072e-05 8.5879079505323446e+01 0.0000000000000000e+00  1.2204605874314791e+00 8.5879079505322153e+01 0.0000000000000000e+00  -1.1977387294991784e+00 9.3134425125594774e+01 0.0000000000000000e+00  5.7549741675895369e-05 9.3134425125595840e+01 0.0000000000000000e+00  -2.7053659130251376e-09 9.3134425125599321e+01 0.0000000000000000e+00  1.2080845848259677e-12 9.3134425125603386e+01 0.0000000000000000e+00  -3.4615262997052506e-12 9.3134425125598924e+01 0.0000000000000000e+00  -1.0824211143233248e-11 9.3134425125600586e+01 0.0000000000000000e+00  -9.2709955624718369e-12 9.3134425125597559e+01 0.0000000000000000e+00  -6.8307421351347486e-12 9.3134425125598696e+01 0.0000000000000000e+00  -1.3645409946543338e-11 9.3134425125599790e+01 0.0000000000000000e+00  -1.8325358632470906e-11 9.3134425125600274e+01 0.0000000000000000e+00  -1.5038189604430101e-11 9.3134425125599449e+01 0.0000000000000000e+00  -9.8820065275128501e-12 9.3134425125603940e+01 0.0000000000000000e+00  -1.4305204534802860e-11 9.3134425125596152e+01 0.0000000000000000e+00  -1.3812493836809058e-11 9.3134425125599719e+01 0.0000000000000000e+00  -7.7808451748192679e-12 9.3134425125597659e+01 0.0000000000000000e+00  -4.5144819163496479e-12 9.3134425125599464e+01 0.0000000000000000e+00  -7.3716659561439308e-12 9.3134425125599947e+01 0.0000000000000000e+00  -1.7763097241603967e-12 9.3134425125596835e+01 0.0000000000000000e+00  2.7036670008595841e-09 9.3134425125603883e+01 0.0000000000000000e+00  -5.7549747241989328e-05 9.3134425125599790e+01 0.0000000000000000e+00  1.1977387295137365e+00 9.3134425125597474e+01 0.0000000000000000e+00  -1.1731754525228855e+00 1.0024790228532527e+02 0.0000000000000000e+00  5.6492708615379293e-05 1.0024790228532403e+02 0.0000000000000000e+00  -2.7039392393796501e-09 1.0024790228532328e+02 0.0000000000000000e+00  -3.6091319256780917e-12 1.0024790228532557e+02 0.0000000000000000e+00  -4.2930315593738700e-12 1.0024790228532579e+02 0.0000000000000000e+00  -3.8238688765351504e-12 1.0024790228532493e+02 0.0000000000000000e+00  -7.7752405600719485e-12 1.0024790228533207e+02 0.0000000000000000e+00  -1.3910945819771937e-11 1.0024790228532662e+02 0.0000000000