<?xml version="1.0"?>
<VTKFile type="UnstructuredGrid"  version="0.1"  >
<UnstructuredGrid>
<Piece  NumberOfPoints="1661" NumberOfCells="3200">
<Points>
<DataArray  type="Float64"  NumberOfComponents="3"  format="ascii">-0.25 -1 0  -0.225 -1 0  -0.2 -1 0  -0.175 -1 0  -0.15 -1 0  -0.125 -1 0  -0.1 -1 0  -0.07500000000000001 -1 0  -0.04999999999999999 -1 0  -0.02499999999999999 -1 0  0 -1 0  0.02500000000000002 -1 0  0.04999999999999999 -1 0  0.07500000000000001 -1 0  0.09999999999999998 -1 0  0.125 -1 0  0.15 -1 0  0.175 -1 0  0.2 -1 0  0.225 -1 0  0.25 -1 0  -0.25 -0.975 0  -0.225 -0.975 0  -0.2 -0.975 0  -0.175 -0.975 0  -0.15 -0.975 0  -0.125 -0.975 0  -0.1 -0.975 0  -0.07500000000000001 -0.975 0  -0.04999999999999999 -0.975 0  -0.02499999999999999 -0.975 0  0 -0.975 0  0.02500000000000002 -0.975 0  0.04999999999999999 -0.975 0  0.07500000000000001 -0.975 0  0.09999999999999998 -0.975 0  0.125 -0.975 0  0.15 -0.975 0  0.175 -0.975 0  0.2 -0.975 0  0.225 -0.975 0  0.25 -0.975 0  -0.25 -0.95 0  -0.225 -0.95 0  -0.2 -0.95 0  -0.175 -0.95 0  -0.15 -0.95 0  -0.125 -0.95 0  -0.1 -0.95 0  -0.07500000000000001 -0.95 0  -0.04999999999999999 -0.95 0  -0.02499999999999999 -0.95 0  0 -0.95 0  0.02500000000000002 -0.95 0  0.04999999999999999 -0.95 0  0.07500000000000001 -0.95 0  0.09999999999999998 -0.95 0  0.125 -0.95 0  0.15 -0.95 0  0.175 -0.95 0  0.2 -0.95 0  0.225 -0.95 0  0.25 -0.95 0  -0.25 -0.925 0  -0.225 -0.925 0  -0.2 -0.925 0  -0.175 -0.925 0  -0.15 -0.925 0  -0.125 -0.925 0  -0.1 -0.925 0  -0.07500000000000001 -0.925 0  -0.04999999999999999 -0.925 0  -0.02499999999999999 -0.925 0  0 -0.925 0  0.02500000000000002 -0.925 0  0.04999999999999999 -0.925 0  0.07500000000000001 -0.925 0  0.09999999999999998 -0.925 0  0.125 -0.925 0  0.15 -0.925 0  0.175 -0.925 0  0.2 -0.925 0  0.225 -0.925 0  0.25 -0.925 0  -0.25 -0.9 0  -0.225 -0.9 0  -0.2 -0.9 0  -0.175 -0.9 0  -0.15 -0.9 0  -0.125 -0.9 0  -0.1 -0.9 0  -0.07500000000000001 -0.9 0  -0.04999999999999999 -0.9 0  -0.02499999999999999 -0.9 0  0 -0.9 0  0.02500000000000002 -0.9 0  0.04999999999999999 -0.9 0  0.07500000000000001 -0.9 0  0.09999999999999998 -0.9 0  0.125 -0.9 0  0.15 -0.9 0  0.175 -0.9 0  0.2 -0.9 0  0.225 -0.9 0  0.25 -0.9 0  -0.25 -0.875 0  -0.225 -0.875 0  -0.2 -0.875 0  -0.175 -0.875 0  -0.15 -0.875 0  -0.125 -0.875 0  -0.1 -0.875 0  -0.07500000000000001 -0.875 0  -0.04999999999999999 -0.875 0  -0.02499999999999999 -0.875 0  0 -0.875 0  0.02500000000000002 -0.875 0  0.04999999999999999 -0.875 0  0.07500000000000001 -0.875 0  0.09999999999999998 -0.875 0  0.125 -0.875 0  0.15 -0.875 0  0.175 -0.875 0  0.2 -0.875 0  0.225 -0.875 0  0.25 -0.875 0  -0.25 -0.85 0  -0.225 -0.85 0  -0.2 -0.85 0  -0.175 -0.85 0  -0.15 -0.85 0  -0.125 -0.85 0  -0.1 -0.85 0  -0.07500000000000001 -0.85 0  -0.04999999999999999 -0.85 0  -0.02499999999999999 -0.85 0  0 -0.85 0  0.02500000000000002 -0.85 0  0.04999999999999999 -0.85 0  0.07500000000000001 -0.85 0  0.09999999999999998 -0.85 0  0.125 -0.85 0  0.15 -0.85 0  0.175 -0.85 0  0.2 -0.85 0  0.225 -0.85 0  0.25 -0.85 0  -0.25 -0.825 0  -0.225 -0.825 0  -0.2 -0.825 0  -0.175 -0.825 0  -0.15 -0.825 0  -0.125 -0.825 0  -0.1 -0.825 0  -0.07500000000000001 -0.825 0  -0.04999999999999999 -0.825 0  -0.02499999999999999 -0.825 0  0 -0.825 0  0.02500000000000002 -0.825 0  0.04999999999999999 -0.825 0  0.07500000000000001 -0.825 0  0.09999999999999998 -0.825 0  0.125 -0.825 0  0.15 -0.825 0  0.175 -0.825 0  0.2 -0.825 0  0.225 -0.825 0  0.25 -0.825 0  -0.25 -0.8 0  -0.225 -0.8 0  -0.2 -0.8 0  -0.175 -0.8 0  -0.15 -0.8 0  -0.125 -0.8 0  -0.1 -0.8 0  -0.07500000000000001 -0.8 0  -0.04999999999999999 -0.8 0  -0.02499999999999999 -0.8 0  0 -0.8 0  0.02500000000000002 -0.8 0  0.04999999999999999 -0.8 0  0.07500000000000001 -0.8 0  0.09999999999999998 -0.8 0  0.125 -0.8 0  0.15 -0.8 0  0.175 -0.8 0  0.2 -0.8 0  0.225 -0.8 0  0.25 -0.8 0  -0.25 -0.775 0  -0.225 -0.775 0  -0.2 -0.775 0  -0.175 -0.775 0  -0.15 -0.775 0  -0.125 -0.775 0  -0.1 -0.775 0  -0.07500000000000001 -0.775 0  -0.04999999999999999 -0.775 0  -0.02499999999999999 -0.775 0  0 -0.775 0  0.02500000000000002 -0.775 0  0.04999999999999999 -0.775 0  0.07500000000000001 -0.775 0  0.09999999999999998 -0.775 0  0.125 -0.775 0  0.15 -0.775 0  0.175 -0.775 0  0.2 -0.775 0  0.225 -0.775 0  0.25 -0.775 0  -0.25 -0.75 0  -0.225 -0.75 0  -0.2 -0.75 0  -0.175 -0.75 0  -0.15 -0.75 0  -0.125 -0.75 0  -0.1 -0.75 0  -0.07500000000000001 -0.75 0  -0.04999999999999999 -0.75 0  -0.02499999999999999 -0.75 0  0 -0.75 0  0.02500000000000002 -0.75 0  0.04999999999999999 -0.75 0  0.07500000000000001 -0.75 0  0.09999999999999998 -0.75 0  0.125 -0.75 0  0.15 -0.75 0  0.175 -0.75 0  0.2 -0.75 0  0.225 -0.75 0  0.25 -0.75 0  -0.25 -0.725 0  -0.225 -0.725 0  -0.2 -0.725 0  -0.175 -0.725 0  -0.15 -0.725 0  -0.125 -0.725 0  -0.1 -0.725 0  -0.07500000000000001 -0.725 0  -0.04999999999999999 -0.725 0  -0.02499999999999999 -0.725 0  0 -0.725 0  0.02500000000000002 -0.725 0  0.04999999999999999 -0.725 0  0.07500000000000001 -0.725 0  0.09999999999999998 -0.725 0  0.125 -0.725 0  0.15 -0.725 0  0.175 -0.725 0  0.2 -0.725 0  0.225 -0.725 0  0.25 -0.725 0  -0.25 -0.7 0  -0.225 -0.7 0  -0.2 -0.7 0  -0.175 -0.7 0  -0.15 -0.7 0  -0.125 -0.7 0  -0.1 -0.7 0  -0.07500000000000001 -0.7 0  -0.04999999999999999 -0.7 0  -0.02499999999999999 -0.7 0  0 -0.7 0  0.02500000000000002 -0.7 0  0.04999999999999999 -0.7 0  0.07500000000000001 -0.7 0  0.09999999999999998 -0.7 0  0.125 -0.7 0  0.15 -0.7 0  0.175 -0.7 0  0.2 -0.7 0  0.225 -0.7 0  0.25 -0.7 0  -0.25 -0.675 0  -0.225 -0.675 0  -0.2 -0.675 0  -0.175 -0.675 0  -0.15 -0.675 0  -0.125 -0.675 0  -0.1 -0.675 0  -0.07500000000000001 -0.675 0  -0.04999999999999999 -0.675 0  -0.02499999999999999 -0.675 0  0 -0.675 0  0.02500000000000002 -0.675 0  0.04999999999999999 -0.675 0  0.07500000000000001 -0.675 0  0.09999999999999998 -0.675 0  0.125 -0.675 0  0.15 -0.675 0  0.175 -0.675 0  0.2 -0.675 0  0.225 -0.675 0  0.25 -0.675 0  -0.25 -0.65 0  -0.225 -0.65 0  -0.2 -0.65 0  -0.175 -0.65 0  -0.15 -0.65 0  -0.125 -0.65 0  -0.1 -0.65 0  -0.07500000000000001 -0.65 0  -0.04999999999999999 -0.65 0  -0.02499999999999999 -0.65 0  0 -0.65 0  0.02500000000000002 -0.65 0  0.04999999999999999 -0.65 0  0.07500000000000001 -0.65 0  0.09999999999999998 -0.65 0  0.125 -0.65 0  0.15 -0.65 0  0.175 -0.65 0  0.2 -0.65 0  0.225 -0.65 0  0.25 -0.65 0  -0.25 -0.625 0  -0.225 -0.625 0  -0.2 -0.625 0  -0.175 -0.625 0  -0.15 -0.625 0  -0.125 -0.625 0  -0.1 -0.625 0  -0.07500000000000001 -0.625 0  -0.04999999999999999 -0.625 0  -0.02499999999999999 -0.625 0  0 -0.625 0  0.02500000000000002 -0.625 0  0.04999999999999999 -0.625 0  0.07500000000000001 -0.625 0  0.09999999999999998 -0.625 0  0.125 -0.625 0  0.15 -0.625 0  0.175 -0.625 0  0.2 -0.625 0  0.225 -0.625 0  0.25 -0.625 0  -0.25 -0.6 0  -0.225 -0.6 0  -0.2 -0.6 0  -0.175 -0.6 0  -0.15 -0.6 0  -0.125 -0.6 0  -0.1 -0.6 0  -0.07500000000000001 -0.6 0  -0.04999999999999999 -0.6 0  -0.02499999999999999 -0.6 0  0 -0.6 0  0.02500000000000002 -0.6 0  0.04999999999999999 -0.6 0  0.07500000000000001 -0.6 0  0.09999999999999998 -0.6 0  0.125 -0.6 0  0.15 -0.6 0  0.175 -0.6 0  0.2 -0.6 0  0.225 -0.6 0  0.25 -0.6 0  -0.25 -0.575 0  -0.225 -0.575 0  -0.2 -0.575 0  -0.175 -0.575 0  -0.15 -0.575 0  -0.125 -0.575 0  -0.1 -0.575 0  -0.07500000000000001 -0.575 0  -0.04999999999999999 -0.575 0  -0.02499999999999999 -0.575 0  0 -0.575 0  0.02500000000000002 -0.575 0  0.04999999999999999 -0.575 0  0.07500000000000001 -0.575 0  0.09999999999999998 -0.575 0  0.125 -0.575 0  0.15 -0.575 0  0.175 -0.575 0  0.2 -0.575 0  0.225 -0.575 0  0.25 -0.575 0  -0.25 -0.55 0  -0.225 -0.55 0  -0.2 -0.55 0  -0.175 -0.55 0  -0.15 -0.55 0  -0.125 -0.55 0  -0.1 -0.55 0  -0.07500000000000001 -0.55 0  -0.04999999999999999 -0.55 0  -0.02499999999999999 -0.55 0  0 -0.55 0  0.02500000000000002 -0.55 0  0.04999999999999999 -0.55 0  0.07500000000000001 -0.55 0  0.09999999999999998 -0.55 0  0.125 -0.55 0  0.15 -0.55 0  0.175 -0.55 0  0.2 -0.55 0  0.225 -0.55 0  0.25 -0.55 0  -0.25 -0.525 0  -0.225 -0.525 0  -0.2 -0.525 0  -0.175 -0.525 0  -0.15 -0.525 0  -0.125 -0.525 0  -0.1 -0.525 0  -0.07500000000000001 -0.525 0  -0.04999999999999999 -0.525 0  -0.02499999999999999 -0.525 0  0 -0.525 0  0.02500000000000002 -0.525 0  0.04999999999999999 -0.525 0  0.07500000000000001 -0.525 0  0.09999999999999998 -0.525 0  0.125 -0.525 0  0.15 -0.525 0  0.175 -0.525 0  0.2 -0.525 0  0.225 -0.525 0  0.25 -0.525 0  -0.25 -0.5 0  -0.225 -0.5 0  -0.2 -0.5 0  -0.175 -0.5 0  -0.15 -0.5 0  -0.125 -0.5 0  -0.1 -0.5 0  -0.07500000000000001 -0.5 0  -0.04999999999999999 -0.5 0  -0.02499999999999999 -0.5 0  0 -0.5 0  0.02500000000000002 -0.5 0  0.04999999999999999 -0.5 0  0.07500000000000001 -0.5 0  0.09999999999999998 -0.5 0  0.125 -0.5 0  0.15 -0.5 0  0.175 -0.5 0  0.2 -0.5 0  0.225 -0.5 0  0.25 -0.5 0  -0.25 -0.475 0  -0.225 -0.475 0  -0.2 -0.475 0  -0.175 -0.475 0  -0.15 -0.475 0  -0.125 -0.475 0  -0.1 -0.475 0  -0.07500000000000001 -0.475 0  -0.04999999999999999 -0.475 0  -0.02499999999999999 -0.475 0  0 -0.475 0  0.02500000000000002 -0.475 0  0.04999999999999999 -0.475 0  0.07500000000000001 -0.475 0  0.09999999999999998 -0.475 0  0.125 -0.475 0  0.15 -0.475 0  0.175 -0.475 0  0.2 -0.475 0  0.225 -0.475 0  0.25 -0.475 0  -0.25 -0.45 0  -0.225 -0.45 0  -0.2 -0.45 0  -0.175 -0.45 0  -0.15 -0.45 0  -0.125 -0.45 0  -0.1 -0.45 0  -0.07500000000000001 -0.45 0  -0.04999999999999999 -0.45 0  -0.02499999999999999 -0.45 0  0 -0.45 0  0.02500000000000002 -0.45 0  0.04999999999999999 -0.45 0  0.07500000000000001 -0.45 0  0.09999999999999998 -0.45 0  0.125 -0.45 0  0.15 -0.45 0  0.175 -0.45 0  0.2 -0.45 0  0.225 -0.45 0  0.25 -0.45 0  -0.25 -0.425 0  -0.225 -0.425 0  -0.2 -0.425 0  -0.175 -0.425 0  -0.15 -0.425 0  -0.125 -0.425 0  -0.1 -0.425 0  -0.07500000000000001 -0.425 0  -0.04999999999999999 -0.425 0  -0.02499999999999999 -0.425 0  0 -0.425 0  0.02500000000000002 -0.425 0  0.04999999999999999 -0.425 0  0.07500000000000001 -0.425 0  0.
[...]
<PointData  Vectors="flow"> 
<DataArray  type="Float64"  Name="flow"  NumberOfComponents="3" format="ascii">-3.4109344394635310e-01 6.8219412000741808e-01 0.0000000000000000e+00  1.6437238500512829e-05 6.8219412000676882e-01 0.0000000000000000e+00  -7.9371125947749717e-10 6.8219412000352697e-01 0.0000000000000000e+00  1.0394932063735498e-13 6.8219412000281099e-01 0.0000000000000000e+00  -1.7308086448200072e-12 6.8219412000398738e-01 0.0000000000000000e+00  -8.8655856425977343e-13 6.8219412000322444e-01 0.0000000000000000e+00  -2.1135825182467228e-12 6.8219412000138702e-01 0.0000000000000000e+00  -2.6867266044858508e-12 6.8219412000430657e-01 0.0000000000000000e+00  -2.6586894482642470e-12 6.8219411999986168e-01 0.0000000000000000e+00  -3.9009834843367315e-12 6.8219412000423807e-01 0.0000000000000000e+00  -2.5056429653548595e-12 6.8219412000256840e-01 0.0000000000000000e+00  -3.6253356879957525e-12 6.8219412000370805e-01 0.0000000000000000e+00  -2.7577782028739225e-12 6.8219412000126778e-01 0.0000000000000000e+00  -1.1694535703261227e-12 6.8219412000169066e-01 0.0000000000000000e+00  -2.3136376257957240e-12 6.8219412000116186e-01 0.0000000000000000e+00  -3.1019360417918098e-12 6.8219412000340485e-01 0.0000000000000000e+00  7.2826682275278877e-14 6.8219412000487312e-01 0.0000000000000000e+00  -8.6549476915112061e-13 6.8219412000463331e-01 0.0000000000000000e+00  7.9175441253088624e-10 6.8219412000393342e-01 0.0000000000000000e+00  -1.6437240267088328e-05 6.8219412000526092e-01 0.0000000000000000e+00  3.4109344395003788e-01 6.8219412000357049e-01 0.0000000000000000e+00  -3.4083047344485951e-01 2.0459834355331523e+00 0.0000000000000000e+00  1.6424567457876618e-05 2.0459834355338784e+00 0.0000000000000000e+00  -7.9365434299394481e-10 2.0459834355335915e+00 0.0000000000000000e+00  -4.9337240943127931e-13 2.0459834355341009e+00 0.0000000000000000e+00  -1.3194234524275330e-12 2.0459834355341906e+00 0.0000000000000000e+00  -3.7125077123802741e-13 2.0459834355337856e+00 0.0000000000000000e+00  -2.2846703623736684e-12 2.0459834355349371e+00 0.0000000000000000e+00  -3.8755132160336636e-12 2.0459834355341746e+00 0.0000000000000000e+00  -1.8099324188654068e-12 2.0459834355351130e+00 0.0000000000000000e+00  -3.3709489424868979e-12 2.0459834355338828e+00 0.0000000000000000e+00  -3.5986771668250141e-12 2.0459834355345681e+00 0.0000000000000000e+00  -2.0631988468743992e-12 2.0459834355343780e+00 0.0000000000000000e+00  -3.8061936663288305e-12 2.0459834355351125e+00 0.0000000000000000e+00  -2.0726004083827559e-12 2.0459834355351418e+00 0.0000000000000000e+00  -2.5287359371038189e-12 2.0459834355332345e+00 0.0000000000000000e+00  -1.1377707221507036e-12 2.0459834355355380e+00 0.0000000000000000e+00  -2.0911662463852598e-13 2.0459834355342119e+00 0.0000000000000000e+00  -1.3917785067810739e-12 2.0459834355342355e+00 0.0000000000000000e+00  7.9136802504657360e-10 2.0459834355346929e+00 0.0000000000000000e+00  -1.6424568257866714e-05 2.0459834355335658e+00 0.0000000000000000e+00  3.4083047344681944e-01 2.0459834355344926e+00 0.0000000000000000e+00  -3.4004196742006038e-01 4.0888121150816561e+00 0.0000000000000000e+00  1.6386568302665955e-05 4.0888121150804926e+00 0.0000000000000000e+00  -7.9187356822533079e-10 4.0888121150807057e+00 0.0000000000000000e+00  5.0122423734183026e-13 4.0888121150808887e+00 0.0000000000000000e+00  -1.8405877998503448e-12 4.0888121150804091e+00 0.0000000000000000e+00  -3.2846569510545852e-13 4.0888121150808194e+00 0.0000000000000000e+00  -1.7903921885234878e-12 4.0888121150799144e+00 0.0000000000000000e+00  -2.7017837542646423e-12 4.0888121150808399e+00 0.0000000000000000e+00  -2.0445546934255658e-12 4.0888121150819234e+00 0.0000000000000000e+00  -4.1753805508363097e-12 4.0888121150800449e+00 0.0000000000000000e+00  -3.6440724304215712e-12 4.0888121150814944e+00 0.0000000000000000e+00  -2.5637997045615084e-12 4.0888121150795493e+00 0.0000000000000000e+00  -3.2173381249882307e-12 4.0888121150797181e+00 0.0000000000000000e+00  -2.2364307533252826e-12 4.0888121150799224e+00 0.0000000000000000e+00  -2.2538179762890041e-12 4.0888121150807688e+00 0.0000000000000000e+00  -1.1611387887542259e-12 4.0888121150800787e+00 0.0000000000000000e+00  -1.1820915313014433e-12 4.0888121150808034e+00 0.0000000000000000e+00  -4.6981344164067567e-13 4.0888121150806525e+00 0.0000000000000000e+00  7.8937869329455323e-10 4.0888121150807182e+00 0.0000000000000000e+00  -1.6386570427956103e-05 4.0888121150815113e+00 0.0000000000000000e+00  3.4004196742263859e-01 4.0888121150810965e+00 0.0000000000000000e+00  -3.3872914167861268e-01 6.1253361470276335e+00 0.0000000000000000e+00  1.6323304694161790e-05 6.1253361470280838e+00 0.0000000000000000e+00  -7.8801809905652798e-10 6.1253361470271201e+00 0.0000000000000000e+00  -2.0515693101728028e-12 6.1253361470278476e+00 0.0000000000000000e+00  -5.1125778239168637e-13 6.1253361470267746e+00 0.0000000000000000e+00  -8.6694924962709980e-13 6.1253361470276779e+00 0.0000000000000000e+00  -1.4249934504791974e-12 6.1253361470264007e+00 0.0000000000000000e+00  -2.4115025633244113e-12 6.1253361470279648e+00 0.0000000000000000e+00  -2.4791037729475682e-12 6.1253361470265961e+00 0.0000000000000000e+00  -3.7831896084818283e-12 6.1253361470278795e+00 0.0000000000000000e+00  -4.1108857466750652e-12 6.1253361470262453e+00 0.0000000000000000e+00  -2.8413755829447382e-12 6.1253361470272800e+00 0.0000000000000000e+00  -2.5955153406627622e-12 6.1253361470272685e+00 0.0000000000000000e+00  -1.7073420612201974e-12 6.1253361470266148e+00 0.0000000000000000e+00  -1.8710331438353320e-12 6.1253361470293104e+00 0.0000000000000000e+00  -1.7934036130391655e-12 6.1253361470283618e+00 0.0000000000000000e+00  -4.5390914130747388e-13 6.1253361470272623e+00 0.0000000000000000e+00  -1.5488151208335154e-12 6.1253361470279097e+00 0.0000000000000000e+00  7.8674259816162698e-10 6.1253361470269185e+00 0.0000000000000000e+00  -1.6323305910779848e-05 6.1253361470268288e+00 0.0000000000000000e+00  3.3872914167878249e-01 6.1253361470263448e+00 0.0000000000000000e+00  -3.3689402049159389e-01 8.1524153610125580e+00 0.0000000000000000e+00  1.6234870231921389e-05 8.1524153610130039e+00 0.0000000000000000e+00  -7.8439895682526977e-10 8.1524153610138654e+00 0.0000000000000000e+00  2.5748325849711892e-13 8.1524153610125882e+00 0.0000000000000000e+00  -1.2894051228525631e-12 8.1524153610136647e+00 0.0000000000000000e+00  -1.7238925278844554e-12 8.1524153610122152e+00 0.0000000000000000e+00  -2.2173814556462396e-12 8.1524153610143717e+00 0.0000000000000000e+00  -2.8422050483407979e-12 8.1524153610112009e+00 0.0000000000000000e+00  -2.5186466106033989e-12 8.1524153610119097e+00 0.0000000000000000e+00  -3.3500185875248468e-12 8.1524153610121282e+00 0.0000000000000000e+00  -3.7250922505133564e-12 8.1524153610130057e+00 0.0000000000000000e+00  -3.2482364678079738e-12 8.1524153610127055e+00 0.0000000000000000e+00  -2.7509522125228046e-12 8.1524153610129222e+00 0.0000000000000000e+00  -1.9482730515153774e-12 8.1524153610120056e+00 0.0000000000000000e+00  -7.9510851314762666e-13 8.1524153610106715e+00 0.0000000000000000e+00  -2.3886460841873186e-12 8.1524153610113768e+00 0.0000000000000000e+00  -8.0796383188980281e-13 8.1524153610121246e+00 0.0000000000000000e+00  -9.0627241654433831e-14 8.1524153610130590e+00 0.0000000000000000e+00  7.8088144207144440e-10 8.1524153610127907e+00 0.0000000000000000e+00  -1.6234872102836172e-05 8.1524153610135350e+00 0.0000000000000000e+00  3.3689402049595135e-01 8.1524153610125936e+00 0.0000000000000000e+00  -3.3453943347071025e-01 1.0166924149810571e+01 0.0000000000000000e+00  1.6121404868451933e-05 1.0166924149809924e+01 0.0000000000000000e+00  -7.7879624084824047e-10 1.0166924149810184e+01 0.0000000000000000e+00  -2.2183333566120442e-12 1.0166924149809878e+01 0.0000000000000000e+00  -2.0347961983691641e-12 1.0166924149809798e+01 0.0000000000000000e+00  3.5334272240514396e-13 1.0166924149808322e+01 0.0000000000000000e+00  -2.1100992772254729e-12 1.0166924149808041e+01 0.0000000000000000e+00  -3.3679975854184226e-12 1.0166924149809720e+01 0.0000000000000000e+00  -2.5117395162744494e-12 1.0166924149809990e+01 0.0000000000000000e+00  -3.7981267934633202e-12 1.0166924149807857e+01 0.0000000000000000e+00  -3.5204653211443997e-12 1.0166924149808947e+01 0.0000000000000000e+00  -2.6266911600182314e-12 1.0166924149809406e+01 0.0000000000000000e+00  -3.3121775882629993e-12 1.0166924149808457e+01 0.0000000000000000e+00  -2.4874565884186701e-12 1.0166924149809434e+01 0.0000000000000000e+00  -1.9788150484361191e-12 1.0166924149806372e+01 0.0000000000000000e+00  -8.4314916947520316e-13 1.0166924149808882e+01 0.0000000000000000e+00  9.8996961472968730e-14 1.0166924149809338e+01 0.0000000000000000e+00  -1.4970745534685892e-12 1.0166924149808178e+01 0.0000000000000000e+00  7.7768522321130977e-10 1.0166924149809214e+01 0.0000000000000000e+00  -1.6121405058288618e-05 1.0166924149809939e+01 0.0000000000000000e+00  3.3453943346879383e-01 1.0166924149810782e+01 0.0000000000000000e+00  -3.3166901119105446e-01 1.2165756288760818e+01 0.0000000000000000e+00  1.5983079266678161e-05 1.2165756288761106e+01 0.0000000000000000e+00  -7.7237010512843173e-10 1.2165756288760257e+01 0.0000000000000000e+00  1.7259381897554089e-13 1.2165756288761317e+01 0.0000000000000000e+00  -2.9100826675221992e-12 1.2165756288760692e+01 0.0000000000000000e+00  -2.5125940133142266e-12 1.2165756288760528e+01 0.0000000000000000e+00  -1.2896941835703447e-12 1.2165756288759210e+01 0.0000000000000000e+00  -1.4239286004785223e-12 1.2165756288760440e+01 0.0000000000000000e+00  -3.9217070392356436e-12 1.2165756288760269e+01 0.0000000000000000e+00  -3.7011859374498538e-12 1.2165756288762008e+01 0.0000000000000000e+00  -2.6381492070635590e-12 1.2165756288761100e+01 0.0000000000000000e+00  -3.3459681299050726e-12 1.2165756288760686e+01 0.0000000000000000e+00  -4.2180997594255020e-12 1.2165756288760321e+01 0.0000000000000000e+00  -2.8869504773019300e-12 1.2165756288760020e+01 0.0000000000000000e+00  -2.6069043164471300e-12 1.2165756288760656e+01 0.0000000000000000e+00  1.1316789901437010e-12 1.2165756288761390e+01 0.0000000000000000e+00  2.7942284493132626e-13 1.2165756288760624e+01 0.0000000000000000e+00  -7.7437357380457983e-13 1.2165756288762109e+01 0.0000000000000000e+00  7.7007409670376867e-10 1.2165756288761786e+01 0.0000000000000000e+00  -1.5983080622973808e-05 1.2165756288759757e+01 0.0000000000000000e+00  3.3166901119393499e-01 1.2165756288760250e+01 0.0000000000000000e+00  -3.2828717961450660e-01 1.4145829725324003e+01 0.0000000000000000e+00  1.5820109627226369e-05 1.4145829725323251e+01 0.0000000000000000e+00  -7.6415778071090612e-10 1.4145829725323193e+01 0.0000000000000000e+00  -1.2246435012037709e-12 1.4145829725321663e+01 0.0000000000000000e+00  -2.5871621417051278e-12 1.4145829725321914e+01 0.0000000000000000e+00  -1.8952987943626950e-12 1.4145829725321553e+01 0.0000000000000000e+00  -1.4357522765486236e-12 1.4145829725322759e+01 0.0000000000000000e+00  -1.8077200356241512e-12 1.4145829725322788e+01 0.0000000000000000e+00  -1.8611837153147483e-12 1.4145829725323058e+01 0.0000000000000000e+00  -3.4522174266801764e-12 1.4145829725324072e+01 0.0000000000000000e+00  -3.6381762170416311e-12 1.4145829725323340e+01 0.0000000000000000e+00  -3.6704347879154835e-12 1.4145829725322688e+01 0.0000000000000000e+00  -4.8502936091944829e-12 1.4145829725322717e+01 0.0000000000000000e+00  -1.6684427437221639e-12 1.4145829725322169e+01 0.0000000000000000e+00  -5.5907420568276449e-13 1.4145829725323310e+01 0.0000000000000000e+00  -1.2675171295332725e-12 1.4145829725323308e+01 0.0000000000000000e+00  1.3480240747161931e-13 1.4145829725323230e+01 0.0000000000000000e+00  -7.5078265548136965e-13 1.4145829725322432e+01 0.0000000000000000e+00  7.6255154286919130e-10 1.4145829725322239e+01 0.0000000000000000e+00  -1.5820112930182517e-05 1.4145829725322569e+01 0.0000000000000000e+00  3.2828717961549109e-01 1.4145829725322070e+01 0.0000000000000000e+00  -3.2439915324318125e-01 1.6104091331342786e+01 0.0000000000000000e+00  1.5632747051312543e-05 1.6104091331343742e+01 0.0000000000000000e+00  -7.5569869753764078e-10 1.6104091331342776e+01 0.0000000000000000e+00  -2.8112468236333744e-12 1.6104091331343991e+01 0.0000000000000000e+00  -2.7257940986407615e-12 1.6104091331343700e+01 0.0000000000000000e+00  -1.9196254500873905e-12 1.6104091331344712e+01 0.0000000000000000e+00  -1.1034726263341848e-12 1.6104091331345497e+01 0.0000000000000000e+00  -4.9920361688328792e-13 1.6104091331343270e+01 0.0000000000000000e+00  -2.8454515433332270e-12 1.6104091331342929e+01 0.0000000000000000e+00  -2.7277565517112070e-12 1.6104091331343593e+01 0.0000000000000000e+00  -3.9536125544231266e-12 1.6104091331342783e+01 0.0000000000000000e+00  -4.8367118660220431e-12 1.6104091331343632e+01 0.0000000000000000e+00  -3.0516541706222474e-12 1.6104091331342666e+01 0.0000000000000000e+00  -3.4654620658442424e-12 1.6104091331342644e+01 0.0000000000000000e+00  -1.7534502270497951e-12 1.6104091331342186e+01 0.0000000000000000e+00  8.9596300303988357e-13 1.6104091331341785e+01 0.0000000000000000e+00  2.6030870909643768e-13 1.6104091331342797e+01 0.0000000000000000e+00  -2.0804338606762078e-12 1.6104091331342591e+01 0.0000000000000000e+00  7.5396892518099870e-10 1.6104091331344915e+01 0.0000000000000000e+00  -1.5632750205252658e-05 1.6104091331343376e+01 0.0000000000000000e+00  3.2439915324953800e-01 1.6104091331345796e+01 0.0000000000000000e+00  -3.2001092710946283e-01 1.8037521610746268e+01 0.0000000000000000e+00  1.5421279357234682e-05 1.8037521610745777e+01 0.0000000000000000e+00  -7.4473987178580601e-10 1.8037521610747024e+01 0.0000000000000000e+00  -4.4977947459297582e-13 1.8037521610747206e+01 0.0000000000000000e+00  -1.2107382781877557e-12 1.8037521610748950e+01 0.0000000000000000e+00  -2.4178136654876201e-13 1.8037521610749280e+01 0.0000000000000000e+00  -3.5219224077369331e-12 1.8037521610748964e+01 0.0000000000000000e+00  -3.1917594049185559e-12 1.8037521610746996e+01 0.0000000000000000e+00  -2.4436058839598495e-12 1.8037521610746822e+01 0.0000000000000000e+00  -2.5786934548678345e-12 1.8037521610745952e+01 0.0000000000000000e+00  -3.6884942853019269e-12 1.8037521610746623e+01 0.0000000000000000e+00  -4.3698808051014773e-12 1.8037521610746687e+01 0.0000000000000000e+00  -5.1689488672527886e-12 1.8037521610747095e+01 0.0000000000000000e+00  -2.7143751054283812e-12 1.8037521610745905e+01 0.0000000000000000e+00  -1.0253836585617631e-12 1.8037521610746335e+01 0.0000000000000000e+00  1.4970177362356058e-13 1.8037521610745575e+01 0.0000000000000000e+00  1.2229119490903344e-12 1.8037521610746037e+01 0.0000000000000000e+00  2.9387910486520892e-13 1.8037521610747749e+01 0.0000000000000000e+00  7.4398341700938742e-10 1.8037521610746474e+01 0.0000000000000000e+00  -1.5421283727989247e-05 1.8037521610748545e+01 0.0000000000000000e+00  3.2001092711439033e-01 1.8037521610746666e+01 0.0000000000000000e+00  -3.1512926749836939e-01 1.9943139355353853e+01 0.0000000000000000e+00  1.5186036482675271e-05 1.9943139355354354e+01 0.0000000000000000e+00  -7.3335287897098408e-10 1.9943139355356355e+01 0.0000000000000000e+00  -1.5778442590156852e-13 1.9943139355356379e+01 0.0000000000000000e+00  -2.3152405160625568e-13 1.9943139355357491e+01 0.0000000000000000e+00  -1.1454399520842615e-12 1.9943139355356902e+01 0.0000000000000000e+00  -3.2353061817681615e-12 1.9943139355357914e+01 0.0000000000000000e+00  -4.2821288181117841e-12 1.9943139355357182e+01 0.0000000000000000e+00  -3.2278424754647167e-12 1.9943139355356323e+01 0.0000000000000000e+00  -4.2263250850240043e-12 1.9943139355355434e+01 0.0000000000000000e+00  -3.7934472810344387e-12 1.9943139355354997e+01 0.0000000000000000e+00  -3.6798353212434852e-12 1.9943139355354429e+01 0.0000000000000000e+00  -3.9911861090967567e-12 1.9943139355354546e+01 0.0000000000000000e+00  -3.6188920229890735e-12 1.9943139355355363e+01 0.0000000000000000e+00  -1.6779770378555057e-12 1.9943139355356426e+01 0.0000000000000000e+00  6.4567277691103602e-13 1.9943139355355559e+01 0.0000000000000000e+00  7.9555289076025870e-13 1.9943139355355122e+01 0.0000000000000000e+00  -7.2979810446954109e-13 1.9943139355354091e+01 0.0000000000000000e+00  7.3297317604554687e-10 1.9943139355353178e+01 0.0000000000000000e+00  -1.5186036059175628e-05 1.9943139355355083e+01 0.0000000000000000e+00  3.1512926749851555e-01 1.9943139355354269e+01 0.0000000000000000e+00  -3.0976170153563620e-01 2.1818006241677569e+01 0.0000000000000000e+00  1.4927376444121268e-05 2.1818006241678184e+01 0.0000000000000000e+00  -7.2040905413088870e-10 2.1818006241678745e+01 0.0000000000000000e+00  8.1420909622691308e-13 2.1818006241678781e+01 0.0000000000000000e+00  -1.1265758212253663e-12 2.1818006241679505e+01 0.0000000000000000e+00  -4.7679944594970148e-13 2.1818006241680312e+01 0.0000000000000000e+00  -2.7721508998284002e-12 2.1818006241679853e+01 0.0000000000000000e+00  -4.6571785336070385e-12 2.1818006241681594e+01 0.0000000000000000e+00  -2.5167531170220800e-12 2.1818006241682099e+01 0.0000000000000000e+00  -4.7352166783283221e-12 2.1818006241681275e+01 0.0000000000000000e+00  -4.4009192808856572e-12 2.1818006241679935e+01 0.0000000000000000e+00  -4.3088465975556124e-12 2.1818006241679861e+01 0.0000000000000000e+00  -4.6513705723473377e-12 2.1818006241680735e+01 0.0000000000000000e+00  -1.4972064974492628e-12 2.1818006241680433e+01 0.0000000000000000e+00  -2.2482104876735335e-12 2.1818006241679242e+01 0.0000000000000000e+00  -1.0161622670154130e-12 2.1818006241678155e+01 0.0000000000000000e+00  7.2599543538692757e-13 2.1818006241678511e+01 0.0000000000000000e+00  -1.9611524685862210e-13 2.1818006241678127e+01 0.0000000000000000e+00  7.1977818052485461e-10 2.1818006241680056e+01 0.0000000000000000e+00  -1.4927376004932788e-05 2.1818006241677413e+01 0.0000000000000000e+00  3.0976170153810462e-01 2.1818006241678034e+01 0.0000000000000000e+00  -3.0391650557926386e-01 2.3659231361587459e+01 0.0000000000000000e+00  1.4645697935298911e-05 2.3659231361586034e+01 0.0000000000000000e+00  -7.0690631472044637e-10 2.3659231361585110e+01 0.0000000000000000e+00  9.2583019118342458e-13 2.3659231361585920e+01 0.0000000000000000e+00  8.3206287179649946e-13 2.3659231361585434e+01 0.0000000000000000e+00  -8.2335017365912874e-13 2.3659231361586055e+01 0.0000000000000000e+00  -1.5222464065070058e-12 2.3659231361586357e+01 0.0000000000000000e+00  -2.4194556169138278e-12 2.3659231361588233e+01 0.0000000000000000e+00  -4.0895617377582734e-12 2.3659231361587107e+01 0.0000000000000000e+00  -5.8903603038966820e-12 2.3659231361587000e+01 0.0000000000000000e+00  -4.8527940773206200e-12 2.3659231361587373e+01 0.0000000000000000e+00  -2.4981624860365214e-12 2.3659231361588208e+01 0.0000000000000000e+00  -4.5279548779583758e-12 2.3659231361587654e+01 0.0000000000000000e+00  -5.1039134293935450e-12 2.3659231361587494e+01 0.0000000000000000e+00  -1.8578661067483065e-12 2.3659231361584766e+01 0.0000000000000000e+00  -8.3666330025219111e-13 2.3659231361586148e+01 0.0000000000000000e+00  1.6119512560743410e-13 2.3659231361586652e+01 0.0000000000000000e+00  6.4551893145370357e-13 2.3659231361584990e+01 0.0000000000000000e+00  7.0560410182844706e-10 2.3659231361584371e+01 0.0000000000000000e+00  -1.4645698709440992e-05 2.3659231361585153e+01 0.0000000000000000e+00  3.0391650558434619e-01 2.3659231361584411e+01 0.0000000000000000e+00  -2.9760269245659038e-01 2.5463975679860177e+01 0.0000000000000000e+00  1.4341436737449274e-05 2.5463975679861115e+01 0.0000000000000000e+00  -6.9114887061829711e-10 2.5463975679861186e+01 0.0000000000000000e+00  7.2775928892365459e-13 2.5463975679862664e+01 0.0000000000000000e+00  -6.0228988707792866e-13 2.5463975679861861e+01 0.0000000000000000e+00  5.5731685348032516e-13 2.5463975679862148e+01 0.0000000000000000e+00  -5.1778899467862230e-13 2.5463975679861921e+01 0.0000000000000000e+00  -4.2263808017566675e-12 2.5463975679860706e+01 0.0000000000000000e+00  -3.857