<?xml version="1.0"?>
<VTKFile type="UnstructuredGrid"  version="0.1"  >
<UnstructuredGrid>
<Piece  NumberOfPoints="431" NumberOfCells="800">
<Points>
<DataArray  type="Float64"  NumberOfComponents="3"  format="ascii">-0.25 -1 0  -0.2 -1 0  -0.15 -1 0  -0.1 -1 0  -0.04999999999999999 -1 0  0 -1 0  0.04999999999999999 -1 0  0.09999999999999998 -1 0  0.15 -1 0  0.2 -1 0  0.25 -1 0  -0.25 -0.95 0  -0.2 -0.95 0  -0.15 -0.95 0  -0.1 -0.95 0  -0.04999999999999999 -0.95 0  0 -0.95 0  0.04999999999999999 -0.95 0  0.09999999999999998 -0.95 0  0.15 -0.95 0  0.2 -0.95 0  0.25 -0.95 0  -0.25 -0.9 0  -0.2 -0.9 0  -0.15 -0.9 0  -0.1 -0.9 0  -0.04999999999999999 -0.9 0  0 -0.9 0  0.04999999999999999 -0.9 0  0.09999999999999998 -0.9 0  0.15 -0.9 0  0.2 -0.9 0  0.25 -0.9 0  -0.25 -0.85 0  -0.2 -0.85 0  -0.15 -0.85 0  -0.1 -0.85 0  -0.04999999999999999 -0.85 0  0 -0.85 0  0.04999999999999999 -0.85 0  0.09999999999999998 -0.85 0  0.15 -0.85 0  0.2 -0.85 0  0.25 -0.85 0  -0.25 -0.8 0  -0.2 -0.8 0  -0.15 -0.8 0  -0.1 -0.8 0  -0.04999999999999999 -0.8 0  0 -0.8 0  0.04999999999999999 -0.8 0  0.09999999999999998 -0.8 0  0.15 -0.8 0  0.2 -0.8 0  0.25 -0.8 0  -0.25 -0.75 0  -0.2 -0.75 0  -0.15 -0.75 0  -0.1 -0.75 0  -0.04999999999999999 -0.75 0  0 -0.75 0  0.04999999999999999 -0.75 0  0.09999999999999998 -0.75 0  0.15 -0.75 0  0.2 -0.75 0  0.25 -0.75 0  -0.25 -0.7 0  -0.2 -0.7 0  -0.15 -0.7 0  -0.1 -0.7 0  -0.04999999999999999 -0.7 0  0 -0.7 0  0.04999999999999999 -0.7 0  0.09999999999999998 -0.7 0  0.15 -0.7 0  0.2 -0.7 0  0.25 -0.7 0  -0.25 -0.65 0  -0.2 -0.65 0  -0.15 -0.65 0  -0.1 -0.65 0  -0.04999999999999999 -0.65 0  0 -0.65 0  0.04999999999999999 -0.65 0  0.09999999999999998 -0.65 0  0.15 -0.65 0  0.2 -0.65 0  0.25 -0.65 0  -0.25 -0.6 0  -0.2 -0.6 0  -0.15 -0.6 0  -0.1 -0.6 0  -0.04999999999999999 -0.6 0  0 -0.6 0  0.04999999999999999 -0.6 0  0.09999999999999998 -0.6 0  0.15 -0.6 0  0.2 -0.6 0  0.25 -0.6 0  -0.25 -0.55 0  -0.2 -0.55 0  -0.15 -0.55 0  -0.1 -0.55 0  -0.04999999999999999 -0.55 0  0 -0.55 0  0.04999999999999999 -0.55 0  0.09999999999999998 -0.55 0  0.15 -0.55 0  0.2 -0.55 0  0.25 -0.55 0  -0.25 -0.5 0  -0.2 -0.5 0  -0.15 -0.5 0  -0.1 -0.5 0  -0.04999999999999999 -0.5 0  0 -0.5 0  0.04999999999999999 -0.5 0  0.09999999999999998 -0.5 0  0.15 -0.5 0  0.2 -0.5 0  0.25 -0.5 0  -0.25 -0.45 0  -0.2 -0.45 0  -0.15 -0.45 0  -0.1 -0.45 0  -0.04999999999999999 -0.45 0  0 -0.45 0  0.04999999999999999 -0.45 0  0.09999999999999998 -0.45 0  0.15 -0.45 0  0.2 -0.45 0  0.25 -0.45 0  -0.25 -0.4 0  -0.2 -0.4 0  -0.15 -0.4 0  -0.1 -0.4 0  -0.04999999999999999 -0.4 0  0 -0.4 0  0.04999999999999999 -0.4 0  0.09999999999999998 -0.4 0  0.15 -0.4 0  0.2 -0.4 0  0.25 -0.4 0  -0.25 -0.35 0  -0.2 -0.35 0  -0.15 -0.35 0  -0.1 -0.35 0  -0.04999999999999999 -0.35 0  0 -0.35 0  0.04999999999999999 -0.35 0  0.09999999999999998 -0.35 0  0.15 -0.35 0  0.2 -0.35 0  0.25 -0.35 0  -0.25 -0.3 0  -0.2 -0.3 0  -0.15 -0.3 0  -0.1 -0.3 0  -0.04999999999999999 -0.3 0  0 -0.3 0  0.04999999999999999 -0.3 0  0.09999999999999998 -0.3 0  0.15 -0.3 0  0.2 -0.3 0  0.25 -0.3 0  -0.25 -0.25 0  -0.2 -0.25 0  -0.15 -0.25 0  -0.1 -0.25 0  -0.04999999999999999 -0.25 0  0 -0.25 0  0.04999999999999999 -0.25 0  0.09999999999999998 -0.25 0  0.15 -0.25 0  0.2 -0.25 0  0.25 -0.25 0  -0.25 -0.2 0  -0.2 -0.2 0  -0.15 -0.2 0  -0.1 -0.2 0  -0.04999999999999999 -0.2 0  0 -0.2 0  0.04999999999999999 -0.2 0  0.09999999999999998 -0.2 0  0.15 -0.2 0  0.2 -0.2 0  0.25 -0.2 0  -0.25 -0.15 0  -0.2 -0.15 0  -0.15 -0.15 0  -0.1 -0.15 0  -0.04999999999999999 -0.15 0  0 -0.15 0  0.04999999999999999 -0.15 0  0.09999999999999998 -0.15 0  0.15 -0.15 0  0.2 -0.15 0  0.25 -0.15 0  -0.25 -0.09999999999999998 0  -0.2 -0.09999999999999998 0  -0.15 -0.09999999999999998 0  -0.1 -0.09999999999999998 0  -0.04999999999999999 -0.09999999999999998 0  0 -0.09999999999999998 0  0.04999999999999999 -0.09999999999999998 0  0.09999999999999998 -0.09999999999999998 0  0.15 -0.09999999999999998 0  0.2 -0.09999999999999998 0  0.25 -0.09999999999999998 0  -0.25 -0.05000000000000004 0  -0.2 -0.05000000000000004 0  -0.15 -0.05000000000000004 0  -0.1 -0.05000000000000004 0  -0.04999999999999999 -0.05000000000000004 0  0 -0.05000000000000004 0  0.04999999999999999 -0.05000000000000004 0  0.09999999999999998 -0.05000000000000004 0  0.15 -0.05000000000000004 0  0.2 -0.05000000000000004 0  0.25 -0.05000000000000004 0  -0.25 0 0  -0.2 0 0  -0.15 0 0  -0.1 0 0  -0.04999999999999999 0 0  0 0 0  0.04999999999999999 0 0  0.09999999999999998 0 0  0.15 0 0  0.2 0 0  0.25 0 0  -0.225 -0.975 0  -0.175 -0.975 0  -0.125 -0.975 0  -0.07500000000000001 -0.975 0  -0.02499999999999999 -0.975 0  0.02500000000000002 -0.975 0  0.07500000000000001 -0.975 0  0.125 -0.975 0  0.175 -0.975 0  0.225 -0.975 0  -0.225 -0.925 0  -0.175 -0.925 0  -0.125 -0.925 0  -0.07500000000000001 -0.925 0  -0.02499999999999999 -0.925 0  0.02500000000000002 -0.925 0  0.07500000000000001 -0.925 0  0.125 -0.925 0  0.175 -0.925 0  0.225 -0.925 0  -0.225 -0.875 0  -0.175 -0.875 0  -0.125 -0.875 0  -0.07500000000000001 -0.875 0  -0.02499999999999999 -0.875 0  0.02500000000000002 -0.875 0  0.07500000000000001 -0.875 0  0.125 -0.875 0  0.175 -0.875 0  0.225 -0.875 0  -0.225 -0.825 0  -0.175 -0.825 0  -0.125 -0.825 0  -0.07500000000000001 -0.825 0  -0.02499999999999999 -0.825 0  0.02500000000000002 -0.825 0  0.07500000000000001 -0.825 0  0.125 -0.825 0  0.175 -0.825 0  0.225 -0.825 0  -0.225 -0.775 0  -0.175 -0.775 0  -0.125 -0.775 0  -0.07500000000000001 -0.775 0  -0.02499999999999999 -0.775 0  0.02500000000000002 -0.775 0  0.07500000000000001 -0.775 0  0.125 -0.775 0  0.175 -0.775 0  0.225 -0.775 0  -0.225 -0.725 0  -0.175 -0.725 0  -0.125 -0.725 0  -0.07500000000000001 -0.725 0  -0.02499999999999999 -0.725 0  0.02500000000000002 -0.725 0  0.07500000000000001 -0.725 0  0.125 -0.725 0  0.175 -0.725 0  0.225 -0.725 0  -0.225 -0.675 0  -0.175 -0.675 0  -0.125 -0.675 0  -0.07500000000000001 -0.675 0  -0.02499999999999999 -0.675 0  0.02500000000000002 -0.675 0  0.07500000000000001 -0.675 0  0.125 -0.675 0  0.175 -0.675 0  0.225 -0.675 0  -0.225 -0.625 0  -0.175 -0.625 0  -0.125 -0.625 0  -0.07500000000000001 -0.625 0  -0.02499999999999999 -0.625 0  0.02500000000000002 -0.625 0  0.07500000000000001 -0.625 0  0.125 -0.625 0  0.175 -0.625 0  0.225 -0.625 0  -0.225 -0.575 0  -0.175 -0.575 0  -0.125 -0.575 0  -0.07500000000000001 -0.575 0  -0.02499999999999999 -0.575 0  0.02500000000000002 -0.575 0  0.07500000000000001 -0.575 0  0.125 -0.575 0  0.175 -0.575 0  0.225 -0.575 0  -0.225 -0.525 0  -0.175 -0.525 0  -0.125 -0.525 0  -0.07500000000000001 -0.525 0  -0.02499999999999999 -0.525 0  0.02500000000000002 -0.525 0  0.07500000000000001 -0.525 0  0.125 -0.525 0  0.175 -0.525 0  0.225 -0.525 0  -0.225 -0.475 0  -0.175 -0.475 0  -0.125 -0.475 0  -0.07500000000000001 -0.475 0  -0.02499999999999999 -0.475 0  0.02500000000000002 -0.475 0  0.07500000000000001 -0.475 0  0.125 -0.475 0  0.175 -0.475 0  0.225 -0.475 0  -0.225 -0.425 0  -0.175 -0.425 0  -0.125 -0.425 0  -0.07500000000000001 -0.425 0  -0.02499999999999999 -0.425 0  0.02500000000000002 -0.425 0  0.07500000000000001 -0.425 0  0.125 -0.425 0  0.175 -0.425 0  0.225 -0.425 0  -0.225 -0.375 0  -0.175 -0.375 0  -0.125 -0.375 0  -0.07500000000000001 -0.375 0  -0.02499999999999999 -0.375 0  0.02500000000000002 -0.375 0  0.07500000000000001 -0.375 0  0.125 -0.375 0  0.175 -0.375 0  0.225 -0.375 0  -0.225 -0.325 0  -0.175 -0.325 0  -0.125 -0.325 0  -0.07500000000000001 -0.325 0  -0.02499999999999999 -0.325 0  0.02500000000000002 -0.325 0  0.07500000000000001 -0.325 0  0.125 -0.325 0  0.175 -0.325 0  0.225 -0.325 0  -0.225 -0.275 0  -0.175 -0.275 0  -0.125 -0.275 0  -0.07500000000000001 -0.275 0  -0.02499999999999999 -0.275 0  0.02500000000000002 -0.275 0  0.07500000000000001 -0.275 0  0.125 -0.275 0  0.175 -0.275 0  0.225 -0.275 0  -0.225 -0.225 0  -0.175 -0.225 0  -0.125 -0.225 0  -0.07500000000000001 -0.225 0  -0.02499999999999999 -0.225 0  0.02500000000000002 -0.225 0  0.07500000000000001 -0.225 0  0.125 -0.225 0  0.175 -0.225 0  0.225 -0.225 0  -0.225 -0.175 0  -0.175 -0.175 0  -0.125 -0.175 0  -0.07500000000000001 -0.175 0  -0.02499999999999999 -0.175 0  0.02500000000000002 -0.175 0  0.07500000000000001 -0.175 0  0.125 -0.175 0  0.175 -0.175 0  0.225 -0.175 0  -0.225 -0.125 0  -0.175 -0.125 0  -0.125 -0.125 0  -0.07500000000000001 -0.125 0  -0.02499999999999999 -0.125 0  0.02500000000000002 -0.125 0  0.07500000000000001 -0.125 0  0.125 -0.125 0  0.175 -0.125 0  0.225 -0.125 0  -0.225 -0.07499999999999996 0  -0.175 -0.07499999999999996 0  -0.125 -0.07499999999999996 0  -0.07500000000000001 -0.07499999999999996 0  -0.02499999999999999 -0.07499999999999996 0  0.02500000000000002 -0.07499999999999996 0  0.07500000000000001 -0.07499999999999996 0  0.125 -0.07499999999999996 0  0.175 -0.07499999999999996 0  0.225 -0.07499999999999996 0  -0.225 -0.02500000000000002 0  -0.175 -0.02500000000000002 0  -0.125 -0.02500000000000002 0  -0.07500000000000001 -0.02500000000000002 0  -0.02499999999999999 -0.02500000000000002 0  0.02500000000000002 -0.02500000000000002 0  0.07500000000000001 -0.02500000000000002 0  0.125 -0.02500000000000002 0  0.175 -0.02500000000000002 0  0.225 -0.02500000000000002 0  </DataArray>
</Points>
<Cells>
[...]
<PointData  Vectors="flow"> 
<DataArray  type="Float64"  Name="flow"  NumberOfComponents="3" format="ascii">-1.7903974989073912e+00 3.5810092511878358e+00 0.0000000000000000e+00  3.4473062844383605e-04 3.5810092511848195e+00 0.0000000000000000e+00  -6.5835667495384788e-08 3.5810092511854776e+00 0.0000000000000000e+00  1.2566098087426260e-11 3.5810092511861633e+00 0.0000000000000000e+00  1.6021375481378582e-12 3.5810092511829241e+00 0.0000000000000000e+00  1.4152849046065911e-12 3.5810092511848759e+00 0.0000000000000000e+00  2.3448472310407474e-12 3.5810092511859954e+00 0.0000000000000000e+00  -1.0556719721654068e-11 3.5810092511879401e+00 0.0000000000000000e+00  6.5835700115818737e-08 3.5810092511867802e+00 0.0000000000000000e+00  -3.4473062884680694e-04 3.5810092511836835e+00 0.0000000000000000e+00  1.7903974989092097e+00 3.5810092511854874e+00 0.0000000000000000e+00  -1.7848839149618916e+00 1.0730407018920207e+01 0.0000000000000000e+00  3.4367766311614774e-04 1.0730407018919056e+01 0.0000000000000000e+00  -6.5647678515412127e-08 1.0730407018919209e+01 0.0000000000000000e+00  1.1822963498058695e-11 1.0730407018919987e+01 0.0000000000000000e+00  1.1289969993505079e-12 1.0730407018920895e+01 0.0000000000000000e+00  2.7416454779638935e-12 1.0730407018921463e+01 0.0000000000000000e+00  2.4949678030413785e-12 1.0730407018921269e+01 0.0000000000000000e+00  -1.0229115274314050e-11 1.0730407018920248e+01 0.0000000000000000e+00  6.5647713689176444e-08 1.0730407018919989e+01 0.0000000000000000e+00  -3.4367766408458287e-04 1.0730407018919689e+01 0.0000000000000000e+00  1.7848839149621540e+00 1.0730407018921856e+01 0.0000000000000000e+00  -1.7683768460554627e+00 2.1394724205652548e+01 0.0000000000000000e+00  3.4052472747738213e-04 2.1394724205654605e+01 0.0000000000000000e+00  -6.5088794815790880e-08 2.1394724205655837e+01 0.0000000000000000e+00  1.2541829272301959e-11 2.1394724205655955e+01 0.0000000000000000e+00  1.9717129020942581e-12 2.1394724205655688e+01 0.0000000000000000e+00  2.2081004762498248e-12 2.1394724205655599e+01 0.0000000000000000e+00  9.3336854837954880e-13 2.1394724205655152e+01 0.0000000000000000e+00  -9.9848335090136974e-12 2.1394724205655375e+01 0.0000000000000000e+00  6.5090236440568244e-08 2.1394724205656459e+01 0.0000000000000000e+00  -3.4052472795282783e-04 2.1394724205656242e+01 0.0000000000000000e+00  1.7683768460555183e+00 2.1394724205653819e+01 0.0000000000000000e+00  -1.7409771504573965e+00 3.1927265509252052e+01 0.0000000000000000e+00  3.3528967491856354e-04 3.1927265509252063e+01 0.0000000000000000e+00  -6.4158787645461440e-08 3.1927265509252162e+01 0.0000000000000000e+00  1.2160675381212693e-11 3.1927265509251271e+01 0.0000000000000000e+00  1.4426905284447937e-12 3.1927265509252287e+01 0.0000000000000000e+00  2.8592161370277932e-12 3.1927265509251470e+01 0.0000000000000000e+00  6.7753907745336583e-13 3.1927265509250962e+01 0.0000000000000000e+00  -1.0075720737177145e-11 3.1927265509251189e+01 0.0000000000000000e+00  6.4162312241526160e-08 3.1927265509250024e+01 0.0000000000000000e+00  -3.3528967647201817e-04 3.1927265509252020e+01 0.0000000000000000e+00  1.7409771504562770e+00 3.1927265509251303e+01 0.0000000000000000e+00  -1.7028522903585337e+00 4.2263150155233383e+01 0.0000000000000000e+00  3.2800224584252953e-04 4.2263150155232545e+01 0.0000000000000000e+00  -6.2861111740317783e-08 4.2263150155233646e+01 0.0000000000000000e+00  1.2297228309292796e-11 4.2263150155232438e+01 0.0000000000000000e+00  1.5713297298965338e-12 4.2263150155230946e+01 0.0000000000000000e+00  7.5371840605609848e-13 4.2263150155231912e+01 0.0000000000000000e+00  1.3494700328635948e-12 4.2263150155232005e+01 0.0000000000000000e+00  -9.4770197447285680e-12 4.2263150155230001e+01 0.0000000000000000e+00  6.2861200188853388e-08 4.2263150155231479e+01 0.0000000000000000e+00  -3.2800224513481125e-04 4.2263150155229290e+01 0.0000000000000000e+00  1.7028522903593963e+00 4.2263150155230853e+01 0.0000000000000000e+00  -1.6542353803955197e+00 5.2338699571711366e+01 0.0000000000000000e+00  3.1870400994425647e-04 5.2338699571712368e+01 0.0000000000000000e+00  -6.1193104011343536e-08 5.2338699571710237e+01 0.0000000000000000e+00  1.0376065501221928e-11 5.2338699571712638e+01 0.0000000000000000e+00  1.1753040493856988e-12 5.2338699571711047e+01 0.0000000000000000e+00  2.4779107445314071e-12 5.2338699571711693e+01 0.0000000000000000e+00  4.0799871827585733e-13 5.2338699571711579e+01 0.0000000000000000e+00  -1.1166960736844509e-11 5.2338699571711672e+01 0.0000000000000000e+00  6.1195109596817930e-08 5.2338699571710464e+01 0.0000000000000000e+00  -3.1870400944252191e-04 5.2338699571710976e+01 0.0000000000000000e+00  1.6542353803963956e+00 5.2338699571711629e+01 0.0000000000000000e+00  -1.5954238574067947e+00 6.2091827469657240e+01 0.0000000000000000e+00  3.0744830848859181e-04 6.2091827469658668e+01 0.0000000000000000e+00  -5.9162928669563288e-08 6.2091827469656920e+01 0.0000000000000000e+00  1.2230996709810472e-11 6.2091827469657055e+01 0.0000000000000000e+00  1.5595549766659864e-12 6.2091827469658668e+01 0.0000000000000000e+00  3.9550825735449862e-13 6.2091827469657346e+01 0.0000000000000000e+00  1.8346823386857401e-12 6.2091827469656664e+01 0.0000000000000000e+00  -1.0103262009700567e-11 6.2091827469659592e+01 0.0000000000000000e+00  5.9161993938900359e-08 6.2091827469658732e+01 0.0000000000000000e+00  -3.0744830771939965e-04 6.2091827469659762e+01 0.0000000000000000e+00  1.5954238574092292e+00 6.2091827469658440e+01 0.0000000000000000e+00  -1.5267777738400992e+00 7.1462420811460291e+01 0.0000000000000000e+00  2.9430013605489966e-04 7.1462420811459893e+01 0.0000000000000000e+00  -5.6770473360142421e-08 7.1462420811460746e+01 0.0000000000000000e+00  1.0216157338111930e-11 7.1462420811459751e+01 0.0000000000000000e+00  2.2259210081705460e-12 7.1462420811460831e+01 0.0000000000000000e+00  1.4011684277611554e-12 7.1462420811460163e+01 0.0000000000000000e+00  7.4415066762761557e-13 7.1462420811461357e+01 0.0000000000000000e+00  -8.1893178471120831e-12 7.1462420811459182e+01 0.0000000000000000e+00  5.6771350996756025e-08 7.1462420811460220e+01 0.0000000000000000e+00  -2.9430013582157881e-04 7.1462420811460362e+01 0.0000000000000000e+00  1.5267777738375126e+00 7.1462420811459808e+01 0.0000000000000000e+00  -1.4487177182034812e+00 8.0392709419311771e+01 0.0000000000000000e+00  2.7933599204929137e-04 8.0392709419309568e+01 0.0000000000000000e+00  -5.4031284997548373e-08 8.0392709419311615e+01 0.0000000000000000e+00  1.2813256416603668e-11 8.0392709419311117e+01 0.0000000000000000e+00  5.9176464824619974e-13 8.0392709419309696e+01 0.0000000000000000e+00  1.8690030500750496e-12 8.0392709419309725e+01 0.0000000000000000e+00  1.2778205326094578e-12 8.0392709419309853e+01 0.0000000000000000e+00  -1.1801172012326901e-11 8.0392709419309554e+01 0.0000000000000000e+00  5.4032178192457169e-08 8.0392709419309284e+01 0.0000000000000000e+00  -2.7933599185505866e-04 8.0392709419309369e+01 0.0000000000000000e+00  1.4487177182008457e+00 8.0392709419309568e+01 0.0000000000000000e+00  -1.3617223676545307e+00 8.8827622000469177e+01 0.0000000000000000e+00  2.6264361029801971e-04 8.8827622000468494e+01 0.0000000000000000e+00  -5.0919956301889823e-08 8.8827622000467827e+01 0.0000000000000000e+00  -4.4612177310783430e-12 8.8827622000468139e+01 0.0000000000000000e+00  6.9157826269373529e-12 8.8827622000466661e+01 0.0000000000000000e+00  1.2344796669392191e-12 8.8827622000466505e+01 0.0000000000000000e+00  -5.7156980413734550e-12 8.8827622000465169e+01 0.0000000000000000e+00  4.7702490600388481e-12 8.8827622000466150e+01 0.0000000000000000e+00  5.0921107489162679e-08 8.8827622000464743e+01 0.0000000000000000e+00  -2.6264361008277083e-04 8.8827622000465837e+01 0.0000000000000000e+00  1.3617223676497008e+00 8.8827622000464757e+01 0.0000000000000000e+00  -1.2663256802026304e+00 9.6715126402606970e+01 0.0000000000000000e+00  2.4432199311008422e-04 9.6715126402608519e+01 0.0000000000000000e+00  -4.7646057798572469e-08 9.6715126402608135e+01 0.0000000000000000e+00  9.1171658411388617e-11 9.6715126402608036e+01 0.0000000000000000e+00  -3.9877411863835235e-11 9.6715126402608007e+01 0.0000000000000000e+00  4.3063107240236588e-13 9.6715126402608263e+01 0.0000000000000000e+00  4.0482206299849553e-11 9.6715126402607936e+01 0.0000000000000000e+00  -9.1903982735825725e-11 9.6715126402607225e+01 0.0000000000000000e+00  4.7647625872710328e-08 9.6715126402608163e+01 0.0000000000000000e+00  -2.4432199386608159e-04 9.6715126402606501e+01 0.0000000000000000e+00  1.2663256802049210e+00 9.6715126402607794e+01 0.0000000000000000e+00  -1.1631137330132479e+00 1.0400655196176686e+02 0.0000000000000000e+00  2.2447900788662162e-04 1.0400655196176683e+02 0.0000000000000000e+00  -4.3046584090990299e-08 1.0400655196176589e+02 0.0000000000000000e+00  -4.6711178387423463e-10 1.0400655196176666e+02 0.0000000000000000e+00  2.2454554048138885e-10 1.0400655196176864e+02 0.0000000000000000e+00  -1.1889188718066579e-13 1.0400655196176682e+02 0.0000000000000000e+00  -2.2376138037539049e-10 1.0400655196176758e+02 0.0000000000000000e+00  4.6757646389693782e-10 1.0400655196176650e+02 0.0000000000000000e+00  4.3046848874960192e-08 1.0400655196176768e+02 0.0000000000000000e+00  -2.2447900798912082e-04 1.0400655196176716e+02 0.0000000000000000e+00  1.1631137330125467e+00 1.0400655196176849e+02 0.0000000000000000e+00  -1.0527212371882919e+00 1.1065689186980052e+02 0.0000000000000000e+00  2.0324334980669252e-04 1.1065689186980144e+02 0.0000000000000000e+00  -4.4166962261198751e-08 1.1065689186980067e+02 0.0000000000000000e+00  2.7245969411659945e-09 1.1065689186980046e+02 0.0000000000000000e+00  -1.2244548494935820e-09 1.1065689186979974e+02 0.0000000000000000e+00  4.0222686954068092e-13 1.1065689186980082e+02 0.0000000000000000e+00  1.2253094696398153e-09 1.1065689186980069e+02 0.0000000000000000e+00  -2.7236263835952335e-09 1.1065689186980200e+02 0.0000000000000000e+00  4.4167387902697288e-08 1.1065689186980163e+02 0.0000000000000000e+00  -2.0324335065034381e-04 1.1065689186980130e+02 0.0000000000000000e+00  1.0527212371861796e+00 1.1065689186980028e+02 0.0000000000000000e+00  -9.3582763065395402e-01 1.1662508357043106e+02 0.0000000000000000e+00  1.8068743460803751e-04 1.1662508357043039e+02 0.0000000000000000e+00  -9.2794588172492095e-09 1.1662508357043203e+02 0.0000000000000000e+00  -1.5134019338384479e-08 1.1662508357043167e+02 0.0000000000000000e+00  6.3998432881732230e-09 1.1662508357043184e+02 0.0000000000000000e+00  -5.4269499782030158e-13 1.1662508357043244e+02 0.0000000000000000e+00  -6.3972590661365600e-09 1.1662508357043242e+02 0.0000000000000000e+00  1.5135195745418619e-08 1.1662508357043198e+02 0.0000000000000000e+00  9.2787377588857146e-09 1.1662508357043069e+02 0.0000000000000000e+00  -1.8068743471379438e-04 1.1662508357043100e+02 0.0000000000000000e+00  9.3582763065256269e-01 1.1662508357043087e+02 0.0000000000000000e+00  -8.1315347959763140e-01 1.2187426529418686e+02 0.0000000000000000e+00  1.5729971545348637e-04 1.2187426529418696e+02 0.0000000000000000e+00  -1.8460044398529524e-07 1.2187426529418825e+02 0.0000000000000000e+00  8.1475014177498088e-08 1.2187426529418809e+02 0.0000000000000000e+00  -3.1121439447959279e-08 1.2187426529418796e+02 0.0000000000000000e+00  1.1464921527285820e-12 1.2187426529418806e+02 0.0000000000000000e+00  3.1122326639721803e-08 1.2187426529418805e+02 0.0000000000000000e+00  -8.1475383492260390e-08 1.2187426529418659e+02 0.0000000000000000e+00  1.8460076043565808e-07 1.2187426529418715e+02 0.0000000000000000e+00  -1.5729971409623656e-04 1.2187426529418821e+02 0.0000000000000000e+00  8.1315347959396922e-01 1.2187426529418821e+02 0.0000000000000000e+00  -6.8545270194036423e-01 1.2637200696437675e+02 0.0000000000000000e+00  1.3104120894584374e-04 1.2637200696437611e+02 0.0000000000000000e+00  8.6276693110005209e-07 1.2637200696437539e+02 0.0000000000000000e+00  -4.1295554144794330e-07 1.2637200696437642e+02 0.0000000000000000e+00  1.3379094808493359e-07 1.2637200696437679e+02 0.0000000000000000e+00  3.3486237420343795e-13 1.2637200696437631e+02 0.0000000000000000e+00  -1.3379057968041065e-07 1.2637200696437668e+02 0.0000000000000000e+00  4.1295660243565210e-07 1.2637200696437715e+02 0.0000000000000000e+00  -8.6276657097212541e-07 1.2637200696437645e+02 0.0000000000000000e+00  -1.3104120776632106e-04 1.2637200696437600e+02 0.0000000000000000e+00  6.8545270193752372e-01 1.2637200696437671e+02 0.0000000000000000e+00  -5.5352966434220952e-01 1.3009051384926582e+02 0.0000000000000000e+00  1.1580017062140750e-04 1.3009051384926534e+02 0.0000000000000000e+00  -4.9961956162545087e-06 1.3009051384926551e+02 0.0000000000000000e+00  1.8710397211447030e-06 1.3009051384926545e+02 0.0000000000000000e+00  -4.5273160689652567e-07 1.3009051384926573e+02 0.0000000000000000e+00  9.6641642983192000e-13 1.3009051384926624e+02 0.0000000000000000e+00  4.5273225538627204e-07 1.3009051384926613e+02 0.0000000000000000e+00  -1.8710387793445399e-06 1.3009051384926650e+02 0.0000000000000000e+00  4.9961963356566941e-06 1.3009051384926659e+02 0.0000000000000000e+00  -1.1580017062682835e-04 1.3009051384926678e+02 0.0000000000000000e+00  5.5352966434056516e-01 1.3009051384926633e+02 0.0000000000000000e+00  -4.1808957449489731e-01 1.3300680149977089e+02 0.0000000000000000e+00  2.4591700189221760e-05 1.3300680149977174e+02 0.0000000000000000e+00  2.5763204349257063e-05 1.3300680149977234e+02 0.0000000000000000e+00  -6.5190721251563991e-06 1.3300680149977154e+02 0.0000000000000000e+00  8.6740665845032661e-07 1.3300680149977197e+02 0.0000000000000000e+00  6.6830124652303909e-13 1.3300680149977225e+02 0.0000000000000000e+00  -8.6740485783902445e-07 1.3300680149977183e+02 0.0000000000000000e+00  6.5190736108101918e-06 1.3300680149977248e+02 0.0000000000000000e+00  -2.5763203175918734e-05 1.3300680149977222e+02 0.0000000000000000e+00  -2.4591700150093913e-05 1.3300680149977242e+02 0.0000000000000000e+00  4.1808957449379258e-01 1.3300680149977177e+02 0.0000000000000000e+00  -2.8074198290205504e-01 1.3510284069648438e+02 0.0000000000000000e+00  4.1307632147987035e-04 1.3510284069648429e+02 0.0000000000000000e+00  -1.0465854524881616e-04 1.3510284069648480e+02 0.0000000000000000e+00  7.4579519597320096e-06 1.3510284069648534e+02 0.0000000000000000e+00  -5.0737521892811147e-07 1.3510284069648480e+02 0.0000000000000000e+00  9.9800216275126825e-13 1.3510284069648404e+02 0.0000000000000000e+00  5.0737681863466821e-07 1.3510284069648478e+02 0.0000000000000000e+00  -7.4579514588996789e-06 1.3510284069648375e+02 0.0000000000000000e+00  1.0465854623916334e-04 1.3510284069648390e+02 0.0000000000000000e+00  -4.1307632069428858e-04 1.3510284069648327e+02 0.0000000000000000e+00  2.8074198290248314e-01 1.3510284069648364e+02 0.0000000000000000e+00  -1.3621870516171999e-01 1.3636567133316967e+02 0.0000000000000000e+00  -2.1154144486967533e-03 1.3636567133316976e+02 0.0000000000000000e+00  -2.6274953180971205e-05 1.3636567133316944e+02 0.0000000000000000e+00  6.9475899877502378e-06 1.3636567133316942e+02 0.0000000000000000e+00  -1.0078261604751585e-06 1.3636567133316888e+02 0.0000000000000000e+00  7.9958703955448817e-13 1.3636567133316831e+02 0.0000000000000000e+00  1.0078262598099236e-06 1.3636567133316800e+02 0.0000000000000000e+00  -6.9475895497181419e-06 1.3636567133316794e+02 0.0000000000000000e+00  2.6274954727945332e-05 1.3636567133316791e+02 0.0000000000000000e+00  2.1154144487713325e-03 1.3636567133316737e+02 0.0000000000000000e+00  1.3621870516160031e-01 1.3636567133316737e+02 0.0000000000000000e+00  -6.0514853708559531e-02 1.3678748438373930e+02 0.0000000000000000e+00  -5.1228362810935455e-03 1.3678748438373927e+02 0.0000000000000000e+00  2.2041042853355878e-04 1.3678748438373810e+02 0.0000000000000000e+00  -1.8826670118198760e-05 1.3678748438373654e+02 0.0000000000000000e+00  1.9849937941231634e-06 1.3678748438373648e+02 0.0000000000000000e+00  6.8409828922640667e-15 1.3678748438373631e+02 0.0000000000000000e+00  -1.9849936513125501e-06 1.3678748438373526e+02 0.0000000000000000e+00  1.8826670114335440e-05 1.3678748438373623e+02 0.0000000000000000e+00  -2.2041042871778584e-04 1.3678748438373546e+02 0.0000000000000000e+00  5.1228362811393587e-03 1.3678748438373609e+02 0.0000000000000000e+00  6.0514853708557463e-02 1.3678748438373651e+02 0.0000000000000000e+00  8.9364825139443127e-01 3.5857267059093072e+00 0.0000000000000000e+00  -1.7206920356023083e-04 3.5857267059093938e+00 0.0000000000000000e+00  3.2864362551873304e-08 3.5857267059114615e+00 0.0000000000000000e+00  -4.8968863690469618e-12 3.5857267059101692e+00 0.0000000000000000e+00  9.1489905332958708e-13 3.5857267059086175e+00 0.0000000000000000e+00  7.6428425699166202e-13 3.5857267059088880e+00 0.0000000000000000e+00  8.5068388738952679e-12 3.5857267059099334e+00 0.0000000000000000e+00  -3.2861513339770829e-08 3.5857267059111866e+00 0.0000000000000000e+00  1.7206920275641253e-04 3.5857267059093765e+00 0.0000000000000000e+00  -8.9364825139423165e-01 3.5857267059084794e+00 0.0000000000000000e+00  8.8814413965593741e-01 1.6095581708862493e+01 0.0000000000000000e+00  -1.7101791315200042e-04 1.6095581708863801e+01 0.0000000000000000e+00  3.2678780664891297e-08 1.6095581708863609e+01 0.0000000000000000e+00  -5.3609771373998251e-12 1.6095581708865478e+01 0.0000000000000000e+00  2.4765376234651519e-13 1.6095581708865961e+01 0.0000000000000000e+00  5.4285221191723613e-13 1.6095581708864113e+01 0.0000000000000000e+00  9.0942702362353841e-12 1.6095581708862966e+01 0.0000000000000000e+00  -3.2675290165897689e-08 1.6095581708862213e+01 0.0000000000000000e+00  1.7101791126096933e-04 1.6095581708862504e+01 0.0000000000000000e+00  -8.8814413965414951e-01 1.6095581708862703e+01 0.0000000000000000e+00  8.7716954552836968e-01 2.6715797500990600e+01 0.0000000000000000e+00  -1.6892128926950098e-04 2.6715797500988440e+01 0.0000000000000000e+00  3.2306473259224316e-08 2.6715797500986987e+01 0.0000000000000000e+00  -3.8260476003356763e-12 2.6715797500986412e+01 0.0000000000000000e+00  -4.8670836158237025e-14 2.6715797500987211e+01 0.0000000000000000e+00  2.1207467300181096e-13 2.6715797500988621e+01 0.0000000000000000e+00  8.3774609854483977e-12 2.6715797500988369e+01 0.0000000000000000e+00  -3.2304543371645017e-08 2.6715797500987335e+01 0.0000000000000000e+00  1.6892128815952626e-04 2.6715797500988408e+01 0.0000000000000000e+00  -8.7716954552533455e-01 2.6715797500990444e+01 0.0000000000000000e+00  8.6079153722548807e-01 3.7171462079934180e+01 0.0000000000000000e+00  -1.6579122483746154e-04 3.7171462079937299e+01 0.0000000000000000e+00  3.1746035051744574e-08 3.7171462079936212e+01 0.0000000000000000e+00  -2.9139573557577117e-12 3.7171462079934571e+01 0.0000000000000000e+00  7.9201650480686063e-13 3.7171462079935047e+01 0.0000000000000000e+00  -2.7941348273207714e-13 3.7171462079933782e+01 0.0000000000000000e+00  8.5258326026024897e-12 3.7171462079934322e+01 0.0000000000000000e+00  -3.1748164712728502e-08 3.7171462079935267e+01 0.0000000000000000e+00  1.6579122678342693e-04 3.7171462079935054e+01 0.0000000000000000e+00  -8.6079153722332968e-01 3.7171462079933931e+01 0.0000000000000000e+00  8.3911024112494359e-01 4.7398164460331337e+01 0.0000000000000000e+00  -1.6164554775683390e-04 4.7398164460329312e+01 0.0000000000000000e+00  3.1003930121814411e-08 4.7398164460331721e+01 0.0000000000000000e+00  -6.1657220401313036e-12 4.7398164460329546e+01 0.0000000000000000e+00  3.4028396181713496e-12 4.7398164460328218e+01 0.0000000000000000e+00  6.3441917190890690e-13 4.7398164460332325e+01 0.0000000000000000e+00  4.5312435572088152e-12 4.7398164460329248e+01 0.0000000000000000e+00  -3.1002512245589096e-08 4.7398164460328339e+01 0.0000000000000000e+00  1.6164555032215902e-04 4.7398164460330953e+01 0.0000000000000000e+00  -8.3911024112436061e-01 4.7398164460330996e+01 0.0000000000000000e+00  8.1225827137210094e-01 5.7332893559993195e+01 0.0000000000000000e+00  -1.5650799154257587e-04 5.733289