<?xml version="1.0"?>
<VTKFile type="UnstructuredGrid"  version="0.1"  >
<UnstructuredGrid>
<Piece  NumberOfPoints="854" NumberOfCells="1585">
<Points>
<DataArray  type="Float64"  NumberOfComponents="3"  format="ascii">-0.04301769881032727 -0.07789766764724927 0  -0.04189181960277685 -0.07611574955633513 0  -0.04113485614380685 -0.0778406702871829 0  0.00624679979509361 -0.0777776748102709 0  0.007568916227461957 -0.07713354619579388 0  0.007382729841747624 -0.07843031623139499 0  -0.02649300547176505 -0.08702975760517451 0  -0.0263406063065554 -0.08511740888024559 0  -0.02550850615665724 -0.08614596759352909 0  -0.02084933550610458 -0.06779624883491528 0  -0.01911675057012764 -0.06710909061847127 0  -0.02127151809726676 -0.06627988887730912 0  -0.02355932395340094 -0.07300565754440523 0  -0.02424120674399909 -0.07083644762466612 0  -0.02528234839396254 -0.07235550507120665 0  0.003414444410662295 -0.06667387755197443 0  0.004779010705117206 -0.06723343326758101 0  0.004898532170245292 -0.06588470706159105 0  -0.04508450624939216 -0.07289877322312201 0  -0.04334072568701926 -0.07281119722011131 0  -0.04498843852561831 -0.07457396944552638 0  -0.01233019290593089 -0.08678347112328397 0  -0.0112338405684588 -0.08880426352507724 0  -0.01273075515225664 -0.08916786604196794 0  -0.02487731781150031 -0.08912078797260026 0  -0.02308076237772397 -0.08987146331792781 0  -0.02363550833345763 -0.08867396749658046 0  -0.04364710778737727 -0.08947610695391849 0  -0.04301418522453009 -0.09191095606957841 0  -0.04235961703442911 -0.0904411189668541 0  -0.04202545149712906 -0.0795481471424079 0  -0.04353098224731951 -0.07984041100116517 0  -0.0001289479518082485 -0.09093484953796985 0  -0.001537361812977841 -0.09183103635621589 0  -0.0001024440023580193 -0.09250311526682992 0  -0.02717633928571428 -0.0671875 0  -0.02547575840129358 -0.06789917861829771 0  -0.02660892302130463 -0.0686732810860967 0  -0.02804244587606518 -0.08423194559419436 0  -0.02986151651701308 -0.08345542126252224 0  -0.02944273228431295 -0.08497307522931515 0  0.002378144654088049 -0.07627751572327045 0  0.001485836510060817 -0.07417176389937385 0  0.003438601733579284 -0.07409333596484037 0  -0.01416772838726675 -0.08358641717367554 0  -0.01438092441757664 -0.08541614012962434 0  -0.01595884200481777 -0.08511847584202997 0  -0.0262424283318852 -0.08092416785272258 0  -0.02665141823057518 -0.07860444913168425 0  -0.02515036422374465 -0.07979337743849195 0  0.002005314181027703 -0.07160953721069377 0  0.0005042659000463546 -0.0706442070080241 0  0.001542585041404355 -0.06977073503056669 0  -0.009584768711776409 -0.07507825100308022 0  -0.01157990020702555 -0.0737556443498108 0  -0.01030858530652727 -0.07292718465895769 0  -0.01253972891058217 -0.09069641732879728 0  -0.01384411344556504 -0.0922333898441426 0  -0.01239315970166911 -0.09214278956462488 0  -0.0257700475618113 -0.09648057567556882 0  -0.0263560920378603 -0.09429152410769577 0  -0.02703095132911369 -0.09564516741633013 0  -0.02134487277949115 -0.09413554396678402 0  -0.01968877658969745 -0.09485076374227272 0  -0.02091719731974153 -0.09542021937800599 0  -0.04010064634197606 -0.07057924971757969 0  -0.04164168012530915 -0.06976888025874925 0  -0.04132738058798338 -0.07207961939964694 0  -0.04488879840437942 -0.07631145991727138 0  -0.04340011400537071 -0.07606345743554926 0  -0.001826518818718755 -0.09549248911561954 0  -0.003437109196252027 -0.09614075558673832 0  -0.002233023995066442 -0.09680739911547753 0  -0.007255992924199247 -0.09568128265964732 0  -0.005724784492378706 -0.09504408502530426 0  -0.007780810481280456 -0.09395812364190835 0  -0.0137118687932259 -0.08158202687391057 0  -0.01248023965029664 -0.08291617032045073 0  -0.0108014823312422 -0.07149204022071302 0  -0.009032588102341152 -0.06986902027922305 0  -0.01095681711124807 -0.06954729451736746 0  -0.002931194584325539 -0.06897337298686135 0  -0.002446866923003689 -0.06726113607087911 0  -0.001229707650287227 -0.0686706673061121 0  0.002880492093639446 -0.06466240859797964 0  0.008907581557938372 -0.07010677444136433 0  0.008194986331135287 -0.07203719082326678 0  0.01024567414151233 -0.07100052562916147 0  0.01066098305406274 -0.05999515557027461 0  0.01199697692997241 -0.058984518130708 0  0.01209909079558958 -0.06050787089223954 0  -0.01454856551814738 -0.07721315778584886 0  -0.0152166235939798 -0.07557541333693718 0  -0.0165260688143757 -0.07591326249582545 0  -0.01285352492073821 -0.07211050370584039 0  -0.01748218666510975 -0.06813878302001214 0  -0.01762923752875039 -0.06598599581991983 0  -0.01789083831616858 -0.0715804492939822 0  -0.01780358103167474 -0.07332099473903625 0  -0.01632599156523281 -0.07243771640431323 0  -0.007183493015576356 -0.06924166753497944 0  -0.00855263833068491 -0.06824491119945986 0  -0.03564751029865867 -0.07439774731271727 0  -0.03395211491563267 -0.07495322214508 0  -0.03366797019368069 -0.0734877242641562 0  -0.03455208564641323 -0.08194382303888702 0  -0.03255269639564686 -0.08229603199409749 0  -0.03339906579048692 -0.08124954414524603 0  -0.02704324561419352 -0.07289471972323462 0  -0.02481643742317179 -0.07372899787113088 0  -0.03738360545745725 -0.08168537983806289 0  -0.03599322360724295 -0.08337896242457203 0  -0.03806191498716771 -0.08365977489794321 0  -0.03365282590339484 -0.08692313372691331 0  -0.03558005079508717 -0.08742320875628713 0  -0.03453986567279773 -0.08544024026264552 0  -0.03438518618490685 -0.09242829621017326 0  -0.03487102961521734 -0.09394739526994358 0  -0.03284347077283539 -0.0928402886718603 0  -0.03695888676976247 -0.07756467740738612 0  -0.03501579601208976 -0.07651430571098827 0  -0.03642910979197705 -0.07622226076359578 0  -0.03014613125358451 -0.07424633768158163 0  -0.03047893372488195 -0.07206737163976487 0  -0.03121734171721906 -0.07329504990619225 0  -0.03834687844188856 -0.07228526864991387 0  -0.03836933328569094 -0.07055391585998522 0  -0.03697141779064224 -0.07127734686192946 0  -0.007450830811539287 -0.08780052063043026 0  -0.009320310705092061 -0.08838540211273728 0  -0.008068072222769229 -0.08621390726582412 0  -0.04531250000000001 -0.09690794883681851 0  -0.04493199712142847 -0.09520323073982323 0  -0.04325023819755165 -0.0968739896865731 0  0.009375 -0.09682257628260371 0  0.007808664082198944 -0.09597107339876711 0  0.008444268623215768 -0.09461046788110308 0  0.0007125495420706774 -0.09384324413309353 0  -0.001324185801125433 -0.09348673451877551 0  4.55158174537929e-05 -0.09559543642801521 0  -0.002638588467448458 -0.08480290334513936 0  -0.0009523537286110506 -0.08539467671252784 0  -0.002123245304167003 -0.08646438588906058 0  0.00707564389875579 -0.08712042819884332 0  0.006175460256179339 -0.08529300011325083 0  0.00579688305402835 -0.08777872249611265 0  -0.01551784317154422 -0.09006879589254792 0  -0.01402328543009905 -0.08832981739043477 0  -0.01558909581522321 -0.08849582318267966 0  -0.034375 -0.1 0  -0.03423696779068536 -0.09746140864191191 0  -0.03619635067639472 -0.09830927380456798 0  -0.0171875 -0.09842209667188512 0  -0.01907578470877056 -0.09811482038481674 0  -0.01794864954210933 -0.09714392486344528 0  -0.0203125 -0.09665517208936659 0  -0.01807747440893156 -0.09566187359880164 0  -0.04636382294280632 -0.08303782715171144 0  -0.04457664116340198 -0.08227588074917039 0  -0.04479628068135219 -0.08441144033909778 0  -0.04665725025786571 -0.07474883737689871 0  -0.04839656261803055 -0.07397023150741729 0  -0.04715929032803928 -0.07353832403414237 0  -0.006496208247169712 -0.07958930721574266 0  -0.007818588748072135 -0.078515126908775 0  -0.008658337353509663 -0.07992113794005237 0  -0.0005048909647391475 -0.07529755637084348 0  0.0009893486840984126 -0.07561681737863528 0  -0.0003488571704173114 -0.07659863563213469 0  -0.002439376396341518 -0.08212944253333339 0  -0.002444152277402757 -0.08018925365413369 0  -0.00381630162417183 -0.0820268413935732 0  -0.02264613483542079 -0.0820413651645792 0  -0.02433746493959434 -0.08113892035160643 0  -0.02322485160458113 -0.08039154261165993 0  -0.01754533292962527 -0.08487053535373217 0  -0.01612535708344472 -0.08352138452691246 0  -0.01860487144251813 -0.08356851163246476 0  -0.03140806455272695 -0.06619583248002962 0  -0.03353512095382387 -0.06678277612275996 0  -0.03286485146038919 -0.06502660822956426 0  -0.01924800164333928 -0.07429606467324316 0  -0.01784284706265305 -0.07560523021790183 0  -0.01627524721575662 -0.07415843609645587 0  -0.02247505510150612 -0.07631841748069951 0  -0.02103221323394636 -0.07503488050239412 0  -0.02265507431745275 -0.07446773357752805 0  -0.02426505803403166 -0.07507046582579038 0  -0.02758628374191479 -0.08598038504817176 0  -0.03146202181458926 -0.07916958962906337 0  -0.03201932651192579 -0.08072863592367834 0  -0.03268498819409774 -0.07961155343193971 0  0.004333204611837944 -0.09457186870462708 0  0.004719118187944253 -0.09325290342309187 0  0.003210521597263091 -0.09393581815995514 0  -0.02699880677727343 -0.06528383311259306 0  -0.02816272306545877 -0.06613540002135666 0  -0.02796267299524422 -0.07502143545925727 0  -0.02864174901762227 -0.07347143860603883 0  0.01172901776142153 -0.07037684730407788 0  0.01149171032184903 -0.07201869888808959 0  0.008329705248451892 -0.07582893826919467 0  0.006579345813181347 -0.07604559218577921 0  0.007340105850365504 -0.07377496925579345 0  0.005649608925003106 -0.07293541457290909 0  0.006920603710509551 -0.07248150249158494 0  -0.03293339707392893 -0.06890569867093572 0  -0.03497293050757541 -0.06853622981877409 0  -0.03955829636164478 -0.06618721975980241 0  -0.03996948399416095 -0.06794165841102252 0  -0.04136249049824998 -0.0662651475401172 0  0.005332838990544739 -0.06042849285714701 0  0.005783754170669378 -0.06253278840008002 0  0.006730960667624127 -0.06048731509119946 0  0.006082007269868802 -0.06654253260679399 0  -0.01384023034695557 -0.06772003352402545 0  -0.01561760000785632 -0.06830868095647734 0  -0.01463379778004665 -0.06978387898440573 0  -0.009770499137943315 -0.08620544990365804 0
[...]
<PointData  Vectors="flow"> 
<DataArray  type="Float64"  Name="flow"  NumberOfComponents="3" format="ascii">3.8183475562947190e-08 3.8632644546233388e-08 0.0000000000000000e+00  3.3660380298552519e-08 -1.0235615036930272e-07 0.0000000000000000e+00  -4.9987254511783055e-08 1.6499718831740351e-08 0.0000000000000000e+00  -2.1552798712898073e-07 4.2039376259516162e-07 0.0000000000000000e+00  -2.4745059160993623e-07 1.0572749354413783e-06 0.0000000000000000e+00  -1.7583246041139777e-07 -1.2585331918056244e-07 0.0000000000000000e+00  -2.5658742628416127e-07 -2.0773475340995995e-07 0.0000000000000000e+00  7.7318926636386152e-07 1.3412132230430251e-07 0.0000000000000000e+00  4.5597896237750202e-07 4.7496695915804343e-07 0.0000000000000000e+00  -2.5456021185847355e-07 -3.2744838945013683e-07 0.0000000000000000e+00  4.2672171627291293e-07 2.4840034078545273e-08 0.0000000000000000e+00  1.6704226359314456e-07 2.3966961428365593e-07 0.0000000000000000e+00  8.0601126682855438e-08 7.7635789657463212e-08 0.0000000000000000e+00  -2.4085346759564613e-07 -3.0179722845673247e-07 0.0000000000000000e+00  2.1095942932913445e-07 4.1728971898151106e-07 0.0000000000000000e+00  -5.0577097593273717e-07 4.2875369147845198e-07 0.0000000000000000e+00  1.0098450580922159e-06 6.4616195358314095e-08 0.0000000000000000e+00  4.7594531997830980e-08 -6.9160350304930809e-07 0.0000000000000000e+00  2.2495570654017416e-08 1.3378793607516927e-08 0.0000000000000000e+00  4.7915201790204804e-09 -1.2797712206619697e-08 0.0000000000000000e+00  4.9677288501723219e-08 -2.3605116814118900e-08 0.0000000000000000e+00  1.2075076412434192e-06 5.1731426642014717e-07 0.0000000000000000e+00  -1.2102600967817391e-07 6.3758512236002497e-07 0.0000000000000000e+00  8.5859148231239543e-07 -1.0356124249042384e-06 0.0000000000000000e+00  -2.1861874689237625e-07 5.9251680928128612e-07 0.0000000000000000e+00  -7.2817769653352335e-07 1.8267218493630133e-08 0.0000000000000000e+00  -3.1050461392741604e-07 -1.3608483176465284e-06 0.0000000000000000e+00  1.9357290432930162e-08 -3.2854597158283418e-08 0.0000000000000000e+00  6.4593311132393663e-08 9.8097150115127295e-09 0.0000000000000000e+00  -2.1514321077103512e-09 2.1391427345607055e-08 0.0000000000000000e+00  2.5563885068672557e-08 1.4042229887655085e-08 0.0000000000000000e+00  -1.1587798644787957e-09 -4.7276153481545938e-08 0.0000000000000000e+00  -9.3434649419477741e-08 -1.0656108905781713e-06 0.0000000000000000e+00  4.9931293060695081e-07 1.3016756917817093e-06 0.0000000000000000e+00  -1.9554716772474706e-08 -1.0213358818221339e-06 0.0000000000000000e+00  1.4021572920735799e-07 1.9775242895302438e-07 0.0000000000000000e+00  -2.3117461564511176e-07 -1.2533685447389509e-07 0.0000000000000000e+00  1.5441525469619527e-07 -1.5749346608734285e-07 0.0000000000000000e+00  -7.4833978657119615e-07 4.9640856783631540e-08 0.0000000000000000e+00  3.7419329229176486e-07 4.2605067036056427e-08 0.0000000000000000e+00  -1.4049718062939888e-08 2.5803734707697319e-09 0.0000000000000000e+00  1.3314218489330773e-07 7.4036660841160760e-08 0.0000000000000000e+00  8.6234791577615921e-08 -6.9506974516962644e-08 0.0000000000000000e+00  1.8452876605602011e-07 -1.0587009863259951e-07 0.0000000000000000e+00  -9.4617638852252372e-09 -4.8930212451453874e-07 0.0000000000000000e+00  3.0154341382262076e-09 6.0595801910888235e-07 0.0000000000000000e+00  6.3409805109653912e-07 -1.0785511470346505e-06 0.0000000000000000e+00  6.5301180922534263e-07 5.4506685982276824e-07 0.0000000000000000e+00  3.1735996850210763e-08 -4.0350997504622402e-07 0.0000000000000000e+00  -1.1719696903308664e-06 2.9688854034428740e-07 0.0000000000000000e+00  -2.9928724274689415e-07 2.8507240100223010e-07 0.0000000000000000e+00  4.6791534159903362e-07 -3.6697303574431429e-08 0.0000000000000000e+00  1.2506706613796903e-07 -3.3071994616567403e-07 0.0000000000000000e+00  8.1437251407065083e-08 -1.8585113490911567e-08 0.0000000000000000e+00  2.5132554745341235e-07 8.2401922963936988e-08 0.0000000000000000e+00  -3.3089721258666273e-07 9.6406458256695098e-08 0.0000000000000000e+00  1.3820175082580824e-07 -2.8628140121103427e-09 0.0000000000000000e+00  2.9518141549011520e-07 7.8549699166870978e-07 0.0000000000000000e+00  -1.4543867363654900e-06 7.7628321950177966e-07 0.0000000000000000e+00  1.7404790314662076e-07 3.1617419456952047e-07 0.0000000000000000e+00  -3.9393776823731888e-07 1.7621284439068450e-07 0.0000000000000000e+00  -2.4018233280414461e-07 -1.5367111943945227e-07 0.0000000000000000e+00  -1.5711548418727874e-07 5.6169650842073227e-07 0.0000000000000000e+00  -9.6260854467186757e-07 -4.4132949907024648e-07 0.0000000000000000e+00  -1.2646130760158970e-07 -1.8537750872705605e-07 0.0000000000000000e+00  5.1455980949196094e-08 -5.2659446807970546e-08 0.0000000000000000e+00  -1.4192140804222176e-08 3.9366198349597788e-08 0.0000000000000000e+00  -4.3614120390645270e-08 3.0628563020391867e-09 0.0000000000000000e+00  -4.8664147911131724e-08 2.9956111282420980e-08 0.0000000000000000e+00  4.5674392781763416e-08 2.4694383863610417e-08 0.0000000000000000e+00  -2.5502261485451730e-06 7.3220779747459401e-07 0.0000000000000000e+00  1.6671656858550893e-06 5.6382439836237392e-07 0.0000000000000000e+00  -8.1325975239082769e-07 -1.4384474458526440e-06 0.0000000000000000e+00  -1.1398684396009329e-06 6.5934988754160176e-07 0.0000000000000000e+00  -2.8361397371209064e-07 8.5689725877696269e-07 0.0000000000000000e+00  7.5368272590905524e-07 -7.1728625010244396e-07 0.0000000000000000e+00  -8.0458539335715329e-07 3.8318890528989700e-07 0.0000000000000000e+00  5.8744998623526058e-07 5.2593619109442703e-07 0.0000000000000000e+00  -4.0366706781723625e-07 -2.0222479693714791e-07 0.0000000000000000e+00  1.0812918790842460e-07 -3.0710357754443566e-07 0.0000000000000000e+00  2.0071253743493247e-08 -1.4999986690775527e-07 0.0000000000000000e+00  -6.6332349920722415e-08 -1.4107031042545935e-07 0.0000000000000000e+00  3.4364290299982577e-08 1.6843767178726113e-07 0.0000000000000000e+00  -2.0821251876615571e-07 4.0525430946209233e-07 0.0000000000000000e+00  3.2138099184751771e-08 -9.3577402867826713e-08 0.0000000000000000e+00  -6.4579160414379142e-08 -5.2715364365436237e-07 0.0000000000000000e+00  -2.1498156379543653e-08 2.5229574721031461e-07 0.0000000000000000e+00  -4.5759003100638522e-07 1.4684812161240027e-08 0.0000000000000000e+00  -6.2643831880303809e-07 -1.9183234055640730e-07 0.0000000000000000e+00  2.4021245245201624e-06 -1.9697728785362433e-06 0.0000000000000000e+00  -4.2021237152166911e-06 7.2424415438906189e-07 0.0000000000000000e+00  7.6416697167235778e-07 5.1528291240234925e-07 0.0000000000000000e+00  -4.2747521110649995e-07 -3.1471182778806066e-07 0.0000000000000000e+00  8.6139020013065689e-07 1.2368536381669582e-06 0.0000000000000000e+00  4.5911600766244665e-07 4.3790672132214325e-07 0.0000000000000000e+00  -1.3095170645120620e-07 -1.4881166940863973e-08 0.0000000000000000e+00  -4.2980398136652103e-08 -2.4270157392385828e-08 0.0000000000000000e+00  3.3803878999896252e-07 -3.1155260478837102e-07 0.0000000000000000e+00  -9.1153596927670577e-08 2.8864384448406349e-07 0.0000000000000000e+00  -2.6050953992354497e-07 1.6428534610335752e-08 0.0000000000000000e+00  -1.1270113833370858e-07 -1.0994734531295230e-08 0.0000000000000000e+00  -4.1158272149059546e-08 2.5697254869788795e-07 0.0000000000000000e+00  -2.0959937689660592e-08 -2.2575968723498439e-08 0.0000000000000000e+00  3.8020783650362929e-08 -5.5637280264688069e-08 0.0000000000000000e+00  4.1494356580751493e-08 3.5071491296164426e-10 0.0000000000000000e+00  1.1410959756593616e-07 3.3619346179856054e-08 0.0000000000000000e+00  -3.0379171845590414e-07 -1.1262986183045683e-07 0.0000000000000000e+00  -7.8674520994838755e-08 -1.1029072295862317e-07 0.0000000000000000e+00  -1.2585488519132464e-07 1.8050182721390117e-07 0.0000000000000000e+00  2.8997925115501972e-07 2.3581819367489249e-07 0.0000000000000000e+00  -1.1134001543182406e-07 -5.8644874014908488e-08 0.0000000000000000e+00  -8.8159278214588668e-08 -1.3719269952578044e-08 0.0000000000000000e+00  6.9863267051580386e-08 2.4395708163577923e-08 0.0000000000000000e+00  9.1637733918218894e-08 1.7187968023544298e-07 0.0000000000000000e+00  -6.6230799542571141e-08 1.2747157827516493e-08 0.0000000000000000e+00  3.3130806659921480e-09 -9.1419469995581814e-08 0.0000000000000000e+00  -7.3033034581972218e-08 -2.7774583936854573e-07 0.0000000000000000e+00  -7.8403321977054825e-08 3.6860618337667337e-07 0.0000000000000000e+00  7.5300315454416325e-08 1.8088304671947969e-08 0.0000000000000000e+00  5.4080355150932208e-08 -5.5647327669285545e-09 0.0000000000000000e+00  -2.2957407691708200e-08 3.0437150938753246e-08 0.0000000000000000e+00  -7.3475555859194093e-08 -1.7061757850075863e-08 0.0000000000000000e+00  8.1401685874458907e-08 -2.7331520651948821e-07 0.0000000000000000e+00  -2.0065002151944372e-08 -5.5021936737647120e-08 0.0000000000000000e+00  5.1130963970194980e-08 1.3959389590386183e-07 0.0000000000000000e+00  2.3270267402064744e-08 2.6464814149021006e-09 0.0000000000000000e+00  1.9380424427789938e-08 6.8168478714194589e-08 0.0000000000000000e+00  -6.7133612872125735e-08 -1.9671309908251003e-08 0.0000000000000000e+00  -7.9713072060302712e-07 -4.6089129990400639e-07 0.0000000000000000e+00  3.6370535901872098e-07 -1.8473439338085795e-07 0.0000000000000000e+00  1.5942424152542278e-06 2.4274916485393289e-07 0.0000000000000000e+00  2.0423053956806641e-08 -4.5575385892651548e-09 0.0000000000000000e+00  4.0250364657604421e-08 -8.4961068722292636e-09 0.0000000000000000e+00  -2.3028750004467027e-08 -9.1901183424351750e-10 0.0000000000000000e+00  3.6311869537793537e-07 -3.4731564027767167e-07 0.0000000000000000e+00  -9.5917781781067444e-07 -1.8396781221331354e-06 0.0000000000000000e+00  -5.0386180054051849e-07 2.7905628861983075e-07 0.0000000000000000e+00  -8.4023662737275676e-07 3.4377952637380803e-07 0.0000000000000000e+00  -1.7960567882052661e-07 2.5168554976044770e-07 0.0000000000000000e+00  1.6862089310376724e-06 7.5208259684626357e-07 0.0000000000000000e+00  1.4178978923812557e-06 -7.8334048302454837e-07 0.0000000000000000e+00  -2.7152256633903830e-06 -8.7103891434301322e-07 0.0000000000000000e+00  1.1185627721483456e-06 -3.5273083049892496e-07 0.0000000000000000e+00  6.4733400442304714e-07 3.7573333515404159e-07 0.0000000000000000e+00  6.9048721695735160e-08 -5.6274720742920570e-08 0.0000000000000000e+00  -7.9548299980165178e-07 -2.5612893795118424e-07 0.0000000000000000e+00  -4.0657818254362696e-07 3.1771144002668047e-07 0.0000000000000000e+00  -3.8508015991118225e-07 -4.5202536100282889e-07 0.0000000000000000e+00  4.8497215857223726e-08 -1.1234620309293552e-07 0.0000000000000000e+00  9.2940412714237077e-08 -2.2962628597147773e-07 0.0000000000000000e+00  1.7671404026258695e-07 7.4104346428677231e-08 0.0000000000000000e+00  1.9904416167878830e-07 8.3332848187845915e-08 0.0000000000000000e+00  1.5673765961593534e-06 -1.3260915950745076e-07 0.0000000000000000e+00  -6.8495948048001705e-07 -1.9226089340652538e-07 0.0000000000000000e+00  1.6522337426140239e-07 -3.0968557521727544e-07 0.0000000000000000e+00  3.1698597897605836e-07 6.1813873291404507e-07 0.0000000000000000e+00  2.4073717669617913e-07 -4.1638688929379891e-07 0.0000000000000000e+00  -1.0242644947136139e-07 -1.1555816486281729e-08 0.0000000000000000e+00  2.4540912706543295e-08 -6.2110939385032290e-10 0.0000000000000000e+00  1.0730782951600295e-08 -2.6851198780780485e-08 0.0000000000000000e+00  4.6201179225542373e-08 -3.7163267002939862e-08 0.0000000000000000e+00  2.6549227348925284e-08 6.2824768093422189e-08 0.0000000000000000e+00  -9.2236017683259340e-08 -1.0220811347824212e-07 0.0000000000000000e+00  -8.1490200587784175e-07 2.3165670112802230e-07 0.0000000000000000e+00  -4.2497738010327201e-07 -4.3486426624307975e-07 0.0000000000000000e+00  7.0544358680171783e-07 -5.9067451017511822e-07 0.0000000000000000e+00  -6.7518572023020866e-08 -1.5883314116583734e-07 0.0000000000000000e+00  -1.6888332429986608e-07 -2.6749652880927046e-07 0.0000000000000000e+00  2.0374374712909495e-07 -6.0323869478215234e-08 0.0000000000000000e+00  -1.6465408831673486e-07 7.9297126119934784e-07 0.0000000000000000e+00  1.7359083408204887e-07 6.4693196929953838e-08 0.0000000000000000e+00  -8.2829627881033760e-07 3.3716617301293031e-07 0.0000000000000000e+00  9.8458469667566360e-07 6.8724115979021226e-07 0.0000000000000000e+00  9.6971832042447100e-08 -1.4134254317829748e-07 0.0000000000000000e+00  1.1332787586437680e-06 -2.6980844585954948e-07 0.0000000000000000e+00  -3.7563099594886795e-07 -9.8817958536426348e-08 0.0000000000000000e+00  -5.7026087539729162e-07 5.5843384592863280e-07 0.0000000000000000e+00  1.8933150287185380e-07 5.9377994034788554e-07 0.0000000000000000e+00  -1.0988079188659999e-07 5.0278084984951208e-08 0.0000000000000000e+00  -8.3174798734363308e-08 9.0977062328355811e-08 0.0000000000000000e+00  4.8479524285201587e-08 1.0148646574852290e-07 0.0000000000000000e+00  3.9944874464234741e-08 7.6601529380906599e-08 0.0000000000000000e+00  -1.0916116423634732e-06 -7.2450868397214356e-08 0.0000000000000000e+00  5.1029577683815629e-07 -3.0833669942708980e-07 0.0000000000000000e+00  9.2717197280629221e-07 5.2011054777456858e-07 0.0000000000000000e+00  3.2458343167519491e-08 -8.2837837739939562e-07 0.0000000000000000e+00  -6.9473888286683510e-07 -2.5963300578359333e-08 0.0000000000000000e+00  3.2541597170019963e-07 -7.8827755821956825e-07 0.0000000000000000e+00  -6.7429642041241664e-08 -1.5675629586112841e-07 0.0000000000000000e+00  3.3289876247851806e-07 -1.1728213170307193e-07 0.0000000000000000e+00  -9.4699498111747574e-08 3.9962354397029261e-07 0.0000000000000000e+00  -3.4387130934821113e-08 2.0970391500923196e-07 0.0000000000000000e+00  2.2562096790301615e-07 4.9147899634939089e-08 0.0000000000000000e+00  -7.5151022171421473e-07 5.2290383126026816e-07 0.0000000000000000e+00  7.2250231054290988e-07 -1.9993038557982024e-07 0.0000000000000000e+00  -3.5376966111423719e-08 -1.3091233592024944e-07 0.0000000000000000e+00  2.3429232483700405e-07 9.5854424526241250e-08 0.0000000000000000e+00  5.9978665523744360e-08 -1.3151084923101390e-08 0.0000000000000000e+00  -1.0446012113659318e-07 7.8084934043977505e-11 0.0000000000000000e+00  -7.0096297130982282e-07 -2.2568751145946556e-07 0.0000000000000000e+00  2.4273308166040481e-07 -2.8648852620884806e-07 0.0000000000000000e+00  -5.5055661381370240e-08 5.3713383763381494e-08 0.0000000000000000e+00  2.5733954656369370e-07 -5.7841478083913307e-07 0.0000000000000000e+00  2.9134011443492871e-07 1.3501761471897035e-07 0.0000000000000000e+00  -7.5014603697504358e-08 5.2131380460854043e-07 0.0000000000000000e+00  -1.9771612398665123e-07 2.9760523612017731e-07 0.0000000000000000e+00  -1.0523437063310529e-07 -1.4737848732284893e-08 0.0000000000000000e+00  -5.9333512261489803e-09 -3.2495878839599905e-08 0.0000000000000000e+00  3.5718997298817963e-08 -2.6987493374620468e-08 0.0000000000000000e+00  8.4648495502469238e-10 1.2296974217331946e-08 0.0000000000000000e+00  -3.6510870004203143e-08 -1.0736337505421500e-07 0.0000000000000000e+00  3.9101213918335196e-07 5.9652699731520406e-07 0.0000000000000000e+00  1.5062780143352714e-07 4.0198060365411761e-07 0.0000000000000000e+00  -3.8037740733298717e-07 1.3547703928433612e-06 0.0000000000000000e+00  2.3181424434055536e-09 -5.3613257190043216e-07 0.0000000000000000e+00  -1.9137055832182427e-08 -6.1426514552890561e-08 0.0000000000000000e+00  -5.6204062725926307e-09 -1.0800670491616851e-08 0.0000000000000000e+00  3.5785354160488806e-07 4.7817547443798698e-07 0.0000000000000000e+00  -1.1764737642978602e-06 -4.6803473708782242e-08 0.0000000000000000e+00  8.5957208279340988e-07 2.8467244008600627e-07 0.0000000000000000e+00  -1.5846027715788871e-06 5.1456690150132536e-07 0.0000000000000000e+00  1.3051488574117293e-06 -1.0493607262379355e-06 0.0000000000000000e+00  2.2208791953591589e-07 5.2201398269189314e-08 0.0000000000000000e+00  -4.7046720046583107e-07 -9.3587317856625605e-07 0.0000000000000000e+00  -2.1252354087025883e-07 -4.5342153571200812e-07 0.0000000000000000e+00  2.7634685007164932e-07 1.5668168673664305e-06 0.0000000000000000e+00  9.8483594108355569e-07 -8.8324357081172499e-09 0.0000000000000000e+00  1.0138037478119006e-06 6.3521596627790312e-07 0.0000000000000000e+00  4.3264371797604731e-07 2.5666100926044932e-07 0.0000000000000000e+00  -5.4705495000702707e-07 1.5054650637134087e-06 0.0000000000000000e+00  2.5744941638649093e-07 5.2494443759577198e-08 0.0000000000000000e+00  -5.2833139280285694e-07 -5.0433776273020095e-08 0.0000000000000000e+00  2.5946287402996305e-08 1.4098547748942124e-08 0.0000000000000000e+00  4.4472775089203647e-07 8.6697783395993458e-07 0.0000000000000000e+00  1.7265203475307084e-07 -3.1567815759010225e-07 0.0000000000000000e+00  -7.9422660529739441e-08 3.8854381251026847e-08 0.0000000000000000e+00  3.3011356650234673e-08 -4.7395505615001646e-08 0.0000000000000000e+00  -7.6547978296214732e-09 -1.1172343602722403e-08 0.0000000000000000e+00  -1.5507187337337195e-07 1.9503659817918523e-09 0.0000000000000000e+00  1.8077882526084658e-07 6.8776622500683941e-08 0.0000000000000000e+00  -1.2765530126129304e-07 -3.3064465598812063e-07 0.0000000000000000e+00  3.5452378274210836e-07 3.4190262857348939e-07 0.0000000000000000e+00  -1.0080371305313480e-07 -6.6703085154840815e-08 0.0000000000000000e+00  1.3498554713206616e-07 -1.3759221090577238e-07 0.0000000000000000e+00  -2.5674509755882503e-07 4.7281031468240154e-07 0.0000000000000000e+00  4.1133970064485518e-07 -4.9700069749618349e-07 0.0000000000000000e+00  4.6574879277009055e-07 9.7741347024379371e-08 0.0000000000000000e+00  -2.9220333211260635e-08 1.1451569350097358e-09 0.0000000000000000e+00  8.5010699587846311e-09 1.3026044850758064e-07 0.0000000000000000e+00  -3.3338330429973475e-08 -4.1908567592650615e-08 0.0000000000000000e+00  -1.6205798365673127e-07 3.3923336246037303e-08 0.0000000000000000e+00  -2.0735338814820462e-08 4.7724122789368940e-08 0.0000000000000000e+00  -5.4083368898777449e-08 8.7985600884902357e-08 0.0000000000000000e+00  -2.3756499574880424e-07 -2.4670656052174289e-07 0.0000000000000000e+00  7.9123237570951464e-08 -8.7510162368809355e-08 0.0000000000000000e+00  -8.8895175090207794e-08 -2.0801378165525038e-08 0.0000000000000000e+00  -3.0229277487958189e-08 1.0695763626493388e-08 0.0000000000000000e+00  2.3562906176515747e-08 1.7200590031285032e-07 0.0000000000000000e+00  -2.3059017498702503e-08 -1.0297288179950841e-07 0.0000000000000000e+00  1.1139020193174173e-07 -3.0186789222064894e-08 0.0000000000000000e+00  4.2611982776035534e-07 -5.7430545035182077e-07 0.0000000000000000e+00  -3.9283590462803065e-07 -3.4563905155962367e-07 0.0000000000000000e+00  -7.5352433550718336e-07 -6.6176909842843084e-07 0.0000000000000000e+00  1.3066620866774098e-06 -3.0142201620062003e-07 0.0000000000000000e+00  1.3904255215274915e-06 -1.0736614593098088e-08 0.0000000000000000e+00  -2.1116472985625898e-07 4.1775686183394295e-07 0.0000000000000000e+00  -1.3017314191028362e-07 -9.0831050574654354e-07 0.0000000000000000e+00  7.3558932808248005e-08 8.8668539142450704e-07 0.0000000000000000e+00  -3.3561701664149041e-07 -1.2713711401481651e-07 0.0000000000000000e+00  9.6529589847443291e-08 3.4619941530272304e-08 0.0000000000000000e+00  -1.2110693424070650e-08 -7.1471297201505435e-09 0.0000000000000000e+00  3.0650899129278864e-07 1.2521715727627887e-07 0.0000000000000000e+00  1.1211165081285990e-07 -1.3637802332798321e-07 0.0000000000000000e+00  2.2629198501551211e-07 4.8547862547412173e-07 0.0000000000000000e+00  2.2714862379954018e-07 4.1270125647889796e-07 0.0000000000000000e+00  -1.1221082322559753e-07 -2.7866461127392413e-07 0.0000000000000000e+00  8.8004747810180648e-07 3.2953804646376693e-07 0.0000000000000000e+00  -1.9116418516474219e-06 7.1935186194110275e-07 0.0000000000000000e+00  4.9338716338021523e-07 2.1342026557989313e-07 0.0000000000000000e+00  -1.1534193157559666e-07 -8.9823600228765298e-08 0.0000000000000000e+00  -7.90289972610974