<?xml version="1.0"?>
<VTKFile type="UnstructuredGrid"  version="0.1"  >
<UnstructuredGrid>
<Piece  NumberOfPoints="1091" NumberOfCells="2050">
<Points>
<DataArray  type="Float64"  NumberOfComponents="3"  format="ascii">-0.5 -1 0  -0.4 -1 0  -0.3 -1 0  -0.2 -1 0  -0.09999999999999998 -1 0  0 -1 0  0.09999999999999998 -1 0  0.2 -1 0  0.3 -1 0  0.4 -1 0  0.5 -1 0  -0.5 -0.98 0  -0.4 -0.98 0  -0.3 -0.98 0  -0.2 -0.98 0  -0.09999999999999998 -0.98 0  0 -0.98 0  0.09999999999999998 -0.98 0  0.2 -0.98 0  0.3 -0.98 0  0.4 -0.98 0  0.5 -0.98 0  -0.5 -0.96 0  -0.4 -0.96 0  -0.3 -0.96 0  -0.2 -0.96 0  -0.09999999999999998 -0.96 0  0 -0.96 0  0.09999999999999998 -0.96 0  0.2 -0.96 0  0.3 -0.96 0  0.4 -0.96 0  0.5 -0.96 0  -0.5 -0.9399999999999999 0  -0.4 -0.9399999999999999 0  -0.3 -0.9399999999999999 0  -0.2 -0.9399999999999999 0  -0.09999999999999998 -0.9399999999999999 0  0 -0.9399999999999999 0  0.09999999999999998 -0.9399999999999999 0  0.2 -0.9399999999999999 0  0.3 -0.9399999999999999 0  0.4 -0.9399999999999999 0  0.5 -0.9399999999999999 0  -0.5 -0.92 0  -0.4 -0.92 0  -0.3 -0.92 0  -0.2 -0.92 0  -0.09999999999999998 -0.92 0  0 -0.92 0  0.09999999999999998 -0.92 0  0.2 -0.92 0  0.3 -0.92 0  0.4 -0.92 0  0.5 -0.92 0  -0.5 -0.9 0  -0.4 -0.9 0  -0.3 -0.9 0  -0.2 -0.9 0  -0.09999999999999998 -0.9 0  0 -0.9 0  0.09999999999999998 -0.9 0  0.2 -0.9 0  0.3 -0.9 0  0.4 -0.9 0  0.5 -0.9 0  -0.5 -0.88 0  -0.4 -0.88 0  -0.3 -0.88 0  -0.2 -0.88 0  -0.09999999999999998 -0.88 0  0 -0.88 0  0.09999999999999998 -0.88 0  0.2 -0.88 0  0.3 -0.88 0  0.4 -0.88 0  0.5 -0.88 0  -0.5 -0.86 0  -0.4 -0.86 0  -0.3 -0.86 0  -0.2 -0.86 0  -0.09999999999999998 -0.86 0  0 -0.86 0  0.09999999999999998 -0.86 0  0.2 -0.86 0  0.3 -0.86 0  0.4 -0.86 0  0.5 -0.86 0  -0.5 -0.84 0  -0.4 -0.84 0  -0.3 -0.84 0  -0.2 -0.84 0  -0.09999999999999998 -0.84 0  0 -0.84 0  0.09999999999999998 -0.84 0  0.2 -0.84 0  0.3 -0.84 0  0.4 -0.84 0  0.5 -0.84 0  -0.5 -0.8200000000000001 0  -0.4 -0.8200000000000001 0  -0.3 -0.8200000000000001 0  -0.2 -0.8200000000000001 0  -0.09999999999999998 -0.8200000000000001 0  0 -0.8200000000000001 0  0.09999999999999998 -0.8200000000000001 0  0.2 -0.8200000000000001 0  0.3 -0.8200000000000001 0  0.4 -0.8200000000000001 0  0.5 -0.8200000000000001 0  -0.5 -0.8 0  -0.4 -0.8 0  -0.3 -0.8 0  -0.2 -0.8 0  -0.09999999999999998 -0.8 0  0 -0.8 0  0.09999999999999998 -0.8 0  0.2 -0.8 0  0.3 -0.8 0  0.4 -0.8 0  0.5 -0.8 0  -0.5 -0.78 0  -0.4 -0.78 0  -0.3 -0.78 0  -0.2 -0.78 0  -0.09999999999999998 -0.78 0  0 -0.78 0  0.09999999999999998 -0.78 0  0.2 -0.78 0  0.3 -0.78 0  0.4 -0.78 0  0.5 -0.78 0  -0.5 -0.76 0  -0.4 -0.76 0  -0.3 -0.76 0  -0.2 -0.76 0  -0.09999999999999998 -0.76 0  0 -0.76 0  0.09999999999999998 -0.76 0  0.2 -0.76 0  0.3 -0.76 0  0.4 -0.76 0  0.5 -0.76 0  -0.5 -0.74 0  -0.4 -0.74 0  -0.3 -0.74 0  -0.2 -0.74 0  -0.09999999999999998 -0.74 0  0 -0.74 0  0.09999999999999998 -0.74 0  0.2 -0.74 0  0.3 -0.74 0  0.4 -0.74 0  0.5 -0.74 0  -0.5 -0.72 0  -0.4 -0.72 0  -0.3 -0.72 0  -0.2 -0.72 0  -0.09999999999999998 -0.72 0  0 -0.72 0  0.09999999999999998 -0.72 0  0.2 -0.72 0  0.3 -0.72 0  0.4 -0.72 0  0.5 -0.72 0  -0.5 -0.7 0  -0.4 -0.7 0  -0.3 -0.7 0  -0.2 -0.7 0  -0.09999999999999998 -0.7 0  0 -0.7 0  0.09999999999999998 -0.7 0  0.2 -0.7 0  0.3 -0.7 0  0.4 -0.7 0  0.5 -0.7 0  -0.5 -0.6799999999999999 0  -0.4 -0.6799999999999999 0  -0.3 -0.6799999999999999 0  -0.2 -0.6799999999999999 0  -0.09999999999999998 -0.6799999999999999 0  0 -0.6799999999999999 0  0.09999999999999998 -0.6799999999999999 0  0.2 -0.6799999999999999 0  0.3 -0.6799999999999999 0  0.4 -0.6799999999999999 0  0.5 -0.6799999999999999 0  -0.5 -0.6599999999999999 0  -0.4 -0.6599999999999999 0  -0.3 -0.6599999999999999 0  -0.2 -0.6599999999999999 0  -0.09999999999999998 -0.6599999999999999 0  0 -0.6599999999999999 0  0.09999999999999998 -0.6599999999999999 0  0.2 -0.6599999999999999 0  0.3 -0.6599999999999999 0  0.4 -0.6599999999999999 0  0.5 -0.6599999999999999 0  -0.5 -0.64 0  -0.4 -0.64 0  -0.3 -0.64 0  -0.2 -0.64 0  -0.09999999999999998 -0.64 0  0 -0.64 0  0.09999999999999998 -0.64 0  0.2 -0.64 0  0.3 -0.64 0  0.4 -0.64 0  0.5 -0.64 0  -0.5 -0.62 0  -0.4 -0.62 0  -0.3 -0.62 0  -0.2 -0.62 0  -0.09999999999999998 -0.62 0  0 -0.62 0  0.09999999999999998 -0.62 0  0.2 -0.62 0  0.3 -0.62 0  0.4 -0.62 0  0.5 -0.62 0  -0.5 -0.6 0  -0.4 -0.6 0  -0.3 -0.6 0  -0.2 -0.6 0  -0.09999999999999998 -0.6 0  0 -0.6 0  0.09999999999999998 -0.6 0  0.2 -0.6 0  0.3 -0.6 0  0.4 -0.6 0  0.5 -0.6 0  -0.5 -0.5800000000000001 0  -0.4 -0.5800000000000001 0  -0.3 -0.5800000000000001 0  -0.2 -0.5800000000000001 0  -0.09999999999999998 -0.5800000000000001 0  0 -0.5800000000000001 0  0.09999999999999998 -0.5800000000000001 0  0.2 -0.5800000000000001 0  0.3 -0.5800000000000001 0  0.4 -0.5800000000000001 0  0.5 -0.5800000000000001 0  -0.5 -0.5600000000000001 0  -0.4 -0.5600000000000001 0  -0.3 -0.5600000000000001 0  -0.2 -0.5600000000000001 0  -0.09999999999999998 -0.5600000000000001 0  0 -0.5600000000000001 0  0.09999999999999998 -0.5600000000000001 0  0.2 -0.5600000000000001 0  0.3 -0.5600000000000001 0  0.4 -0.5600000000000001 0  0.5 -0.5600000000000001 0  -0.5 -0.54 0  -0.4 -0.54 0  -0.3 -0.54 0  -0.2 -0.54 0  -0.09999999999999998 -0.54 0  0 -0.54 0  0.09999999999999998 -0.54 0  0.2 -0.54 0  0.3 -0.54 0  0.4 -0.54 0  0.5 -0.54 0  -0.5 -0.52 0  -0.4 -0.52 0  -0.3 -0.52 0  -0.2 -0.52 0  -0.09999999999999998 -0.52 0  0 -0.52 0  0.09999999999999998 -0.52 0  0.2 -0.52 0  0.3 -0.52 0  0.4 -0.52 0  0.5 -0.52 0  -0.5 -0.5 0  -0.4 -0.5 0  -0.3 -0.5 0  -0.2 -0.5 0  -0.09999999999999998 -0.5 0  0 -0.5 0  0.09999999999999998 -0.5 0  0.2 -0.5 0  0.3 -0.5 0  0.4 -0.5 0  0.5 -0.5 0  -0.5 -0.48 0  -0.4 -0.48 0  -0.3 -0.48 0  -0.2 -0.48 0  -0.09999999999999998 -0.48 0  0 -0.48 0  0.09999999999999998 -0.48 0  0.2 -0.48 0  0.3 -0.48 0  0.4 -0.48 0  0.5 -0.48 0  -0.5 -0.46 0  -0.4 -0.46 0  -0.3 -0.46 0  -0.2 -0.46 0  -0.09999999999999998 -0.46 0  0 -0.46 0  0.09999999999999998 -0.46 0  0.2 -0.46 0  0.3 -0.46 0  0.4 -0.46 0  0.5 -0.46 0  -0.5 -0.4399999999999999 0  -0.4 -0.4399999999999999 0  -0.3 -0.4399999999999999 0  -0.2 -0.4399999999999999 0  -0.09999999999999998 -0.4399999999999999 0  0 -0.4399999999999999 0  0.09999999999999998 -0.4399999999999999 0  0.2 -0.4399999999999999 0  0.3 -0.4399999999999999 0  0.4 -0.4399999999999999 0  0.5 -0.4399999999999999 0  -0.5 -0.42 0  -0.4 -0.42 0  -0.3 -0.42 0  -0.2 -0.42 0  -0.09999999999999998 -0.42 0  0 -0.42 0  0.09999999999999998 -0.42 0  0.2 -0.42 0  0.3 -0.42 0  0.4 -0.42 0  0.5 -0.42 0  -0.5 -0.4 0  -0.4 -0.4 0  -0.3 -0.4 0  -0.2 -0.4 0  -0.09999999999999998 -0.4 0  0 -0.4 0  0.09999999999999998 -0.4 0  0.2 -0.4 0  0.3 -0.4 0  0.4 -0.4 0  0.5 -0.4 0  -0.5 -0.38 0  -0.4 -0.38 0  -0.3 -0.38 0  -0.2 -0.38 0  -0.09999999999999998 -0.38 0  0 -0.38 0  0.09999999999999998 -0.38 0  0.2 -0.38 0  0.3 -0.38 0  0.4 -0.38 0  0.5 -0.38 0  -0.5 -0.36 0  -0.4 -0.36 0  -0.3 -0.36 0  -0.2 -0.36 0  -0.09999999999999998 -0.36 0  0 -0.36 0  0.09999999999999998 -0.36 0  0.2 -0.36 0  0.3 -0.36 0  0.4 -0.36 0  0.5 -0.36 0  -0.5 -0.34 0  -0.4 -0.34 0  -0.3 -0.34 0  -0.2 -0.34 0  -0.09999999999999998 -0.34 0  0 -0.34 0  0.09999999999999998 -0.34 0  0.2 -0.34 0  0.3 -0.34 0  0.4 -0.34 0  0.5 -0.34 0  -0.5 -0.32 0  -0.4 -0.32 0  -0.3 -0.32 0  -0.2 -0.32 0  -0.09999999999999998 -0.32 0  0 -0.32 0  0.09999999999999998 -0.32 0  0.2 -0.32 0  0.3 -0.32 0  0.4 -0.32 0  0.5 -0.32 0  -0.5 -0.3 0  -0.4 -0.3 0  -0.3 -0.3 0  -0.2 -0.3 0  -0.09999999999999998 -0.3 0  0 -0.3 0  0.09999999999999998 -0.3 0  0.2 -0.3 0  0.3 -0.3 0  0.4 -0.3 0  0.5 -0.3 0  -0.5 -0.28 0  -0.4 -0.28 0  -0.3 -0.28 0  -0.2 -0.28 0  -0.09999999999999998 -0.28 0  0 -0.28 0  0.09999999999999998 -0.28 0  0.2 -0.28 0  0.3 -0.28 0  0.4 -0.28 0  0.5 -0.28 0  -0.5 -0.26 0  -0.4 -0.26 0  -0.3 -0.26 0  -0.2 -0.26 0  -0.09999999999999998 -0.26 0  0 -0.26 0  0.09999999999999998 -0.26 0  0.2 -0.26 0  0.3 -0.26 0  0.4 -0.26 0  0.5 -0.26 0  -0.5 -0.24 0  -0.4 -0.24 0  -0.3 -0.24 0  -0.2 -0.24 0  -0.09999999999999998 -0.24 0  0 -0.24 0  0.09999999999999998 -0.24 0  0.2 -0.24 0  0.3 -0.24 0  0.4 -0.24 0  0.5 -0.24 0  -0.5 -0.22 0  -0.4 -0.22 0  -0.3 -0.22 0  -0.2 -0.22 0  -0.09999999999999998 -0.22 0  0 -0.22 0  0.09999999999999998 -0.22 0  0.2 -0.22 0  0.3 -0.22 0  0.4 -0.22 0  0.5 -0.22 0  -0.5 -0.2 0  -0.4 -0.2 0  -0.3 -0.2 0  -0.2 -0.2 0  -0.09999999999999998 -0.2 0  0 -0.2 0  0.09999999999999998 -0.2 0  0.2 -0.2 0  0.3 -0.2 0  0.4 -0.2 0  0.5 -0.2 0  -0.5 -0.18 0  -0.4 -0.18 0  -0.3 -0.18 0  -0.2 -0.18 0  -0.09999999999999998 -0.18 0  0 -0.18 0  0.09999999999999998 -0.18 0  0.2 -0.18 0  0.3 -0.18 0  0.4 -0.18 0  0.5 -0.18 0  -0.5 -0.16 0  -0.4 -0.16 0  -0.3 -0.16 0  -0.2 -0.16 0  -0.09999999999999998 -0.16 0  0 -0.16 0  0.09999999999999998 -0.16 0  0.2 -0.16 0  0.3 -0.16 0  0.4 -0.16 0  0.5 -0.16 0  -0.5 -0.14 0  -0.4 -0.14 0  -0.3 -0.14 0  -0.2 -0.14 0  -0.09999999999999998 -0.14 0  0 -0.14 0  0.09999999999999998 -0.14 0  0.2 -0.14 0  0.3 -0.14 0  0.4 -0.14 0  0.5 -0.14 0  -0.5 -0.12 0  -0.4 -0.12 0  -0.3 -0.12 0  -0.2 -0.12 0  -0.09999999999999998 -0.12 0  0 -0.12 0  0.09999999999999998 -0.12 0  0.2 -0.12 0  0.3 -0.12 0  0.4 -0.12 0  0.5 -0.12 0  -0.5 -0.09999999999999998 0  -0.4 -0.09999999999999998 0  -0.3 -0.09999999999999998 0  -0.2 -0.09999999999999998 0  -0.09999999999999998 -0.09999999999999998 0  0 -0.09999999999999998 0  0.09999999999999998 -0.09999999999999998 0  0.2 -0.09999999999999998 0  0.3 -0.09999999999999998 0  0.4 -0.09999999999999998 0  0.5 -0.09999999999999998 0  -0.5 -0.07999999999999996 0  -0.4 -0.07999999999999996 0  -0.3 -0.07999999999999996 0  -0.2 -0.07999999999999996 0  -0.09999999999999998 -0.07999999999999996 0  0 -0.07999999999999996 0  0.09999999999999998 -0.07999999999999996 0  0.2 -0.07999999999999996 0  0.3 -0.07999999999999996 0  0.4 -0.07999999999999996 0  0.5 -0.07999999999999996 0  -0.5 -0.06000000000000005 0  -0.4 -0.06000000000000005 0  -0.3 -0.06000000000000005 0  -0.2 -0.06000000000000005 0  -0.09999999
[...]
<PointData  Vectors="flow"> 
<DataArray  type="Float64"  Name="flow"  NumberOfComponents="3" format="ascii">-2.5722214632885564e-15 -9.7977239289036125e-18 0.0000000000000000e+00  -2.3630493460343163e-15 4.0681535378176185e-15 0.0000000000000000e+00  -5.1172748456939780e-16 -2.2076886613900680e-15 0.0000000000000000e+00  3.3401220350797439e-15 -5.1861063691984385e-15 0.0000000000000000e+00  -3.0413434488016935e-16 3.4624595427133174e-15 0.0000000000000000e+00  8.6321993142390593e-16 -5.7199235162745581e-15 0.0000000000000000e+00  3.8318685626154012e-15 4.8768678029903038e-15 0.0000000000000000e+00  1.1030712486560786e-15 1.3405785681980928e-15 0.0000000000000000e+00  -5.5011318000413974e-16 2.4526836184380309e-15 0.0000000000000000e+00  2.1881175453835306e-15 -5.8715697132037828e-15 0.0000000000000000e+00  3.8792518343026183e-15 -9.4227303565751556e-15 0.0000000000000000e+00  -1.0003054650951338e-15 5.1663104304912833e-16 0.0000000000000000e+00  -2.6168819787455629e-15 7.6579589828366358e-16 0.0000000000000000e+00  -6.4580936487836036e-16 -5.0444532856545358e-16 0.0000000000000000e+00  3.0140008457323007e-15 1.8285631970108089e-15 0.0000000000000000e+00  -2.6104735462889780e-16 -1.5570658009546864e-15 0.0000000000000000e+00  1.2848915827961636e-15 7.4726968540676673e-16 0.0000000000000000e+00  4.1921062405843015e-15 2.5696909761626315e-15 0.0000000000000000e+00  4.5505534472745703e-16 7.8163348925302466e-16 0.0000000000000000e+00  4.4113885234393370e-16 2.5887996880605766e-15 0.0000000000000000e+00  1.6424335565631915e-15 6.0745107868891184e-15 0.0000000000000000e+00  2.3027900917073822e-15 -8.5330392057676270e-16 0.0000000000000000e+00  -1.1111948210252495e-15 -7.9752605256019719e-15 0.0000000000000000e+00  -2.1814247932067821e-15 2.3368215345277714e-15 0.0000000000000000e+00  -7.4949427169309774e-17 -2.4107040519877914e-15 0.0000000000000000e+00  2.9947587194994331e-15 3.1110225513381402e-15 0.0000000000000000e+00  1.2852486119966560e-16 2.8280620263180494e-15 0.0000000000000000e+00  1.2399485042452207e-15 8.1827061158668342e-15 0.0000000000000000e+00  3.8847900397346348e-15 9.2061681388067688e-15 0.0000000000000000e+00  6.9666319943169098e-16 7.4869513281985774e-15 0.0000000000000000e+00  4.3902115966725420e-16 -4.3158227563742514e-16 0.0000000000000000e+00  1.0856157888240901e-15 1.0256161735314210e-15 0.0000000000000000e+00  2.4947786915860076e-16 2.4988078236588261e-15 0.0000000000000000e+00  6.0250722485255609e-17 8.4173449073769652e-15 0.0000000000000000e+00  -2.1160099997841115e-15 -3.1765065526704088e-15 0.0000000000000000e+00  -4.4945533072381465e-16 -4.2207219623032941e-15 0.0000000000000000e+00  3.5569311715345922e-15 -1.7153339519151009e-15 0.0000000000000000e+00  5.7301064520189248e-16 -1.1832787164159742e-15 0.0000000000000000e+00  2.9610112346225069e-15 3.5470930365930266e-15 0.0000000000000000e+00  4.3533518740023356e-15 2.0042512887019844e-14 0.0000000000000000e+00  -2.1014138642870157e-15 8.6008397004277768e-15 0.0000000000000000e+00  -6.2690232951392153e-16 -1.9278143621150983e-14 0.0000000000000000e+00  3.1132132260845668e-15 1.0486026361532274e-14 0.0000000000000000e+00  9.1438002166061973e-16 1.0065245736558976e-15 0.0000000000000000e+00  -4.0816127617092864e-15 1.0466376151177720e-14 0.0000000000000000e+00  -3.7746094437457775e-15 -2.7432310709785023e-15 0.0000000000000000e+00  -6.6387944901224098e-16 -2.6836713144175436e-15 0.0000000000000000e+00  4.1570460780907609e-15 -1.1468300481075371e-14 0.0000000000000000e+00  1.8679181281561119e-15 7.3481046937876608e-15 0.0000000000000000e+00  4.8041710949153709e-15 7.9354401316536475e-15 0.0000000000000000e+00  5.2079304000506292e-15 7.3756556288723458e-15 0.0000000000000000e+00  -7.4576700793542751e-15 1.7482465547800146e-14 0.0000000000000000e+00  9.4268829276586965e-16 -1.4515515265087731e-14 0.0000000000000000e+00  5.2854787229364971e-15 3.1819725552859805e-15 0.0000000000000000e+00  -6.5304422671785515e-15 -8.9769858510637773e-15 0.0000000000000000e+00  -7.0629227984200294e-15 3.3778629689578977e-15 0.0000000000000000e+00  -4.6964597866750174e-15 -1.0878486967558000e-14 0.0000000000000000e+00  -9.6487286849230193e-16 -1.2942155838065467e-15 0.0000000000000000e+00  4.7305181418160830e-15 4.3107193868462880e-15 0.0000000000000000e+00  3.0822198901776624e-15 -5.4877972951412805e-15 0.0000000000000000e+00  2.9043044623045182e-15 -1.3949257444087287e-14 0.0000000000000000e+00  7.2498780948907961e-15 -1.3185805186296577e-14 0.0000000000000000e+00  -6.5603535718996460e-15 2.8397767900303510e-15 0.0000000000000000e+00  -2.7894341352585788e-15 4.2273619314133593e-15 0.0000000000000000e+00  4.6400309203185701e-15 -6.4644520964053525e-15 0.0000000000000000e+00  -4.9408955731254617e-15 4.4075650566687212e-16 0.0000000000000000e+00  -6.8047689448034621e-15 -6.5862181277121349e-15 0.0000000000000000e+00  -5.4987557921312231e-15 7.7788667267137569e-15 0.0000000000000000e+00  1.0888568488972739e-15 -8.9919805014015618e-16 0.0000000000000000e+00  3.3955803480789263e-15 5.2381689180822279e-16 0.0000000000000000e+00  2.3545565830498732e-16 -1.6028605426063501e-14 0.0000000000000000e+00  3.7870818846228035e-15 -1.6423299388787528e-15 0.0000000000000000e+00  6.8445934649668170e-15 -8.9916494796449015e-15 0.0000000000000000e+00  -4.8681617912104726e-15 -1.3385371537816631e-14 0.0000000000000000e+00  -1.2681081637918784e-15 -9.7127569376483704e-15 0.0000000000000000e+00  3.2032092318697222e-15 2.8755078849519142e-15 0.0000000000000000e+00  -3.8468905115917970e-15 -1.9461671361112154e-14 0.0000000000000000e+00  -1.5291152881680720e-15 -2.4037110079372771e-14 0.0000000000000000e+00  -2.1482021970981468e-15 -1.1421988175784265e-14 0.0000000000000000e+00  -7.6119170531840422e-16 3.9209314910219458e-15 0.0000000000000000e+00  2.8162683463783071e-15 1.5445932512636176e-15 0.0000000000000000e+00  1.9504776602781477e-15 6.6341865276108729e-15 0.0000000000000000e+00  3.3205258189843233e-15 5.6468944416074513e-15 0.0000000000000000e+00  5.2280542502340135e-15 1.7546687223889089e-14 0.0000000000000000e+00  -4.9958652569766761e-15 -1.3585104250798434e-15 0.0000000000000000e+00  1.4357007217698454e-15 4.0955920640277522e-15 0.0000000000000000e+00  1.7507121430094971e-15 1.1807720601050284e-14 0.0000000000000000e+00  -7.9755148134381848e-15 -1.3415855461493106e-14 0.0000000000000000e+00  -6.9608466147733556e-15 4.0058332299892211e-15 0.0000000000000000e+00  -2.1723666026806725e-16 1.5672878057707006e-15 0.0000000000000000e+00  1.3964981410570029e-15 1.5354835789793495e-15 0.0000000000000000e+00  2.6905455557050688e-15 8.0019230872273832e-16 0.0000000000000000e+00  6.7581600588261311e-16 7.3910930693180923e-15 0.0000000000000000e+00  7.8307955933835208e-15 -8.0871411854149074e-15 0.0000000000000000e+00  6.1740930504321178e-15 5.2753624545041077e-14 0.0000000000000000e+00  -9.4460338961291600e-15 1.7958873912092595e-14 0.0000000000000000e+00  2.2075611625165544e-15 9.7127867734626690e-16 0.0000000000000000e+00  -1.8085125396894395e-16 3.0009332140649586e-14 0.0000000000000000e+00  -1.1738644398121347e-14 -9.7042102916737281e-16 0.0000000000000000e+00  -3.8563042545822177e-15 1.6142130045611978e-14 0.0000000000000000e+00  -2.4879018963913074e-15 2.3364000515066325e-14 0.0000000000000000e+00  6.6534547060340462e-16 2.2818291559527803e-14 0.0000000000000000e+00  2.1720154832144766e-15 -1.3540583656218266e-14 0.0000000000000000e+00  1.7175744018941750e-15 -2.3003167937465399e-16 0.0000000000000000e+00  9.7396689410279861e-15 -1.3490163057503760e-14 0.0000000000000000e+00  9.7854421083100962e-15 -2.7650151891772217e-14 0.0000000000000000e+00  -1.4665461808781292e-14 8.1803840778977092e-15 0.0000000000000000e+00  4.4107270205811770e-15 -9.4940909784107776e-15 0.0000000000000000e+00  9.0372497118332559e-16 7.4463168416887899e-15 0.0000000000000000e+00  -2.4563889974536660e-14 -1.5638079276264708e-14 0.0000000000000000e+00  -4.2117470483628971e-15 9.4272339189815491e-15 0.0000000000000000e+00  -5.3693498080773245e-16 8.9288618034636778e-15 0.0000000000000000e+00  -3.2684590475976401e-15 1.8058920027147303e-14 0.0000000000000000e+00  -1.5588924529677722e-15 -9.2485934187118714e-15 0.0000000000000000e+00  1.5344413096798364e-15 -6.5520646162319706e-15 0.0000000000000000e+00  3.6166395801527767e-15 1.0216883362772582e-14 0.0000000000000000e+00  1.1320035528334171e-14 -2.3393536048416262e-14 0.0000000000000000e+00  -7.7802460287643055e-15 5.7638752986589011e-15 0.0000000000000000e+00  1.6524170622686834e-15 1.8109810469989551e-14 0.0000000000000000e+00  -1.1592199221227984e-15 1.1260605973529947e-15 0.0000000000000000e+00  -2.0304635815850911e-14 -2.2631628489074829e-14 0.0000000000000000e+00  -1.6989710736588121e-15 -5.7793042629554817e-16 0.0000000000000000e+00  2.5263786933675234e-15 3.1402261432036986e-14 0.0000000000000000e+00  -7.4008065120679313e-15 6.7156165191487251e-15 0.0000000000000000e+00  -3.7533101105869411e-15 -1.5330626867992048e-14 0.0000000000000000e+00  4.6186546064662788e-15 -6.0840123755004640e-15 0.0000000000000000e+00  6.2140387859936505e-15 7.6042522465219675e-15 0.0000000000000000e+00  8.4961210377875129e-15 8.4720255768957380e-16 0.0000000000000000e+00  -4.5039264709142532e-15 -2.0761854021200762e-14 0.0000000000000000e+00  2.8445443982427282e-15 2.6940591488576178e-14 0.0000000000000000e+00  -5.5922501605286473e-15 9.5732406568055275e-15 0.0000000000000000e+00  -3.3702992536474781e-14 -1.4665730928192435e-14 0.0000000000000000e+00  8.2450281838686056e-15 1.5106980269189004e-14 0.0000000000000000e+00  -2.5363672214245222e-15 1.9688386977052985e-14 0.0000000000000000e+00  -1.1378528398762949e-14 -5.0173121217135285e-14 0.0000000000000000e+00  1.1871844172094141e-15 -2.1814968355146412e-15 0.0000000000000000e+00  4.4732296107391386e-15 -7.1445602899922134e-15 0.0000000000000000e+00  4.9993067933410123e-15 3.9291970532463038e-14 0.0000000000000000e+00  6.2309049948891519e-15 -3.4611947188430219e-14 0.0000000000000000e+00  -1.2020662030338428e-15 -3.5112256843649036e-14 0.0000000000000000e+00  6.0442280870306577e-15 2.7379288975602152e-14 0.0000000000000000e+00  -1.1770726728653378e-14 3.5684117819123894e-15 0.0000000000000000e+00  -3.2405318345478423e-14 -3.0276447430826059e-14 0.0000000000000000e+00  7.9151873298553983e-15 -8.3954846730615073e-15 0.0000000000000000e+00  -6.7155309114598955e-15 4.2265673619165889e-15 0.0000000000000000e+00  -1.1346106815914066e-14 -3.9781121860593563e-14 0.0000000000000000e+00  2.4395896395300073e-15 6.3949734759319942e-15 0.0000000000000000e+00  1.1054239425289809e-14 -1.0048485795230695e-14 0.0000000000000000e+00  2.0514018988834855e-15 3.0759894832228281e-14 0.0000000000000000e+00  -7.5166727234568976e-15 -4.6448871722211128e-14 0.0000000000000000e+00  5.4883483894453460e-15 -7.1540998699612686e-16 0.0000000000000000e+00  1.2289772216881490e-14 -1.3043116931554988e-14 0.0000000000000000e+00  -1.3851454246404923e-14 1.5652878333153922e-14 0.0000000000000000e+00  -3.5831690456808261e-14 2.9079164266685801e-14 0.0000000000000000e+00  2.1120726959219839e-15 2.5196379600372056e-14 0.0000000000000000e+00  -1.4613444785918330e-14 1.8417853723281759e-14 0.0000000000000000e+00  -1.2526635621564388e-14 -8.8823326477142229e-14 0.0000000000000000e+00  9.4490784379395036e-15 -4.1398689784902460e-14 0.0000000000000000e+00  1.0543674791869922e-14 2.7743740613000452e-14 0.0000000000000000e+00  -2.0122059850415078e-15 -2.4671520465720707e-14 0.0000000000000000e+00  1.2355997184703443e-15 -1.4800984975948145e-14 0.0000000000000000e+00  6.7810317413882794e-15 8.8297376552902466e-15 0.0000000000000000e+00  8.9757652568670377e-15 -1.3905060605513750e-14 0.0000000000000000e+00  -6.1707368101058276e-15 1.4362595961859554e-14 0.0000000000000000e+00  -3.4501961950607896e-14 2.6088311048652766e-14 0.0000000000000000e+00  1.2127279417229573e-14 1.1331864399334292e-14 0.0000000000000000e+00  -2.4655457858498431e-14 3.9507205013618376e-14 0.0000000000000000e+00  -2.0642045674732904e-14 -3.1050371802970327e-14 0.0000000000000000e+00  2.2425719092386470e-14 5.4880131169719093e-15 0.0000000000000000e+00  1.3238493773258810e-14 3.8454562225214849e-14 0.0000000000000000e+00  -5.3959800513086253e-15 -1.0593635694312164e-14 0.0000000000000000e+00  -1.1174874987367714e-15 -8.5140286247415738e-16 0.0000000000000000e+00  3.3450466424956135e-15 -5.1982717924256945e-14 0.0000000000000000e+00  1.3530057411201974e-14 -1.4980811092119442e-15 0.0000000000000000e+00  -5.0841712182945771e-15 1.0043048363909091e-14 0.0000000000000000e+00  -3.7544310650007600e-14 -3.5522995910010892e-15 0.0000000000000000e+00  7.4243905289533076e-15 9.3327602881996598e-15 0.0000000000000000e+00  -2.4147303543623222e-14 -1.2506929887526848e-14 0.0000000000000000e+00  -2.0581539953963324e-14 3.4012207615461237e-14 0.0000000000000000e+00  2.4603034725168061e-14 3.3416245470395491e-14 0.0000000000000000e+00  7.3316208732487474e-15 -6.0697907071279872e-15 0.0000000000000000e+00  -1.1597329003470783e-14 -2.0107068931725846e-14 0.0000000000000000e+00  -7.4075102616417744e-15 -5.9067705999504650e-14 0.0000000000000000e+00  1.0098668143624151e-14 -3.2005836075237955e-14 0.0000000000000000e+00  2.1553193496882844e-14 -6.7661775035911775e-15 0.0000000000000000e+00  -7.8344607086853252e-15 2.9128145097204345e-15 0.0000000000000000e+00  -2.7652542599561359e-14 3.0209208506826220e-14 0.0000000000000000e+00  -8.3411798097981667e-18 4.0075748454177042e-14 0.0000000000000000e+00  -2.1966084345944968e-14 -5.9255327540930140e-16 0.0000000000000000e+00  -1.1575100644343518e-14 2.2742642902373367e-14 0.0000000000000000e+00  1.8208254074669374e-14 3.6795618737976138e-14 0.0000000000000000e+00  9.2455570030370451e-16 5.2228566881089723e-15 0.0000000000000000e+00  -1.3390750870382827e-14 -2.3914066599859648e-14 0.0000000000000000e+00  -9.4565242602948171e-15 4.9730527166607772e-15 0.0000000000000000e+00  1.3410814158412335e-14 -3.1961850513126243e-14 0.0000000000000000e+00  2.2825358159739302e-14 -5.4470475132964749e-14 0.0000000000000000e+00  1.4849528574913299e-15 2.1858572794154300e-14 0.0000000000000000e+00  -2.1174793400926174e-14 6.1174641401570920e-15 0.0000000000000000e+00  6.5367782719424674e-15 4.3819354105677182e-14 0.0000000000000000e+00  -2.9192981478208629e-14 -3.8287200780232956e-14 0.0000000000000000e+00  -1.2199110745727520e-14 1.7803227648882091e-14 0.0000000000000000e+00  1.7099064743414956e-14 -6.1313412453734654e-15 0.0000000000000000e+00  -5.3067686772062604e-15 -4.3215312939888915e-14 0.0000000000000000e+00  -5.9091589777814243e-15 -6.6884314879412463e-14 0.0000000000000000e+00  -6.4654884981668927e-15 6.3376953666975323e-14 0.0000000000000000e+00  -4.9979648047574827e-17 5.0931724586165078e-15 0.0000000000000000e+00  2.9491092519719514e-14 -4.2061822063158797e-14 0.0000000000000000e+00  2.1932034283145087e-15 8.6395937574999504e-15 0.0000000000000000e+00  -3.8174667984940414e-14 -4.8632721490473971e-14 0.0000000000000000e+00  -3.1303479536996174e-14 2.2405295072849986e-14 0.0000000000000000e+00  -2.6097184900658095e-14 -5.0725047995060592e-14 0.0000000000000000e+00  -2.1228407715223251e-15 3.4676556768087362e-15 0.0000000000000000e+00  7.2361739602238427e-15 4.9049743689137526e-14 0.0000000000000000e+00  -1.0881622049060943e-14 -3.3488895869484416e-14 0.0000000000000000e+00  -1.4106083821577479e-15 -2.3116862720212371e-14 0.0000000000000000e+00  7.0821602047864568e-15 2.0751160191624054e-14 0.0000000000000000e+00  -7.6647860786576100e-15 4.6851489008634083e-14 0.0000000000000000e+00  2.4816666569317832e-14 1.3114747437123797e-14 0.0000000000000000e+00  -8.9431382212935951e-18 9.1628217249812974e-15 0.0000000000000000e+00  -4.6604909437171458e-14 -5.4097270055376625e-14 0.0000000000000000e+00  -3.4805608930056854e-14 3.9306699680313966e-14 0.0000000000000000e+00  -3.1969569459315837e-14 3.6016834688962195e-15 0.0000000000000000e+00  4.1643490063552616e-15 -2.3692293927300332e-14 0.0000000000000000e+00  1.0716017533092006e-14 4.5899181729516724e-14 0.0000000000000000e+00  -1.7327723302467655e-14 -3.7544217552265119e-14 0.0000000000000000e+00  3.9550946486939707e-15 9.2601578429158348e-15 0.0000000000000000e+00  5.8488875822978547e-15 2.0722009012558615e-14 0.0000000000000000e+00  -3.5993681041863660e-15 2.7892037176579358e-14 0.0000000000000000e+00  2.4533276528031750e-14 1.2106673958306381e-14 0.0000000000000000e+00  -6.8117713935739671e-15 2.5168416286705103e-14 0.0000000000000000e+00  -5.6537395369465940e-14 -1.4863360303020214e-14 0.0000000000000000e+00  -2.9277431988994290e-14 -2.9465177493016416e-14 0.0000000000000000e+00  -3.6642154916936846e-14 3.4851231159886338e-14 0.0000000000000000e+00  2.0297846405667906e-15 -2.5468417512156755e-14 0.0000000000000000e+00  8.6486933153600069e-15 -4.1495211679318907e-14 0.0000000000000000e+00  -1.9570098445700022e-14 6.9204780603966459e-15 0.0000000000000000e+00  1.6722386274828240e-14 -2.7766347303363668e-14 0.0000000000000000e+00  1.3514256962645369e-14 7.7185175481412176e-14 0.0000000000000000e+00  -4.8707417616638785e-15 1.0246890942795037e-13 0.0000000000000000e+00  1.3636274645221110e-14 3.8491695345014394e-14 0.0000000000000000e+00  -8.0225624334528689e-15 7.2961724236184584e-15 0.0000000000000000e+00  -6.6877758716438805e-14 -3.4221847182804764e-14 0.0000000000000000e+00  -1.6855041290856408e-14 -3.5912772830736338e-14 0.0000000000000000e+00  -3.0308456941215416e-14 3.2022682306300328e-14 0.0000000000000000e+00  -8.7864503583550859e-15 1.4287620401775140e-14 0.0000000000000000e+00  1.3161615975510515e-14 5.4608538608961099e-14 0.0000000000000000e+00  -1.7618885392353105e-14 -2.6522736552297303e-14 0.0000000000000000e+00  1.3744126181444720e-14 -8.2577040635236264e-15 0.0000000000000000e+00  2.4807805388205590e-14 1.7416150577741307e-14 0.0000000000000000e+00  -7.8583053828920364e-15 1.2093779220329116e-14 0.0000000000000000e+00  9.3332660181028213e-15 -2.3880276402244147e-14 0.0000000000000000e+00  -1.5517751390973636e-14 9.6590973604743965e-16 0.0000000000000000e+00  -8.6449140892636886e-14 -5.5174287916771417e-14 0.0000000000000000e+00  -1.4182742278437809e-14 1.2435219232037058e-14 0.0000000000000000e+00  -3.0751095788544686e-14 4.7568417825514634e-14 0.0000000000000000e+00  6.5819809439772193e-15 -5.6898101831641271e-14 0.0000000000000000e+00  1.9260504232995702e-15 2.2621112499119471e-14 0.0000000000000000e+00  -2.3092620280133792e-14 -4.7752120479425941e-15 0.0000000000000000e+00  2.4297315200780507e-14 4.7940820236452271e-14 0.0000000000000000e+00  2.1348475980032799e-14 4.1625224771644398e-14 0.0000000000000000e+00  -1.8740154992564697e-14 8.6103468481911277e-16 0.0000000000000000e+00  8.3063857437907879e-15 1.4897639602272157e-17 0.0000000000000000e+00  -1.2934577973672648e-14 -3.1071698123348144e-14 0.0000000000000000e+00  -8.3153752762331296e-14 1.5871991369305742e-14 0.0000000000000000e+00  6.2858873193123617e-17 -1.7881893757216998e-14 0.0000000000000000e+00  -3.6521650507144064e-14 -2.2859697824146910e-14 0.0000000000000000e+00  -1.2958991562956863e-14 3.6936593783471824e-14 0.0000000000000000e+00  1.5309873802480832e-14 -9.3948460848884075e-14 0.0000000000000000e+00  -1.7424085631676580e-14 6.3501177823492710e-14 0.0000000000000000e+00  2.4130624414650395e-14 -3.6045366088964890e-14 0.0000000000000000e+00  2.0241090063677070e-14 4.2909546167665926e-14 0.0000000000000000e+00  -1.4370727319803083e-14 -5.4326612440471270e-15 0.0000000000000000e+00  6.5567391957510668e-15 4.3011580840941418e-14 0.0000000000000000e+00  -1.6646424871955774e-14 -1.2491791035265380e-14 0.0000000000000000e+00  -6.9460077413097975e-14 -1.3279949391309955e-14 0.0000000000000000e+00  -2.8261793648500714e-14 -2.0341416605552030e-14 0.0000000000000000e+00  -2.6850566778750750e-14 -3.6506535781578034e-14 0.0000000000000000e+00  -8.9935530526014998e-15 -2.1855868847454979e-14 0.0000000000000000e+00  1.4992005340084017e-14 -3.7527423411530429e-14 0.0000000000000000e+00  -6.2961575076134447e-15 8.8051032455448810e-14 0.0000000000000000e+00  1.9070642011030161e-14 