<?xml version="1.0"?>
<VTKFile type="UnstructuredGrid"  version="0.1"  >
<UnstructuredGrid>
<Piece  NumberOfPoints="654" NumberOfCells="1220">
<Points>
<DataArray  type="Float64"  NumberOfComponents="3"  format="ascii">-0.05 0 0  -0.05 -0.1 0  0.05 -0.1 0  0.05 0 0  0 -0.1 0  0.05 -0.05 0  0 0 0  -0.05 -0.05 0  0 -0.05 0  -0.025 -0.1 0  -0.025 0 0  -0.05 -0.025 0  0.025 -0.1 0  0.05 -0.025 0  0.025 0 0  0.025 -0.06875000000000001 0  0.025 -0.03750000000000001 0  -0.02083333333333333 -0.02916666666666667 0  -0.05 -0.07500000000000001 0  -0.02083333333333333 -0.07083333333333333 0  0.05 -0.07500000000000001 0  0.003472222222222224 -0.02569444444444444 0  0.002378144654088049 -0.07627751572327045 0  -0.02083333333333333 -0.05 0  0.03125 -0.01875 0  -0.01233019290593089 -0.08678347112328397 0  -0.0125 -0.0130952380952381 0  -0.03690476190476191 -0.03750000000000001 0  -0.03541666666666667 -0.06041666666666666 0  -0.03385416666666667 -0.01614583333333334 0  0.05 -0.08750000000000001 0  0.03750000000000001 -0.1 0  -0.03385416666666666 -0.08385416666666666 0  0.03348214285714286 -0.08348214285714287 0  0.0125 0 0  0.0125 -0.1 0  0.01719551374627341 -0.0830513925183794 0  0.01029527261028368 -0.06231463651962176 0  0.0328125 -0.05312500000000001 0  -0.01041666666666666 -0.03958333333333333 0  -0.01041666666666667 -0.06041666666666667 0  0.01470753125203114 -0.04816506250406229 0  0.01799242424242424 -0.02474747474747475 0  0.03750000000000001 -0.03125 0  0.05 -0.0625 0  0.00625 -0.01223723723723724 0  0.05 -0.0125 0  0.03750000000000001 0 0  0.03765012642225032 -0.07127449431099875 0  0.02021617032392894 -0.01201127655869035 0  0.006028532990060553 -0.03846042534778643 0  -0.05 -0.0625 0  -0.03750000000000001 0 0  -0.05 -0.03750000000000001 0  -0.0125 -0.1 0  -0.0125 0 0  -0.05 -0.0125 0  -0.03750000000000001 -0.1 0  0.05 -0.03750000000000001 0  -0.05 -0.08750000000000001 0  -0.008680555555555554 -0.02743055555555555 0  0.006250000000000001 -0.08914373740925415 0  -0.009584768711776409 -0.07507825100308022 0  -0.03268229166666667 -0.07200520833333332 0  0.03939012096774194 -0.04309475806451613 0  0.02190003906503893 -0.05743439453251947 0  -0.03834537706133037 -0.04910019455252918 0  0.01284084887861751 -0.07298400536762802 0  -0.02264613483542079 -0.0820413651645792 0  -0.02366071428571428 -0.01123511904761905 0  -0.03199404761904762 -0.02730654761904763 0  -0.0244047619047619 -0.06041666666666667 0  -0.01041666666666666 -0.05 0  -0.02083333333333332 -0.03958333333333333 0  2.405987640392848e-05 -0.0604407265430706 0  -0.002910133850527605 -0.01736173448892657 0  -0.02961483445283294 -0.04429487938443922 0  0.0390625 -0.0109375 0  0.040625 -0.021875 0  0.028125 -0.028125 0  -0.04176917540113871 -0.06803243885869564 0  0.03965658412817928 -0.06102022076500465 0  0.01533845899304755 -0.03450745320159019 0  0.02948377458963575 -0.008744075527611174 0  0.02448333984417315 -0.04800472330961902 0  -0.002638588467448458 -0.08480290334513936 0  0.01875 -0.09260679016400503 0  0.02801599660666901 -0.09111197895245939 0  0.0427726833976834 -0.08125000000000002 0  0.04010991573299855 -0.09061756875992701 0  -0.03125000000000001 -0.09292674731182796 0  -0.04078102849914793 -0.09075246902758297 0  -0.04292674731182795 -0.08125000000000002 0  -0.04292674731182796 -0.01875 0  -0.04075246902758298 -0.009218971500852071 0  -0.002501899107215252 -0.03451361758785813 0  -0.01875 -0.09331034417873318 0  -0.04137052725919914 -0.02906901041666667 0  -0.02515071191829004 -0.02065873579545455 0  -0.004560476962080258 -0.008160345583815167 0  -0.01571003401360544 -0.02162698412698413 0  -0.006250000000000001 -0.09347094524847423 0  -0.03184688459542486 -0.007177652942204195 0  -0.043423574176247 -0.05645164743293771 0  -0.002931194584325539 -0.06897337298686135 0  0.04141166808534667 -0.05159229946940671 0  0.03072628767995273 -0.06184751883997637 0  0.01331794183364191 -0.01736907532119644 0  -0.02991071428571428 -0.05329326110353833 0  0.0302193738423544 -0.07555280640245397 0  -0.02844810693838604 -0.03529440998727736 0  -0.05 -0.04375 0  0.009435764744425919 -0.08043238240966273 0  0.02057363836381549 -0.07561467685960577 0  0.025334823172674 -0.08341820123348352 0  0.005194622404326759 -0.06864849887959712 0  0.01732194592699554 -0.06627651681808928 0  0.006285662925187238 -0.05520590615175079 0  -0.01875 0 0  0.03186492887377232 -0.04533174938342453 0  -0.0008783629089698517 -0.04219661564043644 0  0.05 -0.00625 0  0.03375689409777979 -0.03792049068961304 0  0.05 -0.06875000000000001 0  0.01439721346977286 -0.05583102001882564 0  0.007184194424042271 -0.04772337119454249 0  0.01846824474048517 -0.04149541481145257 0  -0.01682300313953808 -0.07723258764373991 0  0.01091777409106017 -0.0280645394299259 0  -0.01562499999999999 -0.034375 0  -0.005184328773648671 -0.055232337893018 0  -0.015625 -0.05520833333333333 0  -0.01562499999999999 -0.04479166666666667 0  -0.01741071428571429 -0.06383928571428571 0  -0.01017446891572471 -0.06775731747543173 0  0.02462121212121212 -0.02174873737373738 0  -0.01727537722908093 -0.007335299088771311 0  -0.04246234479210493 -0.04269936147867359 0  0.02155204304257197 -0.03095624460965786 0  0.01316725552433098 -0.00805546078058521 0  0.01875 0 0  -0.02717633928571428 -0.0671875 0  -0.02899339936689958 -0.07835247286481212 0  0.034375 -0.025 0  0.04269000268040276 -0.03649499463919448 0  0.04375 0 0  0.04375 -0.02812499999999999 0  -0.03761497647442349 -0.02322577938762476 0  0.05 -0.05625 0  -0.02487731781150031 -0.08912078797260026 0  -0.03695888676976247 -0.07756467740738612 0  0.002206599034779407 -0.006587679234291101 0  0.003888413565608712 -0.01876506087328944 0  0.04375 -0.1 0  0.05 -0.09375 0  -0.008944539808483216 -0.02059134745263918 0  -0.04331057662916364 -0.07455691519284439 0  0.0439453125 -0.0158203125 0  -0.0001289479518082485 -0.09093484953796985 0  -0.04345238095238095 -0.03556995462159739 0  -0.01996941165388946 -0.01664836497274012 0  -0.04375 -0.1 0  -0.05 -0.09375 0  -0.04375 0 0  -0.05 -0.00625 0  0.005594154517873918 -0.03190847365283561 0  0.01173248358540133 -0.04209249512146222 0  0.03419217537052396 -0.09402564429600242 0  0.01187454317038147 -0.09313287027544383 0  0.00625 -0.1 0  0.02629142191479375 -0.01446643061282435 0  0.021875 -0.005713666436405997 0  0.04321758283034931 -0.06704044172466167 0  0.03164035608931087 -0.06843232885197728 0  0.04337196116786825 -0.07463925880684733 0  0.03637679552963742 -0.07765509762578199 0  0.003626010873625676 -0.08324593924595615 0  -0.01086143623908221 -0.006877234301934964 0  0.05 -0.04375 0  0.01179919481827354 -0.08623489346281316 0  -0.01250448524457812 -0.09373974299368953 0  -0.05 -0.06875000000000001 0  -0.03125 0 0  -0.03125 -0.1 0  0.03125 0 0  0.05 -0.03125 0  -0.05 -0.03125 0  0.03125 -0.1 0  -0.00625 -0.1 0  -0.01875 -0.1 0  -0.05 -0.01875 0  0.01875 -0.1 0  -0.00625 0 0  0.00625 0 0  0.05 -0.01875 0  -0.05 -0.05625 0  -0.05 -0.08125000000000002 0  0.05 -0.08125000000000002 0  -0.005208333333333331 -0.04663513209089385 0  -0.008645094114120339 -0.03363601830115741 0  -0.01475694444444444 -0.0282986111111111 0  -0.002375017943413014 -0.02816654106277556 0  0.01949511126133643 -0.01820257885343882 0  -0.01184447766846871 -0.08072281861600734 0  -0.003534735552586339 -0.07499381884380991 0  -7.74643124966494e-05 -0.01210497681433211 0  -0.0189894669743643 -0.08708512345290294 0  -0.03573478741405032 -0.06660859450219164 0  0.04359375 -0.006406250000000002 0  0.03517259397916334 -0.00591284371726238 0  0.01965556274601837 -0.05175082112889391 0  0.0278582381998454 -0.05655080703154879 0  0.02250150625287546 -0.06335204673888746 0  -0.04398521510889171 -0.06244044890584508 0  -0.04409485128436456 -0.05055827494263457 0  -0.03770557434490081 -0.05497182533168162 0  -0.03656642640981419 -0.04343156897269072 0  0.009194419875177533 -0.02206075900562258 0  0.04451331908599852 -0.04636519166703897 0  -0.01485520520633521 -0.0715431557666749 0  0.03646473132841593 -0.0487266977067035 0  0.04405668594067944 -0.05696201317865261 0  -0.005203169869815907 -0.063408387077611 0  -0.02247505510150612 -0.07631841748069951 0  -0.02804244587606518 -0.08423194559419436 0  -0.02935822174816368 -0.01244339991380455 0  -0.03106530920251624 -0.021416390819467 0  -0.02607827560230913 -0.005825920664671352 0  -0.03361300586943999 -0.03280621050224407 0  -0.02666093500983432 -0.02972007434472025 0  0.02285652838955744 -0.08859591663874328 0  0.03188089108105607 -0.03248232675683183 0  0.004333204611837944 -0.09457186870462708 0  -0.02704324561419352 -0.07289471972323462 0  0.007922643115429704 -0.005561362357538799 0  0.0335055138043014 -0.01319301380430141 0  0.03678783220616013 -0.0177615033815196 0  -0.02428736139211932 -0.05463634003970875 0  -0.02991071428571428 -0.06211553281168236 0  0.01197199101441062 -0.06755294829741498 0  0.007340105850365504 -0.07377496925579345 0  0.0155154430127655 -0.07780260757679426 0  0.03658895737846099 -0.06574341599602251 0  -0.02410709817404581 -0.09456977129140082 0  0.01071697988857716 -0.05184278466318995 0  0.01728938824664831 -0.06065342293474459 0  -0.001242172060814776 -0.02269478175693585 0  -0.03834687844188856 -0.07228526864991387 0  0.03504935696459177 -0.08867226036471411 0  0.03924608506562968 -0.08530978616477196 0  0.04446421559415197 -0.08718473081338503 0  0.02679267124047066 -0.0428532372923227 0  -0.007808666799817795 -0.01546134924060014 0  -0.02636641232583814 -0.04890574755055194 0  -0.02267804660897878 -0.04479166666666666 0  0.03489498531895979 -0.05823382415106163 0  3.608994237358591e-05 -0.05522030782704834 0  0.005332838990544739 -0.06042849285714701 0  -0.04436969017718883 -0.02424446436705185 0  -0.01009042364871584 -0.04479166666666667 0  -0.01041666666666667 -0.05520833333333333 0  -0.015625 -0.05 0  -0.01562499999999999 -0.03958333333333334 0  -0.02083333333333332 -0.034375 0  0.04436432681906392 -0.09436432681906393 0  -0.02240513392857143 -0.06518787202380952 0  0.045371774633
[...]
<PointData  Vectors="flow"> 
<DataArray  type="Float64"  Name="flow"  NumberOfComponents="3" format="ascii">-8.7136966694749464e-05 5.3134014993328926e-01 0.0000000000000000e+00  -1.7279887534532325e-03 1.1711483697450063e-02 0.0000000000000000e+00  1.7451938585711958e-02 3.8930273955610794e-03 0.0000000000000000e+00  2.7321456773453709e-04 5.3134193618967274e-01 0.0000000000000000e+00  -5.0839685023822889e-03 6.7636684131597898e-03 0.0000000000000000e+00  2.8113979995700649e-03 3.7219759901869170e-01 0.0000000000000000e+00  2.1206184268197960e-04 5.3097600245524590e-01 0.0000000000000000e+00  -3.2307988688161969e-03 3.7364653663366304e-01 0.0000000000000000e+00  -4.4832531374930699e-04 3.7395228181114443e-01 0.0000000000000000e+00  3.0368917639870072e-03 1.4105927059071890e-02 0.0000000000000000e+00  -5.1554649750684942e-06 5.3130205724526824e-01 0.0000000000000000e+00  -1.3803924250432775e-03 4.9059391291928356e-01 0.0000000000000000e+00  2.4499384746497401e-03 1.5745669196741176e-02 0.0000000000000000e+00  2.3473259597648222e-03 4.9340269175577395e-01 0.0000000000000000e+00  3.1343888787836386e-06 5.3118775655622041e-01 0.0000000000000000e+00  4.5081981307747517e-04 2.5060744195650198e-01 0.0000000000000000e+00  3.5528357770768970e-04 4.4045373890836825e-01 0.0000000000000000e+00  1.1479867605312956e-03 4.7538205747512230e-01 0.0000000000000000e+00  -5.3223672875709104e-03 2.0282720019110531e-01 0.0000000000000000e+00  -6.0892216211922269e-04 2.3641792492885977e-01 0.0000000000000000e+00  3.4410339755948328e-03 2.0419928836359533e-01 0.0000000000000000e+00  -1.0757010721503938e-03 4.8817521514550194e-01 0.0000000000000000e+00  4.1781555068477560e-04 1.9172576073686282e-01 0.0000000000000000e+00  -6.8008235849152177e-04 3.7396236259717813e-01 0.0000000000000000e+00  -8.6316834711043066e-04 5.0927312904687660e-01 0.0000000000000000e+00  6.7340564998443658e-04 1.0779007150878479e-01 0.0000000000000000e+00  -7.4344410511329806e-04 5.2016045028962332e-01 0.0000000000000000e+00  -1.5777398052565738e-04 4.3929206512467539e-01 0.0000000000000000e+00  -2.0899285639747304e-06 3.1008181391843098e-01 0.0000000000000000e+00  4.1940913005215902e-04 5.1468777926242659e-01 0.0000000000000000e+00  7.9860218147654420e-03 1.0131710840770509e-01 0.0000000000000000e+00  -1.7770605252798871e-03 8.9573580897168836e-03 0.0000000000000000e+00  -5.3221627889125358e-04 1.3083952788877301e-01 0.0000000000000000e+00  -7.9376312083969628e-04 1.3516480392660871e-01 0.0000000000000000e+00  1.9175689539815055e-04 5.3137258299732981e-01 0.0000000000000000e+00  1.5388193535870475e-03 8.6507653930597631e-03 0.0000000000000000e+00  2.7454161002075461e-04 1.3961294933958301e-01 0.0000000000000000e+00  1.1679591314652960e-03 2.9419563382415620e-01 0.0000000000000000e+00  5.6595540690362975e-04 3.5430937199556800e-01 0.0000000000000000e+00  2.0297735043739527e-03 4.3218828178544272e-01 0.0000000000000000e+00  6.4309321371025031e-04 3.0932819576665282e-01 0.0000000000000000e+00  3.9028281208902319e-04 3.8569801236564172e-01 0.0000000000000000e+00  -1.0341539361691668e-03 4.9218477457399457e-01 0.0000000000000000e+00  1.2174839150133421e-03 4.6972258755912993e-01 0.0000000000000000e+00  -5.8641530693976989e-04 2.9257223462351234e-01 0.0000000000000000e+00  5.0800196250012722e-05 5.2143926361047710e-01 0.0000000000000000e+00  1.5547269812078244e-03 5.2176453914020149e-01 0.0000000000000000e+00  -2.7982179546568216e-05 5.3090910364082056e-01 0.0000000000000000e+00  -8.5825628466760357e-04 2.3471755274041850e-01 0.0000000000000000e+00  5.3863215926137030e-04 5.2147087241988244e-01 0.0000000000000000e+00  -7.3983182398452258e-04 4.3620337257218900e-01 0.0000000000000000e+00  -2.3875389288898646e-03 2.9449397880610184e-01 0.0000000000000000e+00  4.7167684818864570e-05 5.3132977506745094e-01 0.0000000000000000e+00  -2.2362962150872137e-03 4.4044566055543016e-01 0.0000000000000000e+00  -1.8717017638897693e-03 1.7386012137791486e-02 0.0000000000000000e+00  2.2955711360253664e-05 5.3160153663508791e-01 0.0000000000000000e+00  -6.5361311280386319e-04 5.2225498145037685e-01 0.0000000000000000e+00  1.3794193030579043e-03 1.0629204612057953e-02 0.0000000000000000e+00  3.3580729383842940e-03 4.4141470067388427e-01 0.0000000000000000e+00  -6.0018148636348766e-03 9.8832879083202763e-02 0.0000000000000000e+00  -1.0430514245118275e-03 4.8256739895396000e-01 0.0000000000000000e+00  1.6507184319563516e-03 8.8842149939178161e-02 0.0000000000000000e+00  -2.8472492368455280e-03 1.9848458737080069e-01 0.0000000000000000e+00  -6.2555065026016668e-04 2.2951013223880337e-01 0.0000000000000000e+00  5.1656626504739201e-04 4.1430655009933715e-01 0.0000000000000000e+00  -1.0102116257170650e-04 3.2822181134929923e-01 0.0000000000000000e+00  -1.1404373367786759e-03 3.7910014131960401e-01 0.0000000000000000e+00  7.2103061947107481e-04 2.1975314573944671e-01 0.0000000000000000e+00  -1.1332889738768031e-03 1.4794463950026268e-01 0.0000000000000000e+00  -1.8609713312531766e-04 5.2355326873148889e-01 0.0000000000000000e+00  7.5364730572771150e-06 4.8188769710405210e-01 0.0000000000000000e+00  1.7571067929112919e-04 3.1011291430755294e-01 0.0000000000000000e+00  -7.6004682893940844e-04 3.7660674386338283e-01 0.0000000000000000e+00  -1.4433052869330415e-03 4.3224462717879342e-01 0.0000000000000000e+00  -4.4336500698070484e-04 3.0714856195992085e-01 0.0000000000000000e+00  3.2693430880355122e-04 5.1105914660484753e-01 0.0000000000000000e+00  6.4192537413667022e-04 4.1073735722351740e-01 0.0000000000000000e+00  -2.1776182365933897e-04 5.2278613768892979e-01 0.0000000000000000e+00  -1.0774160886638929e-03 4.9931938758218281e-01 0.0000000000000000e+00  -3.4807843227211532e-07 4.8018744129832897e-01 0.0000000000000000e+00  2.0526778734044840e-04 2.5682256229559558e-01 0.0000000000000000e+00  -9.9110810159992429e-05 3.0645020254014732e-01 0.0000000000000000e+00  -7.4589798461808989e-04 4.5555565879591065e-01 0.0000000000000000e+00  7.6475892992489459e-05 5.2653666283452927e-01 0.0000000000000000e+00  7.5888103242587317e-04 3.8753200461812742e-01 0.0000000000000000e+00  1.4792381973180010e-03 1.2413711860063070e-01 0.0000000000000000e+00  -1.3914479528247600e-04 6.3527480497975311e-02 0.0000000000000000e+00  2.8852507840730203e-03 7.6973389639788253e-02 0.0000000000000000e+00  2.0355372498540199e-03 1.4965867337436473e-01 0.0000000000000000e+00  1.9117629037883712e-03 7.8075026964006519e-02 0.0000000000000000e+00  2.5238314899729123e-03 6.0579942916391703e-02 0.0000000000000000e+00  -5.2062582287721164e-05 7.6993960791989766e-02 0.0000000000000000e+00  -2.8120083680486020e-03 1.5100811610416159e-01 0.0000000000000000e+00  -1.5044472806267909e-04 5.0914343665602735e-01 0.0000000000000000e+00  3.7397297569286602e-05 5.2583791916978107e-01 0.0000000000000000e+00  -3.5837214855964818e-04 4.5549816940665738e-01 0.0000000000000000e+00  -4.2288788640722020e-03 6.0925888939813232e-02 0.0000000000000000e+00  -2.0331346953079548e-04 4.7671863124372654e-01 0.0000000000000000e+00  1.7749028975140276e-04 5.0282853726440824e-01 0.0000000000000000e+00  -4.2559645652870385e-05 5.2684844933176134e-01 0.0000000000000000e+00  -4.6517289072205484e-04 5.0196895069459313e-01 0.0000000000000000e+00  9.9533448219037667e-04 5.6518616704846064e-02 0.0000000000000000e+00  1.7488919129549156e-04 5.2787520166430735e-01 0.0000000000000000e+00  -2.2095890148400021e-03 3.3161811442676942e-01 0.0000000000000000e+00  -8.5437605600623980e-04 2.4374465657800795e-01 0.0000000000000000e+00  4.1759149466598919e-04 3.6451428555542126e-01 0.0000000000000000e+00  2.1216882619265194e-04 2.9889430012543033e-01 0.0000000000000000e+00  -2.7985560837460197e-04 5.1190723124416704e-01 0.0000000000000000e+00  -2.4572131652817510e-04 3.5670667889456170e-01 0.0000000000000000e+00  1.4647566863271980e-03 1.9757542085997207e-01 0.0000000000000000e+00  1.3881513170513107e-04 4.5068433553658510e-01 0.0000000000000000e+00  -3.3443484498633857e-03 4.1101623756745126e-01 0.0000000000000000e+00  1.2452204389822531e-03 1.5782795800142074e-01 0.0000000000000000e+00  3.5608396476489594e-04 1.9881020379896241e-01 0.0000000000000000e+00  -3.5918119286517259e-04 1.3637380613027525e-01 0.0000000000000000e+00  -3.7853220246431306e-04 2.5135574235198044e-01 0.0000000000000000e+00  7.9025558048362993e-04 2.6961307556782671e-01 0.0000000000000000e+00  1.0688174492142284e-03 3.4184454194596431e-01 0.0000000000000000e+00  -2.2685634479958021e-05 5.3151170847659368e-01 0.0000000000000000e+00  1.2556992022331964e-03 4.0233247172181530e-01 0.0000000000000000e+00  1.0056538923565740e-05 4.1740684696341990e-01 0.0000000000000000e+00  2.1975393186013368e-04 5.2869634971742141e-01 0.0000000000000000e+00  -3.2659880706170273e-04 4.4118679875582195e-01 0.0000000000000000e+00  1.0335898477613945e-02 2.4653780479732981e-01 0.0000000000000000e+00  -9.8556827043805610e-04 3.4021124074214726e-01 0.0000000000000000e+00  1.2249862162206954e-03 3.8852685797063896e-01 0.0000000000000000e+00  -3.1251708239169433e-04 4.2240445795640408e-01 0.0000000000000000e+00  -1.6512092625739930e-03 1.8196588754454562e-01 0.0000000000000000e+00  -1.5327359349269912e-03 4.8051680688345305e-01 0.0000000000000000e+00  1.5150656788219246e-03 4.5352272317605086e-01 0.0000000000000000e+00  -2.7856005417490048e-04 3.4514681638690348e-01 0.0000000000000000e+00  -9.8126430669789031e-04 3.4386579046444860e-01 0.0000000000000000e+00  5.1611446005101799e-05 4.0734675107750606e-01 0.0000000000000000e+00  5.2258383690946932e-04 2.8600605748568969e-01 0.0000000000000000e+00  7.4049792662469202e-04 2.5631575289053993e-01 0.0000000000000000e+00  -3.3856173371413526e-04 5.0086271450237385e-01 0.0000000000000000e+00  -1.2488245962578217e-06 5.2834529274571596e-01 0.0000000000000000e+00  -1.4763248801393171e-03 4.1424049083749892e-01 0.0000000000000000e+00  -1.0775033411355320e-03 4.6889278272066776e-01 0.0000000000000000e+00  1.3796698761181132e-04 5.2732785528634651e-01 0.0000000000000000e+00  -2.3633810734711921e-05 5.3110236985959935e-01 0.0000000000000000e+00  -4.7805528416014541e-04 2.6165267720051183e-01 0.0000000000000000e+00  6.9186769756778444e-04 1.7778047079967960e-01 0.0000000000000000e+00  -1.3018051144450080e-03 4.9062037399828923e-01 0.0000000000000000e+00  1.2591388517596172e-03 4.4524644167797345e-01 0.0000000000000000e+00  2.7124086833620423e-05 5.3105729984915162e-01 0.0000000000000000e+00  -9.4845459453795865e-06 4.7941300205434789e-01 0.0000000000000000e+00  2.8635157189857825e-04 4.9628491414363884e-01 0.0000000000000000e+00  5.2739069334624940e-03 3.3910608009949966e-01 0.0000000000000000e+00  -1.6258664104714755e-03 9.2025302600724099e-02 0.0000000000000000e+00  -9.5598581044906248e-04 1.8163234780893481e-01 0.0000000000000000e+00  -2.1601354675597503e-04 5.2822654630269950e-01 0.0000000000000000e+00  1.6344988829318432e-04 5.0741122829099061e-01 0.0000000000000000e+00  2.4542344899702727e-03 1.4610347170834041e-02 0.0000000000000000e+00  6.4807398293142433e-03 6.0524290532345724e-02 0.0000000000000000e+00  1.3887048723967751e-04 5.0452277621171482e-01 0.0000000000000000e+00  6.5485035622639442e-04 2.0761654398169546e-01 0.0000000000000000e+00  3.4412619426697359e-04 5.1459749647554442e-01 0.0000000000000000e+00  1.1615222702389995e-03 7.2992356153378374e-02 0.0000000000000000e+00  -2.3908050844621454e-04 4.4932633092925522e-01 0.0000000000000000e+00  -6.7769192080133472e-04 5.1374648337146689e-01 0.0000000000000000e+00  -6.1182230403402217e-04 8.0664970833037933e-03 0.0000000000000000e+00  -1.8689694042014655e-03 5.7415387981767735e-02 0.0000000000000000e+00  -2.8260077979083623e-05 5.3120102508002587e-01 0.0000000000000000e+00  -3.6398270417380379e-04 5.2856873842151186e-01 0.0000000000000000e+00  -8.1181944191337848e-04 4.6445315795606318e-01 0.0000000000000000e+00  1.5109391044570665e-03 4.2054387301031393e-01 0.0000000000000000e+00  3.0920667813144247e-03 5.4437812851333305e-02 0.0000000000000000e+00  6.9388590163306084e-04 5.8360696826027250e-02 0.0000000000000000e+00  1.9854738664899529e-03 1.0153418211182350e-02 0.0000000000000000e+00  -4.6628299195257465e-04 5.1800244963908992e-01 0.0000000000000000e+00  9.4174989711543172e-05 5.2907560542546583e-01 0.0000000000000000e+00  1.2075824114431563e-03 2.6518272299704010e-01 0.0000000000000000e+00  -1.8095586762977064e-03 2.5196292089194222e-01 0.0000000000000000e+00  3.7421117898702792e-03 2.0517911744167300e-01 0.0000000000000000e+00  8.1358837004579963e-04 1.8230908850805985e-01 0.0000000000000000e+00  -1.7875013529058744e-04 1.3721341835394429e-01 0.0000000000000000e+00  -3.3502838395320914e-04 5.2801836345039999e-01 0.0000000000000000e+00  7.5164465251389479e-04 4.1343740476712665e-01 0.0000000000000000e+00  -3.4500518611069641e-04 1.1671518579317886e-01 0.0000000000000000e+00  1.3307282666251109e-03 4.7738527982322955e-02 0.0000000000000000e+00  -1.2422152021958170e-03 2.4595251823389591e-01 0.0000000000000000e+00  -3.3605943334757118e-05 5.3121095821826647e-01 0.0000000000000000e+00  -1.1344964437193478e-03 7.3281162596741667e-03 0.0000000000000000e+00  -2.6035707893960552e-04 5.3106327440845258e-01 0.0000000000000000e+00  2.0624327557165131e-03 4.6604377615620496e-01 0.0000000000000000e+00  -2.2569626208144944e-03 4.6802639520430267e-01 0.0000000000000000e+00  2.0745686836233339e-03 1.1639151678240325e-02 0.0000000000000000e+00  4.1622002760045183e-03 9.6278181976455143e-03 0.0000000000000000e+00  -2.1211538820445664e-04 6.6191045694497649e-03 0.0000000000000000e+00  -4.1478814797845916e-04 5.0847405991590078e-01 0.0000000000000000e+00  -2.0183440132511927e-03 9.0678637414125483e-03 0.0000000000000000e+00  -1.1056090592287710e-04 5.3118066571849065e-01 0.0000000000000000e+00  2.4298017031714137e-04 5.3118940044832952e-01 0.0000000000000000e+00  8.7906940788479214e-04 5.0785042062549224e-01 0.0000000000000000e+00  -4.8863302676448962e-03 3.4162583198423446e-01 0.0000000000000000e+00  -3.1670048821140291e-03 1.5722108822340777e-01 0.0000000000000000e+00  5.6023814879372184e-03 1.5170157558349021e-01 0.0000000000000000e+00  -7.5953307069034895e-05 3.9490888435802401e-01 0.0000000000000000e+00  -7.3568032602635278e-04 4.5887629639996286e-01 0.0000000000000000e+00  -3.9406488955495323e-05 4.8032980505055384e-01 0.0000000000000000e+00  -1.0222755615646395e-04 4.8121459236944619e-01 0.0000000000000000e+00  3.0538582082379501e-05 5.0906001755642338e-01 0.0000000000000000e+00  7.8232514538134005e-04 1.6333456064387122e-01 0.0000000000000000e+00  9.1403648291261985e-04 2.0339986343284944e-01 0.0000000000000000e+00  3.6400667100083917e-05 5.2224280749446661e-01 0.0000000000000000e+00  1.5377295313350862e-03 1.0449110408221056e-01 0.0000000000000000e+00  7.3178810970516935e-04 2.6139475098894799e-01 0.0000000000000000e+00  1.8988733951652681e-04 5.2841645245549684e-01 0.0000000000000000e+00  -9.3968249963673965e-05 5.2943143473420240e-01 0.0000000000000000e+00  -5.2318071095532439e-04 3.6335115379178601e-01 0.0000000000000000e+00  8.7371657544846088e-04 3.3633655772790488e-01 0.0000000000000000e+00  -2.2163174385889675e-04 2.8994327591565455e-01 0.0000000000000000e+00  8.1469961471898513e-04 2.9622365273221440e-01 0.0000000000000000e+00  1.2567854272838867e-03 3.7102997259227288e-01 0.0000000000000000e+00  1.5825854312298681e-03 3.4525592066422350e-01 0.0000000000000000e+00  -5.4022873652394710e-04 4.1526510125372834e-01 0.0000000000000000e+00  -2.3543161825191497e-04 5.0045085215050544e-01 0.0000000000000000e+00  -3.6360496313869457e-04 3.9624573352891901e-01 0.0000000000000000e+00  1.2441990535144304e-03 2.2868047837746511e-01 0.0000000000000000e+00  -5.6966096592846920e-04 3.8265193311157414e-01 0.0000000000000000e+00  -2.2678508405769731e-03 3.3216668076831168e-01 0.0000000000000000e+00  -4.9314304913044421e-04 2.9006808392962896e-01 0.0000000000000000e+00  3.6785423254614486e-04 1.8881954917755403e-01 0.0000000000000000e+00  2.8463975748575223e-03 1.2744591320243431e-01 0.0000000000000000e+00  -2.1750192940257355e-04 5.2130488464994229e-01 0.0000000000000000e+00  -3.3301653237635513e-04 5.0116772211661953e-01 0.0000000000000000e+00  -1.9663578985521329e-05 5.2911676749046399e-01 0.0000000000000000e+00  -1.6874232106510475e-04 4.6295250531253040e-01 0.0000000000000000e+00  1.7063802321589800e-05 4.7389822056152059e-01 0.0000000000000000e+00  1.6827241023927096e-03 9.4554188781275375e-02 0.0000000000000000e+00  -2.2926025629980577e-04 4.6242975773818407e-01 0.0000000000000000e+00  -2.1996498843356157e-03 4.0899598011591404e-02 0.0000000000000000e+00  8.7319857405688520e-04 2.2266339423804493e-01 0.0000000000000000e+00  -5.2181192881916325e-05 5.2959185294320632e-01 0.0000000000000000e+00  -1.8517825216358670e-04 5.1981013468651771e-01 0.0000000000000000e+00  -6.4722584303614019e-05 5.1004688113813001e-01 0.0000000000000000e+00  2.3888542672038943e-04 3.4679591508437074e-01 0.0000000000000000e+00  -7.6270827723269390e-04 2.9729381787761894e-01 0.0000000000000000e+00  -2.1123590483438292e-03 2.5711224966359508e-01 0.0000000000000000e+00  -1.2073217941544927e-03 2.1109941889612052e-01 0.0000000000000000e+00  -2.7817695688827043e-04 1.8001294774536045e-01 0.0000000000000000e+00  3.4580971810468090e-04 2.7011753019088841e-01 0.0000000000000000e+00  1.1677501365681135e-03 3.7955750095737220e-02 0.0000000000000000e+00  7.5879995631322582e-05 3.6097636501351782e-01 0.0000000000000000e+00  1.6798174013568339e-04 3.0339906793261162e-01 0.0000000000000000e+00  5.9447442297007737e-05 4.9710577043059212e-01 0.0000000000000000e+00  -6.6634807655663688e-05 2.2689924278444787e-01 0.0000000000000000e+00  3.3754195144827749e-04 9.3619725183398964e-02 0.0000000000000000e+00  1.2773264075400142e-03 1.2036706976042880e-01 0.0000000000000000e+00  -3.6566687399926961e-03 1.0813555235681208e-01 0.0000000000000000e+00  -6.5109256058578507e-04 4.1630127512049614e-01 0.0000000000000000e+00  -3.1557341427630394e-04 5.1510113550168291e-01 0.0000000000000000e+00  2.0095676280839082e-05 3.8107445575797760e-01 0.0000000000000000e+00  1.0469117193519044e-03 4.0550855067591079e-01 0.0000000000000000e+00  -1.1842340839297067e-03 3.2386800166886726e-01 0.0000000000000000e+00  1.4878785611808733e-05 3.4521818510065644e-01 0.0000000000000000e+00  -2.1153768350343142e-03 3.0959849631073866e-01 0.0000000000000000e+00  7.9354235760606547e-04 4.9252951845516740e-01 0.0000000000000000e+00  -6.6308341320327560e-04 4.0205491310674779e-01 0.0000000000000000e+00  -2.0012606146083784e-04 3.4207946156683716e-01 0.0000000000000000e+00  4.5312987247809062e-04 3.7144781133194676e-01 0.0000000000000000e+00  5.7701781741545833e-04 4.3240019108413569e-01 0.0000000000000000e+00  -8.8932320094354178e-04 4.5530523607884787e-01 0.0000000000000000e+00  -1.4996722302902934e-03 3.9921731172795807e-02 0.0000000000000000e+00  6.5814295003071253e-04 2.7482150839326813e-01 0.0000000000000000e+00  5.8615093107181710e-04 4.2106517240140134e-01 0.0000000000000000e+00  1.5612226847857439e-03 3.1746015078242368e-01 0.0000000000000000e+00  -2.4138152643487997e-04 4.5269670330858314e-01 0.0000000000000000e+00  5.0224367295490738e-04 4.7457347144693002e-01 0.0000000000000000e+00  3.9847455164605388e-04 4.4824822945878351e-01 0.0000000000000000e+00  1.5965378284296466e-03 2.9663558113598626e-01 0.0000000000000000e+00  3.0121344306351098e-05 1.6693326660686036e-01 0.0000000000000000e+00  4.2429743233521782e-05 1.4454477258098189e-01 0.0000000000000000e+00  -3.1781188437702385e-04 4.2461361147489024e-01 0.0000000000000000e+00  3.3038161835527153e-03 3.8467589601591973e-01 0.0000000000000000e+00  1.0384296821019337e-04 4.2779501604182141e-01 0.0000000000000000e+00  -4.1593193703309421e-04 1.6149359811976355e-01 0.0000000000000000e+00  -2.4616824879521431e-04 1.2606421278175081e-01 0.0000000000000000e+00  -6.7401441194717355e-04 4.3475801375463485e-01 0.0000000000000000e+00  -1.9594906989469857e-03 2.3618029142239022e-01 0.0000000000000000e+00  1.2043700154008719e-04 4.9944620168541765e-01 0.0000000000000000e+00  2.6745168