<?xml version="1.0"?>
<VTKFile type="UnstructuredGrid"  version="0.1"  >
<UnstructuredGrid>
<Piece  NumberOfPoints="1661" NumberOfCells="3200">
<Points>
<DataArray  type="Float64"  NumberOfComponents="3"  format="ascii">-0.25 -1 0  -0.225 -1 0  -0.2 -1 0  -0.175 -1 0  -0.15 -1 0  -0.125 -1 0  -0.1 -1 0  -0.07500000000000001 -1 0  -0.04999999999999999 -1 0  -0.02499999999999999 -1 0  0 -1 0  0.02500000000000002 -1 0  0.04999999999999999 -1 0  0.07500000000000001 -1 0  0.09999999999999998 -1 0  0.125 -1 0  0.15 -1 0  0.175 -1 0  0.2 -1 0  0.225 -1 0  0.25 -1 0  -0.25 -0.975 0  -0.225 -0.975 0  -0.2 -0.975 0  -0.175 -0.975 0  -0.15 -0.975 0  -0.125 -0.975 0  -0.1 -0.975 0  -0.07500000000000001 -0.975 0  -0.04999999999999999 -0.975 0  -0.02499999999999999 -0.975 0  0 -0.975 0  0.02500000000000002 -0.975 0  0.04999999999999999 -0.975 0  0.07500000000000001 -0.975 0  0.09999999999999998 -0.975 0  0.125 -0.975 0  0.15 -0.975 0  0.175 -0.975 0  0.2 -0.975 0  0.225 -0.975 0  0.25 -0.975 0  -0.25 -0.95 0  -0.225 -0.95 0  -0.2 -0.95 0  -0.175 -0.95 0  -0.15 -0.95 0  -0.125 -0.95 0  -0.1 -0.95 0  -0.07500000000000001 -0.95 0  -0.04999999999999999 -0.95 0  -0.02499999999999999 -0.95 0  0 -0.95 0  0.02500000000000002 -0.95 0  0.04999999999999999 -0.95 0  0.07500000000000001 -0.95 0  0.09999999999999998 -0.95 0  0.125 -0.95 0  0.15 -0.95 0  0.175 -0.95 0  0.2 -0.95 0  0.225 -0.95 0  0.25 -0.95 0  -0.25 -0.925 0  -0.225 -0.925 0  -0.2 -0.925 0  -0.175 -0.925 0  -0.15 -0.925 0  -0.125 -0.925 0  -0.1 -0.925 0  -0.07500000000000001 -0.925 0  -0.04999999999999999 -0.925 0  -0.02499999999999999 -0.925 0  0 -0.925 0  0.02500000000000002 -0.925 0  0.04999999999999999 -0.925 0  0.07500000000000001 -0.925 0  0.09999999999999998 -0.925 0  0.125 -0.925 0  0.15 -0.925 0  0.175 -0.925 0  0.2 -0.925 0  0.225 -0.925 0  0.25 -0.925 0  -0.25 -0.9 0  -0.225 -0.9 0  -0.2 -0.9 0  -0.175 -0.9 0  -0.15 -0.9 0  -0.125 -0.9 0  -0.1 -0.9 0  -0.07500000000000001 -0.9 0  -0.04999999999999999 -0.9 0  -0.02499999999999999 -0.9 0  0 -0.9 0  0.02500000000000002 -0.9 0  0.04999999999999999 -0.9 0  0.07500000000000001 -0.9 0  0.09999999999999998 -0.9 0  0.125 -0.9 0  0.15 -0.9 0  0.175 -0.9 0  0.2 -0.9 0  0.225 -0.9 0  0.25 -0.9 0  -0.25 -0.875 0  -0.225 -0.875 0  -0.2 -0.875 0  -0.175 -0.875 0  -0.15 -0.875 0  -0.125 -0.875 0  -0.1 -0.875 0  -0.07500000000000001 -0.875 0  -0.04999999999999999 -0.875 0  -0.02499999999999999 -0.875 0  0 -0.875 0  0.02500000000000002 -0.875 0  0.04999999999999999 -0.875 0  0.07500000000000001 -0.875 0  0.09999999999999998 -0.875 0  0.125 -0.875 0  0.15 -0.875 0  0.175 -0.875 0  0.2 -0.875 0  0.225 -0.875 0  0.25 -0.875 0  -0.25 -0.85 0  -0.225 -0.85 0  -0.2 -0.85 0  -0.175 -0.85 0  -0.15 -0.85 0  -0.125 -0.85 0  -0.1 -0.85 0  -0.07500000000000001 -0.85 0  -0.04999999999999999 -0.85 0  -0.02499999999999999 -0.85 0  0 -0.85 0  0.02500000000000002 -0.85 0  0.04999999999999999 -0.85 0  0.07500000000000001 -0.85 0  0.09999999999999998 -0.85 0  0.125 -0.85 0  0.15 -0.85 0  0.175 -0.85 0  0.2 -0.85 0  0.225 -0.85 0  0.25 -0.85 0  -0.25 -0.825 0  -0.225 -0.825 0  -0.2 -0.825 0  -0.175 -0.825 0  -0.15 -0.825 0  -0.125 -0.825 0  -0.1 -0.825 0  -0.07500000000000001 -0.825 0  -0.04999999999999999 -0.825 0  -0.02499999999999999 -0.825 0  0 -0.825 0  0.02500000000000002 -0.825 0  0.04999999999999999 -0.825 0  0.07500000000000001 -0.825 0  0.09999999999999998 -0.825 0  0.125 -0.825 0  0.15 -0.825 0  0.175 -0.825 0  0.2 -0.825 0  0.225 -0.825 0  0.25 -0.825 0  -0.25 -0.8 0  -0.225 -0.8 0  -0.2 -0.8 0  -0.175 -0.8 0  -0.15 -0.8 0  -0.125 -0.8 0  -0.1 -0.8 0  -0.07500000000000001 -0.8 0  -0.04999999999999999 -0.8 0  -0.02499999999999999 -0.8 0  0 -0.8 0  0.02500000000000002 -0.8 0  0.04999999999999999 -0.8 0  0.07500000000000001 -0.8 0  0.09999999999999998 -0.8 0  0.125 -0.8 0  0.15 -0.8 0  0.175 -0.8 0  0.2 -0.8 0  0.225 -0.8 0  0.25 -0.8 0  -0.25 -0.775 0  -0.225 -0.775 0  -0.2 -0.775 0  -0.175 -0.775 0  -0.15 -0.775 0  -0.125 -0.775 0  -0.1 -0.775 0  -0.07500000000000001 -0.775 0  -0.04999999999999999 -0.775 0  -0.02499999999999999 -0.775 0  0 -0.775 0  0.02500000000000002 -0.775 0  0.04999999999999999 -0.775 0  0.07500000000000001 -0.775 0  0.09999999999999998 -0.775 0  0.125 -0.775 0  0.15 -0.775 0  0.175 -0.775 0  0.2 -0.775 0  0.225 -0.775 0  0.25 -0.775 0  -0.25 -0.75 0  -0.225 -0.75 0  -0.2 -0.75 0  -0.175 -0.75 0  -0.15 -0.75 0  -0.125 -0.75 0  -0.1 -0.75 0  -0.07500000000000001 -0.75 0  -0.04999999999999999 -0.75 0  -0.02499999999999999 -0.75 0  0 -0.75 0  0.02500000000000002 -0.75 0  0.04999999999999999 -0.75 0  0.07500000000000001 -0.75 0  0.09999999999999998 -0.75 0  0.125 -0.75 0  0.15 -0.75 0  0.175 -0.75 0  0.2 -0.75 0  0.225 -0.75 0  0.25 -0.75 0  -0.25 -0.725 0  -0.225 -0.725 0  -0.2 -0.725 0  -0.175 -0.725 0  -0.15 -0.725 0  -0.125 -0.725 0  -0.1 -0.725 0  -0.07500000000000001 -0.725 0  -0.04999999999999999 -0.725 0  -0.02499999999999999 -0.725 0  0 -0.725 0  0.02500000000000002 -0.725 0  0.04999999999999999 -0.725 0  0.07500000000000001 -0.725 0  0.09999999999999998 -0.725 0  0.125 -0.725 0  0.15 -0.725 0  0.175 -0.725 0  0.2 -0.725 0  0.225 -0.725 0  0.25 -0.725 0  -0.25 -0.7 0  -0.225 -0.7 0  -0.2 -0.7 0  -0.175 -0.7 0  -0.15 -0.7 0  -0.125 -0.7 0  -0.1 -0.7 0  -0.07500000000000001 -0.7 0  -0.04999999999999999 -0.7 0  -0.02499999999999999 -0.7 0  0 -0.7 0  0.02500000000000002 -0.7 0  0.04999999999999999 -0.7 0  0.07500000000000001 -0.7 0  0.09999999999999998 -0.7 0  0.125 -0.7 0  0.15 -0.7 0  0.175 -0.7 0  0.2 -0.7 0  0.225 -0.7 0  0.25 -0.7 0  -0.25 -0.675 0  -0.225 -0.675 0  -0.2 -0.675 0  -0.175 -0.675 0  -0.15 -0.675 0  -0.125 -0.675 0  -0.1 -0.675 0  -0.07500000000000001 -0.675 0  -0.04999999999999999 -0.675 0  -0.02499999999999999 -0.675 0  0 -0.675 0  0.02500000000000002 -0.675 0  0.04999999999999999 -0.675 0  0.07500000000000001 -0.675 0  0.09999999999999998 -0.675 0  0.125 -0.675 0  0.15 -0.675 0  0.175 -0.675 0  0.2 -0.675 0  0.225 -0.675 0  0.25 -0.675 0  -0.25 -0.65 0  -0.225 -0.65 0  -0.2 -0.65 0  -0.175 -0.65 0  -0.15 -0.65 0  -0.125 -0.65 0  -0.1 -0.65 0  -0.07500000000000001 -0.65 0  -0.04999999999999999 -0.65 0  -0.02499999999999999 -0.65 0  0 -0.65 0  0.02500000000000002 -0.65 0  0.04999999999999999 -0.65 0  0.07500000000000001 -0.65 0  0.09999999999999998 -0.65 0  0.125 -0.65 0  0.15 -0.65 0  0.175 -0.65 0  0.2 -0.65 0  0.225 -0.65 0  0.25 -0.65 0  -0.25 -0.625 0  -0.225 -0.625 0  -0.2 -0.625 0  -0.175 -0.625 0  -0.15 -0.625 0  -0.125 -0.625 0  -0.1 -0.625 0  -0.07500000000000001 -0.625 0  -0.04999999999999999 -0.625 0  -0.02499999999999999 -0.625 0  0 -0.625 0  0.02500000000000002 -0.625 0  0.04999999999999999 -0.625 0  0.07500000000000001 -0.625 0  0.09999999999999998 -0.625 0  0.125 -0.625 0  0.15 -0.625 0  0.175 -0.625 0  0.2 -0.625 0  0.225 -0.625 0  0.25 -0.625 0  -0.25 -0.6 0  -0.225 -0.6 0  -0.2 -0.6 0  -0.175 -0.6 0  -0.15 -0.6 0  -0.125 -0.6 0  -0.1 -0.6 0  -0.07500000000000001 -0.6 0  -0.04999999999999999 -0.6 0  -0.02499999999999999 -0.6 0  0 -0.6 0  0.02500000000000002 -0.6 0  0.04999999999999999 -0.6 0  0.07500000000000001 -0.6 0  0.09999999999999998 -0.6 0  0.125 -0.6 0  0.15 -0.6 0  0.175 -0.6 0  0.2 -0.6 0  0.225 -0.6 0  0.25 -0.6 0  -0.25 -0.575 0  -0.225 -0.575 0  -0.2 -0.575 0  -0.175 -0.575 0  -0.15 -0.575 0  -0.125 -0.575 0  -0.1 -0.575 0  -0.07500000000000001 -0.575 0  -0.04999999999999999 -0.575 0  -0.02499999999999999 -0.575 0  0 -0.575 0  0.02500000000000002 -0.575 0  0.04999999999999999 -0.575 0  0.07500000000000001 -0.575 0  0.09999999999999998 -0.575 0  0.125 -0.575 0  0.15 -0.575 0  0.175 -0.575 0  0.2 -0.575 0  0.225 -0.575 0  0.25 -0.575 0  -0.25 -0.55 0  -0.225 -0.55 0  -0.2 -0.55 0  -0.175 -0.55 0  -0.15 -0.55 0  -0.125 -0.55 0  -0.1 -0.55 0  -0.07500000000000001 -0.55 0  -0.04999999999999999 -0.55 0  -0.02499999999999999 -0.55 0  0 -0.55 0  0.02500000000000002 -0.55 0  0.04999999999999999 -0.55 0  0.07500000000000001 -0.55 0  0.09999999999999998 -0.55 0  0.125 -0.55 0  0.15 -0.55 0  0.175 -0.55 0  0.2 -0.55 0  0.225 -0.55 0  0.25 -0.55 0  -0.25 -0.525 0  -0.225 -0.525 0  -0.2 -0.525 0  -0.175 -0.525 0  -0.15 -0.525 0  -0.125 -0.525 0  -0.1 -0.525 0  -0.07500000000000001 -0.525 0  -0.04999999999999999 -0.525 0  -0.02499999999999999 -0.525 0  0 -0.525 0  0.02500000000000002 -0.525 0  0.04999999999999999 -0.525 0  0.07500000000000001 -0.525 0  0.09999999999999998 -0.525 0  0.125 -0.525 0  0.15 -0.525 0  0.175 -0.525 0  0.2 -0.525 0  0.225 -0.525 0  0.25 -0.525 0  -0.25 -0.5 0  -0.225 -0.5 0  -0.2 -0.5 0  -0.175 -0.5 0  -0.15 -0.5 0  -0.125 -0.5 0  -0.1 -0.5 0  -0.07500000000000001 -0.5 0  -0.04999999999999999 -0.5 0  -0.02499999999999999 -0.5 0  0 -0.5 0  0.02500000000000002 -0.5 0  0.04999999999999999 -0.5 0  0.07500000000000001 -0.5 0  0.09999999999999998 -0.5 0  0.125 -0.5 0  0.15 -0.5 0  0.175 -0.5 0  0.2 -0.5 0  0.225 -0.5 0  0.25 -0.5 0  -0.25 -0.475 0  -0.225 -0.475 0  -0.2 -0.475 0  -0.175 -0.475 0  -0.15 -0.475 0  -0.125 -0.475 0  -0.1 -0.475 0  -0.07500000000000001 -0.475 0  -0.04999999999999999 -0.475 0  -0.02499999999999999 -0.475 0  0 -0.475 0  0.02500000000000002 -0.475 0  0.04999999999999999 -0.475 0  0.07500000000000001 -0.475 0  0.09999999999999998 -0.475 0  0.125 -0.475 0  0.15 -0.475 0  0.175 -0.475 0  0.2 -0.475 0  0.225 -0.475 0  0.25 -0.475 0  -0.25 -0.45 0  -0.225 -0.45 0  -0.2 -0.45 0  -0.175 -0.45 0  -0.15 -0.45 0  -0.125 -0.45 0  -0.1 -0.45 0  -0.07500000000000001 -0.45 0  -0.04999999999999999 -0.45 0  -0.02499999999999999 -0.45 0  0 -0.45 0  0.02500000000000002 -0.45 0  0.04999999999999999 -0.45 0  0.07500000000000001 -0.45 0  0.09999999999999998 -0.45 0  0.125 -0.45 0  0.15 -0.45 0  0.175 -0.45 0  0.2 -0.45 0  0.225 -0.45 0  0.25 -0.45 0  -0.25 -0.425 0  -0.225 -0.425 0  -0.2 -0.425 0  -0.175 -0.425 0  -0.15 -0.425 0  -0.125 -0.425 0  -0.1 -0.425 0  -0.07500000000000001 -0.425 0  -0.04999999999999999 -0.425 0  -0.02499999999999999 -0.425 0  0 -0.425 0  0.02500000000000002 -0.425 0  0.04999999999999999 -0.425 0  0.07500000000000001 -0.425 0  0.
[...]
<PointData  Vectors="flow"> 
<DataArray  type="Float64"  Name="flow"  NumberOfComponents="3" format="ascii">-6.4468807209717227e-01 1.2891857219325276e+00 0.0000000000000000e+00  -4.3853626366139735e-04 1.2891857219381264e+00 0.0000000000000000e+00  -1.2004069977297519e-07 1.2891857219131129e+00 0.0000000000000000e+00  1.4593881512358578e-10 1.2891857219267271e+00 0.0000000000000000e+00  -1.4322873390843261e-11 1.2891857219408356e+00 0.0000000000000000e+00  -1.2662459354982255e-11 1.2891857219316012e+00 0.0000000000000000e+00  -9.3960796063689109e-12 1.2891857219803078e+00 0.0000000000000000e+00  -2.9531862044247755e-11 1.2891857219323324e+00 0.0000000000000000e+00  -2.3417021012140314e-11 1.2891857219182012e+00 0.0000000000000000e+00  -3.1513616920619836e-11 1.2891857219221687e+00 0.0000000000000000e+00  -9.5131419075918837e-12 1.2891857219412728e+00 0.0000000000000000e+00  -2.2773339971584293e-11 1.2891857219085106e+00 0.0000000000000000e+00  -2.5891373121267148e-11 1.2891857219415568e+00 0.0000000000000000e+00  -2.0422727783410628e-11 1.2891857219178349e+00 0.0000000000000000e+00  -1.1621871794077165e-11 1.2891857219583234e+00 0.0000000000000000e+00  -8.7815169103793033e-12 1.2891857219185487e+00 0.0000000000000000e+00  -9.3229934013495799e-12 1.2891857219468532e+00 0.0000000000000000e+00  -1.5988916359618047e-10 1.2891857219285399e+00 0.0000000000000000e+00  1.2003842643240446e-07 1.2891857219344165e+00 0.0000000000000000e+00  4.3853625964459505e-04 1.2891857219247556e+00 0.0000000000000000e+00  6.4468807211045109e-01 1.2891857219164067e+00 0.0000000000000000e+00  -6.5170848601107545e-01 3.8835421551078255e+00 0.0000000000000000e+00  -4.4045197313241126e-04 3.8835421551042035e+00 0.0000000000000000e+00  -1.1757010047678867e-07 3.8835421551076315e+00 0.0000000000000000e+00  1.5210734734389861e-10 3.8835421551085996e+00 0.0000000000000000e+00  -1.7014269442461715e-11 3.8835421551059572e+00 0.0000000000000000e+00  1.1122011676191826e-12 3.8835421551006859e+00 0.0000000000000000e+00  -2.1023785429773070e-11 3.8835421550933078e+00 0.0000000000000000e+00  -2.9379191008050914e-11 3.8835421551057658e+00 0.0000000000000000e+00  -1.5193253987053372e-11 3.8835421551037164e+00 0.0000000000000000e+00  -2.1546755214161995e-11 3.8835421551198905e+00 0.0000000000000000e+00  -2.6522804339194602e-11 3.8835421551076426e+00 0.0000000000000000e+00  -1.8054779919064702e-11 3.8835421551114111e+00 0.0000000000000000e+00  -2.2261258802596215e-11 3.8835421551064373e+00 0.0000000000000000e+00  -1.0223916544951549e-11 3.8835421550970528e+00 0.0000000000000000e+00  -2.0245909579704017e-11 3.8835421551059608e+00 0.0000000000000000e+00  -2.1265848162964457e-11 3.8835421551074170e+00 0.0000000000000000e+00  1.2575720160361804e-12 3.8835421551022757e+00 0.0000000000000000e+00  -1.6825587810715826e-10 3.8835421551005593e+00 0.0000000000000000e+00  1.1755334237405519e-07 3.8835421551010634e+00 0.0000000000000000e+00  4.4045196624466334e-04 3.8835421550978113e+00 0.0000000000000000e+00  6.5170848603579823e-01 3.8835421551071030e+00 0.0000000000000000e+00  -6.7283087127776353e-01 7.8514633623264913e+00 0.0000000000000000e+00  -4.4611936457861494e-04 7.8514633623214412e+00 0.0000000000000000e+00  -1.1002320067819342e-07 7.8514633623144299e+00 0.0000000000000000e+00  1.5815917291886587e-10 7.8514633623201178e+00 0.0000000000000000e+00  -1.4489470173505225e-11 7.8514633623183174e+00 0.0000000000000000e+00  -1.6732355475160318e-11 7.8514633623239147e+00 0.0000000000000000e+00  -1.1938639915101014e-11 7.8514633623223844e+00 0.0000000000000000e+00  -1.9503748129357615e-11 7.8514633623230541e+00 0.0000000000000000e+00  -1.7471081162373337e-11 7.8514633623244148e+00 0.0000000000000000e+00  -2.6199722454959966e-11 7.8514633623152861e+00 0.0000000000000000e+00  -2.1774398017431744e-11 7.8514633623210877e+00 0.0000000000000000e+00  -2.0364312904991111e-11 7.8514633623201284e+00 0.0000000000000000e+00  -3.6147271175830094e-11 7.8514633623192820e+00 0.0000000000000000e+00  -1.0401931787666696e-11 7.8514633623308763e+00 0.0000000000000000e+00  -4.3230033252248804e-12 7.8514633623138463e+00 0.0000000000000000e+00  -1.9409455300450509e-11 7.8514633623315300e+00 0.0000000000000000e+00  -8.2127449951042036e-12 7.8514633623240222e+00 0.0000000000000000e+00  -1.7072697601467403e-10 7.8514633623351981e+00 0.0000000000000000e+00  1.1001728310234325e-07 7.8514633623307466e+00 0.0000000000000000e+00  4.4611935901884897e-04 7.8514633623277570e+00 0.0000000000000000e+00  6.7283087129089736e-01 7.8514633623249797e+00 0.0000000000000000e+00  -7.0823610137260751e-01 1.1988870778934821e+01 0.0000000000000000e+00  -4.5529688979800774e-04 1.1988870778943829e+01 0.0000000000000000e+00  -9.7240655434989161e-08 1.1988870778951981e+01 0.0000000000000000e+00  1.7418963338828151e-10 1.1988870778954556e+01 0.0000000000000000e+00  -1.9218635293880831e-11 1.1988870778960306e+01 0.0000000000000000e+00  -7.0445210446312244e-12 1.1988870778946968e+01 0.0000000000000000e+00  -1.3867049808284777e-11 1.1988870778957184e+01 0.0000000000000000e+00  -2.6001556312906251e-11 1.1988870778945158e+01 0.0000000000000000e+00  -1.5980499221037646e-11 1.1988870778957004e+01 0.0000000000000000e+00  -2.3546264285715205e-11 1.1988870778954407e+01 0.0000000000000000e+00  -2.0821795257345415e-11 1.1988870778957043e+01 0.0000000000000000e+00  -2.4454172788719220e-11 1.1988870778949234e+01 0.0000000000000000e+00  -2.5035092078085283e-11 1.1988870778945262e+01 0.0000000000000000e+00  -1.0489421992403424e-11 1.1988870778951572e+01 0.0000000000000000e+00  -1.7916744301263960e-11 1.1988870778953187e+01 0.0000000000000000e+00  -1.4105003458081698e-11 1.1988870778952739e+01 0.0000000000000000e+00  3.7151577929165137e-13 1.1988870778953460e+01 0.0000000000000000e+00  -1.8233156070895541e-10 1.1988870778946751e+01 0.0000000000000000e+00  9.7222733677029114e-08 1.1988870778948373e+01 0.0000000000000000e+00  4.5529687737395832e-04 1.1988870778949781e+01 0.0000000000000000e+00  7.0823610138351423e-01 1.1988870778943600e+01 0.0000000000000000e+00  -7.5821703760112280e-01 1.6382296933437829e+01 0.0000000000000000e+00  -4.6757456728480285e-04 1.6382296933428517e+01 0.0000000000000000e+00  -7.8854720918034389e-08 1.6382296933435534e+01 0.0000000000000000e+00  1.8984255954072983e-10 1.6382296933427892e+01 0.0000000000000000e+00  -1.3836118849243716e-11 1.6382296933425117e+01 0.0000000000000000e+00  -2.2491273069528466e-11 1.6382296933437978e+01 0.0000000000000000e+00  -1.3623068118695638e-11 1.6382296933420687e+01 0.0000000000000000e+00  -1.8151338938986574e-11 1.6382296933431743e+01 0.0000000000000000e+00  -1.6360878278529977e-11 1.6382296933434578e+01 0.0000000000000000e+00  -2.1278085300268937e-11 1.6382296933428194e+01 0.0000000000000000e+00  -3.5558886269121514e-11 1.6382296933430357e+01 0.0000000000000000e+00  -2.2635715685485055e-11 1.6382296933428936e+01 0.0000000000000000e+00  -3.2261903959777213e-11 1.6382296933430087e+01 0.0000000000000000e+00  -3.7492341272001467e-12 1.6382296933421109e+01 0.0000000000000000e+00  -1.3713070618290174e-11 1.6382296933420637e+01 0.0000000000000000e+00  -1.0901044409312370e-11 1.6382296933415660e+01 0.0000000000000000e+00  -8.9958531363668422e-12 1.6382296933424609e+01 0.0000000000000000e+00  -1.9575801585374622e-10 1.6382296933416228e+01 0.0000000000000000e+00  7.8842281902369053e-08 1.6382296933416104e+01 0.0000000000000000e+00  4.6757456753402629e-04 1.6382296933421788e+01 0.0000000000000000e+00  7.5821703759546244e-01 1.6382296933417884e+01 0.0000000000000000e+00  -8.2316538823202134e-01 2.1120334455421592e+01 0.0000000000000000e+00  -4.8236336298129853e-04 2.1120334455424786e+01 0.0000000000000000e+00  -5.4442548052586930e-08 2.1120334455412976e+01 0.0000000000000000e+00  1.9253054541768907e-10 2.1120334455412873e+01 0.0000000000000000e+00  -1.2438724100660051e-11 2.1120334455417936e+01 0.0000000000000000e+00  -6.8907442032181896e-12 2.1120334455410045e+01 0.0000000000000000e+00  -2.4092298078135903e-11 2.1120334455425034e+01 0.0000000000000000e+00  -1.6525368285022210e-11 2.1120334455407772e+01 0.0000000000000000e+00  -1.6678179666089201e-11 2.1120334455411694e+01 0.0000000000000000e+00  -1.3818132025796223e-11 2.1120334455409782e+01 0.0000000000000000e+00  -3.1060488283846747e-11 2.1120334455421268e+01 0.0000000000000000e+00  -2.7094080706854584e-11 2.1120334455406365e+01 0.0000000000000000e+00  -3.2137376367961003e-11 2.1120334455424576e+01 0.0000000000000000e+00  -1.0536314205937625e-11 2.1120334455407100e+01 0.0000000000000000e+00  -1.6551613677401976e-11 2.1120334455420419e+01 0.0000000000000000e+00  -1.1764663498547100e-11 2.1120334455414195e+01 0.0000000000000000e+00  -6.6433232591598328e-12 2.1120334455416778e+01 0.0000000000000000e+00  -2.1504348700896694e-10 2.1120334455419563e+01 0.0000000000000000e+00  5.4442018218749360e-08 2.1120334455417307e+01 0.0000000000000000e+00  4.8236335107862616e-04 2.1120334455423205e+01 0.0000000000000000e+00  8.2316538823534535e-01 2.1120334455415140e+01 0.0000000000000000e+00  -9.0355283070302417e-01 2.6294174911212632e+01 0.0000000000000000e+00  -4.9888116174690749e-04 2.6294174911207737e+01 0.0000000000000000e+00  -2.3510426057783112e-08 2.6294174911210586e+01 0.0000000000000000e+00  2.2399323163764164e-10 2.6294174911202372e+01 0.0000000000000000e+00  -1.1098100481229336e-11 2.6294174911220637e+01 0.0000000000000000e+00  -1.6393914072810788e-11 2.6294174911213023e+01 0.0000000000000000e+00  -1.7239562734828191e-11 2.6294174911211929e+01 0.0000000000000000e+00  -2.2900200988470714e-11 2.6294174911220296e+01 0.0000000000000000e+00  -1.6563843658378486e-11 2.6294174911210703e+01 0.0000000000000000e+00  -2.2216493157553182e-11 2.6294174911216007e+01 0.0000000000000000e+00  -3.2094404614491777e-11 2.6294174911209033e+01 0.0000000000000000e+00  -1.6120700474696321e-11 2.6294174911221713e+01 0.0000000000000000e+00  -2.5478445506660364e-11 2.6294174911218175e+01 0.0000000000000000e+00  -2.3419183469185812e-11 2.6294174911214480e+01 0.0000000000000000e+00  -1.3632482002886551e-11 2.6294174911214164e+01 0.0000000000000000e+00  -8.9909653143778766e-12 2.6294174911214704e+01 0.0000000000000000e+00  -4.2042435559609344e-12 2.6294174911208970e+01 0.0000000000000000e+00  -2.3606557149510410e-10 2.6294174911212608e+01 0.0000000000000000e+00  2.3491657651734631e-08 2.6294174911212068e+01 0.0000000000000000e+00  4.9888115396349284e-04 2.6294174911204198e+01 0.0000000000000000e+00  9.0355283072529635e-01 2.6294174911215467e+01 0.0000000000000000e+00  -9.9990595257020209e-01 3.1998016025775851e+01 0.0000000000000000e+00  -5.1613671984435344e-04 3.1998016025773786e+01 0.0000000000000000e+00  1.4505060600684069e-08 3.1998016025781133e+01 0.0000000000000000e+00  2.3634401021618547e-10 3.1998016025791816e+01 0.0000000000000000e+00  -1.0466513008397913e-11 3.1998016025764930e+01 0.0000000000000000e+00  -8.4107420615105609e-12 3.1998016025783237e+01 0.0000000000000000e+00  -2.3812523871939199e-11 3.1998016025765580e+01 0.0000000000000000e+00  -2.2518418667065641e-11 3.1998016025785162e+01 0.0000000000000000e+00  -1.2393549249515113e-11 3.1998016025774085e+01 0.0000000000000000e+00  -2.3553391997184089e-11 3.1998016025785315e+01 0.0000000000000000e+00  -3.0802306537737934e-11 3.1998016025760172e+01 0.0000000000000000e+00  -2.3300216771962295e-11 3.1998016025767587e+01 0.0000000000000000e+00  -3.0843660442361890e-11 3.1998016025759696e+01 0.0000000000000000e+00  -6.9709382564627968e-12 3.1998016025779730e+01 0.0000000000000000e+00  -1.3029166057879302e-11 3.1998016025769328e+01 0.0000000000000000e+00  -2.1012186685619222e-11 3.1998016025770021e+01 0.0000000000000000e+00  -8.6830124990777065e-12 3.1998016025770603e+01 0.0000000000000000e+00  -2.4332750050201638e-10 3.1998016025760588e+01 0.0000000000000000e+00  -1.4516259127694813e-08 3.1998016025775250e+01 0.0000000000000000e+00  5.1613670166047207e-04 3.1998016025764279e+01 0.0000000000000000e+00  9.9990595260219473e-01 3.1998016025765672e+01 0.0000000000000000e+00  -1.1127744973784854e+00 3.8329298684279237e+01 0.0000000000000000e+00  -5.3291263215789479e-04 3.8329298684297861e+01 0.0000000000000000e+00  6.0099952481014248e-08 3.8329298684290151e+01 0.0000000000000000e+00  2.3845379298383513e-10 3.8329298684297342e+01 0.0000000000000000e+00  -1.9953215181796185e-11 3.8329298684293327e+01 0.0000000000000000e+00  -1.0512273175248357e-11 3.8329298684292631e+01 0.0000000000000000e+00  -1.4907139746005960e-11 3.8329298684298195e+01 0.0000000000000000e+00  -1.9787615035091464e-11 3.8329298684290436e+01 0.0000000000000000e+00  -1.6273655146545142e-11 3.8329298684290869e+01 0.0000000000000000e+00  -2.4736166982047855e-11 3.8329298684286293e+01 0.0000000000000000e+00  -3.1494127889096474e-11 3.8329298684297626e+01 0.0000000000000000e+00  -2.2392795077280406e-11 3.8329298684296766e+01 0.0000000000000000e+00  -2.6961671133063600e-11 3.8329298684293128e+01 0.0000000000000000e+00  -1.6120667126991917e-11 3.8329298684293008e+01 0.0000000000000000e+00  -2.1353828322870797e-11 3.8329298684287643e+01 0.0000000000000000e+00  -6.9188429001973461e-12 3.8329298684297768e+01 0.0000000000000000e+00  -1.5602288669950053e-12 3.8329298684289981e+01 0.0000000000000000e+00  -2.6346266757174104e-10 3.8329298684306430e+01 0.0000000000000000e+00  -6.0106909444756696e-08 3.8329298684285355e+01 0.0000000000000000e+00  5.3291262335412317e-04 3.8329298684296283e+01 0.0000000000000000e+00  1.1127744974102873e+00 3.8329298684285682e+01 0.0000000000000000e+00  -1.2426923760480981e+00 4.5388731924188775e+01 0.0000000000000000e+00  -5.4774944134872432e-04 4.5388731924187830e+01 0.0000000000000000e+00  1.1364051886290528e-07 4.5388731924183645e+01 0.0000000000000000e+00  2.6075397993691197e-10 4.5388731924172760e+01 0.0000000000000000e+00  -1.6232917455570542e-11 4.5388731924198602e+01 0.0000000000000000e+00  -8.6628747630242327e-12 4.5388731924173328e+01 0.0000000000000000e+00  -1.9539860255052506e-11 4.5388731924188534e+01 0.0000000000000000e+00  -1.6128873931592224e-11 4.5388731924182387e+01 0.0000000000000000e+00  -1.5127524635969848e-11 4.5388731924198851e+01 0.0000000000000000e+00  -2.8567344043326612e-11 4.5388731924192797e+01 0.0000000000000000e+00  -3.0409015541213975e-11 4.5388731924197771e+01 0.0000000000000000e+00  -2.5219765664477745e-11 4.5388731924190651e+01 0.0000000000000000e+00  -3.2297831754856085e-11 4.5388731924196620e+01 0.0000000000000000e+00  -1.2024183584672809e-11 4.5388731924176057e+01 0.0000000000000000e+00  -1.4240778707413662e-11 4.5388731924186075e+01 0.0000000000000000e+00  -2.2294244651042048e-11 4.5388731924181059e+01 0.0000000000000000e+00  -2.2369960619940421e-12 4.5388731924175509e+01 0.0000000000000000e+00  -2.6607601271030756e-10 4.5388731924183112e+01 0.0000000000000000e+00  -1.1365690665865406e-07 4.5388731924182800e+01 0.0000000000000000e+00  5.4774942882916016e-04 4.5388731924185784e+01 0.0000000000000000e+00  1.2426923760935367e+00 4.5388731924181613e+01 0.0000000000000000e+00  -1.3901309383658189e+00 5.3280060967262187e+01 0.0000000000000000e+00  -5.5893297426149737e-04 5.3280060967250336e+01 0.0000000000000000e+00  1.7537914150431077e-07 5.3280060967258763e+01 0.0000000000000000e+00  2.4774715745516919e-10 5.3280060967252545e+01 0.0000000000000000e+00  -1.7421907619553234e-11 5.3280060967251359e+01 0.0000000000000000e+00  -1.1890948365888928e-11 5.3280060967255324e+01 0.0000000000000000e+00  -1.1950605475569143e-11 5.3280060967259608e+01 0.0000000000000000e+00  -1.8873398389873702e-11 5.3280060967257675e+01 0.0000000000000000e+00  -2.6054338918178962e-11 5.3280060967246591e+01 0.0000000000000000e+00  -1.8545267859579301e-11 5.3280060967247422e+01 0.0000000000000000e+00  -2.6372448096157206e-11 5.3280060967247749e+01 0.0000000000000000e+00  -2.4602674576628862e-11 5.3280060967253632e+01 0.0000000000000000e+00  -3.7041282679242358e-11 5.3280060967245475e+01 0.0000000000000000e+00  -1.9060880006252119e-11 5.3280060967255523e+01 0.0000000000000000e+00  -1.2922346356569029e-11 5.3280060967249895e+01 0.0000000000000000e+00  -1.8361504425676896e-11 5.3280060967243124e+01 0.0000000000000000e+00  -8.8978885344968652e-12 5.3280060967256688e+01 0.0000000000000000e+00  -2.5767072151517708e-10 5.3280060967234071e+01 0.0000000000000000e+00  -1.7538525599629175e-07 5.3280060967256695e+01 0.0000000000000000e+00  5.5893296612665713e-04 5.3280060967254244e+01 0.0000000000000000e+00  1.3901309384024734e+00 5.3280060967268433e+01 0.0000000000000000e+00  -1.5554441067855274e+00 6.2109530600527641e+01 0.0000000000000000e+00  -5.6448800782538675e-04 6.2109530600528437e+01 0.0000000000000000e+00  2.4518950324900914e-07 6.2109530600520692e+01 0.0000000000000000e+00  2.3920438830204535e-10 6.2109530600522184e+01 0.0000000000000000e+00  -1.2974699331212145e-11 6.2109530600523101e+01 0.0000000000000000e+00  -1.0015694921470916e-11 6.2109530600533056e+01 0.0000000000000000e+00  -1.8650710931105476e-11 6.2109530600518518e+01 0.0000000000000000e+00  -2.2432106434274343e-11 6.2109530600517786e+01 0.0000000000000000e+00  -1.8727435366195690e-11 6.2109530600519278e+01 0.0000000000000000e+00  -2.1472966769036502e-11 6.2109530600522625e+01 0.0000000000000000e+00  -2.3776627715969584e-11 6.2109530600522682e+01 0.0000000000000000e+00  -2.7356303762905850e-11 6.2109530600518760e+01 0.0000000000000000e+00  -3.0722351292960307e-11 6.2109530600527904e+01 0.0000000000000000e+00  -2.0618107977058093e-11 6.2109530600527350e+01 0.0000000000000000e+00  -2.5614089049293788e-11 6.2109530600518603e+01 0.0000000000000000e+00  -6.0258363243591309e-12 6.2109530600526085e+01 0.0000000000000000e+00  -9.7495599516270302e-12 6.2109530600521587e+01 0.0000000000000000e+00  -2.4951244096854036e-10 6.2109530600529347e+01 0.0000000000000000e+00  -2.4519124130019704e-07 6.2109530600519115e+01 0.0000000000000000e+00  5.6448798672049190e-04 6.2109530600521133e+01 0.0000000000000000e+00  1.5554441068056315e+00 6.2109530600517630e+01 0.0000000000000000e+00  -1.7388051753122284e+00 7.1984994387829289e+01 0.0000000000000000e+00  -5.6218135886848021e-04 7.1984994387826575e+01 0.0000000000000000e+00  3.2258990450230838e-07 7.1984994387825907e+01 0.0000000000000000e+00  2.0095486484619429e-10 7.1984994387838569e+01 0.0000000000000000e+00  -1.0241570677083512e-11 7.1984994387819029e+01 0.0000000000000000e+00  -1.5383845726820759e-11 7.1984994387828493e+01 0.0000000000000000e+00  -1.7068861051286103e-11 7.1984994387827911e+01 0.0000000000000000e+00  -2.2980441561744229e-11 7.1984994387830895e+01 0.0000000000000000e+00  -2.1488216751514895e-11 7.1984994387821217e+01 0.0000000000000000e+00  -2.4134766363658078e-11 7.1984994387817679e+01 0.0000000000000000e+00  -3.4750884619439865e-11 7.1984994387822354e+01 0.0000000000000000e+00  -2.1372717847743154e-11 7.1984994387816869e+01 0.0000000000000000e+00  -2.4997608686083213e-11 7.1984994387816201e+01 0.0000000000000000e+00  -3.0707123215183718e-11 7.1984994387814922e+01 0.0000000000000000e+00  -4.6852574535951034e-12 7.1984994387824557e+01 0.0000000000000000e+00  -1.4193953461198908e-11 7.1984994387829502e+01 0.0000000000000000e+00  -1.0171644141249687e-11 7.1984994387828735e+01 0.0000000000000000e+00  -2.1059782068752707e-10 7.1984994387837403e+01 0.0000000000000000e+00  -3.2259905062598079e-07 7.1984994387827939e+01 0.0000000000000000e+00  5.6218135179045075e-04 7.1984994387836579e+01 0.0000000000000000e+00  1.7388051753224976e+00 7.1984994387838015e+01 0.0000000000000000e+00  -1.9401353810673680e+00 8.3014619878761494e+01 0.0000000000000000e+00  -5.4953854194649638e-04 8.3014619878770020e+01 0.0000000000000000e+00  4.0649948032605036e-07 8.3014619878774454e+01 0.0000000000000000e+00  1.4451056635987041e-10 8.3014619878773274e+01 0.0000000000000000e+00  -1.5344152559128788e-11 8.3014619878781218e+01 0.0000000000000000e+00  -1.1093610441566526e-11 8.3014619878767292e+01 0.0000000000000000e+00  -1.1816251336861068e-11 8.3014619878776188e+01 0.0000000000000000e+00  -3.6288767619528349e-11 8.3014619878763966e+01 0.0000000000000000e+00