<?xml version="1.0"?>
<VTKFile type="UnstructuredGrid"  version="0.1"  >
<UnstructuredGrid>
<Piece  NumberOfPoints="1661" NumberOfCells="3200">
<Points>
<DataArray  type="Float64"  NumberOfComponents="3"  format="ascii">-0.25 -1 0  -0.225 -1 0  -0.2 -1 0  -0.175 -1 0  -0.15 -1 0  -0.125 -1 0  -0.1 -1 0  -0.07500000000000001 -1 0  -0.04999999999999999 -1 0  -0.02499999999999999 -1 0  0 -1 0  0.02500000000000002 -1 0  0.04999999999999999 -1 0  0.07500000000000001 -1 0  0.09999999999999998 -1 0  0.125 -1 0  0.15 -1 0  0.175 -1 0  0.2 -1 0  0.225 -1 0  0.25 -1 0  -0.25 -0.975 0  -0.225 -0.975 0  -0.2 -0.975 0  -0.175 -0.975 0  -0.15 -0.975 0  -0.125 -0.975 0  -0.1 -0.975 0  -0.07500000000000001 -0.975 0  -0.04999999999999999 -0.975 0  -0.02499999999999999 -0.975 0  0 -0.975 0  0.02500000000000002 -0.975 0  0.04999999999999999 -0.975 0  0.07500000000000001 -0.975 0  0.09999999999999998 -0.975 0  0.125 -0.975 0  0.15 -0.975 0  0.175 -0.975 0  0.2 -0.975 0  0.225 -0.975 0  0.25 -0.975 0  -0.25 -0.95 0  -0.225 -0.95 0  -0.2 -0.95 0  -0.175 -0.95 0  -0.15 -0.95 0  -0.125 -0.95 0  -0.1 -0.95 0  -0.07500000000000001 -0.95 0  -0.04999999999999999 -0.95 0  -0.02499999999999999 -0.95 0  0 -0.95 0  0.02500000000000002 -0.95 0  0.04999999999999999 -0.95 0  0.07500000000000001 -0.95 0  0.09999999999999998 -0.95 0  0.125 -0.95 0  0.15 -0.95 0  0.175 -0.95 0  0.2 -0.95 0  0.225 -0.95 0  0.25 -0.95 0  -0.25 -0.925 0  -0.225 -0.925 0  -0.2 -0.925 0  -0.175 -0.925 0  -0.15 -0.925 0  -0.125 -0.925 0  -0.1 -0.925 0  -0.07500000000000001 -0.925 0  -0.04999999999999999 -0.925 0  -0.02499999999999999 -0.925 0  0 -0.925 0  0.02500000000000002 -0.925 0  0.04999999999999999 -0.925 0  0.07500000000000001 -0.925 0  0.09999999999999998 -0.925 0  0.125 -0.925 0  0.15 -0.925 0  0.175 -0.925 0  0.2 -0.925 0  0.225 -0.925 0  0.25 -0.925 0  -0.25 -0.9 0  -0.225 -0.9 0  -0.2 -0.9 0  -0.175 -0.9 0  -0.15 -0.9 0  -0.125 -0.9 0  -0.1 -0.9 0  -0.07500000000000001 -0.9 0  -0.04999999999999999 -0.9 0  -0.02499999999999999 -0.9 0  0 -0.9 0  0.02500000000000002 -0.9 0  0.04999999999999999 -0.9 0  0.07500000000000001 -0.9 0  0.09999999999999998 -0.9 0  0.125 -0.9 0  0.15 -0.9 0  0.175 -0.9 0  0.2 -0.9 0  0.225 -0.9 0  0.25 -0.9 0  -0.25 -0.875 0  -0.225 -0.875 0  -0.2 -0.875 0  -0.175 -0.875 0  -0.15 -0.875 0  -0.125 -0.875 0  -0.1 -0.875 0  -0.07500000000000001 -0.875 0  -0.04999999999999999 -0.875 0  -0.02499999999999999 -0.875 0  0 -0.875 0  0.02500000000000002 -0.875 0  0.04999999999999999 -0.875 0  0.07500000000000001 -0.875 0  0.09999999999999998 -0.875 0  0.125 -0.875 0  0.15 -0.875 0  0.175 -0.875 0  0.2 -0.875 0  0.225 -0.875 0  0.25 -0.875 0  -0.25 -0.85 0  -0.225 -0.85 0  -0.2 -0.85 0  -0.175 -0.85 0  -0.15 -0.85 0  -0.125 -0.85 0  -0.1 -0.85 0  -0.07500000000000001 -0.85 0  -0.04999999999999999 -0.85 0  -0.02499999999999999 -0.85 0  0 -0.85 0  0.02500000000000002 -0.85 0  0.04999999999999999 -0.85 0  0.07500000000000001 -0.85 0  0.09999999999999998 -0.85 0  0.125 -0.85 0  0.15 -0.85 0  0.175 -0.85 0  0.2 -0.85 0  0.225 -0.85 0  0.25 -0.85 0  -0.25 -0.825 0  -0.225 -0.825 0  -0.2 -0.825 0  -0.175 -0.825 0  -0.15 -0.825 0  -0.125 -0.825 0  -0.1 -0.825 0  -0.07500000000000001 -0.825 0  -0.04999999999999999 -0.825 0  -0.02499999999999999 -0.825 0  0 -0.825 0  0.02500000000000002 -0.825 0  0.04999999999999999 -0.825 0  0.07500000000000001 -0.825 0  0.09999999999999998 -0.825 0  0.125 -0.825 0  0.15 -0.825 0  0.175 -0.825 0  0.2 -0.825 0  0.225 -0.825 0  0.25 -0.825 0  -0.25 -0.8 0  -0.225 -0.8 0  -0.2 -0.8 0  -0.175 -0.8 0  -0.15 -0.8 0  -0.125 -0.8 0  -0.1 -0.8 0  -0.07500000000000001 -0.8 0  -0.04999999999999999 -0.8 0  -0.02499999999999999 -0.8 0  0 -0.8 0  0.02500000000000002 -0.8 0  0.04999999999999999 -0.8 0  0.07500000000000001 -0.8 0  0.09999999999999998 -0.8 0  0.125 -0.8 0  0.15 -0.8 0  0.175 -0.8 0  0.2 -0.8 0  0.225 -0.8 0  0.25 -0.8 0  -0.25 -0.775 0  -0.225 -0.775 0  -0.2 -0.775 0  -0.175 -0.775 0  -0.15 -0.775 0  -0.125 -0.775 0  -0.1 -0.775 0  -0.07500000000000001 -0.775 0  -0.04999999999999999 -0.775 0  -0.02499999999999999 -0.775 0  0 -0.775 0  0.02500000000000002 -0.775 0  0.04999999999999999 -0.775 0  0.07500000000000001 -0.775 0  0.09999999999999998 -0.775 0  0.125 -0.775 0  0.15 -0.775 0  0.175 -0.775 0  0.2 -0.775 0  0.225 -0.775 0  0.25 -0.775 0  -0.25 -0.75 0  -0.225 -0.75 0  -0.2 -0.75 0  -0.175 -0.75 0  -0.15 -0.75 0  -0.125 -0.75 0  -0.1 -0.75 0  -0.07500000000000001 -0.75 0  -0.04999999999999999 -0.75 0  -0.02499999999999999 -0.75 0  0 -0.75 0  0.02500000000000002 -0.75 0  0.04999999999999999 -0.75 0  0.07500000000000001 -0.75 0  0.09999999999999998 -0.75 0  0.125 -0.75 0  0.15 -0.75 0  0.175 -0.75 0  0.2 -0.75 0  0.225 -0.75 0  0.25 -0.75 0  -0.25 -0.725 0  -0.225 -0.725 0  -0.2 -0.725 0  -0.175 -0.725 0  -0.15 -0.725 0  -0.125 -0.725 0  -0.1 -0.725 0  -0.07500000000000001 -0.725 0  -0.04999999999999999 -0.725 0  -0.02499999999999999 -0.725 0  0 -0.725 0  0.02500000000000002 -0.725 0  0.04999999999999999 -0.725 0  0.07500000000000001 -0.725 0  0.09999999999999998 -0.725 0  0.125 -0.725 0  0.15 -0.725 0  0.175 -0.725 0  0.2 -0.725 0  0.225 -0.725 0  0.25 -0.725 0  -0.25 -0.7 0  -0.225 -0.7 0  -0.2 -0.7 0  -0.175 -0.7 0  -0.15 -0.7 0  -0.125 -0.7 0  -0.1 -0.7 0  -0.07500000000000001 -0.7 0  -0.04999999999999999 -0.7 0  -0.02499999999999999 -0.7 0  0 -0.7 0  0.02500000000000002 -0.7 0  0.04999999999999999 -0.7 0  0.07500000000000001 -0.7 0  0.09999999999999998 -0.7 0  0.125 -0.7 0  0.15 -0.7 0  0.175 -0.7 0  0.2 -0.7 0  0.225 -0.7 0  0.25 -0.7 0  -0.25 -0.675 0  -0.225 -0.675 0  -0.2 -0.675 0  -0.175 -0.675 0  -0.15 -0.675 0  -0.125 -0.675 0  -0.1 -0.675 0  -0.07500000000000001 -0.675 0  -0.04999999999999999 -0.675 0  -0.02499999999999999 -0.675 0  0 -0.675 0  0.02500000000000002 -0.675 0  0.04999999999999999 -0.675 0  0.07500000000000001 -0.675 0  0.09999999999999998 -0.675 0  0.125 -0.675 0  0.15 -0.675 0  0.175 -0.675 0  0.2 -0.675 0  0.225 -0.675 0  0.25 -0.675 0  -0.25 -0.65 0  -0.225 -0.65 0  -0.2 -0.65 0  -0.175 -0.65 0  -0.15 -0.65 0  -0.125 -0.65 0  -0.1 -0.65 0  -0.07500000000000001 -0.65 0  -0.04999999999999999 -0.65 0  -0.02499999999999999 -0.65 0  0 -0.65 0  0.02500000000000002 -0.65 0  0.04999999999999999 -0.65 0  0.07500000000000001 -0.65 0  0.09999999999999998 -0.65 0  0.125 -0.65 0  0.15 -0.65 0  0.175 -0.65 0  0.2 -0.65 0  0.225 -0.65 0  0.25 -0.65 0  -0.25 -0.625 0  -0.225 -0.625 0  -0.2 -0.625 0  -0.175 -0.625 0  -0.15 -0.625 0  -0.125 -0.625 0  -0.1 -0.625 0  -0.07500000000000001 -0.625 0  -0.04999999999999999 -0.625 0  -0.02499999999999999 -0.625 0  0 -0.625 0  0.02500000000000002 -0.625 0  0.04999999999999999 -0.625 0  0.07500000000000001 -0.625 0  0.09999999999999998 -0.625 0  0.125 -0.625 0  0.15 -0.625 0  0.175 -0.625 0  0.2 -0.625 0  0.225 -0.625 0  0.25 -0.625 0  -0.25 -0.6 0  -0.225 -0.6 0  -0.2 -0.6 0  -0.175 -0.6 0  -0.15 -0.6 0  -0.125 -0.6 0  -0.1 -0.6 0  -0.07500000000000001 -0.6 0  -0.04999999999999999 -0.6 0  -0.02499999999999999 -0.6 0  0 -0.6 0  0.02500000000000002 -0.6 0  0.04999999999999999 -0.6 0  0.07500000000000001 -0.6 0  0.09999999999999998 -0.6 0  0.125 -0.6 0  0.15 -0.6 0  0.175 -0.6 0  0.2 -0.6 0  0.225 -0.6 0  0.25 -0.6 0  -0.25 -0.575 0  -0.225 -0.575 0  -0.2 -0.575 0  -0.175 -0.575 0  -0.15 -0.575 0  -0.125 -0.575 0  -0.1 -0.575 0  -0.07500000000000001 -0.575 0  -0.04999999999999999 -0.575 0  -0.02499999999999999 -0.575 0  0 -0.575 0  0.02500000000000002 -0.575 0  0.04999999999999999 -0.575 0  0.07500000000000001 -0.575 0  0.09999999999999998 -0.575 0  0.125 -0.575 0  0.15 -0.575 0  0.175 -0.575 0  0.2 -0.575 0  0.225 -0.575 0  0.25 -0.575 0  -0.25 -0.55 0  -0.225 -0.55 0  -0.2 -0.55 0  -0.175 -0.55 0  -0.15 -0.55 0  -0.125 -0.55 0  -0.1 -0.55 0  -0.07500000000000001 -0.55 0  -0.04999999999999999 -0.55 0  -0.02499999999999999 -0.55 0  0 -0.55 0  0.02500000000000002 -0.55 0  0.04999999999999999 -0.55 0  0.07500000000000001 -0.55 0  0.09999999999999998 -0.55 0  0.125 -0.55 0  0.15 -0.55 0  0.175 -0.55 0  0.2 -0.55 0  0.225 -0.55 0  0.25 -0.55 0  -0.25 -0.525 0  -0.225 -0.525 0  -0.2 -0.525 0  -0.175 -0.525 0  -0.15 -0.525 0  -0.125 -0.525 0  -0.1 -0.525 0  -0.07500000000000001 -0.525 0  -0.04999999999999999 -0.525 0  -0.02499999999999999 -0.525 0  0 -0.525 0  0.02500000000000002 -0.525 0  0.04999999999999999 -0.525 0  0.07500000000000001 -0.525 0  0.09999999999999998 -0.525 0  0.125 -0.525 0  0.15 -0.525 0  0.175 -0.525 0  0.2 -0.525 0  0.225 -0.525 0  0.25 -0.525 0  -0.25 -0.5 0  -0.225 -0.5 0  -0.2 -0.5 0  -0.175 -0.5 0  -0.15 -0.5 0  -0.125 -0.5 0  -0.1 -0.5 0  -0.07500000000000001 -0.5 0  -0.04999999999999999 -0.5 0  -0.02499999999999999 -0.5 0  0 -0.5 0  0.02500000000000002 -0.5 0  0.04999999999999999 -0.5 0  0.07500000000000001 -0.5 0  0.09999999999999998 -0.5 0  0.125 -0.5 0  0.15 -0.5 0  0.175 -0.5 0  0.2 -0.5 0  0.225 -0.5 0  0.25 -0.5 0  -0.25 -0.475 0  -0.225 -0.475 0  -0.2 -0.475 0  -0.175 -0.475 0  -0.15 -0.475 0  -0.125 -0.475 0  -0.1 -0.475 0  -0.07500000000000001 -0.475 0  -0.04999999999999999 -0.475 0  -0.02499999999999999 -0.475 0  0 -0.475 0  0.02500000000000002 -0.475 0  0.04999999999999999 -0.475 0  0.07500000000000001 -0.475 0  0.09999999999999998 -0.475 0  0.125 -0.475 0  0.15 -0.475 0  0.175 -0.475 0  0.2 -0.475 0  0.225 -0.475 0  0.25 -0.475 0  -0.25 -0.45 0  -0.225 -0.45 0  -0.2 -0.45 0  -0.175 -0.45 0  -0.15 -0.45 0  -0.125 -0.45 0  -0.1 -0.45 0  -0.07500000000000001 -0.45 0  -0.04999999999999999 -0.45 0  -0.02499999999999999 -0.45 0  0 -0.45 0  0.02500000000000002 -0.45 0  0.04999999999999999 -0.45 0  0.07500000000000001 -0.45 0  0.09999999999999998 -0.45 0  0.125 -0.45 0  0.15 -0.45 0  0.175 -0.45 0  0.2 -0.45 0  0.225 -0.45 0  0.25 -0.45 0  -0.25 -0.425 0  -0.225 -0.425 0  -0.2 -0.425 0  -0.175 -0.425 0  -0.15 -0.425 0  -0.125 -0.425 0  -0.1 -0.425 0  -0.07500000000000001 -0.425 0  -0.04999999999999999 -0.425 0  -0.02499999999999999 -0.425 0  0 -0.425 0  0.02500000000000002 -0.425 0  0.04999999999999999 -0.425 0  0.07500000000000001 -0.425 0  0.
[...]
<PointData  Vectors="flow"> 
<DataArray  type="Float64"  Name="flow"  NumberOfComponents="3" format="ascii">-4.9042868632444481e-01 9.8086777097064548e-01 0.0000000000000000e+00  2.3633461575562557e-05 9.8086777096761768e-01 0.0000000000000000e+00  -1.1401979643723616e-09 9.8086777096925959e-01 0.0000000000000000e+00  -3.2494479083613497e-12 9.8086777096875954e-01 0.0000000000000000e+00  -9.2228053223081637e-13 9.8086777097111566e-01 0.0000000000000000e+00  -2.8218441946230861e-12 9.8086777097010536e-01 0.0000000000000000e+00  -2.9764251820696414e-12 9.8086777096810740e-01 0.0000000000000000e+00  -5.1978267639960701e-12 9.8086777096810884e-01 0.0000000000000000e+00  -4.5722038924901945e-12 9.8086777096615962e-01 0.0000000000000000e+00  -5.4224905478001258e-12 9.8086777096965894e-01 0.0000000000000000e+00  -4.3779302165467451e-12 9.8086777096998234e-01 0.0000000000000000e+00  -5.7274474443242468e-12 9.8086777097035194e-01 0.0000000000000000e+00  -1.1522359388843696e-12 9.8086777096979350e-01 0.0000000000000000e+00  -6.5343709201100187e-12 9.8086777096901079e-01 0.0000000000000000e+00  -4.8235513880450559e-12 9.8086777096650402e-01 0.0000000000000000e+00  -2.2846923948129053e-13 9.8086777096648226e-01 0.0000000000000000e+00  -1.5681560780872749e-12 9.8086777096854061e-01 0.0000000000000000e+00  -1.5465758786371104e-12 9.8086777096931843e-01 0.0000000000000000e+00  1.1395743423813712e-09 9.8086777096952926e-01 0.0000000000000000e+00  -2.3633463424686875e-05 9.8086777096898503e-01 0.0000000000000000e+00  4.9042868632782688e-01 9.8086777096760591e-01 0.0000000000000000e+00  -4.9005058735983037e-01 2.9417421793411336e+00 0.0000000000000000e+00  2.3615243355825881e-05 2.9417421793422798e+00 0.0000000000000000e+00  -1.1392974970354641e-09 2.9417421793414946e+00 0.0000000000000000e+00  -2.9567863472088607e-12 2.9417421793414893e+00 0.0000000000000000e+00  -1.3250149747733726e-12 2.9417421793409391e+00 0.0000000000000000e+00  -3.6085786306245797e-12 2.9417421793411807e+00 0.0000000000000000e+00  -2.4164450428595752e-12 2.9417421793401406e+00 0.0000000000000000e+00  -5.7087046482649975e-12 2.9417421793406584e+00 0.0000000000000000e+00  -3.9311409693876255e-12 2.9417421793421510e+00 0.0000000000000000e+00  -4.7902760423380778e-12 2.9417421793409249e+00 0.0000000000000000e+00  -5.1252679743554854e-12 2.9417421793408112e+00 0.0000000000000000e+00  -4.2329377663908721e-12 2.9417421793418344e+00 0.0000000000000000e+00  -3.6652904065941318e-12 2.9417421793405620e+00 0.0000000000000000e+00  -4.7023709969616364e-12 2.9417421793404777e+00 0.0000000000000000e+00  -4.4137465104276967e-12 2.9417421793426395e+00 0.0000000000000000e+00  -1.4015692483620059e-12 2.9417421793429575e+00 0.0000000000000000e+00  -1.2822302307726879e-12 2.9417421793406779e+00 0.0000000000000000e+00  -1.4515552315251294e-12 2.9417421793419276e+00 0.0000000000000000e+00  1.1381724610210343e-09 2.9417421793397653e+00 0.0000000000000000e+00  -2.3615244853147032e-05 2.9417421793424126e+00 0.0000000000000000e+00  4.9005058735994428e-01 2.9417421793410798e+00 0.0000000000000000e+00  -4.8891687340424134e-01 5.8789484506653409e+00 0.0000000000000000e+00  2.3560613998068329e-05 5.8789484506656473e+00 0.0000000000000000e+00  -1.1374729155115476e-09 5.8789484506639837e+00 0.0000000000000000e+00  -1.9939381181587252e-12 5.8789484506658614e+00 0.0000000000000000e+00  -2.1663012014155355e-12 5.8789484506651535e+00 0.0000000000000000e+00  -3.1369945268237593e-12 5.8789484506648728e+00 0.0000000000000000e+00  -3.8718172762748630e-12 5.8789484506645220e+00 0.0000000000000000e+00  -3.4472498890635331e-12 5.8789484506654235e+00 0.0000000000000000e+00  -4.2840804590798779e-12 5.8789484506650664e+00 0.0000000000000000e+00  -5.7935985566654495e-12 5.8789484506646295e+00 0.0000000000000000e+00  -4.0538331106323244e-12 5.8789484506663010e+00 0.0000000000000000e+00  -4.0911179354576887e-12 5.8789484506666092e+00 0.0000000000000000e+00  -5.5129356213063272e-12 5.8789484506655629e+00 0.0000000000000000e+00  -3.6262279693665135e-12 5.8789484506655798e+00 0.0000000000000000e+00  -2.6214301229611352e-12 5.8789484506641685e+00 0.0000000000000000e+00  -3.0063095186112423e-12 5.8789484506646277e+00 0.0000000000000000e+00  -1.2117210113186382e-12 5.8789484506659253e+00 0.0000000000000000e+00  -2.2004533736320055e-12 5.8789484506643630e+00 0.0000000000000000e+00  1.1357260689887054e-09 5.8789484506652627e+00 0.0000000000000000e+00  -2.3560614377385617e-05 5.8789484506645540e+00 0.0000000000000000e+00  4.8891687340504908e-01 5.8789484506641365e+00 0.0000000000000000e+00  -4.8702929241487919e-01 8.8070898993686466e+00 0.0000000000000000e+00  2.3469659946364167e-05 8.8070898993689131e+00 0.0000000000000000e+00  -1.1323602940682236e-09 8.8070898993703555e+00 0.0000000000000000e+00  -1.9174160003631705e-12 8.8070898993699345e+00 0.0000000000000000e+00  -3.2345306318689558e-12 8.8070898993713858e+00 0.0000000000000000e+00  -2.9121371338145034e-12 8.8070898993701494e+00 0.0000000000000000e+00  -2.1716833404249549e-12 8.8070898993701512e+00 0.0000000000000000e+00  -4.6707585443172403e-12 8.8070898993699629e+00 0.0000000000000000e+00  -4.5203740237065831e-12 8.8070898993706770e+00 0.0000000000000000e+00  -4.5576067470270561e-12 8.8070898993718014e+00 0.0000000000000000e+00  -4.8706408499352707e-12 8.8070898993699469e+00 0.0000000000000000e+00  -4.0678310310724309e-12 8.8070898993682096e+00 0.0000000000000000e+00  -6.0341958221355885e-12 8.8070898993680640e+00 0.0000000000000000e+00  -5.4146579605231723e-12 8.8070898993675542e+00 0.0000000000000000e+00  -3.3754246376298060e-12 8.8070898993677460e+00 0.0000000000000000e+00  -3.1091302624502578e-13 8.8070898993678775e+00 0.0000000000000000e+00  -8.0709771473963862e-13 8.8070898993695828e+00 0.0000000000000000e+00  -1.8265077931124540e-12 8.8070898993689823e+00 0.0000000000000000e+00  1.1317497216997848e-09 8.8070898993705935e+00 0.0000000000000000e+00  -2.3469663268181841e-05 8.8070898993683819e+00 0.0000000000000000e+00  4.8702929241780979e-01 8.8070898993689291e+00 0.0000000000000000e+00  -4.8439075464543879e-01 1.1721651586907306e+01 0.0000000000000000e+00  2.3342521112182819e-05 1.1721651586906139e+01 0.0000000000000000e+00  -1.1259514304965265e-09 1.1721651586907619e+01 0.0000000000000000e+00  2.4625608966578711e-13 1.1721651586908424e+01 0.0000000000000000e+00  -1.6840202551472088e-12 1.1721651586909589e+01 0.0000000000000000e+00  -5.1043278609660920e-12 1.1721651586910369e+01 0.0000000000000000e+00  -4.8414851012010685e-12 1.1721651586909740e+01 0.0000000000000000e+00  -3.0102517242192782e-12 1.1721651586907795e+01 0.0000000000000000e+00  -2.5926009652605358e-12 1.1721651586908937e+01 0.0000000000000000e+00  -6.7393241277411763e-12 1.1721651586907161e+01 0.0000000000000000e+00  -5.6681837944823208e-12 1.1721651586909342e+01 0.0000000000000000e+00  -4.9201833702527693e-12 1.1721651586907690e+01 0.0000000000000000e+00  -6.2386612385426368e-12 1.1721651586909051e+01 0.0000000000000000e+00  -4.5668829248459728e-12 1.1721651586907578e+01 0.0000000000000000e+00  -1.6685043380762204e-12 1.1721651586908074e+01 0.0000000000000000e+00  -2.8764568172494722e-12 1.1721651586908452e+01 0.0000000000000000e+00  -1.5688211321584075e-12 1.1721651586905635e+01 0.0000000000000000e+00  -9.2205129218499350e-13 1.1721651586908241e+01 0.0000000000000000e+00  1.1242957305152799e-09 1.1721651586906617e+01 0.0000000000000000e+00  -2.3342522074043238e-05 1.1721651586908342e+01 0.0000000000000000e+00  4.8439075464573728e-01 1.1721651586908385e+01 0.0000000000000000e+00  -4.8100532816943103e-01 1.4618139511895265e+01 0.0000000000000000e+00  2.3179391836804932e-05 1.4618139511895794e+01 0.0000000000000000e+00  -1.1171731063996778e-09 1.4618139511895510e+01 0.0000000000000000e+00  -1.0467773382916286e-12 1.4618139511895009e+01 0.0000000000000000e+00  -1.5329469463804072e-12 1.4618139511895397e+01 0.0000000000000000e+00  -2.7625482289005184e-12 1.4618139511894361e+01 0.0000000000000000e+00  -5.5107962797942368e-12 1.4618139511895807e+01 0.0000000000000000e+00  -4.4517041337135905e-12 1.4618139511895631e+01 0.0000000000000000e+00  -3.9057311985966045e-12 1.4618139511893553e+01 0.0000000000000000e+00  -4.8498990048590540e-12 1.4618139511894908e+01 0.0000000000000000e+00  -4.8018355071552297e-12 1.4618139511895423e+01 0.0000000000000000e+00  -4.5633374302320183e-12 1.4618139511896915e+01 0.0000000000000000e+00  -4.9163080247352882e-12 1.4618139511897379e+01 0.0000000000000000e+00  -6.4562248140400884e-12 1.4618139511898898e+01 0.0000000000000000e+00  -2.4171061880141491e-12 1.4618139511897072e+01 0.0000000000000000e+00  -2.4069560962154147e-12 1.4618139511896064e+01 0.0000000000000000e+00  -2.1378174090836443e-12 1.4618139511894940e+01 0.0000000000000000e+00  7.0649414676284132e-13 1.4618139511894878e+01 0.0000000000000000e+00  1.1170543148218746e-09 1.4618139511895212e+01 0.0000000000000000e+00  -2.3179392833929742e-05 1.4618139511896283e+01 0.0000000000000000e+00  4.8100532816326708e-01 1.4618139511895574e+01 0.0000000000000000e+00  -4.7687823261553980e-01 1.7492087538959350e+01 0.0000000000000000e+00  2.2980524057079457e-05 1.7492087538959385e+01 0.0000000000000000e+00  -1.1086117869609422e-09 1.7492087538959698e+01 0.0000000000000000e+00  4.0494092036635915e-13 1.7492087538959257e+01 0.0000000000000000e+00  -2.3661449515505031e-12 1.7492087538958941e+01 0.0000000000000000e+00  -3.1104962488184892e-12 1.7492087538959929e+01 0.0000000000000000e+00  -4.3796934880485911e-12 1.7492087538959900e+01 0.0000000000000000e+00  -5.1832783031343690e-12 1.7492087538960714e+01 0.0000000000000000e+00  -3.2469162553259222e-12 1.7492087538959552e+01 0.0000000000000000e+00  -4.9797984301969756e-12 1.7492087538961261e+01 0.0000000000000000e+00  -3.5617976931351694e-12 1.7492087538960536e+01 0.0000000000000000e+00  -3.5815648863308961e-12 1.7492087538962068e+01 0.0000000000000000e+00  -5.5709873943715275e-12 1.7492087538960753e+01 0.0000000000000000e+00  -4.4994565810141058e-12 1.7492087538961940e+01 0.0000000000000000e+00  -5.0341480889707853e-12 1.7492087538961407e+01 0.0000000000000000e+00  -4.0126512985227546e-12 1.7492087538961840e+01 0.0000000000000000e+00  -1.6466402211802054e-12 1.7492087538961126e+01 0.0000000000000000e+00  -7.4560010617616215e-13 1.7492087538961233e+01 0.0000000000000000e+00  1.1076117302995807e-09 1.7492087538960295e+01 0.0000000000000000e+00  -2.2980524194002956e-05 1.7492087538959566e+01 0.0000000000000000e+00  4.7687823261452489e-01 1.7492087538961467e+01 0.0000000000000000e+00  -4.7201583114172296e-01 2.0339064284651442e+01 0.0000000000000000e+00  2.2746224921211097e-05 2.0339064284651862e+01 0.0000000000000000e+00  -1.0952946896698961e-09 2.0339064284652693e+01 0.0000000000000000e+00  -1.8973731640499957e-12 2.0339064284652707e+01 0.0000000000000000e+00  -8.1245131004155731e-13 2.0339064284651219e+01 0.0000000000000000e+00  -1.9894160913494191e-12 2.0339064284652736e+01 0.0000000000000000e+00  -4.2863728456611328e-12 2.0339064284652469e+01 0.0000000000000000e+00  -4.7956624778061698e-12 2.0339064284654352e+01 0.0000000000000000e+00  -3.6266670679050585e-12 2.0339064284655645e+01 0.0000000000000000e+00  -4.1978476872727178e-12 2.0339064284653414e+01 0.0000000000000000e+00  -4.7667196476377458e-12 2.0339064284653585e+01 0.0000000000000000e+00  -5.1852472941126834e-12 2.0339064284652043e+01 0.0000000000000000e+00  -4.6491827856005100e-12 2.0339064284652117e+01 0.0000000000000000e+00  -4.3118040787706368e-12 2.0339064284651709e+01 0.0000000000000000e+00  -3.5387728358100796e-12 2.0339064284653670e+01 0.0000000000000000e+00  -4.3949025722908293e-12 2.0339064284652633e+01 0.0000000000000000e+00  -2.3056059988377418e-12 2.0339064284654043e+01 0.0000000000000000e+00  -6.1303247248092987e-13 2.0339064284651958e+01 0.0000000000000000e+00  1.0961969893858474e-09 2.0339064284653933e+01 0.0000000000000000e+00  -2.2746225029229797e-05 2.0339064284653187e+01 0.0000000000000000e+00  4.7201583114116336e-01 2.0339064284653137e+01 0.0000000000000000e+00  -4.6642562058993287e-01 2.3154679949822167e+01 0.0000000000000000e+00  2.2476856526969809e-05 2.3154679949824200e+01 0.0000000000000000e+00  -1.0834137288072119e-09 2.3154679949823340e+01 0.0000000000000000e+00  -1.4773191736192016e-12 2.3154679949824857e+01 0.0000000000000000e+00  -2.8623474121042986e-12 2.3154679949824331e+01 0.0000000000000000e+00  -1.6352955911142631e-12 2.3154679949824033e+01 0.0000000000000000e+00  -2.1621777712218088e-12 2.3154679949824803e+01 0.0000000000000000e+00  -2.8018770829757616e-12 2.3154679949825560e+01 0.0000000000000000e+00  -4.7656512994231445e-12 2.3154679949826157e+01 0.0000000000000000e+00  -5.3906710839707139e-12 2.3154679949826729e+01 0.0000000000000000e+00  -4.5251730483405003e-12 2.3154679949826189e+01 0.0000000000000000e+00  -5.4452312744381914e-12 2.3154679949826114e+01 0.0000000000000000e+00  -5.1494669806881573e-12 2.3154679949824480e+01 0.0000000000000000e+00  -3.0590043575370774e-12 2.3154679949825198e+01 0.0000000000000000e+00  -4.1930083121752613e-12 2.3154679949825095e+01 0.0000000000000000e+00  -2.8561956459187234e-12 2.3154679949826672e+01 0.0000000000000000e+00  -1.1555076574157473e-12 2.3154679949827365e+01 0.0000000000000000e+00  -2.2206677710783941e-12 2.3154679949826718e+01 0.0000000000000000e+00  1.0833081782952366e-09 2.3154679949824132e+01 0.0000000000000000e+00  -2.2476855458384773e-05 2.3154679949826114e+01 0.0000000000000000e+00  4.6642562059155296e-01 2.3154679949827468e+01 0.0000000000000000e+00  -4.6011621998068958e-01 2.5934593087928949e+01 0.0000000000000000e+00  2.2172829885098630e-05 2.5934593087927226e+01 0.0000000000000000e+00  -1.0684241189478760e-09 2.5934593087927052e+01 0.0000000000000000e+00  4.1185116920791165e-14 2.5934593087927436e+01 0.0000000000000000e+00  -2.0446702642219394e-12 2.5934593087927851e+01 0.0000000000000000e+00  -2.0223750148293524e-12 2.5934593087928580e+01 0.0000000000000000e+00  -2.3032585364482588e-12 2.5934593087928906e+01 0.0000000000000000e+00  -3.4584738530612732e-12 2.5934593087930281e+01 0.0000000000000000e+00  -3.1529824306593532e-12 2.5934593087929557e+01 0.0000000000000000e+00  -3.6056717015225932e-12 2.5934593087930601e+01 0.0000000000000000e+00  -6.1616092289855707e-12 2.5934593087928938e+01 0.0000000000000000e+00  -6.5544766777749408e-12 2.5934593087928835e+01 0.0000000000000000e+00  -4.7320957643640729e-12 2.5934593087928491e+01 0.0000000000000000e+00  -4.0181712530610404e-12 2.5934593087929002e+01 0.0000000000000000e+00  -1.7525800915263841e-12 2.5934593087928011e+01 0.0000000000000000e+00  -3.2167096605302161e-12 2.5934593087929322e+01 0.0000000000000000e+00  -2.8624321566422050e-12 2.5934593087927748e+01 0.0000000000000000e+00  -1.9029149357698641e-12 2.5934593087929997e+01 0.0000000000000000e+00  1.0680071118886135e-09 2.5934593087929400e+01 0.0000000000000000e+00  -2.2172826767808665e-05 2.5934593087929791e+01 0.0000000000000000e+00  4.6011621998874341e-01 2.5934593087927581e+01 0.0000000000000000e+00  -4.5309735720219591e-01 2.8674517298806347e+01 0.0000000000000000e+00  2.1834616991385288e-05 2.8674517298806272e+01 0.0000000000000000e+00  -1.0522513710840310e-09 2.8674517298806890e+01 0.0000000000000000e+00  -2.1853148822553360e-13 2.8674517298806158e+01 0.0000000000000000e+00  -1.3123085833711969e-12 2.8674517298808446e+01 0.0000000000000000e+00  -9.4248035177458942e-13 2.8674517298807306e+01 0.0000000000000000e+00  -5.1857342391492053e-13 2.8674517298809857e+01 0.0000000000000000e+00  -2.5951027107977541e-12 2.8674517298806929e+01 0.0000000000000000e+00  -3.9309043108876895e-12 2.8674517298808393e+01 0.0000000000000000e+00  -6.0608844660098785e-12 2.8674517298807498e+01 0.0000000000000000e+00  -6.2182917266091797e-12 2.8674517298806691e+01 0.0000000000000000e+00  -5.7251238663676017e-12 2.8674517298808439e+01 0.0000000000000000e+00  -4.9778508096294118e-12 2.8674517298809189e+01 0.0000000000000000e+00  -3.1259043423523872e-12 2.8674517298808091e+01 0.0000000000000000e+00  -3.8132795763848100e-12 2.8674517298809707e+01 0.0000000000000000e+00  -3.5499351360663645e-12 2.8674517298806997e+01 0.0000000000000000e+00  -8.1685286565562531e-13 2.8674517298808482e+01 0.0000000000000000e+00  -1.1470499713224271e-12 2.8674517298807881e+01 0.0000000000000000e+00  1.0525569574556905e-09 2.8674517298810468e+01 0.0000000000000000e+00  -2.1834617561175986e-05 2.8674517298808830e+01 0.0000000000000000e+00  4.5309735720431177e-01 2.8674517298807725e+01 0.0000000000000000e+00  -4.4537985403206248e-01 3.1370227837685285e+01 0.0000000000000000e+00  2.1462737195176776e-05 3.1370227837684478e+01 0.0000000000000000e+00  -1.0345499546154870e-09 3.1370227837684308e+01 0.0000000000000000e+00  1.6044824172712828e-12 3.1370227837685530e+01 0.0000000000000000e+00  -1.5682301427421171e-12 3.1370227837686222e+01 0.0000000000000000e+00  1.3973564286113766e-13 3.1370227837685743e+01 0.0000000000000000e+00  -1.9501332999814440e-12 3.1370227837685771e+01 0.0000000000000000e+00  -4.6815989297361591e-12 3.1370227837686564e+01 0.0000000000000000e+00  -2.5548174208868653e-12 3.1370227837685555e+01 0.0000000000000000e+00  -5.6420946330115812e-12 3.1370227837685380e+01 0.0000000000000000e+00  -5.7475193431978876e-12 3.1370227837686716e+01 0.0000000000000000e+00  -3.9550932001124882e-12 3.1370227837685245e+01 0.0000000000000000e+00  -7.0797808439120097e-12 3.1370227837687093e+01 0.0000000000000000e+00  -3.7747045022629418e-12 3.1370227837684382e+01 0.0000000000000000e+00  -3.3209697379732337e-12 3.1370227837683139e+01 0.0000000000000000e+00  -2.9062098767966968e-12 3.1370227837685523e+01 0.0000000000000000e+00  -7.9043079634132982e-13 3.1370227837684940e+01 0.0000000000000000e+00  -5.6358924539254986e-13 3.1370227837686418e+01 0.0000000000000000e+00  1.0338844993890751e-09 3.1370227837685668e+01 0.0000000000000000e+00  -2.1462737823464491e-05 3.1370227837684673e+01 0.0000000000000000e+00  4.4537985403484281e-01 3.1370227837685583e+01 0.0000000000000000e+00  -4.3697560945700298e-01 3.4017568129131590e+01 0.0000000000000000e+00  2.1057765069134058e-05 3.4017568129133551e+01 0.0000000000000000e+00  -1.0145268900664580e-09 3.4017568129133430e+01 0.0000000000000000e+00  1.4797641914685678e-12 3.4017568129133068e+01 0.0000000000000000e+00  -2.1004453974861060e-13 3.4017568129133089e+01 0.0000000000000000e+00  -1.0776012234826087e-12 3.4017568129135825e+01 0.0000000000000000e+00  -1.7748054235046065e-12 3.4017568129135469e+01 0.0000000000000000e+00  -3.3969900406530429e-12 3.4017568129133359e+01 0.0000000000000000e+00  -4.3957044511843345e-12 3.4017568129133224e+01 0.0000000000000000e+00  -4.6770931426256744e-12 3.4017568129132222e+01 0.0000000000000000e+00  -5.7005354173203349e-12 3.4017568129134183e+01 0.0000000000000000e+00  -5.0085758792122736e-12 3.4017568129133217e+01 0.0000000000000000e+00  -5.3437307257092011e-12 3.4017568129133615e+01 0.0000000000000000e+00  -5.3332814285072507e-12 3.4017568129134169e+01 0.0000000000000000e+00  -2.8656176226283047e-12 3.4017568129133302e+01 0.0000000000000000e+00  -2.2251250148655602e-12 3.4017568129133828e+01 0.0000000000000000e+00  -7.2844681212319860e-13 3.4017568129135427e+01 0.0000000000000000e+00  -1.1830649994203304e-13 3.4017568129134048e+01 0.0000000000000000e+00  1.0136052119077193e-09 3.4017568129134681e+01 0.0000000000000000e+00  -2.1057764296572051e-05 3.4017568129135334e+01 0.0000000000000000e+00  4.3697560945508274e-01 3.4017568129136144e+01 0.0000000000000000e+00  -4.2789758134302142e-01 3.6612456176010561e+01 0.0000000000000000e+00  2.0620323887295140e-05 3.6612456176008870e+01 0.0000000000000000e+00  -9.9266778965660230e-10 3.6612456176009964e+01 0.0000000000000000e+00  8.6400855808545890e-13 3.6612456176010383e+01 0.0000000000000000e+00  -3.7274900074625785e-13 3.6612456176009758e+01 0.0000000000000000e+00  1.8193743469683845e-12 3.6612456176008642e+01 0.0000000000000000e+00  -2.0559855474252588e-12 3.6612456176008862e+01 0.0000000000000000e+00  -6.9997440368893861e-12 3.6612456176008671e+01 0.000000000000