<?xml version="1.0"?>
<VTKFile type="UnstructuredGrid"  version="0.1"  >
<UnstructuredGrid>
<Piece  NumberOfPoints="1661" NumberOfCells="3200">
<Points>
<DataArray  type="Float64"  NumberOfComponents="3"  format="ascii">-0.25 -1 0  -0.225 -1 0  -0.2 -1 0  -0.175 -1 0  -0.15 -1 0  -0.125 -1 0  -0.1 -1 0  -0.07500000000000001 -1 0  -0.04999999999999999 -1 0  -0.02499999999999999 -1 0  0 -1 0  0.02500000000000002 -1 0  0.04999999999999999 -1 0  0.07500000000000001 -1 0  0.09999999999999998 -1 0  0.125 -1 0  0.15 -1 0  0.175 -1 0  0.2 -1 0  0.225 -1 0  0.25 -1 0  -0.25 -0.975 0  -0.225 -0.975 0  -0.2 -0.975 0  -0.175 -0.975 0  -0.15 -0.975 0  -0.125 -0.975 0  -0.1 -0.975 0  -0.07500000000000001 -0.975 0  -0.04999999999999999 -0.975 0  -0.02499999999999999 -0.975 0  0 -0.975 0  0.02500000000000002 -0.975 0  0.04999999999999999 -0.975 0  0.07500000000000001 -0.975 0  0.09999999999999998 -0.975 0  0.125 -0.975 0  0.15 -0.975 0  0.175 -0.975 0  0.2 -0.975 0  0.225 -0.975 0  0.25 -0.975 0  -0.25 -0.95 0  -0.225 -0.95 0  -0.2 -0.95 0  -0.175 -0.95 0  -0.15 -0.95 0  -0.125 -0.95 0  -0.1 -0.95 0  -0.07500000000000001 -0.95 0  -0.04999999999999999 -0.95 0  -0.02499999999999999 -0.95 0  0 -0.95 0  0.02500000000000002 -0.95 0  0.04999999999999999 -0.95 0  0.07500000000000001 -0.95 0  0.09999999999999998 -0.95 0  0.125 -0.95 0  0.15 -0.95 0  0.175 -0.95 0  0.2 -0.95 0  0.225 -0.95 0  0.25 -0.95 0  -0.25 -0.925 0  -0.225 -0.925 0  -0.2 -0.925 0  -0.175 -0.925 0  -0.15 -0.925 0  -0.125 -0.925 0  -0.1 -0.925 0  -0.07500000000000001 -0.925 0  -0.04999999999999999 -0.925 0  -0.02499999999999999 -0.925 0  0 -0.925 0  0.02500000000000002 -0.925 0  0.04999999999999999 -0.925 0  0.07500000000000001 -0.925 0  0.09999999999999998 -0.925 0  0.125 -0.925 0  0.15 -0.925 0  0.175 -0.925 0  0.2 -0.925 0  0.225 -0.925 0  0.25 -0.925 0  -0.25 -0.9 0  -0.225 -0.9 0  -0.2 -0.9 0  -0.175 -0.9 0  -0.15 -0.9 0  -0.125 -0.9 0  -0.1 -0.9 0  -0.07500000000000001 -0.9 0  -0.04999999999999999 -0.9 0  -0.02499999999999999 -0.9 0  0 -0.9 0  0.02500000000000002 -0.9 0  0.04999999999999999 -0.9 0  0.07500000000000001 -0.9 0  0.09999999999999998 -0.9 0  0.125 -0.9 0  0.15 -0.9 0  0.175 -0.9 0  0.2 -0.9 0  0.225 -0.9 0  0.25 -0.9 0  -0.25 -0.875 0  -0.225 -0.875 0  -0.2 -0.875 0  -0.175 -0.875 0  -0.15 -0.875 0  -0.125 -0.875 0  -0.1 -0.875 0  -0.07500000000000001 -0.875 0  -0.04999999999999999 -0.875 0  -0.02499999999999999 -0.875 0  0 -0.875 0  0.02500000000000002 -0.875 0  0.04999999999999999 -0.875 0  0.07500000000000001 -0.875 0  0.09999999999999998 -0.875 0  0.125 -0.875 0  0.15 -0.875 0  0.175 -0.875 0  0.2 -0.875 0  0.225 -0.875 0  0.25 -0.875 0  -0.25 -0.85 0  -0.225 -0.85 0  -0.2 -0.85 0  -0.175 -0.85 0  -0.15 -0.85 0  -0.125 -0.85 0  -0.1 -0.85 0  -0.07500000000000001 -0.85 0  -0.04999999999999999 -0.85 0  -0.02499999999999999 -0.85 0  0 -0.85 0  0.02500000000000002 -0.85 0  0.04999999999999999 -0.85 0  0.07500000000000001 -0.85 0  0.09999999999999998 -0.85 0  0.125 -0.85 0  0.15 -0.85 0  0.175 -0.85 0  0.2 -0.85 0  0.225 -0.85 0  0.25 -0.85 0  -0.25 -0.825 0  -0.225 -0.825 0  -0.2 -0.825 0  -0.175 -0.825 0  -0.15 -0.825 0  -0.125 -0.825 0  -0.1 -0.825 0  -0.07500000000000001 -0.825 0  -0.04999999999999999 -0.825 0  -0.02499999999999999 -0.825 0  0 -0.825 0  0.02500000000000002 -0.825 0  0.04999999999999999 -0.825 0  0.07500000000000001 -0.825 0  0.09999999999999998 -0.825 0  0.125 -0.825 0  0.15 -0.825 0  0.175 -0.825 0  0.2 -0.825 0  0.225 -0.825 0  0.25 -0.825 0  -0.25 -0.8 0  -0.225 -0.8 0  -0.2 -0.8 0  -0.175 -0.8 0  -0.15 -0.8 0  -0.125 -0.8 0  -0.1 -0.8 0  -0.07500000000000001 -0.8 0  -0.04999999999999999 -0.8 0  -0.02499999999999999 -0.8 0  0 -0.8 0  0.02500000000000002 -0.8 0  0.04999999999999999 -0.8 0  0.07500000000000001 -0.8 0  0.09999999999999998 -0.8 0  0.125 -0.8 0  0.15 -0.8 0  0.175 -0.8 0  0.2 -0.8 0  0.225 -0.8 0  0.25 -0.8 0  -0.25 -0.775 0  -0.225 -0.775 0  -0.2 -0.775 0  -0.175 -0.775 0  -0.15 -0.775 0  -0.125 -0.775 0  -0.1 -0.775 0  -0.07500000000000001 -0.775 0  -0.04999999999999999 -0.775 0  -0.02499999999999999 -0.775 0  0 -0.775 0  0.02500000000000002 -0.775 0  0.04999999999999999 -0.775 0  0.07500000000000001 -0.775 0  0.09999999999999998 -0.775 0  0.125 -0.775 0  0.15 -0.775 0  0.175 -0.775 0  0.2 -0.775 0  0.225 -0.775 0  0.25 -0.775 0  -0.25 -0.75 0  -0.225 -0.75 0  -0.2 -0.75 0  -0.175 -0.75 0  -0.15 -0.75 0  -0.125 -0.75 0  -0.1 -0.75 0  -0.07500000000000001 -0.75 0  -0.04999999999999999 -0.75 0  -0.02499999999999999 -0.75 0  0 -0.75 0  0.02500000000000002 -0.75 0  0.04999999999999999 -0.75 0  0.07500000000000001 -0.75 0  0.09999999999999998 -0.75 0  0.125 -0.75 0  0.15 -0.75 0  0.175 -0.75 0  0.2 -0.75 0  0.225 -0.75 0  0.25 -0.75 0  -0.25 -0.725 0  -0.225 -0.725 0  -0.2 -0.725 0  -0.175 -0.725 0  -0.15 -0.725 0  -0.125 -0.725 0  -0.1 -0.725 0  -0.07500000000000001 -0.725 0  -0.04999999999999999 -0.725 0  -0.02499999999999999 -0.725 0  0 -0.725 0  0.02500000000000002 -0.725 0  0.04999999999999999 -0.725 0  0.07500000000000001 -0.725 0  0.09999999999999998 -0.725 0  0.125 -0.725 0  0.15 -0.725 0  0.175 -0.725 0  0.2 -0.725 0  0.225 -0.725 0  0.25 -0.725 0  -0.25 -0.7 0  -0.225 -0.7 0  -0.2 -0.7 0  -0.175 -0.7 0  -0.15 -0.7 0  -0.125 -0.7 0  -0.1 -0.7 0  -0.07500000000000001 -0.7 0  -0.04999999999999999 -0.7 0  -0.02499999999999999 -0.7 0  0 -0.7 0  0.02500000000000002 -0.7 0  0.04999999999999999 -0.7 0  0.07500000000000001 -0.7 0  0.09999999999999998 -0.7 0  0.125 -0.7 0  0.15 -0.7 0  0.175 -0.7 0  0.2 -0.7 0  0.225 -0.7 0  0.25 -0.7 0  -0.25 -0.675 0  -0.225 -0.675 0  -0.2 -0.675 0  -0.175 -0.675 0  -0.15 -0.675 0  -0.125 -0.675 0  -0.1 -0.675 0  -0.07500000000000001 -0.675 0  -0.04999999999999999 -0.675 0  -0.02499999999999999 -0.675 0  0 -0.675 0  0.02500000000000002 -0.675 0  0.04999999999999999 -0.675 0  0.07500000000000001 -0.675 0  0.09999999999999998 -0.675 0  0.125 -0.675 0  0.15 -0.675 0  0.175 -0.675 0  0.2 -0.675 0  0.225 -0.675 0  0.25 -0.675 0  -0.25 -0.65 0  -0.225 -0.65 0  -0.2 -0.65 0  -0.175 -0.65 0  -0.15 -0.65 0  -0.125 -0.65 0  -0.1 -0.65 0  -0.07500000000000001 -0.65 0  -0.04999999999999999 -0.65 0  -0.02499999999999999 -0.65 0  0 -0.65 0  0.02500000000000002 -0.65 0  0.04999999999999999 -0.65 0  0.07500000000000001 -0.65 0  0.09999999999999998 -0.65 0  0.125 -0.65 0  0.15 -0.65 0  0.175 -0.65 0  0.2 -0.65 0  0.225 -0.65 0  0.25 -0.65 0  -0.25 -0.625 0  -0.225 -0.625 0  -0.2 -0.625 0  -0.175 -0.625 0  -0.15 -0.625 0  -0.125 -0.625 0  -0.1 -0.625 0  -0.07500000000000001 -0.625 0  -0.04999999999999999 -0.625 0  -0.02499999999999999 -0.625 0  0 -0.625 0  0.02500000000000002 -0.625 0  0.04999999999999999 -0.625 0  0.07500000000000001 -0.625 0  0.09999999999999998 -0.625 0  0.125 -0.625 0  0.15 -0.625 0  0.175 -0.625 0  0.2 -0.625 0  0.225 -0.625 0  0.25 -0.625 0  -0.25 -0.6 0  -0.225 -0.6 0  -0.2 -0.6 0  -0.175 -0.6 0  -0.15 -0.6 0  -0.125 -0.6 0  -0.1 -0.6 0  -0.07500000000000001 -0.6 0  -0.04999999999999999 -0.6 0  -0.02499999999999999 -0.6 0  0 -0.6 0  0.02500000000000002 -0.6 0  0.04999999999999999 -0.6 0  0.07500000000000001 -0.6 0  0.09999999999999998 -0.6 0  0.125 -0.6 0  0.15 -0.6 0  0.175 -0.6 0  0.2 -0.6 0  0.225 -0.6 0  0.25 -0.6 0  -0.25 -0.575 0  -0.225 -0.575 0  -0.2 -0.575 0  -0.175 -0.575 0  -0.15 -0.575 0  -0.125 -0.575 0  -0.1 -0.575 0  -0.07500000000000001 -0.575 0  -0.04999999999999999 -0.575 0  -0.02499999999999999 -0.575 0  0 -0.575 0  0.02500000000000002 -0.575 0  0.04999999999999999 -0.575 0  0.07500000000000001 -0.575 0  0.09999999999999998 -0.575 0  0.125 -0.575 0  0.15 -0.575 0  0.175 -0.575 0  0.2 -0.575 0  0.225 -0.575 0  0.25 -0.575 0  -0.25 -0.55 0  -0.225 -0.55 0  -0.2 -0.55 0  -0.175 -0.55 0  -0.15 -0.55 0  -0.125 -0.55 0  -0.1 -0.55 0  -0.07500000000000001 -0.55 0  -0.04999999999999999 -0.55 0  -0.02499999999999999 -0.55 0  0 -0.55 0  0.02500000000000002 -0.55 0  0.04999999999999999 -0.55 0  0.07500000000000001 -0.55 0  0.09999999999999998 -0.55 0  0.125 -0.55 0  0.15 -0.55 0  0.175 -0.55 0  0.2 -0.55 0  0.225 -0.55 0  0.25 -0.55 0  -0.25 -0.525 0  -0.225 -0.525 0  -0.2 -0.525 0  -0.175 -0.525 0  -0.15 -0.525 0  -0.125 -0.525 0  -0.1 -0.525 0  -0.07500000000000001 -0.525 0  -0.04999999999999999 -0.525 0  -0.02499999999999999 -0.525 0  0 -0.525 0  0.02500000000000002 -0.525 0  0.04999999999999999 -0.525 0  0.07500000000000001 -0.525 0  0.09999999999999998 -0.525 0  0.125 -0.525 0  0.15 -0.525 0  0.175 -0.525 0  0.2 -0.525 0  0.225 -0.525 0  0.25 -0.525 0  -0.25 -0.5 0  -0.225 -0.5 0  -0.2 -0.5 0  -0.175 -0.5 0  -0.15 -0.5 0  -0.125 -0.5 0  -0.1 -0.5 0  -0.07500000000000001 -0.5 0  -0.04999999999999999 -0.5 0  -0.02499999999999999 -0.5 0  0 -0.5 0  0.02500000000000002 -0.5 0  0.04999999999999999 -0.5 0  0.07500000000000001 -0.5 0  0.09999999999999998 -0.5 0  0.125 -0.5 0  0.15 -0.5 0  0.175 -0.5 0  0.2 -0.5 0  0.225 -0.5 0  0.25 -0.5 0  -0.25 -0.475 0  -0.225 -0.475 0  -0.2 -0.475 0  -0.175 -0.475 0  -0.15 -0.475 0  -0.125 -0.475 0  -0.1 -0.475 0  -0.07500000000000001 -0.475 0  -0.04999999999999999 -0.475 0  -0.02499999999999999 -0.475 0  0 -0.475 0  0.02500000000000002 -0.475 0  0.04999999999999999 -0.475 0  0.07500000000000001 -0.475 0  0.09999999999999998 -0.475 0  0.125 -0.475 0  0.15 -0.475 0  0.175 -0.475 0  0.2 -0.475 0  0.225 -0.475 0  0.25 -0.475 0  -0.25 -0.45 0  -0.225 -0.45 0  -0.2 -0.45 0  -0.175 -0.45 0  -0.15 -0.45 0  -0.125 -0.45 0  -0.1 -0.45 0  -0.07500000000000001 -0.45 0  -0.04999999999999999 -0.45 0  -0.02499999999999999 -0.45 0  0 -0.45 0  0.02500000000000002 -0.45 0  0.04999999999999999 -0.45 0  0.07500000000000001 -0.45 0  0.09999999999999998 -0.45 0  0.125 -0.45 0  0.15 -0.45 0  0.175 -0.45 0  0.2 -0.45 0  0.225 -0.45 0  0.25 -0.45 0  -0.25 -0.425 0  -0.225 -0.425 0  -0.2 -0.425 0  -0.175 -0.425 0  -0.15 -0.425 0  -0.125 -0.425 0  -0.1 -0.425 0  -0.07500000000000001 -0.425 0  -0.04999999999999999 -0.425 0  -0.02499999999999999 -0.425 0  0 -0.425 0  0.02500000000000002 -0.425 0  0.04999999999999999 -0.425 0  0.07500000000000001 -0.425 0  0.
[...]
<PointData  Vectors="flow"> 
<DataArray  type="Float64"  Name="flow"  NumberOfComponents="3" format="ascii">-2.0489053288006942e+00 4.0978160685102756e+00 0.0000000000000000e+00  1.3744154163491972e-05 4.0978160685080791e+00 0.0000000000000000e+00  3.4982429857583440e-08 4.0978160685071146e+00 0.0000000000000000e+00  -2.2510696024992231e-11 4.0978160684978091e+00 0.0000000000000000e+00  -1.0131245130097839e-11 4.0978160685008636e+00 0.0000000000000000e+00  -1.8108018442508691e-12 4.0978160685153933e+00 0.0000000000000000e+00  -1.4754978743248914e-11 4.0978160684945015e+00 0.0000000000000000e+00  -2.3809182166073704e-11 4.0978160685267477e+00 0.0000000000000000e+00  -1.6656794423556929e-11 4.0978160685049536e+00 0.0000000000000000e+00  -2.6548999268109886e-11 4.0978160685156109e+00 0.0000000000000000e+00  -1.7903201984166834e-11 4.0978160685236693e+00 0.0000000000000000e+00  -2.2538967453163210e-11 4.0978160685155443e+00 0.0000000000000000e+00  -2.0948216252616691e-11 4.0978160685126142e+00 0.0000000000000000e+00  -1.4201602327010912e-11 4.0978160685105998e+00 0.0000000000000000e+00  -1.7565985164750328e-11 4.0978160685222562e+00 0.0000000000000000e+00  -1.7543521579833591e-11 4.0978160685148373e+00 0.0000000000000000e+00  1.7413389647312350e-12 4.0978160684993163e+00 0.0000000000000000e+00  9.0054613013999388e-12 4.0978160685104585e+00 0.0000000000000000e+00  -3.4995002389475057e-08 4.0978160685189922e+00 0.0000000000000000e+00  -1.3744162390059535e-05 4.0978160685077984e+00 0.0000000000000000e+00  2.0489053287991479e+00 4.0978160685159892e+00 0.0000000000000000e+00  -2.0486843031874762e+00 1.2292945876965780e+01 0.0000000000000000e+00  1.4303553732006035e-05 1.2292945876965710e+01 0.0000000000000000e+00  3.4728734198085670e-08 1.2292945876962756e+01 0.0000000000000000e+00  -2.3073370812811675e-11 1.2292945876972137e+01 0.0000000000000000e+00  -1.0578052136553747e-11 1.2292945876959374e+01 0.0000000000000000e+00  -1.0206798743018645e-11 1.2292945876965787e+01 0.0000000000000000e+00  -6.4963347181230732e-12 1.2292945876955923e+01 0.0000000000000000e+00  -2.0665374564885104e-11 1.2292945876965439e+01 0.0000000000000000e+00  -2.4533251918400537e-11 1.2292945876961024e+01 0.0000000000000000e+00  -1.7279314138027023e-11 1.2292945876961738e+01 0.0000000000000000e+00  -2.1142011623027166e-11 1.2292945876962420e+01 0.0000000000000000e+00  -2.3362344450158840e-11 1.2292945876957864e+01 0.0000000000000000e+00  -1.8332784836343891e-11 1.2292945876966684e+01 0.0000000000000000e+00  -1.5159318150112947e-11 1.2292945876957837e+01 0.0000000000000000e+00  -1.4919233831601484e-11 1.2292945876965405e+01 0.0000000000000000e+00  -1.1069269154844036e-11 1.2292945876962262e+01 0.0000000000000000e+00  -7.4625540791310461e-12 1.2292945876967988e+01 0.0000000000000000e+00  1.1987503047386534e-11 1.2292945876963184e+01 0.0000000000000000e+00  -3.4748682822108500e-08 1.2292945876956249e+01 0.0000000000000000e+00  -1.4303559287412969e-05 1.2292945876959426e+01 0.0000000000000000e+00  2.0486843032009636e+00 1.2292945876959967e+01 0.0000000000000000e+00  -2.0480033417704044e+00 2.4583200201185626e+01 0.0000000000000000e+00  1.5973693565908509e-05 2.4583200201187640e+01 0.0000000000000000e+00  3.3984989917858894e-08 2.4583200201187097e+01 0.0000000000000000e+00  -2.2679265896087302e-11 2.4583200201189733e+01 0.0000000000000000e+00  -1.6307793789707204e-11 2.4583200201191502e+01 0.0000000000000000e+00  -6.9760456915828911e-12 2.4583200201189122e+01 0.0000000000000000e+00  -1.5039252751272812e-11 2.4583200201189630e+01 0.0000000000000000e+00  -1.6144001100644992e-11 2.4583200201181473e+01 0.0000000000000000e+00  -1.7827937479252281e-11 2.4583200201188500e+01 0.0000000000000000e+00  -2.1898269245881110e-11 2.4583200201188355e+01 0.0000000000000000e+00  -2.3631907594961087e-11 2.4583200201188582e+01 0.0000000000000000e+00  -2.2324658954815829e-11 2.4583200201187349e+01 0.0000000000000000e+00  -1.6943613472603455e-11 2.4583200201188436e+01 0.0000000000000000e+00  -1.1035849043165925e-11 2.4583200201188937e+01 0.0000000000000000e+00  -1.7172907403465585e-11 2.4583200201195456e+01 0.0000000000000000e+00  -1.4709094033121236e-11 2.4583200201187783e+01 0.0000000000000000e+00  -4.4680719249461487e-12 2.4583200201193591e+01 0.0000000000000000e+00  4.9098608489501498e-12 2.4583200201188390e+01 0.0000000000000000e+00  -3.3990352293417760e-08 2.4583200201191950e+01 0.0000000000000000e+00  -1.5973705824549724e-05 2.4583200201198206e+01 0.0000000000000000e+00  2.0480033417746446e+00 2.4583200201190493e+01 0.0000000000000000e+00  -2.0468090478750138e+00 3.6867857369155452e+01 0.0000000000000000e+00  1.8730570291667601e-05 3.6867857369163382e+01 0.0000000000000000e+00  3.2738896431535956e-08 3.6867857369160859e+01 0.0000000000000000e+00  -2.3168761621192618e-11 3.6867857369160866e+01 0.0000000000000000e+00  -6.1165464495449414e-12 3.6867857369172626e+01 0.0000000000000000e+00  -1.0688160988706462e-11 3.6867857369165016e+01 0.0000000000000000e+00  -1.5432858484805191e-11 3.6867857369171702e+01 0.0000000000000000e+00  -2.0909949621835560e-11 3.6867857369162742e+01 0.0000000000000000e+00  -1.8661262012078283e-11 3.6867857369166728e+01 0.0000000000000000e+00  -1.3476093676174622e-11 3.6867857369170416e+01 0.0000000000000000e+00  -3.0244417435561523e-11 3.6867857369169343e+01 0.0000000000000000e+00  -2.1918047016398294e-11 3.6867857369165542e+01 0.0000000000000000e+00  -1.7166980070315101e-11 3.6867857369162266e+01 0.0000000000000000e+00  -1.5933161797693129e-11 3.6867857369166373e+01 0.0000000000000000e+00  -1.3956572489798213e-11 3.6867857369158919e+01 0.0000000000000000e+00  -5.4704173705809388e-12 3.6867857369167460e+01 0.0000000000000000e+00  -9.8651557285189005e-12 3.6867857369163850e+01 0.0000000000000000e+00  6.0331930226173230e-12 3.6867857369163218e+01 0.0000000000000000e+00  -3.2748745904263852e-08 3.6867857369164618e+01 0.0000000000000000e+00  -1.8730578583401826e-05 3.6867857369163701e+01 0.0000000000000000e+00  2.0468090478931873e+00 3.6867857369159694e+01 0.0000000000000000e+00  -2.0450132812431878e+00 4.9143586754640836e+01 0.0000000000000000e+00  2.2534388595377334e-05 4.9143586754632395e+01 0.0000000000000000e+00  3.1022811980029536e-08 4.9143586754641689e+01 0.0000000000000000e+00  -1.2716516658574428e-11 4.9143586754642072e+01 0.0000000000000000e+00  -1.1076876272440632e-11 4.9143586754641859e+01 0.0000000000000000e+00  -1.6990915074056668e-11 4.9143586754636928e+01 0.0000000000000000e+00  -1.9717120458542189e-11 4.9143586754631514e+01 0.0000000000000000e+00  -1.5716684557280691e-11 4.9143586754638001e+01 0.0000000000000000e+00  -1.5156553561920227e-11 4.9143586754637241e+01 0.0000000000000000e+00  -2.0872137969329265e-11 4.9143586754632203e+01 0.0000000000000000e+00  -2.8585395432662092e-11 4.9143586754630810e+01 0.0000000000000000e+00  -1.9361638701857367e-11 4.9143586754637759e+01 0.0000000000000000e+00  -1.9522728916866842e-11 4.9143586754633596e+01 0.0000000000000000e+00  -1.4032640021647865e-11 4.9143586754631961e+01 0.0000000000000000e+00  -1.5978666859569772e-11 4.9143586754631578e+01 0.0000000000000000e+00  -1.1426546429588732e-11 4.9143586754630661e+01 0.0000000000000000e+00  -7.8564853684759751e-12 4.9143586754630753e+01 0.0000000000000000e+00  9.4719011336896344e-12 4.9143586754637965e+01 0.0000000000000000e+00  -3.1022183831676730e-08 4.9143586754631130e+01 0.0000000000000000e+00  -2.2534396730382878e-05 4.9143586754644971e+01 0.0000000000000000e+00  2.0450132812351756e+00 4.9143586754639017e+01 0.0000000000000000e+00  -2.0424944297754037e+00 6.1406427861781403e+01 0.0000000000000000e+00  2.7330077136366441e-05 6.1406427861780720e+01 0.0000000000000000e+00  2.8840531410107319e-08 6.1406427861785211e+01 0.0000000000000000e+00  -2.1308075404853181e-11 6.1406427861776905e+01 0.0000000000000000e+00  -8.2756266288097831e-12 6.1406427861777075e+01 0.0000000000000000e+00  -1.5043608526612613e-11 6.1406427861780799e+01 0.0000000000000000e+00  -1.6500854122695561e-11 6.1406427861779008e+01 0.0000000000000000e+00  -1.8568076962990842e-11 6.1406427861780614e+01 0.0000000000000000e+00  -1.5773674956339103e-11 6.1406427861778560e+01 0.0000000000000000e+00  -2.4609516802454230e-11 6.1406427861774617e+01 0.0000000000000000e+00  -2.7092697298514429e-11 6.1406427861780756e+01 0.0000000000000000e+00  -1.8013977643323610e-11 6.1406427861780152e+01 0.0000000000000000e+00  -2.0911432596784221e-11 6.1406427861779555e+01 0.0000000000000000e+00  -1.7563617521393844e-11 6.1406427861779541e+01 0.0000000000000000e+00  -1.0089270300049438e-11 6.1406427861783889e+01 0.0000000000000000e+00  -1.1814325773672129e-11 6.1406427861777935e+01 0.0000000000000000e+00  -6.6273395460317501e-12 6.1406427861776166e+01 0.0000000000000000e+00  8.8252034019953199e-12 6.1406427861777502e+01 0.0000000000000000e+00  -2.8839165930897170e-08 6.1406427861784984e+01 0.0000000000000000e+00  -2.7330081442353350e-05 6.1406427861780784e+01 0.0000000000000000e+00  2.0424944297458216e+00 6.1406427861785133e+01 0.0000000000000000e+00  -2.0390991711030289e+00 7.3651594585075941e+01 0.0000000000000000e+00  3.3047815226625705e-05 7.3651594585078030e+01 0.0000000000000000e+00  2.6215396427086338e-08 7.3651594585073454e+01 0.0000000000000000e+00  -1.4519175724399328e-11 7.3651594585070285e+01 0.0000000000000000e+00  -1.2857921794961420e-11 7.3651594585076964e+01 0.0000000000000000e+00  -1.3427581411931535e-11 7.3651594585079664e+01 0.0000000000000000e+00  -1.9155248703995637e-11 7.3651594585081881e+01 0.0000000000000000e+00  -1.8354274653623061e-11 7.3651594585078755e+01 0.0000000000000000e+00  -1.5860862433668336e-11 7.3651594585073553e+01 0.0000000000000000e+00  -2.6175582880559175e-11 7.3651594585073568e+01 0.0000000000000000e+00  -1.9068723467774347e-11 7.3651594585076595e+01 0.0000000000000000e+00  -2.2183007792965565e-11 7.3651594585073013e+01 0.0000000000000000e+00  -2.0369048521784273e-11 7.3651594585076907e+01 0.0000000000000000e+00  -1.1131680871690751e-11 7.3651594585076907e+01 0.0000000000000000e+00  -1.9202629757645769e-11 7.3651594585074221e+01 0.0000000000000000e+00  -1.3272640845636880e-11 7.3651594585079877e+01 0.0000000000000000e+00  -8.9515507708286152e-12 7.3651594585078854e+01 0.0000000000000000e+00  1.0970499369807941e-11 7.3651594585077362e+01 0.0000000000000000e+00  -2.6217229391473590e-08 7.3651594585073184e+01 0.0000000000000000e+00  -3.3047818121390889e-05 7.3651594585068764e+01 0.0000000000000000e+00  2.0390991711008466e+00 7.3651594585077063e+01 0.0000000000000000e+00  -2.0346447052731556e+00 8.5873291460197478e+01 0.0000000000000000e+00  3.9603815528646770e-05 8.5873291460200576e+01 0.0000000000000000e+00  2.3191813585917869e-08 8.5873291460197436e+01 0.0000000000000000e+00  -1.3366303241843283e-11 8.5873291460208037e+01 0.0000000000000000e+00  -7.8689773439066551e-12 8.5873291460201798e+01 0.0000000000000000e+00  -1.0090851383705584e-11 8.5873291460201912e+01 0.0000000000000000e+00  -1.5609133979318849e-11 8.5873291460201557e+01 0.0000000000000000e+00  -2.4348399309088281e-11 8.5873291460205593e+01 0.0000000000000000e+00  -1.9105853651340538e-11 8.5873291460205422e+01 0.0000000000000000e+00  -1.9767215736339064e-11 8.5873291460212812e+01 0.0000000000000000e+00  -2.5935664731749058e-11 8.5873291460205337e+01 0.0000000000000000e+00  -1.7963600642305111e-11 8.5873291460210638e+01 0.0000000000000000e+00  -2.1646111166021716e-11 8.5873291460208861e+01 0.0000000000000000e+00  -1.8895247716315437e-11 8.5873291460207597e+01 0.0000000000000000e+00  -9.2894689971931094e-12 8.5873291460199212e+01 0.0000000000000000e+00  -7.6629214372918197e-12 8.5873291460210524e+01 0.0000000000000000e+00  -1.2275155444189169e-11 8.5873291460206801e+01 0.0000000000000000e+00  5.5350123782142777e-12 8.5873291460200846e+01 0.0000000000000000e+00  -2.3191411620470753e-08 8.5873291460201017e+01 0.0000000000000000e+00  -3.9603824751265282e-05 8.5873291460202921e+01 0.0000000000000000e+00  2.0346447052652716e+00 8.5873291460205053e+01 0.0000000000000000e+00  -2.0289214338027244e+00 9.8064544661259077e+01 0.0000000000000000e+00  4.6901254207643905e-05 9.8064544661273089e+01 0.0000000000000000e+00  1.9789351333361912e-08 9.8064544661271782e+01 0.0000000000000000e+00  -1.6682275652635877e-11 9.8064544661273246e+01 0.0000000000000000e+00  -1.3835690656794708e-11 9.8064544661273601e+01 0.0000000000000000e+00  -8.1564395776932400e-12 9.8064544661271626e+01 0.0000000000000000e+00  -1.8749342392394664e-11 9.8064544661268755e+01 0.0000000000000000e+00  -1.9392017113118155e-11 9.8064544661266424e+01 0.0000000000000000e+00  -1.6079854315533509e-11 9.8064544661274951e+01 0.0000000000000000e+00  -2.0465740785273082e-11 9.8064544661271825e+01 0.0000000000000000e+00  -2.2854219472677556e-11 9.8064544661270148e+01 0.0000000000000000e+00  -1.9701507822383218e-11 9.8064544661271526e+01 0.0000000000000000e+00  -2.3622228588739550e-11 9.8064544661268769e+01 0.0000000000000000e+00  -1.8252634100687265e-11 9.8064544661267107e+01 0.0000000000000000e+00  -1.7270456163549030e-11 9.8064544661268911e+01 0.0000000000000000e+00  -1.9101040654448919e-12 9.8064544661261181e+01 0.0000000000000000e+00  -8.2316566610295780e-12 9.8064544661272777e+01 0.0000000000000000e+00  -3.1226990536704361e-12 9.8064544661275960e+01 0.0000000000000000e+00  -1.9787960559599677e-08 9.8064544661274212e+01 0.0000000000000000e+00  -4.6901251656354938e-05 9.8064544661273573e+01 0.0000000000000000e+00  2.0289214338128292e+00 9.8064544661272819e+01 0.0000000000000000e+00  -2.0216960565055939e+00 1.1021705033849504e+02 0.0000000000000000e+00  5.4831314960694824e-05 1.1021705033848320e+02 0.0000000000000000e+00  1.6052858938814945e-08 1.1021705033848258e+02 0.0000000000000000e+00  -1.0655496035122990e-11 1.1021705033847894e+02 0.0000000000000000e+00  -6.7566063428669648e-12 1.1021705033847797e+02 0.0000000000000000e+00  -1.7029465035032372e-11 1.1021705033848261e+02 0.0000000000000000e+00  -1.6182424773233624e-11 1.1021705033848498e+02 0.0000000000000000e+00  -1.6203174137742516e-11 1.1021705033849025e+02 0.0000000000000000e+00  -1.3252278635349810e-11 1.1021705033848200e+02 0.0000000000000000e+00  -2.5421089793209128e-11 1.1021705033848794e+02 0.0000000000000000e+00  -2.6704830967717062e-11 1.1021705033848428e+02 0.0000000000000000e+00  -1.8976925606296565e-11 1.1021705033848077e+02 0.0000000000000000e+00  -2.1336319351149691e-11 1.1021705033848430e+02 0.0000000000000000e+00  -1.7386091756691873e-11 1.1021705033848390e+02 0.0000000000000000e+00  -1.7100837939742985e-11 1.1021705033848741e+02 0.0000000000000000e+00  -1.0371884931164868e-11 1.1021705033848939e+02 0.0000000000000000e+00  -1.4363321269397781e-12 1.1021705033847746e+02 0.0000000000000000e+00  5.7274930684679425e-12 1.1021705033848693e+02 0.0000000000000000e+00  -1.6057042474257671e-08 1.1021705033848484e+02 0.0000000000000000e+00  -5.4831316141943737e-05 1.1021705033848657e+02 0.0000000000000000e+00  2.0216960565038300e+00 1.1021705033847505e+02 0.0000000000000000e+00  -2.0127150505501636e+00 1.2232104269836098e+02 0.0000000000000000e+00  6.3274463350358046e-05 1.2232104269835753e+02 0.0000000000000000e+00  1.2019274714587520e-08 1.2232104269836439e+02 0.0000000000000000e+00  -1.5007004363162650e-11 1.2232104269836108e+02 0.0000000000000000e+00  -1.0792344793846365e-11 1.2232104269836042e+02 0.0000000000000000e+00  -6.2089262292708556e-12 1.2232104269835895e+02 0.0000000000000000e+00  -1.2466150204013799e-11 1.2232104269836110e+02 0.0000000000000000e+00  -2.5828968315164316e-11 1.2232104269835796e+02 0.0000000000000000e+00  -1.3178727166131927e-11 1.2232104269836071e+02 0.0000000000000000e+00  -1.8581715606504412e-11 1.2232104269836314e+02 0.0000000000000000e+00  -2.7455746201852993e-11 1.2232104269836168e+02 0.0000000000000000e+00  -2.7840491990737946e-11 1.2232104269835752e+02 0.0000000000000000e+00  -1.9034740887271543e-11 1.2232104269835941e+02 0.0000000000000000e+00  -1.9957550880069593e-11 1.2232104269835908e+02 0.0000000000000000e+00  -1.0913661814042376e-11 1.2232104269836384e+02 0.0000000000000000e+00  -8.1367187958396836e-12 1.2232104269835543e+02 0.0000000000000000e+00  -9.7953837078751120e-12 1.2232104269836772e+02 0.0000000000000000e+00  7.9950696257188648e-12 1.2232104269835499e+02 0.0000000000000000e+00  -1.2020310957125466e-08 1.2232104269836353e+02 0.0000000000000000e+00  -6.3274467224936899e-05 1.2232104269836448e+02 0.0000000000000000e+00  2.0127150505590765e+00 1.2232104269836650e+02 0.0000000000000000e+00  -2.0017084929812570e+00 1.3436518400579970e+02 0.0000000000000000e+00  7.2101823736274632e-05 1.3436518400579163e+02 0.0000000000000000e+00  7.7440169156047690e-09 1.3436518400578871e+02 0.0000000000000000e+00  -1.0796291473685201e-11 1.3436518400579016e+02 0.0000000000000000e+00  -8.6057549675867874e-12 1.3436518400579638e+02 0.0000000000000000e+00  -8.7395666058839317e-12 1.3436518400579513e+02 0.0000000000000000e+00  -1.9354799276320043e-11 1.3436518400579735e+02 0.0000000000000000e+00  -1.3576585972787511e-11 1.3436518400578973e+02 0.0000000000000000e+00  -1.5040741322356229e-11 1.3436518400579743e+02 0.0000000000000000e+00  -2.3952408492181101e-11 1.3436518400578748e+02 0.0000000000000000e+00  -2.9201984910611679e-11 1.3436518400579436e+02 0.0000000000000000e+00  -2.1024056147520525e-11 1.3436518400579510e+02 0.0000000000000000e+00  -1.7889096436477057e-11 1.3436518400579476e+02 0.0000000000000000e+00  -1.3458636121997604e-11 1.3436518400578916e+02 0.0000000000000000e+00  -2.1277603623437703e-11 1.3436518400579288e+02 0.0000000000000000e+00  -2.3258576156605317e-12 1.3436518400579212e+02 0.0000000000000000e+00  -7.0326758145941954e-12 1.3436518400579396e+02 0.0000000000000000e+00  -3.0916111411912436e-12 1.3436518400579149e+02 0.0000000000000000e+00  -7.7455244183378738e-09 1.3436518400579129e+02 0.0000000000000000e+00  -7.2101832325204696e-05 1.3436518400578638e+02 0.0000000000000000e+00  2.0017084929901721e+00 1.3436518400579402e+02 0.0000000000000000e+00  -1.9883941815863322e+00 1.4633647843497573e+02 0.0000000000000000e+00  8.1176708304074826e-05 1.4633647843498849e+02 0.0000000000000000e+00  3.2783225032737529e-09 1.4633647843498485e+02 0.0000000000000000e+00  -9.4106437659596176e-12 1.4633647843498338e+02 0.0000000000000000e+00  -6.3122785696766653e-12 1.4633647843497792e+02 0.0000000000000000e+00  -8.9866199598222559e-12 1.4633647843497900e+02 0.0000000000000000e+00  -2.0169188029795391e-11 1.4633647843498301e+02 0.0000000000000000e+00  -1.4816514176821715e-11 1.4633647843498434e+02 0.0000000000000000e+00  -2.2377784265665353e-11 1.4633647843497857e+02 0.0000000000000000e+00  -1.9125150424263542e-11 1.4633647843497647e+02 0.0000000000000000e+00  -2.1425041698048844e-11 1.4633647843498102e+02 0.0000000000000000e+00  -2.2333025848372776e-11 1.4633647843498531e+02 0.0000000000000000e+00  -2.5205698159429668e-11 1.4633647843498514e+02 0.0000000000000000e+00  -1.9044107323795126e-11 1.4633647843498616e+02 0.0000000000000000e+00  -9.1312058316932796e-12 1.4633647843498264e+02 0.0000000000000000e+00  -1.1122016030878609e-11 1.4633647843498866e+02 0.0000000000000000e+00  -9.8717777798645410e-12 1.4633647843497795e+02 0.0000000000000000e+00  5.5509045029867600e-12 1.4633647843498503e+02 0.0000000000000000e+00  -3.2769077650653728e-09 1.4633647843498645e+02 0.0000000000000000e+00  -8.1176719674192984e-05 1.4633647843498775e+02 0.0000000000000000e+00  1.9883941816018358e+00 1.4633647843498611e+02 0.0000000000000000e+00  -1.9724820057309609e+00 1.5822021141617006e+02 0.0000000000000000e+00  9.0356289315446993e-05 1.5822021141616594e+02 0.0000000000000000e+00  -1.3280627769037118e-09 1.5822021141616941e+02 0.0000000000000000e+00  -1.2631381200500071e-11 1.5822021141617543e+02 0.0000000000000000e+00  -6.1802316377858555e-12 1.5822021141617191e+02 0.0000000000000000e+00  -9.9780505474899671e-12 1.5822021141617282e+02 0.0000000000000000e+00  -1.3209279077627840e-11 1.5822021141616653e+02 0.0000000000000000e+00  -1.5694494787800914e-11 1.5822021141617429e+02 0.000000000000000