<?xml version="1.0"?>
<VTKFile type="UnstructuredGrid"  version="0.1"  >
<UnstructuredGrid>
<Piece  NumberOfPoints="1091" NumberOfCells="2050">
<Points>
<DataArray  type="Float64"  NumberOfComponents="3"  format="ascii">-0.5 -1 0  -0.4 -1 0  -0.3 -1 0  -0.2 -1 0  -0.09999999999999998 -1 0  0 -1 0  0.09999999999999998 -1 0  0.2 -1 0  0.3 -1 0  0.4 -1 0  0.5 -1 0  -0.5 -0.98 0  -0.4 -0.98 0  -0.3 -0.98 0  -0.2 -0.98 0  -0.09999999999999998 -0.98 0  0 -0.98 0  0.09999999999999998 -0.98 0  0.2 -0.98 0  0.3 -0.98 0  0.4 -0.98 0  0.5 -0.98 0  -0.5 -0.96 0  -0.4 -0.96 0  -0.3 -0.96 0  -0.2 -0.96 0  -0.09999999999999998 -0.96 0  0 -0.96 0  0.09999999999999998 -0.96 0  0.2 -0.96 0  0.3 -0.96 0  0.4 -0.96 0  0.5 -0.96 0  -0.5 -0.9399999999999999 0  -0.4 -0.9399999999999999 0  -0.3 -0.9399999999999999 0  -0.2 -0.9399999999999999 0  -0.09999999999999998 -0.9399999999999999 0  0 -0.9399999999999999 0  0.09999999999999998 -0.9399999999999999 0  0.2 -0.9399999999999999 0  0.3 -0.9399999999999999 0  0.4 -0.9399999999999999 0  0.5 -0.9399999999999999 0  -0.5 -0.92 0  -0.4 -0.92 0  -0.3 -0.92 0  -0.2 -0.92 0  -0.09999999999999998 -0.92 0  0 -0.92 0  0.09999999999999998 -0.92 0  0.2 -0.92 0  0.3 -0.92 0  0.4 -0.92 0  0.5 -0.92 0  -0.5 -0.9 0  -0.4 -0.9 0  -0.3 -0.9 0  -0.2 -0.9 0  -0.09999999999999998 -0.9 0  0 -0.9 0  0.09999999999999998 -0.9 0  0.2 -0.9 0  0.3 -0.9 0  0.4 -0.9 0  0.5 -0.9 0  -0.5 -0.88 0  -0.4 -0.88 0  -0.3 -0.88 0  -0.2 -0.88 0  -0.09999999999999998 -0.88 0  0 -0.88 0  0.09999999999999998 -0.88 0  0.2 -0.88 0  0.3 -0.88 0  0.4 -0.88 0  0.5 -0.88 0  -0.5 -0.86 0  -0.4 -0.86 0  -0.3 -0.86 0  -0.2 -0.86 0  -0.09999999999999998 -0.86 0  0 -0.86 0  0.09999999999999998 -0.86 0  0.2 -0.86 0  0.3 -0.86 0  0.4 -0.86 0  0.5 -0.86 0  -0.5 -0.84 0  -0.4 -0.84 0  -0.3 -0.84 0  -0.2 -0.84 0  -0.09999999999999998 -0.84 0  0 -0.84 0  0.09999999999999998 -0.84 0  0.2 -0.84 0  0.3 -0.84 0  0.4 -0.84 0  0.5 -0.84 0  -0.5 -0.8200000000000001 0  -0.4 -0.8200000000000001 0  -0.3 -0.8200000000000001 0  -0.2 -0.8200000000000001 0  -0.09999999999999998 -0.8200000000000001 0  0 -0.8200000000000001 0  0.09999999999999998 -0.8200000000000001 0  0.2 -0.8200000000000001 0  0.3 -0.8200000000000001 0  0.4 -0.8200000000000001 0  0.5 -0.8200000000000001 0  -0.5 -0.8 0  -0.4 -0.8 0  -0.3 -0.8 0  -0.2 -0.8 0  -0.09999999999999998 -0.8 0  0 -0.8 0  0.09999999999999998 -0.8 0  0.2 -0.8 0  0.3 -0.8 0  0.4 -0.8 0  0.5 -0.8 0  -0.5 -0.78 0  -0.4 -0.78 0  -0.3 -0.78 0  -0.2 -0.78 0  -0.09999999999999998 -0.78 0  0 -0.78 0  0.09999999999999998 -0.78 0  0.2 -0.78 0  0.3 -0.78 0  0.4 -0.78 0  0.5 -0.78 0  -0.5 -0.76 0  -0.4 -0.76 0  -0.3 -0.76 0  -0.2 -0.76 0  -0.09999999999999998 -0.76 0  0 -0.76 0  0.09999999999999998 -0.76 0  0.2 -0.76 0  0.3 -0.76 0  0.4 -0.76 0  0.5 -0.76 0  -0.5 -0.74 0  -0.4 -0.74 0  -0.3 -0.74 0  -0.2 -0.74 0  -0.09999999999999998 -0.74 0  0 -0.74 0  0.09999999999999998 -0.74 0  0.2 -0.74 0  0.3 -0.74 0  0.4 -0.74 0  0.5 -0.74 0  -0.5 -0.72 0  -0.4 -0.72 0  -0.3 -0.72 0  -0.2 -0.72 0  -0.09999999999999998 -0.72 0  0 -0.72 0  0.09999999999999998 -0.72 0  0.2 -0.72 0  0.3 -0.72 0  0.4 -0.72 0  0.5 -0.72 0  -0.5 -0.7 0  -0.4 -0.7 0  -0.3 -0.7 0  -0.2 -0.7 0  -0.09999999999999998 -0.7 0  0 -0.7 0  0.09999999999999998 -0.7 0  0.2 -0.7 0  0.3 -0.7 0  0.4 -0.7 0  0.5 -0.7 0  -0.5 -0.6799999999999999 0  -0.4 -0.6799999999999999 0  -0.3 -0.6799999999999999 0  -0.2 -0.6799999999999999 0  -0.09999999999999998 -0.6799999999999999 0  0 -0.6799999999999999 0  0.09999999999999998 -0.6799999999999999 0  0.2 -0.6799999999999999 0  0.3 -0.6799999999999999 0  0.4 -0.6799999999999999 0  0.5 -0.6799999999999999 0  -0.5 -0.6599999999999999 0  -0.4 -0.6599999999999999 0  -0.3 -0.6599999999999999 0  -0.2 -0.6599999999999999 0  -0.09999999999999998 -0.6599999999999999 0  0 -0.6599999999999999 0  0.09999999999999998 -0.6599999999999999 0  0.2 -0.6599999999999999 0  0.3 -0.6599999999999999 0  0.4 -0.6599999999999999 0  0.5 -0.6599999999999999 0  -0.5 -0.64 0  -0.4 -0.64 0  -0.3 -0.64 0  -0.2 -0.64 0  -0.09999999999999998 -0.64 0  0 -0.64 0  0.09999999999999998 -0.64 0  0.2 -0.64 0  0.3 -0.64 0  0.4 -0.64 0  0.5 -0.64 0  -0.5 -0.62 0  -0.4 -0.62 0  -0.3 -0.62 0  -0.2 -0.62 0  -0.09999999999999998 -0.62 0  0 -0.62 0  0.09999999999999998 -0.62 0  0.2 -0.62 0  0.3 -0.62 0  0.4 -0.62 0  0.5 -0.62 0  -0.5 -0.6 0  -0.4 -0.6 0  -0.3 -0.6 0  -0.2 -0.6 0  -0.09999999999999998 -0.6 0  0 -0.6 0  0.09999999999999998 -0.6 0  0.2 -0.6 0  0.3 -0.6 0  0.4 -0.6 0  0.5 -0.6 0  -0.5 -0.5800000000000001 0  -0.4 -0.5800000000000001 0  -0.3 -0.5800000000000001 0  -0.2 -0.5800000000000001 0  -0.09999999999999998 -0.5800000000000001 0  0 -0.5800000000000001 0  0.09999999999999998 -0.5800000000000001 0  0.2 -0.5800000000000001 0  0.3 -0.5800000000000001 0  0.4 -0.5800000000000001 0  0.5 -0.5800000000000001 0  -0.5 -0.5600000000000001 0  -0.4 -0.5600000000000001 0  -0.3 -0.5600000000000001 0  -0.2 -0.5600000000000001 0  -0.09999999999999998 -0.5600000000000001 0  0 -0.5600000000000001 0  0.09999999999999998 -0.5600000000000001 0  0.2 -0.5600000000000001 0  0.3 -0.5600000000000001 0  0.4 -0.5600000000000001 0  0.5 -0.5600000000000001 0  -0.5 -0.54 0  -0.4 -0.54 0  -0.3 -0.54 0  -0.2 -0.54 0  -0.09999999999999998 -0.54 0  0 -0.54 0  0.09999999999999998 -0.54 0  0.2 -0.54 0  0.3 -0.54 0  0.4 -0.54 0  0.5 -0.54 0  -0.5 -0.52 0  -0.4 -0.52 0  -0.3 -0.52 0  -0.2 -0.52 0  -0.09999999999999998 -0.52 0  0 -0.52 0  0.09999999999999998 -0.52 0  0.2 -0.52 0  0.3 -0.52 0  0.4 -0.52 0  0.5 -0.52 0  -0.5 -0.5 0  -0.4 -0.5 0  -0.3 -0.5 0  -0.2 -0.5 0  -0.09999999999999998 -0.5 0  0 -0.5 0  0.09999999999999998 -0.5 0  0.2 -0.5 0  0.3 -0.5 0  0.4 -0.5 0  0.5 -0.5 0  -0.5 -0.48 0  -0.4 -0.48 0  -0.3 -0.48 0  -0.2 -0.48 0  -0.09999999999999998 -0.48 0  0 -0.48 0  0.09999999999999998 -0.48 0  0.2 -0.48 0  0.3 -0.48 0  0.4 -0.48 0  0.5 -0.48 0  -0.5 -0.46 0  -0.4 -0.46 0  -0.3 -0.46 0  -0.2 -0.46 0  -0.09999999999999998 -0.46 0  0 -0.46 0  0.09999999999999998 -0.46 0  0.2 -0.46 0  0.3 -0.46 0  0.4 -0.46 0  0.5 -0.46 0  -0.5 -0.4399999999999999 0  -0.4 -0.4399999999999999 0  -0.3 -0.4399999999999999 0  -0.2 -0.4399999999999999 0  -0.09999999999999998 -0.4399999999999999 0  0 -0.4399999999999999 0  0.09999999999999998 -0.4399999999999999 0  0.2 -0.4399999999999999 0  0.3 -0.4399999999999999 0  0.4 -0.4399999999999999 0  0.5 -0.4399999999999999 0  -0.5 -0.42 0  -0.4 -0.42 0  -0.3 -0.42 0  -0.2 -0.42 0  -0.09999999999999998 -0.42 0  0 -0.42 0  0.09999999999999998 -0.42 0  0.2 -0.42 0  0.3 -0.42 0  0.4 -0.42 0  0.5 -0.42 0  -0.5 -0.4 0  -0.4 -0.4 0  -0.3 -0.4 0  -0.2 -0.4 0  -0.09999999999999998 -0.4 0  0 -0.4 0  0.09999999999999998 -0.4 0  0.2 -0.4 0  0.3 -0.4 0  0.4 -0.4 0  0.5 -0.4 0  -0.5 -0.38 0  -0.4 -0.38 0  -0.3 -0.38 0  -0.2 -0.38 0  -0.09999999999999998 -0.38 0  0 -0.38 0  0.09999999999999998 -0.38 0  0.2 -0.38 0  0.3 -0.38 0  0.4 -0.38 0  0.5 -0.38 0  -0.5 -0.36 0  -0.4 -0.36 0  -0.3 -0.36 0  -0.2 -0.36 0  -0.09999999999999998 -0.36 0  0 -0.36 0  0.09999999999999998 -0.36 0  0.2 -0.36 0  0.3 -0.36 0  0.4 -0.36 0  0.5 -0.36 0  -0.5 -0.34 0  -0.4 -0.34 0  -0.3 -0.34 0  -0.2 -0.34 0  -0.09999999999999998 -0.34 0  0 -0.34 0  0.09999999999999998 -0.34 0  0.2 -0.34 0  0.3 -0.34 0  0.4 -0.34 0  0.5 -0.34 0  -0.5 -0.32 0  -0.4 -0.32 0  -0.3 -0.32 0  -0.2 -0.32 0  -0.09999999999999998 -0.32 0  0 -0.32 0  0.09999999999999998 -0.32 0  0.2 -0.32 0  0.3 -0.32 0  0.4 -0.32 0  0.5 -0.32 0  -0.5 -0.3 0  -0.4 -0.3 0  -0.3 -0.3 0  -0.2 -0.3 0  -0.09999999999999998 -0.3 0  0 -0.3 0  0.09999999999999998 -0.3 0  0.2 -0.3 0  0.3 -0.3 0  0.4 -0.3 0  0.5 -0.3 0  -0.5 -0.28 0  -0.4 -0.28 0  -0.3 -0.28 0  -0.2 -0.28 0  -0.09999999999999998 -0.28 0  0 -0.28 0  0.09999999999999998 -0.28 0  0.2 -0.28 0  0.3 -0.28 0  0.4 -0.28 0  0.5 -0.28 0  -0.5 -0.26 0  -0.4 -0.26 0  -0.3 -0.26 0  -0.2 -0.26 0  -0.09999999999999998 -0.26 0  0 -0.26 0  0.09999999999999998 -0.26 0  0.2 -0.26 0  0.3 -0.26 0  0.4 -0.26 0  0.5 -0.26 0  -0.5 -0.24 0  -0.4 -0.24 0  -0.3 -0.24 0  -0.2 -0.24 0  -0.09999999999999998 -0.24 0  0 -0.24 0  0.09999999999999998 -0.24 0  0.2 -0.24 0  0.3 -0.24 0  0.4 -0.24 0  0.5 -0.24 0  -0.5 -0.22 0  -0.4 -0.22 0  -0.3 -0.22 0  -0.2 -0.22 0  -0.09999999999999998 -0.22 0  0 -0.22 0  0.09999999999999998 -0.22 0  0.2 -0.22 0  0.3 -0.22 0  0.4 -0.22 0  0.5 -0.22 0  -0.5 -0.2 0  -0.4 -0.2 0  -0.3 -0.2 0  -0.2 -0.2 0  -0.09999999999999998 -0.2 0  0 -0.2 0  0.09999999999999998 -0.2 0  0.2 -0.2 0  0.3 -0.2 0  0.4 -0.2 0  0.5 -0.2 0  -0.5 -0.18 0  -0.4 -0.18 0  -0.3 -0.18 0  -0.2 -0.18 0  -0.09999999999999998 -0.18 0  0 -0.18 0  0.09999999999999998 -0.18 0  0.2 -0.18 0  0.3 -0.18 0  0.4 -0.18 0  0.5 -0.18 0  -0.5 -0.16 0  -0.4 -0.16 0  -0.3 -0.16 0  -0.2 -0.16 0  -0.09999999999999998 -0.16 0  0 -0.16 0  0.09999999999999998 -0.16 0  0.2 -0.16 0  0.3 -0.16 0  0.4 -0.16 0  0.5 -0.16 0  -0.5 -0.14 0  -0.4 -0.14 0  -0.3 -0.14 0  -0.2 -0.14 0  -0.09999999999999998 -0.14 0  0 -0.14 0  0.09999999999999998 -0.14 0  0.2 -0.14 0  0.3 -0.14 0  0.4 -0.14 0  0.5 -0.14 0  -0.5 -0.12 0  -0.4 -0.12 0  -0.3 -0.12 0  -0.2 -0.12 0  -0.09999999999999998 -0.12 0  0 -0.12 0  0.09999999999999998 -0.12 0  0.2 -0.12 0  0.3 -0.12 0  0.4 -0.12 0  0.5 -0.12 0  -0.5 -0.09999999999999998 0  -0.4 -0.09999999999999998 0  -0.3 -0.09999999999999998 0  -0.2 -0.09999999999999998 0  -0.09999999999999998 -0.09999999999999998 0  0 -0.09999999999999998 0  0.09999999999999998 -0.09999999999999998 0  0.2 -0.09999999999999998 0  0.3 -0.09999999999999998 0  0.4 -0.09999999999999998 0  0.5 -0.09999999999999998 0  -0.5 -0.07999999999999996 0  -0.4 -0.07999999999999996 0  -0.3 -0.07999999999999996 0  -0.2 -0.07999999999999996 0  -0.09999999999999998 -0.07999999999999996 0  0 -0.07999999999999996 0  0.09999999999999998 -0.07999999999999996 0  0.2 -0.07999999999999996 0  0.3 -0.07999999999999996 0  0.4 -0.07999999999999996 0  0.5 -0.07999999999999996 0  -0.5 -0.06000000000000005 0  -0.4 -0.06000000000000005 0  -0.3 -0.06000000000000005 0  -0.2 -0.06000000000000005 0  -0.09999999
[...]
<PointData  Vectors="flow"> 
<DataArray  type="Float64"  Name="flow"  NumberOfComponents="3" format="ascii">-2.8655752120047137e-15 -3.6382229926605687e-15 0.0000000000000000e+00  -1.4229484803447447e-15 1.6634951015434156e-15 0.0000000000000000e+00  -3.5510690960778115e-16 -5.8663390677446900e-15 0.0000000000000000e+00  3.2656878587905177e-15 2.2436921088758902e-15 0.0000000000000000e+00  -7.8663768379107088e-16 3.7946266560566221e-15 0.0000000000000000e+00  1.2466567535623771e-15 -1.7239332694735485e-15 0.0000000000000000e+00  3.2329583261484863e-15 4.2087293753614270e-15 0.0000000000000000e+00  1.0878375359814479e-15 2.1584029764701839e-15 0.0000000000000000e+00  8.0818186941844938e-16 7.3235357196466568e-16 0.0000000000000000e+00  2.0686305319362928e-15 -4.4079052174101037e-15 0.0000000000000000e+00  2.2019572986963238e-15 -5.7184260937079113e-15 0.0000000000000000e+00  -1.3847654721354682e-15 1.1717308614845278e-15 0.0000000000000000e+00  -1.8644745920609745e-15 3.6204973199692337e-15 0.0000000000000000e+00  -3.5843363738434291e-16 -7.7359224328768353e-16 0.0000000000000000e+00  3.2694164223421939e-15 2.8700646023063389e-15 0.0000000000000000e+00  -6.5547223788542134e-16 2.2485471720747971e-16 0.0000000000000000e+00  1.2953913709313525e-15 5.9371455271339881e-16 0.0000000000000000e+00  3.6436661735589146e-15 -1.6751689266902994e-16 0.0000000000000000e+00  7.0714675917045404e-16 2.9666109025379576e-16 0.0000000000000000e+00  1.2897936607499996e-15 2.1659221553585605e-15 0.0000000000000000e+00  1.7168768032906212e-15 2.6626194493266981e-15 0.0000000000000000e+00  1.4864064098515455e-15 -1.6557526733575889e-15 0.0000000000000000e+00  -1.2164603745496458e-15 -3.0417214629755157e-15 0.0000000000000000e+00  -1.7721633637112740e-15 3.0016868321933711e-16 0.0000000000000000e+00  -6.3861783946930438e-16 -5.1195390092264916e-15 0.0000000000000000e+00  3.8421324536948560e-15 7.7027282818215689e-16 0.0000000000000000e+00  -2.4955901239661543e-16 -1.2766002695711604e-15 0.0000000000000000e+00  6.0170738876824768e-16 5.7182976519930834e-15 0.0000000000000000e+00  3.6179835307612616e-15 8.6246445905423991e-15 0.0000000000000000e+00  1.6559894723814397e-15 7.2282473263176095e-15 0.0000000000000000e+00  8.6768644871471835e-16 6.3407335232909452e-16 0.0000000000000000e+00  4.9734072504940851e-16 5.6161173603773671e-16 0.0000000000000000e+00  8.7324107331950576e-16 9.7540806528460954e-16 0.0000000000000000e+00  -2.0238269610058680e-15 8.9175193169936447e-15 0.0000000000000000e+00  -1.8667048907618488e-15 -5.5117733360635796e-15 0.0000000000000000e+00  -3.9495381935409242e-16 3.3616222163831524e-15 0.0000000000000000e+00  3.5906094357261428e-15 -1.1916942511232583e-16 0.0000000000000000e+00  -5.8084311813192188e-16 -7.2877567798135745e-15 0.0000000000000000e+00  3.6483146265531128e-15 2.8915726306671382e-15 0.0000000000000000e+00  4.0618038710862046e-15 1.6490803926070396e-14 0.0000000000000000e+00  -1.8086445357778205e-15 1.3092215846379789e-14 0.0000000000000000e+00  2.6105193057751143e-16 -2.3955405810807846e-14 0.0000000000000000e+00  2.9601585017398894e-15 1.3082556751414328e-14 0.0000000000000000e+00  1.2217862638493452e-15 2.6219924880385851e-15 0.0000000000000000e+00  -5.7529383789693203e-15 1.5363688580894248e-14 0.0000000000000000e+00  -3.1355406281785619e-15 2.0496759527779145e-16 0.0000000000000000e+00  -5.6296974567155830e-17 -9.4895975181707916e-16 0.0000000000000000e+00  2.1909365188541506e-15 -1.1182569316626524e-14 0.0000000000000000e+00  1.3341864135166831e-15 1.2835539174527510e-14 0.0000000000000000e+00  4.2498521800137008e-15 9.3189147465698179e-15 0.0000000000000000e+00  6.4786268022606023e-15 2.3744377230189320e-15 0.0000000000000000e+00  -7.2944100996354052e-15 1.9016607978591431e-14 0.0000000000000000e+00  2.1446882522332416e-15 -1.8159910478256440e-14 0.0000000000000000e+00  4.6515714473476316e-15 2.2940906527810249e-14 0.0000000000000000e+00  -7.4984397530508466e-15 -1.7843470446321215e-14 0.0000000000000000e+00  -5.9065844877667859e-15 -8.3646499330442530e-16 0.0000000000000000e+00  -5.1164571270486884e-15 3.1972146290074171e-16 0.0000000000000000e+00  -1.5433996873381272e-15 -2.2598484207886879e-15 0.0000000000000000e+00  5.0512931383646356e-15 2.4314316177692469e-16 0.0000000000000000e+00  2.6962634930765705e-15 -9.1253146616771695e-15 0.0000000000000000e+00  2.0500911440840595e-15 -8.3343053232234691e-15 0.0000000000000000e+00  7.4517918548309763e-15 -1.0269988839404275e-14 0.0000000000000000e+00  -7.3219034503163509e-15 -3.3167128134658838e-15 0.0000000000000000e+00  1.6159927497212646e-15 -3.3875840357312268e-18 0.0000000000000000e+00  3.1834369155824449e-15 -7.7855109918921850e-15 0.0000000000000000e+00  -1.2290356112441188e-14 -1.2796843517865131e-14 0.0000000000000000e+00  -5.4060431748604671e-15 -2.4284528189557224e-14 0.0000000000000000e+00  -4.1880989394000560e-15 -8.9456603391589601e-15 0.0000000000000000e+00  1.1747917801715125e-15 -8.6024166093284960e-15 0.0000000000000000e+00  1.5282195879050918e-15 9.9281704920229593e-15 0.0000000000000000e+00  1.3366651074102592e-15 -1.2379266560065055e-14 0.0000000000000000e+00  4.1868991328375773e-15 4.3124428957017294e-15 0.0000000000000000e+00  4.7889878084475913e-15 -9.5684580477306085e-15 0.0000000000000000e+00  -3.6496392663019305e-15 -7.2348985369340348e-15 0.0000000000000000e+00  5.9590514122747895e-16 6.7603257488924936e-15 0.0000000000000000e+00  2.2395114012372231e-15 -8.5633977053778958e-15 0.0000000000000000e+00  -8.5577177939146159e-15 -3.7020733248165086e-15 0.0000000000000000e+00  -8.8908799040897328e-16 -1.3910287813265358e-14 0.0000000000000000e+00  -2.4810352231808562e-15 5.8496765215666579e-15 0.0000000000000000e+00  1.3042591308584213e-15 7.4997803859103539e-15 0.0000000000000000e+00  1.8893350891203496e-15 -6.0606404515447172e-15 0.0000000000000000e+00  3.5584329811131650e-16 -9.8748975027523499e-15 0.0000000000000000e+00  3.2157420478586742e-15 -8.2008478800522884e-15 0.0000000000000000e+00  5.3738565298614657e-15 1.4921574927587622e-14 0.0000000000000000e+00  -2.1442576661910304e-15 -4.5808030606449633e-15 0.0000000000000000e+00  -6.5568416535941437e-16 -1.7371746718129859e-15 0.0000000000000000e+00  1.4412042109443944e-15 -4.4993837625835371e-15 0.0000000000000000e+00  -9.8963113602624767e-15 -1.1165928502659964e-14 0.0000000000000000e+00  -5.4718461402267274e-16 -1.1561409453586411e-15 0.0000000000000000e+00  1.4527942213737529e-15 1.1069617684817335e-15 0.0000000000000000e+00  -1.0734534010362403e-15 5.6740867341226017e-16 0.0000000000000000e+00  -8.3479434848567268e-18 1.4179978323710965e-16 0.0000000000000000e+00  1.1922174678847639e-15 2.9958166200127559e-15 0.0000000000000000e+00  1.0148749456705251e-14 -2.5082067415984854e-15 0.0000000000000000e+00  5.0908988777957106e-15 5.4307103714606781e-14 0.0000000000000000e+00  -8.5836538759646087e-15 1.0847363692385732e-14 0.0000000000000000e+00  1.8391794950329781e-15 -9.2779578409273843e-15 0.0000000000000000e+00  7.2429439561442668e-16 3.6250530823356659e-14 0.0000000000000000e+00  -1.1454641005363749e-14 -1.8526928653794893e-16 0.0000000000000000e+00  -8.7834269052443059e-16 2.8295584790616288e-14 0.0000000000000000e+00  -1.7911488422739442e-15 5.8147846029691030e-15 0.0000000000000000e+00  1.0260958988269138e-16 1.6259691399083186e-14 0.0000000000000000e+00  3.1564946656208549e-15 2.1688173222249389e-15 0.0000000000000000e+00  -1.4183187924590092e-15 1.9431860897254829e-14 0.0000000000000000e+00  1.1397930107732505e-14 -1.1531500748113272e-14 0.0000000000000000e+00  9.6135167800577658e-15 -2.3317588289019704e-14 0.0000000000000000e+00  -1.6088648730660876e-14 1.4633259923562205e-14 0.0000000000000000e+00  3.6256519499332613e-15 -1.6649965378750022e-14 0.0000000000000000e+00  6.0042800441475867e-15 1.7109893188904598e-14 0.0000000000000000e+00  -3.0014072930223589e-14 -4.8764029403131955e-15 0.0000000000000000e+00  -8.7864149737208910e-15 1.2239986285998413e-14 0.0000000000000000e+00  -1.1627377784579959e-15 5.2001321878395324e-15 0.0000000000000000e+00  -1.3372194519947537e-15 2.5987975948737508e-14 0.0000000000000000e+00  -1.7495368111321592e-15 -1.4657016812010254e-14 0.0000000000000000e+00  1.6942974993829934e-15 -2.3982165676834901e-14 0.0000000000000000e+00  2.9048284351488906e-15 1.4740066275125928e-14 0.0000000000000000e+00  1.1250239573479693e-14 -2.2601321347105868e-14 0.0000000000000000e+00  -6.7724172629253757e-15 4.9593400255986806e-15 0.0000000000000000e+00  7.7981566208853963e-16 2.9573372689433684e-14 0.0000000000000000e+00  1.0834810599672477e-15 3.9909853571099543e-15 0.0000000000000000e+00  -2.8972716875418175e-14 -4.7411509736544738e-14 0.0000000000000000e+00  -1.6886066743605502e-15 -1.9823407833182377e-14 0.0000000000000000e+00  1.4026712011262511e-15 3.4401280130891595e-14 0.0000000000000000e+00  -1.9862416979902962e-15 -1.6452569833332215e-15 0.0000000000000000e+00  -7.4224029253092322e-15 3.6438926093236445e-15 0.0000000000000000e+00  2.7533289904772919e-15 -5.0100041382642250e-15 0.0000000000000000e+00  8.9099870124663728e-15 2.6719511806692473e-15 0.0000000000000000e+00  7.1275779104220068e-15 3.1983356141634448e-15 0.0000000000000000e+00  -5.5024495020657090e-15 -1.6883234719940568e-14 0.0000000000000000e+00  6.0338533689231688e-15 2.1932291106255508e-14 0.0000000000000000e+00  -7.1428696522759514e-15 1.6570803814279063e-14 0.0000000000000000e+00  -3.5723938504063138e-14 -6.9893974791983209e-15 0.0000000000000000e+00  1.0043259996528434e-14 4.2889759774341799e-15 0.0000000000000000e+00  -7.8866654665008440e-16 2.2002350655047248e-14 0.0000000000000000e+00  -9.0263430234951296e-15 -5.6045074568242058e-14 0.0000000000000000e+00  -1.0463918905328581e-15 -2.5759692554922027e-14 0.0000000000000000e+00  4.1816754630583922e-15 -1.4958978228813471e-14 0.0000000000000000e+00  5.0770794907119077e-15 4.7045406201482957e-14 0.0000000000000000e+00  7.4259327185449633e-15 -4.5602865297491600e-14 0.0000000000000000e+00  -3.4964323155665144e-15 -3.3260621836026789e-14 0.0000000000000000e+00  5.9043230679924901e-15 3.9818785038790446e-15 0.0000000000000000e+00  -6.6827507553709167e-15 -2.8304014244512612e-14 0.0000000000000000e+00  -3.9767985180986345e-14 -2.2012728325778411e-15 0.0000000000000000e+00  8.0028274863024476e-15 -4.3579349887197795e-16 0.0000000000000000e+00  -6.4513685958247446e-15 2.5098258427177137e-15 0.0000000000000000e+00  -1.1221694649983741e-14 -3.6789302371576609e-14 0.0000000000000000e+00  5.1678839152924083e-17 -8.9320529431855043e-16 0.0000000000000000e+00  1.3731001278618223e-14 -1.5497375996542719e-14 0.0000000000000000e+00  2.4360560980550495e-15 2.9535619327221368e-15 0.0000000000000000e+00  -6.1897898415090081e-15 -4.8554609483578212e-14 0.0000000000000000e+00  5.7226651690833725e-15 7.5295031499469193e-16 0.0000000000000000e+00  6.6133004727286110e-15 1.7361309642202085e-14 0.0000000000000000e+00  -9.5905084005451013e-15 -9.9727503633712319e-16 0.0000000000000000e+00  -3.0083947454040114e-14 -6.4816174262694354e-16 0.0000000000000000e+00  4.9126330182526413e-15 1.2225424592674826e-14 0.0000000000000000e+00  -8.8819451196490492e-15 1.2182615691693254e-14 0.0000000000000000e+00  -1.1325140966011216e-14 -3.1289027596094687e-14 0.0000000000000000e+00  7.5465344507808768e-15 -1.3581631217077570e-14 0.0000000000000000e+00  4.5073560953245435e-15 6.4670737858167224e-14 0.0000000000000000e+00  -1.9235019955197298e-15 -9.9259739775988564e-15 0.0000000000000000e+00  3.3516180312060119e-15 -1.8403919801545139e-14 0.0000000000000000e+00  7.4166586649699471e-15 4.9222105563727022e-15 0.0000000000000000e+00  6.7245258127037005e-15 -3.7955906827050793e-14 0.0000000000000000e+00  -5.3157904267012269e-15 3.5525049452348415e-14 0.0000000000000000e+00  -2.9928007726158559e-14 3.1742336355107410e-14 0.0000000000000000e+00  1.0355943331611626e-14 1.0828022715692893e-14 0.0000000000000000e+00  -1.5311720716484655e-14 3.2760169068762934e-14 0.0000000000000000e+00  -1.7025890831384165e-14 -5.5751064394023691e-14 0.0000000000000000e+00  1.8606730324905674e-14 6.1458322514999152e-15 0.0000000000000000e+00  1.4725468507302592e-14 3.0045020027323714e-14 0.0000000000000000e+00  -7.8740330190629769e-15 1.6338772800411596e-14 0.0000000000000000e+00  -2.2752964904333027e-15 2.5962970417528861e-14 0.0000000000000000e+00  3.9827343844080442e-15 -3.3610759126450374e-14 0.0000000000000000e+00  1.0930622215546232e-14 3.3999439501174018e-14 0.0000000000000000e+00  -1.6883085255899260e-15 1.5423570155597957e-14 0.0000000000000000e+00  -4.3999306412575781e-14 4.0610697140490341e-15 0.0000000000000000e+00  1.9328738274396372e-14 3.1217235202148495e-14 0.0000000000000000e+00  -2.5035530671823270e-14 1.9598018740430532e-14 0.0000000000000000e+00  -1.1639107935191118e-14 1.0627618843024318e-14 0.0000000000000000e+00  1.9987506665847235e-14 5.6807947218617840e-14 0.0000000000000000e+00  1.8491358436665362e-15 -2.4405713547456533e-14 0.0000000000000000e+00  -8.9154113152231609e-15 -5.2896936299871472e-14 0.0000000000000000e+00  -6.8097661864673784e-15 -7.1183512645995877e-14 0.0000000000000000e+00  1.3524608249714113e-14 -5.1422132238659660e-14 0.0000000000000000e+00  1.6302064397822291e-14 -8.4239821639305733e-15 0.0000000000000000e+00  -6.9635705934945248e-15 -1.3766420669107305e-14 0.0000000000000000e+00  -2.6055982413074248e-14 4.4829551493320152e-14 0.0000000000000000e+00  1.2081288586355892e-14 2.2284775422502073e-17 0.0000000000000000e+00  -2.2625078537193968e-14 -3.8850738149827228e-14 0.0000000000000000e+00  -6.3184817882045555e-15 2.3834662384370357e-14 0.0000000000000000e+00  1.4315998230924922e-14 -1.2920899173065314e-14 0.0000000000000000e+00  2.0935300419327486e-15 4.3456771308217909e-15 0.0000000000000000e+00  -1.4626183644977437e-14 4.3716947420193669e-15 0.0000000000000000e+00  -9.6885321545707217e-15 -9.1689314103995015e-15 0.0000000000000000e+00  1.4531493467356761e-14 -3.0683907123422071e-14 0.0000000000000000e+00  1.8690296350712066e-14 -8.6985021908951256e-14 0.0000000000000000e+00  6.0662136834104616e-15 1.7323867145118351e-14 0.0000000000000000e+00  -2.1085244961725254e-14 -2.1960235872269296e-14 0.0000000000000000e+00  1.5274401534928704e-15 7.1659759940800179e-14 0.0000000000000000e+00  -1.9615840827271345e-14 -1.0987333809085020e-14 0.0000000000000000e+00  -1.2044967147260752e-14 2.4360210368639986e-14 0.0000000000000000e+00  8.7843408909234730e-15 -2.4179630792812106e-14 0.0000000000000000e+00  2.6010639790787290e-15 -3.5101715260896494e-14 0.0000000000000000e+00  -8.0885140917319467e-15 -5.9797767705635070e-14 0.0000000000000000e+00  -7.8230387711736503e-15 6.6817737656774082e-14 0.0000000000000000e+00  1.2776339191656558e-15 3.5477758451234806e-15 0.0000000000000000e+00  2.6024525179659450e-14 -2.4296495664530417e-14 0.0000000000000000e+00  2.2692732912893412e-15 2.0417387797031784e-14 0.0000000000000000e+00  -3.7239173225654689e-14 -4.8538564882461562e-14 0.0000000000000000e+00  -1.9115187977387372e-14 2.4616895053272566e-14 0.0000000000000000e+00  -2.8884213126553955e-14 -5.9742269609729559e-14 0.0000000000000000e+00  -6.2366796819591614e-16 -2.7479253025490379e-14 0.0000000000000000e+00  9.7991789729639013e-15 8.4033509127399385e-14 0.0000000000000000e+00  -7.5033212449555165e-15 -7.5542624549529099e-15 0.0000000000000000e+00  -1.5931192555648539e-15 -2.1323608975526847e-14 0.0000000000000000e+00  7.6488722931602515e-16 4.0248695627507132e-14 0.0000000000000000e+00  -7.6753096056262023e-15 3.2368961377762500e-14 0.0000000000000000e+00  2.9617421624612518e-14 2.2381701558703174e-14 0.0000000000000000e+00  -1.8650528458031240e-15 5.2002711125432024e-14 0.0000000000000000e+00  -5.0092604345331594e-14 -5.5717819956201461e-14 0.0000000000000000e+00  -2.4567550247966762e-14 6.2431889366339240e-15 0.0000000000000000e+00  -3.1398241227829585e-14 1.2134702698875086e-14 0.0000000000000000e+00  6.6706880837053403e-15 -4.5353035501599127e-15 0.0000000000000000e+00  1.1477255463668532e-14 3.0044716728909768e-14 0.0000000000000000e+00  -1.5864789825485051e-14 -6.0377511810131515e-14 0.0000000000000000e+00  5.3942432164907949e-15 1.3150169942632316e-14 0.0000000000000000e+00  2.2438305994638833e-15 -1.8667595910948928e-15 0.0000000000000000e+00  -6.1117137658613440e-15 6.5670414371855614e-14 0.0000000000000000e+00  2.9140494647077346e-14 -1.6374998924591278e-14 0.0000000000000000e+00  -1.1873943744461134e-14 -3.7403515682029037e-15 0.0000000000000000e+00  -7.1425680174582453e-14 -3.1323692459389491e-14 0.0000000000000000e+00  -2.2115528094062650e-14 -7.3411140290824837e-15 0.0000000000000000e+00  -3.0921811211231516e-14 2.1799095773450521e-14 0.0000000000000000e+00  5.2805247293136484e-15 -2.0652596228729770e-14 0.0000000000000000e+00  1.4857617190751580e-15 -8.7146774396727776e-15 0.0000000000000000e+00  -1.6270888758846191e-14 -1.4225334074053163e-14 0.0000000000000000e+00  1.3090512456012778e-14 -5.1556942475268688e-14 0.0000000000000000e+00  1.6409452028278556e-14 4.3857169747894179e-14 0.0000000000000000e+00  -4.8415284624690903e-15 8.1570134767146178e-14 0.0000000000000000e+00  9.5857015536531037e-15 2.9724380120505722e-14 0.0000000000000000e+00  -7.1856248435741218e-16 -2.3204228992638076e-14 0.0000000000000000e+00  -5.9530592498600728e-14 1.1097660468168574e-14 0.0000000000000000e+00  -1.5855645118867009e-14 -1.8295649423267076e-14 0.0000000000000000e+00  -3.3573542983374096e-14 2.3521963484040031e-14 0.0000000000000000e+00  8.1072444369799442e-16 -1.2157247787979709e-14 0.0000000000000000e+00  1.3799450481218337e-14 1.8256880466933733e-14 0.0000000000000000e+00  -1.9703211652220639e-14 2.4218039966225619e-15 0.0000000000000000e+00  9.1936923267660624e-15 1.4485897888938384e-14 0.0000000000000000e+00  2.5392940227780251e-14 3.7779893463547919e-14 0.0000000000000000e+00  -7.9223083779485517e-15 7.8536547651603240e-16 0.0000000000000000e+00  9.7264196691237720e-15 2.9854003554124721e-14 0.0000000000000000e+00  -1.8994731378373946e-14 1.1284725975153514e-14 0.0000000000000000e+00  -7.2679861691543823e-14 -9.2593149393228943e-14 0.0000000000000000e+00  -1.0438521573296761e-14 -5.3601441197479380e-15 0.0000000000000000e+00  -2.9355154415885313e-14 6.9563266479303317e-14 0.0000000000000000e+00  1.6854594819345347e-15 -2.6302871764394258e-14 0.0000000000000000e+00  -5.7570149324826153e-18 7.2686713111753613e-15 0.0000000000000000e+00  -1.5676070341156517e-14 -3.5052564650984792e-14 0.0000000000000000e+00  2.0397147944647687e-14 8.9847228541700750e-15 0.0000000000000000e+00  1.8279740354443230e-14 3.8745173267648480e-14 0.0000000000000000e+00  -1.3430477604297781e-14 -1.3671196843659340e-14 0.0000000000000000e+00  1.3621721890637387e-14 7.0975856484318213e-16 0.0000000000000000e+00  -1.9121606235999424e-14 -3.5122470605942915e-14 0.0000000000000000e+00  -7.9053734765179425e-14 5.1060860350814941e-14 0.0000000000000000e+00  1.9145048085174228e-14 -4.7885542951400160e-14 0.0000000000000000e+00  -3.5597381995893145e-14 -4.9914151936275069e-15 0.0000000000000000e+00  -1.0162589428629028e-14 -1.2247109595145099e-14 0.0000000000000000e+00  1.6137816084524975e-14 -2.3343083551787881e-14 0.0000000000000000e+00  -1.8721386207627188e-14 4.7617215717976899e-14 0.0000000000000000e+00  2.3305639035914565e-14 2.4311818892651061e-15 0.0000000000000000e+00  1.7164058731917209e-14 6.8082935077901826e-14 0.0000000000000000e+00  -8.8861668735438120e-15 -2.2499274551960908e-14 0.0000000000000000e+00  1.2672739441176897e-15 2.1401122524419119e-14 0.0000000000000000e+00  -1.5572400393289306e-14 -3.0406740590129381e-14 0.0000000000000000e+00  -5.1149929718685223e-14 1.2051948723787213e-14 0.0000000000000000e+00  -2.0372627278956506e-15 -4.9413353554798059e-14 0.0000000000000000e+00  -2.4810454203790266e-14 -4.7135463614393769e-14 0.0000000000000000e+00  -4.8120724634380141e-15 -4.7039961256156655e-15 0.0000000000000000e+00  1.0602375977914375e-14 -4.6875329223928625e-14 0.0000000000000000e+00  -1.0336126544259082e-14 5.4675190227602144e-14 0.0000000000000000e+00  3.0480223395889414