<?xml version="1.0"?>
<VTKFile type="UnstructuredGrid"  version="0.1"  >
<UnstructuredGrid>
<Piece  NumberOfPoints="1661" NumberOfCells="3200">
<Points>
<DataArray  type="Float64"  NumberOfComponents="3"  format="ascii">-0.25 -1 0  -0.225 -1 0  -0.2 -1 0  -0.175 -1 0  -0.15 -1 0  -0.125 -1 0  -0.1 -1 0  -0.07500000000000001 -1 0  -0.04999999999999999 -1 0  -0.02499999999999999 -1 0  0 -1 0  0.02500000000000002 -1 0  0.04999999999999999 -1 0  0.07500000000000001 -1 0  0.09999999999999998 -1 0  0.125 -1 0  0.15 -1 0  0.175 -1 0  0.2 -1 0  0.225 -1 0  0.25 -1 0  -0.25 -0.975 0  -0.225 -0.975 0  -0.2 -0.975 0  -0.175 -0.975 0  -0.15 -0.975 0  -0.125 -0.975 0  -0.1 -0.975 0  -0.07500000000000001 -0.975 0  -0.04999999999999999 -0.975 0  -0.02499999999999999 -0.975 0  0 -0.975 0  0.02500000000000002 -0.975 0  0.04999999999999999 -0.975 0  0.07500000000000001 -0.975 0  0.09999999999999998 -0.975 0  0.125 -0.975 0  0.15 -0.975 0  0.175 -0.975 0  0.2 -0.975 0  0.225 -0.975 0  0.25 -0.975 0  -0.25 -0.95 0  -0.225 -0.95 0  -0.2 -0.95 0  -0.175 -0.95 0  -0.15 -0.95 0  -0.125 -0.95 0  -0.1 -0.95 0  -0.07500000000000001 -0.95 0  -0.04999999999999999 -0.95 0  -0.02499999999999999 -0.95 0  0 -0.95 0  0.02500000000000002 -0.95 0  0.04999999999999999 -0.95 0  0.07500000000000001 -0.95 0  0.09999999999999998 -0.95 0  0.125 -0.95 0  0.15 -0.95 0  0.175 -0.95 0  0.2 -0.95 0  0.225 -0.95 0  0.25 -0.95 0  -0.25 -0.925 0  -0.225 -0.925 0  -0.2 -0.925 0  -0.175 -0.925 0  -0.15 -0.925 0  -0.125 -0.925 0  -0.1 -0.925 0  -0.07500000000000001 -0.925 0  -0.04999999999999999 -0.925 0  -0.02499999999999999 -0.925 0  0 -0.925 0  0.02500000000000002 -0.925 0  0.04999999999999999 -0.925 0  0.07500000000000001 -0.925 0  0.09999999999999998 -0.925 0  0.125 -0.925 0  0.15 -0.925 0  0.175 -0.925 0  0.2 -0.925 0  0.225 -0.925 0  0.25 -0.925 0  -0.25 -0.9 0  -0.225 -0.9 0  -0.2 -0.9 0  -0.175 -0.9 0  -0.15 -0.9 0  -0.125 -0.9 0  -0.1 -0.9 0  -0.07500000000000001 -0.9 0  -0.04999999999999999 -0.9 0  -0.02499999999999999 -0.9 0  0 -0.9 0  0.02500000000000002 -0.9 0  0.04999999999999999 -0.9 0  0.07500000000000001 -0.9 0  0.09999999999999998 -0.9 0  0.125 -0.9 0  0.15 -0.9 0  0.175 -0.9 0  0.2 -0.9 0  0.225 -0.9 0  0.25 -0.9 0  -0.25 -0.875 0  -0.225 -0.875 0  -0.2 -0.875 0  -0.175 -0.875 0  -0.15 -0.875 0  -0.125 -0.875 0  -0.1 -0.875 0  -0.07500000000000001 -0.875 0  -0.04999999999999999 -0.875 0  -0.02499999999999999 -0.875 0  0 -0.875 0  0.02500000000000002 -0.875 0  0.04999999999999999 -0.875 0  0.07500000000000001 -0.875 0  0.09999999999999998 -0.875 0  0.125 -0.875 0  0.15 -0.875 0  0.175 -0.875 0  0.2 -0.875 0  0.225 -0.875 0  0.25 -0.875 0  -0.25 -0.85 0  -0.225 -0.85 0  -0.2 -0.85 0  -0.175 -0.85 0  -0.15 -0.85 0  -0.125 -0.85 0  -0.1 -0.85 0  -0.07500000000000001 -0.85 0  -0.04999999999999999 -0.85 0  -0.02499999999999999 -0.85 0  0 -0.85 0  0.02500000000000002 -0.85 0  0.04999999999999999 -0.85 0  0.07500000000000001 -0.85 0  0.09999999999999998 -0.85 0  0.125 -0.85 0  0.15 -0.85 0  0.175 -0.85 0  0.2 -0.85 0  0.225 -0.85 0  0.25 -0.85 0  -0.25 -0.825 0  -0.225 -0.825 0  -0.2 -0.825 0  -0.175 -0.825 0  -0.15 -0.825 0  -0.125 -0.825 0  -0.1 -0.825 0  -0.07500000000000001 -0.825 0  -0.04999999999999999 -0.825 0  -0.02499999999999999 -0.825 0  0 -0.825 0  0.02500000000000002 -0.825 0  0.04999999999999999 -0.825 0  0.07500000000000001 -0.825 0  0.09999999999999998 -0.825 0  0.125 -0.825 0  0.15 -0.825 0  0.175 -0.825 0  0.2 -0.825 0  0.225 -0.825 0  0.25 -0.825 0  -0.25 -0.8 0  -0.225 -0.8 0  -0.2 -0.8 0  -0.175 -0.8 0  -0.15 -0.8 0  -0.125 -0.8 0  -0.1 -0.8 0  -0.07500000000000001 -0.8 0  -0.04999999999999999 -0.8 0  -0.02499999999999999 -0.8 0  0 -0.8 0  0.02500000000000002 -0.8 0  0.04999999999999999 -0.8 0  0.07500000000000001 -0.8 0  0.09999999999999998 -0.8 0  0.125 -0.8 0  0.15 -0.8 0  0.175 -0.8 0  0.2 -0.8 0  0.225 -0.8 0  0.25 -0.8 0  -0.25 -0.775 0  -0.225 -0.775 0  -0.2 -0.775 0  -0.175 -0.775 0  -0.15 -0.775 0  -0.125 -0.775 0  -0.1 -0.775 0  -0.07500000000000001 -0.775 0  -0.04999999999999999 -0.775 0  -0.02499999999999999 -0.775 0  0 -0.775 0  0.02500000000000002 -0.775 0  0.04999999999999999 -0.775 0  0.07500000000000001 -0.775 0  0.09999999999999998 -0.775 0  0.125 -0.775 0  0.15 -0.775 0  0.175 -0.775 0  0.2 -0.775 0  0.225 -0.775 0  0.25 -0.775 0  -0.25 -0.75 0  -0.225 -0.75 0  -0.2 -0.75 0  -0.175 -0.75 0  -0.15 -0.75 0  -0.125 -0.75 0  -0.1 -0.75 0  -0.07500000000000001 -0.75 0  -0.04999999999999999 -0.75 0  -0.02499999999999999 -0.75 0  0 -0.75 0  0.02500000000000002 -0.75 0  0.04999999999999999 -0.75 0  0.07500000000000001 -0.75 0  0.09999999999999998 -0.75 0  0.125 -0.75 0  0.15 -0.75 0  0.175 -0.75 0  0.2 -0.75 0  0.225 -0.75 0  0.25 -0.75 0  -0.25 -0.725 0  -0.225 -0.725 0  -0.2 -0.725 0  -0.175 -0.725 0  -0.15 -0.725 0  -0.125 -0.725 0  -0.1 -0.725 0  -0.07500000000000001 -0.725 0  -0.04999999999999999 -0.725 0  -0.02499999999999999 -0.725 0  0 -0.725 0  0.02500000000000002 -0.725 0  0.04999999999999999 -0.725 0  0.07500000000000001 -0.725 0  0.09999999999999998 -0.725 0  0.125 -0.725 0  0.15 -0.725 0  0.175 -0.725 0  0.2 -0.725 0  0.225 -0.725 0  0.25 -0.725 0  -0.25 -0.7 0  -0.225 -0.7 0  -0.2 -0.7 0  -0.175 -0.7 0  -0.15 -0.7 0  -0.125 -0.7 0  -0.1 -0.7 0  -0.07500000000000001 -0.7 0  -0.04999999999999999 -0.7 0  -0.02499999999999999 -0.7 0  0 -0.7 0  0.02500000000000002 -0.7 0  0.04999999999999999 -0.7 0  0.07500000000000001 -0.7 0  0.09999999999999998 -0.7 0  0.125 -0.7 0  0.15 -0.7 0  0.175 -0.7 0  0.2 -0.7 0  0.225 -0.7 0  0.25 -0.7 0  -0.25 -0.675 0  -0.225 -0.675 0  -0.2 -0.675 0  -0.175 -0.675 0  -0.15 -0.675 0  -0.125 -0.675 0  -0.1 -0.675 0  -0.07500000000000001 -0.675 0  -0.04999999999999999 -0.675 0  -0.02499999999999999 -0.675 0  0 -0.675 0  0.02500000000000002 -0.675 0  0.04999999999999999 -0.675 0  0.07500000000000001 -0.675 0  0.09999999999999998 -0.675 0  0.125 -0.675 0  0.15 -0.675 0  0.175 -0.675 0  0.2 -0.675 0  0.225 -0.675 0  0.25 -0.675 0  -0.25 -0.65 0  -0.225 -0.65 0  -0.2 -0.65 0  -0.175 -0.65 0  -0.15 -0.65 0  -0.125 -0.65 0  -0.1 -0.65 0  -0.07500000000000001 -0.65 0  -0.04999999999999999 -0.65 0  -0.02499999999999999 -0.65 0  0 -0.65 0  0.02500000000000002 -0.65 0  0.04999999999999999 -0.65 0  0.07500000000000001 -0.65 0  0.09999999999999998 -0.65 0  0.125 -0.65 0  0.15 -0.65 0  0.175 -0.65 0  0.2 -0.65 0  0.225 -0.65 0  0.25 -0.65 0  -0.25 -0.625 0  -0.225 -0.625 0  -0.2 -0.625 0  -0.175 -0.625 0  -0.15 -0.625 0  -0.125 -0.625 0  -0.1 -0.625 0  -0.07500000000000001 -0.625 0  -0.04999999999999999 -0.625 0  -0.02499999999999999 -0.625 0  0 -0.625 0  0.02500000000000002 -0.625 0  0.04999999999999999 -0.625 0  0.07500000000000001 -0.625 0  0.09999999999999998 -0.625 0  0.125 -0.625 0  0.15 -0.625 0  0.175 -0.625 0  0.2 -0.625 0  0.225 -0.625 0  0.25 -0.625 0  -0.25 -0.6 0  -0.225 -0.6 0  -0.2 -0.6 0  -0.175 -0.6 0  -0.15 -0.6 0  -0.125 -0.6 0  -0.1 -0.6 0  -0.07500000000000001 -0.6 0  -0.04999999999999999 -0.6 0  -0.02499999999999999 -0.6 0  0 -0.6 0  0.02500000000000002 -0.6 0  0.04999999999999999 -0.6 0  0.07500000000000001 -0.6 0  0.09999999999999998 -0.6 0  0.125 -0.6 0  0.15 -0.6 0  0.175 -0.6 0  0.2 -0.6 0  0.225 -0.6 0  0.25 -0.6 0  -0.25 -0.575 0  -0.225 -0.575 0  -0.2 -0.575 0  -0.175 -0.575 0  -0.15 -0.575 0  -0.125 -0.575 0  -0.1 -0.575 0  -0.07500000000000001 -0.575 0  -0.04999999999999999 -0.575 0  -0.02499999999999999 -0.575 0  0 -0.575 0  0.02500000000000002 -0.575 0  0.04999999999999999 -0.575 0  0.07500000000000001 -0.575 0  0.09999999999999998 -0.575 0  0.125 -0.575 0  0.15 -0.575 0  0.175 -0.575 0  0.2 -0.575 0  0.225 -0.575 0  0.25 -0.575 0  -0.25 -0.55 0  -0.225 -0.55 0  -0.2 -0.55 0  -0.175 -0.55 0  -0.15 -0.55 0  -0.125 -0.55 0  -0.1 -0.55 0  -0.07500000000000001 -0.55 0  -0.04999999999999999 -0.55 0  -0.02499999999999999 -0.55 0  0 -0.55 0  0.02500000000000002 -0.55 0  0.04999999999999999 -0.55 0  0.07500000000000001 -0.55 0  0.09999999999999998 -0.55 0  0.125 -0.55 0  0.15 -0.55 0  0.175 -0.55 0  0.2 -0.55 0  0.225 -0.55 0  0.25 -0.55 0  -0.25 -0.525 0  -0.225 -0.525 0  -0.2 -0.525 0  -0.175 -0.525 0  -0.15 -0.525 0  -0.125 -0.525 0  -0.1 -0.525 0  -0.07500000000000001 -0.525 0  -0.04999999999999999 -0.525 0  -0.02499999999999999 -0.525 0  0 -0.525 0  0.02500000000000002 -0.525 0  0.04999999999999999 -0.525 0  0.07500000000000001 -0.525 0  0.09999999999999998 -0.525 0  0.125 -0.525 0  0.15 -0.525 0  0.175 -0.525 0  0.2 -0.525 0  0.225 -0.525 0  0.25 -0.525 0  -0.25 -0.5 0  -0.225 -0.5 0  -0.2 -0.5 0  -0.175 -0.5 0  -0.15 -0.5 0  -0.125 -0.5 0  -0.1 -0.5 0  -0.07500000000000001 -0.5 0  -0.04999999999999999 -0.5 0  -0.02499999999999999 -0.5 0  0 -0.5 0  0.02500000000000002 -0.5 0  0.04999999999999999 -0.5 0  0.07500000000000001 -0.5 0  0.09999999999999998 -0.5 0  0.125 -0.5 0  0.15 -0.5 0  0.175 -0.5 0  0.2 -0.5 0  0.225 -0.5 0  0.25 -0.5 0  -0.25 -0.475 0  -0.225 -0.475 0  -0.2 -0.475 0  -0.175 -0.475 0  -0.15 -0.475 0  -0.125 -0.475 0  -0.1 -0.475 0  -0.07500000000000001 -0.475 0  -0.04999999999999999 -0.475 0  -0.02499999999999999 -0.475 0  0 -0.475 0  0.02500000000000002 -0.475 0  0.04999999999999999 -0.475 0  0.07500000000000001 -0.475 0  0.09999999999999998 -0.475 0  0.125 -0.475 0  0.15 -0.475 0  0.175 -0.475 0  0.2 -0.475 0  0.225 -0.475 0  0.25 -0.475 0  -0.25 -0.45 0  -0.225 -0.45 0  -0.2 -0.45 0  -0.175 -0.45 0  -0.15 -0.45 0  -0.125 -0.45 0  -0.1 -0.45 0  -0.07500000000000001 -0.45 0  -0.04999999999999999 -0.45 0  -0.02499999999999999 -0.45 0  0 -0.45 0  0.02500000000000002 -0.45 0  0.04999999999999999 -0.45 0  0.07500000000000001 -0.45 0  0.09999999999999998 -0.45 0  0.125 -0.45 0  0.15 -0.45 0  0.175 -0.45 0  0.2 -0.45 0  0.225 -0.45 0  0.25 -0.45 0  -0.25 -0.425 0  -0.225 -0.425 0  -0.2 -0.425 0  -0.175 -0.425 0  -0.15 -0.425 0  -0.125 -0.425 0  -0.1 -0.425 0  -0.07500000000000001 -0.425 0  -0.04999999999999999 -0.425 0  -0.02499999999999999 -0.425 0  0 -0.425 0  0.02500000000000002 -0.425 0  0.04999999999999999 -0.425 0  0.07500000000000001 -0.425 0  0.
[...]
<PointData  Vectors="flow"> 
<DataArray  type="Float64"  Name="flow"  NumberOfComponents="3" format="ascii">-4.5240875147700227e-01 9.0482709520350846e-01 0.0000000000000000e+00  2.1801399653507374e-05 9.0482709520187399e-01 0.0000000000000000e+00  -1.0507997917218176e-09 9.0482709520150062e-01 0.0000000000000000e+00  2.4251633876513631e-13 9.0482709519868632e-01 0.0000000000000000e+00  -3.6239656473388994e-13 9.0482709520016780e-01 0.0000000000000000e+00  -1.2340286437020510e-12 9.0482709519780580e-01 0.0000000000000000e+00  -2.9544001129141417e-12 9.0482709519918558e-01 0.0000000000000000e+00  -3.6010357844348949e-12 9.0482709519868365e-01 0.0000000000000000e+00  -3.9387419124741039e-12 9.0482709520386828e-01 0.0000000000000000e+00  -5.7983583364147623e-12 9.0482709520438664e-01 0.0000000000000000e+00  -2.4084787508016232e-12 9.0482709520601801e-01 0.0000000000000000e+00  -4.2018226321740052e-12 9.0482709520046867e-01 0.0000000000000000e+00  -3.3419337856240693e-12 9.0482709520104754e-01 0.0000000000000000e+00  -5.5675269718612297e-12 9.0482709520054661e-01 0.0000000000000000e+00  -1.0221362782347043e-12 9.0482709520772231e-01 0.0000000000000000e+00  8.1040230874354543e-13 9.0482709520272964e-01 0.0000000000000000e+00  1.3485225510507971e-12 9.0482709520493010e-01 0.0000000000000000e+00  4.7774475598589495e-14 9.0482709520165461e-01 0.0000000000000000e+00  1.0497473831356694e-09 9.0482709519946858e-01 0.0000000000000000e+00  -2.1801403062260004e-05 9.0482709519869098e-01 0.0000000000000000e+00  4.5240875148166021e-01 9.0482709519948679e-01 0.0000000000000000e+00  -4.5205996264887621e-01 2.7136869069008287e+00 0.0000000000000000e+00  2.1784594195106807e-05 2.7136869069009055e+00 0.0000000000000000e+00  -1.0510148579651605e-09 2.7136869069004481e+00 0.0000000000000000e+00  -8.2817994820493404e-13 2.7136869069006684e+00 0.0000000000000000e+00  -9.1995395286465429e-13 2.7136869069009415e+00 0.0000000000000000e+00  -1.2169519214930812e-12 2.7136869069000844e+00 0.0000000000000000e+00  -2.8534879625880542e-12 2.7136869068997056e+00 0.0000000000000000e+00  -2.9689075933568967e-12 2.7136869068995213e+00 0.0000000000000000e+00  -2.6288190483451597e-12 2.7136869069007408e+00 0.0000000000000000e+00  -4.8817229706771893e-12 2.7136869068997886e+00 0.0000000000000000e+00  -4.2476126923789385e-12 2.7136869069006888e+00 0.0000000000000000e+00  -4.6374984962338846e-12 2.7136869068986407e+00 0.0000000000000000e+00  -3.4690737727890198e-12 2.7136869069002003e+00 0.0000000000000000e+00  -1.0951949744849378e-12 2.7136869069007314e+00 0.0000000000000000e+00  -2.3393999014287072e-12 2.7136869069018137e+00 0.0000000000000000e+00  -1.7216089895095248e-12 2.7136869069021348e+00 0.0000000000000000e+00  5.2286934416933513e-13 2.7136869069006204e+00 0.0000000000000000e+00  -9.8276613040463878e-14 2.7136869069005480e+00 0.0000000000000000e+00  1.0493705732378195e-09 2.7136869069004410e+00 0.0000000000000000e+00  -2.1784595154030862e-05 2.7136869069016401e+00 0.0000000000000000e+00  4.5205996265387827e-01 2.7136869069010841e+00 0.0000000000000000e+00  -4.5101413394794221e-01 5.4231895283136531e+00 0.0000000000000000e+00  2.1734196893927858e-05 5.4231895283136620e+00 0.0000000000000000e+00  -1.0491083643777877e-09 5.4231895283128244e+00 0.0000000000000000e+00  2.2278492329202567e-13 5.4231895283135216e+00 0.0000000000000000e+00  -7.4542742683727236e-13 5.4231895283130864e+00 0.0000000000000000e+00  -1.9967099992925218e-12 5.4231895283134923e+00 0.0000000000000000e+00  -2.1638868952011515e-12 5.4231895283139151e+00 0.0000000000000000e+00  -2.9347432044933536e-12 5.4231895283140599e+00 0.0000000000000000e+00  -2.6718807312815520e-12 5.4231895283128964e+00 0.0000000000000000e+00  -5.6457041046136358e-12 5.4231895283132987e+00 0.0000000000000000e+00  -4.4179162687766890e-12 5.4231895283138387e+00 0.0000000000000000e+00  -3.7087301573917504e-12 5.4231895283144276e+00 0.0000000000000000e+00  -4.4394549381553133e-12 5.4231895283137339e+00 0.0000000000000000e+00  -1.8551983901311629e-12 5.4231895283135945e+00 0.0000000000000000e+00  -6.0813183257368134e-13 5.4231895283128351e+00 0.0000000000000000e+00  2.7104359661183822e-14 5.4231895283131184e+00 0.0000000000000000e+00  -1.3273836810089260e-12 5.4231895283140545e+00 0.0000000000000000e+00  1.0766088197886814e-13 5.4231895283131815e+00 0.0000000000000000e+00  1.0475785530899768e-09 5.4231895283137552e+00 0.0000000000000000e+00  -2.1734199688317899e-05 5.4231895283138893e+00 0.0000000000000000e+00  4.5101413394932954e-01 5.4231895283130065e+00 0.0000000000000000e+00  -4.4927287788431169e-01 8.1243300302954449e+00 0.0000000000000000e+00  2.1650291623645416e-05 8.1243300302969335e+00 0.0000000000000000e+00  -1.0448659785736768e-09 8.1243300302973633e+00 0.0000000000000000e+00  -6.2676674209447162e-13 8.1243300302968571e+00 0.0000000000000000e+00  -4.1701004202798958e-13 8.1243300302971537e+00 0.0000000000000000e+00  -9.8175377753393118e-13 8.1243300302967913e+00 0.0000000000000000e+00  -1.6600749520166769e-12 8.1243300302973100e+00 0.0000000000000000e+00  -5.6644651562510391e-12 8.1243300302966777e+00 0.0000000000000000e+00  -2.3479840964235418e-12 8.1243300302971928e+00 0.0000000000000000e+00  -3.8605422971329255e-12 8.1243300302976493e+00 0.0000000000000000e+00  -4.7196699142560541e-12 8.1243300302964911e+00 0.0000000000000000e+00  -3.8131090074990174e-12 8.1243300302965551e+00 0.0000000000000000e+00  -3.8011039285772095e-12 8.1243300302965711e+00 0.0000000000000000e+00  -2.2988735443718024e-12 8.1243300302970649e+00 0.0000000000000000e+00  -2.2930358794343878e-12 8.1243300302969033e+00 0.0000000000000000e+00  2.8111970798210530e-13 8.1243300302965906e+00 0.0000000000000000e+00  6.2781217288130345e-13 8.1243300302962194e+00 0.0000000000000000e+00  -1.2461458800183561e-12 8.1243300302967061e+00 0.0000000000000000e+00  1.0448184518571682e-09 8.1243300302973420e+00 0.0000000000000000e+00  -2.1650293805628384e-05 8.1243300302954449e+00 0.0000000000000000e+00  4.4927287788660469e-01 8.1243300302988448e+00 0.0000000000000000e+00  -4.4683887921470367e-01 1.0812943472058546e+01 0.0000000000000000e+00  2.1533004398969543e-05 1.0812943472058963e+01 0.0000000000000000e+00  -1.0400429183179820e-09 1.0812943472058894e+01 0.0000000000000000e+00  3.4703659879035373e-13 1.0812943472059025e+01 0.0000000000000000e+00  -1.1776262776610123e-12 1.0812943472059228e+01 0.0000000000000000e+00  -1.4100403701633238e-12 1.0812943472059143e+01 0.0000000000000000e+00  -2.5589719092586155e-12 1.0812943472057027e+01 0.0000000000000000e+00  -4.2754542923260386e-12 1.0812943472058862e+01 0.0000000000000000e+00  -2.0278042069906353e-12 1.0812943472057714e+01 0.0000000000000000e+00  -5.1616773125929584e-12 1.0812943472058057e+01 0.0000000000000000e+00  -4.9721139791732059e-12 1.0812943472059340e+01 0.0000000000000000e+00  -3.5855777785563311e-12 1.0812943472058954e+01 0.0000000000000000e+00  -3.1822915629384411e-12 1.0812943472059210e+01 0.0000000000000000e+00  -2.5255196243529841e-12 1.0812943472059061e+01 0.0000000000000000e+00  -9.0783022015122013e-13 1.0812943472058992e+01 0.0000000000000000e+00  -1.6212833306728515e-12 1.0812943472059022e+01 0.0000000000000000e+00  -8.2696854536791452e-13 1.0812943472058070e+01 0.0000000000000000e+00  1.1064578846777873e-12 1.0812943472058542e+01 0.0000000000000000e+00  1.0372811594255400e-09 1.0812943472057254e+01 0.0000000000000000e+00  -2.1533003827768457e-05 1.0812943472060102e+01 0.0000000000000000e+00  4.4683887922102089e-01 1.0812943472058580e+01 0.0000000000000000e+00  -4.4371589081124252e-01 1.3484884227685647e+01 0.0000000000000000e+00  2.1382514297659672e-05 1.3484884227684493e+01 0.0000000000000000e+00  -1.0315338375546275e-09 1.3484884227684962e+01 0.0000000000000000e+00  -1.1381630020657650e-12 1.3484884227685093e+01 0.0000000000000000e+00  -1.9682865265051136e-12 1.3484884227683116e+01 0.0000000000000000e+00  -1.9762966400776746e-12 1.3484884227681869e+01 0.0000000000000000e+00  -2.7825911624626174e-12 1.3484884227681372e+01 0.0000000000000000e+00  -2.9059559350852287e-12 1.3484884227680395e+01 0.0000000000000000e+00  -3.5991768743007992e-12 1.3484884227683326e+01 0.0000000000000000e+00  -3.1423659843993718e-12 1.3484884227683372e+01 0.0000000000000000e+00  -3.6593047121235341e-12 1.3484884227682945e+01 0.0000000000000000e+00  -4.4290649225202072e-12 1.3484884227684859e+01 0.0000000000000000e+00  -2.9878693846585784e-12 1.3484884227684340e+01 0.0000000000000000e+00  -3.0634342499631982e-12 1.3484884227683592e+01 0.0000000000000000e+00  -1.8505276020895738e-12 1.3484884227682544e+01 0.0000000000000000e+00  -6.8962408568811235e-14 1.3484884227683313e+01 0.0000000000000000e+00  -5.5656355243948622e-13 1.3484884227683908e+01 0.0000000000000000e+00  -1.2569600634192915e-12 1.3484884227683802e+01 0.0000000000000000e+00  1.0330691209600854e-09 1.3484884227684764e+01 0.0000000000000000e+00  -2.1382513677019394e-05 1.3484884227685214e+01 0.0000000000000000e+00  4.4371589081072976e-01 1.3484884227682887e+01 0.0000000000000000e+00  -4.3990872786333152e-01 1.6136032378098690e+01 0.0000000000000000e+00  2.1199055165069562e-05 1.6136032378099078e+01 0.0000000000000000e+00  -1.0228802467848790e-09 1.6136032378098985e+01 0.0000000000000000e+00  -5.0832618637647450e-13 1.6136032378098673e+01 0.0000000000000000e+00  -3.3031429362891890e-12 1.6136032378100676e+01 0.0000000000000000e+00  -2.6093468210654049e-12 1.6136032378097230e+01 0.0000000000000000e+00  -4.7250169543453715e-12 1.6136032378098726e+01 0.0000000000000000e+00  -1.8513968641094598e-12 1.6136032378098161e+01 0.0000000000000000e+00  5.6267400767351430e-14 1.6136032378098562e+01 0.0000000000000000e+00  -5.0903785014042182e-12 1.6136032378098836e+01 0.0000000000000000e+00  -3.0627408249398973e-12 1.6136032378098097e+01 0.0000000000000000e+00  -2.6289770234623927e-12 1.6136032378098498e+01 0.0000000000000000e+00  -4.5995033388579045e-12 1.6136032378099252e+01 0.0000000000000000e+00  -4.1670840391496356e-12 1.6136032378098285e+01 0.0000000000000000e+00  -2.2105339347449963e-12 1.6136032378097834e+01 0.0000000000000000e+00  1.0831343375061677e-13 1.6136032378098978e+01 0.0000000000000000e+00  8.7177028722808032e-13 1.6136032378098918e+01 0.0000000000000000e+00  6.5538559256426383e-13 1.6136032378099980e+01 0.0000000000000000e+00  1.0211497109113937e-09 1.6136032378098982e+01 0.0000000000000000e+00  -2.1199057007051137e-05 1.6136032378097287e+01 0.0000000000000000e+00  4.3990872786837848e-01 1.6136032378098612e+01 0.0000000000000000e+00  -4.3542326047113722e-01 1.8762300063407434e+01 0.0000000000000000e+00  2.0982911552548088e-05 1.8762300063407704e+01 0.0000000000000000e+00  -1.0119607997819359e-09 1.8762300063409580e+01 0.0000000000000000e+00  4.9335963161244578e-13 1.8762300063409452e+01 0.0000000000000000e+00  -4.0053798412126572e-12 1.8762300063407231e+01 0.0000000000000000e+00  -4.2407953168435807e-12 1.8762300063410169e+01 0.0000000000000000e+00  -1.5474179557378037e-12 1.8762300063408194e+01 0.0000000000000000e+00  -2.6333316540825360e-12 1.8762300063411455e+01 0.0000000000000000e+00  -3.2186040554346731e-12 1.8762300063408908e+01 0.0000000000000000e+00  -3.8641424194149099e-12 1.8762300063408258e+01 0.0000000000000000e+00  -3.9028324064066795e-12 1.8762300063409956e+01 0.0000000000000000e+00  -3.5912322756709916e-12 1.8762300063407164e+01 0.0000000000000000e+00  -4.0215427790409726e-12 1.8762300063406727e+01 0.0000000000000000e+00  -3.8332903654891023e-12 1.8762300063406947e+01 0.0000000000000000e+00  -4.5481088174125447e-13 1.8762300063408357e+01 0.0000000000000000e+00  1.5779298735900368e-13 1.8762300063408020e+01 0.0000000000000000e+00  4.6342642579298787e-14 1.8762300063408013e+01 0.0000000000000000e+00  -7.1089469629036455e-13 1.8762300063406698e+01 0.0000000000000000e+00  1.0125075735203322e-09 1.8762300063406713e+01 0.0000000000000000e+00  -2.0982912878750382e-05 1.8762300063407917e+01 0.0000000000000000e+00  4.3542326047261065e-01 1.8762300063407498e+01 0.0000000000000000e+00  -4.3026640458140930e-01 2.1359637785827708e+01 0.0000000000000000e+00  2.0734416210864942e-05 2.1359637785829534e+01 0.0000000000000000e+00  -9.9971746528472871e-10 2.1359637785827687e+01 0.0000000000000000e+00  -1.7793768930220383e-12 2.1359637785829023e+01 0.0000000000000000e+00  -3.4705447311378039e-12 2.1359637785829893e+01 0.0000000000000000e+00  -2.7113951553660196e-12 2.1359637785830035e+01 0.0000000000000000e+00  -3.4189383876225886e-12 2.1359637785829189e+01 0.0000000000000000e+00  -1.7443460225843344e-12 2.1359637785827591e+01 0.0000000000000000e+00  -2.8600136136586625e-12 2.1359637785827474e+01 0.0000000000000000e+00  -4.5841697994466591e-12 2.1359637785826575e+01 0.0000000000000000e+00  -3.6396641136497667e-12 2.1359637785826159e+01 0.0000000000000000e+00  -4.7495222866376035e-12 2.1359637785826393e+01 0.0000000000000000e+00  -3.5021865978700746e-12 2.1359637785826621e+01 0.0000000000000000e+00  -3.1874724394198956e-12 2.1359637785827697e+01 0.0000000000000000e+00  -1.8099472711524074e-12 2.1359637785827051e+01 0.0000000000000000e+00  8.9309238347884134e-13 2.1359637785829054e+01 0.0000000000000000e+00  -4.5593935804908866e-13 2.1359637785825761e+01 0.0000000000000000e+00  -6.4126381535759318e-13 2.1359637785827612e+01 0.0000000000000000e+00  9.9957387487249330e-10 2.1359637785826592e+01 0.0000000000000000e+00  -2.0734414526766392e-05 2.1359637785826784e+01 0.0000000000000000e+00  4.3026640458584281e-01 2.1359637785827861e+01 0.0000000000000000e+00  -4.2444611134721333e-01 2.3924040653486777e+01 0.0000000000000000e+00  2.0453947291942146e-05 2.3924040653485843e+01 0.0000000000000000e+00  -9.8797832461518360e-10 2.3924040653485473e+01 0.0000000000000000e+00  1.8304536603955021e-12 2.3924040653485026e+01 0.0000000000000000e+00  -2.3968725270285852e-12 2.3924040653487062e+01 0.0000000000000000e+00  -3.1907568954687618e-12 2.3924040653486784e+01 0.0000000000000000e+00  -4.5256806348482836e-12 2.3924040653486966e+01 0.0000000000000000e+00  -2.9201951387973209e-12 2.3924040653486216e+01 0.0000000000000000e+00  -3.7818828296519620e-12 2.3924040653486358e+01 0.0000000000000000e+00  -5.2308495860293171e-12 2.3924040653485534e+01 0.0000000000000000e+00  -4.6516380521161326e-12 2.3924040653485577e+01 0.0000000000000000e+00  -3.6170570557594751e-12 2.3924040653484052e+01 0.0000000000000000e+00  -4.3080416272253101e-12 2.3924040653485406e+01 0.0000000000000000e+00  -2.3454451647850052e-12 2.3924040653484820e+01 0.0000000000000000e+00  -4.8539912660166959e-13 2.3924040653485161e+01 0.0000000000000000e+00  -3.7741114489320524e-14 2.3924040653483832e+01 0.0000000000000000e+00  -2.6684154085560883e-12 2.3924040653485285e+01 0.0000000000000000e+00  1.4781079043715591e-12 2.3924040653484447e+01 0.0000000000000000e+00  9.8449357573567322e-10 2.3924040653484091e+01 0.0000000000000000e+00  -2.0453947044486373e-05 2.3924040653483210e+01 0.0000000000000000e+00  4.2444611135037325e-01 2.3924040653481750e+01 0.0000000000000000e+00  -4.1797135485433884e-01 2.6451554555470217e+01 0.0000000000000000e+00  2.0141943330770607e-05 2.6451554555469098e+01 0.0000000000000000e+00  -9.7155984807271452e-10 2.6451554555470093e+01 0.0000000000000000e+00  6.8014641577621849e-13 2.6451554555470945e+01 0.0000000000000000e+00  -1.3284748891722580e-12 2.6451554555471102e+01 0.0000000000000000e+00  -4.4712915716705957e-12 2.6451554555469833e+01 0.0000000000000000e+00  -4.6912099555646113e-12 2.6451554555472228e+01 0.0000000000000000e+00  -2.2375957771996082e-12 2.6451554555469546e+01 0.0000000000000000e+00  -4.9509715106693180e-12 2.6451554555468093e+01 0.0000000000000000e+00  -5.3650386893399647e-12 2.6451554555468896e+01 0.0000000000000000e+00  -4.3583631693060993e-12 2.6451554555468537e+01 0.0000000000000000e+00  -4.4098268936639631e-12 2.6451554555469297e+01 0.0000000000000000e+00  -2.9775824450207384e-12 2.6451554555468423e+01 0.0000000000000000e+00  -3.3988554243248648e-12 2.6451554555468299e+01 0.0000000000000000e+00  -2.2954250354270624e-12 2.6451554555468604e+01 0.0000000000000000e+00  9.1341853096022155e-13 2.6451554555466487e+01 0.0000000000000000e+00  -2.6778987651806505e-14 2.6451554555469414e+01 0.0000000000000000e+00  -1.1569060330344732e-12 2.6451554555466316e+01 0.0000000000000000e+00  9.7054598778510753e-10 2.6451554555467602e+01 0.0000000000000000e+00  -2.0141943641352584e-05 2.6451554555467901e+01 0.0000000000000000e+00  4.1797135485593384e-01 2.6451554555467098e+01 0.0000000000000000e+00  -4.1085211829768481e-01 2.8938282258610240e+01 0.0000000000000000e+00  1.9798880803591487e-05 2.8938282258611142e+01 0.0000000000000000e+00  -9.5447954851776768e-10 2.8938282258611203e+01 0.0000000000000000e+00  4.8983230170833563e-13 2.8938282258611267e+01 0.0000000000000000e+00  -2.3628890742369535e-12 2.8938282258610034e+01 0.0000000000000000e+00  -2.3691900886877635e-12 2.8938282258611853e+01 0.0000000000000000e+00  -3.4525080398944309e-12 2.8938282258612620e+01 0.0000000000000000e+00  -6.5770291422499306e-12 2.8938282258612496e+01 0.0000000000000000e+00  -3.7705110639820016e-12 2.8938282258612254e+01 0.0000000000000000e+00  -4.3723075711940994e-12 2.8938282258612091e+01 0.0000000000000000e+00  -4.2349655673062614e-12 2.8938282258611910e+01 0.0000000000000000e+00  -4.6561070830985772e-12 2.8938282258612361e+01 0.0000000000000000e+00  -4.2598872857580255e-12 2.8938282258611149e+01 0.0000000000000000e+00  -3.3576551725047363e-12 2.8938282258610663e+01 0.0000000000000000e+00  -1.7672924463623354e-12 2.8938282258610840e+01 0.0000000000000000e+00  -9.8196078081892827e-13 2.8938282258609558e+01 0.0000000000000000e+00  -4.6366557038875198e-13 2.8938282258608009e+01 0.0000000000000000e+00  -2.1530743074468703e-12 2.8938282258609416e+01 0.0000000000000000e+00  9.5441444774843235e-10 2.8938282258609320e+01 0.0000000000000000e+00  -1.9798881256572225e-05 2.8938282258609359e+01 0.0000000000000000e+00  4.1085211829939894e-01 2.8938282258609814e+01 0.0000000000000000e+00  -4.0309937859950723e-01 3.1380389416588592e+01 0.0000000000000000e+00  1.9425291359918574e-05 3.1380389416588848e+01 0.0000000000000000e+00  -9.3533396128202136e-10 3.1380389416588947e+01 0.0000000000000000e+00  5.3819076675841686e-13 3.1380389416590816e+01 0.0000000000000000e+00  -1.7372044816081182e-13 3.1380389416591068e+01 0.0000000000000000e+00  -1.8489027132852176e-12 3.1380389416594717e+01 0.0000000000000000e+00  -4.0486993419832122e-12 3.1380389416592177e+01 0.0000000000000000e+00  -4.6240272544255012e-12 3.1380389416592649e+01 0.0000000000000000e+00  -6.1120361872257154e-12 3.1380389416592276e+01 0.0000000000000000e+00  -5.0838792439908619e-12 3.1380389416592134e+01 0.0000000000000000e+00  -5.7693216809313520e-12 3.1380389416589754e+01 0.0000000000000000e+00  -3.9101651096472589e-12 3.1380389416590319e+01 0.0000000000000000e+00  -4.4160291988844892e-12 3.1380389416590415e+01 0.0000000000000000e+00  -3.5856026984068840e-12 3.1380389416589708e+01 0.0000000000000000e+00  -2.3635866258525365e-12 3.1380389416588873e+01 0.0000000000000000e+00  -1.9511872680621809e-12 3.1380389416588731e+01 0.0000000000000000e+00  -8.8348791439228653e-13 3.1380389416589718e+01 0.0000000000000000e+00  -4.8246230595596725e-13 3.1380389416588063e+01 0.0000000000000000e+00  9.3665674441940506e-10 3.1380389416589498e+01 0.0000000000000000e+00  -1.9425291907107794e-05 3.1380389416589264e+01 0.0000000000000000e+00  4.0309937860074102e-01 3.1380389416588731e+01 0.0000000000000000e+00  -3.9472508947798696e-01 3.3774110482120498e+01 0.0000000000000000e+00  1.9021749754450076e-05 3.3774110482120243e+01 0.0000000000000000e+00  -9.1451308272291422e-10 3.3774110482122360e+01 0.0000000000000000e+00  1.0838784822121015e-12 3.3774110482122964e+01 0.0000000000000000e+00  -6.4534899930168306e-13 3.3774110482122978e+01 0.0000000000000000e+00  -9.5300047716253744e-13 3.3774110482121237e+01 0.0000000000000000e+00  -5.1461559921400972e-12 3.3774110482122616e+01 0.0000000000000000e+00  -5.5597292888686258e-12 3.3774110482122822e+01 0.0000000000000000e+00  -3.53063