<?xml version="1.0"?>
<VTKFile type="UnstructuredGrid"  version="0.1"  >
<UnstructuredGrid>
<Piece  NumberOfPoints="431" NumberOfCells="800">
<Points>
<DataArray  type="Float64"  NumberOfComponents="3"  format="ascii">-0.25 -1 0  -0.2 -1 0  -0.15 -1 0  -0.1 -1 0  -0.04999999999999999 -1 0  0 -1 0  0.04999999999999999 -1 0  0.09999999999999998 -1 0  0.15 -1 0  0.2 -1 0  0.25 -1 0  -0.25 -0.95 0  -0.2 -0.95 0  -0.15 -0.95 0  -0.1 -0.95 0  -0.04999999999999999 -0.95 0  0 -0.95 0  0.04999999999999999 -0.95 0  0.09999999999999998 -0.95 0  0.15 -0.95 0  0.2 -0.95 0  0.25 -0.95 0  -0.25 -0.9 0  -0.2 -0.9 0  -0.15 -0.9 0  -0.1 -0.9 0  -0.04999999999999999 -0.9 0  0 -0.9 0  0.04999999999999999 -0.9 0  0.09999999999999998 -0.9 0  0.15 -0.9 0  0.2 -0.9 0  0.25 -0.9 0  -0.25 -0.85 0  -0.2 -0.85 0  -0.15 -0.85 0  -0.1 -0.85 0  -0.04999999999999999 -0.85 0  0 -0.85 0  0.04999999999999999 -0.85 0  0.09999999999999998 -0.85 0  0.15 -0.85 0  0.2 -0.85 0  0.25 -0.85 0  -0.25 -0.8 0  -0.2 -0.8 0  -0.15 -0.8 0  -0.1 -0.8 0  -0.04999999999999999 -0.8 0  0 -0.8 0  0.04999999999999999 -0.8 0  0.09999999999999998 -0.8 0  0.15 -0.8 0  0.2 -0.8 0  0.25 -0.8 0  -0.25 -0.75 0  -0.2 -0.75 0  -0.15 -0.75 0  -0.1 -0.75 0  -0.04999999999999999 -0.75 0  0 -0.75 0  0.04999999999999999 -0.75 0  0.09999999999999998 -0.75 0  0.15 -0.75 0  0.2 -0.75 0  0.25 -0.75 0  -0.25 -0.7 0  -0.2 -0.7 0  -0.15 -0.7 0  -0.1 -0.7 0  -0.04999999999999999 -0.7 0  0 -0.7 0  0.04999999999999999 -0.7 0  0.09999999999999998 -0.7 0  0.15 -0.7 0  0.2 -0.7 0  0.25 -0.7 0  -0.25 -0.65 0  -0.2 -0.65 0  -0.15 -0.65 0  -0.1 -0.65 0  -0.04999999999999999 -0.65 0  0 -0.65 0  0.04999999999999999 -0.65 0  0.09999999999999998 -0.65 0  0.15 -0.65 0  0.2 -0.65 0  0.25 -0.65 0  -0.25 -0.6 0  -0.2 -0.6 0  -0.15 -0.6 0  -0.1 -0.6 0  -0.04999999999999999 -0.6 0  0 -0.6 0  0.04999999999999999 -0.6 0  0.09999999999999998 -0.6 0  0.15 -0.6 0  0.2 -0.6 0  0.25 -0.6 0  -0.25 -0.55 0  -0.2 -0.55 0  -0.15 -0.55 0  -0.1 -0.55 0  -0.04999999999999999 -0.55 0  0 -0.55 0  0.04999999999999999 -0.55 0  0.09999999999999998 -0.55 0  0.15 -0.55 0  0.2 -0.55 0  0.25 -0.55 0  -0.25 -0.5 0  -0.2 -0.5 0  -0.15 -0.5 0  -0.1 -0.5 0  -0.04999999999999999 -0.5 0  0 -0.5 0  0.04999999999999999 -0.5 0  0.09999999999999998 -0.5 0  0.15 -0.5 0  0.2 -0.5 0  0.25 -0.5 0  -0.25 -0.45 0  -0.2 -0.45 0  -0.15 -0.45 0  -0.1 -0.45 0  -0.04999999999999999 -0.45 0  0 -0.45 0  0.04999999999999999 -0.45 0  0.09999999999999998 -0.45 0  0.15 -0.45 0  0.2 -0.45 0  0.25 -0.45 0  -0.25 -0.4 0  -0.2 -0.4 0  -0.15 -0.4 0  -0.1 -0.4 0  -0.04999999999999999 -0.4 0  0 -0.4 0  0.04999999999999999 -0.4 0  0.09999999999999998 -0.4 0  0.15 -0.4 0  0.2 -0.4 0  0.25 -0.4 0  -0.25 -0.35 0  -0.2 -0.35 0  -0.15 -0.35 0  -0.1 -0.35 0  -0.04999999999999999 -0.35 0  0 -0.35 0  0.04999999999999999 -0.35 0  0.09999999999999998 -0.35 0  0.15 -0.35 0  0.2 -0.35 0  0.25 -0.35 0  -0.25 -0.3 0  -0.2 -0.3 0  -0.15 -0.3 0  -0.1 -0.3 0  -0.04999999999999999 -0.3 0  0 -0.3 0  0.04999999999999999 -0.3 0  0.09999999999999998 -0.3 0  0.15 -0.3 0  0.2 -0.3 0  0.25 -0.3 0  -0.25 -0.25 0  -0.2 -0.25 0  -0.15 -0.25 0  -0.1 -0.25 0  -0.04999999999999999 -0.25 0  0 -0.25 0  0.04999999999999999 -0.25 0  0.09999999999999998 -0.25 0  0.15 -0.25 0  0.2 -0.25 0  0.25 -0.25 0  -0.25 -0.2 0  -0.2 -0.2 0  -0.15 -0.2 0  -0.1 -0.2 0  -0.04999999999999999 -0.2 0  0 -0.2 0  0.04999999999999999 -0.2 0  0.09999999999999998 -0.2 0  0.15 -0.2 0  0.2 -0.2 0  0.25 -0.2 0  -0.25 -0.15 0  -0.2 -0.15 0  -0.15 -0.15 0  -0.1 -0.15 0  -0.04999999999999999 -0.15 0  0 -0.15 0  0.04999999999999999 -0.15 0  0.09999999999999998 -0.15 0  0.15 -0.15 0  0.2 -0.15 0  0.25 -0.15 0  -0.25 -0.09999999999999998 0  -0.2 -0.09999999999999998 0  -0.15 -0.09999999999999998 0  -0.1 -0.09999999999999998 0  -0.04999999999999999 -0.09999999999999998 0  0 -0.09999999999999998 0  0.04999999999999999 -0.09999999999999998 0  0.09999999999999998 -0.09999999999999998 0  0.15 -0.09999999999999998 0  0.2 -0.09999999999999998 0  0.25 -0.09999999999999998 0  -0.25 -0.05000000000000004 0  -0.2 -0.05000000000000004 0  -0.15 -0.05000000000000004 0  -0.1 -0.05000000000000004 0  -0.04999999999999999 -0.05000000000000004 0  0 -0.05000000000000004 0  0.04999999999999999 -0.05000000000000004 0  0.09999999999999998 -0.05000000000000004 0  0.15 -0.05000000000000004 0  0.2 -0.05000000000000004 0  0.25 -0.05000000000000004 0  -0.25 0 0  -0.2 0 0  -0.15 0 0  -0.1 0 0  -0.04999999999999999 0 0  0 0 0  0.04999999999999999 0 0  0.09999999999999998 0 0  0.15 0 0  0.2 0 0  0.25 0 0  -0.225 -0.975 0  -0.175 -0.975 0  -0.125 -0.975 0  -0.07500000000000001 -0.975 0  -0.02499999999999999 -0.975 0  0.02500000000000002 -0.975 0  0.07500000000000001 -0.975 0  0.125 -0.975 0  0.175 -0.975 0  0.225 -0.975 0  -0.225 -0.925 0  -0.175 -0.925 0  -0.125 -0.925 0  -0.07500000000000001 -0.925 0  -0.02499999999999999 -0.925 0  0.02500000000000002 -0.925 0  0.07500000000000001 -0.925 0  0.125 -0.925 0  0.175 -0.925 0  0.225 -0.925 0  -0.225 -0.875 0  -0.175 -0.875 0  -0.125 -0.875 0  -0.07500000000000001 -0.875 0  -0.02499999999999999 -0.875 0  0.02500000000000002 -0.875 0  0.07500000000000001 -0.875 0  0.125 -0.875 0  0.175 -0.875 0  0.225 -0.875 0  -0.225 -0.825 0  -0.175 -0.825 0  -0.125 -0.825 0  -0.07500000000000001 -0.825 0  -0.02499999999999999 -0.825 0  0.02500000000000002 -0.825 0  0.07500000000000001 -0.825 0  0.125 -0.825 0  0.175 -0.825 0  0.225 -0.825 0  -0.225 -0.775 0  -0.175 -0.775 0  -0.125 -0.775 0  -0.07500000000000001 -0.775 0  -0.02499999999999999 -0.775 0  0.02500000000000002 -0.775 0  0.07500000000000001 -0.775 0  0.125 -0.775 0  0.175 -0.775 0  0.225 -0.775 0  -0.225 -0.725 0  -0.175 -0.725 0  -0.125 -0.725 0  -0.07500000000000001 -0.725 0  -0.02499999999999999 -0.725 0  0.02500000000000002 -0.725 0  0.07500000000000001 -0.725 0  0.125 -0.725 0  0.175 -0.725 0  0.225 -0.725 0  -0.225 -0.675 0  -0.175 -0.675 0  -0.125 -0.675 0  -0.07500000000000001 -0.675 0  -0.02499999999999999 -0.675 0  0.02500000000000002 -0.675 0  0.07500000000000001 -0.675 0  0.125 -0.675 0  0.175 -0.675 0  0.225 -0.675 0  -0.225 -0.625 0  -0.175 -0.625 0  -0.125 -0.625 0  -0.07500000000000001 -0.625 0  -0.02499999999999999 -0.625 0  0.02500000000000002 -0.625 0  0.07500000000000001 -0.625 0  0.125 -0.625 0  0.175 -0.625 0  0.225 -0.625 0  -0.225 -0.575 0  -0.175 -0.575 0  -0.125 -0.575 0  -0.07500000000000001 -0.575 0  -0.02499999999999999 -0.575 0  0.02500000000000002 -0.575 0  0.07500000000000001 -0.575 0  0.125 -0.575 0  0.175 -0.575 0  0.225 -0.575 0  -0.225 -0.525 0  -0.175 -0.525 0  -0.125 -0.525 0  -0.07500000000000001 -0.525 0  -0.02499999999999999 -0.525 0  0.02500000000000002 -0.525 0  0.07500000000000001 -0.525 0  0.125 -0.525 0  0.175 -0.525 0  0.225 -0.525 0  -0.225 -0.475 0  -0.175 -0.475 0  -0.125 -0.475 0  -0.07500000000000001 -0.475 0  -0.02499999999999999 -0.475 0  0.02500000000000002 -0.475 0  0.07500000000000001 -0.475 0  0.125 -0.475 0  0.175 -0.475 0  0.225 -0.475 0  -0.225 -0.425 0  -0.175 -0.425 0  -0.125 -0.425 0  -0.07500000000000001 -0.425 0  -0.02499999999999999 -0.425 0  0.02500000000000002 -0.425 0  0.07500000000000001 -0.425 0  0.125 -0.425 0  0.175 -0.425 0  0.225 -0.425 0  -0.225 -0.375 0  -0.175 -0.375 0  -0.125 -0.375 0  -0.07500000000000001 -0.375 0  -0.02499999999999999 -0.375 0  0.02500000000000002 -0.375 0  0.07500000000000001 -0.375 0  0.125 -0.375 0  0.175 -0.375 0  0.225 -0.375 0  -0.225 -0.325 0  -0.175 -0.325 0  -0.125 -0.325 0  -0.07500000000000001 -0.325 0  -0.02499999999999999 -0.325 0  0.02500000000000002 -0.325 0  0.07500000000000001 -0.325 0  0.125 -0.325 0  0.175 -0.325 0  0.225 -0.325 0  -0.225 -0.275 0  -0.175 -0.275 0  -0.125 -0.275 0  -0.07500000000000001 -0.275 0  -0.02499999999999999 -0.275 0  0.02500000000000002 -0.275 0  0.07500000000000001 -0.275 0  0.125 -0.275 0  0.175 -0.275 0  0.225 -0.275 0  -0.225 -0.225 0  -0.175 -0.225 0  -0.125 -0.225 0  -0.07500000000000001 -0.225 0  -0.02499999999999999 -0.225 0  0.02500000000000002 -0.225 0  0.07500000000000001 -0.225 0  0.125 -0.225 0  0.175 -0.225 0  0.225 -0.225 0  -0.225 -0.175 0  -0.175 -0.175 0  -0.125 -0.175 0  -0.07500000000000001 -0.175 0  -0.02499999999999999 -0.175 0  0.02500000000000002 -0.175 0  0.07500000000000001 -0.175 0  0.125 -0.175 0  0.175 -0.175 0  0.225 -0.175 0  -0.225 -0.125 0  -0.175 -0.125 0  -0.125 -0.125 0  -0.07500000000000001 -0.125 0  -0.02499999999999999 -0.125 0  0.02500000000000002 -0.125 0  0.07500000000000001 -0.125 0  0.125 -0.125 0  0.175 -0.125 0  0.225 -0.125 0  -0.225 -0.07499999999999996 0  -0.175 -0.07499999999999996 0  -0.125 -0.07499999999999996 0  -0.07500000000000001 -0.07499999999999996 0  -0.02499999999999999 -0.07499999999999996 0  0.02500000000000002 -0.07499999999999996 0  0.07500000000000001 -0.07499999999999996 0  0.125 -0.07499999999999996 0  0.175 -0.07499999999999996 0  0.225 -0.07499999999999996 0  -0.225 -0.02500000000000002 0  -0.175 -0.02500000000000002 0  -0.125 -0.02500000000000002 0  -0.07500000000000001 -0.02500000000000002 0  -0.02499999999999999 -0.02500000000000002 0  0.02500000000000002 -0.02500000000000002 0  0.07500000000000001 -0.02500000000000002 0  0.125 -0.02500000000000002 0  0.175 -0.02500000000000002 0  0.225 -0.02500000000000002 0  </DataArray>
</Points>
<Cells>
[...]
<PointData  Vectors="flow"> 
<DataArray  type="Float64"  Name="flow"  NumberOfComponents="3" format="ascii">-4.8329031108241853e-03 9.6663851871484682e-03 0.0000000000000000e+00  9.3149813826909709e-07 9.6663851871992210e-03 0.0000000000000000e+00  -1.7961546260396735e-10 9.6663851871909116e-03 0.0000000000000000e+00  -9.9726764320214719e-14 9.6663851871915812e-03 0.0000000000000000e+00  -9.9629508531385479e-14 9.6663851871251951e-03 0.0000000000000000e+00  -1.4493611681332357e-14 9.6663851871062710e-03 0.0000000000000000e+00  1.3602277217354014e-14 9.6663851871044374e-03 0.0000000000000000e+00  -5.2564780693632693e-14 9.6663851871074610e-03 0.0000000000000000e+00  1.7949196057601840e-10 9.6663851871006921e-03 0.0000000000000000e+00  -9.3149822227694209e-07 9.6663851871101915e-03 0.0000000000000000e+00  4.8329031107821182e-03 9.6663851870874146e-03 0.0000000000000000e+00  -4.8180048834062161e-03 2.8965053081612367e-02 0.0000000000000000e+00  9.2862666082132680e-07 2.8965053081627019e-02 0.0000000000000000e+00  -1.7907752010718734e-10 2.8965053081671042e-02 0.0000000000000000e+00  -9.8844747905741246e-14 2.8965053081470227e-02 0.0000000000000000e+00  -1.5427650490267619e-13 2.8965053081678641e-02 0.0000000000000000e+00  -2.3534119019286922e-14 2.8965053081615490e-02 0.0000000000000000e+00  6.6386375001326673e-15 2.8965053081507364e-02 0.0000000000000000e+00  -6.7422355466828386e-14 2.8965053081514178e-02 0.0000000000000000e+00  1.7897349851840300e-10 2.8965053081499631e-02 0.0000000000000000e+00  -9.2862670850128457e-07 2.8965053081496620e-02 0.0000000000000000e+00  4.8180048833524544e-03 2.8965053081577215e-02 0.0000000000000000e+00  -4.7734020538045801e-03 5.7751526979258533e-02 0.0000000000000000e+00  9.2002989521958535e-07 5.7751526979163512e-02 0.0000000000000000e+00  -1.7755417761451100e-10 5.7751526979149072e-02 0.0000000000000000e+00  -7.8333409603400872e-14 5.7751526979149682e-02 0.0000000000000000e+00  1.6726393878706364e-14 5.7751526979161527e-02 0.0000000000000000e+00  -1.8720218984921016e-13 5.7751526979114641e-02 0.0000000000000000e+00  -7.9705147924289546e-14 5.7751526978959918e-02 0.0000000000000000e+00  -7.0182715244717294e-14 5.7751526979005027e-02 0.0000000000000000e+00  1.7725395768609559e-10 5.7751526979076935e-02 0.0000000000000000e+00  -9.2002988674673882e-07 5.7751526979010585e-02 0.0000000000000000e+00  4.7734020538813537e-03 5.7751526978988492e-02 0.0000000000000000e+00  -4.6993696131819238e-03 8.6181943508677861e-02 0.0000000000000000e+00  9.0576065116215309e-07 8.6181943508791520e-02 0.0000000000000000e+00  -1.7466331953555075e-10 8.6181943508357353e-02 0.0000000000000000e+00  -1.1104938191833431e-13 8.6181943508591027e-02 0.0000000000000000e+00  -1.5398041777885831e-13 8.6181943508423300e-02 0.0000000000000000e+00  -2.1812985682482017e-13 8.6181943508404107e-02 0.0000000000000000e+00  -1.0277749823670525e-13 8.6181943508441411e-02 0.0000000000000000e+00  5.9603139192584439e-14 8.6181943508481670e-02 0.0000000000000000e+00  1.7458389897047566e-10 8.6181943508507705e-02 0.0000000000000000e+00  -9.0576088952126596e-07 8.6181943508527301e-02 0.0000000000000000e+00  4.6993696131003753e-03 8.6181943508552267e-02 0.0000000000000000e+00  -4.5963639958754967e-03 1.1408101969797005e-01 0.0000000000000000e+00  8.8590705070595539e-07 1.1408101969789664e-01 0.0000000000000000e+00  -1.7115203807389703e-10 1.1408101969777179e-01 0.0000000000000000e+00  2.3197167721125799e-14 1.1408101969776438e-01 0.0000000000000000e+00  -2.4327950995062130e-13 1.1408101969760293e-01 0.0000000000000000e+00  -1.5244549476058688e-13 1.1408101969755076e-01 0.0000000000000000e+00  -9.3101143496846625e-15 1.1408101969754625e-01 0.0000000000000000e+00  1.6628905904589175e-14 1.1408101969749247e-01 0.0000000000000000e+00  1.7065662224549579e-10 1.1408101969768177e-01 0.0000000000000000e+00  -8.8590735292071513e-07 1.1408101969744740e-01 0.0000000000000000e+00  4.5963639962234223e-03 1.1408101969732562e-01 0.0000000000000000e+00  -4.4650202667869641e-03 1.4127674846477284e-01 0.0000000000000000e+00  8.6059182509822973e-07 1.4127674846475388e-01 0.0000000000000000e+00  -1.6613885326673975e-10 1.4127674846513413e-01 0.0000000000000000e+00  -2.9864928689185305e-13 1.4127674846492963e-01 0.0000000000000000e+00  -3.6928902309929387e-13 1.4127674846477564e-01 0.0000000000000000e+00  -2.8180962591766028e-13 1.4127674846468063e-01 0.0000000000000000e+00  -1.9780420878064592e-13 1.4127674846458069e-01 0.0000000000000000e+00  2.6958598226103778e-13 1.4127674846438334e-01 0.0000000000000000e+00  1.6584625497944815e-10 1.4127674846459504e-01 0.0000000000000000e+00  -8.6059254084473464e-07 1.4127674846452654e-01 0.0000000000000000e+00  4.4650202663961041e-03 1.4127674846436930e-01 0.0000000000000000e+00  -4.3061482023978755e-03 1.6760145909804516e-01 0.0000000000000000e+00  8.2997091459197941e-07 1.6760145909805893e-01 0.0000000000000000e+00  -1.6023916622100839e-10 1.6760145909826762e-01 0.0000000000000000e+00  -2.6391512435580196e-13 1.6760145909829510e-01 0.0000000000000000e+00  -3.7587746481405499e-13 1.6760145909846391e-01 0.0000000000000000e+00  -3.2011637758212802e-13 1.6760145909843746e-01 0.0000000000000000e+00  -2.9771846334858587e-13 1.6760145909831006e-01 0.0000000000000000e+00  -6.7666885878599427e-14 1.6760145909815349e-01 0.0000000000000000e+00  1.6004848101339927e-10 1.6760145909766114e-01 0.0000000000000000e+00  -8.2997111508533702e-07 1.6760145909821236e-01 0.0000000000000000e+00  4.3061482024835517e-03 1.6760145909837196e-01 0.0000000000000000e+00  -4.1207273028952395e-03 1.9289285100324144e-01 0.0000000000000000e+00  7.9423283559230235e-07 1.9289285100340695e-01 0.0000000000000000e+00  -1.5305276409147650e-10 1.9289285100352691e-01 0.0000000000000000e+00  -2.2173054740418195e-13 1.9289285100364795e-01 0.0000000000000000e+00  -3.7559495417985460e-13 1.9289285100374981e-01 0.0000000000000000e+00  -5.1112511959818756e-13 1.9289285100363365e-01 0.0000000000000000e+00  -4.5005492741414550e-13 1.9289285100330544e-01 0.0000000000000000e+00  -3.4838627189374986e-13 1.9289285100328674e-01 0.0000000000000000e+00  1.5311166340895746e-10 1.9289285100300793e-01 0.0000000000000000e+00  -7.9423252628939864e-07 1.9289285100309231e-01 0.0000000000000000e+00  4.1207273027195276e-03 1.9289285100344442e-01 0.0000000000000000e+00  -3.9099007484746581e-03 2.1699499433880343e-01 0.0000000000000000e+00  7.5359790749140320e-07 2.1699499433869149e-01 0.0000000000000000e+00  -1.4525318130063291e-10 2.1699499433870473e-01 0.0000000000000000e+00  -6.9781746708521842e-14 2.1699499433874220e-01 0.0000000000000000e+00  -1.8621260744896102e-13 2.1699499433897956e-01 0.0000000000000000e+00  -7.3780872534024965e-13 2.1699499433884312e-01 0.0000000000000000e+00  -6.6971215259451824e-13 2.1699499433880765e-01 0.0000000000000000e+00  -3.3076082574715818e-13 2.1699499433861594e-01 0.0000000000000000e+00  1.4524431839330957e-10 2.1699499433896602e-01 0.0000000000000000e+00  -7.5359762756656217e-07 2.1699499433892852e-01 0.0000000000000000e+00  3.9099007492474575e-03 2.1699499433880323e-01 0.0000000000000000e+00  -3.6749683568323525e-03 2.3975929137576427e-01 0.0000000000000000e+00  7.0831665101119863e-07 2.3975929137551091e-01 0.0000000000000000e+00  -1.3623624449044210e-10 2.3975929137537097e-01 0.0000000000000000e+00  -2.8239652102499169e-14 2.3975929137550497e-01 0.0000000000000000e+00  -2.6193413696149819e-13 2.3975929137542609e-01 0.0000000000000000e+00  -7.1120319782719925e-13 2.3975929137571517e-01 0.0000000000000000e+00  -6.5133476868671557e-13 2.3975929137579136e-01 0.0000000000000000e+00  -2.7606264324009041e-13 2.3975929137590882e-01 0.0000000000000000e+00  1.3659850676985390e-10 2.3975929137525648e-01 0.0000000000000000e+00  -7.0831659351594800e-07 2.3975929137529456e-01 0.0000000000000000e+00  3.6749683564180967e-03 2.3975929137513050e-01 0.0000000000000000e+00  -3.4173785628486748e-03 2.6104539265310045e-01 0.0000000000000000e+00  6.5866883803058633e-07 2.6104539265336890e-01 0.0000000000000000e+00  -1.2737691108971863e-10 2.6104539265319338e-01 0.0000000000000000e+00  1.0225222723239463e-13 2.6104539265289800e-01 0.0000000000000000e+00  -1.4190774369435616e-13 2.6104539265272320e-01 0.0000000000000000e+00  -4.0562930171712437e-13 2.6104539265288723e-01 0.0000000000000000e+00  -4.7867511460912814e-13 2.6104539265302218e-01 0.0000000000000000e+00  -8.2262993122764720e-13 2.6104539265272680e-01 0.0000000000000000e+00  1.2688161023618167e-10 2.6104539265300614e-01 0.0000000000000000e+00  -6.5866896197002711e-07 2.6104539265276144e-01 0.0000000000000000e+00  3.4173785629825846e-03 2.6104539265281967e-01 0.0000000000000000e+00  -3.1387194901843318e-03 2.8072206227823848e-01 0.0000000000000000e+00  6.0495721422749552e-07 2.8072206227842161e-01 0.0000000000000000e+00  -1.1497608574559850e-10 2.8072206227848712e-01 0.0000000000000000e+00  -1.5311057790686493e-12 2.8072206227853491e-01 0.0000000000000000e+00  4.0074000654427270e-13 2.8072206227839414e-01 0.0000000000000000e+00  -3.7869021906015481e-13 2.8072206227818924e-01 0.0000000000000000e+00  -1.2902871550416389e-12 2.8072206227819330e-01 0.0000000000000000e+00  6.7622252711920196e-13 2.8072206227828495e-01 0.0000000000000000e+00  1.1465209035106670e-10 2.8072206227833679e-01 0.0000000000000000e+00  -6.0495719691107942e-07 2.8072206227837021e-01 0.0000000000000000e+00  3.1387194902735200e-03 2.8072206227851204e-01 0.0000000000000000e+00  -2.8407091916348207e-03 2.9866798704019626e-01 0.0000000000000000e+00  5.4753667140221284e-07 2.9866798703998804e-01 0.0000000000000000e+00  -1.1749545228641376e-10 2.9866798704035141e-01 0.0000000000000000e+00  7.2562062865748127e-12 2.9866798704024228e-01 0.0000000000000000e+00  -3.8653877315629352e-12 2.9866798704006392e-01 0.0000000000000000e+00  -6.5989437956170532e-13 2.9866798704008296e-01 0.0000000000000000e+00  2.8710816893803714e-12 2.9866798703994252e-01 0.0000000000000000e+00  -7.6736714454449062e-12 2.9866798704042480e-01 0.0000000000000000e+00  1.1722377586870844e-10 2.9866798704027298e-01 0.0000000000000000e+00  -5.4753650172563778e-07 2.9866798704035996e-01 0.0000000000000000e+00  2.8407091917741940e-03 2.9866798704005820e-01 0.0000000000000000e+00  -2.5251848303902208e-03 3.1477252434534914e-01 0.0000000000000000e+00  4.8660938346231341e-07 3.1477252434514907e-01 0.0000000000000000e+00  -2.3301228081247871e-11 3.1477252434503900e-01 0.0000000000000000e+00  -4.1582437830919570e-11 3.1477252434487968e-01 0.0000000000000000e+00  1.6950485263852636e-11 3.1477252434490649e-01 0.0000000000000000e+00  -4.0285849125734570e-13 3.1477252434506847e-01 0.0000000000000000e+00  -1.7662051527481860e-11 3.1477252434543812e-01 0.0000000000000000e+00  4.0463998535263355e-11 3.1477252434517811e-01 0.0000000000000000e+00  2.3145022567484911e-11 3.1477252434521719e-01 0.0000000000000000e+00  -4.8660927663232154e-07 3.1477252434541353e-01 0.0000000000000000e+00  2.5251848303922669e-03 3.1477252434510711e-01 0.0000000000000000e+00  -2.1940927826663331e-03 3.2893638436463207e-01 0.0000000000000000e+00  4.2349467039186655e-07 3.2893638436487532e-01 0.0000000000000000e+00  -4.9638021167875830e-10 3.2893638436396494e-01 0.0000000000000000e+00  2.1958613529785421e-10 3.2893638436491129e-01 0.0000000000000000e+00  -8.4337551153672145e-11 3.2893638436493144e-01 0.0000000000000000e+00  -2.2273488521818802e-13 3.2893638436485972e-01 0.0000000000000000e+00  8.3775216812343110e-11 3.2893638436493489e-01 0.0000000000000000e+00  -2.2024607732551640e-10 3.2893638436518735e-01 0.0000000000000000e+00  4.9620607558801569e-10 3.2893638436533990e-01 0.0000000000000000e+00  -4.2349511767802782e-07 3.2893638436501338e-01 0.0000000000000000e+00  2.1940927822949739e-03 3.2893638436522066e-01 0.0000000000000000e+00  -1.8494675622147488e-03 3.4107224219162985e-01 0.0000000000000000e+00  3.5269315976872072e-07 3.4107224219150989e-01 0.0000000000000000e+00  2.3293094718086213e-09 3.4107224219240029e-01 0.0000000000000000e+00  -1.1138267214726639e-09 3.4107224219230292e-01 0.0000000000000000e+00  3.6064980210908617e-10 3.4107224219297705e-01 0.0000000000000000e+00  -4.2108821058253234e-13 3.4107224219285776e-01 0.0000000000000000e+00  -3.6126250504339063e-10 3.4107224219224713e-01 0.0000000000000000e+00  1.1142090374527243e-09 3.4107224219236093e-01 0.0000000000000000e+00  -2.3295185348984336e-09 3.4107224219277754e-01 0.0000000000000000e+00  -3.5269367995243849e-07 3.4107224219268545e-01 0.0000000000000000e+00  1.8494675625353786e-03 3.4107224219294202e-01 0.0000000000000000e+00  -1.4934779660771913e-03 3.5110527622871768e-01 0.0000000000000000e+00  3.1167019763912734e-07 3.5110527622822180e-01 0.0000000000000000e+00  -1.3477717977898983e-08 3.5110527622863552e-01 0.0000000000000000e+00  5.0483033105884527e-09 3.5110527622862747e-01 0.0000000000000000e+00  -1.2212575451158186e-09 3.5110527622919641e-01 0.0000000000000000e+00  -7.1529357994042710e-13 3.5110527622931686e-01 0.0000000000000000e+00  1.2208802080711103e-09 3.5110527622946847e-01 0.0000000000000000e+00  -5.0480666176579938e-09 3.5110527622916998e-01 0.0000000000000000e+00  1.3478121532986974e-08 3.5110527622901411e-01 0.0000000000000000e+00  -3.1166970190519389e-07 3.5110527622930404e-01 0.0000000000000000e+00  1.4934779655221950e-03 3.5110527622960680e-01 0.0000000000000000e+00  -1.1280235431166039e-03 3.5897362948314615e-01 0.0000000000000000e+00  6.5736579844436483e-08 3.5897362948364303e-01 0.0000000000000000e+00  6.9509723714803262e-08 3.5897362948325118e-01 0.0000000000000000e+00  -1.7587275090754580e-08 3.5897362948334827e-01 0.0000000000000000e+00  2.3404962496249799e-09 3.5897362948335615e-01 0.0000000000000000e+00  -4.0524373579081118e-13 3.5897362948346984e-01 0.0000000000000000e+00  -2.3407449124539546e-09 3.5897362948370448e-01 0.0000000000000000e+00  1.7587961105340908e-08 3.5897362948365730e-01 0.0000000000000000e+00  -6.9508895485233895e-08 3.5897362948398592e-01 0.0000000000000000e+00  -6.5736451133165777e-08 3.5897362948423606e-01 0.0000000000000000e+00  1.1280235424674715e-03 3.5897362948377104e-01 0.0000000000000000e+00  -7.5744222483718835e-04 3.6462879094106676e-01 0.0000000000000000e+00  1.1140342831811863e-06 3.6462879094167649e-01 0.0000000000000000e+00  -2.8236340096298355e-07 3.6462879094176115e-01 0.0000000000000000e+00  2.0121421105719321e-08 3.6462879094164763e-01 0.0000000000000000e+00  -1.3684502869129272e-09 3.6462879094101719e-01 0.0000000000000000e+00  -3.2017939194844314e-13 3.6462879094123019e-01 0.0000000000000000e+00  1.3686221762542875e-09 3.6462879094088341e-01 0.0000000000000000e+00  -2.0120971052484060e-08 3.6462879094132855e-01 0.0000000000000000e+00  2.8236380191992460e-07 3.6462879094147960e-01 0.0000000000000000e+00  -1.1140340457792500e-06 3.6462879094083683e-01 0.0000000000000000e+00  7.5744222502363502e-04 3.6462879094091677e-01 0.0000000000000000e+00  -3.6751487112687175e-04 3.6803589465047298e-01 0.0000000000000000e+00  -5.7075248259579525e-06 3.6803589465041869e-01 0.0000000000000000e+00  -7.0891271532963228e-08 3.6803589465035214e-01 0.0000000000000000e+00  1.8744519263455889e-08 3.6803589465042413e-01 0.0000000000000000e+00  -2.7190520423026252e-09 3.6803589465021536e-01 0.0000000000000000e+00  -3.6942355259767219e-13 3.6803589465039072e-01 0.0000000000000000e+00  2.7183639597157480e-09 3.6803589465076730e-01 0.0000000000000000e+00  -1.8743947941036209e-08 3.6803589465038783e-01 0.0000000000000000e+00  7.0891942897671183e-08 3.6803589465033176e-01 0.0000000000000000e+00  5.7075249849369506e-06 3.6803589465029535e-01 0.0000000000000000e+00  3.6751487223088235e-04 3.6803589465025849e-01 0.0000000000000000e+00  -1.6326687308207898e-04 3.6917393468642790e-01 0.0000000000000000e+00  -1.3821320749796496e-05 3.6917393468548920e-01 0.0000000000000000e+00  5.9465110458608049e-07 3.6917393468520515e-01 0.0000000000000000e+00  -5.0793119667044122e-08 3.6917393468434540e-01 0.0000000000000000e+00  5.3554277087602444e-09 3.6917393468444082e-01 0.0000000000000000e+00  1.7773759443287708e-13 3.6917393468398413e-01 0.0000000000000000e+00  -5.3554307359849116e-09 3.6917393468489484e-01 0.0000000000000000e+00  5.0792966212726044e-08 3.6917393468554610e-01 0.0000000000000000e+00  -5.9465088044422167e-07 3.6917393468467530e-01 0.0000000000000000e+00  1.3821320649135828e-05 3.6917393468513277e-01 0.0000000000000000e+00  1.6326687279253415e-04 3.6917393468529902e-01 0.0000000000000000e+00  2.4122619673257826e-03 9.6791321868016887e-03 0.0000000000000000e+00  -4.6494165994691551e-07 9.6791321868149975e-03 0.0000000000000000e+00  8.9501176464456868e-11 9.6791321868266739e-03 0.0000000000000000e+00  -1.8184191034711085e-13 9.6791321868006531e-03 0.0000000000000000e+00  -9.7715206645700956e-14 9.6791321867438149e-03 0.0000000000000000e+00  6.9194119884710537e-14 9.6791321867368794e-03 0.0000000000000000e+00  -2.2152764676773395e-14 9.6791321867442538e-03 0.0000000000000000e+00  -8.9638689311758143e-11 9.6791321867497372e-03 0.0000000000000000e+00  4.6494157185709074e-07 9.6791321867730692e-03 0.0000000000000000e+00  -2.4122619673663513e-03 9.6791321867766150e-03 0.0000000000000000e+00  2.3973895701427618e-03 4.3447501032906649e-02 0.0000000000000000e+00  -4.6207506087456299e-07 4.3447501032945528e-02 0.0000000000000000e+00  8.8647611240176152e-11 4.3447501032738346e-02 0.0000000000000000e+00  1.0157117262725853e-13 4.3447501032758816e-02 0.0000000000000000e+00  -1.6145592015338026e-13 4.3447501033013175e-02 0.0000000000000000e+00  -8.3398919391048677e-14 4.3447501032864384e-02 0.0000000000000000e+00  2.5198065104538570e-14 4.3447501032735300e-02 0.0000000000000000e+00  -8.9106177369111861e-11 4.3447501032693611e-02 0.0000000000000000e+00  4.6207501215899595e-07 4.3447501032610275e-02 0.0000000000000000e+00  -2.3973895701014337e-03 4.3447501032681649e-02 0.0000000000000000e+00  2.3677364690250094e-03 7.2114808994052093e-02 0.0000000000000000e+00  -4.5635977384366961e-07 7.2114808993957474e-02 0.0000000000000000e+00  8.7525529918418380e-11 7.2114808994127477e-02 0.0000000000000000e+00  1.4509364359759084e-13 7.2114808994101331e-02 0.0000000000000000e+00  -1.8940079268647945e-13 7.2114808993838986e-02 0.0000000000000000e+00  -2.5918877113991631e-13 7.2114808993798504e-02 0.0000000000000000e+00  8.6855237725752110e-14 7.2114808993802640e-02 0.0000000000000000e+00  -8.7895995414208711e-11 7.2114808993981733e-02 0.0000000000000000e+00  4.5635958090568072e-07 7.2114808994125923e-02 0.0000000000000000e+00  -2.3677364690134367e-03 7.2114808993974031e-02 0.0000000000000000e+00  2.3234854853957888e-03 1.0033750517709422e-01 0.0000000000000000e+00  -4.4783134278317127e-07 1.0033750517688843e-01 0.0000000000000000e+00  8.6259322199680706e-11 1.0033750517653540e-01 0.0000000000000000e+00  -1.1809056691885427e-13 1.0033750517662454e-01 0.0000000000000000e+00  -2.1614868634424695e-13 1.0033750517665663e-01 0.0000000000000000e+00  -2.3250062328815980e-13 1.0033750517672256e-01 0.0000000000000000e+00  1.3257677205253695e-13 1.0033750517685962e-01 0.0000000000000000e+00  -8.6160451982835529e-11 1.0033750517677717e-01 0.0000000000000000e+00  4.4783056931332517e-07 1.0033750517670049e-01 0.0000000000000000e+00  -2.3234854852239081e-03 1.0033750517692229e-01 0.0000000000000000e+00  2.2649094408779937e-03 1.2794158727483509e-01 0.0000000000000000e+00  -4.3654146816707333e-07 1.2794158727480354e-01 0.0000000000000000e+00  8.4128016141239632e-11 1.2794158727498101e-01 0.0000000000000000e+00  -3.2932984189215091e-13 1.2794158727469035e-01 0.0000000000000000e+00  -2.1180335828136778e-13 1.2794158727449664e-01 0.0000000000000000e+00  -2.5823473679138592e-13 1.2794158727437246e-01 0.0000000000000000e+00  -2.1220341776295684e-15 1.2794158727414814e-01 0.0000000000000000e+00  -8.3643319400660431e-11 1.2794158727442201e-01 0.0000000000000000e+00  4.3654028069277694e-07 1.2794158727447330e-01 0.0000000000000000e+00  -2.2649094409090353e-03 1.2794158727381505e-01 0.0000000000000000e+00  2.1923694764536699e-03 1.5475686694201410e-01 0.000000