<?xml version="1.0"?>
<VTKFile type="UnstructuredGrid"  version="0.1"  >
<UnstructuredGrid>
<Piece  NumberOfPoints="1661" NumberOfCells="3200">
<Points>
<DataArray  type="Float64"  NumberOfComponents="3"  format="ascii">-0.25 -1 0  -0.225 -1 0  -0.2 -1 0  -0.175 -1 0  -0.15 -1 0  -0.125 -1 0  -0.1 -1 0  -0.07500000000000001 -1 0  -0.04999999999999999 -1 0  -0.02499999999999999 -1 0  0 -1 0  0.02500000000000002 -1 0  0.04999999999999999 -1 0  0.07500000000000001 -1 0  0.09999999999999998 -1 0  0.125 -1 0  0.15 -1 0  0.175 -1 0  0.2 -1 0  0.225 -1 0  0.25 -1 0  -0.25 -0.975 0  -0.225 -0.975 0  -0.2 -0.975 0  -0.175 -0.975 0  -0.15 -0.975 0  -0.125 -0.975 0  -0.1 -0.975 0  -0.07500000000000001 -0.975 0  -0.04999999999999999 -0.975 0  -0.02499999999999999 -0.975 0  0 -0.975 0  0.02500000000000002 -0.975 0  0.04999999999999999 -0.975 0  0.07500000000000001 -0.975 0  0.09999999999999998 -0.975 0  0.125 -0.975 0  0.15 -0.975 0  0.175 -0.975 0  0.2 -0.975 0  0.225 -0.975 0  0.25 -0.975 0  -0.25 -0.95 0  -0.225 -0.95 0  -0.2 -0.95 0  -0.175 -0.95 0  -0.15 -0.95 0  -0.125 -0.95 0  -0.1 -0.95 0  -0.07500000000000001 -0.95 0  -0.04999999999999999 -0.95 0  -0.02499999999999999 -0.95 0  0 -0.95 0  0.02500000000000002 -0.95 0  0.04999999999999999 -0.95 0  0.07500000000000001 -0.95 0  0.09999999999999998 -0.95 0  0.125 -0.95 0  0.15 -0.95 0  0.175 -0.95 0  0.2 -0.95 0  0.225 -0.95 0  0.25 -0.95 0  -0.25 -0.925 0  -0.225 -0.925 0  -0.2 -0.925 0  -0.175 -0.925 0  -0.15 -0.925 0  -0.125 -0.925 0  -0.1 -0.925 0  -0.07500000000000001 -0.925 0  -0.04999999999999999 -0.925 0  -0.02499999999999999 -0.925 0  0 -0.925 0  0.02500000000000002 -0.925 0  0.04999999999999999 -0.925 0  0.07500000000000001 -0.925 0  0.09999999999999998 -0.925 0  0.125 -0.925 0  0.15 -0.925 0  0.175 -0.925 0  0.2 -0.925 0  0.225 -0.925 0  0.25 -0.925 0  -0.25 -0.9 0  -0.225 -0.9 0  -0.2 -0.9 0  -0.175 -0.9 0  -0.15 -0.9 0  -0.125 -0.9 0  -0.1 -0.9 0  -0.07500000000000001 -0.9 0  -0.04999999999999999 -0.9 0  -0.02499999999999999 -0.9 0  0 -0.9 0  0.02500000000000002 -0.9 0  0.04999999999999999 -0.9 0  0.07500000000000001 -0.9 0  0.09999999999999998 -0.9 0  0.125 -0.9 0  0.15 -0.9 0  0.175 -0.9 0  0.2 -0.9 0  0.225 -0.9 0  0.25 -0.9 0  -0.25 -0.875 0  -0.225 -0.875 0  -0.2 -0.875 0  -0.175 -0.875 0  -0.15 -0.875 0  -0.125 -0.875 0  -0.1 -0.875 0  -0.07500000000000001 -0.875 0  -0.04999999999999999 -0.875 0  -0.02499999999999999 -0.875 0  0 -0.875 0  0.02500000000000002 -0.875 0  0.04999999999999999 -0.875 0  0.07500000000000001 -0.875 0  0.09999999999999998 -0.875 0  0.125 -0.875 0  0.15 -0.875 0  0.175 -0.875 0  0.2 -0.875 0  0.225 -0.875 0  0.25 -0.875 0  -0.25 -0.85 0  -0.225 -0.85 0  -0.2 -0.85 0  -0.175 -0.85 0  -0.15 -0.85 0  -0.125 -0.85 0  -0.1 -0.85 0  -0.07500000000000001 -0.85 0  -0.04999999999999999 -0.85 0  -0.02499999999999999 -0.85 0  0 -0.85 0  0.02500000000000002 -0.85 0  0.04999999999999999 -0.85 0  0.07500000000000001 -0.85 0  0.09999999999999998 -0.85 0  0.125 -0.85 0  0.15 -0.85 0  0.175 -0.85 0  0.2 -0.85 0  0.225 -0.85 0  0.25 -0.85 0  -0.25 -0.825 0  -0.225 -0.825 0  -0.2 -0.825 0  -0.175 -0.825 0  -0.15 -0.825 0  -0.125 -0.825 0  -0.1 -0.825 0  -0.07500000000000001 -0.825 0  -0.04999999999999999 -0.825 0  -0.02499999999999999 -0.825 0  0 -0.825 0  0.02500000000000002 -0.825 0  0.04999999999999999 -0.825 0  0.07500000000000001 -0.825 0  0.09999999999999998 -0.825 0  0.125 -0.825 0  0.15 -0.825 0  0.175 -0.825 0  0.2 -0.825 0  0.225 -0.825 0  0.25 -0.825 0  -0.25 -0.8 0  -0.225 -0.8 0  -0.2 -0.8 0  -0.175 -0.8 0  -0.15 -0.8 0  -0.125 -0.8 0  -0.1 -0.8 0  -0.07500000000000001 -0.8 0  -0.04999999999999999 -0.8 0  -0.02499999999999999 -0.8 0  0 -0.8 0  0.02500000000000002 -0.8 0  0.04999999999999999 -0.8 0  0.07500000000000001 -0.8 0  0.09999999999999998 -0.8 0  0.125 -0.8 0  0.15 -0.8 0  0.175 -0.8 0  0.2 -0.8 0  0.225 -0.8 0  0.25 -0.8 0  -0.25 -0.775 0  -0.225 -0.775 0  -0.2 -0.775 0  -0.175 -0.775 0  -0.15 -0.775 0  -0.125 -0.775 0  -0.1 -0.775 0  -0.07500000000000001 -0.775 0  -0.04999999999999999 -0.775 0  -0.02499999999999999 -0.775 0  0 -0.775 0  0.02500000000000002 -0.775 0  0.04999999999999999 -0.775 0  0.07500000000000001 -0.775 0  0.09999999999999998 -0.775 0  0.125 -0.775 0  0.15 -0.775 0  0.175 -0.775 0  0.2 -0.775 0  0.225 -0.775 0  0.25 -0.775 0  -0.25 -0.75 0  -0.225 -0.75 0  -0.2 -0.75 0  -0.175 -0.75 0  -0.15 -0.75 0  -0.125 -0.75 0  -0.1 -0.75 0  -0.07500000000000001 -0.75 0  -0.04999999999999999 -0.75 0  -0.02499999999999999 -0.75 0  0 -0.75 0  0.02500000000000002 -0.75 0  0.04999999999999999 -0.75 0  0.07500000000000001 -0.75 0  0.09999999999999998 -0.75 0  0.125 -0.75 0  0.15 -0.75 0  0.175 -0.75 0  0.2 -0.75 0  0.225 -0.75 0  0.25 -0.75 0  -0.25 -0.725 0  -0.225 -0.725 0  -0.2 -0.725 0  -0.175 -0.725 0  -0.15 -0.725 0  -0.125 -0.725 0  -0.1 -0.725 0  -0.07500000000000001 -0.725 0  -0.04999999999999999 -0.725 0  -0.02499999999999999 -0.725 0  0 -0.725 0  0.02500000000000002 -0.725 0  0.04999999999999999 -0.725 0  0.07500000000000001 -0.725 0  0.09999999999999998 -0.725 0  0.125 -0.725 0  0.15 -0.725 0  0.175 -0.725 0  0.2 -0.725 0  0.225 -0.725 0  0.25 -0.725 0  -0.25 -0.7 0  -0.225 -0.7 0  -0.2 -0.7 0  -0.175 -0.7 0  -0.15 -0.7 0  -0.125 -0.7 0  -0.1 -0.7 0  -0.07500000000000001 -0.7 0  -0.04999999999999999 -0.7 0  -0.02499999999999999 -0.7 0  0 -0.7 0  0.02500000000000002 -0.7 0  0.04999999999999999 -0.7 0  0.07500000000000001 -0.7 0  0.09999999999999998 -0.7 0  0.125 -0.7 0  0.15 -0.7 0  0.175 -0.7 0  0.2 -0.7 0  0.225 -0.7 0  0.25 -0.7 0  -0.25 -0.675 0  -0.225 -0.675 0  -0.2 -0.675 0  -0.175 -0.675 0  -0.15 -0.675 0  -0.125 -0.675 0  -0.1 -0.675 0  -0.07500000000000001 -0.675 0  -0.04999999999999999 -0.675 0  -0.02499999999999999 -0.675 0  0 -0.675 0  0.02500000000000002 -0.675 0  0.04999999999999999 -0.675 0  0.07500000000000001 -0.675 0  0.09999999999999998 -0.675 0  0.125 -0.675 0  0.15 -0.675 0  0.175 -0.675 0  0.2 -0.675 0  0.225 -0.675 0  0.25 -0.675 0  -0.25 -0.65 0  -0.225 -0.65 0  -0.2 -0.65 0  -0.175 -0.65 0  -0.15 -0.65 0  -0.125 -0.65 0  -0.1 -0.65 0  -0.07500000000000001 -0.65 0  -0.04999999999999999 -0.65 0  -0.02499999999999999 -0.65 0  0 -0.65 0  0.02500000000000002 -0.65 0  0.04999999999999999 -0.65 0  0.07500000000000001 -0.65 0  0.09999999999999998 -0.65 0  0.125 -0.65 0  0.15 -0.65 0  0.175 -0.65 0  0.2 -0.65 0  0.225 -0.65 0  0.25 -0.65 0  -0.25 -0.625 0  -0.225 -0.625 0  -0.2 -0.625 0  -0.175 -0.625 0  -0.15 -0.625 0  -0.125 -0.625 0  -0.1 -0.625 0  -0.07500000000000001 -0.625 0  -0.04999999999999999 -0.625 0  -0.02499999999999999 -0.625 0  0 -0.625 0  0.02500000000000002 -0.625 0  0.04999999999999999 -0.625 0  0.07500000000000001 -0.625 0  0.09999999999999998 -0.625 0  0.125 -0.625 0  0.15 -0.625 0  0.175 -0.625 0  0.2 -0.625 0  0.225 -0.625 0  0.25 -0.625 0  -0.25 -0.6 0  -0.225 -0.6 0  -0.2 -0.6 0  -0.175 -0.6 0  -0.15 -0.6 0  -0.125 -0.6 0  -0.1 -0.6 0  -0.07500000000000001 -0.6 0  -0.04999999999999999 -0.6 0  -0.02499999999999999 -0.6 0  0 -0.6 0  0.02500000000000002 -0.6 0  0.04999999999999999 -0.6 0  0.07500000000000001 -0.6 0  0.09999999999999998 -0.6 0  0.125 -0.6 0  0.15 -0.6 0  0.175 -0.6 0  0.2 -0.6 0  0.225 -0.6 0  0.25 -0.6 0  -0.25 -0.575 0  -0.225 -0.575 0  -0.2 -0.575 0  -0.175 -0.575 0  -0.15 -0.575 0  -0.125 -0.575 0  -0.1 -0.575 0  -0.07500000000000001 -0.575 0  -0.04999999999999999 -0.575 0  -0.02499999999999999 -0.575 0  0 -0.575 0  0.02500000000000002 -0.575 0  0.04999999999999999 -0.575 0  0.07500000000000001 -0.575 0  0.09999999999999998 -0.575 0  0.125 -0.575 0  0.15 -0.575 0  0.175 -0.575 0  0.2 -0.575 0  0.225 -0.575 0  0.25 -0.575 0  -0.25 -0.55 0  -0.225 -0.55 0  -0.2 -0.55 0  -0.175 -0.55 0  -0.15 -0.55 0  -0.125 -0.55 0  -0.1 -0.55 0  -0.07500000000000001 -0.55 0  -0.04999999999999999 -0.55 0  -0.02499999999999999 -0.55 0  0 -0.55 0  0.02500000000000002 -0.55 0  0.04999999999999999 -0.55 0  0.07500000000000001 -0.55 0  0.09999999999999998 -0.55 0  0.125 -0.55 0  0.15 -0.55 0  0.175 -0.55 0  0.2 -0.55 0  0.225 -0.55 0  0.25 -0.55 0  -0.25 -0.525 0  -0.225 -0.525 0  -0.2 -0.525 0  -0.175 -0.525 0  -0.15 -0.525 0  -0.125 -0.525 0  -0.1 -0.525 0  -0.07500000000000001 -0.525 0  -0.04999999999999999 -0.525 0  -0.02499999999999999 -0.525 0  0 -0.525 0  0.02500000000000002 -0.525 0  0.04999999999999999 -0.525 0  0.07500000000000001 -0.525 0  0.09999999999999998 -0.525 0  0.125 -0.525 0  0.15 -0.525 0  0.175 -0.525 0  0.2 -0.525 0  0.225 -0.525 0  0.25 -0.525 0  -0.25 -0.5 0  -0.225 -0.5 0  -0.2 -0.5 0  -0.175 -0.5 0  -0.15 -0.5 0  -0.125 -0.5 0  -0.1 -0.5 0  -0.07500000000000001 -0.5 0  -0.04999999999999999 -0.5 0  -0.02499999999999999 -0.5 0  0 -0.5 0  0.02500000000000002 -0.5 0  0.04999999999999999 -0.5 0  0.07500000000000001 -0.5 0  0.09999999999999998 -0.5 0  0.125 -0.5 0  0.15 -0.5 0  0.175 -0.5 0  0.2 -0.5 0  0.225 -0.5 0  0.25 -0.5 0  -0.25 -0.475 0  -0.225 -0.475 0  -0.2 -0.475 0  -0.175 -0.475 0  -0.15 -0.475 0  -0.125 -0.475 0  -0.1 -0.475 0  -0.07500000000000001 -0.475 0  -0.04999999999999999 -0.475 0  -0.02499999999999999 -0.475 0  0 -0.475 0  0.02500000000000002 -0.475 0  0.04999999999999999 -0.475 0  0.07500000000000001 -0.475 0  0.09999999999999998 -0.475 0  0.125 -0.475 0  0.15 -0.475 0  0.175 -0.475 0  0.2 -0.475 0  0.225 -0.475 0  0.25 -0.475 0  -0.25 -0.45 0  -0.225 -0.45 0  -0.2 -0.45 0  -0.175 -0.45 0  -0.15 -0.45 0  -0.125 -0.45 0  -0.1 -0.45 0  -0.07500000000000001 -0.45 0  -0.04999999999999999 -0.45 0  -0.02499999999999999 -0.45 0  0 -0.45 0  0.02500000000000002 -0.45 0  0.04999999999999999 -0.45 0  0.07500000000000001 -0.45 0  0.09999999999999998 -0.45 0  0.125 -0.45 0  0.15 -0.45 0  0.175 -0.45 0  0.2 -0.45 0  0.225 -0.45 0  0.25 -0.45 0  -0.25 -0.425 0  -0.225 -0.425 0  -0.2 -0.425 0  -0.175 -0.425 0  -0.15 -0.425 0  -0.125 -0.425 0  -0.1 -0.425 0  -0.07500000000000001 -0.425 0  -0.04999999999999999 -0.425 0  -0.02499999999999999 -0.425 0  0 -0.425 0  0.02500000000000002 -0.425 0  0.04999999999999999 -0.425 0  0.07500000000000001 -0.425 0  0.
[...]
<PointData  Vectors="flow"> 
<DataArray  type="Float64"  Name="flow"  NumberOfComponents="3" format="ascii">-1.0167091879917770e-01 2.0334399329714706e-01 0.0000000000000000e+00  4.8995097646395231e-06 2.0334399329704742e-01 0.0000000000000000e+00  -2.3616183062503362e-10 2.0334399329643826e-01 0.0000000000000000e+00  -1.1317035684569155e-14 2.0334399329712685e-01 0.0000000000000000e+00  -1.0611146913778466e-13 2.0334399329783992e-01 0.0000000000000000e+00  9.8699208344559342e-13 2.0334399329732361e-01 0.0000000000000000e+00  -1.0554693341205037e-12 2.0334399329637406e-01 0.0000000000000000e+00  -2.5047452841614881e-12 2.0334399329772587e-01 0.0000000000000000e+00  -1.6828559650878120e-12 2.0334399329835243e-01 0.0000000000000000e+00  -1.9623713326280979e-12 2.0334399329838285e-01 0.0000000000000000e+00  -1.5895549590683098e-12 2.0334399329810915e-01 0.0000000000000000e+00  -1.2000219418140422e-12 2.0334399329787203e-01 0.0000000000000000e+00  -1.5603156839715200e-12 2.0334399329797551e-01 0.0000000000000000e+00  -1.7028469760995252e-12 2.0334399329775005e-01 0.0000000000000000e+00  4.7587338762070305e-13 2.0334399329864383e-01 0.0000000000000000e+00  2.4219521950459723e-12 2.0334399329837752e-01 0.0000000000000000e+00  1.2670307409352659e-12 2.0334399329847411e-01 0.0000000000000000e+00  1.0293407659896122e-12 2.0334399329846553e-01 0.0000000000000000e+00  2.3669061870877562e-10 2.0334399329765010e-01 0.0000000000000000e+00  -4.8995087255216872e-06 2.0334399329758890e-01 0.0000000000000000e+00  1.0167091879881533e-01 2.0334399329824454e-01 0.0000000000000000e+00  -1.0159253420462719e-01 6.0985345625120768e-01 0.0000000000000000e+00  4.8957319354462109e-06 6.0985345625082377e-01 0.0000000000000000e+00  -2.3599610593832022e-10 6.0985345625027909e-01 0.0000000000000000e+00  -2.1503005293221724e-14 6.0985345625084553e-01 0.0000000000000000e+00  1.5462110852284898e-13 6.0985345625033538e-01 0.0000000000000000e+00  4.4883445341220809e-13 6.0985345625053244e-01 0.0000000000000000e+00  -8.3215616592151817e-13 6.0985345625003995e-01 0.0000000000000000e+00  -2.2925722821331871e-12 6.0985345625084364e-01 0.0000000000000000e+00  -1.3748871720030592e-12 6.0985345625082465e-01 0.0000000000000000e+00  -1.6955631879583957e-12 6.0985345625092691e-01 0.0000000000000000e+00  -1.5781673086454627e-12 6.0985345625172238e-01 0.0000000000000000e+00  -1.1347923170036060e-12 6.0985345625084653e-01 0.0000000000000000e+00  -1.5966080295017357e-12 6.0985345625150622e-01 0.0000000000000000e+00  -1.2729659499746757e-12 6.0985345625154863e-01 0.0000000000000000e+00  7.7867715167253685e-14 6.0985345625174558e-01 0.0000000000000000e+00  2.1128209189448251e-12 6.0985345625156329e-01 0.0000000000000000e+00  1.9173380272439169e-12 6.0985345625140053e-01 0.0000000000000000e+00  7.2722326002878931e-13 6.0985345625170873e-01 0.0000000000000000e+00  2.3599982466782511e-10 6.0985345625164478e-01 0.0000000000000000e+00  -4.8957313358949007e-06 6.0985345625123644e-01 0.0000000000000000e+00  1.0159253420567724e-01 6.0985345625113963e-01 0.0000000000000000e+00  -1.0135750128607317e-01 1.2187665626749640e+00 0.0000000000000000e+00  4.8844051546166748e-06 1.2187665626748703e+00 0.0000000000000000e+00  -2.3517537954039778e-10 1.2187665626745081e+00 0.0000000000000000e+00  2.3748671552263246e-13 1.2187665626747790e+00 0.0000000000000000e+00  -5.9810059561652132e-13 1.2187665626743700e+00 0.0000000000000000e+00  2.6081153332476911e-13 1.2187665626743251e+00 0.0000000000000000e+00  -4.3817708516100630e-13 1.2187665626738025e+00 0.0000000000000000e+00  -1.5114335468854436e-12 1.2187665626750361e+00 0.0000000000000000e+00  -1.0496890396928445e-12 1.2187665626753237e+00 0.0000000000000000e+00  -1.3809377116019481e-12 1.2187665626755990e+00 0.0000000000000000e+00  -1.9595116663154317e-12 1.2187665626758146e+00 0.0000000000000000e+00  -1.1292725926263064e-12 1.2187665626758357e+00 0.0000000000000000e+00  -1.2567347757137371e-12 1.2187665626761384e+00 0.0000000000000000e+00  -1.3126949110722624e-12 1.2187665626762039e+00 0.0000000000000000e+00  5.3340072746735743e-13 1.2187665626764261e+00 0.0000000000000000e+00  2.0767325945588480e-12 1.2187665626759652e+00 0.0000000000000000e+00  1.4340874842194897e-12 1.2187665626762016e+00 0.0000000000000000e+00  8.4927942360727823e-13 1.2187665626758082e+00 0.0000000000000000e+00  2.3586614622371872e-10 1.2187665626759210e+00 0.0000000000000000e+00  -4.8844056566486133e-06 1.2187665626761164e+00 0.0000000000000000e+00  1.0135750128781375e-01 1.2187665626757844e+00 0.0000000000000000e+00  -1.0096618244833777e-01 1.8258004193972184e+00 0.0000000000000000e+00  4.8655479267752882e-06 1.8258004193972175e+00 0.0000000000000000e+00  -2.3483295202831450e-10 1.8258004193968014e+00 0.0000000000000000e+00  -2.2958547375660158e-13 1.8258004193966373e+00 0.0000000000000000e+00  -1.6628195858754379e-13 1.8258004193961697e+00 0.0000000000000000e+00  1.4376117186774584e-13 1.8258004193966106e+00 0.0000000000000000e+00  -4.8430514313842727e-13 1.8258004193979263e+00 0.0000000000000000e+00  -8.4414577639369581e-13 1.8258004193967197e+00 0.0000000000000000e+00  -9.5189846982857197e-13 1.8258004193969828e+00 0.0000000000000000e+00  -8.8330509783339587e-13 1.8258004193975041e+00 0.0000000000000000e+00  -1.3594747043954172e-12 1.8258004193976951e+00 0.0000000000000000e+00  -9.3693669072522462e-13 1.8258004193983950e+00 0.0000000000000000e+00  -1.0357164724637543e-12 1.8258004193981940e+00 0.0000000000000000e+00  -7.6334296557349241e-13 1.8258004193991462e+00 0.0000000000000000e+00  -3.7411061578536339e-13 1.8258004193997801e+00 0.0000000000000000e+00  1.7715670058162643e-12 1.8258004193987238e+00 0.0000000000000000e+00  2.0969756743123077e-12 1.8258004193984794e+00 0.0000000000000000e+00  4.5107800736665192e-13 1.8258004193984581e+00 0.0000000000000000e+00  2.3498024321851720e-10 1.8258004193986175e+00 0.0000000000000000e+00  -4.8655478947669720e-06 1.8258004193989770e+00 0.0000000000000000e+00  1.0096618244904124e-01 1.8258004193990860e+00 0.0000000000000000e+00  -1.0041918107609889e-01 2.4300190242097548e+00 0.0000000000000000e+00  4.8391872826743047e-06 2.4300190242098023e+00 0.0000000000000000e+00  -2.3358829606729907e-10 2.4300190242097952e+00 0.0000000000000000e+00  -5.0150573658721418e-13 2.4300190242100523e+00 0.0000000000000000e+00  -2.6981871495550612e-13 2.4300190242103059e+00 0.0000000000000000e+00  1.8099052000893694e-12 2.4300190242097508e+00 0.0000000000000000e+00  -4.0894542941801656e-13 2.4300190242096944e+00 0.0000000000000000e+00  -2.3543997636668885e-12 2.4300190242088764e+00 0.0000000000000000e+00  -7.3946136275514911e-13 2.4300190242095048e+00 0.0000000000000000e+00  -6.0625906961272449e-13 2.4300190242095190e+00 0.0000000000000000e+00  -9.1019076360971188e-13 2.4300190242102371e+00 0.0000000000000000e+00  -5.8734874529345985e-13 2.4300190242103961e+00 0.0000000000000000e+00  -4.0382121931845507e-13 2.4300190242106567e+00 0.0000000000000000e+00  -2.5284436700100915e-13 2.4300190242109205e+00 0.0000000000000000e+00  3.8205940532870351e-13 2.4300190242127546e+00 0.0000000000000000e+00  1.0237307411029602e-12 2.4300190242119557e+00 0.0000000000000000e+00  1.0219092403794032e-12 2.4300190242109925e+00 0.0000000000000000e+00  9.1789931720659787e-13 2.4300190242116120e+00 0.0000000000000000e+00  2.3420776681391184e-10 2.4300190242121169e+00 0.0000000000000000e+00  -4.8391879371094781e-06 2.4300190242117985e+00 0.0000000000000000e+00  1.0041918107563660e-01 2.4300190242116035e+00 0.0000000000000000e+00  -9.9717340603884708e-02 3.0304907158189955e+00 0.0000000000000000e+00  4.8053663985218367e-06 3.0304907158191887e+00 0.0000000000000000e+00  -2.3170852513934154e-10 3.0304907158193455e+00 0.0000000000000000e+00  -6.5792350794346943e-14 3.0304907158190026e+00 0.0000000000000000e+00  -1.5490398075413625e-13 3.0304907158199348e+00 0.0000000000000000e+00  -6.1579984384222788e-13 3.0304907158192904e+00 0.0000000000000000e+00  -1.0474446463816352e-12 3.0304907158172480e+00 0.0000000000000000e+00  -6.8276067246926121e-13 3.0304907158185896e+00 0.0000000000000000e+00  -3.5272996311463622e-13 3.0304907158188410e+00 0.0000000000000000e+00  -2.4667977956233707e-13 3.0304907158201315e+00 0.0000000000000000e+00  -6.1645579081229236e-13 3.0304907158187975e+00 0.0000000000000000e+00  -8.7595143213172428e-13 3.0304907158193797e+00 0.0000000000000000e+00  -4.3480397617368800e-13 3.0304907158192611e+00 0.0000000000000000e+00  1.5076334997529098e-12 3.0304907158196923e+00 0.0000000000000000e+00  8.1381590153017116e-13 3.0304907158205103e+00 0.0000000000000000e+00  -4.8776865990056552e-13 3.0304907158204504e+00 0.0000000000000000e+00  1.5753900523864234e-12 3.0304907158206311e+00 0.0000000000000000e+00  1.4802460982382108e-12 3.0304907158207208e+00 0.0000000000000000e+00  2.3269893638366525e-10 3.0304907158208270e+00 0.0000000000000000e+00  -4.8053667113940726e-06 3.0304907158207990e+00 0.0000000000000000e+00  9.9717340603774754e-02 3.0304907158205436e+00 0.0000000000000000e+00  -9.8861743219455830e-02 3.6262896103999722e+00 0.0000000000000000e+00  4.7641349666988079e-06 3.6262896103999571e+00 0.0000000000000000e+00  -2.3001568121343889e-10 3.6262896104002964e+00 0.0000000000000000e+00  2.6262882216991507e-13 3.6262896104000211e+00 0.0000000000000000e+00  -4.9553578148526212e-13 3.6262896104001139e+00 0.0000000000000000e+00  -8.4726618366005675e-13 3.6262896103995561e+00 0.0000000000000000e+00  -1.2696919685965937e-12 3.6262896104000504e+00 0.0000000000000000e+00  -1.0355731683993861e-12 3.6262896104001920e+00 0.0000000000000000e+00  1.1338166333273651e-12 3.6262896104004039e+00 0.0000000000000000e+00  -6.6861707096334746e-13 3.6262896104005287e+00 0.0000000000000000e+00  -1.2499771203446280e-12 3.6262896104005913e+00 0.0000000000000000e+00  9.7422986676107904e-15 3.6262896104010842e+00 0.0000000000000000e+00  -1.0928256364145515e-13 3.6262896104015017e+00 0.0000000000000000e+00  8.2347615853855566e-13 3.6262896104009053e+00 0.0000000000000000e+00  9.2089538354525737e-13 3.6262896103986364e+00 0.0000000000000000e+00  1.5643839252932916e-12 3.6262896104011082e+00 0.0000000000000000e+00  1.7156771158636714e-12 3.6262896104021052e+00 0.0000000000000000e+00  9.7252497360172309e-13 3.6262896104016495e+00 0.0000000000000000e+00  2.3058006182915214e-10 3.6262896104011229e+00 0.0000000000000000e+00  -4.7641356865836039e-06 3.6262896104012010e+00 0.0000000000000000e+00  9.8861743219451667e-02 3.6262896104016340e+00 0.0000000000000000e+00  -9.7853708192952069e-02 4.2164970292402106e+00 0.0000000000000000e+00  4.7155582428959704e-06 4.2164970292408306e+00 0.0000000000000000e+00  -2.2740038369436072e-10 4.2164970292413297e+00 0.0000000000000000e+00  -1.2702729765018392e-14 4.2164970292412463e+00 0.0000000000000000e+00  -6.2617846571168361e-13 4.2164970292394628e+00 0.0000000000000000e+00  -4.2170478292080855e-13 4.2164970292403900e+00 0.0000000000000000e+00  -5.0244544051018329e-13 4.2164970292405091e+00 0.0000000000000000e+00  -5.1710223793153642e-13 4.2164970292416317e+00 0.0000000000000000e+00  -5.1576434664198565e-14 4.2164970292418094e+00 0.0000000000000000e+00  -3.1829371667142273e-13 4.2164970292407107e+00 0.0000000000000000e+00  1.9500067331830631e-13 4.2164970292420101e+00 0.0000000000000000e+00  -1.4211712151752205e-13 4.2164970292421087e+00 0.0000000000000000e+00  -6.9677159936223262e-13 4.2164970292418671e+00 0.0000000000000000e+00  -1.0065481167798702e-12 4.2164970292413484e+00 0.0000000000000000e+00  1.0949478746163327e-12 4.2164970292417401e+00 0.0000000000000000e+00  3.1827439445355230e-12 4.2164970292418111e+00 0.0000000000000000e+00  1.5901143231136565e-12 4.2164970292420314e+00 0.0000000000000000e+00  4.3444855289122061e-13 4.2164970292415616e+00 0.0000000000000000e+00  2.2797613712727552e-10 4.2164970292419115e+00 0.0000000000000000e+00  -4.7155578048473023e-06 4.2164970292416895e+00 0.0000000000000000e+00  9.7853708193845784e-02 4.2164970292421904e+00 0.0000000000000000e+00  -9.6694789840203882e-02 4.8002029152788284e+00 0.0000000000000000e+00  4.6597107846107470e-06 4.8002029152794856e+00 0.0000000000000000e+00  -2.2433436105455336e-10 4.8002029152791215e+00 0.0000000000000000e+00  -1.7025125401458451e-12 4.8002029152793542e+00 0.0000000000000000e+00  -1.5078675988416636e-12 4.8002029152793133e+00 0.0000000000000000e+00  3.9207286229612785e-13 4.8002029152802752e+00 0.0000000000000000e+00  2.2694959319912477e-13 4.8002029152804164e+00 0.0000000000000000e+00  4.0790863880452658e-13 4.8002029152810080e+00 0.0000000000000000e+00  2.2278504014509468e-13 4.8002029152812007e+00 0.0000000000000000e+00  -3.5587319278726209e-13 4.8002029152819876e+00 0.0000000000000000e+00  -1.0401367622835847e-13 4.8002029152817114e+00 0.0000000000000000e+00  -8.5722842720359701e-14 4.8002029152810257e+00 0.0000000000000000e+00  -7.4271464779996547e-13 4.8002029152805941e+00 0.0000000000000000e+00  1.8862603735165345e-14 4.8002029152801375e+00 0.0000000000000000e+00  1.2259624562223623e-12 4.8002029152808809e+00 0.0000000000000000e+00  1.9486159582459029e-12 4.8002029152806465e+00 0.0000000000000000e+00  1.3788692422282980e-12 4.8002029152790753e+00 0.0000000000000000e+00  1.1385441308863797e-12 4.8002029152810906e+00 0.0000000000000000e+00  2.2552064282960638e-10 4.8002029152812709e+00 0.0000000000000000e+00  -4.6597099096948854e-06 4.8002029152809733e+00 0.0000000000000000e+00  9.6694789841621984e-02 4.8002029152801757e+00 0.0000000000000000e+00  -9.5386775132466739e-02 5.3765072363504762e+00 0.0000000000000000e+00  4.5966774084860239e-06 5.3765072363499780e+00 0.0000000000000000e+00  -2.2203162638265869e-10 5.3765072363504061e+00 0.0000000000000000e+00  -4.1609615221286064e-15 5.3765072363503705e+00 0.0000000000000000e+00  4.8091899295979509e-13 5.3765072363522339e+00 0.0000000000000000e+00  3.0428908679014644e-13 5.3765072363522641e+00 0.0000000000000000e+00  3.8862101620912272e-14 5.3765072363524347e+00 0.0000000000000000e+00  1.2679777447586529e-13 5.3765072363514506e+00 0.0000000000000000e+00  7.5271728570942630e-13 5.3765072363520536e+00 0.0000000000000000e+00  5.0139218333560454e-13 5.3765072363509789e+00 0.0000000000000000e+00  -8.3833634137006824e-13 5.3765072363507080e+00 0.0000000000000000e+00  -1.1473183273858858e-12 5.3765072363510162e+00 0.0000000000000000e+00  -1.5703854375324211e-12 5.3765072363503421e+00 0.0000000000000000e+00  -5.6353356448318527e-13 5.3765072363506947e+00 0.0000000000000000e+00  2.0364181333804431e-12 5.3765072363495117e+00 0.0000000000000000e+00  1.2692403013996364e-12 5.3765072363506121e+00 0.0000000000000000e+00  2.0045429727893775e-12 5.3765072363509496e+00 0.0000000000000000e+00  2.7119918516738063e-12 5.3765072363509585e+00 0.0000000000000000e+00  2.2168411490434342e-10 5.3765072363503306e+00 0.0000000000000000e+00  -4.5966776593298642e-06 5.3765072363501929e+00 0.0000000000000000e+00  9.5386775131292970e-02 5.3765072363491972e+00 0.0000000000000000e+00  -9.3931680930388756e-02 5.9445213729609270e+00 0.0000000000000000e+00  4.5265571181349921e-06 5.9445213729603665e+00 0.0000000000000000e+00  -2.1773127232700553e-10 5.9445213729605682e+00 0.0000000000000000e+00  3.6069721767903837e-13 5.9445213729619732e+00 0.0000000000000000e+00  5.9941990465957435e-13 5.9445213729625879e+00 0.0000000000000000e+00  4.3077065697995389e-13 5.9445213729619395e+00 0.0000000000000000e+00  -4.6101979367061365e-13 5.9445213729626323e+00 0.0000000000000000e+00  2.5305101118728956e-13 5.9445213729619351e+00 0.0000000000000000e+00  -4.3713636542341160e-13 5.9445213729620647e+00 0.0000000000000000e+00  -1.8439795182898791e-12 5.9445213729603950e+00 0.0000000000000000e+00  -4.7034136142738885e-13 5.9445213729598878e+00 0.0000000000000000e+00  -1.8746176261379837e-13 5.9445213729592874e+00 0.0000000000000000e+00  -1.0167320282584432e-12 5.9445213729596835e+00 0.0000000000000000e+00  -6.3604066859577248e-13 5.9445213729604065e+00 0.0000000000000000e+00  9.8438849703840599e-13 5.9445213729599899e+00 0.0000000000000000e+00  3.3438377930200961e-12 5.9445213729592004e+00 0.0000000000000000e+00  1.8526264723191488e-12 5.9445213729616961e+00 0.0000000000000000e+00  7.0326334944997628e-13 5.9445213729590822e+00 0.0000000000000000e+00  2.1829880998002523e-10 5.9445213729588851e+00 0.0000000000000000e+00  -4.5265572894376403e-06 5.9445213729586897e+00 0.0000000000000000e+00  9.3931680930284478e-02 5.9445213729588353e+00 0.0000000000000000e+00  -9.2331750883790475e-02 6.5033694884816962e+00 0.0000000000000000e+00  4.4494559210144394e-06 6.5033694884816926e+00 0.0000000000000000e+00  -2.1332880219966131e-10 6.5033694884814395e+00 0.0000000000000000e+00  1.8811857680653107e-12 6.5033694884830329e+00 0.0000000000000000e+00  6.5390806638723015e-13 6.5033694884835871e+00 0.0000000000000000e+00  6.6410658005237852e-13 6.5033694884840418e+00 0.0000000000000000e+00  1.2587603982463490e-13 6.5033694884845863e+00 0.0000000000000000e+00  -5.8493646191712293e-13 6.5033694884853359e+00 0.0000000000000000e+00  -7.2778271607531655e-13 6.5033694884836457e+00 0.0000000000000000e+00  -1.3954099012294074e-12 6.5033694884842879e+00 0.0000000000000000e+00  -1.6826046047434274e-12 6.5033694884844717e+00 0.0000000000000000e+00  -1.6059698471307911e-12 6.5033694884825524e+00 0.0000000000000000e+00  -8.5339138026215738e-13 6.5033694884821349e+00 0.0000000000000000e+00  -4.6108904625544996e-13 6.5033694884802182e+00 0.0000000000000000e+00  7.6347388815874546e-13 6.5033694884806881e+00 0.0000000000000000e+00  2.7597678887730237e-12 6.5033694884798647e+00 0.0000000000000000e+00  1.8886567168077756e-12 6.5033694884785529e+00 0.0000000000000000e+00  -1.0310110731073840e-13 6.5033694884797004e+00 0.0000000000000000e+00  2.1452207800992668e-10 6.5033694884798887e+00 0.0000000000000000e+00  -4.4494560651586930e-06 6.5033694884805318e+00 0.0000000000000000e+00  9.2331750884906819e-02 6.5033694884814066e+00 0.0000000000000000e+00  -9.0589451969701779e-02 7.0521898796255398e+00 0.0000000000000000e+00  4.3654950149644883e-06 7.0521898796265132e+00 0.0000000000000000e+00  -2.0824411552541073e-10 7.0521898796271669e+00 0.0000000000000000e+00  2.3770001155976833e-12 7.0521898796273161e+00 0.0000000000000000e+00  1.0374280997759991e-12 7.0521898796274334e+00 0.0000000000000000e+00  1.1099652052354979e-12 7.0521898796278855e+00 0.0000000000000000e+00  9.2239879054588025e-13 7.0521898796288509e+00 0.0000000000000000e+00  -7.4428749028354739e-13 7.0521898796286857e+00 0.0000000000000000e+00  -1.0063790011633183e-12 7.0521898796289992e+00 0.0000000000000000e+00  -1.0342702982658602e-12 7.0521898796292044e+00 0.0000000000000000e+00  -2.5307346027185645e-12 7.0521898796283384e+00 0.0000000000000000e+00  -2.6835158432520838e-12 7.0521898796280889e+00 0.0000000000000000e+00  -2.5857662753381812e-12 7.0521898796265621e+00 0.0000000000000000e+00  -1.7976272014866351e-12 7.0521898796257352e+00 0.0000000000000000e+00  5.6452900888414560e-13 7.0521898796241480e+00 0.0000000000000000e+00  1.3783140695789686e-12 7.0521898796246072e+00 0.0000000000000000e+00  1.7667555733277749e-12 7.0521898796240281e+00 0.0000000000000000e+00  1.8225660920460648e-12 7.0521898796249136e+00 0.0000000000000000e+00  2.1097699499585863e-10 7.0521898796251090e+00 0.0000000000000000e+00  -4.3654947068547173e-06 7.0521898796255726e+00 0.0000000000000000e+00  9.0589451971135881e-02 7.0521898796257325e+00 0.0000000000000000e+00  -8.8707470686823678e-02 7.5901363051287571e+00 0.0000000000000000e+00  4.2748034697239149e-06 7.5901363051288468e+00 0.0000000000000000e+00  -2.0404841575985559e-10 7.5901363051295965e+00 0.0000000000000000e+00  2.2087708244932700e-12 7.5901363051287607e+00 0.0000000000000000e+00  1.4911756383047732e-12 7.5901363051294979e+00 0.0000000000000000e+00  2.4891696804865357e-12 7.5901363051293931e+00 0.0000000000000000e+00  9.4426746462463312e-13 7.5901363051299757e+00 0.0000000000000000e+00  -6.5644213205042063e-13 7.5901363051297661e+00 0.0000000000000000e+00  -5.9999731379888938e-13 7.5901363051302750e+00 0.0000000000000000e+00 