<?xml version="1.0"?>
<VTKFile type="UnstructuredGrid"  version="0.1"  >
<UnstructuredGrid>
<Piece  NumberOfPoints="854" NumberOfCells="1596">
<Points>
<DataArray  type="Float64"  NumberOfComponents="3"  format="ascii">-0.02781678701797331 -0.04647784327427693 0  -0.02538422566144643 -0.04667184908299045 0  -0.02652877195264674 -0.04567539734737942 0  -0.05 -0.05312500000000001 0  -0.04811912640459025 -0.05253610701182041 0  -0.05 -0.0515625 0  -0.02899502477229902 -0.04803478075179329 0  -0.02923548165964452 -0.04662851706305639 0  -0.02249350916210405 -0.05756412936044115 0  -0.0203195083958392 -0.05687598774678908 0  -0.02095870557061441 -0.05843796894332276 0  -0.0441628656802633 -0.05940305190338293 0  -0.04541256861990934 -0.06100003793299257 0  -0.04614292548179974 -0.05943086762223604 0  0.01017345837010273 -0.05769818894326342 0  0.01257096511573747 -0.05741073122222133 0  0.01199697692997241 -0.058984518130708 0  0.01470753125203114 -0.04816506250406229 0  0.01581567795051093 -0.04979263651326838 0  0.01423898291326179 -0.04967510961170915 0  -0.02086032995459787 -0.04678858387113149 0  -0.0199341123853538 -0.04838661920330159 0  -0.01931431280249884 -0.04609375 0  -0.001680304984140507 -0.05261406763445607 0  -0.001860837244262322 -0.05065094456623151 0  -0.0005909679910356918 -0.05152402771642645 0  -0.005203169869815907 -0.063408387077611 0  -0.005795874220342064 -0.06136858202269977 0  -0.007169687901432507 -0.06341678026929995 0  0.006028532990060553 -0.03846042534778643 0  0.006689526301856015 -0.04071687560886686 0  0.00470687896267873 -0.04007262327868574 0  0.007681421014797305 -0.0335876017633407 0  0.007398918941703169 -0.03180190167941388 0  0.009257982989763691 -0.03352046177391386 0  -0.002501899107215252 -0.03451361758785813 0  -0.003994222433335283 -0.03302847981728372 0  -0.00237569780992264 -0.03289446498059487 0  -0.03834537706133037 -0.04910019455252918 0  -0.03893084400845775 -0.0505842199270596 0  -0.03978172746268 -0.04939103576868267 0  -0.02961483445283294 -0.04429487938443922 0  -0.03136339580500359 -0.04496180428920909 0  -0.0303747380627551 -0.04302198425974124 0  -0.02007378472222222 -0.03177083333333333 0  -0.02239389172413698 -0.03214132682270486 0  -0.02109822763807408 -0.03280530166237346 0  2.405987640392848e-05 -0.0604407265430706 0  0.001342218073462028 -0.05912647428938291 0  3.695705182295165e-05 -0.05913549804748571 0  -0.03283032834564539 -0.06088737538203123 0  -0.03433327775466556 -0.0618046716509543 0  -0.03409636453940582 -0.0605029372505023 0  -0.04413627809979717 -0.04502964300775884 0  -0.04604771420796538 -0.04508688933511684 0  -0.0453151101858084 -0.04400389013742394 0  -0.01746961805555555 -0.03101128472222222 0  -0.01915147569444444 -0.03008897569444444 0  -0.01783316571178066 -0.02961095015928098 0  -0.01494018809894989 -0.06003035061353305 0  -0.0139058884867534 -0.05871666257001249 0  -0.01350821235199411 -0.060367617048519 0  -0.02618825764425157 -0.05952228886785037 0  -0.02772777262491462 -0.05918827740577445 0  -0.02679509387602945 -0.05805767104796359 0  -0.007626619839192271 -0.03955527372186517 0  -0.008951299015395937 -0.03848096315329933 0  -0.006518133045618423 -0.03864485562360071 0  -0.02267804660897878 -0.04479166666666666 0  -0.02081249562573519 -0.04491928487043712 0  -0.02268977356564392 -0.04325592999463841 0  -0.03383223677127735 -0.05380273720232678 0  -0.03489161592695806 -0.0546732075058699 0  -0.03481246927755723 -0.05292618308003903 0  -0.02991071428571428 -0.05329326110353833 0  -0.03053860460529459 -0.05152671902895579 0  -0.02880624554896211 -0.05190583657473875 0  0.003880552158806201 -0.04910058949648512 0  0.004639589519810899 -0.05108934613081326 0  0.005570108460811736 -0.0499414484761177 0  -0.02327795588347301 -0.03930652618770811 0  -0.02486310391344979 -0.03854942208631368 0  -0.02458387340884331 -0.04000276088388564 0  -0.02965977176321958 -0.04987064838119242 0  -0.03151498146247666 -0.0499473597007698 0  -0.005208333333333331 -0.04663513209089385 0  -0.004696030535063632 -0.0487673722035586 0  -0.006160787771090825 -0.04799163790095413 0  0.002256955057953323 -0.03542009683155154 0  0.002478844003272855 -0.03693214507778883 0  0.0009942345205310021 -0.03581760440233908 0  -0.03955829636164478 -0.06618721975980241 0  -0.03751342210215539 -0.06518999255878076 0  -0.03914413830697622 -0.06478332168464747 0  -0.03541666666666667 -0.06041666666666666 0  -0.03777505276601351 -0.0612893992546924 0  -0.03774064596242072 -0.05942192948826657 0  -0.03882629768826652 -0.06033597897025076 0  -0.02991071428571428 -0.06211553281168236 0  -0.03170383056757221 -0.06229380722247076 0  -0.0306656133500556 -0.06060665342614047 0  0.002672434464373351 -0.05782442806434116 0  0.004205271826810189 -0.05906909110223223 0  0.003621073244015077 -0.05672544031758242 0  0.01066098305406274 -0.05999515557027461 0  0.009461554335003694 -0.05904950974817084 0  0.0004382181809313461 -0.04439373199081217 0  0.0007479406588227182 -0.04630941102478892 0  0.001434473698376028 -0.04521553686097385 0  0.009039169047364189 -0.04062936042476101 0  0.007849009582011639 -0.03910743039857202 0  0.009507271836584152 -0.03875260097857094 0  0.003579743803523502 -0.05527424030410576 0  0.00495579046143639 -0.05615428398934548 0  0.007184194424042271 -0.04772337119454249 0  0.009116470808511714 -0.04731590763080268 0  0.007927373114962557 -0.04646231940317579 0  -0.003294269781653621 -0.04595817884714862 0  -0.003588698982274615 -0.04756559079455246 0  -0.01934692347958504 -0.05893848545414168 0  -0.02083333333333332 -0.03958333333333333 0  -0.02215660612617937 -0.04033657149359295 0  -0.02121677367915418 -0.03828125 0  -0.005615842898686297 -0.03437124196063728 0  -0.007416067229776028 -0.03518034726825829 0  -0.006054704616810422 -0.03580205691967763 0  -0.01302083333333333 -0.05260416666666667 0  -0.01171875 -0.05390625 0  -0.01171875 -0.05260416666666666 0  -0.01770064247689481 -0.05432205180650591 0  -0.01897546044124709 -0.05332939113838762 0  -0.0187022681159755 -0.05532589189681572 0  -0.01302083333333333 -0.05130208333333334 0  -0.004157923962185587 -0.03660884936063957 0  -0.002121340039484437 -0.0366645371443241 0  -0.003389459586812602 -0.03835665334840834 0  -0.007913035375586628 -0.0615410109990858 0  -0.03681366160742916 -0.05780040947227882 0  -0.03472060866939086 -0.05732774700086921 0  -0.03549333970893096 -0.05877650436040723 0  -0.03690476190476191 -0.03750000000000001 0  -0.03847177245354389 -0.0367681266259752 0  -0.03638515588252184 -0.0361370125666952 0  -0.03619427440804578 -0.04043490771729352 0  -0.03451268287663042 -0.03865576143836598 0  -0.03608409179926118 -0.03885478264740441 0  -0.005175004679933259 -0.03128537442936601 0  -0.003579275799392356 -0.02990168269634324 0  -0.003587402364175357 -0.03149153588773727 0  0.003782179117330453 -0.03352803109814534 0  0.001800461004723053 -0.0329743674150207 0  0.009302575519085478 -0.04534992603921641 0  0.009513501161241235 -0.04296668972212099 0  0.01124108542315425 -0.04409850809919492 0  0.01270832488148558 -0.05007117248908488 0  0.01282123189459499 -0.04818811416515179 0  0.01182500023256633 -0.04907329480983055 0  -0.04283499587290376 -0.06521972076452692 0  -0.04477892619379116 -0.06439657994007053 0  -0.04421236657091408 -0.06576555653762778 0  -0.04398521510889171 -0.06244044890584508 0  -0.04337105816452184 -0.06088063454299558 0  -0.04263792540377773 -0.0620701115857645 0  -0.04435012479767778 -0.04795947098448357 0  -0.04263708544801918 -0.04860338475299016 0  -0.04350328610589898 -0.04664713184197014 0  -0.01041666666666667 -0.05260416666666667 0  -0.009114583333333332 -0.05390625 0  -0.009114583333333337 -0.05260416666666667 0  -0.006602877926868728 -0.04666859936192611 0  -0.007999101390003741 -0.03706595863040997 0  -0.03625638963978759 -0.06329372195147459 0  -0.03627204387618492 -0.06172808081227613 0  -0.03475873843657866 -0.06324156506234664 0  0.01439721346977286 -0.05583102001882564 0  0.01422104128432557 -0.0574728398015178 0  -0.04123325213729569 -0.04977742938180724 0  -0.04229970360231513 -0.05150309473625565 0  -0.04267707282590829 -0.05007751950731253 0  -0.03540046447454039 -0.05174997538409749 0  -0.03593530277956502 -0.05378398284441666 0  -0.0368728613793078 -0.05195415959969768 0  -0.03333335481254267 -0.05633735472828818 0  -0.03198050037053014 -0.05611098325631581 0  -0.03322753170044795 -0.05500012028855297 0  -0.03969267205397397 -0.04450107246028451 0  -0.03852757389427703 -0.04665666493922895 0  -0.0378169977058336 -0.04487993423739384 0  -0.04024433245980837 -0.05148967613615939 0  -0.006315940723374573 -0.05930905927662544 0  -0.006818132723183277 -0.05716888666069714 0  -0.004760658602505579 -0.05781510592441898 0  -0.01506155066908195 -0.06265730892296595 0  -0.01624188870473453 -0.06128649604741916 0  -0.01410738797557291 -0.06163287547965644 0  -0.01543676622175152 -0.05764123715386302 0  -0.01708984054418851 -0.05920016068972921 0  -0.0270349353787649 -0.0519910321998235 0  -0.02827478243375398 -0.05346223359486457 0  -0.03134471120132367 -0.05906217432111517 0  -0.02981756157736552 -0.05834495495195317 0  -0.03203978345072137 -0.0574813644810117 0  -0.03978145327372433 -0.06138564745740099 0  0.006734928674614752 -0.05146463867314664 0  0.008637288779891891 -0.05258740018528525 0  0.00688671743750553 -0.05338047456655459 0  0.01132326291384637 -0.05562964572743351 0  0.01288299677436642 -0.05538292627510294 0  -0.02844810693838604 -0.03529440998727736 0  -0.0282840145203564 -0.03722042418493871 0  -0.02741121811358063 -0.03617606647412757 0  -0.02787221863249389 -0.04050912559888084 0  -0.02706591328673005 -0.04152970640829271 0  -0.02868111738535834 -0.04149984328948978 0  -0.01562499999999999 -0.04739583333333333 0  -0.01432291666666666 -0.04609375 0  -0.01432291666666666 -0.04739583333333333 0  -0.02299098630487812 -0.04174997663113473 0  -0.0214381564438239 -0.04167905004622655 0  -0.002966979231171331 -0.05174252990113383 0  -0.
[...]
<PointData  Vectors="flow"> 
<DataArray  type="Float64"  Name="flow"  NumberOfComponents="3" format="ascii">-7.1448427733080499e-08 3.2564609582722601e-08 0.0000000000000000e+00  2.5783794588506417e-08 -8.7221251148974836e-09 0.0000000000000000e+00  -1.1683404926439931e-08 -8.1473731034368874e-08 0.0000000000000000e+00  2.7082559798596467e-08 -7.3726634250745342e-08 0.0000000000000000e+00  4.1631055509803063e-08 -3.3199588263269355e-08 0.0000000000000000e+00  -1.4018862833216300e-07 -2.9280387148718586e-08 0.0000000000000000e+00  -2.9622584964690942e-08 -6.7589686106539021e-08 0.0000000000000000e+00  1.6541722292473908e-07 2.6936037306872947e-07 0.0000000000000000e+00  1.1965895039061898e-08 -3.9541197582080158e-08 0.0000000000000000e+00  8.6745096229720802e-09 -2.7896461027094452e-09 0.0000000000000000e+00  -7.7530188262156741e-09 4.5126379419589533e-09 0.0000000000000000e+00  -3.7054498694372503e-09 -6.9444875872365738e-08 0.0000000000000000e+00  7.7576718571970383e-09 -1.0599242112278397e-08 0.0000000000000000e+00  2.4986824514027517e-08 3.7265127590151266e-09 0.0000000000000000e+00  -3.6977122970862533e-08 -4.4769744271039956e-08 0.0000000000000000e+00  -1.3203816516421483e-07 1.9444338516273497e-07 0.0000000000000000e+00  2.2718766958380925e-07 -1.8613358168281627e-07 0.0000000000000000e+00  -4.7300221464008309e-08 9.3137255965192542e-08 0.0000000000000000e+00  1.0958466653870370e-08 7.0965541447694292e-08 0.0000000000000000e+00  -2.2770879367203143e-08 -1.9122485902107501e-07 0.0000000000000000e+00  -3.3787625699473403e-08 2.4981437493929559e-08 0.0000000000000000e+00  6.5015105136578611e-08 -2.5108373836698638e-08 0.0000000000000000e+00  3.2684269206731169e-08 -1.4911420235305434e-08 0.0000000000000000e+00  5.1668781764063751e-08 1.7463197421834738e-08 0.0000000000000000e+00  4.4542348196437589e-08 1.2384218537632136e-08 0.0000000000000000e+00  -2.9378255099101987e-08 1.9187871399430574e-08 0.0000000000000000e+00  1.3167468023330909e-08 -1.2133611347535565e-08 0.0000000000000000e+00  1.5421867504718245e-08 8.0882541013174118e-09 0.0000000000000000e+00  -2.4182184651682106e-08 2.6482352092032709e-08 0.0000000000000000e+00  8.5799811994884669e-09 1.7298761330811210e-09 0.0000000000000000e+00  -8.7115946131615060e-09 2.4192891884700683e-08 0.0000000000000000e+00  -4.1418958889538935e-08 -2.2530030680290512e-08 0.0000000000000000e+00  -2.1157467152058160e-09 -2.0853778799026248e-08 0.0000000000000000e+00  -9.1567436433579207e-09 2.3492248794400336e-09 0.0000000000000000e+00  9.3195695224644240e-09 1.6460821496038657e-08 0.0000000000000000e+00  5.7392423617639962e-08 5.8674031590584623e-08 0.0000000000000000e+00  2.0815080698024576e-08 5.5943891623076936e-08 0.0000000000000000e+00  3.5681045544931081e-08 -4.6058886298221586e-08 0.0000000000000000e+00  -1.3190582573403588e-07 -2.7973267303260758e-08 0.0000000000000000e+00  1.6732545786421935e-08 -6.6098394300569907e-08 0.0000000000000000e+00  2.5028087055599629e-08 1.3078352734369250e-08 0.0000000000000000e+00  -4.2621825974202983e-08 -1.6485340203447803e-07 0.0000000000000000e+00  -9.0032879085597882e-10 4.7072436531917282e-08 0.0000000000000000e+00  -4.0987642806157316e-08 2.1611544697348347e-08 0.0000000000000000e+00  2.3274106879119560e-07 -1.0730467915661526e-07 0.0000000000000000e+00  8.5058311303425383e-08 1.1389975018415902e-07 0.0000000000000000e+00  -2.9211148344555888e-07 8.2774878229951677e-08 0.0000000000000000e+00  2.6371062799441053e-08 -1.0042463141045297e-07 0.0000000000000000e+00  -6.8017352869940377e-09 -4.0836346909875817e-08 0.0000000000000000e+00  4.2009409496738062e-08 1.1368053113785722e-07 0.0000000000000000e+00  -1.1765790150476106e-08 3.1628967290546600e-09 0.0000000000000000e+00  -7.4598178220295701e-09 1.2927723007517986e-08 0.0000000000000000e+00  6.3408007641123652e-09 1.9943301000706216e-08 0.0000000000000000e+00  -3.1681730191411194e-08 -5.6242482135638694e-07 0.0000000000000000e+00  -5.7284277016729474e-08 -1.8567914841002854e-07 0.0000000000000000e+00  2.1744710401383370e-07 2.1423423963250613e-07 0.0000000000000000e+00  3.2255027696335824e-09 -2.6190421400398822e-07 0.0000000000000000e+00  1.3920898961866124e-07 -2.6760235244051862e-08 0.0000000000000000e+00  -2.8633404346721903e-07 1.7643567597029108e-07 0.0000000000000000e+00  -1.2479273258721919e-08 7.3276893414101584e-09 0.0000000000000000e+00  -9.4722027538027586e-10 5.6038355219756757e-09 0.0000000000000000e+00  2.2041184902645383e-08 1.5767546480884712e-09 0.0000000000000000e+00  -1.1798399913225147e-08 -2.3270582718620466e-08 0.0000000000000000e+00  2.7697881234720252e-10 -1.6444921773984744e-08 0.0000000000000000e+00  3.6447810527601823e-08 7.4383528666115704e-08 0.0000000000000000e+00  -4.3868301716921857e-09 6.8748842779673734e-09 0.0000000000000000e+00  7.6591317899566641e-09 4.5158115085405794e-09 0.0000000000000000e+00  -4.1936694593454327e-08 -5.7257401709077439e-08 0.0000000000000000e+00  8.1363634699769529e-08 1.1680169336572727e-08 0.0000000000000000e+00  -1.1409768901895911e-08 7.5655589498489058e-08 0.0000000000000000e+00  4.7284018857662398e-08 9.8673911380069330e-09 0.0000000000000000e+00  3.4157058300013853e-08 -1.8803375440281735e-07 0.0000000000000000e+00  9.9786930705341438e-08 1.1732250811132803e-07 0.0000000000000000e+00  2.7838051674348834e-08 -2.0963095393454254e-07 0.0000000000000000e+00  1.7733730552515711e-07 4.9759364957502606e-08 0.0000000000000000e+00  -7.7575229287031065e-08 -8.6306971009309164e-08 0.0000000000000000e+00  -2.9728989306645830e-08 -4.6573936721698630e-08 0.0000000000000000e+00  4.4422678703416645e-09 1.7291376896232250e-08 0.0000000000000000e+00  -3.5427865059392651e-08 -1.1532761147858001e-08 0.0000000000000000e+00  2.4024759241301523e-08 2.9688290101793773e-09 0.0000000000000000e+00  -6.3270430124877705e-08 -3.2243894894414190e-08 0.0000000000000000e+00  1.5387992100582250e-08 -5.3784979445538991e-08 0.0000000000000000e+00  3.7220887524518892e-08 2.7919915390756707e-08 0.0000000000000000e+00  -7.8199122098698003e-08 2.1166660702693860e-07 0.0000000000000000e+00  7.3840680334049925e-08 -4.9281600635009717e-08 0.0000000000000000e+00  -1.7274993562291552e-09 1.8014018790315176e-09 0.0000000000000000e+00  -4.3632214593347465e-08 -7.7848720020787103e-09 0.0000000000000000e+00  -3.6618568743914620e-08 -8.7296056079157553e-08 0.0000000000000000e+00  1.9495133974956819e-08 -2.2078666664988151e-08 0.0000000000000000e+00  -3.1939214061243183e-08 2.5643395027473689e-08 0.0000000000000000e+00  8.8549040880924847e-08 -4.4745336054214360e-08 0.0000000000000000e+00  4.7196379749791950e-09 -4.1706990845598614e-09 0.0000000000000000e+00  -1.5206905516886601e-08 -8.5102521426564675e-09 0.0000000000000000e+00  6.2318318933042577e-09 -1.8104140394708969e-08 0.0000000000000000e+00  1.7578394244677246e-08 -8.1410571209675461e-09 0.0000000000000000e+00  -7.6341282288100442e-09 -2.4254564017742797e-08 0.0000000000000000e+00  -1.3596864762569446e-08 2.9969952367404274e-08 0.0000000000000000e+00  1.9925368434880019e-08 -2.9176534552463490e-08 0.0000000000000000e+00  -3.2486943457672250e-09 5.2889118532312273e-08 0.0000000000000000e+00  3.3525881905955693e-08 -7.5437333671702526e-09 0.0000000000000000e+00  -1.5749899180482297e-09 -6.9623609980382720e-08 0.0000000000000000e+00  3.9857006450274396e-08 1.5448619622189943e-08 0.0000000000000000e+00  1.3129936848085637e-07 2.8818114993434221e-08 0.0000000000000000e+00  -4.7103537738839958e-10 7.4642574005682111e-09 0.0000000000000000e+00  -5.7998129206821946e-08 -1.6304196209962611e-08 0.0000000000000000e+00  3.9532386215257022e-08 -3.6651260953728963e-07 0.0000000000000000e+00  -4.0614943374392971e-10 -5.6327735803081716e-08 0.0000000000000000e+00  -2.4412251312814791e-08 -3.0881419875226202e-08 0.0000000000000000e+00  6.2850458253106842e-08 8.5781870185926999e-08 0.0000000000000000e+00  -8.4753010413824380e-09 3.6448103879788485e-08 0.0000000000000000e+00  1.6850165638578521e-08 -1.7572950074238549e-08 0.0000000000000000e+00  5.4744410995061756e-09 9.4627954033341196e-09 0.0000000000000000e+00  1.3429004150007587e-10 -5.1124699884548238e-08 0.0000000000000000e+00  -1.6423580922206396e-09 -3.9202579003754095e-08 0.0000000000000000e+00  -4.7568135265367216e-08 -5.9162955153656641e-08 0.0000000000000000e+00  6.5335292407978352e-08 -5.9753102193932685e-08 0.0000000000000000e+00  6.7840148940493039e-08 -8.2735902326615377e-10 0.0000000000000000e+00  7.8567308029555203e-09 7.3792782120200561e-08 0.0000000000000000e+00  8.7214109016638683e-09 -3.8732114236342212e-08 0.0000000000000000e+00  -2.9228059557992137e-08 -1.8456651194352748e-08 0.0000000000000000e+00  1.2117738361606340e-08 1.0956981765792953e-07 0.0000000000000000e+00  2.7356188427632902e-08 2.4271282744226223e-07 0.0000000000000000e+00  -3.4988247058453973e-08 -9.8335636478525378e-08 0.0000000000000000e+00  -6.1221609106719390e-08 9.8942440139477549e-09 0.0000000000000000e+00  1.0702745889473014e-07 -9.9874440459935839e-08 0.0000000000000000e+00  -3.8346076200051999e-08 3.7838700359515838e-08 0.0000000000000000e+00  -2.7925653432025624e-08 -2.0824038579415310e-08 0.0000000000000000e+00  3.0482003317527526e-09 -3.2007723207755396e-08 0.0000000000000000e+00  5.4405020574406383e-08 9.4527113784295625e-09 0.0000000000000000e+00  1.1523852900255575e-08 -3.3591178245309215e-08 0.0000000000000000e+00  2.2559385928040224e-09 5.4738196361499772e-08 0.0000000000000000e+00  2.0313878687291335e-09 -4.7554554399369941e-08 0.0000000000000000e+00  -6.2063901236915940e-08 -1.9736892996045192e-08 0.0000000000000000e+00  -3.4030807749582890e-09 7.4060900828854686e-09 0.0000000000000000e+00  -8.3812883392831709e-08 -4.2762203517497106e-08 0.0000000000000000e+00  1.6287360751543966e-08 -2.6943233262463551e-08 0.0000000000000000e+00  -1.2493843363151149e-08 -1.1104627150677948e-08 0.0000000000000000e+00  1.9145036084514842e-08 -2.5455393857077390e-08 0.0000000000000000e+00  -1.5974593578110100e-08 5.8040335366373101e-10 0.0000000000000000e+00  2.4211591303367405e-08 2.1870986065926596e-08 0.0000000000000000e+00  -5.2910322624283001e-08 1.8230599491340047e-08 0.0000000000000000e+00  -3.0531303309768174e-09 -2.0582592853150151e-07 0.0000000000000000e+00  -1.0262042789686138e-07 4.1390537003392475e-07 0.0000000000000000e+00  6.4409138028324837e-08 6.6887470204913079e-08 0.0000000000000000e+00  -2.4442489423271900e-07 -8.8581687078578937e-08 0.0000000000000000e+00  4.5002080077973278e-07 -3.7849267297808064e-07 0.0000000000000000e+00  -1.1325580776166048e-07 -1.4115608195075760e-08 0.0000000000000000e+00  1.3690073137568595e-08 4.9261567356205458e-08 0.0000000000000000e+00  1.9782532409965827e-07 -5.7244904456554514e-08 0.0000000000000000e+00  -1.8662406617750092e-09 1.8132298055933833e-08 0.0000000000000000e+00  3.1220387795387263e-08 -2.3421445018226516e-08 0.0000000000000000e+00  3.3500641109638169e-08 1.5524936769623699e-08 0.0000000000000000e+00  1.6059805597888331e-09 -2.7039388785418093e-08 0.0000000000000000e+00  -1.0426767884579597e-09 -1.0753138158213108e-08 0.0000000000000000e+00  1.1661681500607694e-07 -4.4664941686260761e-08 0.0000000000000000e+00  -1.4593279197098856e-08 -4.6439802477211104e-09 0.0000000000000000e+00  1.8585231942499346e-08 3.5272531504540105e-08 0.0000000000000000e+00  2.3791023232553898e-09 2.4355115408667423e-08 0.0000000000000000e+00  1.3501682770338136e-08 4.6225665816741703e-09 0.0000000000000000e+00  -1.4343525567663320e-08 -2.6818689078952977e-08 0.0000000000000000e+00  1.6691528858165124e-08 -1.3780802415364639e-08 0.0000000000000000e+00  -1.5371945138412019e-08 5.0774751457577673e-08 0.0000000000000000e+00  2.5323930217679956e-08 -1.6479943331438643e-08 0.0000000000000000e+00  -5.3746475588492786e-09 1.6514545007687468e-07 0.0000000000000000e+00  2.3671476729544038e-08 -5.9211657401139829e-08 0.0000000000000000e+00  1.6580377842557176e-07 1.5501110027976757e-07 0.0000000000000000e+00  -1.8892593444100329e-08 1.4833369456165188e-08 0.0000000000000000e+00  -7.2031133373706249e-08 -4.3948793633507385e-08 0.0000000000000000e+00  -3.1107857413305836e-08 -3.9295235981963411e-08 0.0000000000000000e+00  8.0507877443053910e-08 1.9924715369235735e-09 0.0000000000000000e+00  3.7107984418010361e-08 8.2379206116064576e-09 0.0000000000000000e+00  -1.6693581256087879e-09 2.7166174776833440e-08 0.0000000000000000e+00  -2.3384840571802812e-08 -2.1213675281089428e-08 0.0000000000000000e+00  -7.3986215796234610e-09 -1.2146070566010617e-08 0.0000000000000000e+00  7.4947033000510420e-09 1.8455454233113412e-07 0.0000000000000000e+00  -9.6315850478631533e-09 -1.9492828217855420e-07 0.0000000000000000e+00  -4.5423642924040036e-08 -1.3012579141109883e-07 0.0000000000000000e+00  -6.0050989630816709e-08 2.2757678313196538e-08 0.0000000000000000e+00  -6.4169467175946898e-08 8.0239818350930525e-08 0.0000000000000000e+00  -9.2709195568216349e-08 2.1875317204836231e-07 0.0000000000000000e+00  -4.5388977829746798e-08 -7.1078932145873515e-08 0.0000000000000000e+00  -3.3190116208141497e-08 -8.8394904342721244e-08 0.0000000000000000e+00  4.2348480348297517e-08 7.5746178467735669e-09 0.0000000000000000e+00  -1.0696052945377376e-07 -5.9460378292960558e-08 0.0000000000000000e+00  -1.2051483483387680e-07 9.2534184124072743e-08 0.0000000000000000e+00  -3.1311835029479056e-08 3.9310206198831429e-07 0.0000000000000000e+00  5.6732738225212242e-08 -2.2782741825725476e-07 0.0000000000000000e+00  1.2188958722654706e-07 1.4680454933977853e-07 0.0000000000000000e+00  9.0258515589940159e-08 7.4506002403573748e-10 0.0000000000000000e+00  2.5192922301471365e-08 -3.9348913497512935e-09 0.0000000000000000e+00  1.2366432747440218e-08 3.1693033346264831e-08 0.0000000000000000e+00  -1.3746525030317036e-10 9.9864582565772130e-09 0.0000000000000000e+00  4.9377084718730582e-09 -3.8900133503429943e-09 0.0000000000000000e+00  9.8739166412176650e-09 7.7727348689476706e-09 0.0000000000000000e+00  -6.0012383993226393e-09 -1.8392217910531609e-08 0.0000000000000000e+00  -7.7853616724941943e-09 4.1637369576569196e-09 0.0000000000000000e+00  1.2228693652548893e-08 -5.8845521876563996e-09 0.0000000000000000e+00  -5.6951642277128406e-08 -5.2484039127187831e-08 0.0000000000000000e+00  -1.1598198338027445e-07 4.6067119318300919e-08 0.0000000000000000e+00  1.9900919135352438e-08 4.3647231846260901e-08 0.0000000000000000e+00  -6.6874930211347523e-09 6.9775900719975901e-09 0.0000000000000000e+00  2.0386920104540264e-08 2.3481639040528970e-08 0.0000000000000000e+00  -1.2966673293103942e-08 1.1309148174019009e-09 0.0000000000000000e+00  1.1948368076760201e-08 -1.6446523443521693e-08 0.0000000000000000e+00  -8.9301682916095351e-09 -7.3929247279174156e-09 0.0000000000000000e+00  3.1461535624175444e-08 3.2333063045204421e-08 0.0000000000000000e+00  9.3367173685625311e-08 5.1807836460764063e-08 0.0000000000000000e+00  -3.1368370652733824e-07 -1.7369694159001048e-07 0.0000000000000000e+00  7.1498486175944055e-08 5.7754173431175320e-08 0.0000000000000000e+00  1.5080108133153528e-08 -1.0384952461690691e-07 0.0000000000000000e+00  -1.2337364467012703e-07 -2.1204264838135478e-07 0.0000000000000000e+00  -8.9920141054851057e-08 -5.5308255138121110e-08 0.0000000000000000e+00  4.9640969817235560e-08 6.5845915340528820e-08 0.0000000000000000e+00  -1.2677290632702242e-07 1.3131819228799384e-07 0.0000000000000000e+00  -4.1440700519529459e-09 5.2440999142524678e-08 0.0000000000000000e+00  -2.4147513612912272e-08 3.8541282833529136e-08 0.0000000000000000e+00  1.2080747565440361e-07 -1.0977883247372089e-07 0.0000000000000000e+00  1.0293755348159968e-08 -5.2861638705243752e-08 0.0000000000000000e+00  4.0198285729304727e-08 -1.6193115621754978e-07 0.0000000000000000e+00  -5.3140327597239060e-08 -2.5610830106552360e-08 0.0000000000000000e+00  1.6613449171117565e-08 4.1067753226635396e-08 0.0000000000000000e+00  3.8264145105259382e-09 7.8648032213707800e-09 0.0000000000000000e+00  -8.2774853878690203e-08 -4.7293346674384327e-09 0.0000000000000000e+00  -4.2315774810635016e-08 -3.5594423761308647e-08 0.0000000000000000e+00  -2.5947955375514250e-08 4.8301861260140974e-08 0.0000000000000000e+00  -3.1031669721578211e-09 -3.1171318514168537e-08 0.0000000000000000e+00  1.9144104582463102e-08 5.1472097421824843e-08 0.0000000000000000e+00  2.9484000309028239e-08 5.3939290792976619e-08 0.0000000000000000e+00  5.8045535492547612e-09 5.8575970249009143e-10 0.0000000000000000e+00  -4.6257862004499201e-09 -7.4413707051941923e-09 0.0000000000000000e+00  -3.2369141478337464e-08 -1.5724239317407054e-08 0.0000000000000000e+00  1.7632460815438062e-08 -1.3088958559273369e-08 0.0000000000000000e+00  2.2298640912483075e-08 1.9021280431447569e-08 0.0000000000000000e+00  -3.1709958461176535e-08 -2.1865984734057218e-08 0.0000000000000000e+00  -5.0363563428851276e-08 -4.3188469540922503e-08 0.0000000000000000e+00  7.9259406977277060e-08 -4.7073968669461706e-08 0.0000000000000000e+00  -5.2437119010717802e-08 -5.9487535787844314e-08 0.0000000000000000e+00  7.6737128189554640e-08 7.3101072541613086e-08 0.0000000000000000e+00  -2.3824041745821504e-07 -4.9147695916232313e-08 0.0000000000000000e+00  -6.1874078855309168e-08 -1.1288954180489352e-07 0.0000000000000000e+00  2.0820177366739311e-07 1.4841477196094873e-07 0.0000000000000000e+00  -3.0465763565509904e-08 6.8014257065226409e-09 0.0000000000000000e+00  -4.4795068452144129e-08 -9.4431858074230522e-08 0.0000000000000000e+00  1.7590661303787904e-07 3.6800056282103511e-07 0.0000000000000000e+00  6.1448863386506894e-08 1.1672923758526128e-07 0.0000000000000000e+00  -1.2359099907516203e-07 4.1799493350461322e-08 0.0000000000000000e+00  5.6236859485810705e-08 -1.6731063322977537e-08 0.0000000000000000e+00  -3.3499240492537632e-10 -4.6911750862480123e-09 0.0000000000000000e+00  -2.0366967710193070e-08 2.4449110999591712e-08 0.0000000000000000e+00  3.6396753308129296e-09 1.7155153768032725e-08 0.0000000000000000e+00  -1.9518558887598502e-08 5.2342013687872607e-09 0.0000000000000000e+00  -3.1210426707455744e-08 -3.4783666002717138e-08 0.0000000000000000e+00  -4.3378585573642089e-08 5.0919498882127919e-08 0.0000000000000000e+00  -1.9323243199004745e-09 1.7199618173077739e-08 0.0000000000000000e+00  7.4182075017524545e-08 6.9380528975183420e-08 0.0000000000000000e+00  -5.1119473941085035e-08 -1.1040422834644351e-07 0.0000000000000000e+00  -1.5487549682566208e-07 1.6822686378076717e-07 0.0000000000000000e+00  2.8455749225843173e-08 -1.4558977090657617e-07 0.0000000000000000e+00  -2.3699341184356184e-08 1.5446662658214351e-07 0.0000000000000000e+00  -1.2702472815980499e-08 -1.4409436080546809e-07 0.0000000000000000e+00  1.0484433072905276e-07 9.5492951850556367e-08 0.0000000000000000e+00  -1.1231106366129172e-07 1.7085071510297160e-07 0.0000000000000000e+00  7.4295920665673737e-08 -1.6391483787436004e-07 0.0000000000000000e+00  -1.2956474986337034e-10 1.1931253599706600e-07 0.0000000000000000e+00  -1.0488833164226187e-07 4.7441561816503112e-08 0.0000000000000000e+00  -1.3199640778798000e-08 1.6396192114724705e-08 0.0000000000000000e+00  1.8965812517962850e-08 1.1694413325286523e-07 0.0000000000000000e+00  -7.1915719785863146e-08 1.1682678298263107e-07 0.0000000000000000e+00  -5.8275070309148192e-09 2.3468728828364986e-08 0.0000000000000000e+00  3.0925618979454583e-08 6.0704361787515844e-08 0.0000000000000000e+00  -3.2214957628035076e-09 -3.2833669367342564e-08 0.0000000000000000e+00  -9.7438996935116316e-08 1.6510182416764182e-09 0.0000000000000000e+00  9.3805979902365910e-09 3.4193451008831287e-08 0.0000000000000000e+00  1.6421112954373520e-08 -5.6743184673920727e-08 0.0000000000000000e+00  2.7369467380455084e-08 -1.9984838560356283e-09 0.0000000000000000e+00  -9.1116283241264445e-09 -1.4376750628852543e-08 0.0000000000000000e+00  5.5428338213007061e-08 6.0036040489551607e-08 0.0000000000000000e+00  -6.0383700425704911e-07 1.4049224264484652e-07 0.0000000000000000e+00  4.4779105176154508e-08 -6.2500822992588215e-08 0.0000000000000000e+00  2.6634948137100931e-08 -9.0778903564818974e-09 0.0000000000000000e+00  -3.15482979