<?xml version="1.0"?>
<VTKFile type="UnstructuredGrid"  version="0.1"  >
<UnstructuredGrid>
<Piece  NumberOfPoints="1661" NumberOfCells="3200">
<Points>
<DataArray  type="Float64"  NumberOfComponents="3"  format="ascii">-0.25 -1 0  -0.225 -1 0  -0.2 -1 0  -0.175 -1 0  -0.15 -1 0  -0.125 -1 0  -0.1 -1 0  -0.07500000000000001 -1 0  -0.04999999999999999 -1 0  -0.02499999999999999 -1 0  0 -1 0  0.02500000000000002 -1 0  0.04999999999999999 -1 0  0.07500000000000001 -1 0  0.09999999999999998 -1 0  0.125 -1 0  0.15 -1 0  0.175 -1 0  0.2 -1 0  0.225 -1 0  0.25 -1 0  -0.25 -0.975 0  -0.225 -0.975 0  -0.2 -0.975 0  -0.175 -0.975 0  -0.15 -0.975 0  -0.125 -0.975 0  -0.1 -0.975 0  -0.07500000000000001 -0.975 0  -0.04999999999999999 -0.975 0  -0.02499999999999999 -0.975 0  0 -0.975 0  0.02500000000000002 -0.975 0  0.04999999999999999 -0.975 0  0.07500000000000001 -0.975 0  0.09999999999999998 -0.975 0  0.125 -0.975 0  0.15 -0.975 0  0.175 -0.975 0  0.2 -0.975 0  0.225 -0.975 0  0.25 -0.975 0  -0.25 -0.95 0  -0.225 -0.95 0  -0.2 -0.95 0  -0.175 -0.95 0  -0.15 -0.95 0  -0.125 -0.95 0  -0.1 -0.95 0  -0.07500000000000001 -0.95 0  -0.04999999999999999 -0.95 0  -0.02499999999999999 -0.95 0  0 -0.95 0  0.02500000000000002 -0.95 0  0.04999999999999999 -0.95 0  0.07500000000000001 -0.95 0  0.09999999999999998 -0.95 0  0.125 -0.95 0  0.15 -0.95 0  0.175 -0.95 0  0.2 -0.95 0  0.225 -0.95 0  0.25 -0.95 0  -0.25 -0.925 0  -0.225 -0.925 0  -0.2 -0.925 0  -0.175 -0.925 0  -0.15 -0.925 0  -0.125 -0.925 0  -0.1 -0.925 0  -0.07500000000000001 -0.925 0  -0.04999999999999999 -0.925 0  -0.02499999999999999 -0.925 0  0 -0.925 0  0.02500000000000002 -0.925 0  0.04999999999999999 -0.925 0  0.07500000000000001 -0.925 0  0.09999999999999998 -0.925 0  0.125 -0.925 0  0.15 -0.925 0  0.175 -0.925 0  0.2 -0.925 0  0.225 -0.925 0  0.25 -0.925 0  -0.25 -0.9 0  -0.225 -0.9 0  -0.2 -0.9 0  -0.175 -0.9 0  -0.15 -0.9 0  -0.125 -0.9 0  -0.1 -0.9 0  -0.07500000000000001 -0.9 0  -0.04999999999999999 -0.9 0  -0.02499999999999999 -0.9 0  0 -0.9 0  0.02500000000000002 -0.9 0  0.04999999999999999 -0.9 0  0.07500000000000001 -0.9 0  0.09999999999999998 -0.9 0  0.125 -0.9 0  0.15 -0.9 0  0.175 -0.9 0  0.2 -0.9 0  0.225 -0.9 0  0.25 -0.9 0  -0.25 -0.875 0  -0.225 -0.875 0  -0.2 -0.875 0  -0.175 -0.875 0  -0.15 -0.875 0  -0.125 -0.875 0  -0.1 -0.875 0  -0.07500000000000001 -0.875 0  -0.04999999999999999 -0.875 0  -0.02499999999999999 -0.875 0  0 -0.875 0  0.02500000000000002 -0.875 0  0.04999999999999999 -0.875 0  0.07500000000000001 -0.875 0  0.09999999999999998 -0.875 0  0.125 -0.875 0  0.15 -0.875 0  0.175 -0.875 0  0.2 -0.875 0  0.225 -0.875 0  0.25 -0.875 0  -0.25 -0.85 0  -0.225 -0.85 0  -0.2 -0.85 0  -0.175 -0.85 0  -0.15 -0.85 0  -0.125 -0.85 0  -0.1 -0.85 0  -0.07500000000000001 -0.85 0  -0.04999999999999999 -0.85 0  -0.02499999999999999 -0.85 0  0 -0.85 0  0.02500000000000002 -0.85 0  0.04999999999999999 -0.85 0  0.07500000000000001 -0.85 0  0.09999999999999998 -0.85 0  0.125 -0.85 0  0.15 -0.85 0  0.175 -0.85 0  0.2 -0.85 0  0.225 -0.85 0  0.25 -0.85 0  -0.25 -0.825 0  -0.225 -0.825 0  -0.2 -0.825 0  -0.175 -0.825 0  -0.15 -0.825 0  -0.125 -0.825 0  -0.1 -0.825 0  -0.07500000000000001 -0.825 0  -0.04999999999999999 -0.825 0  -0.02499999999999999 -0.825 0  0 -0.825 0  0.02500000000000002 -0.825 0  0.04999999999999999 -0.825 0  0.07500000000000001 -0.825 0  0.09999999999999998 -0.825 0  0.125 -0.825 0  0.15 -0.825 0  0.175 -0.825 0  0.2 -0.825 0  0.225 -0.825 0  0.25 -0.825 0  -0.25 -0.8 0  -0.225 -0.8 0  -0.2 -0.8 0  -0.175 -0.8 0  -0.15 -0.8 0  -0.125 -0.8 0  -0.1 -0.8 0  -0.07500000000000001 -0.8 0  -0.04999999999999999 -0.8 0  -0.02499999999999999 -0.8 0  0 -0.8 0  0.02500000000000002 -0.8 0  0.04999999999999999 -0.8 0  0.07500000000000001 -0.8 0  0.09999999999999998 -0.8 0  0.125 -0.8 0  0.15 -0.8 0  0.175 -0.8 0  0.2 -0.8 0  0.225 -0.8 0  0.25 -0.8 0  -0.25 -0.775 0  -0.225 -0.775 0  -0.2 -0.775 0  -0.175 -0.775 0  -0.15 -0.775 0  -0.125 -0.775 0  -0.1 -0.775 0  -0.07500000000000001 -0.775 0  -0.04999999999999999 -0.775 0  -0.02499999999999999 -0.775 0  0 -0.775 0  0.02500000000000002 -0.775 0  0.04999999999999999 -0.775 0  0.07500000000000001 -0.775 0  0.09999999999999998 -0.775 0  0.125 -0.775 0  0.15 -0.775 0  0.175 -0.775 0  0.2 -0.775 0  0.225 -0.775 0  0.25 -0.775 0  -0.25 -0.75 0  -0.225 -0.75 0  -0.2 -0.75 0  -0.175 -0.75 0  -0.15 -0.75 0  -0.125 -0.75 0  -0.1 -0.75 0  -0.07500000000000001 -0.75 0  -0.04999999999999999 -0.75 0  -0.02499999999999999 -0.75 0  0 -0.75 0  0.02500000000000002 -0.75 0  0.04999999999999999 -0.75 0  0.07500000000000001 -0.75 0  0.09999999999999998 -0.75 0  0.125 -0.75 0  0.15 -0.75 0  0.175 -0.75 0  0.2 -0.75 0  0.225 -0.75 0  0.25 -0.75 0  -0.25 -0.725 0  -0.225 -0.725 0  -0.2 -0.725 0  -0.175 -0.725 0  -0.15 -0.725 0  -0.125 -0.725 0  -0.1 -0.725 0  -0.07500000000000001 -0.725 0  -0.04999999999999999 -0.725 0  -0.02499999999999999 -0.725 0  0 -0.725 0  0.02500000000000002 -0.725 0  0.04999999999999999 -0.725 0  0.07500000000000001 -0.725 0  0.09999999999999998 -0.725 0  0.125 -0.725 0  0.15 -0.725 0  0.175 -0.725 0  0.2 -0.725 0  0.225 -0.725 0  0.25 -0.725 0  -0.25 -0.7 0  -0.225 -0.7 0  -0.2 -0.7 0  -0.175 -0.7 0  -0.15 -0.7 0  -0.125 -0.7 0  -0.1 -0.7 0  -0.07500000000000001 -0.7 0  -0.04999999999999999 -0.7 0  -0.02499999999999999 -0.7 0  0 -0.7 0  0.02500000000000002 -0.7 0  0.04999999999999999 -0.7 0  0.07500000000000001 -0.7 0  0.09999999999999998 -0.7 0  0.125 -0.7 0  0.15 -0.7 0  0.175 -0.7 0  0.2 -0.7 0  0.225 -0.7 0  0.25 -0.7 0  -0.25 -0.675 0  -0.225 -0.675 0  -0.2 -0.675 0  -0.175 -0.675 0  -0.15 -0.675 0  -0.125 -0.675 0  -0.1 -0.675 0  -0.07500000000000001 -0.675 0  -0.04999999999999999 -0.675 0  -0.02499999999999999 -0.675 0  0 -0.675 0  0.02500000000000002 -0.675 0  0.04999999999999999 -0.675 0  0.07500000000000001 -0.675 0  0.09999999999999998 -0.675 0  0.125 -0.675 0  0.15 -0.675 0  0.175 -0.675 0  0.2 -0.675 0  0.225 -0.675 0  0.25 -0.675 0  -0.25 -0.65 0  -0.225 -0.65 0  -0.2 -0.65 0  -0.175 -0.65 0  -0.15 -0.65 0  -0.125 -0.65 0  -0.1 -0.65 0  -0.07500000000000001 -0.65 0  -0.04999999999999999 -0.65 0  -0.02499999999999999 -0.65 0  0 -0.65 0  0.02500000000000002 -0.65 0  0.04999999999999999 -0.65 0  0.07500000000000001 -0.65 0  0.09999999999999998 -0.65 0  0.125 -0.65 0  0.15 -0.65 0  0.175 -0.65 0  0.2 -0.65 0  0.225 -0.65 0  0.25 -0.65 0  -0.25 -0.625 0  -0.225 -0.625 0  -0.2 -0.625 0  -0.175 -0.625 0  -0.15 -0.625 0  -0.125 -0.625 0  -0.1 -0.625 0  -0.07500000000000001 -0.625 0  -0.04999999999999999 -0.625 0  -0.02499999999999999 -0.625 0  0 -0.625 0  0.02500000000000002 -0.625 0  0.04999999999999999 -0.625 0  0.07500000000000001 -0.625 0  0.09999999999999998 -0.625 0  0.125 -0.625 0  0.15 -0.625 0  0.175 -0.625 0  0.2 -0.625 0  0.225 -0.625 0  0.25 -0.625 0  -0.25 -0.6 0  -0.225 -0.6 0  -0.2 -0.6 0  -0.175 -0.6 0  -0.15 -0.6 0  -0.125 -0.6 0  -0.1 -0.6 0  -0.07500000000000001 -0.6 0  -0.04999999999999999 -0.6 0  -0.02499999999999999 -0.6 0  0 -0.6 0  0.02500000000000002 -0.6 0  0.04999999999999999 -0.6 0  0.07500000000000001 -0.6 0  0.09999999999999998 -0.6 0  0.125 -0.6 0  0.15 -0.6 0  0.175 -0.6 0  0.2 -0.6 0  0.225 -0.6 0  0.25 -0.6 0  -0.25 -0.575 0  -0.225 -0.575 0  -0.2 -0.575 0  -0.175 -0.575 0  -0.15 -0.575 0  -0.125 -0.575 0  -0.1 -0.575 0  -0.07500000000000001 -0.575 0  -0.04999999999999999 -0.575 0  -0.02499999999999999 -0.575 0  0 -0.575 0  0.02500000000000002 -0.575 0  0.04999999999999999 -0.575 0  0.07500000000000001 -0.575 0  0.09999999999999998 -0.575 0  0.125 -0.575 0  0.15 -0.575 0  0.175 -0.575 0  0.2 -0.575 0  0.225 -0.575 0  0.25 -0.575 0  -0.25 -0.55 0  -0.225 -0.55 0  -0.2 -0.55 0  -0.175 -0.55 0  -0.15 -0.55 0  -0.125 -0.55 0  -0.1 -0.55 0  -0.07500000000000001 -0.55 0  -0.04999999999999999 -0.55 0  -0.02499999999999999 -0.55 0  0 -0.55 0  0.02500000000000002 -0.55 0  0.04999999999999999 -0.55 0  0.07500000000000001 -0.55 0  0.09999999999999998 -0.55 0  0.125 -0.55 0  0.15 -0.55 0  0.175 -0.55 0  0.2 -0.55 0  0.225 -0.55 0  0.25 -0.55 0  -0.25 -0.525 0  -0.225 -0.525 0  -0.2 -0.525 0  -0.175 -0.525 0  -0.15 -0.525 0  -0.125 -0.525 0  -0.1 -0.525 0  -0.07500000000000001 -0.525 0  -0.04999999999999999 -0.525 0  -0.02499999999999999 -0.525 0  0 -0.525 0  0.02500000000000002 -0.525 0  0.04999999999999999 -0.525 0  0.07500000000000001 -0.525 0  0.09999999999999998 -0.525 0  0.125 -0.525 0  0.15 -0.525 0  0.175 -0.525 0  0.2 -0.525 0  0.225 -0.525 0  0.25 -0.525 0  -0.25 -0.5 0  -0.225 -0.5 0  -0.2 -0.5 0  -0.175 -0.5 0  -0.15 -0.5 0  -0.125 -0.5 0  -0.1 -0.5 0  -0.07500000000000001 -0.5 0  -0.04999999999999999 -0.5 0  -0.02499999999999999 -0.5 0  0 -0.5 0  0.02500000000000002 -0.5 0  0.04999999999999999 -0.5 0  0.07500000000000001 -0.5 0  0.09999999999999998 -0.5 0  0.125 -0.5 0  0.15 -0.5 0  0.175 -0.5 0  0.2 -0.5 0  0.225 -0.5 0  0.25 -0.5 0  -0.25 -0.475 0  -0.225 -0.475 0  -0.2 -0.475 0  -0.175 -0.475 0  -0.15 -0.475 0  -0.125 -0.475 0  -0.1 -0.475 0  -0.07500000000000001 -0.475 0  -0.04999999999999999 -0.475 0  -0.02499999999999999 -0.475 0  0 -0.475 0  0.02500000000000002 -0.475 0  0.04999999999999999 -0.475 0  0.07500000000000001 -0.475 0  0.09999999999999998 -0.475 0  0.125 -0.475 0  0.15 -0.475 0  0.175 -0.475 0  0.2 -0.475 0  0.225 -0.475 0  0.25 -0.475 0  -0.25 -0.45 0  -0.225 -0.45 0  -0.2 -0.45 0  -0.175 -0.45 0  -0.15 -0.45 0  -0.125 -0.45 0  -0.1 -0.45 0  -0.07500000000000001 -0.45 0  -0.04999999999999999 -0.45 0  -0.02499999999999999 -0.45 0  0 -0.45 0  0.02500000000000002 -0.45 0  0.04999999999999999 -0.45 0  0.07500000000000001 -0.45 0  0.09999999999999998 -0.45 0  0.125 -0.45 0  0.15 -0.45 0  0.175 -0.45 0  0.2 -0.45 0  0.225 -0.45 0  0.25 -0.45 0  -0.25 -0.425 0  -0.225 -0.425 0  -0.2 -0.425 0  -0.175 -0.425 0  -0.15 -0.425 0  -0.125 -0.425 0  -0.1 -0.425 0  -0.07500000000000001 -0.425 0  -0.04999999999999999 -0.425 0  -0.02499999999999999 -0.425 0  0 -0.425 0  0.02500000000000002 -0.425 0  0.04999999999999999 -0.425 0  0.07500000000000001 -0.425 0  0.
[...]
<PointData  Vectors="flow"> 
<DataArray  type="Float64"  Name="flow"  NumberOfComponents="3" format="ascii">-5.1205110406726949e-02 1.0241130650100898e-01 0.0000000000000000e+00  2.4675678214797687e-06 1.0241130650083102e-01 0.0000000000000000e+00  -1.1893440997715970e-10 1.0241130650145358e-01 0.0000000000000000e+00  3.2941023077277696e-13 1.0241130650098022e-01 0.0000000000000000e+00  -2.6122754842222931e-13 1.0241130650089970e-01 0.0000000000000000e+00  3.0880850546869385e-13 1.0241130650048766e-01 0.0000000000000000e+00  -3.6085033332829408e-13 1.0241130650075626e-01 0.0000000000000000e+00  -6.3148923828983685e-13 1.0241130650056837e-01 0.0000000000000000e+00  -4.1112468166832624e-13 1.0241130650111144e-01 0.0000000000000000e+00  -3.4520436144330749e-13 1.0241130650165775e-01 0.0000000000000000e+00  -7.1821960393566781e-13 1.0241130650136054e-01 0.0000000000000000e+00  -9.6858792349950268e-13 1.0241130650150419e-01 0.0000000000000000e+00  -1.4708340978788313e-12 1.0241130650096007e-01 0.0000000000000000e+00  -9.3413081112840211e-13 1.0241130650145652e-01 0.0000000000000000e+00  -6.3152955183187694e-14 1.0241130649964965e-01 0.0000000000000000e+00  1.1657473103383137e-12 1.0241130650182342e-01 0.0000000000000000e+00  1.1302256792923798e-12 1.0241130650103766e-01 0.0000000000000000e+00  5.3517155441830175e-13 1.0241130650126506e-01 0.0000000000000000e+00  1.1958505595627424e-10 1.0241130650091074e-01 0.0000000000000000e+00  -2.4675679341037160e-06 1.0241130650168662e-01 0.0000000000000000e+00  5.1205110406856075e-02 1.0241130650082267e-01 0.0000000000000000e+00  -5.1165633122503093e-02 3.0714400861308300e-01 0.0000000000000000e+00  2.4656658352325548e-06 3.0714400861299451e-01 0.0000000000000000e+00  -1.1905675315587720e-10 3.0714400861292174e-01 0.0000000000000000e+00  -4.2505391518574557e-14 3.0714400861276736e-01 0.0000000000000000e+00  -3.2104924576213633e-13 3.0714400861241087e-01 0.0000000000000000e+00  1.4855907000313086e-13 3.0714400861266539e-01 0.0000000000000000e+00  -2.8491947052414026e-13 3.0714400861129859e-01 0.0000000000000000e+00  -6.5157247016684632e-13 3.0714400861272556e-01 0.0000000000000000e+00  4.2499678120891460e-14 3.0714400861282665e-01 0.0000000000000000e+00  -4.4975068815104362e-13 3.0714400861297003e-01 0.0000000000000000e+00  -7.3020522793440277e-13 3.0714400861330665e-01 0.0000000000000000e+00  -9.7345910788177336e-13 3.0714400861287733e-01 0.0000000000000000e+00  -1.1648688819038485e-12 3.0714400861306124e-01 0.0000000000000000e+00  -1.9803003886433641e-12 3.0714400861315938e-01 0.0000000000000000e+00  6.7774478021071661e-14 3.0714400861379415e-01 0.0000000000000000e+00  1.8818731952958624e-12 3.0714400861316249e-01 0.0000000000000000e+00  9.9203876820612570e-13 3.0714400861315405e-01 0.0000000000000000e+00  6.7414480396415256e-13 3.0714400861312235e-01 0.0000000000000000e+00  1.1945999635561106e-10 3.0714400861291363e-01 0.0000000000000000e+00  -2.4656655312726027e-06 3.0714400861296554e-01 0.0000000000000000e+00  5.1165633121701595e-02 3.0714400861297980e-01 0.0000000000000000e+00  -5.1047262140398487e-02 6.1381442342675674e-01 0.0000000000000000e+00  2.4599611137805405e-06 6.1381442342675563e-01 0.0000000000000000e+00  -1.1894224432757839e-10 6.1381442342629144e-01 0.0000000000000000e+00  -2.2018956549089897e-13 6.1381442342631165e-01 0.0000000000000000e+00  -3.3328912220686077e-13 6.1381442342631598e-01 0.0000000000000000e+00  -9.6627835238418076e-13 6.1381442342603965e-01 0.0000000000000000e+00  -2.7821576371705278e-14 6.1381442342573289e-01 0.0000000000000000e+00  7.3618182471856527e-13 6.1381442342627002e-01 0.0000000000000000e+00  6.9405463373977278e-14 6.1381442342642867e-01 0.0000000000000000e+00  1.1440303121475365e-13 6.1381442342652137e-01 0.0000000000000000e+00  -8.1275184795793513e-13 6.1381442342715919e-01 0.0000000000000000e+00  -1.4008871910558484e-12 6.1381442342701664e-01 0.0000000000000000e+00  -9.7251878307119047e-13 6.1381442342701575e-01 0.0000000000000000e+00  -4.4730494286488706e-13 6.1381442342730375e-01 0.0000000000000000e+00  7.3220063338481380e-14 6.1381442342775683e-01 0.0000000000000000e+00  5.7616699448748325e-13 6.1381442342739889e-01 0.0000000000000000e+00  9.6231003343647341e-13 6.1381442342740611e-01 0.0000000000000000e+00  3.6975209403209258e-13 6.1381442342664205e-01 0.0000000000000000e+00  1.1898372359609840e-10 6.1381442342715797e-01 0.0000000000000000e+00  -2.4599609683832973e-06 6.1381442342666825e-01 0.0000000000000000e+00  5.1047262140136551e-02 6.1381442342701698e-01 0.0000000000000000e+00  -5.0850179979403526e-02 9.1953838088883799e-01 0.0000000000000000e+00  2.4504637328340791e-06 9.1953838088947570e-01 0.0000000000000000e+00  -1.1871099741430207e-10 9.1953838088970696e-01 0.0000000000000000e+00  -5.3203654469420329e-14 9.1953838088953055e-01 0.0000000000000000e+00  -4.3552520300785900e-13 9.1953838088945039e-01 0.0000000000000000e+00  -7.1382018321850496e-13 9.1953838088940865e-01 0.0000000000000000e+00  7.2636881433222498e-14 9.1953838088926720e-01 0.0000000000000000e+00  7.6183310890212158e-14 9.1953838088891082e-01 0.0000000000000000e+00  1.4701957241364220e-13 9.1953838088939277e-01 0.0000000000000000e+00  4.4458366667683215e-13 9.1953838088929618e-01 0.0000000000000000e+00  -2.6446716600741287e-13 9.1953838088951700e-01 0.0000000000000000e+00  -1.0172054306177721e-12 9.1953838089035711e-01 0.0000000000000000e+00  -8.7621356604623072e-13 9.1953838089044382e-01 0.0000000000000000e+00  -1.2148462436941504e-12 9.1953838089043161e-01 0.0000000000000000e+00  2.0033126999741415e-13 9.1953838089028050e-01 0.0000000000000000e+00  1.5410441094068785e-12 9.1953838089051743e-01 0.0000000000000000e+00  1.4015163887712645e-13 9.1953838088990780e-01 0.0000000000000000e+00  5.2939496135376069e-13 9.1953838089008233e-01 0.0000000000000000e+00  1.1866567537334418e-10 9.1953838089000439e-01 0.0000000000000000e+00  -2.4504642470760272e-06 9.1953838088976125e-01 0.0000000000000000e+00  5.0850179979812636e-02 9.1953838088949935e-01 0.0000000000000000e+00  -5.0574690526219573e-02 1.2238444768186059e+00 0.0000000000000000e+00  2.4371884955506218e-06 1.2238444768183117e+00 0.0000000000000000e+00  -1.1761701125346046e-10 1.2238444768185128e+00 0.0000000000000000e+00  -6.3832203455638895e-13 1.2238444768186498e+00 0.0000000000000000e+00  -3.1785243859447193e-13 1.2238444768182550e+00 0.0000000000000000e+00  -8.5896938639054256e-13 1.2238444768185572e+00 0.0000000000000000e+00  -7.6751291358891451e-13 1.2238444768178054e+00 0.0000000000000000e+00  8.8536552827751722e-13 1.2238444768182526e+00 0.0000000000000000e+00  3.6841829429893646e-13 1.2238444768179793e+00 0.0000000000000000e+00  3.2046620374932509e-13 1.2238444768184564e+00 0.0000000000000000e+00  -4.1420799428038953e-14 1.2238444768185186e+00 0.0000000000000000e+00  -2.9311640467916424e-13 1.2238444768191048e+00 0.0000000000000000e+00  -1.0364463439725148e-12 1.2238444768194630e+00 0.0000000000000000e+00  -6.3275852675502006e-13 1.2238444768193355e+00 0.0000000000000000e+00  -1.3403099434217704e-14 1.2238444768199592e+00 0.0000000000000000e+00  2.9290108745728455e-13 1.2238444768186361e+00 0.0000000000000000e+00  8.0542716625360629e-13 1.2238444768189705e+00 0.0000000000000000e+00  2.1111609010814695e-13 1.2238444768191599e+00 0.0000000000000000e+00  1.1767179489367594e-10 1.2238444768185632e+00 0.0000000000000000e+00  -2.4371881547732934e-06 1.2238444768186219e+00 0.0000000000000000e+00  5.0574690527814214e-02 1.2238444768193100e+00 0.0000000000000000e+00  -5.0221218568134766e-02 1.5262634932711321e+00 0.0000000000000000e+00  2.4201540778819996e-06 1.5262634932707151e+00 0.0000000000000000e+00  -1.1682068769458346e-10 1.5262634932701162e+00 0.0000000000000000e+00  -3.1214357622118446e-13 1.5262634932703629e+00 0.0000000000000000e+00  -7.1830411010890320e-13 1.5262634932706269e+00 0.0000000000000000e+00  -1.1945111385111923e-12 1.5262634932697803e+00 0.0000000000000000e+00  -3.8979961188864779e-13 1.5262634932704606e+00 0.0000000000000000e+00  4.8047772015209879e-13 1.5262634932694432e+00 0.0000000000000000e+00  3.7186737735078248e-13 1.5262634932700903e+00 0.0000000000000000e+00  8.3321732174843594e-13 1.5262634932684218e+00 0.0000000000000000e+00  5.2122718887410874e-13 1.5262634932703105e+00 0.0000000000000000e+00  -1.1911781323510628e-13 1.5262634932715855e+00 0.0000000000000000e+00  -6.1071928176848224e-13 1.5262634932716213e+00 0.0000000000000000e+00  -6.2496981290753045e-13 1.5262634932706867e+00 0.0000000000000000e+00  -4.4451486949487728e-13 1.5262634932708643e+00 0.0000000000000000e+00  4.3041914836898468e-13 1.5262634932708825e+00 0.0000000000000000e+00  6.4716946992377863e-13 1.5262634932705594e+00 0.0000000000000000e+00  2.3964939913649200e-13 1.5262634932707495e+00 0.0000000000000000e+00  1.1668416814113915e-10 1.5262634932711094e+00 0.0000000000000000e+00  -2.4201541198270386e-06 1.5262634932710359e+00 0.0000000000000000e+00  5.0221218569277658e-02 1.5262634932706363e+00 0.0000000000000000e+00  -4.9790309129600668e-02 1.8263291220420961e+00 0.0000000000000000e+00  2.3993882803598629e-06 1.8263291220425053e+00 0.0000000000000000e+00  -1.1607922375020870e-10 1.8263291220422326e+00 0.0000000000000000e+00  -2.8134867900281862e-13 1.8263291220419853e+00 0.0000000000000000e+00  -7.5976938693871974e-13 1.8263291220417888e+00 0.0000000000000000e+00  -7.9449025100544775e-13 1.8263291220418543e+00 0.0000000000000000e+00  -1.0224512042126556e-12 1.8263291220428790e+00 0.0000000000000000e+00  4.3702764410613206e-13 1.8263291220432485e+00 0.0000000000000000e+00  -5.1537742278295361e-13 1.8263291220432560e+00 0.0000000000000000e+00  2.2060994589278070e-13 1.8263291220432778e+00 0.0000000000000000e+00  3.3657550393266579e-12 1.8263291220432445e+00 0.0000000000000000e+00  1.0759266993529676e-12 1.8263291220436670e+00 0.0000000000000000e+00  -1.9359930974767690e-12 1.8263291220435705e+00 0.0000000000000000e+00  -1.6612497344988731e-12 1.8263291220426430e+00 0.0000000000000000e+00  1.3477572891409892e-13 1.8263291220425362e+00 0.0000000000000000e+00  1.8827199458517989e-13 1.8263291220425786e+00 0.0000000000000000e+00  4.5860669946510224e-13 1.8263291220422415e+00 0.0000000000000000e+00  7.8513918997268384e-13 1.8263291220423397e+00 0.0000000000000000e+00  1.1595392992821104e-10 1.8263291220425202e+00 0.0000000000000000e+00  -2.3993890195230246e-06 1.8263291220431177e+00 0.0000000000000000e+00  4.9790309130002812e-02 1.8263291220424445e+00 0.0000000000000000e+00  -4.9282626643611001e-02 2.1235786836832511e+00 0.0000000000000000e+00  2.3749233791918217e-06 2.1235786836819783e+00 0.0000000000000000e+00  -1.1510204862084938e-10 2.1235786836838413e+00 0.0000000000000000e+00  -5.6320487388150414e-13 2.1235786836823456e+00 0.0000000000000000e+00  -9.3107818355543705e-13 2.1235786836822639e+00 0.0000000000000000e+00  -5.8457867183579743e-13 2.1235786836825459e+00 0.0000000000000000e+00  9.2444979618454809e-13 2.1235786836827932e+00 0.0000000000000000e+00  7.5299837508559259e-13 2.1235786836845310e+00 0.0000000000000000e+00  5.6863659343306304e-13 2.1235786836837951e+00 0.0000000000000000e+00  9.3298456985829271e-13 2.1235786836858495e+00 0.0000000000000000e+00  9.7445547173681679e-13 2.1235786836839052e+00 0.0000000000000000e+00  -8.2142433863418069e-14 2.1235786836826551e+00 0.0000000000000000e+00  -1.5790995881934057e-12 2.1235786836820321e+00 0.0000000000000000e+00  -1.3781868761301965e-12 2.1235786836831272e+00 0.0000000000000000e+00  -4.2381679243710344e-13 2.1235786836829478e+00 0.0000000000000000e+00  2.4590381066816953e-13 2.1235786836826778e+00 0.0000000000000000e+00  3.9333253003508024e-13 2.1235786836830828e+00 0.0000000000000000e+00  5.6979896500842042e-13 2.1235786836831254e+00 0.0000000000000000e+00  1.1526331828777991e-10 2.1235786836830228e+00 0.0000000000000000e+00  -2.3749236457753448e-06 2.1235786836831010e+00 0.0000000000000000e+00  4.9282626644076073e-02 2.1235786836841366e+00 0.0000000000000000e+00  -4.8698953921660466e-02 2.4175538409124546e+00 0.0000000000000000e+00  2.3467966788422423e-06 2.4175538409122193e+00 0.0000000000000000e+00  -1.1309924846735855e-10 2.4175538409124293e+00 0.0000000000000000e+00  -2.1595879337180855e-12 2.4175538409127380e+00 0.0000000000000000e+00  -6.9731522747088439e-13 2.4175538409126158e+00 0.0000000000000000e+00  1.0617606974298651e-13 2.4175538409128321e+00 0.0000000000000000e+00  1.3596564095922322e-12 2.4175538409134019e+00 0.0000000000000000e+00  1.5079616575897233e-12 2.4175538409132939e+00 0.0000000000000000e+00  7.1915797427389312e-13 2.4175538409139907e+00 0.0000000000000000e+00  1.6759709292615474e-13 2.4175538409139836e+00 0.0000000000000000e+00  -5.6396112607875215e-14 2.4175538409134840e+00 0.0000000000000000e+00  -4.9662126231513481e-13 2.4175538409117170e+00 0.0000000000000000e+00  -1.4205768189671561e-12 2.4175538409118551e+00 0.0000000000000000e+00  -7.5960413148961265e-13 2.4175538409122956e+00 0.0000000000000000e+00  -5.7846019135808241e-13 2.4175538409119417e+00 0.0000000000000000e+00  3.9749171240813230e-13 2.4175538409130293e+00 0.0000000000000000e+00  9.6981754885116690e-13 2.4175538409116228e+00 0.0000000000000000e+00  4.2377336455824321e-13 2.4175538409122743e+00 0.0000000000000000e+00  1.1357158587527492e-10 2.4175538409136279e+00 0.0000000000000000e+00  -2.3467957756224711e-06 2.4175538409138344e+00 0.0000000000000000e+00  4.8698953920780275e-02 2.4175538409134081e+00 0.0000000000000000e+00  -4.8040190938331451e-02 2.7078013053460950e+00 0.0000000000000000e+00  2.3150505513283722e-06 2.7078013053476169e+00 0.0000000000000000e+00  -1.1164221938126116e-10 2.7078013053464645e+00 0.0000000000000000e+00  -3.0660402142378456e-13 2.7078013053476053e+00 0.0000000000000000e+00  -5.9515016866933428e-13 2.7078013053478487e+00 0.0000000000000000e+00  -1.0278621075140346e-14 2.7078013053488115e+00 0.0000000000000000e+00  1.1982093359469454e-12 2.7078013053491561e+00 0.0000000000000000e+00  1.1215404986755200e-12 2.7078013053480494e+00 0.0000000000000000e+00  1.1854852214752094e-12 2.7078013053483256e+00 0.0000000000000000e+00  7.4888025782478082e-13 2.7078013053472030e+00 0.0000000000000000e+00  -1.4035971962510632e-12 2.7078013053469427e+00 0.0000000000000000e+00  -1.5561203906242709e-12 2.7078013053474295e+00 0.0000000000000000e+00  -1.4880327599796987e-12 2.7078013053467309e+00 0.0000000000000000e+00  -1.0382354740110366e-12 2.7078013053467656e+00 0.0000000000000000e+00  2.8477895518742448e-13 2.7078013053451619e+00 0.0000000000000000e+00  -1.7059877451226798e-13 2.7078013053460444e+00 0.0000000000000000e+00  -4.3441015937400566e-13 2.7078013053460510e+00 0.0000000000000000e+00  2.8525173645123209e-12 2.7078013053462877e+00 0.0000000000000000e+00  1.1404850037123011e-10 2.7078013053477505e+00 0.0000000000000000e+00  -2.3150511061172471e-06 2.7078013053465422e+00 0.0000000000000000e+00  4.8040190937304904e-02 2.7078013053454697e+00 0.0000000000000000e+00  -4.7307353464738605e-02 2.9938735364355593e+00 0.0000000000000000e+00  2.2797358738324377e-06 2.9938735364347151e+00 0.0000000000000000e+00  -1.0975521198514605e-10 2.9938735364356073e+00 0.0000000000000000e+00  -7.5626052651123934e-13 2.9938735364357805e+00 0.0000000000000000e+00  4.6019665861129478e-13 2.9938735364365101e+00 0.0000000000000000e+00  1.2563015238797501e-12 2.9938735364369466e+00 0.0000000000000000e+00  6.3715630831710191e-13 2.9938735364370297e+00 0.0000000000000000e+00  6.9000311334764896e-13 2.9938735364360345e+00 0.0000000000000000e+00  7.5662121857339995e-14 2.9938735364350597e+00 0.0000000000000000e+00  -9.9119716046465125e-13 2.9938735364345206e+00 0.0000000000000000e+00  -6.1956891315597430e-14 2.9938735364351516e+00 0.0000000000000000e+00  -6.9476112875949419e-13 2.9938735364350335e+00 0.0000000000000000e+00  -1.8519432166705507e-12 2.9938735364345330e+00 0.0000000000000000e+00  -2.6845886055090677e-12 2.9938735364334779e+00 0.0000000000000000e+00  -1.5515187406822154e-12 2.9938735364327300e+00 0.0000000000000000e+00  1.7254327794338339e-12 2.9938735364311881e+00 0.0000000000000000e+00  1.1671459716112093e-12 2.9938735364335045e+00 0.0000000000000000e+00  1.8354528940102324e-12 2.9938735364329259e+00 0.0000000000000000e+00  1.1031013472581006e-10 2.9938735364304092e+00 0.0000000000000000e+00  -2.2797365839418106e-06 2.9938735364305433e+00 0.0000000000000000e+00  4.7307353464655116e-02 2.9938735364313374e+00 0.0000000000000000e+00  -4.6501571481599044e-02 3.2753294315302877e+00 0.0000000000000000e+00  2.2409051746142373e-06 3.2753294315311212e+00 0.0000000000000000e+00  -1.0756633717207689e-10 3.2753294315300172e+00 0.0000000000000000e+00  6.3403428909751621e-13 3.2753294315311701e+00 0.0000000000000000e+00  7.8730460703940639e-13 3.2753294315316626e+00 0.0000000000000000e+00  7.6952705448287561e-13 3.2753294315316532e+00 0.0000000000000000e+00  3.5102336970432644e-13 3.2753294315327688e+00 0.0000000000000000e+00  -8.0501762884536958e-13 3.2753294315309103e+00 0.0000000000000000e+00  -6.1293998785414185e-13 3.2753294315298116e+00 0.0000000000000000e+00  3.4271003023690144e-13 3.2753294315292631e+00 0.0000000000000000e+00  -6.4221576809020446e-13 3.2753294315290802e+00 0.0000000000000000e+00  -2.3514501401655024e-12 3.2753294315280939e+00 0.0000000000000000e+00  -2.9678351434953764e-12 3.2753294315282426e+00 0.0000000000000000e+00  -2.6197257929204962e-12 3.2753294315267230e+00 0.0000000000000000e+00  -1.4047261812041880e-12 3.2753294315276915e+00 0.0000000000000000e+00  1.7446567700786226e-13 3.2753294315268588e+00 0.0000000000000000e+00  9.6970900108071545e-13 3.2753294315252446e+00 0.0000000000000000e+00  4.5261779627730762e-13 3.2753294315256527e+00 0.0000000000000000e+00  1.0819113358079745e-10 3.2753294315248933e+00 0.0000000000000000e+00  -2.2409046468970237e-06 3.2753294315258326e+00 0.0000000000000000e+00  4.6501571480895780e-02 3.2753294315260097e+00 0.0000000000000000e+00  -4.5624087442658348e-02 3.5517350060421720e+00 0.0000000000000000e+00  2.1986190105271198e-06 3.5517350060426516e+00 0.0000000000000000e+00  -1.0589443788048339e-10 3.5517350060413508e+00 0.0000000000000000e+00  1.0401448124285288e-12 3.5517350060424029e+00 0.0000000000000000e+00  4.9119293200491048e-13 3.5517350060419424e+00 0.0000000000000000e+00  2.1946015877995622e-12 3.5517350060415906e+00 0.0000000000000000e+00  -1.6339656159674452e-13 3.5517350060412167e+00 0.0000000000000000e+00  -2.1228162016713760e-12 3.5517350060412896e+00 0.0000000000000000e+00  -1.2630705468214193e-12 3.5517350060408952e+00 0.0000000000000000e+00  -1.7107460898745008e-12 3.5517350060399360e+00 0.0000000000000000e+00  -1.0435618278544560e-12 3.5517350060383803e+00 0.0000000000000000e+00  -1.4558174611968201e-12 3.5517350060388080e+00 0.0000000000000000e+00  -3.0364211394191656e-12 3.5517350060391877e+00 0.0000000000000000e+00  -3.4912176554661735e-12 3.5517350060398503e+00 0.0000000000000000e+00  -1.6781965067846800e-12 3.5517350060384798e+00 0.0000000000000000e+00  -6.0916612709989119e-13 3.5517350060386543e+00 0.0000000000000000e+00  3.5724038714343772e-13 3.5517350060379456e+00 0.0000000000000000e+00  1.0881101442619943e-12 3.5517350060377475e+00 0.0000000000000000e+00  1.0627609279596300e-10 3.5517350060380957e+00 0.0000000000000000e+00  -2.1986187960632543e-06 3.5517350060384048e+00 0.0000000000000000e+00  4.5624087444756378e-02 3.5517350060385402e+00 0.0000000000000000e+00  -4.4676254370946682e-02 3.8226640626084483e+00 0.0000000000000000e+00  2.1529427324576745e-06 3.8226640626074935e+00 0.0000000000000000e+00  -1.0323321204836360e-10 3.8226640626095962e+00 0.0000000000000000e+00  1.3602270254029519e-12 3.8226640626095292e+00 0.0000000000000000e+00  1.9174345727025491e-13 3.8226640626106443e+00 0.0000000000000000e+00  5.7380317724720194e-14 3.8226640626084509e+00 0.0000000000000000e+00  6.0950102128189849e-14 3.8226640626062478e+00 0.0000000000000000e+00  -1.1172454060375308e-12 3.8226640626075348e+00 0.0000000000000000e+00  -2.2064771931239910e-12 3.8226640626075215e+00 0.0000000000000000e+00  -1.9