<?xml version="1.0"?>
<VTKFile type="UnstructuredGrid"  version="0.1"  >
<UnstructuredGrid>
<Piece  NumberOfPoints="1661" NumberOfCells="3200">
<Points>
<DataArray  type="Float64"  NumberOfComponents="3"  format="ascii">-0.25 -1 0  -0.225 -1 0  -0.2 -1 0  -0.175 -1 0  -0.15 -1 0  -0.125 -1 0  -0.1 -1 0  -0.07500000000000001 -1 0  -0.04999999999999999 -1 0  -0.02499999999999999 -1 0  0 -1 0  0.02500000000000002 -1 0  0.04999999999999999 -1 0  0.07500000000000001 -1 0  0.09999999999999998 -1 0  0.125 -1 0  0.15 -1 0  0.175 -1 0  0.2 -1 0  0.225 -1 0  0.25 -1 0  -0.25 -0.975 0  -0.225 -0.975 0  -0.2 -0.975 0  -0.175 -0.975 0  -0.15 -0.975 0  -0.125 -0.975 0  -0.1 -0.975 0  -0.07500000000000001 -0.975 0  -0.04999999999999999 -0.975 0  -0.02499999999999999 -0.975 0  0 -0.975 0  0.02500000000000002 -0.975 0  0.04999999999999999 -0.975 0  0.07500000000000001 -0.975 0  0.09999999999999998 -0.975 0  0.125 -0.975 0  0.15 -0.975 0  0.175 -0.975 0  0.2 -0.975 0  0.225 -0.975 0  0.25 -0.975 0  -0.25 -0.95 0  -0.225 -0.95 0  -0.2 -0.95 0  -0.175 -0.95 0  -0.15 -0.95 0  -0.125 -0.95 0  -0.1 -0.95 0  -0.07500000000000001 -0.95 0  -0.04999999999999999 -0.95 0  -0.02499999999999999 -0.95 0  0 -0.95 0  0.02500000000000002 -0.95 0  0.04999999999999999 -0.95 0  0.07500000000000001 -0.95 0  0.09999999999999998 -0.95 0  0.125 -0.95 0  0.15 -0.95 0  0.175 -0.95 0  0.2 -0.95 0  0.225 -0.95 0  0.25 -0.95 0  -0.25 -0.925 0  -0.225 -0.925 0  -0.2 -0.925 0  -0.175 -0.925 0  -0.15 -0.925 0  -0.125 -0.925 0  -0.1 -0.925 0  -0.07500000000000001 -0.925 0  -0.04999999999999999 -0.925 0  -0.02499999999999999 -0.925 0  0 -0.925 0  0.02500000000000002 -0.925 0  0.04999999999999999 -0.925 0  0.07500000000000001 -0.925 0  0.09999999999999998 -0.925 0  0.125 -0.925 0  0.15 -0.925 0  0.175 -0.925 0  0.2 -0.925 0  0.225 -0.925 0  0.25 -0.925 0  -0.25 -0.9 0  -0.225 -0.9 0  -0.2 -0.9 0  -0.175 -0.9 0  -0.15 -0.9 0  -0.125 -0.9 0  -0.1 -0.9 0  -0.07500000000000001 -0.9 0  -0.04999999999999999 -0.9 0  -0.02499999999999999 -0.9 0  0 -0.9 0  0.02500000000000002 -0.9 0  0.04999999999999999 -0.9 0  0.07500000000000001 -0.9 0  0.09999999999999998 -0.9 0  0.125 -0.9 0  0.15 -0.9 0  0.175 -0.9 0  0.2 -0.9 0  0.225 -0.9 0  0.25 -0.9 0  -0.25 -0.875 0  -0.225 -0.875 0  -0.2 -0.875 0  -0.175 -0.875 0  -0.15 -0.875 0  -0.125 -0.875 0  -0.1 -0.875 0  -0.07500000000000001 -0.875 0  -0.04999999999999999 -0.875 0  -0.02499999999999999 -0.875 0  0 -0.875 0  0.02500000000000002 -0.875 0  0.04999999999999999 -0.875 0  0.07500000000000001 -0.875 0  0.09999999999999998 -0.875 0  0.125 -0.875 0  0.15 -0.875 0  0.175 -0.875 0  0.2 -0.875 0  0.225 -0.875 0  0.25 -0.875 0  -0.25 -0.85 0  -0.225 -0.85 0  -0.2 -0.85 0  -0.175 -0.85 0  -0.15 -0.85 0  -0.125 -0.85 0  -0.1 -0.85 0  -0.07500000000000001 -0.85 0  -0.04999999999999999 -0.85 0  -0.02499999999999999 -0.85 0  0 -0.85 0  0.02500000000000002 -0.85 0  0.04999999999999999 -0.85 0  0.07500000000000001 -0.85 0  0.09999999999999998 -0.85 0  0.125 -0.85 0  0.15 -0.85 0  0.175 -0.85 0  0.2 -0.85 0  0.225 -0.85 0  0.25 -0.85 0  -0.25 -0.825 0  -0.225 -0.825 0  -0.2 -0.825 0  -0.175 -0.825 0  -0.15 -0.825 0  -0.125 -0.825 0  -0.1 -0.825 0  -0.07500000000000001 -0.825 0  -0.04999999999999999 -0.825 0  -0.02499999999999999 -0.825 0  0 -0.825 0  0.02500000000000002 -0.825 0  0.04999999999999999 -0.825 0  0.07500000000000001 -0.825 0  0.09999999999999998 -0.825 0  0.125 -0.825 0  0.15 -0.825 0  0.175 -0.825 0  0.2 -0.825 0  0.225 -0.825 0  0.25 -0.825 0  -0.25 -0.8 0  -0.225 -0.8 0  -0.2 -0.8 0  -0.175 -0.8 0  -0.15 -0.8 0  -0.125 -0.8 0  -0.1 -0.8 0  -0.07500000000000001 -0.8 0  -0.04999999999999999 -0.8 0  -0.02499999999999999 -0.8 0  0 -0.8 0  0.02500000000000002 -0.8 0  0.04999999999999999 -0.8 0  0.07500000000000001 -0.8 0  0.09999999999999998 -0.8 0  0.125 -0.8 0  0.15 -0.8 0  0.175 -0.8 0  0.2 -0.8 0  0.225 -0.8 0  0.25 -0.8 0  -0.25 -0.775 0  -0.225 -0.775 0  -0.2 -0.775 0  -0.175 -0.775 0  -0.15 -0.775 0  -0.125 -0.775 0  -0.1 -0.775 0  -0.07500000000000001 -0.775 0  -0.04999999999999999 -0.775 0  -0.02499999999999999 -0.775 0  0 -0.775 0  0.02500000000000002 -0.775 0  0.04999999999999999 -0.775 0  0.07500000000000001 -0.775 0  0.09999999999999998 -0.775 0  0.125 -0.775 0  0.15 -0.775 0  0.175 -0.775 0  0.2 -0.775 0  0.225 -0.775 0  0.25 -0.775 0  -0.25 -0.75 0  -0.225 -0.75 0  -0.2 -0.75 0  -0.175 -0.75 0  -0.15 -0.75 0  -0.125 -0.75 0  -0.1 -0.75 0  -0.07500000000000001 -0.75 0  -0.04999999999999999 -0.75 0  -0.02499999999999999 -0.75 0  0 -0.75 0  0.02500000000000002 -0.75 0  0.04999999999999999 -0.75 0  0.07500000000000001 -0.75 0  0.09999999999999998 -0.75 0  0.125 -0.75 0  0.15 -0.75 0  0.175 -0.75 0  0.2 -0.75 0  0.225 -0.75 0  0.25 -0.75 0  -0.25 -0.725 0  -0.225 -0.725 0  -0.2 -0.725 0  -0.175 -0.725 0  -0.15 -0.725 0  -0.125 -0.725 0  -0.1 -0.725 0  -0.07500000000000001 -0.725 0  -0.04999999999999999 -0.725 0  -0.02499999999999999 -0.725 0  0 -0.725 0  0.02500000000000002 -0.725 0  0.04999999999999999 -0.725 0  0.07500000000000001 -0.725 0  0.09999999999999998 -0.725 0  0.125 -0.725 0  0.15 -0.725 0  0.175 -0.725 0  0.2 -0.725 0  0.225 -0.725 0  0.25 -0.725 0  -0.25 -0.7 0  -0.225 -0.7 0  -0.2 -0.7 0  -0.175 -0.7 0  -0.15 -0.7 0  -0.125 -0.7 0  -0.1 -0.7 0  -0.07500000000000001 -0.7 0  -0.04999999999999999 -0.7 0  -0.02499999999999999 -0.7 0  0 -0.7 0  0.02500000000000002 -0.7 0  0.04999999999999999 -0.7 0  0.07500000000000001 -0.7 0  0.09999999999999998 -0.7 0  0.125 -0.7 0  0.15 -0.7 0  0.175 -0.7 0  0.2 -0.7 0  0.225 -0.7 0  0.25 -0.7 0  -0.25 -0.675 0  -0.225 -0.675 0  -0.2 -0.675 0  -0.175 -0.675 0  -0.15 -0.675 0  -0.125 -0.675 0  -0.1 -0.675 0  -0.07500000000000001 -0.675 0  -0.04999999999999999 -0.675 0  -0.02499999999999999 -0.675 0  0 -0.675 0  0.02500000000000002 -0.675 0  0.04999999999999999 -0.675 0  0.07500000000000001 -0.675 0  0.09999999999999998 -0.675 0  0.125 -0.675 0  0.15 -0.675 0  0.175 -0.675 0  0.2 -0.675 0  0.225 -0.675 0  0.25 -0.675 0  -0.25 -0.65 0  -0.225 -0.65 0  -0.2 -0.65 0  -0.175 -0.65 0  -0.15 -0.65 0  -0.125 -0.65 0  -0.1 -0.65 0  -0.07500000000000001 -0.65 0  -0.04999999999999999 -0.65 0  -0.02499999999999999 -0.65 0  0 -0.65 0  0.02500000000000002 -0.65 0  0.04999999999999999 -0.65 0  0.07500000000000001 -0.65 0  0.09999999999999998 -0.65 0  0.125 -0.65 0  0.15 -0.65 0  0.175 -0.65 0  0.2 -0.65 0  0.225 -0.65 0  0.25 -0.65 0  -0.25 -0.625 0  -0.225 -0.625 0  -0.2 -0.625 0  -0.175 -0.625 0  -0.15 -0.625 0  -0.125 -0.625 0  -0.1 -0.625 0  -0.07500000000000001 -0.625 0  -0.04999999999999999 -0.625 0  -0.02499999999999999 -0.625 0  0 -0.625 0  0.02500000000000002 -0.625 0  0.04999999999999999 -0.625 0  0.07500000000000001 -0.625 0  0.09999999999999998 -0.625 0  0.125 -0.625 0  0.15 -0.625 0  0.175 -0.625 0  0.2 -0.625 0  0.225 -0.625 0  0.25 -0.625 0  -0.25 -0.6 0  -0.225 -0.6 0  -0.2 -0.6 0  -0.175 -0.6 0  -0.15 -0.6 0  -0.125 -0.6 0  -0.1 -0.6 0  -0.07500000000000001 -0.6 0  -0.04999999999999999 -0.6 0  -0.02499999999999999 -0.6 0  0 -0.6 0  0.02500000000000002 -0.6 0  0.04999999999999999 -0.6 0  0.07500000000000001 -0.6 0  0.09999999999999998 -0.6 0  0.125 -0.6 0  0.15 -0.6 0  0.175 -0.6 0  0.2 -0.6 0  0.225 -0.6 0  0.25 -0.6 0  -0.25 -0.575 0  -0.225 -0.575 0  -0.2 -0.575 0  -0.175 -0.575 0  -0.15 -0.575 0  -0.125 -0.575 0  -0.1 -0.575 0  -0.07500000000000001 -0.575 0  -0.04999999999999999 -0.575 0  -0.02499999999999999 -0.575 0  0 -0.575 0  0.02500000000000002 -0.575 0  0.04999999999999999 -0.575 0  0.07500000000000001 -0.575 0  0.09999999999999998 -0.575 0  0.125 -0.575 0  0.15 -0.575 0  0.175 -0.575 0  0.2 -0.575 0  0.225 -0.575 0  0.25 -0.575 0  -0.25 -0.55 0  -0.225 -0.55 0  -0.2 -0.55 0  -0.175 -0.55 0  -0.15 -0.55 0  -0.125 -0.55 0  -0.1 -0.55 0  -0.07500000000000001 -0.55 0  -0.04999999999999999 -0.55 0  -0.02499999999999999 -0.55 0  0 -0.55 0  0.02500000000000002 -0.55 0  0.04999999999999999 -0.55 0  0.07500000000000001 -0.55 0  0.09999999999999998 -0.55 0  0.125 -0.55 0  0.15 -0.55 0  0.175 -0.55 0  0.2 -0.55 0  0.225 -0.55 0  0.25 -0.55 0  -0.25 -0.525 0  -0.225 -0.525 0  -0.2 -0.525 0  -0.175 -0.525 0  -0.15 -0.525 0  -0.125 -0.525 0  -0.1 -0.525 0  -0.07500000000000001 -0.525 0  -0.04999999999999999 -0.525 0  -0.02499999999999999 -0.525 0  0 -0.525 0  0.02500000000000002 -0.525 0  0.04999999999999999 -0.525 0  0.07500000000000001 -0.525 0  0.09999999999999998 -0.525 0  0.125 -0.525 0  0.15 -0.525 0  0.175 -0.525 0  0.2 -0.525 0  0.225 -0.525 0  0.25 -0.525 0  -0.25 -0.5 0  -0.225 -0.5 0  -0.2 -0.5 0  -0.175 -0.5 0  -0.15 -0.5 0  -0.125 -0.5 0  -0.1 -0.5 0  -0.07500000000000001 -0.5 0  -0.04999999999999999 -0.5 0  -0.02499999999999999 -0.5 0  0 -0.5 0  0.02500000000000002 -0.5 0  0.04999999999999999 -0.5 0  0.07500000000000001 -0.5 0  0.09999999999999998 -0.5 0  0.125 -0.5 0  0.15 -0.5 0  0.175 -0.5 0  0.2 -0.5 0  0.225 -0.5 0  0.25 -0.5 0  -0.25 -0.475 0  -0.225 -0.475 0  -0.2 -0.475 0  -0.175 -0.475 0  -0.15 -0.475 0  -0.125 -0.475 0  -0.1 -0.475 0  -0.07500000000000001 -0.475 0  -0.04999999999999999 -0.475 0  -0.02499999999999999 -0.475 0  0 -0.475 0  0.02500000000000002 -0.475 0  0.04999999999999999 -0.475 0  0.07500000000000001 -0.475 0  0.09999999999999998 -0.475 0  0.125 -0.475 0  0.15 -0.475 0  0.175 -0.475 0  0.2 -0.475 0  0.225 -0.475 0  0.25 -0.475 0  -0.25 -0.45 0  -0.225 -0.45 0  -0.2 -0.45 0  -0.175 -0.45 0  -0.15 -0.45 0  -0.125 -0.45 0  -0.1 -0.45 0  -0.07500000000000001 -0.45 0  -0.04999999999999999 -0.45 0  -0.02499999999999999 -0.45 0  0 -0.45 0  0.02500000000000002 -0.45 0  0.04999999999999999 -0.45 0  0.07500000000000001 -0.45 0  0.09999999999999998 -0.45 0  0.125 -0.45 0  0.15 -0.45 0  0.175 -0.45 0  0.2 -0.45 0  0.225 -0.45 0  0.25 -0.45 0  -0.25 -0.425 0  -0.225 -0.425 0  -0.2 -0.425 0  -0.175 -0.425 0  -0.15 -0.425 0  -0.125 -0.425 0  -0.1 -0.425 0  -0.07500000000000001 -0.425 0  -0.04999999999999999 -0.425 0  -0.02499999999999999 -0.425 0  0 -0.425 0  0.02500000000000002 -0.425 0  0.04999999999999999 -0.425 0  0.07500000000000001 -0.425 0  0.
[...]
<PointData  Vectors="flow"> 
<DataArray  type="Float64"  Name="flow"  NumberOfComponents="3" format="ascii">-6.0004910282282464e-01 1.2001109277606337e+00 0.0000000000000000e+00  2.8915017214902786e-05 1.2001109277554298e+00 0.0000000000000000e+00  -1.3973746627822063e-09 1.2001109277572448e+00 0.0000000000000000e+00  -2.0707758861625159e-13 1.2001109277558233e+00 0.0000000000000000e+00  -4.0044141669981903e-12 1.2001109277512558e+00 0.0000000000000000e+00  -1.3553347490616278e-13 1.2001109277576310e+00 0.0000000000000000e+00  -4.2326591378124119e-12 1.2001109277527244e+00 0.0000000000000000e+00  -8.7030379715731229e-12 1.2001109277584074e+00 0.0000000000000000e+00  -4.2659707753738621e-12 1.2001109277562210e+00 0.0000000000000000e+00  -8.8066300817562033e-12 1.2001109277586297e+00 0.0000000000000000e+00  -5.6218445343215791e-12 1.2001109277544419e+00 0.0000000000000000e+00  -3.1894590067443851e-12 1.2001109277541935e+00 0.0000000000000000e+00  -6.4302776231713947e-12 1.2001109277616666e+00 0.0000000000000000e+00  -7.5886915215498552e-12 1.2001109277537143e+00 0.0000000000000000e+00  -3.6812519846027763e-12 1.2001109277644737e+00 0.0000000000000000e+00  5.7256701279979354e-13 1.2001109277522866e+00 0.0000000000000000e+00  -9.2471279192812339e-13 1.2001109277604933e+00 0.0000000000000000e+00  -3.7591721251491983e-12 1.2001109277588053e+00 0.0000000000000000e+00  1.3930438660919989e-09 1.2001109277585493e+00 0.0000000000000000e+00  -2.8915020455429915e-05 1.2001109277562061e+00 0.0000000000000000e+00  6.0004910283016610e-01 1.2001109277540398e+00 0.0000000000000000e+00  -5.9958650709432593e-01 3.5992792053925338e+00 0.0000000000000000e+00  2.8892734694978595e-05 3.5992792053929064e+00 0.0000000000000000e+00  -1.3937069396745885e-09 3.5992792053934801e+00 0.0000000000000000e+00  -3.0485028775549790e-12 3.5992792053929628e+00 0.0000000000000000e+00  -3.2745897676241120e-12 3.5992792053938012e+00 0.0000000000000000e+00  -2.9804302991522100e-12 3.5992792053939326e+00 0.0000000000000000e+00  -4.4491446704453970e-12 3.5992792053910927e+00 0.0000000000000000e+00  -5.3662475717787934e-12 3.5992792053922780e+00 0.0000000000000000e+00  -4.3548114588684563e-12 3.5992792053929348e+00 0.0000000000000000e+00  -6.9099602545615124e-12 3.5992792053922962e+00 0.0000000000000000e+00  -7.0293594433846860e-12 3.5992792053959564e+00 0.0000000000000000e+00  -2.4169381440437892e-12 3.5992792053909857e+00 0.0000000000000000e+00  -7.6309114483912919e-12 3.5992792053922567e+00 0.0000000000000000e+00  -3.1437276873393814e-12 3.5992792053923846e+00 0.0000000000000000e+00  -4.5069113902433068e-12 3.5992792053953742e+00 0.0000000000000000e+00  -4.1487049411363368e-12 3.5992792053944247e+00 0.0000000000000000e+00  -3.7987641817150242e-13 3.5992792053919160e+00 0.0000000000000000e+00  -2.6980270398714815e-12 3.5992792053917517e+00 0.0000000000000000e+00  1.3914006391595524e-09 3.5992792053916651e+00 0.0000000000000000e+00  -2.8892736101035056e-05 3.5992792053907174e+00 0.0000000000000000e+00  5.9958650709666950e-01 3.5992792053938714e+00 0.0000000000000000e+00  -5.9819943289750144e-01 7.1930088270528358e+00 0.0000000000000000e+00  2.8825916385676600e-05 7.1930088270532302e+00 0.0000000000000000e+00  -1.3929147252300356e-09 7.1930088270512469e+00 0.0000000000000000e+00  -8.0347302752502924e-13 7.1930088270527959e+00 0.0000000000000000e+00  -3.3349749211988259e-12 7.1930088270528252e+00 0.0000000000000000e+00  -3.4299164727572779e-12 7.1930088270499493e+00 0.0000000000000000e+00  -4.0474991883208639e-12 7.1930088270525996e+00 0.0000000000000000e+00  -4.9192982715044006e-12 7.1930088270524877e+00 0.0000000000000000e+00  -5.0858833198391342e-12 7.1930088270533590e+00 0.0000000000000000e+00  -5.4716925190875670e-12 7.1930088270521528e+00 0.0000000000000000e+00  -7.1501256585734563e-12 7.1930088270525037e+00 0.0000000000000000e+00  -5.8942702997190743e-12 7.1930088270531458e+00 0.0000000000000000e+00  -5.5492245993615728e-12 7.1930088270514725e+00 0.0000000000000000e+00  -2.6955552516792614e-12 7.1930088270547747e+00 0.0000000000000000e+00  -1.6810333038826746e-12 7.1930088270510488e+00 0.0000000000000000e+00  -4.4998360185052481e-12 7.1930088270553396e+00 0.0000000000000000e+00  -3.6062516972004796e-12 7.1930088270520587e+00 0.0000000000000000e+00  -2.2671234316060422e-12 7.1930088270525872e+00 0.0000000000000000e+00  1.3862968218425260e-09 7.1930088270526236e+00 0.0000000000000000e+00  -2.8825918150062123e-05 7.1930088270527373e+00 0.0000000000000000e+00  5.9819943290538047e-01 7.1930088270520463e+00 0.0000000000000000e+00  -5.9589001816731335e-01 1.0775647834926190e+01 0.0000000000000000e+00  2.8714669902965335e-05 1.0775647834927536e+01 0.0000000000000000e+00  -1.3854986303905574e-09 1.0775647834926666e+01 0.0000000000000000e+00  -1.4892787702476026e-12 1.0775647834926856e+01 0.0000000000000000e+00  -4.7573862331211527e-12 1.0775647834926504e+01 0.0000000000000000e+00  -3.2380369602251354e-12 1.0775647834929199e+01 0.0000000000000000e+00  -3.6051107387899371e-12 1.0775647834925712e+01 0.0000000000000000e+00  -5.6309391986468207e-12 1.0775647834925525e+01 0.0000000000000000e+00  -4.8606628321741274e-12 1.0775647834925147e+01 0.0000000000000000e+00  -6.3289558316101810e-12 1.0775647834927055e+01 0.0000000000000000e+00  -7.0897121310778938e-12 1.0775647834924358e+01 0.0000000000000000e+00  -4.4662700840719585e-12 1.0775647834925421e+01 0.0000000000000000e+00  -8.3365985408210738e-12 1.0775647834924122e+01 0.0000000000000000e+00  -1.9201339901393044e-12 1.0775647834923967e+01 0.0000000000000000e+00  -2.5741359250291386e-12 1.0775647834923921e+01 0.0000000000000000e+00  -4.4535823362054674e-12 1.0775647834923731e+01 0.0000000000000000e+00  -2.3241524922693394e-12 1.0775647834925067e+01 0.0000000000000000e+00  -1.4715545386386617e-12 1.0775647834925250e+01 0.0000000000000000e+00  1.3835598237554752e-09 1.0775647834926692e+01 0.0000000000000000e+00  -2.8714674060159126e-05 1.0775647834927549e+01 0.0000000000000000e+00  5.9589001817316678e-01 1.0775647834924687e+01 0.0000000000000000e+00  -5.9266182245662469e-01 1.4341672293162102e+01 0.0000000000000000e+00  2.8559163673061194e-05 1.4341672293159760e+01 0.0000000000000000e+00  -1.3809043875163193e-09 1.4341672293162469e+01 0.0000000000000000e+00  -3.0569406343684935e-13 1.4341672293159927e+01 0.0000000000000000e+00  -2.0776869935171005e-12 1.4341672293161478e+01 0.0000000000000000e+00  -4.9646667051288193e-12 1.4341672293159389e+01 0.0000000000000000e+00  -5.8899358886678069e-12 1.4341672293161214e+01 0.0000000000000000e+00  -4.6895087903041544e-12 1.4341672293161407e+01 0.0000000000000000e+00  -4.6600074763366764e-12 1.4341672293159844e+01 0.0000000000000000e+00  -7.0554151845283095e-12 1.4341672293159132e+01 0.0000000000000000e+00  -6.6866706563434371e-12 1.4341672293161089e+01 0.0000000000000000e+00  -4.9986165924622933e-12 1.4341672293159446e+01 0.0000000000000000e+00  -7.6296662606768774e-12 1.4341672293161858e+01 0.0000000000000000e+00  -2.7980630694712355e-12 1.4341672293158132e+01 0.0000000000000000e+00  -4.7433972339840605e-12 1.4341672293158540e+01 0.0000000000000000e+00  -2.2817387143414830e-12 1.4341672293157629e+01 0.0000000000000000e+00  -7.3710923061503764e-13 1.4341672293159814e+01 0.0000000000000000e+00  -1.2291177295580889e-12 1.4341672293162516e+01 0.0000000000000000e+00  1.3725071614539540e-09 1.4341672293159411e+01 0.0000000000000000e+00  -2.8559165440069215e-05 1.4341672293158728e+01 0.0000000000000000e+00  5.9266182246366717e-01 1.4341672293160627e+01 0.0000000000000000e+00  -5.8851982149367599e-01 1.7885583874380746e+01 0.0000000000000000e+00  2.8359639149957692e-05 1.7885583874382096e+01 0.0000000000000000e+00  -1.3690169775918769e-09 1.7885583874380927e+01 0.0000000000000000e+00  -2.8224584886096891e-12 1.7885583874382650e+01 0.0000000000000000e+00  -3.7815205527421313e-12 1.7885583874381688e+01 0.0000000000000000e+00  -2.8997686847875883e-12 1.7885583874380451e+01 0.0000000000000000e+00  -4.3918928809519008e-12 1.7885583874381521e+01 0.0000000000000000e+00  -7.6286988803259491e-12 1.7885583874379289e+01 0.0000000000000000e+00  -5.3373517059763571e-12 1.7885583874379499e+01 0.0000000000000000e+00  -5.7662771555424626e-12 1.7885583874380107e+01 0.0000000000000000e+00  -6.1418576793760816e-12 1.7885583874380700e+01 0.0000000000000000e+00  -6.9274584005918885e-12 1.7885583874382689e+01 0.0000000000000000e+00  -7.4072576878413598e-12 1.7885583874380142e+01 0.0000000000000000e+00  -4.6256014840519554e-12 1.7885583874379488e+01 0.0000000000000000e+00  -2.4300929047812868e-12 1.7885583874379915e+01 0.0000000000000000e+00  -3.0190687414535833e-12 1.7885583874380639e+01 0.0000000000000000e+00  -4.2707043304477192e-13 1.7885583874379606e+01 0.0000000000000000e+00  -7.7768011639281005e-13 1.7885583874379090e+01 0.0000000000000000e+00  1.3640017346768007e-09 1.7885583874380227e+01 0.0000000000000000e+00  -2.8359637945815745e-05 1.7885583874382096e+01 0.0000000000000000e+00  5.8851982149528581e-01 1.7885583874379982e+01 0.0000000000000000e+00  -5.8347039949950630e-01 2.1401918334605739e+01 0.0000000000000000e+00  2.8116396893670276e-05 2.1401918334606258e+01 0.0000000000000000e+00  -1.3593021377814874e-09 2.1401918334605369e+01 0.0000000000000000e+00  -5.2992314527338744e-14 2.1401918334605504e+01 0.0000000000000000e+00  -4.3516140324094148e-12 2.1401918334605927e+01 0.0000000000000000e+00  -5.9769015671950402e-12 2.1401918334605206e+01 0.0000000000000000e+00  -4.9729239793359835e-12 2.1401918334604797e+01 0.0000000000000000e+00  -6.1455785242489884e-12 2.1401918334604826e+01 0.0000000000000000e+00  -4.8254492520078252e-12 2.1401918334605874e+01 0.0000000000000000e+00  -6.5224197562689836e-12 2.1401918334604705e+01 0.0000000000000000e+00  -4.5185888763865266e-12 2.1401918334604396e+01 0.0000000000000000e+00  -5.3069253834478749e-12 2.1401918334604755e+01 0.0000000000000000e+00  -8.5350804796404427e-12 2.1401918334604481e+01 0.0000000000000000e+00  -5.2906584110453014e-12 2.1401918334605526e+01 0.0000000000000000e+00  -3.8193720956112645e-12 2.1401918334605156e+01 0.0000000000000000e+00  -1.3513678157251359e-12 2.1401918334605512e+01 0.0000000000000000e+00  5.2173063904239064e-13 2.1401918334604950e+01 0.0000000000000000e+00  -3.3989783726945462e-12 2.1401918334604243e+01 0.0000000000000000e+00  1.3539650728917150e-09 2.1401918334604371e+01 0.0000000000000000e+00  -2.8116398764637396e-05 2.1401918334604559e+01 0.0000000000000000e+00  5.8347039950572499e-01 2.1401918334606833e+01 0.0000000000000000e+00  -5.7752133944905693e-01 2.4885253935783780e+01 0.0000000000000000e+00  2.7829818029501793e-05 2.4885253935784672e+01 0.0000000000000000e+00  -1.3433248068895203e-09 2.4885253935786150e+01 0.0000000000000000e+00  -3.5047396951815022e-12 2.4885253935786011e+01 0.0000000000000000e+00  -3.5575479670947742e-12 2.4885253935785904e+01 0.0000000000000000e+00  -3.7380121005522377e-12 2.4885253935784394e+01 0.0000000000000000e+00  -5.0495951020288198e-12 2.4885253935784657e+01 0.0000000000000000e+00  -7.3716651216015465e-12 2.4885253935784441e+01 0.0000000000000000e+00  -4.3071166682454608e-12 2.4885253935786096e+01 0.0000000000000000e+00  -4.9367446745209931e-12 2.4885253935786046e+01 0.0000000000000000e+00  -7.6955533048181398e-12 2.4885253935786185e+01 0.0000000000000000e+00  -6.1884062621585147e-12 2.4885253935782746e+01 0.0000000000000000e+00  -7.2526084529243832e-12 2.4885253935785332e+01 0.0000000000000000e+00  -3.8655057845320640e-12 2.4885253935784430e+01 0.0000000000000000e+00  -3.6407930967781530e-12 2.4885253935784263e+01 0.0000000000000000e+00  -1.9682854510021722e-12 2.4885253935784050e+01 0.0000000000000000e+00  -2.7057026884177521e-12 2.4885253935784181e+01 0.0000000000000000e+00  -2.1049418641951261e-12 2.4885253935783954e+01 0.0000000000000000e+00  1.3409344131645989e-09 2.4885253935785499e+01 0.0000000000000000e+00  -2.7829817495476692e-05 2.4885253935783730e+01 0.0000000000000000e+00  5.7752133945125228e-01 2.4885253935783368e+01 0.0000000000000000e+00  -5.7068181099840920e-01 2.8330219803034641e+01 0.0000000000000000e+00  2.7500337909419820e-05 2.8330219803037213e+01 0.0000000000000000e+00  -1.3263371381108660e-09 2.8330219803036787e+01 0.0000000000000000e+00  -3.0263093412681444e-12 2.8330219803037533e+01 0.0000000000000000e+00  -5.9184786764508123e-12 2.8330219803036936e+01 0.0000000000000000e+00  -6.6956882196298222e-12 2.8330219803037174e+01 0.0000000000000000e+00  -4.7353939530378094e-12 2.8330219803036336e+01 0.0000000000000000e+00  -3.4861890588395464e-12 2.8330219803038332e+01 0.0000000000000000e+00  -5.5102988699296690e-12 2.8330219803037327e+01 0.0000000000000000e+00  -5.7286158183736967e-12 2.8330219803038371e+01 0.0000000000000000e+00  -7.7917371806949835e-12 2.8330219803037426e+01 0.0000000000000000e+00  -7.0449986938023582e-12 2.8330219803038617e+01 0.0000000000000000e+00  -6.1147941746507089e-12 2.8330219803035991e+01 0.0000000000000000e+00  -7.1357855924358341e-12 2.8330219803037565e+01 0.0000000000000000e+00  -4.1364655839719046e-12 2.8330219803034090e+01 0.0000000000000000e+00  -2.1768759332927456e-13 2.8330219803036584e+01 0.0000000000000000e+00  -1.5600053165427187e-12 2.8330219803037554e+01 0.0000000000000000e+00  -6.4753840840298531e-13 2.8330219803036869e+01 0.0000000000000000e+00  1.3251446489911778e-09 2.8330219803035924e+01 0.0000000000000000e+00  -2.7500338704026554e-05 2.8330219803039540e+01 0.0000000000000000e+00  5.7068181100459137e-01 2.8330219803038286e+01 0.0000000000000000e+00  -5.6296235653194504e-01 3.1731504203704578e+01 0.0000000000000000e+00  2.7128464849307608e-05 3.1731504203700073e+01 0.0000000000000000e+00  -1.3063491768450504e-09 3.1731504203703270e+01 0.0000000000000000e+00  -2.9126644299604296e-12 3.1731504203703036e+01 0.0000000000000000e+00  -3.3234371492748326e-12 3.1731504203705637e+01 0.0000000000000000e+00  -4.5648196025829669e-12 3.1731504203706031e+01 0.0000000000000000e+00  -5.8511248586436192e-12 3.1731504203706816e+01 0.0000000000000000e+00  -5.0791880199301332e-12 3.1731504203705367e+01 0.0000000000000000e+00  -5.6214811573544324e-12 3.1731504203705789e+01 0.0000000000000000e+00  -6.0373868713029144e-12 3.1731504203703448e+01 0.0000000000000000e+00  -7.1255347391283019e-12 3.1731504203703214e+01 0.0000000000000000e+00  -8.4166416400731898e-12 3.1731504203703100e+01 0.0000000000000000e+00  -6.1472246780344176e-12 3.1731504203704823e+01 0.0000000000000000e+00  -5.3273991443233248e-12 3.1731504203703793e+01 0.0000000000000000e+00  -3.9822213430307319e-12 3.1731504203705203e+01 0.0000000000000000e+00  -7.0164499926622242e-13 3.1731504203704642e+01 0.0000000000000000e+00  -2.4536664630954214e-12 3.1731504203703128e+01 0.0000000000000000e+00  -2.3676147785527280e-12 3.1731504203703970e+01 0.0000000000000000e+00  1.3077471716467013e-09 3.1731504203703867e+01 0.0000000000000000e+00  -2.7128463681843066e-05 3.1731504203702993e+01 0.0000000000000000e+00  5.6296235652850912e-01 3.1731504203702428e+01 0.0000000000000000e+00  -5.5437487482530234e-01 3.5083862735505413e+01 0.0000000000000000e+00  2.6714770241555133e-05 3.5083862735505676e+01 0.0000000000000000e+00  -1.2877493599157637e-09 3.5083862735504596e+01 0.0000000000000000e+00  -5.8072190229666047e-13 3.5083862735504191e+01 0.0000000000000000e+00  -4.4095036338266579e-12 3.5083862735505384e+01 0.0000000000000000e+00  -4.5239307025564519e-12 3.5083862735505932e+01 0.0000000000000000e+00  -4.5293114580018393e-12 3.5083862735506678e+01 0.0000000000000000e+00  -4.4355400417624495e-12 3.5083862735507189e+01 0.0000000000000000e+00  -5.4837322457294985e-12 3.5083862735506727e+01 0.0000000000000000e+00  -7.1653769955827051e-12 3.5083862735507935e+01 0.0000000000000000e+00  -7.3355685034472638e-12 3.5083862735509797e+01 0.0000000000000000e+00  -6.0075167046112128e-12 3.5083862735508184e+01 0.0000000000000000e+00  -9.2319416543661611e-12 3.5083862735507402e+01 0.0000000000000000e+00  -4.1793297635263728e-12 3.5083862735506742e+01 0.0000000000000000e+00  -3.4694532023441424e-12 3.5083862735509847e+01 0.0000000000000000e+00  -3.3430738195758831e-12 3.5083862735506187e+01 0.0000000000000000e+00  -2.0108830812237560e-12 3.5083862735506379e+01 0.0000000000000000e+00  9.1803130625155139e-13 3.5083862735505718e+01 0.0000000000000000e+00  1.2868832700818058e-09 3.5083862735507452e+01 0.0000000000000000e+00  -2.6714771104883514e-05 3.5083862735506216e+01 0.0000000000000000e+00  5.5437487482471914e-01 3.5083862735507509e+01 0.0000000000000000e+00  -5.4493260283833767e-01 3.8382126411207608e+01 0.0000000000000000e+00  2.6259889436782625e-05 3.8382126411207537e+01 0.0000000000000000e+00  -1.2674025152600552e-09 3.8382126411208148e+01 0.0000000000000000e+00  2.5197107777322241e-13 3.8382126411207658e+01 0.0000000000000000e+00  -3.7563457496739630e-12 3.8382126411207267e+01 0.0000000000000000e+00  -3.3488932177295341e-12 3.8382126411210358e+01 0.0000000000000000e+00  -3.4563898155713768e-12 3.8382126411209654e+01 0.0000000000000000e+00  -6.3412345371809044e-12 3.8382126411211878e+01 0.0000000000000000e+00  -4.7493303930277594e-12 3.8382126411210315e+01 0.0000000000000000e+00  -5.9518723644361268e-12 3.8382126411210415e+01 0.0000000000000000e+00  -6.7530236156807505e-12 3.8382126411208766e+01 0.0000000000000000e+00  -8.0253015337450873e-12 3.8382126411209683e+01 0.0000000000000000e+00  -8.2950901096467814e-12 3.8382126411209221e+01 0.0000000000000000e+00  -3.0195029592692598e-12 3.8382126411209889e+01 0.0000000000000000e+00  -5.0845215625432072e-12 3.8382126411205860e+01 0.0000000000000000e+00  -4.0443168938729978e-12 3.8382126411208496e+01 0.0000000000000000e+00  -2.0808769263696961e-12 3.8382126411207764e+01 0.0000000000000000e+00  -1.1913532552252921e-12 3.8382126411208070e+01 0.0000000000000000e+00  1.2667120843471206e-09 3.8382126411208510e+01 0.0000000000000000e+00  -2.6259889817717302e-05 3.8382126411209683e+01 0.0000000000000000e+00  5.4493260283739231e-01 3.8382126411209597e+01 0.0000000000000000e+00  -5.3465009534049401e-01 4.1621209627338040e+01 0.0000000000000000e+00  2.5764523505229939e-05 4.1621209627336142e+01 0.0000000000000000e+00  -1.2410862635729188e-09 4.1621209627337400e+01 0.0000000000000000e+00  -1.1592046989803086e-13 4.1621209627339262e+01 0.0000000000000000e+00  -1.7508005106516355e-12 4.1621209627339759e+01 0.0000000000000000e+00  -1.2815655619022526e-12 4.1621209627340491e+01 0.0000000000000000e+00  -3.6366844636204718e-12 4.1621209627343148e+01 0.0000000000000000e+00  -5.0398122015459846e-12 4.1621209627340981e+01 0.0000000000000000e+00  -6.7093604799786227e-12 4.1621209627340477e+01 0.0000000000000000e+00  -7.9445938028670948e-12 4.1621209627337848e+01 0.0000000000000000e+00  -7.8149394604623128e-12 4.1621209627336142e+01 0.0000000000000000e+00  -6.8868861934537150e-12 4.1621209627339013e+01 0.0000000000000000e+00  -6.7699769326678246e-12 4.1621209627339745e+01 0.0000000000000000e+00  -8.0845995747712808e-12 4.1621209627340804e+01 0.0000000000000000e+00  -2.5189458828247630e-12 4.1621209627338565e+01 0.0000000000000000e+00  -3.8233270954038589e-12 4.1621209627339439e+01 0.0000000000000000e+00  -1.6368775358681669e-12 4.1621209627340797e+01 0.0000000000000000e+00  -1.1664459482425179e-12 4.1621209627339496e+01 0.0000000000000000e+00  1.2439939375226500e-09 4.1621209627339965e+01 0.0000000000000000e+00  -2.5764524513381912e-05 4.1621209627336754e+01 0.0000000000000000e+00  5.3465009533981012e-01 4.1621209627338480e+01 0.0000000000000000e+00  -5.2354320252194952e-01 4.4796118004713655e+01 0.0000000000000000e+00  2.5229432467399354e-05 4.4796118004717165e+01 0.0000000000000000e+00  -1.2150898663812230e-09 4.4796118004715005e+01 0.0000000000000000e+00  8.6489933658819594e-13 4.4796118004716298e+01 0.0000000000000000e+00  -2.1270730373995463e-12 4.4796118004717236e+01 0.0000000000000000e+00  5.8642327394316843e-13 4.4796118004716917e+01 0.0000000000000000e+00  -2.6611608698910640e-12 4.4796118004717989e+01 0.0000000000000000e+00  -8.7630536697932228e-12 4.4796118004716746e+01 0.000000000