<?xml version="1.0"?>
<VTKFile type="UnstructuredGrid"  version="0.1"  >
<UnstructuredGrid>
<Piece  NumberOfPoints="1091" NumberOfCells="2050">
<Points>
<DataArray  type="Float64"  NumberOfComponents="3"  format="ascii">-0.5 -1 0  -0.4 -1 0  -0.3 -1 0  -0.2 -1 0  -0.09999999999999998 -1 0  0 -1 0  0.09999999999999998 -1 0  0.2 -1 0  0.3 -1 0  0.4 -1 0  0.5 -1 0  -0.5 -0.98 0  -0.4 -0.98 0  -0.3 -0.98 0  -0.2 -0.98 0  -0.09999999999999998 -0.98 0  0 -0.98 0  0.09999999999999998 -0.98 0  0.2 -0.98 0  0.3 -0.98 0  0.4 -0.98 0  0.5 -0.98 0  -0.5 -0.96 0  -0.4 -0.96 0  -0.3 -0.96 0  -0.2 -0.96 0  -0.09999999999999998 -0.96 0  0 -0.96 0  0.09999999999999998 -0.96 0  0.2 -0.96 0  0.3 -0.96 0  0.4 -0.96 0  0.5 -0.96 0  -0.5 -0.9399999999999999 0  -0.4 -0.9399999999999999 0  -0.3 -0.9399999999999999 0  -0.2 -0.9399999999999999 0  -0.09999999999999998 -0.9399999999999999 0  0 -0.9399999999999999 0  0.09999999999999998 -0.9399999999999999 0  0.2 -0.9399999999999999 0  0.3 -0.9399999999999999 0  0.4 -0.9399999999999999 0  0.5 -0.9399999999999999 0  -0.5 -0.92 0  -0.4 -0.92 0  -0.3 -0.92 0  -0.2 -0.92 0  -0.09999999999999998 -0.92 0  0 -0.92 0  0.09999999999999998 -0.92 0  0.2 -0.92 0  0.3 -0.92 0  0.4 -0.92 0  0.5 -0.92 0  -0.5 -0.9 0  -0.4 -0.9 0  -0.3 -0.9 0  -0.2 -0.9 0  -0.09999999999999998 -0.9 0  0 -0.9 0  0.09999999999999998 -0.9 0  0.2 -0.9 0  0.3 -0.9 0  0.4 -0.9 0  0.5 -0.9 0  -0.5 -0.88 0  -0.4 -0.88 0  -0.3 -0.88 0  -0.2 -0.88 0  -0.09999999999999998 -0.88 0  0 -0.88 0  0.09999999999999998 -0.88 0  0.2 -0.88 0  0.3 -0.88 0  0.4 -0.88 0  0.5 -0.88 0  -0.5 -0.86 0  -0.4 -0.86 0  -0.3 -0.86 0  -0.2 -0.86 0  -0.09999999999999998 -0.86 0  0 -0.86 0  0.09999999999999998 -0.86 0  0.2 -0.86 0  0.3 -0.86 0  0.4 -0.86 0  0.5 -0.86 0  -0.5 -0.84 0  -0.4 -0.84 0  -0.3 -0.84 0  -0.2 -0.84 0  -0.09999999999999998 -0.84 0  0 -0.84 0  0.09999999999999998 -0.84 0  0.2 -0.84 0  0.3 -0.84 0  0.4 -0.84 0  0.5 -0.84 0  -0.5 -0.8200000000000001 0  -0.4 -0.8200000000000001 0  -0.3 -0.8200000000000001 0  -0.2 -0.8200000000000001 0  -0.09999999999999998 -0.8200000000000001 0  0 -0.8200000000000001 0  0.09999999999999998 -0.8200000000000001 0  0.2 -0.8200000000000001 0  0.3 -0.8200000000000001 0  0.4 -0.8200000000000001 0  0.5 -0.8200000000000001 0  -0.5 -0.8 0  -0.4 -0.8 0  -0.3 -0.8 0  -0.2 -0.8 0  -0.09999999999999998 -0.8 0  0 -0.8 0  0.09999999999999998 -0.8 0  0.2 -0.8 0  0.3 -0.8 0  0.4 -0.8 0  0.5 -0.8 0  -0.5 -0.78 0  -0.4 -0.78 0  -0.3 -0.78 0  -0.2 -0.78 0  -0.09999999999999998 -0.78 0  0 -0.78 0  0.09999999999999998 -0.78 0  0.2 -0.78 0  0.3 -0.78 0  0.4 -0.78 0  0.5 -0.78 0  -0.5 -0.76 0  -0.4 -0.76 0  -0.3 -0.76 0  -0.2 -0.76 0  -0.09999999999999998 -0.76 0  0 -0.76 0  0.09999999999999998 -0.76 0  0.2 -0.76 0  0.3 -0.76 0  0.4 -0.76 0  0.5 -0.76 0  -0.5 -0.74 0  -0.4 -0.74 0  -0.3 -0.74 0  -0.2 -0.74 0  -0.09999999999999998 -0.74 0  0 -0.74 0  0.09999999999999998 -0.74 0  0.2 -0.74 0  0.3 -0.74 0  0.4 -0.74 0  0.5 -0.74 0  -0.5 -0.72 0  -0.4 -0.72 0  -0.3 -0.72 0  -0.2 -0.72 0  -0.09999999999999998 -0.72 0  0 -0.72 0  0.09999999999999998 -0.72 0  0.2 -0.72 0  0.3 -0.72 0  0.4 -0.72 0  0.5 -0.72 0  -0.5 -0.7 0  -0.4 -0.7 0  -0.3 -0.7 0  -0.2 -0.7 0  -0.09999999999999998 -0.7 0  0 -0.7 0  0.09999999999999998 -0.7 0  0.2 -0.7 0  0.3 -0.7 0  0.4 -0.7 0  0.5 -0.7 0  -0.5 -0.6799999999999999 0  -0.4 -0.6799999999999999 0  -0.3 -0.6799999999999999 0  -0.2 -0.6799999999999999 0  -0.09999999999999998 -0.6799999999999999 0  0 -0.6799999999999999 0  0.09999999999999998 -0.6799999999999999 0  0.2 -0.6799999999999999 0  0.3 -0.6799999999999999 0  0.4 -0.6799999999999999 0  0.5 -0.6799999999999999 0  -0.5 -0.6599999999999999 0  -0.4 -0.6599999999999999 0  -0.3 -0.6599999999999999 0  -0.2 -0.6599999999999999 0  -0.09999999999999998 -0.6599999999999999 0  0 -0.6599999999999999 0  0.09999999999999998 -0.6599999999999999 0  0.2 -0.6599999999999999 0  0.3 -0.6599999999999999 0  0.4 -0.6599999999999999 0  0.5 -0.6599999999999999 0  -0.5 -0.64 0  -0.4 -0.64 0  -0.3 -0.64 0  -0.2 -0.64 0  -0.09999999999999998 -0.64 0  0 -0.64 0  0.09999999999999998 -0.64 0  0.2 -0.64 0  0.3 -0.64 0  0.4 -0.64 0  0.5 -0.64 0  -0.5 -0.62 0  -0.4 -0.62 0  -0.3 -0.62 0  -0.2 -0.62 0  -0.09999999999999998 -0.62 0  0 -0.62 0  0.09999999999999998 -0.62 0  0.2 -0.62 0  0.3 -0.62 0  0.4 -0.62 0  0.5 -0.62 0  -0.5 -0.6 0  -0.4 -0.6 0  -0.3 -0.6 0  -0.2 -0.6 0  -0.09999999999999998 -0.6 0  0 -0.6 0  0.09999999999999998 -0.6 0  0.2 -0.6 0  0.3 -0.6 0  0.4 -0.6 0  0.5 -0.6 0  -0.5 -0.5800000000000001 0  -0.4 -0.5800000000000001 0  -0.3 -0.5800000000000001 0  -0.2 -0.5800000000000001 0  -0.09999999999999998 -0.5800000000000001 0  0 -0.5800000000000001 0  0.09999999999999998 -0.5800000000000001 0  0.2 -0.5800000000000001 0  0.3 -0.5800000000000001 0  0.4 -0.5800000000000001 0  0.5 -0.5800000000000001 0  -0.5 -0.5600000000000001 0  -0.4 -0.5600000000000001 0  -0.3 -0.5600000000000001 0  -0.2 -0.5600000000000001 0  -0.09999999999999998 -0.5600000000000001 0  0 -0.5600000000000001 0  0.09999999999999998 -0.5600000000000001 0  0.2 -0.5600000000000001 0  0.3 -0.5600000000000001 0  0.4 -0.5600000000000001 0  0.5 -0.5600000000000001 0  -0.5 -0.54 0  -0.4 -0.54 0  -0.3 -0.54 0  -0.2 -0.54 0  -0.09999999999999998 -0.54 0  0 -0.54 0  0.09999999999999998 -0.54 0  0.2 -0.54 0  0.3 -0.54 0  0.4 -0.54 0  0.5 -0.54 0  -0.5 -0.52 0  -0.4 -0.52 0  -0.3 -0.52 0  -0.2 -0.52 0  -0.09999999999999998 -0.52 0  0 -0.52 0  0.09999999999999998 -0.52 0  0.2 -0.52 0  0.3 -0.52 0  0.4 -0.52 0  0.5 -0.52 0  -0.5 -0.5 0  -0.4 -0.5 0  -0.3 -0.5 0  -0.2 -0.5 0  -0.09999999999999998 -0.5 0  0 -0.5 0  0.09999999999999998 -0.5 0  0.2 -0.5 0  0.3 -0.5 0  0.4 -0.5 0  0.5 -0.5 0  -0.5 -0.48 0  -0.4 -0.48 0  -0.3 -0.48 0  -0.2 -0.48 0  -0.09999999999999998 -0.48 0  0 -0.48 0  0.09999999999999998 -0.48 0  0.2 -0.48 0  0.3 -0.48 0  0.4 -0.48 0  0.5 -0.48 0  -0.5 -0.46 0  -0.4 -0.46 0  -0.3 -0.46 0  -0.2 -0.46 0  -0.09999999999999998 -0.46 0  0 -0.46 0  0.09999999999999998 -0.46 0  0.2 -0.46 0  0.3 -0.46 0  0.4 -0.46 0  0.5 -0.46 0  -0.5 -0.4399999999999999 0  -0.4 -0.4399999999999999 0  -0.3 -0.4399999999999999 0  -0.2 -0.4399999999999999 0  -0.09999999999999998 -0.4399999999999999 0  0 -0.4399999999999999 0  0.09999999999999998 -0.4399999999999999 0  0.2 -0.4399999999999999 0  0.3 -0.4399999999999999 0  0.4 -0.4399999999999999 0  0.5 -0.4399999999999999 0  -0.5 -0.42 0  -0.4 -0.42 0  -0.3 -0.42 0  -0.2 -0.42 0  -0.09999999999999998 -0.42 0  0 -0.42 0  0.09999999999999998 -0.42 0  0.2 -0.42 0  0.3 -0.42 0  0.4 -0.42 0  0.5 -0.42 0  -0.5 -0.4 0  -0.4 -0.4 0  -0.3 -0.4 0  -0.2 -0.4 0  -0.09999999999999998 -0.4 0  0 -0.4 0  0.09999999999999998 -0.4 0  0.2 -0.4 0  0.3 -0.4 0  0.4 -0.4 0  0.5 -0.4 0  -0.5 -0.38 0  -0.4 -0.38 0  -0.3 -0.38 0  -0.2 -0.38 0  -0.09999999999999998 -0.38 0  0 -0.38 0  0.09999999999999998 -0.38 0  0.2 -0.38 0  0.3 -0.38 0  0.4 -0.38 0  0.5 -0.38 0  -0.5 -0.36 0  -0.4 -0.36 0  -0.3 -0.36 0  -0.2 -0.36 0  -0.09999999999999998 -0.36 0  0 -0.36 0  0.09999999999999998 -0.36 0  0.2 -0.36 0  0.3 -0.36 0  0.4 -0.36 0  0.5 -0.36 0  -0.5 -0.34 0  -0.4 -0.34 0  -0.3 -0.34 0  -0.2 -0.34 0  -0.09999999999999998 -0.34 0  0 -0.34 0  0.09999999999999998 -0.34 0  0.2 -0.34 0  0.3 -0.34 0  0.4 -0.34 0  0.5 -0.34 0  -0.5 -0.32 0  -0.4 -0.32 0  -0.3 -0.32 0  -0.2 -0.32 0  -0.09999999999999998 -0.32 0  0 -0.32 0  0.09999999999999998 -0.32 0  0.2 -0.32 0  0.3 -0.32 0  0.4 -0.32 0  0.5 -0.32 0  -0.5 -0.3 0  -0.4 -0.3 0  -0.3 -0.3 0  -0.2 -0.3 0  -0.09999999999999998 -0.3 0  0 -0.3 0  0.09999999999999998 -0.3 0  0.2 -0.3 0  0.3 -0.3 0  0.4 -0.3 0  0.5 -0.3 0  -0.5 -0.28 0  -0.4 -0.28 0  -0.3 -0.28 0  -0.2 -0.28 0  -0.09999999999999998 -0.28 0  0 -0.28 0  0.09999999999999998 -0.28 0  0.2 -0.28 0  0.3 -0.28 0  0.4 -0.28 0  0.5 -0.28 0  -0.5 -0.26 0  -0.4 -0.26 0  -0.3 -0.26 0  -0.2 -0.26 0  -0.09999999999999998 -0.26 0  0 -0.26 0  0.09999999999999998 -0.26 0  0.2 -0.26 0  0.3 -0.26 0  0.4 -0.26 0  0.5 -0.26 0  -0.5 -0.24 0  -0.4 -0.24 0  -0.3 -0.24 0  -0.2 -0.24 0  -0.09999999999999998 -0.24 0  0 -0.24 0  0.09999999999999998 -0.24 0  0.2 -0.24 0  0.3 -0.24 0  0.4 -0.24 0  0.5 -0.24 0  -0.5 -0.22 0  -0.4 -0.22 0  -0.3 -0.22 0  -0.2 -0.22 0  -0.09999999999999998 -0.22 0  0 -0.22 0  0.09999999999999998 -0.22 0  0.2 -0.22 0  0.3 -0.22 0  0.4 -0.22 0  0.5 -0.22 0  -0.5 -0.2 0  -0.4 -0.2 0  -0.3 -0.2 0  -0.2 -0.2 0  -0.09999999999999998 -0.2 0  0 -0.2 0  0.09999999999999998 -0.2 0  0.2 -0.2 0  0.3 -0.2 0  0.4 -0.2 0  0.5 -0.2 0  -0.5 -0.18 0  -0.4 -0.18 0  -0.3 -0.18 0  -0.2 -0.18 0  -0.09999999999999998 -0.18 0  0 -0.18 0  0.09999999999999998 -0.18 0  0.2 -0.18 0  0.3 -0.18 0  0.4 -0.18 0  0.5 -0.18 0  -0.5 -0.16 0  -0.4 -0.16 0  -0.3 -0.16 0  -0.2 -0.16 0  -0.09999999999999998 -0.16 0  0 -0.16 0  0.09999999999999998 -0.16 0  0.2 -0.16 0  0.3 -0.16 0  0.4 -0.16 0  0.5 -0.16 0  -0.5 -0.14 0  -0.4 -0.14 0  -0.3 -0.14 0  -0.2 -0.14 0  -0.09999999999999998 -0.14 0  0 -0.14 0  0.09999999999999998 -0.14 0  0.2 -0.14 0  0.3 -0.14 0  0.4 -0.14 0  0.5 -0.14 0  -0.5 -0.12 0  -0.4 -0.12 0  -0.3 -0.12 0  -0.2 -0.12 0  -0.09999999999999998 -0.12 0  0 -0.12 0  0.09999999999999998 -0.12 0  0.2 -0.12 0  0.3 -0.12 0  0.4 -0.12 0  0.5 -0.12 0  -0.5 -0.09999999999999998 0  -0.4 -0.09999999999999998 0  -0.3 -0.09999999999999998 0  -0.2 -0.09999999999999998 0  -0.09999999999999998 -0.09999999999999998 0  0 -0.09999999999999998 0  0.09999999999999998 -0.09999999999999998 0  0.2 -0.09999999999999998 0  0.3 -0.09999999999999998 0  0.4 -0.09999999999999998 0  0.5 -0.09999999999999998 0  -0.5 -0.07999999999999996 0  -0.4 -0.07999999999999996 0  -0.3 -0.07999999999999996 0  -0.2 -0.07999999999999996 0  -0.09999999999999998 -0.07999999999999996 0  0 -0.07999999999999996 0  0.09999999999999998 -0.07999999999999996 0  0.2 -0.07999999999999996 0  0.3 -0.07999999999999996 0  0.4 -0.07999999999999996 0  0.5 -0.07999999999999996 0  -0.5 -0.06000000000000005 0  -0.4 -0.06000000000000005 0  -0.3 -0.06000000000000005 0  -0.2 -0.06000000000000005 0  -0.09999999
[...]
<PointData  Vectors="flow"> 
<DataArray  type="Float64"  Name="flow"  NumberOfComponents="3" format="ascii">-2.4237742078128898e-15 -5.4830831424098115e-16 0.0000000000000000e+00  -1.9929681987645950e-15 2.6756811750562899e-16 0.0000000000000000e+00  -5.3903477593177078e-16 -2.4514024375029215e-15 0.0000000000000000e+00  3.4542769083934090e-15 -1.6218565634068515e-15 0.0000000000000000e+00  -7.4145969152258791e-16 -1.7819105908077589e-15 0.0000000000000000e+00  1.2207878262366022e-15 -3.7989898902715274e-15 0.0000000000000000e+00  3.6520858888269059e-15 1.0879288452052796e-14 0.0000000000000000e+00  9.7061526699446623e-16 2.3532738828513237e-15 0.0000000000000000e+00  6.3912248126098900e-16 6.2165011694947241e-15 0.0000000000000000e+00  2.0336824739635479e-15 -2.9102339905419443e-15 0.0000000000000000e+00  1.9063786167623660e-15 -6.2975183172332985e-16 0.0000000000000000e+00  -1.6689317425522969e-15 2.6075171778812529e-15 0.0000000000000000e+00  -2.2513367821114144e-15 9.1212940324039467e-16 0.0000000000000000e+00  -6.9454497540886437e-16 -3.7015478065599325e-17 0.0000000000000000e+00  3.0279588310553884e-15 8.4396322049379826e-16 0.0000000000000000e+00  -5.5102203109798212e-16 -8.3673299892857054e-16 0.0000000000000000e+00  1.7908804668127846e-15 -1.0065847151516069e-15 0.0000000000000000e+00  3.8822538079042392e-15 -2.6006165296164444e-16 0.0000000000000000e+00  7.8792069054360155e-16 1.3345991273173722e-15 0.0000000000000000e+00  5.7179122087035087e-16 4.6521927793192849e-16 0.0000000000000000e+00  1.8065413075828384e-15 3.5609941620053289e-15 0.0000000000000000e+00  1.4298269766057524e-15 -3.7172287063160989e-16 0.0000000000000000e+00  -2.5954481852567682e-15 -7.4975876855886441e-15 0.0000000000000000e+00  -1.6408161566301306e-15 1.2798258837042084e-17 0.0000000000000000e+00  -9.1209497835939879e-17 -1.3909951930484731e-15 0.0000000000000000e+00  3.1523909148821341e-15 5.5084583252948666e-15 0.0000000000000000e+00  -2.5872666221307297e-16 3.4025457367867984e-15 0.0000000000000000e+00  1.2580541358727705e-15 1.1278330689212426e-14 0.0000000000000000e+00  3.9819531718108982e-15 1.1460045130172528e-14 0.0000000000000000e+00  4.1581568450583086e-16 5.7179273335793908e-15 0.0000000000000000e+00  7.1689929433881574e-16 -4.6375784246776511e-15 0.0000000000000000e+00  1.3639447694465975e-15 3.9373838566214091e-15 0.0000000000000000e+00  -3.8706489353004495e-16 -2.6096643736535695e-16 0.0000000000000000e+00  -1.5848123579201597e-15 6.3055592254031781e-15 0.0000000000000000e+00  -1.6161062283761796e-15 5.7083591157672190e-16 0.0000000000000000e+00  -7.2189777825199188e-16 -2.7017194224775425e-15 0.0000000000000000e+00  3.3514082488131849e-15 -3.8313113453042732e-15 0.0000000000000000e+00  2.8226671090106207e-16 -9.1570972179696718e-15 0.0000000000000000e+00  3.7449587562027394e-15 2.2141949203282431e-15 0.0000000000000000e+00  4.0001720164637055e-15 1.5025531032190855e-14 0.0000000000000000e+00  -2.4801558030904664e-15 1.8073261453545334e-14 0.0000000000000000e+00  9.5096667495296925e-16 -1.6441131803826031e-14 0.0000000000000000e+00  2.9363616709935722e-15 1.2681965911106962e-14 0.0000000000000000e+00  7.5352851138502973e-16 1.1422315083738084e-15 0.0000000000000000e+00  -3.3537622902753182e-15 1.4069117269110428e-14 0.0000000000000000e+00  -2.7250665579550293e-15 -5.2826923036979538e-15 0.0000000000000000e+00  -8.0015643456517595e-16 -3.7804511954378524e-15 0.0000000000000000e+00  2.9404111061551399e-15 -1.3992054837537039e-14 0.0000000000000000e+00  1.2845362464947221e-15 1.1324350511193234e-14 0.0000000000000000e+00  4.7956701586564185e-15 3.3015941159747186e-15 0.0000000000000000e+00  6.5111081629171861e-15 1.6991413282399194e-15 0.0000000000000000e+00  -7.4637229313102214e-15 9.7609393872971169e-15 0.0000000000000000e+00  1.0364054589738727e-15 -2.0027626930233415e-14 0.0000000000000000e+00  4.4765709287779376e-15 4.9630844350313621e-15 0.0000000000000000e+00  -5.6940563715261373e-15 -1.7192119750106189e-14 0.0000000000000000e+00  -7.4565160793146233e-15 4.5965947991104283e-15 0.0000000000000000e+00  -5.8222009314602072e-15 -5.7882739412745237e-15 0.0000000000000000e+00  -1.2135402607019485e-15 -3.4579876445599671e-15 0.0000000000000000e+00  5.2452449902721553e-15 2.3433920894280944e-15 0.0000000000000000e+00  3.5111070258026002e-15 -2.4347256909771596e-15 0.0000000000000000e+00  2.4295384516415986e-15 -9.4893747431174013e-15 0.0000000000000000e+00  6.6595600895431680e-15 -4.5037780649256676e-15 0.0000000000000000e+00  -6.4216415446953100e-15 -2.3128576458224836e-15 0.0000000000000000e+00  -1.5443371213052560e-16 9.6859927291441945e-15 0.0000000000000000e+00  2.8505562970432008e-15 -6.9670573928758001e-15 0.0000000000000000e+00  -5.5867433467905935e-15 -2.8145084163478737e-15 0.0000000000000000e+00  -4.8150647723576312e-15 -1.1463945697486207e-14 0.0000000000000000e+00  -5.9669253335157560e-15 6.5716933902703879e-16 0.0000000000000000e+00  1.3687749379319789e-15 2.7731876340604963e-15 0.0000000000000000e+00  2.1340559921727440e-15 8.5249506126406579e-15 0.0000000000000000e+00  -9.4638978244008463e-18 -1.9927408177826830e-14 0.0000000000000000e+00  5.4546869009842784e-15 1.8808324205552486e-15 0.0000000000000000e+00  6.1977077228070754e-15 -5.4080147746074620e-15 0.0000000000000000e+00  -5.5328203267304932e-15 -5.1783580412669528e-15 0.0000000000000000e+00  1.1327593352661535e-16 -1.2117910148229483e-14 0.0000000000000000e+00  2.7283848328774710e-15 6.6700718431771862e-16 0.0000000000000000e+00  -4.5974043677746795e-15 -6.3494575476995523e-15 0.0000000000000000e+00  -3.8583401621933625e-15 -2.3361919654613392e-14 0.0000000000000000e+00  -2.3285112583094188e-15 -3.3897443223473473e-15 0.0000000000000000e+00  7.7974279322235393e-16 1.1360967236440876e-15 0.0000000000000000e+00  1.5694735387773867e-15 -8.6821935404102283e-15 0.0000000000000000e+00  2.1416701358017343e-15 7.0737567147564201e-15 0.0000000000000000e+00  3.0972969139495361e-15 3.6310099025023842e-15 0.0000000000000000e+00  5.2069391396439227e-15 7.0172999984580284e-15 0.0000000000000000e+00  -4.5144951897768363e-15 -6.0562278189422344e-15 0.0000000000000000e+00  7.6271654851627247e-16 1.0415109388869520e-14 0.0000000000000000e+00  1.9894752616345953e-15 5.3713281282639041e-15 0.0000000000000000e+00  -9.0497900666288154e-15 -1.8109361078907367e-14 0.0000000000000000e+00  -3.2944886987831744e-15 -2.9368040056522105e-15 0.0000000000000000e+00  3.1518230086539531e-16 -1.9918559564778109e-15 0.0000000000000000e+00  -1.2851656625905381e-15 -4.7677434482826260e-15 0.0000000000000000e+00  2.9973625178701361e-15 3.9882661430466632e-15 0.0000000000000000e+00  1.4704645911239477e-15 2.8610677261434585e-16 0.0000000000000000e+00  8.0054146878194946e-15 -1.0104408929912387e-14 0.0000000000000000e+00  5.1705647584920309e-15 5.2193247710744079e-14 0.0000000000000000e+00  -7.9987209276695256e-15 9.8252091856242504e-15 0.0000000000000000e+00  2.2555662032864702e-15 -2.5661868215284576e-15 0.0000000000000000e+00  -4.0661549237476746e-16 3.0546934333953526e-14 0.0000000000000000e+00  -1.0252808024700612e-14 9.4665409062977543e-16 0.0000000000000000e+00  -4.0564284897170275e-15 2.6903951656093147e-14 0.0000000000000000e+00  -3.8236364248170353e-15 2.1839282173032782e-14 0.0000000000000000e+00  1.9973354240802705e-15 2.1046359128290737e-14 0.0000000000000000e+00  2.9046688928668926e-15 -6.7719203307838774e-15 0.0000000000000000e+00  1.9177641321696791e-16 3.1644898865427211e-15 0.0000000000000000e+00  1.0768675796227345e-14 -9.4257449200473552e-15 0.0000000000000000e+00  9.3484441715230397e-15 -2.3039931566719207e-14 0.0000000000000000e+00  -1.4720850740849648e-14 1.5504482381535004e-14 0.0000000000000000e+00  5.6282546676563619e-15 -1.3680497378395771e-14 0.0000000000000000e+00  9.8986119014640870e-16 1.5668731979556217e-14 0.0000000000000000e+00  -2.5137913520940695e-14 -2.0195986289674147e-14 0.0000000000000000e+00  -1.3949276569565464e-15 7.4234994726244544e-15 0.0000000000000000e+00  -8.0946590629962691e-16 1.2392728988394481e-14 0.0000000000000000e+00  -4.1829856884920827e-15 3.4658462668886938e-14 0.0000000000000000e+00  -2.4815778776826244e-15 -1.5873359094275411e-14 0.0000000000000000e+00  2.9787407223115954e-15 -1.1804314375813628e-16 0.0000000000000000e+00  2.3403224034652767e-15 1.4779137004014048e-14 0.0000000000000000e+00  1.1765553908099104e-14 -2.6024001723669763e-14 0.0000000000000000e+00  -7.5292923548398716e-15 3.0674818746421095e-15 0.0000000000000000e+00  1.8187199260239211e-15 2.1580151775386595e-14 0.0000000000000000e+00  -6.7935797635878621e-16 5.7916150752449785e-15 0.0000000000000000e+00  -2.4173450192409126e-14 -2.0734939021728619e-14 0.0000000000000000e+00  -5.0628795183996529e-15 -7.8570939102221355e-15 0.0000000000000000e+00  2.8095654043393665e-15 1.7160292329027763e-14 0.0000000000000000e+00  -6.2246138337211714e-15 -3.4847134121474083e-15 0.0000000000000000e+00  -3.9118013941115824e-15 -3.1082612202922508e-15 0.0000000000000000e+00  6.2617801725995173e-15 -5.1904089429495068e-15 0.0000000000000000e+00  4.8840190056878751e-15 7.8852338450189917e-15 0.0000000000000000e+00  6.6347975666032408e-15 1.4101720265152340e-14 0.0000000000000000e+00  -3.5709462629029837e-15 -1.0367125242197865e-14 0.0000000000000000e+00  5.3049354532635757e-15 2.1760707097651977e-14 0.0000000000000000e+00  -6.2084449795015490e-15 1.5376833209756615e-14 0.0000000000000000e+00  -3.6711419436004955e-14 -1.6964959262272359e-14 0.0000000000000000e+00  4.7307669380171720e-15 9.8038874216959442e-15 0.0000000000000000e+00  2.2659607333086579e-15 3.2292054735592306e-14 0.0000000000000000e+00  -1.1029666546316228e-14 -4.2894773811284137e-14 0.0000000000000000e+00  -1.4968292207789282e-15 -4.1150240922799086e-15 0.0000000000000000e+00  4.7078461800722503e-15 -1.7866225590288300e-14 0.0000000000000000e+00  5.2651459556329196e-15 3.2234648160595629e-14 0.0000000000000000e+00  7.9132584806411907e-15 -5.2776317334873471e-14 0.0000000000000000e+00  -4.8431600113243282e-15 -4.2821797431276056e-14 0.0000000000000000e+00  5.9143714671192981e-15 1.7934802554529233e-14 0.0000000000000000e+00  -9.0205615742052444e-15 -2.5269908435719107e-14 0.0000000000000000e+00  -3.5211856171486631e-14 -1.7011867991291250e-14 0.0000000000000000e+00  4.3204039887571566e-15 1.7624391169851872e-14 0.0000000000000000e+00  -1.0047717405787714e-14 -8.0763109088308785e-15 0.0000000000000000e+00  -1.0665939780651693e-14 -6.1467182654304552e-14 0.0000000000000000e+00  3.8624566372069045e-15 -1.6911440196025186e-15 0.0000000000000000e+00  1.2231294239877391e-14 3.8202426665057038e-15 0.0000000000000000e+00  -1.3858516673212192e-15 1.7084145028101289e-14 0.0000000000000000e+00  -5.9825587486546389e-15 -3.4097558144041905e-14 0.0000000000000000e+00  8.5192410013684060e-15 1.0413611182154778e-14 0.0000000000000000e+00  9.2484141595972612e-15 1.6023527997432015e-14 0.0000000000000000e+00  -1.3277775994869702e-14 1.3591703174399647e-14 0.0000000000000000e+00  -3.0577979636175538e-14 1.5855072114079957e-14 0.0000000000000000e+00  1.8842028797439350e-15 7.6803861608945825e-15 0.0000000000000000e+00  -1.0766758187717979e-14 3.2011247268305715e-14 0.0000000000000000e+00  -1.2582335303777267e-14 -2.8541022651854474e-14 0.0000000000000000e+00  6.5450641662319553e-15 -3.4719945939185412e-14 0.0000000000000000e+00  1.0516120639377795e-14 2.9005590989904290e-14 0.0000000000000000e+00  -1.1007722682856583e-15 3.4892485932459097e-15 0.0000000000000000e+00  2.7648803684994268e-15 -7.2968869893850718e-15 0.0000000000000000e+00  5.6799661784706225e-15 -2.0505798194807863e-15 0.0000000000000000e+00  7.7525672039445950e-15 -2.6573588367217504e-14 0.0000000000000000e+00  -9.0755625914239695e-15 3.5728694436241347e-14 0.0000000000000000e+00  -3.7166907364404200e-14 2.0217335718603509e-14 0.0000000000000000e+00  6.2047513444954401e-15 7.7685595886519237e-15 0.0000000000000000e+00  -1.9961699162457669e-14 3.4373752470295890e-14 0.0000000000000000e+00  -1.7829173745904367e-14 -6.7471278214893194e-14 0.0000000000000000e+00  1.7202059372993682e-14 2.6820919805041580e-14 0.0000000000000000e+00  1.6998427266027130e-14 4.0488649315486318e-14 0.0000000000000000e+00  -8.4172934501906773e-15 -1.7738785296639364e-14 0.0000000000000000e+00  -4.7335023381053711e-15 -1.1044418828630533e-14 0.0000000000000000e+00  5.6702653166692934e-15 -3.8950099958560299e-14 0.0000000000000000e+00  1.4149486798088058e-14 -1.0596338863169279e-14 0.0000000000000000e+00  -3.7382793483520402e-15 -2.0988046152671846e-16 0.0000000000000000e+00  -3.6763771990218013e-14 2.1817527789017452e-14 0.0000000000000000e+00  1.8474918696320822e-14 1.6224669721446295e-14 0.0000000000000000e+00  -2.6942328960457637e-14 8.1337493472815074e-15 0.0000000000000000e+00  -1.6551383511300252e-14 1.6637270451867180e-14 0.0000000000000000e+00  2.2470242996475043e-14 1.5406428541293969e-14 0.0000000000000000e+00  7.2101058758511453e-15 -2.4405196020183335e-14 0.0000000000000000e+00  -1.0866816528120992e-14 -1.7632361308711982e-14 0.0000000000000000e+00  -4.3035420156265442e-15 -4.3341943854414254e-14 0.0000000000000000e+00  8.8186743472820296e-15 -2.9528878441909461e-14 0.0000000000000000e+00  1.5487825757911938e-14 -3.3503393344713113e-16 0.0000000000000000e+00  -2.5655556915691992e-15 -3.5626013583479562e-15 0.0000000000000000e+00  -2.5366669543172136e-14 2.9457926133044291e-14 0.0000000000000000e+00  4.7355501575957990e-15 2.1373866617763604e-14 0.0000000000000000e+00  -2.1986592563922823e-14 -2.6221976832262421e-14 0.0000000000000000e+00  -1.1082767028640877e-14 3.8692884610891249e-14 0.0000000000000000e+00  1.4720560671625559e-14 3.5977972732575466e-14 0.0000000000000000e+00  2.9192813604452447e-15 4.6750312720427785e-15 0.0000000000000000e+00  -1.2857524783418895e-14 -3.4964552522806348e-14 0.0000000000000000e+00  -1.1904434158111532e-14 -2.2395815389850743e-14 0.0000000000000000e+00  1.4125091574153312e-14 -5.8616831259932675e-14 0.0000000000000000e+00  2.1839376404007003e-14 -6.3901809077961262e-14 0.0000000000000000e+00  2.5321126659225826e-15 2.6983195279034906e-14 0.0000000000000000e+00  -2.3848186132199480e-14 -1.5913503071655725e-14 0.0000000000000000e+00  5.7314997296138307e-15 4.8362366347086068e-14 0.0000000000000000e+00  -2.4787336450227810e-14 -1.9291331191529763e-14 0.0000000000000000e+00  -1.0354734096235744e-14 6.2067716556549456e-15 0.0000000000000000e+00  1.4761934736941372e-14 -8.8974207137576403e-15 0.0000000000000000e+00  -5.7943954460335171e-15 -2.3923955908677913e-14 0.0000000000000000e+00  -8.5755972402982908e-15 -7.6370586637475698e-14 0.0000000000000000e+00  -3.3086901307484914e-15 6.4968007844530074e-14 0.0000000000000000e+00  6.4650579396860755e-16 3.5111995831729912e-14 0.0000000000000000e+00  2.7384164194455097e-14 -3.5048318097239318e-14 0.0000000000000000e+00  2.8335362288794016e-15 2.4028259139613029e-15 0.0000000000000000e+00  -4.3472899060637578e-14 -4.3689672963738844e-14 0.0000000000000000e+00  -1.7130937811595546e-14 2.2368352172242096e-14 0.0000000000000000e+00  -2.6874714385884776e-14 -4.3501463225279508e-14 0.0000000000000000e+00  -5.3280383114692187e-15 5.2950290733421683e-15 0.0000000000000000e+00  9.7451292971452820e-15 3.8486750334375942e-14 0.0000000000000000e+00  -1.0340140957745098e-14 -4.9281081170725479e-14 0.0000000000000000e+00  -2.3015077358572076e-15 -5.2650644112047141e-15 0.0000000000000000e+00  7.0891549663949478e-15 3.6106500810742559e-14 0.0000000000000000e+00  -5.3360664625212900e-15 2.8907000296585905e-14 0.0000000000000000e+00  2.1052127065522876e-14 6.1358599812656945e-15 0.0000000000000000e+00  1.3371885667080971e-15 3.0984766482214255e-14 0.0000000000000000e+00  -4.3276707574014271e-14 -7.1224890826366358e-14 0.0000000000000000e+00  -2.7742937779862017e-14 2.6259539741789721e-14 0.0000000000000000e+00  -2.7528255755458236e-14 -6.2179602707899414e-15 0.0000000000000000e+00  4.1693079980246365e-15 -8.1726855131283280e-15 0.0000000000000000e+00  6.0062845142428555e-15 6.3694943510643110e-14 0.0000000000000000e+00  -1.5114939838926337e-14 -2.8107598609650498e-14 0.0000000000000000e+00  6.6381763131273420e-15 2.1735998370487567e-14 0.0000000000000000e+00  7.7953820127082324e-16 -1.5698318100360249e-15 0.0000000000000000e+00  -3.1909028178846168e-15 5.8836229068629531e-14 0.0000000000000000e+00  2.6195000480644063e-14 -4.3637508580642420e-16 0.0000000000000000e+00  -9.9943471397884150e-15 3.8007869705769838e-14 0.0000000000000000e+00  -6.9689895659258825e-14 -2.8958782726901374e-14 0.0000000000000000e+00  -2.5742652154892907e-14 -3.4769054862224578e-14 0.0000000000000000e+00  -3.0035187582841536e-14 3.1885160253640879e-14 0.0000000000000000e+00  4.1377139853390098e-16 -4.3419175306550429e-14 0.0000000000000000e+00  4.5214292396766585e-15 -5.5732569268566658e-14 0.0000000000000000e+00  -1.7325147552644699e-14 -1.2005145652741054e-14 0.0000000000000000e+00  1.3701647688871073e-14 -5.8016437662814166e-14 0.0000000000000000e+00  2.0930165879908673e-14 8.9706174658753481e-14 0.0000000000000000e+00  -7.9381617801829290e-15 1.0503185001472835e-13 0.0000000000000000e+00  1.2372205901981955e-14 3.7268221596788415e-14 0.0000000000000000e+00  -6.5852760128702100e-15 -1.1033099251166691e-14 0.0000000000000000e+00  -7.1943426888754560e-14 4.2888645485280968e-15 0.0000000000000000e+00  -1.3112253799351192e-14 2.2184529550358424e-14 0.0000000000000000e+00  -3.3251228267313574e-14 1.7957257352394467e-14 0.0000000000000000e+00  -6.2864243752441967e-15 8.9135625907795436e-15 0.0000000000000000e+00  1.3347291995758293e-14 5.4015899144753489e-14 0.0000000000000000e+00  -1.8176529732220403e-14 -4.0456462479139603e-15 0.0000000000000000e+00  1.6452496680130364e-14 1.4563939363812326e-14 0.0000000000000000e+00  2.6251623796763089e-14 2.8664867784389315e-14 0.0000000000000000e+00  -1.5960706748934343e-14 -3.9798384878885666e-14 0.0000000000000000e+00  1.4210033777472552e-14 5.2872814429915435e-15 0.0000000000000000e+00  -1.7842112917857316e-14 -3.2842492537648883e-14 0.0000000000000000e+00  -7.0765270145979219e-14 -7.6986635276112779e-14 0.0000000000000000e+00  -1.8053364038280841e-14 -3.3327893409573145e-14 0.0000000000000000e+00  -3.2809914046901313e-14 2.1491542979523164e-14 0.0000000000000000e+00  8.0996783845133503e-15 -4.3695297431309517e-14 0.0000000000000000e+00  -5.8709095127470541e-16 -1.4960885014984838e-15 0.0000000000000000e+00  -2.1185484265604830e-14 -3.2697782901350347e-14 0.0000000000000000e+00  2.6060996728108605e-14 9.6556040418725335e-16 0.0000000000000000e+00  1.8865966913084062e-14 2.0393803121804853e-14 0.0000000000000000e+00  -1.6539515737287044e-14 2.0518877503307748e-14 0.0000000000000000e+00  1.3326663640239553e-14 4.2599428125792957e-15 0.0000000000000000e+00  -2.1185814914412434e-14 3.1792653507473409e-15 0.0000000000000000e+00  -7.6678427912307243e-14 3.8112235195888624e-14 0.0000000000000000e+00  4.3720073416250345e-16 -1.8702715579310986e-14 0.0000000000000000e+00  -3.6387547756480705e-14 3.2592914036310127e-14 0.0000000000000000e+00  -8.4127065438079933e-15 2.0741153386861515e-14 0.0000000000000000e+00  1.2121351897190722e-14 -3.9855794718192745e-14 0.0000000000000000e+00  -2.0303845648028510e-14 7.0562823471769727e-14 0.0000000000000000e+00  2.8196729034998620e-14 2.4051562387914520e-14 0.0000000000000000e+00  2.3259408145445408e-14 7.4486401015299034e-14 0.0000000000000000e+00  -1.9570163636002127e-14 -5.4834336732454205e-15 0.0000000000000000e+00  9.1795617752414270e-15 6.6637600329389297e-15 0.0000000000000000e+00  -1.5071453088861662e-14 -3.2032560913833964e-15 0.0000000000000000e+00  -7.4161146237052581e-14 3.5652816239662198e-15 0.0000000000000000e+00  -5.6710037871900641e-17 -5.9228496279528264e-14 0.0000000000000000e+00  -2.8326896188928954e-14 -4.2546192728083827e-14 0.0000000000000000e+00  -4.6923278271738796e-15 -1.6790008277053247e-14 0.0000000000000000e+00  1.0974866107458654e-14 -4.5998771964372851e-14 0.0000000000000000e+00  -6.1418092152334173e-15 6.0571494589776050e-14 0.0000000000000000e+00  2.6340429747645