<?xml version="1.0"?>
<VTKFile type="UnstructuredGrid"  version="0.1"  >
<UnstructuredGrid>
<Piece  NumberOfPoints="431" NumberOfCells="800">
<Points>
<DataArray  type="Float64"  NumberOfComponents="3"  format="ascii">-0.25 -1 0  -0.2 -1 0  -0.15 -1 0  -0.1 -1 0  -0.04999999999999999 -1 0  0 -1 0  0.04999999999999999 -1 0  0.09999999999999998 -1 0  0.15 -1 0  0.2 -1 0  0.25 -1 0  -0.25 -0.95 0  -0.2 -0.95 0  -0.15 -0.95 0  -0.1 -0.95 0  -0.04999999999999999 -0.95 0  0 -0.95 0  0.04999999999999999 -0.95 0  0.09999999999999998 -0.95 0  0.15 -0.95 0  0.2 -0.95 0  0.25 -0.95 0  -0.25 -0.9 0  -0.2 -0.9 0  -0.15 -0.9 0  -0.1 -0.9 0  -0.04999999999999999 -0.9 0  0 -0.9 0  0.04999999999999999 -0.9 0  0.09999999999999998 -0.9 0  0.15 -0.9 0  0.2 -0.9 0  0.25 -0.9 0  -0.25 -0.85 0  -0.2 -0.85 0  -0.15 -0.85 0  -0.1 -0.85 0  -0.04999999999999999 -0.85 0  0 -0.85 0  0.04999999999999999 -0.85 0  0.09999999999999998 -0.85 0  0.15 -0.85 0  0.2 -0.85 0  0.25 -0.85 0  -0.25 -0.8 0  -0.2 -0.8 0  -0.15 -0.8 0  -0.1 -0.8 0  -0.04999999999999999 -0.8 0  0 -0.8 0  0.04999999999999999 -0.8 0  0.09999999999999998 -0.8 0  0.15 -0.8 0  0.2 -0.8 0  0.25 -0.8 0  -0.25 -0.75 0  -0.2 -0.75 0  -0.15 -0.75 0  -0.1 -0.75 0  -0.04999999999999999 -0.75 0  0 -0.75 0  0.04999999999999999 -0.75 0  0.09999999999999998 -0.75 0  0.15 -0.75 0  0.2 -0.75 0  0.25 -0.75 0  -0.25 -0.7 0  -0.2 -0.7 0  -0.15 -0.7 0  -0.1 -0.7 0  -0.04999999999999999 -0.7 0  0 -0.7 0  0.04999999999999999 -0.7 0  0.09999999999999998 -0.7 0  0.15 -0.7 0  0.2 -0.7 0  0.25 -0.7 0  -0.25 -0.65 0  -0.2 -0.65 0  -0.15 -0.65 0  -0.1 -0.65 0  -0.04999999999999999 -0.65 0  0 -0.65 0  0.04999999999999999 -0.65 0  0.09999999999999998 -0.65 0  0.15 -0.65 0  0.2 -0.65 0  0.25 -0.65 0  -0.25 -0.6 0  -0.2 -0.6 0  -0.15 -0.6 0  -0.1 -0.6 0  -0.04999999999999999 -0.6 0  0 -0.6 0  0.04999999999999999 -0.6 0  0.09999999999999998 -0.6 0  0.15 -0.6 0  0.2 -0.6 0  0.25 -0.6 0  -0.25 -0.55 0  -0.2 -0.55 0  -0.15 -0.55 0  -0.1 -0.55 0  -0.04999999999999999 -0.55 0  0 -0.55 0  0.04999999999999999 -0.55 0  0.09999999999999998 -0.55 0  0.15 -0.55 0  0.2 -0.55 0  0.25 -0.55 0  -0.25 -0.5 0  -0.2 -0.5 0  -0.15 -0.5 0  -0.1 -0.5 0  -0.04999999999999999 -0.5 0  0 -0.5 0  0.04999999999999999 -0.5 0  0.09999999999999998 -0.5 0  0.15 -0.5 0  0.2 -0.5 0  0.25 -0.5 0  -0.25 -0.45 0  -0.2 -0.45 0  -0.15 -0.45 0  -0.1 -0.45 0  -0.04999999999999999 -0.45 0  0 -0.45 0  0.04999999999999999 -0.45 0  0.09999999999999998 -0.45 0  0.15 -0.45 0  0.2 -0.45 0  0.25 -0.45 0  -0.25 -0.4 0  -0.2 -0.4 0  -0.15 -0.4 0  -0.1 -0.4 0  -0.04999999999999999 -0.4 0  0 -0.4 0  0.04999999999999999 -0.4 0  0.09999999999999998 -0.4 0  0.15 -0.4 0  0.2 -0.4 0  0.25 -0.4 0  -0.25 -0.35 0  -0.2 -0.35 0  -0.15 -0.35 0  -0.1 -0.35 0  -0.04999999999999999 -0.35 0  0 -0.35 0  0.04999999999999999 -0.35 0  0.09999999999999998 -0.35 0  0.15 -0.35 0  0.2 -0.35 0  0.25 -0.35 0  -0.25 -0.3 0  -0.2 -0.3 0  -0.15 -0.3 0  -0.1 -0.3 0  -0.04999999999999999 -0.3 0  0 -0.3 0  0.04999999999999999 -0.3 0  0.09999999999999998 -0.3 0  0.15 -0.3 0  0.2 -0.3 0  0.25 -0.3 0  -0.25 -0.25 0  -0.2 -0.25 0  -0.15 -0.25 0  -0.1 -0.25 0  -0.04999999999999999 -0.25 0  0 -0.25 0  0.04999999999999999 -0.25 0  0.09999999999999998 -0.25 0  0.15 -0.25 0  0.2 -0.25 0  0.25 -0.25 0  -0.25 -0.2 0  -0.2 -0.2 0  -0.15 -0.2 0  -0.1 -0.2 0  -0.04999999999999999 -0.2 0  0 -0.2 0  0.04999999999999999 -0.2 0  0.09999999999999998 -0.2 0  0.15 -0.2 0  0.2 -0.2 0  0.25 -0.2 0  -0.25 -0.15 0  -0.2 -0.15 0  -0.15 -0.15 0  -0.1 -0.15 0  -0.04999999999999999 -0.15 0  0 -0.15 0  0.04999999999999999 -0.15 0  0.09999999999999998 -0.15 0  0.15 -0.15 0  0.2 -0.15 0  0.25 -0.15 0  -0.25 -0.09999999999999998 0  -0.2 -0.09999999999999998 0  -0.15 -0.09999999999999998 0  -0.1 -0.09999999999999998 0  -0.04999999999999999 -0.09999999999999998 0  0 -0.09999999999999998 0  0.04999999999999999 -0.09999999999999998 0  0.09999999999999998 -0.09999999999999998 0  0.15 -0.09999999999999998 0  0.2 -0.09999999999999998 0  0.25 -0.09999999999999998 0  -0.25 -0.05000000000000004 0  -0.2 -0.05000000000000004 0  -0.15 -0.05000000000000004 0  -0.1 -0.05000000000000004 0  -0.04999999999999999 -0.05000000000000004 0  0 -0.05000000000000004 0  0.04999999999999999 -0.05000000000000004 0  0.09999999999999998 -0.05000000000000004 0  0.15 -0.05000000000000004 0  0.2 -0.05000000000000004 0  0.25 -0.05000000000000004 0  -0.25 0 0  -0.2 0 0  -0.15 0 0  -0.1 0 0  -0.04999999999999999 0 0  0 0 0  0.04999999999999999 0 0  0.09999999999999998 0 0  0.15 0 0  0.2 0 0  0.25 0 0  -0.225 -0.975 0  -0.175 -0.975 0  -0.125 -0.975 0  -0.07500000000000001 -0.975 0  -0.02499999999999999 -0.975 0  0.02500000000000002 -0.975 0  0.07500000000000001 -0.975 0  0.125 -0.975 0  0.175 -0.975 0  0.225 -0.975 0  -0.225 -0.925 0  -0.175 -0.925 0  -0.125 -0.925 0  -0.07500000000000001 -0.925 0  -0.02499999999999999 -0.925 0  0.02500000000000002 -0.925 0  0.07500000000000001 -0.925 0  0.125 -0.925 0  0.175 -0.925 0  0.225 -0.925 0  -0.225 -0.875 0  -0.175 -0.875 0  -0.125 -0.875 0  -0.07500000000000001 -0.875 0  -0.02499999999999999 -0.875 0  0.02500000000000002 -0.875 0  0.07500000000000001 -0.875 0  0.125 -0.875 0  0.175 -0.875 0  0.225 -0.875 0  -0.225 -0.825 0  -0.175 -0.825 0  -0.125 -0.825 0  -0.07500000000000001 -0.825 0  -0.02499999999999999 -0.825 0  0.02500000000000002 -0.825 0  0.07500000000000001 -0.825 0  0.125 -0.825 0  0.175 -0.825 0  0.225 -0.825 0  -0.225 -0.775 0  -0.175 -0.775 0  -0.125 -0.775 0  -0.07500000000000001 -0.775 0  -0.02499999999999999 -0.775 0  0.02500000000000002 -0.775 0  0.07500000000000001 -0.775 0  0.125 -0.775 0  0.175 -0.775 0  0.225 -0.775 0  -0.225 -0.725 0  -0.175 -0.725 0  -0.125 -0.725 0  -0.07500000000000001 -0.725 0  -0.02499999999999999 -0.725 0  0.02500000000000002 -0.725 0  0.07500000000000001 -0.725 0  0.125 -0.725 0  0.175 -0.725 0  0.225 -0.725 0  -0.225 -0.675 0  -0.175 -0.675 0  -0.125 -0.675 0  -0.07500000000000001 -0.675 0  -0.02499999999999999 -0.675 0  0.02500000000000002 -0.675 0  0.07500000000000001 -0.675 0  0.125 -0.675 0  0.175 -0.675 0  0.225 -0.675 0  -0.225 -0.625 0  -0.175 -0.625 0  -0.125 -0.625 0  -0.07500000000000001 -0.625 0  -0.02499999999999999 -0.625 0  0.02500000000000002 -0.625 0  0.07500000000000001 -0.625 0  0.125 -0.625 0  0.175 -0.625 0  0.225 -0.625 0  -0.225 -0.575 0  -0.175 -0.575 0  -0.125 -0.575 0  -0.07500000000000001 -0.575 0  -0.02499999999999999 -0.575 0  0.02500000000000002 -0.575 0  0.07500000000000001 -0.575 0  0.125 -0.575 0  0.175 -0.575 0  0.225 -0.575 0  -0.225 -0.525 0  -0.175 -0.525 0  -0.125 -0.525 0  -0.07500000000000001 -0.525 0  -0.02499999999999999 -0.525 0  0.02500000000000002 -0.525 0  0.07500000000000001 -0.525 0  0.125 -0.525 0  0.175 -0.525 0  0.225 -0.525 0  -0.225 -0.475 0  -0.175 -0.475 0  -0.125 -0.475 0  -0.07500000000000001 -0.475 0  -0.02499999999999999 -0.475 0  0.02500000000000002 -0.475 0  0.07500000000000001 -0.475 0  0.125 -0.475 0  0.175 -0.475 0  0.225 -0.475 0  -0.225 -0.425 0  -0.175 -0.425 0  -0.125 -0.425 0  -0.07500000000000001 -0.425 0  -0.02499999999999999 -0.425 0  0.02500000000000002 -0.425 0  0.07500000000000001 -0.425 0  0.125 -0.425 0  0.175 -0.425 0  0.225 -0.425 0  -0.225 -0.375 0  -0.175 -0.375 0  -0.125 -0.375 0  -0.07500000000000001 -0.375 0  -0.02499999999999999 -0.375 0  0.02500000000000002 -0.375 0  0.07500000000000001 -0.375 0  0.125 -0.375 0  0.175 -0.375 0  0.225 -0.375 0  -0.225 -0.325 0  -0.175 -0.325 0  -0.125 -0.325 0  -0.07500000000000001 -0.325 0  -0.02499999999999999 -0.325 0  0.02500000000000002 -0.325 0  0.07500000000000001 -0.325 0  0.125 -0.325 0  0.175 -0.325 0  0.225 -0.325 0  -0.225 -0.275 0  -0.175 -0.275 0  -0.125 -0.275 0  -0.07500000000000001 -0.275 0  -0.02499999999999999 -0.275 0  0.02500000000000002 -0.275 0  0.07500000000000001 -0.275 0  0.125 -0.275 0  0.175 -0.275 0  0.225 -0.275 0  -0.225 -0.225 0  -0.175 -0.225 0  -0.125 -0.225 0  -0.07500000000000001 -0.225 0  -0.02499999999999999 -0.225 0  0.02500000000000002 -0.225 0  0.07500000000000001 -0.225 0  0.125 -0.225 0  0.175 -0.225 0  0.225 -0.225 0  -0.225 -0.175 0  -0.175 -0.175 0  -0.125 -0.175 0  -0.07500000000000001 -0.175 0  -0.02499999999999999 -0.175 0  0.02500000000000002 -0.175 0  0.07500000000000001 -0.175 0  0.125 -0.175 0  0.175 -0.175 0  0.225 -0.175 0  -0.225 -0.125 0  -0.175 -0.125 0  -0.125 -0.125 0  -0.07500000000000001 -0.125 0  -0.02499999999999999 -0.125 0  0.02500000000000002 -0.125 0  0.07500000000000001 -0.125 0  0.125 -0.125 0  0.175 -0.125 0  0.225 -0.125 0  -0.225 -0.07499999999999996 0  -0.175 -0.07499999999999996 0  -0.125 -0.07499999999999996 0  -0.07500000000000001 -0.07499999999999996 0  -0.02499999999999999 -0.07499999999999996 0  0.02500000000000002 -0.07499999999999996 0  0.07500000000000001 -0.07499999999999996 0  0.125 -0.07499999999999996 0  0.175 -0.07499999999999996 0  0.225 -0.07499999999999996 0  -0.225 -0.02500000000000002 0  -0.175 -0.02500000000000002 0  -0.125 -0.02500000000000002 0  -0.07500000000000001 -0.02500000000000002 0  -0.02499999999999999 -0.02500000000000002 0  0.02500000000000002 -0.02500000000000002 0  0.07500000000000001 -0.02500000000000002 0  0.125 -0.02500000000000002 0  0.175 -0.02500000000000002 0  0.225 -0.02500000000000002 0  </DataArray>
</Points>
<Cells>
[...]
<PointData  Vectors="flow"> 
<DataArray  type="Float64"  Name="flow"  NumberOfComponents="3" format="ascii">-6.5019943037735761e-01 1.3004767520648766e+00 0.0000000000000000e+00  1.2531943906906126e-04 1.3004767520654685e+00 0.0000000000000000e+00  -2.4154071358387517e-08 1.3004767520656444e+00 0.0000000000000000e+00  4.7839790746167858e-12 1.3004767520663583e+00 0.0000000000000000e+00  1.0673717347313747e-12 1.3004767520647256e+00 0.0000000000000000e+00  1.5321336525454217e-13 1.3004767520666494e+00 0.0000000000000000e+00  -1.8332676538454054e-13 1.3004767520665703e+00 0.0000000000000000e+00  -4.0601407000508285e-12 1.3004767520666700e+00 0.0000000000000000e+00  2.4153805772288775e-08 1.3004767520662048e+00 0.0000000000000000e+00  -1.2531943906349011e-04 1.3004767520663152e+00 0.0000000000000000e+00  6.5019943037548522e-01 1.3004767520666558e+00 0.0000000000000000e+00  -6.4819509203384529e-01 3.8968422669352432e+00 0.0000000000000000e+00  1.2493313679175021e-04 3.8968422669351384e+00 0.0000000000000000e+00  -2.4079291911030614e-08 3.8968422669344140e+00 0.0000000000000000e+00  5.0396445465055459e-12 3.8968422669353227e+00 0.0000000000000000e+00  3.2958000861638041e-13 3.8968422669351090e+00 0.0000000000000000e+00  8.0733027045556616e-13 3.8968422669350296e+00 0.0000000000000000e+00  5.4735055376571237e-13 3.8968422669350611e+00 0.0000000000000000e+00  -4.6787268779250347e-12 3.8968422669353551e+00 0.0000000000000000e+00  2.4078965197983167e-08 3.8968422669348866e+00 0.0000000000000000e+00  -1.2493313702959406e-04 3.8968422669352698e+00 0.0000000000000000e+00  6.4819509203276748e-01 3.8968422669352654e+00 0.0000000000000000e+00  -6.4219443389202113e-01 7.7696593184175891e+00 0.0000000000000000e+00  1.2377661333038344e-04 7.7696593184179346e+00 0.0000000000000000e+00  -2.3856169931310535e-08 7.7696593184190235e+00 0.0000000000000000e+00  5.0343262899964354e-12 7.7696593184183973e+00 0.0000000000000000e+00  3.1903150859330045e-13 7.7696593184185234e+00 0.0000000000000000e+00  1.5713682560737792e-13 7.7696593184178395e+00 0.0000000000000000e+00  8.0449144235327147e-13 7.7696593184181504e+00 0.0000000000000000e+00  -4.3785430038109053e-12 7.7696593184178182e+00 0.0000000000000000e+00  2.3855960878144682e-08 7.7696593184186291e+00 0.0000000000000000e+00  -1.2377661326577516e-04 7.7696593184177942e+00 0.0000000000000000e+00  6.4219443389032027e-01 7.7696593184179061e+00 0.0000000000000000e+00  -6.3223445045816962e-01 1.1594574056198985e+01 0.0000000000000000e+00  1.2185699439416976e-04 1.1594574056198619e+01 0.0000000000000000e+00  -2.3486054905441729e-08 1.1594574056197978e+01 0.0000000000000000e+00  4.5847095397605225e-12 1.1594574056198026e+01 0.0000000000000000e+00  3.4481216402597658e-13 1.1594574056197494e+01 0.0000000000000000e+00  5.4516184998885273e-14 1.1594574056198026e+01 0.0000000000000000e+00  3.7939318851462455e-13 1.1594574056197549e+01 0.0000000000000000e+00  -3.9820074041718685e-12 1.1594574056197681e+01 0.0000000000000000e+00  2.3486181588304630e-08 1.1594574056197423e+01 0.0000000000000000e+00  -1.2185699503665502e-04 1.1594574056197732e+01 0.0000000000000000e+00  6.3223445045756854e-01 1.1594574056197565e+01 0.0000000000000000e+00  -6.1837654585590474e-01 1.5348004703577121e+01 0.0000000000000000e+00  1.1918611248884881e-04 1.5348004703577844e+01 0.0000000000000000e+00  -2.2971588353490050e-08 1.5348004703578061e+01 0.0000000000000000e+00  3.9311467391067503e-12 1.5348004703577963e+01 0.0000000000000000e+00  -3.1235354119607784e-13 1.5348004703577221e+01 0.0000000000000000e+00  3.9811104841273119e-13 1.5348004703577304e+01 0.0000000000000000e+00  6.4496758317317811e-13 1.5348004703577718e+01 0.0000000000000000e+00  -4.0663720445370793e-12 1.5348004703576763e+01 0.0000000000000000e+00  2.2971134809274919e-08 1.5348004703577267e+01 0.0000000000000000e+00  -1.1918611207462128e-04 1.5348004703576986e+01 0.0000000000000000e+00  6.1837654585611057e-01 1.5348004703577612e+01 0.0000000000000000e+00  -6.0070615539666339e-01 1.9006810189682898e+01 0.0000000000000000e+00  1.1578042766557410e-04 1.9006810189681872e+01 0.0000000000000000e+00  -2.2315760651366866e-08 1.9006810189682511e+01 0.0000000000000000e+00  4.1149571134932032e-12 1.9006810189682206e+01 0.0000000000000000e+00  -1.6372329615980408e-13 1.9006810189683041e+01 0.0000000000000000e+00  5.5352323050478680e-13 1.9006810189682483e+01 0.0000000000000000e+00  -3.3369588405118987e-13 1.9006810189682319e+01 0.0000000000000000e+00  -4.6371716100364686e-12 1.9006810189681687e+01 0.0000000000000000e+00  2.2316079445758260e-08 1.9006810189681900e+01 0.0000000000000000e+00  -1.1578042782385793e-04 1.9006810189681868e+01 0.0000000000000000e+00  6.0070615539652172e-01 1.9006810189682163e+01 0.0000000000000000e+00  -5.7933221901131848e-01 2.2548432817591546e+01 0.0000000000000000e+00  1.1166093040340571e-04 2.2548432817591813e+01 0.0000000000000000e+00  -2.1521463224535160e-08 2.2548432817591063e+01 0.0000000000000000e+00  4.0251752323372614e-12 2.2548432817591578e+01 0.0000000000000000e+00  1.8390968212662842e-13 2.2548432817592232e+01 0.0000000000000000e+00  -1.0052150044233408e-13 2.2548432817592321e+01 0.0000000000000000e+00  2.7729388240031005e-13 2.2548432817592200e+01 0.0000000000000000e+00  -4.7383839718367916e-12 2.2548432817592911e+01 0.0000000000000000e+00  2.1521780079770554e-08 2.2548432817591699e+01 0.0000000000000000e+00  -1.1166093021629028e-04 2.2548432817592449e+01 0.0000000000000000e+00  5.7933221901101584e-01 2.2548432817591607e+01 0.0000000000000000e+00  -5.5438650982095261e-01 2.5951037336970476e+01 0.0000000000000000e+00  1.0685301126560245e-04 2.5951037336971559e+01 0.0000000000000000e+00  -2.0595136580128072e-08 2.5951037336971449e+01 0.0000000000000000e+00  4.1838588782882716e-12 2.5951037336971268e+01 0.0000000000000000e+00  4.3423281286798927e-13 2.5951037336971222e+01 0.0000000000000000e+00  5.6464300322556982e-13 2.5951037336971002e+01 0.0000000000000000e+00  1.0728294875898777e-14 2.5951037336972078e+01 0.0000000000000000e+00  -4.3328006880052962e-12 2.5951037336971766e+01 0.0000000000000000e+00  2.0595044095161290e-08 2.5951037336972220e+01 0.0000000000000000e+00  -1.0685301154696060e-04 2.5951037336971353e+01 0.0000000000000000e+00  5.5438650982073234e-01 2.5951037336971456e+01 0.0000000000000000e+00  -5.2602282195652894e-01 2.9193645563943615e+01 0.0000000000000000e+00  1.0138630744688240e-04 2.9193645563942532e+01 0.0000000000000000e+00  -1.9542710065959205e-08 2.9193645563943413e+01 0.0000000000000000e+00  4.3939427798858474e-12 2.9193645563943491e+01 0.0000000000000000e+00  -1.0062538199306393e-13 2.9193645563943424e+01 0.0000000000000000e+00  7.1631498536778986e-13 2.9193645563943367e+01 0.0000000000000000e+00  5.9498552149635940e-13 2.9193645563942958e+01 0.0000000000000000e+00  -4.7678107299985382e-12 2.9193645563942944e+01 0.0000000000000000e+00  1.9542556655645194e-08 2.9193645563943036e+01 0.0000000000000000e+00  -1.0138630776592869e-04 2.9193645563943001e+01 0.0000000000000000e+00  5.2602282195806049e-01 2.9193645563942901e+01 0.0000000000000000e+00  -4.9441602258607070e-01 3.2256265718321679e+01 0.0000000000000000e+00  9.5294500611609430e-05 3.2256265718321835e+01 0.0000000000000000e+00  -1.8359900462210485e-08 3.2256265718321430e+01 0.0000000000000000e+00  -1.3516163086048610e-12 3.2256265718321274e+01 0.0000000000000000e+00  2.1993810510283588e-12 3.2256265718320890e+01 0.0000000000000000e+00  6.0211580466553177e-13 3.2256265718320911e+01 0.0000000000000000e+00  -2.2412188438115805e-12 3.2256265718320350e+01 0.0000000000000000e+00  1.2441445972438564e-12 3.2256265718320996e+01 0.0000000000000000e+00  1.8360231611770378e-08 3.2256265718320648e+01 0.0000000000000000e+00  -9.5294500773411724e-05 3.2256265718321423e+01 0.0000000000000000e+00  4.9441602258614492e-01 3.2256265718321288e+01 0.0000000000000000e+00  -4.5976097417143325e-01 3.5120015680809850e+01 0.0000000000000000e+00  8.8615230583182449e-05 3.5120015680809985e+01 0.0000000000000000e+00  -1.7126193193689826e-08 3.5120015680809743e+01 0.0000000000000000e+00  3.3163943658032989e-11 3.5120015680809452e+01 0.0000000000000000e+00  -1.4775612054393313e-11 3.5120015680808791e+01 0.0000000000000000e+00  3.3848489990441029e-13 3.5120015680809402e+01 0.0000000000000000e+00  1.4333663195319194e-11 3.5120015680808734e+01 0.0000000000000000e+00  -3.3016986531625682e-11 3.5120015680809281e+01 0.0000000000000000e+00  1.7125685994039005e-08 3.5120015680809338e+01 0.0000000000000000e+00  -8.8615230550395064e-05 3.5120015680809260e+01 0.0000000000000000e+00  4.5976097417154166e-01 3.5120015680809573e+01 0.0000000000000000e+00  -4.2227133251200033e-01 3.7767239410177993e+01 0.0000000000000000e+00  8.1389126919707643e-05 3.7767239410177780e+01 0.0000000000000000e+00  -1.5419479397356051e-08 3.7767239410177673e+01 0.0000000000000000e+00  -1.7051370728532185e-10 3.7767239410177943e+01 0.0000000000000000e+00  8.1234507793374411e-11 3.7767239410178064e+01 0.0000000000000000e+00  7.6825024795095581e-14 3.7767239410177304e+01 0.0000000000000000e+00  -8.1409663290750327e-11 3.7767239410177801e+01 0.0000000000000000e+00  1.7015932911729109e-10 3.7767239410177403e+01 0.0000000000000000e+00  1.5419353706791625e-08 3.7767239410178043e+01 0.0000000000000000e+00  -8.1389126744548806e-05 3.7767239410178128e+01 0.0000000000000000e+00  4.2227133251167676e-01 3.7767239410178135e+01 0.0000000000000000e+00  -3.8217823459418115e-01 4.0181615802518131e+01 0.0000000000000000e+00  7.3664073358722124e-05 4.0181615802518671e+01 0.0000000000000000e+00  -1.5800872894414573e-08 4.0181615802518714e+01 0.0000000000000000e+00  9.8821247467612385e-10 4.0181615802518408e+01 0.0000000000000000e+00  -4.4519042101977638e-10 4.0181615802518287e+01 0.0000000000000000e+00  3.5558373462718792e-13 4.0181615802518365e+01 0.0000000000000000e+00  4.4465278565436367e-10 4.0181615802518614e+01 0.0000000000000000e+00  -9.8795985935678349e-10 4.0181615802518522e+01 0.0000000000000000e+00  1.5801462057801871e-08 4.0181615802518657e+01 0.0000000000000000e+00  -7.3664074279153010e-05 4.0181615802518124e+01 0.0000000000000000e+00  3.8217823459489075e-01 4.0181615802517996e+01 0.0000000000000000e+00  -3.3972884310111023e-01 4.2348259321214933e+01 0.0000000000000000e+00  6.5467153437846171e-05 4.2348259321214314e+01 0.0000000000000000e+00  -3.1258295609904361e-09 4.2348259321215060e+01 0.0000000000000000e+00  -5.4945951525932614e-09 4.2348259321214464e+01 0.0000000000000000e+00  2.3224085150082968e-09 4.2348259321214833e+01 0.0000000000000000e+00  1.5580318970598954e-13 4.2348259321214940e+01 0.0000000000000000e+00  -2.3225189625614465e-09 4.2348259321214613e+01 0.0000000000000000e+00  5.4937943613214259e-09 4.2348259321214435e+01 0.0000000000000000e+00  3.1254299452576334e-09 4.2348259321213511e+01 0.0000000000000000e+00  -6.5467153202769659e-05 4.2348259321213710e+01 0.0000000000000000e+00  3.3972884310200824e-01 4.2348259321214321e+01 0.0000000000000000e+00  -2.9518501476560921e-01 4.4253811776934384e+01 0.0000000000000000e+00  5.6976044444099996e-05 4.4253811776934072e+01 0.0000000000000000e+00  -6.6764303383460844e-08 4.4253811776933588e+01 0.0000000000000000e+00  2.9572385196118788e-08 4.4253811776934107e+01 0.0000000000000000e+00  -1.1296989259838571e-08 4.4253811776934249e+01 0.0000000000000000e+00  1.5564988736702517e-13 4.4253811776933780e+01 0.0000000000000000e+00  1.1296346053140271e-08 4.4253811776933965e+01 0.0000000000000000e+00  -2.9573328747597160e-08 4.4253811776933482e+01 0.0000000000000000e+00  6.6764078216227520e-08 4.4253811776933908e+01 0.0000000000000000e+00  -5.6976044150794469e-05 4.4253811776933915e+01 0.0000000000000000e+00  2.9518501476485054e-01 4.4253811776933652e+01 0.0000000000000000e+00  -2.4882046546388031e-01 4.5886524691470406e+01 0.0000000000000000e+00  4.7450599674452925e-05 4.5886524691471102e+01 0.0000000000000000e+00  3.1338698942612101e-07 4.5886524691470434e+01 0.0000000000000000e+00  -1.4989288211760391e-07 4.5886524691471088e+01 0.0000000000000000e+00  4.8562084340362881e-08 4.5886524691471280e+01 0.0000000000000000e+00  -2.4409127207401514e-13 4.5886524691471394e+01 0.0000000000000000e+00  -4.8562786853945538e-08 4.5886524691470669e+01 0.0000000000000000e+00  1.4989290712158836e-07 4.5886524691471038e+01 0.0000000000000000e+00  -3.1338733504512054e-07 4.5886524691471500e+01 0.0000000000000000e+00  -4.7450600214264264e-05 4.5886524691470818e+01 0.0000000000000000e+00  2.4882046546354109e-01 4.5886524691470576e+01 0.0000000000000000e+00  -2.0092697762622846e-01 4.7236331737300233e+01 0.0000000000000000e+00  4.1931406845846660e-05 4.7236331737300198e+01 0.0000000000000000e+00  -1.8132893774865624e-06 4.7236331737300510e+01 0.0000000000000000e+00  6.7913708655945102e-07 4.7236331737300532e+01 0.0000000000000000e+00  -1.6432954670797680e-07 4.7236331737300596e+01 0.0000000000000000e+00  -2.3346780455422775e-13 4.7236331737301079e+01 0.0000000000000000e+00  1.6432924671581887e-07 4.7236331737301803e+01 0.0000000000000000e+00  -6.7913667599508884e-07 4.7236331737301995e+01 0.0000000000000000e+00  1.8132889487081822e-06 4.7236331737300951e+01 0.0000000000000000e+00  -4.1931407515693854e-05 4.7236331737301136e+01 0.0000000000000000e+00  2.0092697762678896e-01 4.7236331737301334e+01 0.0000000000000000e+00  -1.5176011197602307e-01 4.8294910805888662e+01 0.0000000000000000e+00  8.8443493436262861e-06 4.8294910805888669e+01 0.0000000000000000e+00  9.3515198165765923e-06 4.8294910805889380e+01 0.0000000000000000e+00  -2.3662490270678583e-06 4.8294910805888819e+01 0.0000000000000000e+00  3.1484445810438956e-07 4.8294910805889081e+01 0.0000000000000000e+00  5.6042963190179536e-13 4.8294910805889188e+01 0.0000000000000000e+00  -3.1484380695996824e-07 4.8294910805889664e+01 0.0000000000000000e+00  2.3662484665891522e-06 4.8294910805889209e+01 0.0000000000000000e+00  -9.3515206171174088e-06 4.8294910805889153e+01 0.0000000000000000e+00  -8.8443495296166474e-06 4.8294910805889593e+01 0.0000000000000000e+00  1.5176011197551370e-01 4.8294910805889266e+01 0.0000000000000000e+00  -1.0190348058997671e-01 4.9055735321738823e+01 0.0000000000000000e+00  1.4987832963321134e-04 4.9055735321739022e+01 0.0000000000000000e+00  -3.7988146122024395e-05 4.9055735321739007e+01 0.0000000000000000e+00  2.7070200153910141e-06 4.9055735321739967e+01 0.0000000000000000e+00  -1.8416255151792880e-07 4.9055735321739583e+01 0.0000000000000000e+00  4.2278606031850385e-13 4.9055735321739292e+01 0.0000000000000000e+00  1.8416262380407471e-07 4.9055735321738808e+01 0.0000000000000000e+00  -2.7070204218446404e-06 4.9055735321738645e+01 0.0000000000000000e+00  3.7988146263550218e-05 4.9055735321739242e+01 0.0000000000000000e+00  -1.4987832949109949e-04 4.9055735321739206e+01 0.0000000000000000e+00  1.0190348059028961e-01 4.9055735321739299e+01 0.0000000000000000e+00  -4.9444096170892279e-02 4.9514114485519265e+01 0.0000000000000000e+00  -7.6786930224199154e-04 4.9514114485519116e+01 0.0000000000000000e+00  -9.5375276080861762e-06 4.9514114485519080e+01 0.0000000000000000e+00  2.5217894949470789e-06 4.9514114485518988e+01 0.0000000000000000e+00  -3.6581364236996064e-07 4.9514114485518512e+01 0.0000000000000000e+00  1.0380323577376595e-14 4.9514114485518505e+01 0.0000000000000000e+00  3.6581318074914692e-07 4.9514114485518647e+01 0.0000000000000000e+00  -2.5217894127257826e-06 4.9514114485518938e+01 0.0000000000000000e+00  9.5375284171239614e-06 4.9514114485519073e+01 0.0000000000000000e+00  7.6786930216099470e-04 4.9514114485519102e+01 0.0000000000000000e+00  4.9444096171056960e-02 4.9514114485519173e+01 0.0000000000000000e+00  -2.1965323731235303e-02 4.9667222197889508e+01 0.0000000000000000e+00  -1.8594695394003966e-03 4.9667222197889487e+01 0.0000000000000000e+00  8.0002187872131423e-05 4.9667222197889124e+01 0.0000000000000000e+00  -6.8335436369208063e-06 4.9667222197888613e+01 0.0000000000000000e+00  7.2049701052891689e-07 4.9667222197889494e+01 0.0000000000000000e+00  2.5054129339821782e-13 4.9667222197889600e+01 0.0000000000000000e+00  -7.2049707296617776e-07 4.9667222197889011e+01 0.0000000000000000e+00  6.8335431265255516e-06 4.9667222197889451e+01 0.0000000000000000e+00  -8.0002187448974756e-05 4.9667222197888997e+01 0.0000000000000000e+00  1.8594695393677637e-03 4.9667222197888925e+01 0.0000000000000000e+00  2.1965323731081770e-02 4.9667222197889004e+01 0.0000000000000000e+00  3.2453606745827057e-01 1.3021916742224497e+00 0.0000000000000000e+00  -6.2551086754542492e-05 1.3021916742222772e+00 0.0000000000000000e+00  1.2055319851847622e-08 1.3021916742227619e+00 0.0000000000000000e+00  -2.2401156967607041e-12 1.3021916742220647e+00 0.0000000000000000e+00  4.4661904946932358e-13 1.3021916742214057e+00 0.0000000000000000e+00  1.3973692072478547e-13 1.3021916742222743e+00 0.0000000000000000e+00  3.6946815937146579e-12 1.3021916742229422e+00 0.0000000000000000e+00  -1.2056384748821491e-08 1.3021916742226056e+00 0.0000000000000000e+00  6.2551086207361960e-05 1.3021916742217743e+00 0.0000000000000000e+00  -3.2453606745794600e-01 1.3021916742220365e+00 0.0000000000000000e+00  3.2253520404403035e-01 5.8452528277862354e+00 0.0000000000000000e+00  -6.2165454795571861e-05 5.8452528277869300e+00 0.0000000000000000e+00  1.1981441106707498e-08 5.8452528277866769e+00 0.0000000000000000e+00  -3.4338023561852736e-12 5.8452528277867213e+00 0.0000000000000000e+00  1.3860521064958772e-12 5.8452528277870286e+00 0.0000000000000000e+00  -2.0216522980262054e-13 5.8452528277864735e+00 0.0000000000000000e+00  3.9043781639362240e-12 5.8452528277859273e+00 0.0000000000000000e+00  -1.1982220626936523e-08 5.8452528277863234e+00 0.0000000000000000e+00  6.2165454124706222e-05 5.8452528277868199e+00 0.0000000000000000e+00  -3.2253520404329278e-01 5.8452528277861520e+00 0.0000000000000000e+00  3.1854581268589927e-01 9.7020378472992448e+00 0.0000000000000000e+00  -6.1396567411159202e-05 9.7020378472985698e+00 0.0000000000000000e+00  1.1832586319315722e-08 9.7020378472981310e+00 0.0000000000000000e+00  -2.3820372403009812e-12 9.7020378472985715e+00 0.0000000000000000e+00  5.3462465502759049e-13 9.7020378472985183e+00 0.0000000000000000e+00  -6.6453256529927465e-14 9.7020378472981310e+00 0.0000000000000000e+00  2.6417390493099741e-12 9.7020378472974702e+00 0.0000000000000000e+00  -1.1832503616548719e-08 9.7020378472974702e+00 0.0000000000000000e+00  6.1396566540129486e-05 9.7020378472984046e+00 0.0000000000000000e+00  -3.1854581268508514e-01 9.7020378472989286e+00 0.0000000000000000e+00  3.1259248830236308e-01 1.3499006849152513e+01 0.0000000000000000e+00  -6.0249163252056369e-05 1.3499006849153480e+01 0.0000000000000000e+00  1.1611528507137798e-08 1.3499006849153966e+01 0.0000000000000000e+00  -3.1727127641565884e-12 1.3499006849152709e+01 0.0000000000000000e+00  1.0088434640761655e-12 1.3499006849152204e+01 0.0000000000000000e+00  -5.5824649850724118e-13 1.3499006849152442e+01 0.0000000000000000e+00  2.6971515574400435e-12 1.3499006849153041e+01 0.0000000000000000e+00  -1.1611563545562875e-08 1.3499006849153002e+01 0.0000000000000000e+00  6.0249163014419318e-05 1.3499006849152362e+01 0.0000000000000000e+00  -3.1259248830145331e-01 1.3499006849152813e+01 0.0000000000000000e+00  3.0471193367885702e-01 1.7212750344323265e+01 0.0000000000000000e+00  -5.8730313955079994e-05 1.7212750344322561e+01 0.0000000000000000e+00  1.1318883894246745e-08 1.7212750344322078e+01 0.0000000000000000e+00  -3.7757239338561525e-12 1.7212750344322718e+01 0.0000000000000000e+00  1.6705058502664066e-12 1.7212750344323290e+01 0.0000000000000000e+00  -2.2229697547279912e-13 1.7212750344323904e+01 0.0000000000000000e+00  1.4381351990341314e-12 1.7212750344322540e+01 0.0000000000000000e+00  -1.1317932400544327e-08 1.7212750344322295e+01 0.0000000000000000e+00  5.8730312795082115e-05 1.7212750344322757e+01 0.0000000000000000e+00  -3.0471193367761806e-01 1.7212750344321481e+01 0.0000000000000000e+00  2.9495273326200749e-01 2.0820371936846101e+01 0.0000000000000000e+00  -5.6849380211504774e-05 