<?xml version="1.0"?>
<VTKFile type="UnstructuredGrid"  version="0.1"  >
<UnstructuredGrid>
<Piece  NumberOfPoints="1091" NumberOfCells="2050">
<Points>
<DataArray  type="Float64"  NumberOfComponents="3"  format="ascii">-0.5 -1 0  -0.4 -1 0  -0.3 -1 0  -0.2 -1 0  -0.09999999999999998 -1 0  0 -1 0  0.09999999999999998 -1 0  0.2 -1 0  0.3 -1 0  0.4 -1 0  0.5 -1 0  -0.5 -0.98 0  -0.4 -0.98 0  -0.3 -0.98 0  -0.2 -0.98 0  -0.09999999999999998 -0.98 0  0 -0.98 0  0.09999999999999998 -0.98 0  0.2 -0.98 0  0.3 -0.98 0  0.4 -0.98 0  0.5 -0.98 0  -0.5 -0.96 0  -0.4 -0.96 0  -0.3 -0.96 0  -0.2 -0.96 0  -0.09999999999999998 -0.96 0  0 -0.96 0  0.09999999999999998 -0.96 0  0.2 -0.96 0  0.3 -0.96 0  0.4 -0.96 0  0.5 -0.96 0  -0.5 -0.9399999999999999 0  -0.4 -0.9399999999999999 0  -0.3 -0.9399999999999999 0  -0.2 -0.9399999999999999 0  -0.09999999999999998 -0.9399999999999999 0  0 -0.9399999999999999 0  0.09999999999999998 -0.9399999999999999 0  0.2 -0.9399999999999999 0  0.3 -0.9399999999999999 0  0.4 -0.9399999999999999 0  0.5 -0.9399999999999999 0  -0.5 -0.92 0  -0.4 -0.92 0  -0.3 -0.92 0  -0.2 -0.92 0  -0.09999999999999998 -0.92 0  0 -0.92 0  0.09999999999999998 -0.92 0  0.2 -0.92 0  0.3 -0.92 0  0.4 -0.92 0  0.5 -0.92 0  -0.5 -0.9 0  -0.4 -0.9 0  -0.3 -0.9 0  -0.2 -0.9 0  -0.09999999999999998 -0.9 0  0 -0.9 0  0.09999999999999998 -0.9 0  0.2 -0.9 0  0.3 -0.9 0  0.4 -0.9 0  0.5 -0.9 0  -0.5 -0.88 0  -0.4 -0.88 0  -0.3 -0.88 0  -0.2 -0.88 0  -0.09999999999999998 -0.88 0  0 -0.88 0  0.09999999999999998 -0.88 0  0.2 -0.88 0  0.3 -0.88 0  0.4 -0.88 0  0.5 -0.88 0  -0.5 -0.86 0  -0.4 -0.86 0  -0.3 -0.86 0  -0.2 -0.86 0  -0.09999999999999998 -0.86 0  0 -0.86 0  0.09999999999999998 -0.86 0  0.2 -0.86 0  0.3 -0.86 0  0.4 -0.86 0  0.5 -0.86 0  -0.5 -0.84 0  -0.4 -0.84 0  -0.3 -0.84 0  -0.2 -0.84 0  -0.09999999999999998 -0.84 0  0 -0.84 0  0.09999999999999998 -0.84 0  0.2 -0.84 0  0.3 -0.84 0  0.4 -0.84 0  0.5 -0.84 0  -0.5 -0.8200000000000001 0  -0.4 -0.8200000000000001 0  -0.3 -0.8200000000000001 0  -0.2 -0.8200000000000001 0  -0.09999999999999998 -0.8200000000000001 0  0 -0.8200000000000001 0  0.09999999999999998 -0.8200000000000001 0  0.2 -0.8200000000000001 0  0.3 -0.8200000000000001 0  0.4 -0.8200000000000001 0  0.5 -0.8200000000000001 0  -0.5 -0.8 0  -0.4 -0.8 0  -0.3 -0.8 0  -0.2 -0.8 0  -0.09999999999999998 -0.8 0  0 -0.8 0  0.09999999999999998 -0.8 0  0.2 -0.8 0  0.3 -0.8 0  0.4 -0.8 0  0.5 -0.8 0  -0.5 -0.78 0  -0.4 -0.78 0  -0.3 -0.78 0  -0.2 -0.78 0  -0.09999999999999998 -0.78 0  0 -0.78 0  0.09999999999999998 -0.78 0  0.2 -0.78 0  0.3 -0.78 0  0.4 -0.78 0  0.5 -0.78 0  -0.5 -0.76 0  -0.4 -0.76 0  -0.3 -0.76 0  -0.2 -0.76 0  -0.09999999999999998 -0.76 0  0 -0.76 0  0.09999999999999998 -0.76 0  0.2 -0.76 0  0.3 -0.76 0  0.4 -0.76 0  0.5 -0.76 0  -0.5 -0.74 0  -0.4 -0.74 0  -0.3 -0.74 0  -0.2 -0.74 0  -0.09999999999999998 -0.74 0  0 -0.74 0  0.09999999999999998 -0.74 0  0.2 -0.74 0  0.3 -0.74 0  0.4 -0.74 0  0.5 -0.74 0  -0.5 -0.72 0  -0.4 -0.72 0  -0.3 -0.72 0  -0.2 -0.72 0  -0.09999999999999998 -0.72 0  0 -0.72 0  0.09999999999999998 -0.72 0  0.2 -0.72 0  0.3 -0.72 0  0.4 -0.72 0  0.5 -0.72 0  -0.5 -0.7 0  -0.4 -0.7 0  -0.3 -0.7 0  -0.2 -0.7 0  -0.09999999999999998 -0.7 0  0 -0.7 0  0.09999999999999998 -0.7 0  0.2 -0.7 0  0.3 -0.7 0  0.4 -0.7 0  0.5 -0.7 0  -0.5 -0.6799999999999999 0  -0.4 -0.6799999999999999 0  -0.3 -0.6799999999999999 0  -0.2 -0.6799999999999999 0  -0.09999999999999998 -0.6799999999999999 0  0 -0.6799999999999999 0  0.09999999999999998 -0.6799999999999999 0  0.2 -0.6799999999999999 0  0.3 -0.6799999999999999 0  0.4 -0.6799999999999999 0  0.5 -0.6799999999999999 0  -0.5 -0.6599999999999999 0  -0.4 -0.6599999999999999 0  -0.3 -0.6599999999999999 0  -0.2 -0.6599999999999999 0  -0.09999999999999998 -0.6599999999999999 0  0 -0.6599999999999999 0  0.09999999999999998 -0.6599999999999999 0  0.2 -0.6599999999999999 0  0.3 -0.6599999999999999 0  0.4 -0.6599999999999999 0  0.5 -0.6599999999999999 0  -0.5 -0.64 0  -0.4 -0.64 0  -0.3 -0.64 0  -0.2 -0.64 0  -0.09999999999999998 -0.64 0  0 -0.64 0  0.09999999999999998 -0.64 0  0.2 -0.64 0  0.3 -0.64 0  0.4 -0.64 0  0.5 -0.64 0  -0.5 -0.62 0  -0.4 -0.62 0  -0.3 -0.62 0  -0.2 -0.62 0  -0.09999999999999998 -0.62 0  0 -0.62 0  0.09999999999999998 -0.62 0  0.2 -0.62 0  0.3 -0.62 0  0.4 -0.62 0  0.5 -0.62 0  -0.5 -0.6 0  -0.4 -0.6 0  -0.3 -0.6 0  -0.2 -0.6 0  -0.09999999999999998 -0.6 0  0 -0.6 0  0.09999999999999998 -0.6 0  0.2 -0.6 0  0.3 -0.6 0  0.4 -0.6 0  0.5 -0.6 0  -0.5 -0.5800000000000001 0  -0.4 -0.5800000000000001 0  -0.3 -0.5800000000000001 0  -0.2 -0.5800000000000001 0  -0.09999999999999998 -0.5800000000000001 0  0 -0.5800000000000001 0  0.09999999999999998 -0.5800000000000001 0  0.2 -0.5800000000000001 0  0.3 -0.5800000000000001 0  0.4 -0.5800000000000001 0  0.5 -0.5800000000000001 0  -0.5 -0.5600000000000001 0  -0.4 -0.5600000000000001 0  -0.3 -0.5600000000000001 0  -0.2 -0.5600000000000001 0  -0.09999999999999998 -0.5600000000000001 0  0 -0.5600000000000001 0  0.09999999999999998 -0.5600000000000001 0  0.2 -0.5600000000000001 0  0.3 -0.5600000000000001 0  0.4 -0.5600000000000001 0  0.5 -0.5600000000000001 0  -0.5 -0.54 0  -0.4 -0.54 0  -0.3 -0.54 0  -0.2 -0.54 0  -0.09999999999999998 -0.54 0  0 -0.54 0  0.09999999999999998 -0.54 0  0.2 -0.54 0  0.3 -0.54 0  0.4 -0.54 0  0.5 -0.54 0  -0.5 -0.52 0  -0.4 -0.52 0  -0.3 -0.52 0  -0.2 -0.52 0  -0.09999999999999998 -0.52 0  0 -0.52 0  0.09999999999999998 -0.52 0  0.2 -0.52 0  0.3 -0.52 0  0.4 -0.52 0  0.5 -0.52 0  -0.5 -0.5 0  -0.4 -0.5 0  -0.3 -0.5 0  -0.2 -0.5 0  -0.09999999999999998 -0.5 0  0 -0.5 0  0.09999999999999998 -0.5 0  0.2 -0.5 0  0.3 -0.5 0  0.4 -0.5 0  0.5 -0.5 0  -0.5 -0.48 0  -0.4 -0.48 0  -0.3 -0.48 0  -0.2 -0.48 0  -0.09999999999999998 -0.48 0  0 -0.48 0  0.09999999999999998 -0.48 0  0.2 -0.48 0  0.3 -0.48 0  0.4 -0.48 0  0.5 -0.48 0  -0.5 -0.46 0  -0.4 -0.46 0  -0.3 -0.46 0  -0.2 -0.46 0  -0.09999999999999998 -0.46 0  0 -0.46 0  0.09999999999999998 -0.46 0  0.2 -0.46 0  0.3 -0.46 0  0.4 -0.46 0  0.5 -0.46 0  -0.5 -0.4399999999999999 0  -0.4 -0.4399999999999999 0  -0.3 -0.4399999999999999 0  -0.2 -0.4399999999999999 0  -0.09999999999999998 -0.4399999999999999 0  0 -0.4399999999999999 0  0.09999999999999998 -0.4399999999999999 0  0.2 -0.4399999999999999 0  0.3 -0.4399999999999999 0  0.4 -0.4399999999999999 0  0.5 -0.4399999999999999 0  -0.5 -0.42 0  -0.4 -0.42 0  -0.3 -0.42 0  -0.2 -0.42 0  -0.09999999999999998 -0.42 0  0 -0.42 0  0.09999999999999998 -0.42 0  0.2 -0.42 0  0.3 -0.42 0  0.4 -0.42 0  0.5 -0.42 0  -0.5 -0.4 0  -0.4 -0.4 0  -0.3 -0.4 0  -0.2 -0.4 0  -0.09999999999999998 -0.4 0  0 -0.4 0  0.09999999999999998 -0.4 0  0.2 -0.4 0  0.3 -0.4 0  0.4 -0.4 0  0.5 -0.4 0  -0.5 -0.38 0  -0.4 -0.38 0  -0.3 -0.38 0  -0.2 -0.38 0  -0.09999999999999998 -0.38 0  0 -0.38 0  0.09999999999999998 -0.38 0  0.2 -0.38 0  0.3 -0.38 0  0.4 -0.38 0  0.5 -0.38 0  -0.5 -0.36 0  -0.4 -0.36 0  -0.3 -0.36 0  -0.2 -0.36 0  -0.09999999999999998 -0.36 0  0 -0.36 0  0.09999999999999998 -0.36 0  0.2 -0.36 0  0.3 -0.36 0  0.4 -0.36 0  0.5 -0.36 0  -0.5 -0.34 0  -0.4 -0.34 0  -0.3 -0.34 0  -0.2 -0.34 0  -0.09999999999999998 -0.34 0  0 -0.34 0  0.09999999999999998 -0.34 0  0.2 -0.34 0  0.3 -0.34 0  0.4 -0.34 0  0.5 -0.34 0  -0.5 -0.32 0  -0.4 -0.32 0  -0.3 -0.32 0  -0.2 -0.32 0  -0.09999999999999998 -0.32 0  0 -0.32 0  0.09999999999999998 -0.32 0  0.2 -0.32 0  0.3 -0.32 0  0.4 -0.32 0  0.5 -0.32 0  -0.5 -0.3 0  -0.4 -0.3 0  -0.3 -0.3 0  -0.2 -0.3 0  -0.09999999999999998 -0.3 0  0 -0.3 0  0.09999999999999998 -0.3 0  0.2 -0.3 0  0.3 -0.3 0  0.4 -0.3 0  0.5 -0.3 0  -0.5 -0.28 0  -0.4 -0.28 0  -0.3 -0.28 0  -0.2 -0.28 0  -0.09999999999999998 -0.28 0  0 -0.28 0  0.09999999999999998 -0.28 0  0.2 -0.28 0  0.3 -0.28 0  0.4 -0.28 0  0.5 -0.28 0  -0.5 -0.26 0  -0.4 -0.26 0  -0.3 -0.26 0  -0.2 -0.26 0  -0.09999999999999998 -0.26 0  0 -0.26 0  0.09999999999999998 -0.26 0  0.2 -0.26 0  0.3 -0.26 0  0.4 -0.26 0  0.5 -0.26 0  -0.5 -0.24 0  -0.4 -0.24 0  -0.3 -0.24 0  -0.2 -0.24 0  -0.09999999999999998 -0.24 0  0 -0.24 0  0.09999999999999998 -0.24 0  0.2 -0.24 0  0.3 -0.24 0  0.4 -0.24 0  0.5 -0.24 0  -0.5 -0.22 0  -0.4 -0.22 0  -0.3 -0.22 0  -0.2 -0.22 0  -0.09999999999999998 -0.22 0  0 -0.22 0  0.09999999999999998 -0.22 0  0.2 -0.22 0  0.3 -0.22 0  0.4 -0.22 0  0.5 -0.22 0  -0.5 -0.2 0  -0.4 -0.2 0  -0.3 -0.2 0  -0.2 -0.2 0  -0.09999999999999998 -0.2 0  0 -0.2 0  0.09999999999999998 -0.2 0  0.2 -0.2 0  0.3 -0.2 0  0.4 -0.2 0  0.5 -0.2 0  -0.5 -0.18 0  -0.4 -0.18 0  -0.3 -0.18 0  -0.2 -0.18 0  -0.09999999999999998 -0.18 0  0 -0.18 0  0.09999999999999998 -0.18 0  0.2 -0.18 0  0.3 -0.18 0  0.4 -0.18 0  0.5 -0.18 0  -0.5 -0.16 0  -0.4 -0.16 0  -0.3 -0.16 0  -0.2 -0.16 0  -0.09999999999999998 -0.16 0  0 -0.16 0  0.09999999999999998 -0.16 0  0.2 -0.16 0  0.3 -0.16 0  0.4 -0.16 0  0.5 -0.16 0  -0.5 -0.14 0  -0.4 -0.14 0  -0.3 -0.14 0  -0.2 -0.14 0  -0.09999999999999998 -0.14 0  0 -0.14 0  0.09999999999999998 -0.14 0  0.2 -0.14 0  0.3 -0.14 0  0.4 -0.14 0  0.5 -0.14 0  -0.5 -0.12 0  -0.4 -0.12 0  -0.3 -0.12 0  -0.2 -0.12 0  -0.09999999999999998 -0.12 0  0 -0.12 0  0.09999999999999998 -0.12 0  0.2 -0.12 0  0.3 -0.12 0  0.4 -0.12 0  0.5 -0.12 0  -0.5 -0.09999999999999998 0  -0.4 -0.09999999999999998 0  -0.3 -0.09999999999999998 0  -0.2 -0.09999999999999998 0  -0.09999999999999998 -0.09999999999999998 0  0 -0.09999999999999998 0  0.09999999999999998 -0.09999999999999998 0  0.2 -0.09999999999999998 0  0.3 -0.09999999999999998 0  0.4 -0.09999999999999998 0  0.5 -0.09999999999999998 0  -0.5 -0.07999999999999996 0  -0.4 -0.07999999999999996 0  -0.3 -0.07999999999999996 0  -0.2 -0.07999999999999996 0  -0.09999999999999998 -0.07999999999999996 0  0 -0.07999999999999996 0  0.09999999999999998 -0.07999999999999996 0  0.2 -0.07999999999999996 0  0.3 -0.07999999999999996 0  0.4 -0.07999999999999996 0  0.5 -0.07999999999999996 0  -0.5 -0.06000000000000005 0  -0.4 -0.06000000000000005 0  -0.3 -0.06000000000000005 0  -0.2 -0.06000000000000005 0  -0.09999999
[...]
<PointData  Vectors="flow"> 
<DataArray  type="Float64"  Name="flow"  NumberOfComponents="3" format="ascii">-1.6338017612187103e-15 3.6616219642253877e-15 0.0000000000000000e+00  -1.1089838246049028e-15 7.8947498298843798e-15 0.0000000000000000e+00  -9.2006320661427173e-16 1.1877965291693647e-15 0.0000000000000000e+00  3.0290017983645274e-15 1.9603692836931936e-15 0.0000000000000000e+00  -2.0200250683914861e-16 -1.6823725240727000e-15 0.0000000000000000e+00  1.1837012776189212e-15 -2.3075960270837997e-16 0.0000000000000000e+00  4.1381626855283898e-15 2.4462273998498407e-15 0.0000000000000000e+00  -1.9219588620779313e-16 3.8411307472236853e-15 0.0000000000000000e+00  1.0096441620089284e-15 1.6118547078901853e-15 0.0000000000000000e+00  2.6704314337605110e-15 -5.6185944159192443e-15 0.0000000000000000e+00  1.5454734321002536e-15 -2.2959356868074886e-16 0.0000000000000000e+00  -1.1626496802427431e-15 -1.0007207030136164e-16 0.0000000000000000e+00  -2.0819915266282727e-15 1.5475922809743329e-15 0.0000000000000000e+00  -4.5374650237126980e-16 -3.3169772460985123e-15 0.0000000000000000e+00  2.9650072943201326e-15 3.3011052884542316e-15 0.0000000000000000e+00  3.7581943135865401e-17 1.2409379565410753e-15 0.0000000000000000e+00  7.4506734123542193e-16 -1.4040734092066586e-16 0.0000000000000000e+00  4.3336291138095958e-15 -2.1133298929819581e-15 0.0000000000000000e+00  4.6581218826292382e-16 1.8928630691837435e-15 0.0000000000000000e+00  9.3026201088483341e-16 1.8512924513886915e-15 0.0000000000000000e+00  1.8812258043371911e-15 1.9709986924164242e-15 0.0000000000000000e+00  2.2689774216737011e-15 -3.9296680636816803e-15 0.0000000000000000e+00  -3.9044202209712669e-16 -3.4019253961520368e-15 0.0000000000000000e+00  -1.8542345369459378e-15 1.5599315460800963e-15 0.0000000000000000e+00  -3.7876592611031224e-16 -4.1709166445839320e-15 0.0000000000000000e+00  3.2745085345887419e-15 2.5768682723327618e-15 0.0000000000000000e+00  -8.9671179612318235e-17 -1.1172896655779650e-15 0.0000000000000000e+00  4.0188469544021242e-16 4.9090240400331088e-15 0.0000000000000000e+00  4.5513606174992357e-15 9.6593811684110284e-15 0.0000000000000000e+00  6.0901954537297518e-16 3.1531494784333819e-15 0.0000000000000000e+00  8.2850629824571209e-16 -1.6336786895495233e-15 0.0000000000000000e+00  9.5218073540499201e-16 1.3306855275502712e-17 0.0000000000000000e+00  1.4277661452100952e-15 -1.1823961737617780e-15 0.0000000000000000e+00  -2.4527949656206466e-15 4.5225023219988402e-15 0.0000000000000000e+00  -2.0821798878010197e-15 -6.0034106399780304e-15 0.0000000000000000e+00  -3.3494400078950565e-16 1.6384887173009723e-15 0.0000000000000000e+00  4.2332204077510172e-15 -7.7394253687736747e-17 0.0000000000000000e+00  -2.3952188557872532e-16 -9.2161373221098968e-16 0.0000000000000000e+00  3.2455468098660548e-15 7.4958510489283833e-15 0.0000000000000000e+00  3.7735045575000141e-15 1.7275159992949648e-14 0.0000000000000000e+00  -1.6726690597172701e-15 1.3255610891346423e-14 0.0000000000000000e+00  2.3443183198276950e-16 -1.9266352726886001e-14 0.0000000000000000e+00  2.4728442827390613e-15 1.3651645378350987e-14 0.0000000000000000e+00  2.3193923906277104e-15 4.2008056283765413e-15 0.0000000000000000e+00  -5.5815979829778507e-15 1.9339282418224684e-14 0.0000000000000000e+00  -2.1169249195478853e-15 -1.8216463674334787e-15 0.0000000000000000e+00  -5.8602793215408968e-16 2.5800241251940978e-15 0.0000000000000000e+00  3.0667237608720336e-15 -1.1160112651011370e-14 0.0000000000000000e+00  1.7292100528041320e-15 9.1860342925589645e-15 0.0000000000000000e+00  3.6617610099882803e-15 6.9682363736405983e-15 0.0000000000000000e+00  5.3694716402230407e-15 1.0906123280974641e-15 0.0000000000000000e+00  -6.5411982298693317e-15 1.7871548517986009e-14 0.0000000000000000e+00  1.1992002537698925e-15 -1.8062313905797996e-14 0.0000000000000000e+00  5.5735984879332735e-15 2.2112945328932136e-14 0.0000000000000000e+00  -6.8164175735887689e-15 -1.7801065815035349e-14 0.0000000000000000e+00  -8.4976778526592959e-15 -5.7966892709401590e-15 0.0000000000000000e+00  -4.9852083844071252e-15 -1.9436520895809764e-15 0.0000000000000000e+00  -9.5057884736866784e-16 -8.4242939684545461e-15 0.0000000000000000e+00  4.8810012873865030e-15 -2.3996491239443385e-15 0.0000000000000000e+00  3.2718289089757694e-15 -1.0542965956275241e-14 0.0000000000000000e+00  1.9489105663719347e-15 -6.0222386237459053e-15 0.0000000000000000e+00  6.2974745388502077e-15 -8.4733160406144533e-15 0.0000000000000000e+00  -5.6865040084309072e-15 -1.2929242811940732e-15 0.0000000000000000e+00  3.5611673272252204e-16 1.7082122977983746e-16 0.0000000000000000e+00  3.9561920007776651e-15 -5.7790013058039187e-15 0.0000000000000000e+00  -1.4368793505947458e-14 -5.1121938628027889e-15 0.0000000000000000e+00  -2.7952402448728581e-15 -1.5614822653582697e-14 0.0000000000000000e+00  -3.9336584865206505e-15 -7.3635092355292032e-16 0.0000000000000000e+00  -7.2829082862320244e-16 -2.3997903893871563e-15 0.0000000000000000e+00  2.4087157393998388e-15 7.6624369274615581e-15 0.0000000000000000e+00  2.2053797368309391e-15 -1.8350187880645821e-14 0.0000000000000000e+00  4.2422494667003147e-15 -3.8100839702455446e-15 0.0000000000000000e+00  5.2039699759701041e-15 -8.4955732529282378e-15 0.0000000000000000e+00  -4.1326260258960712e-15 -1.0192856202151306e-14 0.0000000000000000e+00  6.0916098795445226e-16 8.6450153501390977e-15 0.0000000000000000e+00  3.2262979839464738e-15 -9.2318315001953540e-15 0.0000000000000000e+00  -7.1562667014738695e-15 -6.2020513479651905e-15 0.0000000000000000e+00  -1.5721159609616194e-15 -1.7518700401218564e-14 0.0000000000000000e+00  -1.8298439883929423e-15 -1.4260612146731135e-15 0.0000000000000000e+00  2.0889181359437809e-15 1.1482858160112266e-14 0.0000000000000000e+00  1.0208858883086391e-15 7.2997919125405682e-15 0.0000000000000000e+00  -2.1659132022942633e-16 -9.3767059845085053e-16 0.0000000000000000e+00  3.5547146383901436e-15 -2.8830859066476386e-15 0.0000000000000000e+00  5.4922230933443831e-15 1.4288042394244755e-14 0.0000000000000000e+00  -2.8259320168855525e-15 -7.7787391578485263e-15 0.0000000000000000e+00  1.3815724686081743e-15 1.7841681685202532e-16 0.0000000000000000e+00  2.2965392524884356e-17 1.2367275626279271e-15 0.0000000000000000e+00  -8.3048993921010236e-15 -1.6025847998594378e-14 0.0000000000000000e+00  -3.9304417692344928e-16 -6.4639817545413218e-15 0.0000000000000000e+00  9.5385447853301542e-16 -5.0528561677840121e-15 0.0000000000000000e+00  -4.8947640247938881e-16 -1.6598790187737956e-14 0.0000000000000000e+00  1.7515998784930857e-15 -1.0385674933037586e-14 0.0000000000000000e+00  -9.1811685727960497e-17 -5.1414819345754072e-15 0.0000000000000000e+00  9.4123480268124730e-15 -9.1161224034090457e-15 0.0000000000000000e+00  5.5614971604253978e-15 4.5869283903313226e-14 0.0000000000000000e+00  -7.5200804009372950e-15 2.6559466976746142e-14 0.0000000000000000e+00  1.9524592032895349e-15 -7.1362424647005016e-15 0.0000000000000000e+00  1.2272747068098214e-16 3.2799269558862237e-14 0.0000000000000000e+00  -1.3912220205062411e-14 2.2559993588270700e-15 0.0000000000000000e+00  -5.0526739768860136e-15 3.1711258725131671e-14 0.0000000000000000e+00  -2.3892080851877193e-15 8.7772780164588516e-15 0.0000000000000000e+00  4.1342651191704533e-16 2.0820170519260037e-14 0.0000000000000000e+00  4.0338700022118502e-15 2.4852126882631692e-15 0.0000000000000000e+00  -1.6752117359342582e-15 1.9589658721381239e-14 0.0000000000000000e+00  1.1114496584070927e-14 4.9539625440916717e-15 0.0000000000000000e+00  1.1066922285159290e-14 -1.6949072153766720e-14 0.0000000000000000e+00  -1.4989653612122255e-14 3.2204215474590566e-15 0.0000000000000000e+00  3.6710434525012223e-15 -1.8092688599919950e-14 0.0000000000000000e+00  3.2650445309068176e-15 1.0159082838894107e-14 0.0000000000000000e+00  -2.2656144274881582e-14 -2.1005611745137897e-14 0.0000000000000000e+00  -6.3809543600658885e-15 1.0925346899371976e-14 0.0000000000000000e+00  -7.3480333052515399e-16 2.0977845687683246e-14 0.0000000000000000e+00  -2.8426633157964656e-15 3.6650406292123381e-14 0.0000000000000000e+00  6.0472878205181833e-16 -6.8911225307978683e-15 0.0000000000000000e+00  1.1737338869632988e-15 -2.4696669950035783e-14 0.0000000000000000e+00  2.6640878176412241e-15 -4.3272468876032741e-15 0.0000000000000000e+00  1.1087483806939070e-14 -3.2065110066297984e-14 0.0000000000000000e+00  -7.7964203222224639e-15 4.4403493680809402e-15 0.0000000000000000e+00  2.3288523754376225e-15 2.2914318527688654e-14 0.0000000000000000e+00  -1.9149343047248561e-15 1.7262264633000494e-15 0.0000000000000000e+00  -2.4136482737422606e-14 -2.9631317632250923e-14 0.0000000000000000e+00  1.8754855996218714e-15 -1.7603771458773515e-14 0.0000000000000000e+00  3.2942887674940141e-15 1.8346133385056918e-14 0.0000000000000000e+00  -4.8196089173313439e-15 -1.6352133132429907e-14 0.0000000000000000e+00  -6.5966503647208619e-15 -1.2650614430424088e-14 0.0000000000000000e+00  6.7388338031629122e-16 -1.2785810863877944e-14 0.0000000000000000e+00  7.4705027956002921e-15 8.0765028029129341e-15 0.0000000000000000e+00  9.5837155825487136e-15 -1.5840756035471100e-15 0.0000000000000000e+00  -4.5211298038748211e-15 -2.2688917071992571e-14 0.0000000000000000e+00  5.4677354769254833e-15 6.2065245451148358e-15 0.0000000000000000e+00  -5.5758116830469420e-15 3.3780809678531799e-14 0.0000000000000000e+00  -3.5081844680944206e-14 -9.3458994654815412e-15 0.0000000000000000e+00  5.3074881193603807e-15 1.0695403159079791e-14 0.0000000000000000e+00  -4.9684759319680056e-16 2.7157861468140749e-14 0.0000000000000000e+00  -9.3308129671201782e-15 -2.8150046398263480e-14 0.0000000000000000e+00  1.2441616056911502e-15 1.8384268640968741e-15 0.0000000000000000e+00  3.9695261781499416e-15 9.8927389522475437e-15 0.0000000000000000e+00  6.1377965140212180e-15 7.0170516154975298e-14 0.0000000000000000e+00  4.9129027044412137e-15 -2.7210610975638930e-14 0.0000000000000000e+00  -6.0454917435675335e-15 -1.8637706176556101e-14 0.0000000000000000e+00  1.1639834271874500e-14 2.8866704866071772e-14 0.0000000000000000e+00  -7.5479365552562709e-15 -1.9911158825656919e-14 0.0000000000000000e+00  -4.2589307793294578e-14 -4.0311384871241521e-15 0.0000000000000000e+00  7.1767792399106820e-15 2.9655926044272508e-15 0.0000000000000000e+00  -6.0650702056429332e-15 7.9244541679826733e-15 0.0000000000000000e+00  -9.9802543360607541e-15 -6.1051548976307119e-14 0.0000000000000000e+00  -2.2024547326601229e-16 -9.7901660528533969e-15 0.0000000000000000e+00  1.4480047117795742e-14 -2.0364429915495893e-14 0.0000000000000000e+00  2.9234354324469460e-15 1.8415541312641865e-14 0.0000000000000000e+00  -1.0097730374005530e-14 -5.2366234618021349e-14 0.0000000000000000e+00  6.7066544990022087e-15 -7.3278956788176306e-15 0.0000000000000000e+00  8.0146519796437463e-15 -2.0263742614854857e-15 0.0000000000000000e+00  -1.2203255056452633e-14 -2.9316231591353376e-14 0.0000000000000000e+00  -2.5046564250494445e-14 -5.6820212117017621e-16 0.0000000000000000e+00  9.5082469162650217e-15 -2.3443413064616408e-15 0.0000000000000000e+00  -1.1855110568201362e-14 4.8067636466975255e-15 0.0000000000000000e+00  -1.0971754818912613e-14 -3.7458440477309071e-14 0.0000000000000000e+00  8.5205143432292527e-15 -2.5494940986527926e-14 0.0000000000000000e+00  6.4416261280507859e-15 3.6496284684975670e-14 0.0000000000000000e+00  2.2270001515452991e-16 -4.1639069602392669e-14 0.0000000000000000e+00  -1.1674481059361105e-16 -6.3614018359053946e-15 0.0000000000000000e+00  7.5792825254674489e-15 2.4049657377208206e-14 0.0000000000000000e+00  7.4841982869109863e-15 -9.6559310579119504e-15 0.0000000000000000e+00  -8.9745029261906274e-15 4.8532575984594347e-14 0.0000000000000000e+00  -3.0921333725627609e-14 2.0481351608455031e-14 0.0000000000000000e+00  5.3264770188243033e-15 2.4689441533351840e-14 0.0000000000000000e+00  -1.4166772755875180e-14 2.8401768200914903e-14 0.0000000000000000e+00  -1.5192673282334685e-14 -2.0861845715104614e-14 0.0000000000000000e+00  1.6266748866248758e-14 2.0814867689839891e-14 0.0000000000000000e+00  1.3897153536196415e-14 5.1738960159781101e-14 0.0000000000000000e+00  -6.6397153494724972e-15 2.0876368456348870e-15 0.0000000000000000e+00  6.7414217536467033e-16 -8.5144487162755956e-15 0.0000000000000000e+00  2.1238137121151201e-15 -4.2576748874690851e-14 0.0000000000000000e+00  9.3741590953590881e-15 -1.2368360725812309e-15 0.0000000000000000e+00  -2.6091843679279227e-15 3.7489218050099127e-15 0.0000000000000000e+00  -3.7346970506950798e-14 1.3117337043852517e-14 0.0000000000000000e+00  1.5171660709766878e-14 2.7896292454753270e-15 0.0000000000000000e+00  -2.2614218737746113e-14 1.3677769115294404e-14 0.0000000000000000e+00  -1.1496241150041953e-14 -1.1958974449748160e-14 0.0000000000000000e+00  1.8867448226070011e-14 4.5044336232407509e-14 0.0000000000000000e+00  2.7490227074735374e-15 -3.2863252694496360e-14 0.0000000000000000e+00  -1.1899344679203796e-14 -3.2566283376221038e-14 0.0000000000000000e+00  -4.3016841916559998e-15 -4.0158730005361627e-14 0.0000000000000000e+00  1.2605490999740487e-14 -5.8484582373416071e-14 0.0000000000000000e+00  1.6356320562260912e-14 -9.2142298761298183e-15 0.0000000000000000e+00  -5.8062933637861499e-15 8.9276603544672703e-16 0.0000000000000000e+00  -3.1470615146078372e-14 2.7198861249209055e-14 0.0000000000000000e+00  8.8575719458495169e-15 6.5704148459342899e-15 0.0000000000000000e+00  -1.7497347954793899e-14 -2.4491679531404274e-14 0.0000000000000000e+00  -7.4684650039613066e-15 2.2649393829729049e-14 0.0000000000000000e+00  1.6477344478394363e-14 -2.2814432775582148e-15 0.0000000000000000e+00  -1.8920373759291803e-15 9.3886908619083119e-15 0.0000000000000000e+00  -1.1696146455808805e-14 -2.2453551660237107e-15 0.0000000000000000e+00  -8.3472516551417668e-15 -1.9460795891597406e-14 0.0000000000000000e+00  1.0844883167095809e-14 -1.4621387621963476e-14 0.0000000000000000e+00  1.6882891831005689e-14 -6.4433856366153295e-14 0.0000000000000000e+00  7.4253373207585589e-15 6.4751236464536643e-15 0.0000000000000000e+00  -2.7316959725282202e-14 6.4544011237300609e-15 0.0000000000000000e+00  -8.8481099613183642e-16 7.0605114374472560e-14 0.0000000000000000e+00  -1.8478197896922603e-14 -1.9168726705200345e-14 0.0000000000000000e+00  -1.3687723497859028e-14 2.2207794525044116e-14 0.0000000000000000e+00  1.3102242644016137e-14 -1.7856469907400585e-14 0.0000000000000000e+00  1.7120754355069242e-15 -2.4075001726320906e-14 0.0000000000000000e+00  -1.1433147312338572e-14 -7.4067014526376048e-14 0.0000000000000000e+00  -4.0029158677830428e-15 5.9594152353517083e-14 0.0000000000000000e+00  1.3434065472533594e-15 -8.9825955980026449e-15 0.0000000000000000e+00  2.2164731801220160e-14 -3.7894864093100738e-14 0.0000000000000000e+00  8.4744517568551137e-15 3.6494036872289405e-14 0.0000000000000000e+00  -4.0072128604931607e-14 -4.8119065985632380e-14 0.0000000000000000e+00  -1.5006411500783575e-14 4.9918718839695014e-14 0.0000000000000000e+00  -2.7869148879113608e-14 -4.7126365786469901e-14 0.0000000000000000e+00  -1.4581735688366504e-15 -1.6538062758189179e-14 0.0000000000000000e+00  1.2695393655071902e-14 4.6951681954406047e-14 0.0000000000000000e+00  -9.0947881501616770e-15 -1.5455406423098843e-14 0.0000000000000000e+00  -5.0507606401538199e-15 -1.4283426525902398e-14 0.0000000000000000e+00  4.6675201206721913e-15 4.1103167033974883e-14 0.0000000000000000e+00  -6.5798485169301242e-15 3.7430862757713642e-14 0.0000000000000000e+00  2.7261392504859377e-14 4.9064542950668391e-14 0.0000000000000000e+00  -2.3095866025444610e-16 3.2812014547242117e-14 0.0000000000000000e+00  -5.7121346915069522e-14 -6.9689278203402668e-14 0.0000000000000000e+00  -2.4952086123159360e-14 -1.6919345614446211e-14 0.0000000000000000e+00  -3.0910619857348850e-14 -5.1098122966801511e-15 0.0000000000000000e+00  6.2014476676067596e-15 -1.7705898180202174e-14 0.0000000000000000e+00  6.3937223004527159e-15 6.4025062820796278e-14 0.0000000000000000e+00  -1.2786053088239362e-14 -9.0711340774729085e-14 0.0000000000000000e+00  6.0791640961495226e-15 2.5349999111419854e-14 0.0000000000000000e+00  -3.9120783001496927e-16 -4.5905868325764364e-15 0.0000000000000000e+00  2.5158711153367834e-15 5.0373473883954437e-14 0.0000000000000000e+00  2.4836765063121015e-14 -1.1068173718771753e-14 0.0000000000000000e+00  -1.3974560148272843e-14 3.3379234778911931e-15 0.0000000000000000e+00  -6.4989272812877227e-14 -1.2757151675298275e-14 0.0000000000000000e+00  -2.1363042429176517e-14 5.5181592823116897e-15 0.0000000000000000e+00  -3.1483872828917084e-14 2.9866595314125647e-14 0.0000000000000000e+00  6.6048100086908184e-15 -2.5090467456733546e-14 0.0000000000000000e+00  1.9132594494961766e-15 -2.7708649946860410e-14 0.0000000000000000e+00  -1.5502672491764742e-14 6.2576326296852652e-15 0.0000000000000000e+00  1.5852454233513269e-14 -4.9895698008673575e-14 0.0000000000000000e+00  1.5127031038984808e-14 5.5149703773890301e-14 0.0000000000000000e+00  -6.4016706475959673e-15 1.1090035654337311e-13 0.0000000000000000e+00  1.2187841704837745e-14 -1.5555127688292123e-15 0.0000000000000000e+00  -1.9597133768155873e-15 -1.1081301370592054e-14 0.0000000000000000e+00  -5.7008637206277648e-14 2.6911471303341111e-15 0.0000000000000000e+00  -2.1002266656060862e-14 -8.2772708301058884e-15 0.0000000000000000e+00  -3.1681807539238872e-14 2.1265298748183587e-14 0.0000000000000000e+00  -3.8938796676220026e-16 2.4742096966182402e-14 0.0000000000000000e+00  1.3596856458449203e-14 2.7010024027692166e-14 0.0000000000000000e+00  -1.8530234082236676e-14 1.8548544396731116e-14 0.0000000000000000e+00  5.9324872837217519e-15 4.9458412920049591e-15 0.0000000000000000e+00  2.8922535123425823e-14 2.3830420949209132e-14 0.0000000000000000e+00  -1.1184962220162301e-14 -3.1792260873941895e-14 0.0000000000000000e+00  6.8235015416283015e-15 1.4165959569739541e-14 0.0000000000000000e+00  -1.1044494585846404e-14 -1.7156805801013923e-14 0.0000000000000000e+00  -7.8338726820541508e-14 -6.9080852342449434e-14 0.0000000000000000e+00  -1.4956580758831660e-14 -3.1370734088023836e-14 0.0000000000000000e+00  -2.5069723726660671e-14 6.7825878046786807e-14 0.0000000000000000e+00  3.4683908722204784e-15 -3.4787112951519150e-14 0.0000000000000000e+00  -7.1647892832673597e-15 5.1512448840016669e-15 0.0000000000000000e+00  -1.5113925597208459e-14 -7.3107644463348571e-14 0.0000000000000000e+00  2.2939999634398410e-14 -3.0325929592348737e-15 0.0000000000000000e+00  1.7440397756746369e-14 5.0326716075279806e-14 0.0000000000000000e+00  -1.0270768592949755e-14 -9.7940337848593434e-15 0.0000000000000000e+00  8.7484264649774740e-15 5.2934141095765430e-14 0.0000000000000000e+00  -1.4545094240706313e-14 -2.0429838565900044e-14 0.0000000000000000e+00  -7.2297881344490308e-14 1.8390889714062044e-14 0.0000000000000000e+00  1.1646513075077272e-14 -2.5439929541904250e-14 0.0000000000000000e+00  -3.4308634442840178e-14 1.4644238941581352e-14 0.0000000000000000e+00  -6.6987122965357930e-15 -2.9474439831616499e-14 0.0000000000000000e+00  8.2315463275029106e-15 -9.7480681476058152e-15 0.0000000000000000e+00  -1.8115301475083355e-14 6.5415595218690675e-14 0.0000000000000000e+00  2.4114298754239460e-14 1.5650094625710397e-14 0.0000000000000000e+00  1.9089450494568155e-14 5.9825567769117893e-14 0.0000000000000000e+00  -8.8579512614287305e-15 -1.8792446244011890e-14 0.0000000000000000e+00  8.1613099983342580e-15 2.9579370433433823e-14 0.0000000000000000e+00  -2.4524059170129069e-14 -1.8856784811633704e-14 0.0000000000000000e+00  -5.7217424000231046e-14 -5.4012979189306170e-15 0.0000000000000000e+00  1.1220457878118391e-14 -6.7127088210487168e-14 0.0000000000000000e+00  -2.4872658054179475e-14 -3.0019266086321162e-14 0.0000000000000000e+00  -2.8751854035743959e-15 9.2828544475480445e-16 0.0000000000000000e+00  8.7209754523175984e-15 -3.5446389473629333e-14 0.0000000000000000e+00  -1.0784215428000237e-14 7.0336862336887900e-14 0.0000000000000000e+00  2.722