<?xml version="1.0"?>
<VTKFile type="UnstructuredGrid"  version="0.1"  >
<UnstructuredGrid>
<Piece  NumberOfPoints="1091" NumberOfCells="2050">
<Points>
<DataArray  type="Float64"  NumberOfComponents="3"  format="ascii">-0.5 -1 0  -0.4 -1 0  -0.3 -1 0  -0.2 -1 0  -0.09999999999999998 -1 0  0 -1 0  0.09999999999999998 -1 0  0.2 -1 0  0.3 -1 0  0.4 -1 0  0.5 -1 0  -0.5 -0.98 0  -0.4 -0.98 0  -0.3 -0.98 0  -0.2 -0.98 0  -0.09999999999999998 -0.98 0  0 -0.98 0  0.09999999999999998 -0.98 0  0.2 -0.98 0  0.3 -0.98 0  0.4 -0.98 0  0.5 -0.98 0  -0.5 -0.96 0  -0.4 -0.96 0  -0.3 -0.96 0  -0.2 -0.96 0  -0.09999999999999998 -0.96 0  0 -0.96 0  0.09999999999999998 -0.96 0  0.2 -0.96 0  0.3 -0.96 0  0.4 -0.96 0  0.5 -0.96 0  -0.5 -0.9399999999999999 0  -0.4 -0.9399999999999999 0  -0.3 -0.9399999999999999 0  -0.2 -0.9399999999999999 0  -0.09999999999999998 -0.9399999999999999 0  0 -0.9399999999999999 0  0.09999999999999998 -0.9399999999999999 0  0.2 -0.9399999999999999 0  0.3 -0.9399999999999999 0  0.4 -0.9399999999999999 0  0.5 -0.9399999999999999 0  -0.5 -0.92 0  -0.4 -0.92 0  -0.3 -0.92 0  -0.2 -0.92 0  -0.09999999999999998 -0.92 0  0 -0.92 0  0.09999999999999998 -0.92 0  0.2 -0.92 0  0.3 -0.92 0  0.4 -0.92 0  0.5 -0.92 0  -0.5 -0.9 0  -0.4 -0.9 0  -0.3 -0.9 0  -0.2 -0.9 0  -0.09999999999999998 -0.9 0  0 -0.9 0  0.09999999999999998 -0.9 0  0.2 -0.9 0  0.3 -0.9 0  0.4 -0.9 0  0.5 -0.9 0  -0.5 -0.88 0  -0.4 -0.88 0  -0.3 -0.88 0  -0.2 -0.88 0  -0.09999999999999998 -0.88 0  0 -0.88 0  0.09999999999999998 -0.88 0  0.2 -0.88 0  0.3 -0.88 0  0.4 -0.88 0  0.5 -0.88 0  -0.5 -0.86 0  -0.4 -0.86 0  -0.3 -0.86 0  -0.2 -0.86 0  -0.09999999999999998 -0.86 0  0 -0.86 0  0.09999999999999998 -0.86 0  0.2 -0.86 0  0.3 -0.86 0  0.4 -0.86 0  0.5 -0.86 0  -0.5 -0.84 0  -0.4 -0.84 0  -0.3 -0.84 0  -0.2 -0.84 0  -0.09999999999999998 -0.84 0  0 -0.84 0  0.09999999999999998 -0.84 0  0.2 -0.84 0  0.3 -0.84 0  0.4 -0.84 0  0.5 -0.84 0  -0.5 -0.8200000000000001 0  -0.4 -0.8200000000000001 0  -0.3 -0.8200000000000001 0  -0.2 -0.8200000000000001 0  -0.09999999999999998 -0.8200000000000001 0  0 -0.8200000000000001 0  0.09999999999999998 -0.8200000000000001 0  0.2 -0.8200000000000001 0  0.3 -0.8200000000000001 0  0.4 -0.8200000000000001 0  0.5 -0.8200000000000001 0  -0.5 -0.8 0  -0.4 -0.8 0  -0.3 -0.8 0  -0.2 -0.8 0  -0.09999999999999998 -0.8 0  0 -0.8 0  0.09999999999999998 -0.8 0  0.2 -0.8 0  0.3 -0.8 0  0.4 -0.8 0  0.5 -0.8 0  -0.5 -0.78 0  -0.4 -0.78 0  -0.3 -0.78 0  -0.2 -0.78 0  -0.09999999999999998 -0.78 0  0 -0.78 0  0.09999999999999998 -0.78 0  0.2 -0.78 0  0.3 -0.78 0  0.4 -0.78 0  0.5 -0.78 0  -0.5 -0.76 0  -0.4 -0.76 0  -0.3 -0.76 0  -0.2 -0.76 0  -0.09999999999999998 -0.76 0  0 -0.76 0  0.09999999999999998 -0.76 0  0.2 -0.76 0  0.3 -0.76 0  0.4 -0.76 0  0.5 -0.76 0  -0.5 -0.74 0  -0.4 -0.74 0  -0.3 -0.74 0  -0.2 -0.74 0  -0.09999999999999998 -0.74 0  0 -0.74 0  0.09999999999999998 -0.74 0  0.2 -0.74 0  0.3 -0.74 0  0.4 -0.74 0  0.5 -0.74 0  -0.5 -0.72 0  -0.4 -0.72 0  -0.3 -0.72 0  -0.2 -0.72 0  -0.09999999999999998 -0.72 0  0 -0.72 0  0.09999999999999998 -0.72 0  0.2 -0.72 0  0.3 -0.72 0  0.4 -0.72 0  0.5 -0.72 0  -0.5 -0.7 0  -0.4 -0.7 0  -0.3 -0.7 0  -0.2 -0.7 0  -0.09999999999999998 -0.7 0  0 -0.7 0  0.09999999999999998 -0.7 0  0.2 -0.7 0  0.3 -0.7 0  0.4 -0.7 0  0.5 -0.7 0  -0.5 -0.6799999999999999 0  -0.4 -0.6799999999999999 0  -0.3 -0.6799999999999999 0  -0.2 -0.6799999999999999 0  -0.09999999999999998 -0.6799999999999999 0  0 -0.6799999999999999 0  0.09999999999999998 -0.6799999999999999 0  0.2 -0.6799999999999999 0  0.3 -0.6799999999999999 0  0.4 -0.6799999999999999 0  0.5 -0.6799999999999999 0  -0.5 -0.6599999999999999 0  -0.4 -0.6599999999999999 0  -0.3 -0.6599999999999999 0  -0.2 -0.6599999999999999 0  -0.09999999999999998 -0.6599999999999999 0  0 -0.6599999999999999 0  0.09999999999999998 -0.6599999999999999 0  0.2 -0.6599999999999999 0  0.3 -0.6599999999999999 0  0.4 -0.6599999999999999 0  0.5 -0.6599999999999999 0  -0.5 -0.64 0  -0.4 -0.64 0  -0.3 -0.64 0  -0.2 -0.64 0  -0.09999999999999998 -0.64 0  0 -0.64 0  0.09999999999999998 -0.64 0  0.2 -0.64 0  0.3 -0.64 0  0.4 -0.64 0  0.5 -0.64 0  -0.5 -0.62 0  -0.4 -0.62 0  -0.3 -0.62 0  -0.2 -0.62 0  -0.09999999999999998 -0.62 0  0 -0.62 0  0.09999999999999998 -0.62 0  0.2 -0.62 0  0.3 -0.62 0  0.4 -0.62 0  0.5 -0.62 0  -0.5 -0.6 0  -0.4 -0.6 0  -0.3 -0.6 0  -0.2 -0.6 0  -0.09999999999999998 -0.6 0  0 -0.6 0  0.09999999999999998 -0.6 0  0.2 -0.6 0  0.3 -0.6 0  0.4 -0.6 0  0.5 -0.6 0  -0.5 -0.5800000000000001 0  -0.4 -0.5800000000000001 0  -0.3 -0.5800000000000001 0  -0.2 -0.5800000000000001 0  -0.09999999999999998 -0.5800000000000001 0  0 -0.5800000000000001 0  0.09999999999999998 -0.5800000000000001 0  0.2 -0.5800000000000001 0  0.3 -0.5800000000000001 0  0.4 -0.5800000000000001 0  0.5 -0.5800000000000001 0  -0.5 -0.5600000000000001 0  -0.4 -0.5600000000000001 0  -0.3 -0.5600000000000001 0  -0.2 -0.5600000000000001 0  -0.09999999999999998 -0.5600000000000001 0  0 -0.5600000000000001 0  0.09999999999999998 -0.5600000000000001 0  0.2 -0.5600000000000001 0  0.3 -0.5600000000000001 0  0.4 -0.5600000000000001 0  0.5 -0.5600000000000001 0  -0.5 -0.54 0  -0.4 -0.54 0  -0.3 -0.54 0  -0.2 -0.54 0  -0.09999999999999998 -0.54 0  0 -0.54 0  0.09999999999999998 -0.54 0  0.2 -0.54 0  0.3 -0.54 0  0.4 -0.54 0  0.5 -0.54 0  -0.5 -0.52 0  -0.4 -0.52 0  -0.3 -0.52 0  -0.2 -0.52 0  -0.09999999999999998 -0.52 0  0 -0.52 0  0.09999999999999998 -0.52 0  0.2 -0.52 0  0.3 -0.52 0  0.4 -0.52 0  0.5 -0.52 0  -0.5 -0.5 0  -0.4 -0.5 0  -0.3 -0.5 0  -0.2 -0.5 0  -0.09999999999999998 -0.5 0  0 -0.5 0  0.09999999999999998 -0.5 0  0.2 -0.5 0  0.3 -0.5 0  0.4 -0.5 0  0.5 -0.5 0  -0.5 -0.48 0  -0.4 -0.48 0  -0.3 -0.48 0  -0.2 -0.48 0  -0.09999999999999998 -0.48 0  0 -0.48 0  0.09999999999999998 -0.48 0  0.2 -0.48 0  0.3 -0.48 0  0.4 -0.48 0  0.5 -0.48 0  -0.5 -0.46 0  -0.4 -0.46 0  -0.3 -0.46 0  -0.2 -0.46 0  -0.09999999999999998 -0.46 0  0 -0.46 0  0.09999999999999998 -0.46 0  0.2 -0.46 0  0.3 -0.46 0  0.4 -0.46 0  0.5 -0.46 0  -0.5 -0.4399999999999999 0  -0.4 -0.4399999999999999 0  -0.3 -0.4399999999999999 0  -0.2 -0.4399999999999999 0  -0.09999999999999998 -0.4399999999999999 0  0 -0.4399999999999999 0  0.09999999999999998 -0.4399999999999999 0  0.2 -0.4399999999999999 0  0.3 -0.4399999999999999 0  0.4 -0.4399999999999999 0  0.5 -0.4399999999999999 0  -0.5 -0.42 0  -0.4 -0.42 0  -0.3 -0.42 0  -0.2 -0.42 0  -0.09999999999999998 -0.42 0  0 -0.42 0  0.09999999999999998 -0.42 0  0.2 -0.42 0  0.3 -0.42 0  0.4 -0.42 0  0.5 -0.42 0  -0.5 -0.4 0  -0.4 -0.4 0  -0.3 -0.4 0  -0.2 -0.4 0  -0.09999999999999998 -0.4 0  0 -0.4 0  0.09999999999999998 -0.4 0  0.2 -0.4 0  0.3 -0.4 0  0.4 -0.4 0  0.5 -0.4 0  -0.5 -0.38 0  -0.4 -0.38 0  -0.3 -0.38 0  -0.2 -0.38 0  -0.09999999999999998 -0.38 0  0 -0.38 0  0.09999999999999998 -0.38 0  0.2 -0.38 0  0.3 -0.38 0  0.4 -0.38 0  0.5 -0.38 0  -0.5 -0.36 0  -0.4 -0.36 0  -0.3 -0.36 0  -0.2 -0.36 0  -0.09999999999999998 -0.36 0  0 -0.36 0  0.09999999999999998 -0.36 0  0.2 -0.36 0  0.3 -0.36 0  0.4 -0.36 0  0.5 -0.36 0  -0.5 -0.34 0  -0.4 -0.34 0  -0.3 -0.34 0  -0.2 -0.34 0  -0.09999999999999998 -0.34 0  0 -0.34 0  0.09999999999999998 -0.34 0  0.2 -0.34 0  0.3 -0.34 0  0.4 -0.34 0  0.5 -0.34 0  -0.5 -0.32 0  -0.4 -0.32 0  -0.3 -0.32 0  -0.2 -0.32 0  -0.09999999999999998 -0.32 0  0 -0.32 0  0.09999999999999998 -0.32 0  0.2 -0.32 0  0.3 -0.32 0  0.4 -0.32 0  0.5 -0.32 0  -0.5 -0.3 0  -0.4 -0.3 0  -0.3 -0.3 0  -0.2 -0.3 0  -0.09999999999999998 -0.3 0  0 -0.3 0  0.09999999999999998 -0.3 0  0.2 -0.3 0  0.3 -0.3 0  0.4 -0.3 0  0.5 -0.3 0  -0.5 -0.28 0  -0.4 -0.28 0  -0.3 -0.28 0  -0.2 -0.28 0  -0.09999999999999998 -0.28 0  0 -0.28 0  0.09999999999999998 -0.28 0  0.2 -0.28 0  0.3 -0.28 0  0.4 -0.28 0  0.5 -0.28 0  -0.5 -0.26 0  -0.4 -0.26 0  -0.3 -0.26 0  -0.2 -0.26 0  -0.09999999999999998 -0.26 0  0 -0.26 0  0.09999999999999998 -0.26 0  0.2 -0.26 0  0.3 -0.26 0  0.4 -0.26 0  0.5 -0.26 0  -0.5 -0.24 0  -0.4 -0.24 0  -0.3 -0.24 0  -0.2 -0.24 0  -0.09999999999999998 -0.24 0  0 -0.24 0  0.09999999999999998 -0.24 0  0.2 -0.24 0  0.3 -0.24 0  0.4 -0.24 0  0.5 -0.24 0  -0.5 -0.22 0  -0.4 -0.22 0  -0.3 -0.22 0  -0.2 -0.22 0  -0.09999999999999998 -0.22 0  0 -0.22 0  0.09999999999999998 -0.22 0  0.2 -0.22 0  0.3 -0.22 0  0.4 -0.22 0  0.5 -0.22 0  -0.5 -0.2 0  -0.4 -0.2 0  -0.3 -0.2 0  -0.2 -0.2 0  -0.09999999999999998 -0.2 0  0 -0.2 0  0.09999999999999998 -0.2 0  0.2 -0.2 0  0.3 -0.2 0  0.4 -0.2 0  0.5 -0.2 0  -0.5 -0.18 0  -0.4 -0.18 0  -0.3 -0.18 0  -0.2 -0.18 0  -0.09999999999999998 -0.18 0  0 -0.18 0  0.09999999999999998 -0.18 0  0.2 -0.18 0  0.3 -0.18 0  0.4 -0.18 0  0.5 -0.18 0  -0.5 -0.16 0  -0.4 -0.16 0  -0.3 -0.16 0  -0.2 -0.16 0  -0.09999999999999998 -0.16 0  0 -0.16 0  0.09999999999999998 -0.16 0  0.2 -0.16 0  0.3 -0.16 0  0.4 -0.16 0  0.5 -0.16 0  -0.5 -0.14 0  -0.4 -0.14 0  -0.3 -0.14 0  -0.2 -0.14 0  -0.09999999999999998 -0.14 0  0 -0.14 0  0.09999999999999998 -0.14 0  0.2 -0.14 0  0.3 -0.14 0  0.4 -0.14 0  0.5 -0.14 0  -0.5 -0.12 0  -0.4 -0.12 0  -0.3 -0.12 0  -0.2 -0.12 0  -0.09999999999999998 -0.12 0  0 -0.12 0  0.09999999999999998 -0.12 0  0.2 -0.12 0  0.3 -0.12 0  0.4 -0.12 0  0.5 -0.12 0  -0.5 -0.09999999999999998 0  -0.4 -0.09999999999999998 0  -0.3 -0.09999999999999998 0  -0.2 -0.09999999999999998 0  -0.09999999999999998 -0.09999999999999998 0  0 -0.09999999999999998 0  0.09999999999999998 -0.09999999999999998 0  0.2 -0.09999999999999998 0  0.3 -0.09999999999999998 0  0.4 -0.09999999999999998 0  0.5 -0.09999999999999998 0  -0.5 -0.07999999999999996 0  -0.4 -0.07999999999999996 0  -0.3 -0.07999999999999996 0  -0.2 -0.07999999999999996 0  -0.09999999999999998 -0.07999999999999996 0  0 -0.07999999999999996 0  0.09999999999999998 -0.07999999999999996 0  0.2 -0.07999999999999996 0  0.3 -0.07999999999999996 0  0.4 -0.07999999999999996 0  0.5 -0.07999999999999996 0  -0.5 -0.06000000000000005 0  -0.4 -0.06000000000000005 0  -0.3 -0.06000000000000005 0  -0.2 -0.06000000000000005 0  -0.09999999
[...]
<PointData  Vectors="flow"> 
<DataArray  type="Float64"  Name="flow"  NumberOfComponents="3" format="ascii">-2.8943960179007924e-15 -2.6264530288191764e-15 0.0000000000000000e+00  -1.3883020873675723e-15 7.3921206112979844e-15 0.0000000000000000e+00  -4.2046276070273182e-16 -7.2964690265177686e-15 0.0000000000000000e+00  2.0022111157033453e-15 4.6492838465704365e-15 0.0000000000000000e+00  1.0291275120134802e-15 4.2583262691352828e-15 0.0000000000000000e+00  1.0425414619871311e-15 -1.3839879881321383e-15 0.0000000000000000e+00  2.6767349249379244e-15 -1.4436974749001064e-15 0.0000000000000000e+00  6.6768996362430598e-16 -5.5391450408040940e-16 0.0000000000000000e+00  1.8492295861462432e-15 2.1373631392431135e-15 0.0000000000000000e+00  1.3431753375385604e-15 -7.8472283963050726e-17 0.0000000000000000e+00  1.9798064472487892e-15 -4.2962417645558329e-15 0.0000000000000000e+00  -5.9417517503436939e-16 -8.6632457459650190e-16 0.0000000000000000e+00  -1.9910644662714001e-15 3.1422432952902749e-15 0.0000000000000000e+00  -1.0113308382169074e-15 -2.4185492467088707e-15 0.0000000000000000e+00  2.9467233215127852e-15 3.1724209050919660e-15 0.0000000000000000e+00  2.9059447064095268e-16 3.3079390800427606e-15 0.0000000000000000e+00  4.6042536683336630e-16 -3.0571644976682283e-15 0.0000000000000000e+00  3.5550402459659415e-15 -1.6058411169688050e-15 0.0000000000000000e+00  1.2043605803798665e-15 2.0734451209418032e-15 0.0000000000000000e+00  1.4760910713759518e-15 2.4419985811505159e-15 0.0000000000000000e+00  1.5198664564766252e-15 2.2280997453286435e-16 0.0000000000000000e+00  1.3196644485195641e-15 3.7173768974075795e-16 0.0000000000000000e+00  -1.0319114338547627e-15 -1.7368680822011853e-16 0.0000000000000000e+00  -1.7121705946293007e-15 8.4050286575564200e-16 0.0000000000000000e+00  -4.3347793083701655e-16 -2.6620157017010687e-15 0.0000000000000000e+00  3.3627118057775544e-15 3.9959857823328562e-15 0.0000000000000000e+00  1.1156668172356865e-16 -2.6652803413704637e-15 0.0000000000000000e+00  -5.1306825089123780e-17 4.3935134314863481e-15 0.0000000000000000e+00  3.7466013993461317e-15 9.9325985721386532e-15 0.0000000000000000e+00  1.5463083770959332e-15 1.3448427623507417e-15 0.0000000000000000e+00  9.3558165949033315e-16 -1.8212940163376183e-15 0.0000000000000000e+00  7.8627381222026890e-16 1.6304650481331855e-15 0.0000000000000000e+00  7.6199473925935863e-16 -1.6769153842507664e-15 0.0000000000000000e+00  -4.0613774453757580e-17 5.1009411395697310e-15 0.0000000000000000e+00  -2.6383286706431956e-15 -1.5334386214277982e-15 0.0000000000000000e+00  -3.5295033137637831e-16 -1.3630081321679631e-15 0.0000000000000000e+00  3.2442239878579643e-15 -3.2450807900559623e-16 0.0000000000000000e+00  -2.9388261007118156e-16 -5.1096846822388967e-15 0.0000000000000000e+00  2.7136876330641201e-15 8.1393947154490100e-15 0.0000000000000000e+00  3.4506120302821522e-15 6.7344820172716569e-15 0.0000000000000000e+00  -1.3601530401359867e-15 1.3285935045923324e-14 0.0000000000000000e+00  2.2381811818263386e-15 -1.8608990374859594e-14 0.0000000000000000e+00  1.2970775107785884e-15 1.3924740964499841e-14 0.0000000000000000e+00  5.0801938990636786e-16 2.3805699680947629e-16 0.0000000000000000e+00  -3.2419597997992455e-15 1.0674168836694188e-14 0.0000000000000000e+00  -3.1563843615505967e-15 -4.5026236579376943e-15 0.0000000000000000e+00  -1.8151389782649666e-16 -1.8678633002618870e-15 0.0000000000000000e+00  2.1061737711924100e-15 -1.3769697944838985e-14 0.0000000000000000e+00  2.7252011628918690e-15 6.8705739432390976e-15 0.0000000000000000e+00  2.8179457126768981e-15 1.1987942710160250e-14 0.0000000000000000e+00  4.3633264882758038e-15 4.1261645241339514e-15 0.0000000000000000e+00  -5.0314285231868853e-15 2.0533511005134731e-14 0.0000000000000000e+00  1.5323259190680801e-15 -2.5267295403008943e-14 0.0000000000000000e+00  4.5455027594969155e-15 1.2618709209958995e-14 0.0000000000000000e+00  -4.3865637247723617e-15 -1.1505785626908954e-14 0.0000000000000000e+00  -6.7105876183333362e-15 -4.8903258323436733e-15 0.0000000000000000e+00  -4.4325354158280737e-15 1.5369972609681457e-15 0.0000000000000000e+00  -2.1274827447910910e-15 -4.1652143306470526e-15 0.0000000000000000e+00  4.8093797792027292e-15 3.5558158156702125e-15 0.0000000000000000e+00  4.1832664271824173e-15 -5.9075647335614617e-15 0.0000000000000000e+00  1.4065271540480495e-15 -9.6104444059308835e-15 0.0000000000000000e+00  6.2205009912296849e-15 -4.7927068260370053e-15 0.0000000000000000e+00  -5.9367922572702001e-15 1.2556683965265497e-16 0.0000000000000000e+00  1.1750342776799973e-15 9.8351684636029087e-15 0.0000000000000000e+00  3.7540701470681794e-15 4.0107316482097702e-15 0.0000000000000000e+00  -1.1018308637201945e-14 -9.6016047833059910e-15 0.0000000000000000e+00  -2.3705074111391203e-15 -1.0693944359672029e-14 0.0000000000000000e+00  -3.2583748075140481e-15 -4.6516497697039774e-15 0.0000000000000000e+00  6.8393619906770695e-17 2.8783280264618803e-15 0.0000000000000000e+00  1.1475454793348691e-15 1.0389438789518295e-14 0.0000000000000000e+00  5.2922388698068699e-16 -3.0859589954290918e-14 0.0000000000000000e+00  3.2367829744205852e-15 -9.0825083923401800e-15 0.0000000000000000e+00  6.5507294524645197e-15 -1.5417359459833387e-14 0.0000000000000000e+00  -3.8521642575295794e-15 -1.5417055316989223e-14 0.0000000000000000e+00  2.1171460519693786e-15 3.8572265911337231e-16 0.0000000000000000e+00  1.1683415210902891e-15 -1.2615677949215433e-14 0.0000000000000000e+00  -8.9192953545189649e-15 -1.2106364045713415e-14 0.0000000000000000e+00  -8.0156340658183555e-16 -1.4018621063192001e-14 0.0000000000000000e+00  -1.9040586756826450e-15 -5.0706501300651422e-15 0.0000000000000000e+00  8.8848615497490266e-16 1.3935907976835331e-15 0.0000000000000000e+00  -6.3213293573659260e-16 -9.1319649164981400e-15 0.0000000000000000e+00  1.2326861339096889e-15 3.6939707957973508e-15 0.0000000000000000e+00  4.4574268696152285e-15 1.0022606866474526e-14 0.0000000000000000e+00  4.3704407735072621e-15 1.7254930303786625e-14 0.0000000000000000e+00  -2.0777890405562814e-15 -2.4995162139193421e-15 0.0000000000000000e+00  9.4287991953766545e-16 2.5168914085547898e-15 0.0000000000000000e+00  -9.7305446740727994e-16 -9.0714784540799238e-15 0.0000000000000000e+00  -6.9326800581370739e-15 -2.5762966388990879e-14 0.0000000000000000e+00  -2.3469509495002253e-15 -1.1945669450795635e-14 0.0000000000000000e+00  3.8773217122712584e-16 2.5095200268036959e-15 0.0000000000000000e+00  -2.2619149700630975e-16 -1.6736671731728452e-14 0.0000000000000000e+00  1.3355860592837971e-15 1.0280159628128394e-14 0.0000000000000000e+00  2.0136328282349823e-15 3.6798367758776094e-15 0.0000000000000000e+00  7.7779569988938431e-15 -9.4893901959043716e-15 0.0000000000000000e+00  2.6843199548594437e-15 5.0454168406236668e-14 0.0000000000000000e+00  -5.2013563424088030e-15 7.8076701188762614e-15 0.0000000000000000e+00  2.1228489695478016e-15 -4.2008179576460082e-15 0.0000000000000000e+00  -2.3400881438299789e-15 3.3673010348233279e-14 0.0000000000000000e+00  -9.1363241254824478e-15 8.8196866775821730e-15 0.0000000000000000e+00  1.4420393559642113e-15 2.6132086318166345e-14 0.0000000000000000e+00  -4.4096034044428337e-15 1.0605574653359834e-14 0.0000000000000000e+00  2.4301030204723648e-15 1.2339873686927511e-14 0.0000000000000000e+00  2.4453577584242093e-15 1.1812241688019558e-14 0.0000000000000000e+00  -3.0831864150068132e-15 4.0124156507380912e-15 0.0000000000000000e+00  1.3631650287339455e-14 -5.1852806083269361e-15 0.0000000000000000e+00  6.1844419927324387e-15 -1.7079787829268638e-14 0.0000000000000000e+00  -1.3598044373016691e-14 9.6401947009416862e-16 0.0000000000000000e+00  4.1466759643855717e-15 -3.2177978502274124e-14 0.0000000000000000e+00  2.9275178292178356e-15 1.7884183737778788e-14 0.0000000000000000e+00  -2.5417147906731826e-14 -4.3545755991568811e-15 0.0000000000000000e+00  -2.3267236069729922e-15 1.4579374401974735e-14 0.0000000000000000e+00  -2.3179931677727138e-15 1.7769688099967567e-14 0.0000000000000000e+00  4.5215517184131023e-16 4.0394515677494489e-14 0.0000000000000000e+00  -4.7108519579252241e-16 -1.8562507758305595e-14 0.0000000000000000e+00  -1.0394647771591658e-16 -6.7402325541465730e-15 0.0000000000000000e+00  4.3835493048542597e-15 -3.3876659159333195e-15 0.0000000000000000e+00  7.4495530739570249e-15 -3.6323030104875448e-14 0.0000000000000000e+00  -6.6066539552115073e-15 2.1081264907412402e-14 0.0000000000000000e+00  3.0873019207565045e-15 2.8830226819543788e-14 0.0000000000000000e+00  2.6966906082457066e-15 1.0380572167945917e-14 0.0000000000000000e+00  -3.0189077881182405e-14 -2.7704921703162286e-14 0.0000000000000000e+00  5.1324064517859534e-15 -1.4267344465684182e-14 0.0000000000000000e+00  7.7684560760714663e-16 1.5885508121858490e-14 0.0000000000000000e+00  -3.1641893810327530e-15 -1.6293806054994310e-14 0.0000000000000000e+00  -5.1998793665414852e-15 -6.1732330454090774e-16 0.0000000000000000e+00  -1.0593223818245193e-15 -8.1897783049898732e-15 0.0000000000000000e+00  7.1295868751532975e-15 6.1610895697137651e-15 0.0000000000000000e+00  8.8930081018681458e-15 2.2247018965993229e-14 0.0000000000000000e+00  -3.5168996576594407e-15 -1.8785036573533009e-14 0.0000000000000000e+00  5.0323787974551806e-15 2.4725057116386675e-14 0.0000000000000000e+00  -4.7174397936051287e-15 1.6985584221278739e-14 0.0000000000000000e+00  -3.3920289206816952e-14 1.2884046378728769e-15 0.0000000000000000e+00  9.9067592831418975e-15 1.4432267316732706e-15 0.0000000000000000e+00  -3.3289362242062469e-15 2.7177349049558560e-14 0.0000000000000000e+00  -5.2641927842119993e-15 -3.8525276873721304e-14 0.0000000000000000e+00  3.1149378342473097e-16 -1.3289316339512053e-14 0.0000000000000000e+00  9.4438054121323423e-16 -1.0697534932412608e-14 0.0000000000000000e+00  8.4092637884366676e-15 5.5917231932157088e-14 0.0000000000000000e+00  4.9418828581052800e-15 -3.9973172608226042e-14 0.0000000000000000e+00  -5.7039511946999880e-15 -2.2327083893146477e-14 0.0000000000000000e+00  8.5405019911085187e-15 2.9795459963236739e-15 0.0000000000000000e+00  -7.3353128104335563e-15 -2.7520661395253307e-14 0.0000000000000000e+00  -3.3939285025067394e-14 -4.5194405512003768e-14 0.0000000000000000e+00  1.1378752986263663e-14 3.7098126539475709e-15 0.0000000000000000e+00  -6.7455987953107110e-15 -4.3888322021827280e-15 0.0000000000000000e+00  -1.0573916335715335e-14 -4.5312999434712329e-14 0.0000000000000000e+00  5.2850780591617564e-16 -1.1148006118375328e-14 0.0000000000000000e+00  1.4912897964918827e-14 -1.7361655433479455e-14 0.0000000000000000e+00  2.3759040009165746e-15 3.2757785430299950e-14 0.0000000000000000e+00  -6.2806364223374904e-15 -5.9689931462939339e-14 0.0000000000000000e+00  4.2545265970839740e-15 1.5537230302353594e-14 0.0000000000000000e+00  5.1001768677921548e-15 -6.5993148339270169e-15 0.0000000000000000e+00  -1.0226252669883457e-14 2.4950993200025815e-15 0.0000000000000000e+00  -3.5761537394586708e-14 1.9631234302189565e-14 0.0000000000000000e+00  5.3915927005004431e-15 -3.8926601670943291e-15 0.0000000000000000e+00  -1.1080303560861031e-14 2.2817164206787219e-15 0.0000000000000000e+00  -5.2208999089116908e-15 -3.3067943978954563e-14 0.0000000000000000e+00  3.4081135184413401e-15 7.2143528474370797e-15 0.0000000000000000e+00  7.0775075054837561e-15 3.2065439256146225e-14 0.0000000000000000e+00  1.1378597678574634e-16 -3.9343947954847976e-14 0.0000000000000000e+00  -1.0124256409448218e-15 -1.2097563130635956e-14 0.0000000000000000e+00  9.3358626054438026e-15 5.1903441897565156e-15 0.0000000000000000e+00  6.1733195387098416e-15 3.7247623360322215e-16 0.0000000000000000e+00  -5.1507035282343747e-15 3.5784653288619847e-14 0.0000000000000000e+00  -3.1994689479991511e-14 2.4908027745121629e-14 0.0000000000000000e+00  1.2011014177071831e-14 1.6026080322100211e-14 0.0000000000000000e+00  -1.4803544271185429e-14 4.9199007981882506e-14 0.0000000000000000e+00  -1.1783055417920563e-14 -2.9850256637936982e-14 0.0000000000000000e+00  1.6173842048778461e-14 9.8447798450826859e-15 0.0000000000000000e+00  7.9749247567653797e-15 5.7390243107158218e-14 0.0000000000000000e+00  -3.2389686338068503e-15 1.0206652141346608e-14 0.0000000000000000e+00  -1.5169826400164927e-15 3.9990099085047373e-15 0.0000000000000000e+00  4.5682397418136507e-15 -2.9363412369068100e-14 0.0000000000000000e+00  7.7882457971919481e-15 2.7507465557388229e-15 0.0000000000000000e+00  -3.4942638528144717e-15 -1.0873255841823098e-14 0.0000000000000000e+00  -3.5412553925365174e-14 7.3830748993592976e-15 0.0000000000000000e+00  1.5154227264443688e-14 -1.7020101979024328e-15 0.0000000000000000e+00  -1.6596916368581771e-14 3.6031706357899657e-15 0.0000000000000000e+00  -1.2546740951140708e-14 1.8332158660666432e-14 0.0000000000000000e+00  1.8962428361503493e-14 1.0417727650307347e-14 0.0000000000000000e+00  1.1286384291879446e-15 -4.5124168925090893e-14 0.0000000000000000e+00  -7.0563837938996895e-15 -1.6929963080730767e-14 0.0000000000000000e+00  -6.2191594485543855e-15 -4.4491213252919741e-14 0.0000000000000000e+00  1.3459159630234213e-14 -5.0316905087432145e-14 0.0000000000000000e+00  1.0832532198482660e-14 -2.5124648963214239e-14 0.0000000000000000e+00  -6.4400001909189162e-15 1.6391603130030460e-14 0.0000000000000000e+00  -2.7766169533783706e-14 7.5333679149772106e-15 0.0000000000000000e+00  1.3837737870933343e-14 3.7161261558170641e-14 0.0000000000000000e+00  -1.3657521773784690e-14 -3.1385490676069665e-14 0.0000000000000000e+00  -1.3305717994072523e-14 5.7988510314103316e-15 0.0000000000000000e+00  1.0824600955621243e-14 -1.8221064638511616e-14 0.0000000000000000e+00  8.7859817884359717e-15 3.6129559681496756e-14 0.0000000000000000e+00  -1.2457071659891729e-14 -1.7994218530405161e-15 0.0000000000000000e+00  -1.3619816472321866e-14 -3.2648419716929064e-14 0.0000000000000000e+00  9.2937629634413126e-15 -3.2691041989366735e-14 0.0000000000000000e+00  2.3237844212002393e-14 -5.4268553242772020e-14 0.0000000000000000e+00  4.4943330162435225e-15 2.7390741874236108e-14 0.0000000000000000e+00  -3.0781579941490555e-14 9.6490248212997784e-15 0.0000000000000000e+00  -4.9731016592977631e-15 4.0717375321582646e-14 0.0000000000000000e+00  -2.1706855824902178e-14 -3.0282568853627291e-14 0.0000000000000000e+00  -5.9149856050403419e-15 -1.6075240438835340e-15 0.0000000000000000e+00  1.3361088754571893e-14 2.4731149597025370e-14 0.0000000000000000e+00  1.3640556586979175e-15 -2.1977723520455284e-14 0.0000000000000000e+00  -1.3439646767316776e-14 -1.0156033396121816e-13 0.0000000000000000e+00  -3.8139893305661438e-15 7.3092077331280679e-14 0.0000000000000000e+00  5.0828741065659218e-15 4.5398277358989942e-16 0.0000000000000000e+00  1.8714056995560251e-14 -2.6009346074382694e-14 0.0000000000000000e+00  5.8993695651518963e-15 -8.7452051250140244e-15 0.0000000000000000e+00  -4.0623850673148537e-14 -2.4736998093076403e-14 0.0000000000000000e+00  -8.4097742504707624e-15 2.5646876306222608e-14 0.0000000000000000e+00  -2.7194447337288663e-14 -7.6442069227990861e-15 0.0000000000000000e+00  -1.3185775313559194e-15 -2.0011906435405023e-14 0.0000000000000000e+00  1.4613807391529416e-14 3.8343220451360523e-14 0.0000000000000000e+00  -9.1977346061572128e-15 -2.8320150546171405e-14 0.0000000000000000e+00  -2.3962726717224795e-15 1.0220819254046488e-14 0.0000000000000000e+00  2.8275253526047773e-16 4.7392542637814726e-14 0.0000000000000000e+00  -6.2298627868236312e-15 6.0442250224908040e-15 0.0000000000000000e+00  2.2831931326995118e-14 2.5600493490994271e-14 0.0000000000000000e+00  1.9715876167212726e-15 1.4664026891126875e-14 0.0000000000000000e+00  -4.7886599233594069e-14 -8.0087258618095242e-14 0.0000000000000000e+00  -1.5473170725685986e-14 -1.4907588172616027e-14 0.0000000000000000e+00  -2.7224653983656577e-14 -1.4559499522311247e-14 0.0000000000000000e+00  6.0646257571562693e-15 7.7557452507861574e-15 0.0000000000000000e+00  9.0420539704940000e-15 6.6029463399967953e-14 0.0000000000000000e+00  -1.6351738713527188e-14 -7.4587949839410138e-14 0.0000000000000000e+00  6.9897417618124666e-15 -4.3234863236758231e-15 0.0000000000000000e+00  -1.7654015049723220e-15 -2.8984124308167770e-14 0.0000000000000000e+00  7.5019375799060392e-16 6.2381191474816466e-14 0.0000000000000000e+00  2.5591430326884000e-14 2.1502820621801938e-14 0.0000000000000000e+00  -1.0546419757126682e-14 4.4432100830010440e-14 0.0000000000000000e+00  -5.8511081881837158e-14 2.9071278452465674e-14 0.0000000000000000e+00  -9.0443287228007294e-15 3.6502971178036034e-14 0.0000000000000000e+00  -2.7683146243368480e-14 3.6365872467712992e-14 0.0000000000000000e+00  4.3796504082424566e-15 -2.5998213996701952e-14 0.0000000000000000e+00  3.1861957466478531e-15 -4.3381383605064655e-14 0.0000000000000000e+00  -1.6691444863551219e-14 -9.5284907008007445e-15 0.0000000000000000e+00  1.2587360192865564e-14 -3.5713706261893006e-14 0.0000000000000000e+00  1.1571172270809181e-14 4.4440292277216308e-14 0.0000000000000000e+00  -7.0328960750855619e-16 8.8986976826520755e-14 0.0000000000000000e+00  1.1854431792653133e-14 -1.0856004484967617e-14 0.0000000000000000e+00  -3.5317053042964702e-15 -4.0834444029698148e-14 0.0000000000000000e+00  -5.4402050517769061e-14 -3.5026357778752280e-14 0.0000000000000000e+00  -6.5692743630897547e-15 -8.1657509378921333e-15 0.0000000000000000e+00  -3.1288986645933033e-14 5.1980003474577762e-15 0.0000000000000000e+00  -2.2866265194748431e-15 2.6120675138966864e-15 0.0000000000000000e+00  1.1025988350730240e-14 5.2801269362281043e-14 0.0000000000000000e+00  -1.8464930952106686e-14 -1.9996561661835885e-14 0.0000000000000000e+00  7.5537968569166026e-15 1.0165520373508441e-14 0.0000000000000000e+00  2.5333417884578509e-14 1.7831012602678408e-16 0.0000000000000000e+00  -5.1882483714225972e-15 9.9087757162160536e-15 0.0000000000000000e+00  5.8775084111226641e-15 1.0395531811335543e-14 0.0000000000000000e+00  -9.6678935956011731e-15 1.6941518375761204e-14 0.0000000000000000e+00  -6.4230105696790786e-14 -4.2604558386198004e-14 0.0000000000000000e+00  -1.6766553825931672e-14 -2.9393743666132219e-14 0.0000000000000000e+00  -2.8912198382821565e-14 3.5587050287250563e-14 0.0000000000000000e+00  9.7944998792888412e-15 -5.1556154326958158e-14 0.0000000000000000e+00  -4.4171070672003092e-15 3.5809517038256563e-15 0.0000000000000000e+00  -1.7000639010922848e-14 -2.6510869271843491e-14 0.0000000000000000e+00  1.8213116934465380e-14 2.3264229582789411e-14 0.0000000000000000e+00  1.4933429894604195e-14 6.5432401735689694e-14 0.0000000000000000e+00  -1.4758541592105458e-15 -8.5470787051457991e-15 0.0000000000000000e+00  4.9476573048748465e-15 3.4171309131559891e-14 0.0000000000000000e+00  -1.2222130526055235e-14 -1.7614220482596890e-14 0.0000000000000000e+00  -8.0156434897645929e-14 -1.9651813725326182e-14 0.0000000000000000e+00  9.3081978259838914e-15 -4.4272852032114737e-14 0.0000000000000000e+00  -3.2753882391997726e-14 1.0819188974987852e-14 0.0000000000000000e+00  -8.0468560157436796e-15 3.1750023856722386e-15 0.0000000000000000e+00  1.4913024431962026e-14 -3.8581333093466144e-14 0.0000000000000000e+00  -1.6910467249294250e-14 5.8039652495945931e-14 0.0000000000000000e+00  2.3767710724191469e-14 2.5307348587782993e-15 0.0000000000000000e+00  1.2956835457253837e-14 7.1343008956343046e-14 0.0000000000000000e+00  -1.2122662654166358e-14 -7.1367369185877986e-14 0.0000000000000000e+00  1.1158546744899949e-14 1.7583503213040259e-14 0.0000000000000000e+00  -1.9831366192935466e-14 -4.5164089771767201e-14 0.0000000000000000e+00  -5.9643691602814545e-14 4.1580271671355163e-14 0.0000000000000000e+00  -9.0266638590884570e-15 -2.0713303743249462e-14 0.0000000000000000e+00  -2.2083725284357599e-14 -5.0057268247615256e-14 0.0000000000000000e+00  -1.8464038880774717e-15 2.8080001536261418e-15 0.0000000000000000e+00  8.7119424936807623e-15 -1.7602419684991898e-14 0.0000000000000000e+00  -9.6253545304705296e-15 4.0095640551998069e-14 0.0000000000000000e+00  2.8412423540108324e-