<?xml version="1.0"?>
<VTKFile type="UnstructuredGrid"  version="0.1"  >
<UnstructuredGrid>
<Piece  NumberOfPoints="1661" NumberOfCells="3200">
<Points>
<DataArray  type="Float64"  NumberOfComponents="3"  format="ascii">-0.25 -1 0  -0.225 -1 0  -0.2 -1 0  -0.175 -1 0  -0.15 -1 0  -0.125 -1 0  -0.1 -1 0  -0.07500000000000001 -1 0  -0.04999999999999999 -1 0  -0.02499999999999999 -1 0  0 -1 0  0.02500000000000002 -1 0  0.04999999999999999 -1 0  0.07500000000000001 -1 0  0.09999999999999998 -1 0  0.125 -1 0  0.15 -1 0  0.175 -1 0  0.2 -1 0  0.225 -1 0  0.25 -1 0  -0.25 -0.975 0  -0.225 -0.975 0  -0.2 -0.975 0  -0.175 -0.975 0  -0.15 -0.975 0  -0.125 -0.975 0  -0.1 -0.975 0  -0.07500000000000001 -0.975 0  -0.04999999999999999 -0.975 0  -0.02499999999999999 -0.975 0  0 -0.975 0  0.02500000000000002 -0.975 0  0.04999999999999999 -0.975 0  0.07500000000000001 -0.975 0  0.09999999999999998 -0.975 0  0.125 -0.975 0  0.15 -0.975 0  0.175 -0.975 0  0.2 -0.975 0  0.225 -0.975 0  0.25 -0.975 0  -0.25 -0.95 0  -0.225 -0.95 0  -0.2 -0.95 0  -0.175 -0.95 0  -0.15 -0.95 0  -0.125 -0.95 0  -0.1 -0.95 0  -0.07500000000000001 -0.95 0  -0.04999999999999999 -0.95 0  -0.02499999999999999 -0.95 0  0 -0.95 0  0.02500000000000002 -0.95 0  0.04999999999999999 -0.95 0  0.07500000000000001 -0.95 0  0.09999999999999998 -0.95 0  0.125 -0.95 0  0.15 -0.95 0  0.175 -0.95 0  0.2 -0.95 0  0.225 -0.95 0  0.25 -0.95 0  -0.25 -0.925 0  -0.225 -0.925 0  -0.2 -0.925 0  -0.175 -0.925 0  -0.15 -0.925 0  -0.125 -0.925 0  -0.1 -0.925 0  -0.07500000000000001 -0.925 0  -0.04999999999999999 -0.925 0  -0.02499999999999999 -0.925 0  0 -0.925 0  0.02500000000000002 -0.925 0  0.04999999999999999 -0.925 0  0.07500000000000001 -0.925 0  0.09999999999999998 -0.925 0  0.125 -0.925 0  0.15 -0.925 0  0.175 -0.925 0  0.2 -0.925 0  0.225 -0.925 0  0.25 -0.925 0  -0.25 -0.9 0  -0.225 -0.9 0  -0.2 -0.9 0  -0.175 -0.9 0  -0.15 -0.9 0  -0.125 -0.9 0  -0.1 -0.9 0  -0.07500000000000001 -0.9 0  -0.04999999999999999 -0.9 0  -0.02499999999999999 -0.9 0  0 -0.9 0  0.02500000000000002 -0.9 0  0.04999999999999999 -0.9 0  0.07500000000000001 -0.9 0  0.09999999999999998 -0.9 0  0.125 -0.9 0  0.15 -0.9 0  0.175 -0.9 0  0.2 -0.9 0  0.225 -0.9 0  0.25 -0.9 0  -0.25 -0.875 0  -0.225 -0.875 0  -0.2 -0.875 0  -0.175 -0.875 0  -0.15 -0.875 0  -0.125 -0.875 0  -0.1 -0.875 0  -0.07500000000000001 -0.875 0  -0.04999999999999999 -0.875 0  -0.02499999999999999 -0.875 0  0 -0.875 0  0.02500000000000002 -0.875 0  0.04999999999999999 -0.875 0  0.07500000000000001 -0.875 0  0.09999999999999998 -0.875 0  0.125 -0.875 0  0.15 -0.875 0  0.175 -0.875 0  0.2 -0.875 0  0.225 -0.875 0  0.25 -0.875 0  -0.25 -0.85 0  -0.225 -0.85 0  -0.2 -0.85 0  -0.175 -0.85 0  -0.15 -0.85 0  -0.125 -0.85 0  -0.1 -0.85 0  -0.07500000000000001 -0.85 0  -0.04999999999999999 -0.85 0  -0.02499999999999999 -0.85 0  0 -0.85 0  0.02500000000000002 -0.85 0  0.04999999999999999 -0.85 0  0.07500000000000001 -0.85 0  0.09999999999999998 -0.85 0  0.125 -0.85 0  0.15 -0.85 0  0.175 -0.85 0  0.2 -0.85 0  0.225 -0.85 0  0.25 -0.85 0  -0.25 -0.825 0  -0.225 -0.825 0  -0.2 -0.825 0  -0.175 -0.825 0  -0.15 -0.825 0  -0.125 -0.825 0  -0.1 -0.825 0  -0.07500000000000001 -0.825 0  -0.04999999999999999 -0.825 0  -0.02499999999999999 -0.825 0  0 -0.825 0  0.02500000000000002 -0.825 0  0.04999999999999999 -0.825 0  0.07500000000000001 -0.825 0  0.09999999999999998 -0.825 0  0.125 -0.825 0  0.15 -0.825 0  0.175 -0.825 0  0.2 -0.825 0  0.225 -0.825 0  0.25 -0.825 0  -0.25 -0.8 0  -0.225 -0.8 0  -0.2 -0.8 0  -0.175 -0.8 0  -0.15 -0.8 0  -0.125 -0.8 0  -0.1 -0.8 0  -0.07500000000000001 -0.8 0  -0.04999999999999999 -0.8 0  -0.02499999999999999 -0.8 0  0 -0.8 0  0.02500000000000002 -0.8 0  0.04999999999999999 -0.8 0  0.07500000000000001 -0.8 0  0.09999999999999998 -0.8 0  0.125 -0.8 0  0.15 -0.8 0  0.175 -0.8 0  0.2 -0.8 0  0.225 -0.8 0  0.25 -0.8 0  -0.25 -0.775 0  -0.225 -0.775 0  -0.2 -0.775 0  -0.175 -0.775 0  -0.15 -0.775 0  -0.125 -0.775 0  -0.1 -0.775 0  -0.07500000000000001 -0.775 0  -0.04999999999999999 -0.775 0  -0.02499999999999999 -0.775 0  0 -0.775 0  0.02500000000000002 -0.775 0  0.04999999999999999 -0.775 0  0.07500000000000001 -0.775 0  0.09999999999999998 -0.775 0  0.125 -0.775 0  0.15 -0.775 0  0.175 -0.775 0  0.2 -0.775 0  0.225 -0.775 0  0.25 -0.775 0  -0.25 -0.75 0  -0.225 -0.75 0  -0.2 -0.75 0  -0.175 -0.75 0  -0.15 -0.75 0  -0.125 -0.75 0  -0.1 -0.75 0  -0.07500000000000001 -0.75 0  -0.04999999999999999 -0.75 0  -0.02499999999999999 -0.75 0  0 -0.75 0  0.02500000000000002 -0.75 0  0.04999999999999999 -0.75 0  0.07500000000000001 -0.75 0  0.09999999999999998 -0.75 0  0.125 -0.75 0  0.15 -0.75 0  0.175 -0.75 0  0.2 -0.75 0  0.225 -0.75 0  0.25 -0.75 0  -0.25 -0.725 0  -0.225 -0.725 0  -0.2 -0.725 0  -0.175 -0.725 0  -0.15 -0.725 0  -0.125 -0.725 0  -0.1 -0.725 0  -0.07500000000000001 -0.725 0  -0.04999999999999999 -0.725 0  -0.02499999999999999 -0.725 0  0 -0.725 0  0.02500000000000002 -0.725 0  0.04999999999999999 -0.725 0  0.07500000000000001 -0.725 0  0.09999999999999998 -0.725 0  0.125 -0.725 0  0.15 -0.725 0  0.175 -0.725 0  0.2 -0.725 0  0.225 -0.725 0  0.25 -0.725 0  -0.25 -0.7 0  -0.225 -0.7 0  -0.2 -0.7 0  -0.175 -0.7 0  -0.15 -0.7 0  -0.125 -0.7 0  -0.1 -0.7 0  -0.07500000000000001 -0.7 0  -0.04999999999999999 -0.7 0  -0.02499999999999999 -0.7 0  0 -0.7 0  0.02500000000000002 -0.7 0  0.04999999999999999 -0.7 0  0.07500000000000001 -0.7 0  0.09999999999999998 -0.7 0  0.125 -0.7 0  0.15 -0.7 0  0.175 -0.7 0  0.2 -0.7 0  0.225 -0.7 0  0.25 -0.7 0  -0.25 -0.675 0  -0.225 -0.675 0  -0.2 -0.675 0  -0.175 -0.675 0  -0.15 -0.675 0  -0.125 -0.675 0  -0.1 -0.675 0  -0.07500000000000001 -0.675 0  -0.04999999999999999 -0.675 0  -0.02499999999999999 -0.675 0  0 -0.675 0  0.02500000000000002 -0.675 0  0.04999999999999999 -0.675 0  0.07500000000000001 -0.675 0  0.09999999999999998 -0.675 0  0.125 -0.675 0  0.15 -0.675 0  0.175 -0.675 0  0.2 -0.675 0  0.225 -0.675 0  0.25 -0.675 0  -0.25 -0.65 0  -0.225 -0.65 0  -0.2 -0.65 0  -0.175 -0.65 0  -0.15 -0.65 0  -0.125 -0.65 0  -0.1 -0.65 0  -0.07500000000000001 -0.65 0  -0.04999999999999999 -0.65 0  -0.02499999999999999 -0.65 0  0 -0.65 0  0.02500000000000002 -0.65 0  0.04999999999999999 -0.65 0  0.07500000000000001 -0.65 0  0.09999999999999998 -0.65 0  0.125 -0.65 0  0.15 -0.65 0  0.175 -0.65 0  0.2 -0.65 0  0.225 -0.65 0  0.25 -0.65 0  -0.25 -0.625 0  -0.225 -0.625 0  -0.2 -0.625 0  -0.175 -0.625 0  -0.15 -0.625 0  -0.125 -0.625 0  -0.1 -0.625 0  -0.07500000000000001 -0.625 0  -0.04999999999999999 -0.625 0  -0.02499999999999999 -0.625 0  0 -0.625 0  0.02500000000000002 -0.625 0  0.04999999999999999 -0.625 0  0.07500000000000001 -0.625 0  0.09999999999999998 -0.625 0  0.125 -0.625 0  0.15 -0.625 0  0.175 -0.625 0  0.2 -0.625 0  0.225 -0.625 0  0.25 -0.625 0  -0.25 -0.6 0  -0.225 -0.6 0  -0.2 -0.6 0  -0.175 -0.6 0  -0.15 -0.6 0  -0.125 -0.6 0  -0.1 -0.6 0  -0.07500000000000001 -0.6 0  -0.04999999999999999 -0.6 0  -0.02499999999999999 -0.6 0  0 -0.6 0  0.02500000000000002 -0.6 0  0.04999999999999999 -0.6 0  0.07500000000000001 -0.6 0  0.09999999999999998 -0.6 0  0.125 -0.6 0  0.15 -0.6 0  0.175 -0.6 0  0.2 -0.6 0  0.225 -0.6 0  0.25 -0.6 0  -0.25 -0.575 0  -0.225 -0.575 0  -0.2 -0.575 0  -0.175 -0.575 0  -0.15 -0.575 0  -0.125 -0.575 0  -0.1 -0.575 0  -0.07500000000000001 -0.575 0  -0.04999999999999999 -0.575 0  -0.02499999999999999 -0.575 0  0 -0.575 0  0.02500000000000002 -0.575 0  0.04999999999999999 -0.575 0  0.07500000000000001 -0.575 0  0.09999999999999998 -0.575 0  0.125 -0.575 0  0.15 -0.575 0  0.175 -0.575 0  0.2 -0.575 0  0.225 -0.575 0  0.25 -0.575 0  -0.25 -0.55 0  -0.225 -0.55 0  -0.2 -0.55 0  -0.175 -0.55 0  -0.15 -0.55 0  -0.125 -0.55 0  -0.1 -0.55 0  -0.07500000000000001 -0.55 0  -0.04999999999999999 -0.55 0  -0.02499999999999999 -0.55 0  0 -0.55 0  0.02500000000000002 -0.55 0  0.04999999999999999 -0.55 0  0.07500000000000001 -0.55 0  0.09999999999999998 -0.55 0  0.125 -0.55 0  0.15 -0.55 0  0.175 -0.55 0  0.2 -0.55 0  0.225 -0.55 0  0.25 -0.55 0  -0.25 -0.525 0  -0.225 -0.525 0  -0.2 -0.525 0  -0.175 -0.525 0  -0.15 -0.525 0  -0.125 -0.525 0  -0.1 -0.525 0  -0.07500000000000001 -0.525 0  -0.04999999999999999 -0.525 0  -0.02499999999999999 -0.525 0  0 -0.525 0  0.02500000000000002 -0.525 0  0.04999999999999999 -0.525 0  0.07500000000000001 -0.525 0  0.09999999999999998 -0.525 0  0.125 -0.525 0  0.15 -0.525 0  0.175 -0.525 0  0.2 -0.525 0  0.225 -0.525 0  0.25 -0.525 0  -0.25 -0.5 0  -0.225 -0.5 0  -0.2 -0.5 0  -0.175 -0.5 0  -0.15 -0.5 0  -0.125 -0.5 0  -0.1 -0.5 0  -0.07500000000000001 -0.5 0  -0.04999999999999999 -0.5 0  -0.02499999999999999 -0.5 0  0 -0.5 0  0.02500000000000002 -0.5 0  0.04999999999999999 -0.5 0  0.07500000000000001 -0.5 0  0.09999999999999998 -0.5 0  0.125 -0.5 0  0.15 -0.5 0  0.175 -0.5 0  0.2 -0.5 0  0.225 -0.5 0  0.25 -0.5 0  -0.25 -0.475 0  -0.225 -0.475 0  -0.2 -0.475 0  -0.175 -0.475 0  -0.15 -0.475 0  -0.125 -0.475 0  -0.1 -0.475 0  -0.07500000000000001 -0.475 0  -0.04999999999999999 -0.475 0  -0.02499999999999999 -0.475 0  0 -0.475 0  0.02500000000000002 -0.475 0  0.04999999999999999 -0.475 0  0.07500000000000001 -0.475 0  0.09999999999999998 -0.475 0  0.125 -0.475 0  0.15 -0.475 0  0.175 -0.475 0  0.2 -0.475 0  0.225 -0.475 0  0.25 -0.475 0  -0.25 -0.45 0  -0.225 -0.45 0  -0.2 -0.45 0  -0.175 -0.45 0  -0.15 -0.45 0  -0.125 -0.45 0  -0.1 -0.45 0  -0.07500000000000001 -0.45 0  -0.04999999999999999 -0.45 0  -0.02499999999999999 -0.45 0  0 -0.45 0  0.02500000000000002 -0.45 0  0.04999999999999999 -0.45 0  0.07500000000000001 -0.45 0  0.09999999999999998 -0.45 0  0.125 -0.45 0  0.15 -0.45 0  0.175 -0.45 0  0.2 -0.45 0  0.225 -0.45 0  0.25 -0.45 0  -0.25 -0.425 0  -0.225 -0.425 0  -0.2 -0.425 0  -0.175 -0.425 0  -0.15 -0.425 0  -0.125 -0.425 0  -0.1 -0.425 0  -0.07500000000000001 -0.425 0  -0.04999999999999999 -0.425 0  -0.02499999999999999 -0.425 0  0 -0.425 0  0.02500000000000002 -0.425 0  0.04999999999999999 -0.425 0  0.07500000000000001 -0.425 0  0.
[...]
<PointData  Scalars=" mean stress"> 
<DataArray  type="Float64"  Name=" mean stress"  format="ascii">5.7781675369911250e+06  5.7781675369891850e+06  5.7781675369889615e+06  5.7781675369889392e+06  5.7781675369889289e+06  5.7781675369889382e+06  5.7781675369889410e+06  5.7781675369889494e+06  5.7781675369889298e+06  5.7781675369889410e+06  5.7781675369889131e+06  5.7781675369889457e+06  5.7781675369889410e+06  5.7781675369889475e+06  5.7781675369889252e+06  5.7781675369889420e+06  5.7781675369889457e+06  5.7781675369889541e+06  5.7781675369889978e+06  5.7781675369892269e+06  5.7781675369911538e+06  5.7782222099920996e+06  5.7782222099816203e+06  5.7782222099810438e+06  5.7782222099810494e+06  5.7782222099810643e+06  5.7782222099810624e+06  5.7782222099810652e+06  5.7782222099810597e+06  5.7782222099810801e+06  5.7782222099810615e+06  5.7782222099810727e+06  5.7782222099810690e+06  5.7782222099810867e+06  5.7782222099810978e+06  5.7782222099810848e+06  5.7782222099810969e+06  5.7782222099810969e+06  5.7782222099811193e+06  5.7782222099811118e+06  5.7782222099816846e+06  5.7782222099921722e+06  5.7783904222425520e+06  5.7783904221917531e+06  5.7783904221910667e+06  5.7783904221910592e+06  5.7783904221910648e+06  5.7783904221910834e+06  5.7783904221910806e+06  5.7783904221910723e+06  5.7783904221910872e+06  5.7783904221910927e+06  5.7783904221910927e+06  5.7783904221911179e+06  5.7783904221911216e+06  5.7783904221911198e+06  5.7783904221911309e+06  5.7783904221911356e+06  5.7783904221911607e+06  5.7783904221911533e+06  5.7783904221911738e+06  5.7783904221918602e+06  5.7783904222426619e+06  5.7786850750583671e+06  5.7786850749277323e+06  5.7786850749266250e+06  5.7786850749266185e+06  5.7786850749266101e+06  5.7786850749266101e+06  5.7786850749266418e+06  5.7786850749266269e+06  5.7786850749266539e+06  5.7786850749266446e+06  5.7786850749266753e+06  5.7786850749266949e+06  5.7786850749266921e+06  5.7786850749267014e+06  5.7786850749267275e+06  5.7786850749267377e+06  5.7786850749267582e+06  5.7786850749267377e+06  5.7786850749267740e+06  5.7786850749278916e+06  5.7786850750585096e+06  5.7791287673337962e+06  5.7791287670580680e+06  5.7791287670562239e+06  5.7791287670562146e+06  5.7791287670561960e+06  5.7791287670561960e+06  5.7791287670561979e+06  5.7791287670562118e+06  5.7791287670562398e+06  5.7791287670562500e+06  5.7791287670562509e+06  5.7791287670562565e+06  5.7791287670562761e+06  5.7791287670563105e+06  5.7791287670563208e+06  5.7791287670563580e+06  5.7791287670563404e+06  5.7791287670563580e+06  5.7791287670563674e+06  5.7791287670582300e+06  5.7791287673339825e+06  5.7797555288002761e+06  5.7797555282689966e+06  5.7797555282657873e+06  5.7797555282657864e+06  5.7797555282658031e+06  5.7797555282658366e+06  5.7797555282658283e+06  5.7797555282658366e+06  5.7797555282658106e+06  5.7797555282658432e+06  5.7797555282658469e+06  5.7797555282658506e+06  5.7797555282658916e+06  5.7797555282658869e+06  5.7797555282659251e+06  5.7797555282659093e+06  5.7797555282659428e+06  5.7797555282659307e+06  5.7797555282659689e+06  5.7797555282691512e+06  5.7797555288004708e+06  5.7806134300035723e+06  5.7806134290263057e+06  5.7806134290208118e+06  5.7806134290207513e+06  5.7806134290207885e+06  5.7806134290207820e+06  5.7806134290208463e+06  5.7806134290207988e+06  5.7806134290208025e+06  5.7806134290208379e+06  5.7806134290208407e+06  5.7806134290208723e+06  5.7806134290208379e+06  5.7806134290208565e+06  5.7806134290208947e+06  5.7806134290208789e+06  5.7806134290209422e+06  5.7806134290209124e+06  5.7806134290210223e+06  5.7806134290264528e+06  5.7806134300037371e+06  5.7817682691704966e+06  5.7817682674176898e+06  5.7817682674082080e+06  5.7817682674081549e+06  5.7817682674081326e+06  5.7817682674081586e+06  5.7817682674081456e+06  5.7817682674081698e+06  5.7817682674081326e+06  5.7817682674081838e+06  5.7817682674081484e+06  5.7817682674082061e+06  5.7817682674081968e+06  5.7817682674082415e+06  5.7817682674082462e+06  5.7817682674082750e+06  5.7817682674082406e+06  5.7817682674083235e+06  5.7817682674083887e+06  5.7817682674178854e+06  5.7817682691706251e+06  5.7833086187435919e+06  5.7833086156435618e+06  5.7833086156271333e+06  5.7833086156270104e+06  5.7833086156269694e+06  5.7833086156270429e+06  5.7833086156269982e+06  5.7833086156270402e+06  5.7833086156270709e+06  5.7833086156270336e+06  5.7833086156270923e+06  5.7833086156270718e+06  5.7833086156270998e+06  5.7833086156271100e+06  5.7833086156271352e+06  5.7833086156271808e+06  5.7833086156271920e+06  5.7833086156271752e+06  5.7833086156273643e+06  5.7833086156437807e+06  5.7833086187438741e+06  5.7853526186453616e+06  5.7853526132058091e+06  5.7853526131773880e+06  5.7853526131771291e+06  5.7853526131771281e+06  5.7853526131770806e+06  5.7853526131771151e+06  5.7853526131771393e+06  5.7853526131772157e+06  5.7853526131772036e+06  5.7853526131772725e+06  5.7853526131772250e+06  5.7853526131772045e+06  5.7853526131772241e+06  5.7853526131772622e+06  5.7853526131772669e+06  5.7853526131772818e+06  5.7853526131772976e+06  5.7853526131775780e+06  5.7853526132060150e+06  5.7853526186455702e+06  5.7880570373093467e+06  5.7880570278086383e+06  5.7880570277593005e+06  5.7880570277587995e+06  5.7880570277588191e+06  5.7880570277587976e+06  5.7880570277588880e+06  5.7880570277588172e+06  5.7880570277588610e+06  5.7880570277588582e+06  5.7880570277588209e+06  5.7880570277588880e+06  5.7880570277589047e+06  5.7880570277589252e+06  5.7880570277589224e+06  5.7880570277589168e+06  5.7880570277589662e+06  5.7880570277590016e+06  5.7880570277594198e+06  5.7880570278088199e+06  5.7880570373094929e+06  5.7916292954611089e+06  5.7916292789118998e+06  5.7916292788263774e+06  5.7916292788255280e+06  5.7916292788255978e+06  5.7916292788254740e+06  5.7916292788255922e+06  5.7916292788255205e+06  5.7916292788255559e+06  5.7916292788256062e+06  5.7916292788255457e+06  5.7916292788256342e+06  5.7916292788256165e+06  5.7916292788256397e+06  5.7916292788256528e+06  5.7916292788256388e+06  5.7916292788256872e+06  5.7916292788256295e+06  5.7916292788265506e+06  5.7916292789120134e+06  5.7916292954613622e+06  5.7963433748833034e+06  5.7963433461041749e+06  5.7963433459558785e+06  5.7963433459544918e+06  5.7963433459545467e+06  5.7963433459545840e+06  5.7963433459545122e+06  5.7963433459545951e+06  5.7963433459544871e+06  5.7963433459546249e+06  5.7963433459546221e+06  5.7963433459545812e+06  5.7963433459545746e+06  5.7963433459546715e+06  5.7963433459546482e+06  5.7963433459546603e+06  5.7963433459546594e+06  5.7963433459546687e+06  5.7963433459561011e+06  5.7963433461043853e+06  5.7963433748834562e+06  5.8025608324054163e+06  5.8025607824131865e+06  5.8025607821564358e+06  5.8025607821540413e+06  5.8025607821539268e+06  5.8025607821540628e+06  5.8025607821539808e+06  5.8025607821541028e+06  5.8025607821540534e+06  5.8025607821539743e+06  5.8025607821540330e+06  5.8025607821540833e+06  5.8025607821541009e+06  5.8025607821539845e+06  5.8025607821540469e+06  5.8025607821540730e+06  5.8025607821541307e+06  5.8025607821541922e+06  5.8025607821565839e+06  5.8025607824134519e+06  5.8025608324054927e+06  5.8107585309744207e+06  5.8107584442048678e+06  5.8107584437603904e+06  5.8107584437562516e+06  5.8107584437561752e+06  5.8107584437561780e+06  5.8107584437562106e+06  5.8107584437560951e+06  5.8107584437562060e+06  5.8107584437561687e+06  5.8107584437561780e+06  5.8107584437562069e+06  5.8107584437562516e+06  5.8107584437562684e+06  5.8107584437562851e+06  5.8107584437563196e+06  5.8107584437562656e+06  5.8107584437563764e+06  5.8107584437605506e+06  5.8107584442050233e+06  5.8107585309747262e+06  5.8215652149563553e+06  5.8215650644612843e+06  5.8215650636927541e+06  5.8215650636855671e+06  5.8215650636855522e+06  5.8215650636855653e+06  5.8215650636854907e+06  5.8215650636855885e+06  5.8215650636855653e+06  5.8215650636855597e+06  5.8215650636855811e+06  5.8215650636856090e+06  5.8215650636856118e+06  5.8215650636856481e+06  5.8215650636856426e+06  5.8215650636856938e+06  5.8215650636856714e+06  5.8215650636858083e+06  5.8215650636929842e+06  5.8215650644614138e+06  5.8215652149565909e+06  5.8358097353165532e+06  5.8358094744873131e+06  5.8358094731606180e+06  5.8358094731482491e+06  5.8358094731481327e+06  5.8358094731480861e+06  5.8358094731482109e+06  5.8358094731481988e+06  5.8358094731481848e+06  5.8358094731482808e+06  5.8358094731482882e+06  5.8358094731482565e+06  5.8358094731482295e+06  5.8358094731483217e+06  5.8358094731482863e+06  5.8358094731483012e+06  5.8358094731483068e+06  5.8358094731483823e+06  5.8358094731607195e+06  5.8358094744875692e+06  5.8358097353167860e+06  5.8545846241598567e+06  5.8545841724899560e+06  5.8545841702035898e+06  5.8545841701826071e+06  5.8545841701824423e+06  5.8545841701824507e+06  5.8545841701825969e+06  5.8545841701824795e+06  5.8545841701824982e+06  5.8545841701825038e+06  5.8545841701824982e+06  5.8545841701825717e+06  5.8545841701826062e+06  5.8545841701825447e+06  5.8545841701825326e+06  5.8545841701825242e+06  5.8545841701825187e+06  5.8545841701828232e+06  5.8545841702037808e+06  5.8545841724903118e+06  5.8545846241600672e+06  5.8793298958552852e+06  5.8793291145306164e+06  5.8793291106001148e+06  5.8793291105644843e+06  5.8793291105641667e+06  5.8793291105642337e+06  5.8793291105641183e+06  5.8793291105642654e+06  5.8793291105643213e+06  5.8793291105642738e+06  5.8793291105642114e+06  5.8793291105641872e+06  5.8793291105642654e+06  5.8793291105642412e+06  5.8793291105642067e+06  5.8793291105642989e+06  5.8793291105643101e+06  5.8793291105645997e+06  5.8793291106003635e+06  5.8793291145306807e+06  5.8793298958554678e+06  5.9119435041287560e+06  5.9119421543413633e+06  5.9119421476061232e+06  5.9119421475461842e+06  5.9119421475457773e+06  5.9119421475457940e+06  5.9119421475457698e+06  5.9119421475458052e+06  5.9119421475458127e+06  5.9119421475458015e+06  5.9119421475459356e+06  5.9119421475459142e+06  5.9119421475458033e+06  5.9119421475457931e+06  5.9119421475459384e+06  5.9119421475458769e+06  5.9119421475460678e+06  5.9119421475464283e+06  5.9119421476064073e+06  5.9119421543414844e+06  5.9119435041290661e+06  5.9549269302387889e+06  5.9549246023763623e+06  5.9549245908837290e+06  5.9549245907835616e+06  5.9549245907827998e+06  5.9549245907828109e+06  5.9549245907829925e+06  5.9549245907829050e+06  5.9549245907829460e+06  5.9549245907829460e+06  5.9549245907829618e+06  5.9549245907829888e+06  5.9549245907829376e+06  5.9549245907830410e+06  5.9549245907829050e+06  5.9549245907829339e+06  5.9549245907829804e+06  5.9549245907838512e+06  5.9549245908839554e+06  5.9549246023766529e+06  5.9549269302389920e+06  6.0115770738118030e+06  6.0115730679980032e+06  6.0115730484927576e+06  6.0115730483278269e+06  6.0115730483266888e+06  6.0115730483265966e+06  6.0115730483265873e+06  6.0115730483266162e+06  6.0115730483266236e+06  6.0115730483267307e+06  6.0115730483265724e+06  6.0115730483267121e+06  6.0115730483268015e+06  6.0115730483266134e+06  6.0115730483267335e+06  6.0115730483267223e+06  6.0115730483267447e+06  6.0115730483278846e+06  6.0115730484928703e+06  6.0115730679982072e+06  6.0115770738119669e+06  6.0862391721116761e+06  6.0862322984573506e+06  6.0862322655830234e+06  6.0862322653155532e+06  6.0862322653139438e+06  6.0862322653140035e+06  6.0862322653140649e+06  6.0862322653140659e+06  6.0862322653139196e+06  6.0862322653139448e+06  6.0862322653141785e+06  6.0862322653141832e+06  6.0862322653141543e+06  6.0862322653142046e+06  6.0862322653143313e+06  6.0862322653142903e+06  6.0862322653141720e+06  6.0862322653158586e+06  6.0862322655833494e+06  6.0862322984576942e+06  6.0862391721119573e+06  6.1846401581454854e+06  6.1846284065698301e+06  6.1846283516551098e+06  6.1846283512303801e+06  6.1846283512281179e+06  6.1846283512282092e+06  6.1846283512280397e+06  6.1846283512280239e+06  6.1846283512281738e+06  6.1846283512281319e+06  6.1846283512281794e+06  6.1846283512281263e+06  6.1846283512281552e+06  6.1846283512282986e+06  6.1846283512281450e+06  6.1846283512282185e+06  6.1846283512281654e+06  6.1846283512306046e+06  6.1846283516552495e+06  6.1846284065700974e+06  6.1846401581456419e+06  6.3143280420722850e+06  6.3143080444935923e+06  6.3143079537917655e+06  6.3143079531351458e+06  6.3143079531321079e+06  6.3143079531321796e+06  6.3143079531321730e+06  6.3143079531321768e+06  6.3143079531322569e+06  6.3143079531322718e+06  6.3143079531322625e+06  6.3143079531322233e+06  6.3143079531323481e+06  6.3143079531322680e+06  6.3143079531323733e+06  6.3143079531324236e+06  6.3143079531324049e+06  6.3143079531353861e+06  6.3143079537920197e+06  6.3143080444937646e+06  6.3143280420726929e+06  6.4852510361555787e+06  6.4852172066723350e+06  6.4852170589666804e+06  6.4852170579845337e+06  6.4852170579812555e+06  6.4852170579812536e+06  6.4852170579813430e+06  6.4852170579813216e+06  6.4852170579812955e+06  6.4852170579813570e+06  6.4852170579814361e+06  6.4852170579813654e+06  6.4852170579814520e+06  6.4852170579814510e+06  6.4852170579813439e+06  6.4852170579814008e+06  6.4852170579814948e+06  6.4852170579846455e+06  6.4852170589670483e+06  6.4852172066725409e+06  6.4852510361558292e+06  6.7105208619745765e+06  6.7104640539758597e+06  6.7104638176011993e+06  6.7104638161911052e+06  6.7104638161884164e+06  6.7104638161883550e+06  6.7104638161883717e+06  6.7104638161885226e+06  6.7104638161884826e+06  6.7104638161885412e+06  6.7104638161884323e+06  6.7104638161884742e+06  6.7104638161883112e+06  6.7104638161885794e+06  6.7104638161886418e+06  6.7104638161885785e+06  6.7104638161885487e+06  6.7104638161912924e+06  6.7104638176014060e+06  6.7104640539760850e+06  6.7105208619746920e+06  7.0074187965295967e+06  7.0073242647407306e+06  7.0073238943622699e+06  7.0073238924379032e+06  7.0073238924368061e+06  7.0073238924367819e+06  7.0073238924368219e+06  7.0073238924368266e+06  7.0073238924368620e+06  7.0073238924369803e+06  7.0073238924368070e+06  7.0073238924369523e+06  7.0073238924367866e+06  7.0073238924368182e+06  7.0073238924369654e+06  7.0073238924368573e+06  7.0073238924369384e+06  7.0073238924382208e+06  7.0073238943625856e+06  7.0073242647411060e+06  7.0074187965297578e+06  7.3987216066830289e+06  7.3985660193158910e+06  7.3985654532163814e+06  7.3985654507415630e+06  7.3985654507427514e+06  7.3985654507428873e+06  7.3985654507430717e+06  7.3985654507428734e+06  7.3985654507430540e+06  7.3985654507427281e+06  7.3985654507428650e+06  7.3985654507428547e+06  7.3985654507430978e+06  7.3985654507429786e+06  7.3985654507429842e+06  7.3985654507430876e+06  7.3985654507430829e+06  7.3985654507417632e+06  7.3985654532165192e+06  7.3985660193162048e+06  7.3987216066834489e+06  7.9144490094692605e+06  7.9141962396458276e+06  7.9141953986208802e+06  7.9141953956420608e+06  7.9141953956467817e+06  7.9141953956464520e+06  7.9141953956464119e+06  7.9141953956466075e+06  7.9141953956465889e+06  7.9141953956467481e+06  7.9141953956466569e+06  7.9141953956464948e+06  7.9141953956465386e+06  7.9141953956467165e+06  7.9141953956465852e+06  7.9141953956466513e+06  7.9141953956469111e+06  7.9141953956421763e+06  7.9141953986211130e+06  7.9141962396458285e+06  7.9144490094694467e+06  8.5941665613349881e+06  8.5937620148123540e+06  8.5937608036619574e+06  8.5937608003168907e+06  8.5937608003192618e+06  8.5937608003208376e+06  8.5937608003198393e+06  8.5937608003203422e+06  8.5937608003202248e+06  8.5937608003203217e+06  8.5937608003202751e+06  8.5937608003205210e+06  8.5937608003203217e+06  8.5937608003203254e+06  8.5937608003201857e+06  8.5937608003209047e+06  8.5937608003195561e+06  8.5937608003168926e+06  8.5937608036620449e+06  8.5937620148125868e+06  8.5941665613351539e+06  9.4900204208940398e+06  9.4893837252468374e+06  9.4893820369271170e+06  9.4893820333420727e+06  9.4893820333598871e+06  9.4893820333508626e+06  9.4893820333552603e+06  9.4893820333532728e+06  9.4893820333540011e+06  9.4893820333536975e+06  9.4893820333539657e+06  9.4893820333537683e+06  9.4893820333540738e+06  9.4893820333535969e+06  9.4893820333552789e+06  9.4893820333510209e+06  9.4893820333599001e+06  9.4893820333420914e+06  9.4893820369273219e+06  9.4893837252469473e+06  9.4900204208942894e+06  1.0670736553828906e+07  1.0669752498335063e+07  1.0669750218412086e+07  1.0669750214841258e+07  1.0669750214749137e+07  1.0669750214793982e+07  1.0669750214774519e+07  1.0669750214781651e+07  1.0669750214779316e+07  1.0669750214779923e+07  1.0669750214779750e+07  1.0669750214780001e+07  1.0669750214779314e+07  1.0669750214781657e+07  1.0669750214774355e+07  1.0669750214794263e+07  1.0669750214749038e+07  1.0669750214841813e+07  1.0669750218412386e+07  1.0669752498335229e+07  1.0670736553828984e+07  1.2226891007263137e+07  1.2225398586818036e+07  1.2225395597255204e+07  1.2225395592396328e+07  1.2225395592860447e+07  1.2225395592637718e+07  1.2225395592722405e+07  1.2225395592695402e+07  1.2225395592702856e+07  1.2225395592700846e+07  1.2225395592701526e+07  1.2225395592700997e+07  1.2225395592702888e+07  1.2225395592695219e+07  1.2225395592722509e+07  1.2225395592637539e+07  1.2225395592860799e+07  1.2225395592396278e+07  1.2225395597255358e+07  1.2225398586818218e+07  1.2226891007262960e+07  1.4277855518831609e+07  1.4275634748395735e+07  1.4275630908938298e+07  1.4275630908979846e+07  1.4275630906425465e+07  1.4275630907455375e+07  1.4275630907121623e+07  1.4275630907211151e+07  1.4275630907190083e+07  1.4275630907194683e+07  1.4275630907193387e+07  1.4275630907194568e+07  1.4275630907190228e+07  1.4275630907211117e+07  1.4275630907121621e+07  1.4275630907455267e+07  1.4275630906425692e+07  1.4275630908979788e+07  1.4275630908938199e+07  1.4275634748395739e+07  1.4277855518831998e+07  1.6980951577027153e+07  1.6977707084101189e+07  1.6977702298961259e+07  1.6977702264828630e+07  1.6977702277333032e+07  1.6977702273106471e+07  1.6977702274216853e+07  1.6977702273971569e+07  1.6977702274021037e+07  1.6977702274011597e+07  1.6977702274013776e+07  1.6977702274011724e+07  1.6977702274020985e+07  1.6977702273971952e+07  1.6977702274216946e+07  1.6977702273106854e+07  1.6977702277333081e+07  1.6977702264829084e+07  1.6977702298961498e+07  1.6977707084101401e+07  1.6980951577027228e+07  2.0543514358069669e+07  2.0538855650252204e+07  2.0538849330377392e+07  2.0538849473324854e+07  2.0538849418243594e+07  2.0538849432353299e+07  2.0538849429495811e+07  2.0538849430026997e+07  2.0538849429932002e+07  2.0538849429948963e+07  2.0538849429945353e+07  2.0538849429948747e+07  2.0538849429931875e+07  2.0538849430027016e+07  2.0538849429495830e+07  2.0538849432353724e+07  2.0538849418243900e+07  2.0538849473324552e+07  2.0538849330377463e+07  2.0538855650252037e+07  2.0543514358069476e+07  2.5238799336102486e+07  2.5232206663447414e+07  2.5232200919101290e+07  2.5232200160633463e+07  2.5232200347612150e+07  2.5232200315228563e+07  2.5232200320609342e+07  2.5232200319714334e+07  2.5232200319863968e+07  2.5232200319838926e+07  2.5232200319843691e+07  2.5232200319838695e+07  2.5232200319864076e+07  2.5232200319713928e+07  2.5232200320609089e+07  2.5232200315228529e+07  2.5232200347611800e+07  2.5232200160633583e+07  2.5232200919101279e+07  2.5232206663447250e+07  2.5238799336102400e+07  3.1426897345707025e+07  3.1417736755266838e+07  3.1417716705500081e+07  3.1417719377998970e+07  3.1417719045034654e+07  3.1417719092780411e+07  3.1417719085377060e+07  3.1417719086569663e+07  3.1417719086373948e+07  3.1417719086406376e+07  3.1417719086400025e+07  3.1417719086406462e+07  3.1417719086373828e+07  3.1417719086569693e+07  3.1417719085377239e+07  3.1417719092780430e+07  3.1417719045034811e+07  3.1417719377998974e+07  3.1417716705499783e+07  3.1417736755266931e+07  3.1426897345706727e+07  3.9582735038284220e+07  3.9569782195810519e+07  3.9569815927669764e+07  3.9569813849018857e+07  3.9569814143921085e+07  3.9569814095855579e+07  3.9569814103842720e+07  3.9569814102512874e+07  3.9569814102734596e+07  3.9569814102697149e+07  3.9