<?xml version="1.0"?>
<VTKFile type="UnstructuredGrid"  version="0.1"  >
<UnstructuredGrid>
<Piece  NumberOfPoints="1661" NumberOfCells="3200">
<Points>
<DataArray  type="Float64"  NumberOfComponents="3"  format="ascii">-0.25 -1 0  -0.225 -1 0  -0.2 -1 0  -0.175 -1 0  -0.15 -1 0  -0.125 -1 0  -0.1 -1 0  -0.07500000000000001 -1 0  -0.04999999999999999 -1 0  -0.02499999999999999 -1 0  0 -1 0  0.02500000000000002 -1 0  0.04999999999999999 -1 0  0.07500000000000001 -1 0  0.09999999999999998 -1 0  0.125 -1 0  0.15 -1 0  0.175 -1 0  0.2 -1 0  0.225 -1 0  0.25 -1 0  -0.25 -0.975 0  -0.225 -0.975 0  -0.2 -0.975 0  -0.175 -0.975 0  -0.15 -0.975 0  -0.125 -0.975 0  -0.1 -0.975 0  -0.07500000000000001 -0.975 0  -0.04999999999999999 -0.975 0  -0.02499999999999999 -0.975 0  0 -0.975 0  0.02500000000000002 -0.975 0  0.04999999999999999 -0.975 0  0.07500000000000001 -0.975 0  0.09999999999999998 -0.975 0  0.125 -0.975 0  0.15 -0.975 0  0.175 -0.975 0  0.2 -0.975 0  0.225 -0.975 0  0.25 -0.975 0  -0.25 -0.95 0  -0.225 -0.95 0  -0.2 -0.95 0  -0.175 -0.95 0  -0.15 -0.95 0  -0.125 -0.95 0  -0.1 -0.95 0  -0.07500000000000001 -0.95 0  -0.04999999999999999 -0.95 0  -0.02499999999999999 -0.95 0  0 -0.95 0  0.02500000000000002 -0.95 0  0.04999999999999999 -0.95 0  0.07500000000000001 -0.95 0  0.09999999999999998 -0.95 0  0.125 -0.95 0  0.15 -0.95 0  0.175 -0.95 0  0.2 -0.95 0  0.225 -0.95 0  0.25 -0.95 0  -0.25 -0.925 0  -0.225 -0.925 0  -0.2 -0.925 0  -0.175 -0.925 0  -0.15 -0.925 0  -0.125 -0.925 0  -0.1 -0.925 0  -0.07500000000000001 -0.925 0  -0.04999999999999999 -0.925 0  -0.02499999999999999 -0.925 0  0 -0.925 0  0.02500000000000002 -0.925 0  0.04999999999999999 -0.925 0  0.07500000000000001 -0.925 0  0.09999999999999998 -0.925 0  0.125 -0.925 0  0.15 -0.925 0  0.175 -0.925 0  0.2 -0.925 0  0.225 -0.925 0  0.25 -0.925 0  -0.25 -0.9 0  -0.225 -0.9 0  -0.2 -0.9 0  -0.175 -0.9 0  -0.15 -0.9 0  -0.125 -0.9 0  -0.1 -0.9 0  -0.07500000000000001 -0.9 0  -0.04999999999999999 -0.9 0  -0.02499999999999999 -0.9 0  0 -0.9 0  0.02500000000000002 -0.9 0  0.04999999999999999 -0.9 0  0.07500000000000001 -0.9 0  0.09999999999999998 -0.9 0  0.125 -0.9 0  0.15 -0.9 0  0.175 -0.9 0  0.2 -0.9 0  0.225 -0.9 0  0.25 -0.9 0  -0.25 -0.875 0  -0.225 -0.875 0  -0.2 -0.875 0  -0.175 -0.875 0  -0.15 -0.875 0  -0.125 -0.875 0  -0.1 -0.875 0  -0.07500000000000001 -0.875 0  -0.04999999999999999 -0.875 0  -0.02499999999999999 -0.875 0  0 -0.875 0  0.02500000000000002 -0.875 0  0.04999999999999999 -0.875 0  0.07500000000000001 -0.875 0  0.09999999999999998 -0.875 0  0.125 -0.875 0  0.15 -0.875 0  0.175 -0.875 0  0.2 -0.875 0  0.225 -0.875 0  0.25 -0.875 0  -0.25 -0.85 0  -0.225 -0.85 0  -0.2 -0.85 0  -0.175 -0.85 0  -0.15 -0.85 0  -0.125 -0.85 0  -0.1 -0.85 0  -0.07500000000000001 -0.85 0  -0.04999999999999999 -0.85 0  -0.02499999999999999 -0.85 0  0 -0.85 0  0.02500000000000002 -0.85 0  0.04999999999999999 -0.85 0  0.07500000000000001 -0.85 0  0.09999999999999998 -0.85 0  0.125 -0.85 0  0.15 -0.85 0  0.175 -0.85 0  0.2 -0.85 0  0.225 -0.85 0  0.25 -0.85 0  -0.25 -0.825 0  -0.225 -0.825 0  -0.2 -0.825 0  -0.175 -0.825 0  -0.15 -0.825 0  -0.125 -0.825 0  -0.1 -0.825 0  -0.07500000000000001 -0.825 0  -0.04999999999999999 -0.825 0  -0.02499999999999999 -0.825 0  0 -0.825 0  0.02500000000000002 -0.825 0  0.04999999999999999 -0.825 0  0.07500000000000001 -0.825 0  0.09999999999999998 -0.825 0  0.125 -0.825 0  0.15 -0.825 0  0.175 -0.825 0  0.2 -0.825 0  0.225 -0.825 0  0.25 -0.825 0  -0.25 -0.8 0  -0.225 -0.8 0  -0.2 -0.8 0  -0.175 -0.8 0  -0.15 -0.8 0  -0.125 -0.8 0  -0.1 -0.8 0  -0.07500000000000001 -0.8 0  -0.04999999999999999 -0.8 0  -0.02499999999999999 -0.8 0  0 -0.8 0  0.02500000000000002 -0.8 0  0.04999999999999999 -0.8 0  0.07500000000000001 -0.8 0  0.09999999999999998 -0.8 0  0.125 -0.8 0  0.15 -0.8 0  0.175 -0.8 0  0.2 -0.8 0  0.225 -0.8 0  0.25 -0.8 0  -0.25 -0.775 0  -0.225 -0.775 0  -0.2 -0.775 0  -0.175 -0.775 0  -0.15 -0.775 0  -0.125 -0.775 0  -0.1 -0.775 0  -0.07500000000000001 -0.775 0  -0.04999999999999999 -0.775 0  -0.02499999999999999 -0.775 0  0 -0.775 0  0.02500000000000002 -0.775 0  0.04999999999999999 -0.775 0  0.07500000000000001 -0.775 0  0.09999999999999998 -0.775 0  0.125 -0.775 0  0.15 -0.775 0  0.175 -0.775 0  0.2 -0.775 0  0.225 -0.775 0  0.25 -0.775 0  -0.25 -0.75 0  -0.225 -0.75 0  -0.2 -0.75 0  -0.175 -0.75 0  -0.15 -0.75 0  -0.125 -0.75 0  -0.1 -0.75 0  -0.07500000000000001 -0.75 0  -0.04999999999999999 -0.75 0  -0.02499999999999999 -0.75 0  0 -0.75 0  0.02500000000000002 -0.75 0  0.04999999999999999 -0.75 0  0.07500000000000001 -0.75 0  0.09999999999999998 -0.75 0  0.125 -0.75 0  0.15 -0.75 0  0.175 -0.75 0  0.2 -0.75 0  0.225 -0.75 0  0.25 -0.75 0  -0.25 -0.725 0  -0.225 -0.725 0  -0.2 -0.725 0  -0.175 -0.725 0  -0.15 -0.725 0  -0.125 -0.725 0  -0.1 -0.725 0  -0.07500000000000001 -0.725 0  -0.04999999999999999 -0.725 0  -0.02499999999999999 -0.725 0  0 -0.725 0  0.02500000000000002 -0.725 0  0.04999999999999999 -0.725 0  0.07500000000000001 -0.725 0  0.09999999999999998 -0.725 0  0.125 -0.725 0  0.15 -0.725 0  0.175 -0.725 0  0.2 -0.725 0  0.225 -0.725 0  0.25 -0.725 0  -0.25 -0.7 0  -0.225 -0.7 0  -0.2 -0.7 0  -0.175 -0.7 0  -0.15 -0.7 0  -0.125 -0.7 0  -0.1 -0.7 0  -0.07500000000000001 -0.7 0  -0.04999999999999999 -0.7 0  -0.02499999999999999 -0.7 0  0 -0.7 0  0.02500000000000002 -0.7 0  0.04999999999999999 -0.7 0  0.07500000000000001 -0.7 0  0.09999999999999998 -0.7 0  0.125 -0.7 0  0.15 -0.7 0  0.175 -0.7 0  0.2 -0.7 0  0.225 -0.7 0  0.25 -0.7 0  -0.25 -0.675 0  -0.225 -0.675 0  -0.2 -0.675 0  -0.175 -0.675 0  -0.15 -0.675 0  -0.125 -0.675 0  -0.1 -0.675 0  -0.07500000000000001 -0.675 0  -0.04999999999999999 -0.675 0  -0.02499999999999999 -0.675 0  0 -0.675 0  0.02500000000000002 -0.675 0  0.04999999999999999 -0.675 0  0.07500000000000001 -0.675 0  0.09999999999999998 -0.675 0  0.125 -0.675 0  0.15 -0.675 0  0.175 -0.675 0  0.2 -0.675 0  0.225 -0.675 0  0.25 -0.675 0  -0.25 -0.65 0  -0.225 -0.65 0  -0.2 -0.65 0  -0.175 -0.65 0  -0.15 -0.65 0  -0.125 -0.65 0  -0.1 -0.65 0  -0.07500000000000001 -0.65 0  -0.04999999999999999 -0.65 0  -0.02499999999999999 -0.65 0  0 -0.65 0  0.02500000000000002 -0.65 0  0.04999999999999999 -0.65 0  0.07500000000000001 -0.65 0  0.09999999999999998 -0.65 0  0.125 -0.65 0  0.15 -0.65 0  0.175 -0.65 0  0.2 -0.65 0  0.225 -0.65 0  0.25 -0.65 0  -0.25 -0.625 0  -0.225 -0.625 0  -0.2 -0.625 0  -0.175 -0.625 0  -0.15 -0.625 0  -0.125 -0.625 0  -0.1 -0.625 0  -0.07500000000000001 -0.625 0  -0.04999999999999999 -0.625 0  -0.02499999999999999 -0.625 0  0 -0.625 0  0.02500000000000002 -0.625 0  0.04999999999999999 -0.625 0  0.07500000000000001 -0.625 0  0.09999999999999998 -0.625 0  0.125 -0.625 0  0.15 -0.625 0  0.175 -0.625 0  0.2 -0.625 0  0.225 -0.625 0  0.25 -0.625 0  -0.25 -0.6 0  -0.225 -0.6 0  -0.2 -0.6 0  -0.175 -0.6 0  -0.15 -0.6 0  -0.125 -0.6 0  -0.1 -0.6 0  -0.07500000000000001 -0.6 0  -0.04999999999999999 -0.6 0  -0.02499999999999999 -0.6 0  0 -0.6 0  0.02500000000000002 -0.6 0  0.04999999999999999 -0.6 0  0.07500000000000001 -0.6 0  0.09999999999999998 -0.6 0  0.125 -0.6 0  0.15 -0.6 0  0.175 -0.6 0  0.2 -0.6 0  0.225 -0.6 0  0.25 -0.6 0  -0.25 -0.575 0  -0.225 -0.575 0  -0.2 -0.575 0  -0.175 -0.575 0  -0.15 -0.575 0  -0.125 -0.575 0  -0.1 -0.575 0  -0.07500000000000001 -0.575 0  -0.04999999999999999 -0.575 0  -0.02499999999999999 -0.575 0  0 -0.575 0  0.02500000000000002 -0.575 0  0.04999999999999999 -0.575 0  0.07500000000000001 -0.575 0  0.09999999999999998 -0.575 0  0.125 -0.575 0  0.15 -0.575 0  0.175 -0.575 0  0.2 -0.575 0  0.225 -0.575 0  0.25 -0.575 0  -0.25 -0.55 0  -0.225 -0.55 0  -0.2 -0.55 0  -0.175 -0.55 0  -0.15 -0.55 0  -0.125 -0.55 0  -0.1 -0.55 0  -0.07500000000000001 -0.55 0  -0.04999999999999999 -0.55 0  -0.02499999999999999 -0.55 0  0 -0.55 0  0.02500000000000002 -0.55 0  0.04999999999999999 -0.55 0  0.07500000000000001 -0.55 0  0.09999999999999998 -0.55 0  0.125 -0.55 0  0.15 -0.55 0  0.175 -0.55 0  0.2 -0.55 0  0.225 -0.55 0  0.25 -0.55 0  -0.25 -0.525 0  -0.225 -0.525 0  -0.2 -0.525 0  -0.175 -0.525 0  -0.15 -0.525 0  -0.125 -0.525 0  -0.1 -0.525 0  -0.07500000000000001 -0.525 0  -0.04999999999999999 -0.525 0  -0.02499999999999999 -0.525 0  0 -0.525 0  0.02500000000000002 -0.525 0  0.04999999999999999 -0.525 0  0.07500000000000001 -0.525 0  0.09999999999999998 -0.525 0  0.125 -0.525 0  0.15 -0.525 0  0.175 -0.525 0  0.2 -0.525 0  0.225 -0.525 0  0.25 -0.525 0  -0.25 -0.5 0  -0.225 -0.5 0  -0.2 -0.5 0  -0.175 -0.5 0  -0.15 -0.5 0  -0.125 -0.5 0  -0.1 -0.5 0  -0.07500000000000001 -0.5 0  -0.04999999999999999 -0.5 0  -0.02499999999999999 -0.5 0  0 -0.5 0  0.02500000000000002 -0.5 0  0.04999999999999999 -0.5 0  0.07500000000000001 -0.5 0  0.09999999999999998 -0.5 0  0.125 -0.5 0  0.15 -0.5 0  0.175 -0.5 0  0.2 -0.5 0  0.225 -0.5 0  0.25 -0.5 0  -0.25 -0.475 0  -0.225 -0.475 0  -0.2 -0.475 0  -0.175 -0.475 0  -0.15 -0.475 0  -0.125 -0.475 0  -0.1 -0.475 0  -0.07500000000000001 -0.475 0  -0.04999999999999999 -0.475 0  -0.02499999999999999 -0.475 0  0 -0.475 0  0.02500000000000002 -0.475 0  0.04999999999999999 -0.475 0  0.07500000000000001 -0.475 0  0.09999999999999998 -0.475 0  0.125 -0.475 0  0.15 -0.475 0  0.175 -0.475 0  0.2 -0.475 0  0.225 -0.475 0  0.25 -0.475 0  -0.25 -0.45 0  -0.225 -0.45 0  -0.2 -0.45 0  -0.175 -0.45 0  -0.15 -0.45 0  -0.125 -0.45 0  -0.1 -0.45 0  -0.07500000000000001 -0.45 0  -0.04999999999999999 -0.45 0  -0.02499999999999999 -0.45 0  0 -0.45 0  0.02500000000000002 -0.45 0  0.04999999999999999 -0.45 0  0.07500000000000001 -0.45 0  0.09999999999999998 -0.45 0  0.125 -0.45 0  0.15 -0.45 0  0.175 -0.45 0  0.2 -0.45 0  0.225 -0.45 0  0.25 -0.45 0  -0.25 -0.425 0  -0.225 -0.425 0  -0.2 -0.425 0  -0.175 -0.425 0  -0.15 -0.425 0  -0.125 -0.425 0  -0.1 -0.425 0  -0.07500000000000001 -0.425 0  -0.04999999999999999 -0.425 0  -0.02499999999999999 -0.425 0  0 -0.425 0  0.02500000000000002 -0.425 0  0.04999999999999999 -0.425 0  0.07500000000000001 -0.425 0  0.
[...]
<PointData  Scalars=" mean stress"> 
<DataArray  type="Float64"  Name=" mean stress"  format="ascii">4.7628412128779374e+07  4.7628412128511772e+07  4.7628412128481008e+07  4.7628412128477849e+07  4.7628412128478326e+07  4.7628412128478386e+07  4.7628412128478445e+07  4.7628412128478691e+07  4.7628412128478773e+07  4.7628412128478982e+07  4.7628412128479145e+07  4.7628412128479496e+07  4.7628412128479652e+07  4.7628412128479861e+07  4.7628412128479965e+07  4.7628412128480099e+07  4.7628412128480285e+07  4.7628412128479913e+07  4.7628412128483169e+07  4.7628412128514066e+07  4.7628412128781691e+07  4.7630240538254425e+07  4.7630240536845885e+07  4.7630240536776781e+07  4.7630240536779046e+07  4.7630240536778733e+07  4.7630240536778867e+07  4.7630240536779031e+07  4.7630240536779098e+07  4.7630240536779292e+07  4.7630240536779501e+07  4.7630240536779687e+07  4.7630240536780015e+07  4.7630240536780179e+07  4.7630240536780410e+07  4.7630240536780529e+07  4.7630240536780655e+07  4.7630240536780693e+07  4.7630240536781043e+07  4.7630240536779121e+07  4.7630240536848098e+07  4.7630240538256846e+07  4.7635722948791847e+07  4.7635722942464098e+07  4.7635722942407712e+07  4.7635722942407109e+07  4.7635722942407265e+07  4.7635722942407310e+07  4.7635722942407496e+07  4.7635722942407593e+07  4.7635722942407705e+07  4.7635722942408048e+07  4.7635722942408144e+07  4.7635722942408435e+07  4.7635722942408793e+07  4.7635722942408904e+07  4.7635722942409076e+07  4.7635722942409091e+07  4.7635722942409389e+07  4.7635722942409396e+07  4.7635722942410022e+07  4.7635722942466602e+07  4.7635722948794238e+07  4.7644850906294890e+07  4.7644850891948797e+07  4.7644850891891301e+07  4.7644850891891442e+07  4.7644850891891420e+07  4.7644850891891681e+07  4.7644850891891547e+07  4.7644850891891800e+07  4.7644850891891979e+07  4.7644850891892076e+07  4.7644850891892493e+07  4.7644850891892761e+07  4.7644850891893052e+07  4.7644850891893230e+07  4.7644850891893283e+07  4.7644850891893685e+07  4.7644850891893588e+07  4.7644850891893841e+07  4.7644850891893893e+07  4.7644850891951583e+07  4.7644850906297617e+07  4.7657610336171336e+07  4.7657610310651131e+07  4.7657610310595021e+07  4.7657610310595177e+07  4.7657610310595103e+07  4.7657610310595341e+07  4.7657610310595527e+07  4.7657610310595617e+07  4.7657610310595773e+07  4.7657610310595989e+07  4.7657610310596243e+07  4.7657610310596421e+07  4.7657610310596734e+07  4.7657610310596891e+07  4.7657610310597159e+07  4.7657610310597450e+07  4.7657610310597405e+07  4.7657610310597524e+07  4.7657610310597539e+07  4.7657610310653932e+07  4.7657610336174108e+07  4.7673981564230271e+07  4.7673981524473906e+07  4.7673981524419256e+07  4.7673981524419457e+07  4.7673981524419464e+07  4.7673981524419315e+07  4.7673981524419814e+07  4.7673981524419680e+07  4.7673981524420060e+07  4.7673981524420209e+07  4.7673981524420492e+07  4.7673981524420895e+07  4.7673981524420947e+07  4.7673981524421483e+07  4.7673981524421513e+07  4.7673981524421677e+07  4.7673981524421915e+07  4.7673981524421863e+07  4.7673981524422072e+07  4.7673981524476312e+07  4.7673981564232886e+07  4.7693939347154938e+07  4.7693939290191628e+07  4.7693939290139332e+07  4.7693939290139280e+07  4.7693939290139444e+07  4.7693939290139563e+07  4.7693939290139757e+07  4.7693939290139794e+07  4.7693939290140122e+07  4.7693939290140286e+07  4.7693939290140092e+07  4.7693939290140823e+07  4.7693939290140986e+07  4.7693939290141292e+07  4.7693939290141322e+07  4.7693939290141329e+07  4.7693939290141784e+07  4.7693939290141612e+07  4.7693939290141955e+07  4.7693939290194161e+07  4.7693939347157732e+07  4.7717452911403991e+07  4.7717452834377088e+07  4.7717452834326573e+07  4.7717452834326588e+07  4.7717452834326737e+07  4.7717452834326655e+07  4.7717452834327020e+07  4.7717452834327124e+07  4.7717452834327221e+07  4.7717452834327616e+07  4.7717452834327936e+07  4.7717452834328026e+07  4.7717452834328182e+07  4.7717452834328480e+07  4.7717452834328800e+07  4.7717452834328867e+07  4.7717452834329098e+07  4.7717452834329315e+07  4.7717452834329218e+07  4.7717452834379666e+07  4.7717452911406405e+07  4.7744486000663191e+07  4.7744485900848143e+07  4.7744485900800243e+07  4.7744485900800832e+07  4.7744485900800548e+07  4.7744485900800556e+07  4.7744485900800563e+07  4.7744485900801055e+07  4.7744485900801770e+07  4.7744485900801629e+07  4.7744485900801942e+07  4.7744485900801703e+07  4.7744485900802277e+07  4.7744485900802702e+07  4.7744485900802627e+07  4.7744485900803171e+07  4.7744485900802836e+07  4.7744485900803193e+07  4.7744485900802933e+07  4.7744485900851242e+07  4.7744486000666112e+07  4.7774996931754485e+07  4.7774996806576796e+07  4.7774996806532040e+07  4.7774996806531779e+07  4.7774996806531638e+07  4.7774996806532249e+07  4.7774996806532092e+07  4.7774996806532502e+07  4.7774996806532398e+07  4.7774996806532599e+07  4.7774996806532890e+07  4.7774996806533411e+07  4.7774996806533366e+07  4.7774996806533627e+07  4.7774996806533970e+07  4.7774996806534193e+07  4.7774996806534730e+07  4.7774996806534305e+07  4.7774996806534484e+07  4.7774996806579255e+07  4.7774996931756906e+07  4.7808938658904590e+07  4.7808938505957685e+07  4.7808938505915992e+07  4.7808938505916044e+07  4.7808938505916290e+07  4.7808938505916297e+07  4.7808938505916342e+07  4.7808938505916357e+07  4.7808938505916610e+07  4.7808938505916923e+07  4.7808938505916983e+07  4.7808938505917549e+07  4.7808938505917571e+07  4.7808938505918086e+07  4.7808938505917914e+07  4.7808938505918019e+07  4.7808938505918801e+07  4.7808938505918540e+07  4.7808938505918652e+07  4.7808938505959973e+07  4.7808938658907183e+07  4.7846258846291803e+07  4.7846258663350508e+07  4.7846258663312562e+07  4.7846258663312636e+07  4.7846258663312964e+07  4.7846258663312688e+07  4.7846258663312785e+07  4.7846258663312964e+07  4.7846258663312770e+07  4.7846258663312979e+07  4.7846258663313203e+07  4.7846258663313597e+07  4.7846258663314305e+07  4.7846258663314201e+07  4.7846258663314357e+07  4.7846258663314700e+07  4.7846258663314715e+07  4.7846258663314976e+07  4.7846258663315356e+07  4.7846258663353041e+07  4.7846258846294947e+07  4.7886899948742174e+07  4.7886899733778372e+07  4.7886899733743250e+07  4.7886899733743250e+07  4.7886899733743556e+07  4.7886899733743735e+07  4.7886899733744286e+07  4.7886899733744055e+07  4.7886899733744323e+07  4.7886899733744919e+07  4.7886899733745009e+07  4.7886899733745225e+07  4.7886899733745106e+07  4.7886899733745120e+07  4.7886899733746037e+07  4.7886899733745039e+07  4.7886899733745441e+07  4.7886899733745702e+07  4.7886899733745843e+07  4.7886899733781405e+07  4.7886899948744550e+07  4.7930799300459348e+07  4.7930799051654607e+07  4.7930799051624261e+07  4.7930799051624723e+07  4.7930799051624238e+07  4.7930799051624790e+07  4.7930799051624775e+07  4.7930799051625133e+07  4.7930799051625326e+07  4.7930799051624797e+07  4.7930799051625445e+07  4.7930799051625520e+07  4.7930799051626079e+07  4.7930799051625997e+07  4.7930799051625736e+07  4.7930799051626809e+07  4.7930799051626347e+07  4.7930799051626980e+07  4.7930799051626593e+07  4.7930799051657878e+07  4.7930799300461829e+07  4.7977889211657345e+07  4.7977888927415989e+07  4.7977888927388772e+07  4.7977888927389070e+07  4.7977888927389167e+07  4.7977888927389190e+07  4.7977888927389182e+07  4.7977888927388765e+07  4.7977888927389227e+07  4.7977888927389413e+07  4.7977888927389733e+07  4.7977888927390061e+07  4.7977888927390434e+07  4.7977888927390739e+07  4.7977888927391022e+07  4.7977888927391291e+07  4.7977888927391276e+07  4.7977888927391306e+07  4.7977888927391402e+07  4.7977888927418068e+07  4.7977889211660169e+07  4.8028097072929382e+07  4.8028096751885064e+07  4.8028096751861542e+07  4.8028096751861647e+07  4.8028096751861840e+07  4.8028096751861259e+07  4.8028096751862310e+07  4.8028096751862288e+07  4.8028096751862653e+07  4.8028096751862817e+07  4.8028096751862720e+07  4.8028096751863629e+07  4.8028096751864068e+07  4.8028096751864009e+07  4.8028096751863793e+07  4.8028096751863994e+07  4.8028096751864500e+07  4.8028096751864709e+07  4.8028096751864702e+07  4.8028096751888253e+07  4.8028097072933085e+07  4.8081345467211530e+07  4.8081345108236007e+07  4.8081345108217962e+07  4.8081345108217657e+07  4.8081345108217329e+07  4.8081345108217254e+07  4.8081345108217441e+07  4.8081345108217925e+07  4.8081345108218163e+07  4.8081345108218320e+07  4.8081345108219177e+07  4.8081345108218923e+07  4.8081345108219266e+07  4.8081345108219661e+07  4.8081345108218983e+07  4.8081345108219430e+07  4.8081345108220026e+07  4.8081345108218893e+07  4.8081345108220316e+07  4.8081345108238578e+07  4.8081345467213556e+07  4.8137552289150253e+07  4.8137551891364239e+07  4.8137551891349338e+07  4.8137551891349316e+07  4.8137551891349606e+07  4.8137551891349718e+07  4.8137551891349010e+07  4.8137551891349927e+07  4.8137551891350135e+07  4.8137551891351290e+07  4.8137551891350359e+07  4.8137551891351387e+07  4.8137551891351074e+07  4.8137551891352110e+07  4.8137551891352355e+07  4.8137551891352512e+07  4.8137551891352162e+07  4.8137551891351871e+07  4.8137551891352154e+07  4.8137551891366519e+07  4.8137552289152943e+07  4.8196630871709265e+07  4.8196630434481829e+07  4.8196630434472047e+07  4.8196630434471957e+07  4.8196630434472293e+07  4.8196630434473284e+07  4.8196630434473023e+07  4.8196630434473425e+07  4.8196630434472822e+07  4.8196630434472717e+07  4.8196630434473500e+07  4.8196630434473477e+07  4.8196630434473708e+07  4.8196630434473164e+07  4.8196630434474610e+07  4.8196630434474021e+07  4.8196630434473537e+07  4.8196630434475578e+07  4.8196630434473619e+07  4.8196630434485070e+07  4.8196630871711239e+07  4.8258490119802214e+07  4.8258489642760500e+07  4.8258489642754205e+07  4.8258489642754354e+07  4.8258489642754212e+07  4.8258489642754421e+07  4.8258489642754823e+07  4.8258489642755091e+07  4.8258489642755739e+07  4.8258489642754614e+07  4.8258489642756045e+07  4.8258489642755374e+07  4.8258489642755881e+07  4.8258489642755829e+07  4.8258489642756477e+07  4.8258489642756812e+07  4.8258489642757602e+07  4.8258489642756656e+07  4.8258489642756395e+07  4.8258489642762586e+07  4.8258490119805731e+07  4.8323034650760449e+07  4.8323034133782528e+07  4.8323034133780748e+07  4.8323034133781314e+07  4.8323034133781463e+07  4.8323034133782387e+07  4.8323034133781560e+07  4.8323034133781575e+07  4.8323034133782327e+07  4.8323034133782856e+07  4.8323034133782551e+07  4.8323034133783415e+07  4.8323034133782715e+07  4.8323034133784331e+07  4.8323034133783139e+07  4.8323034133784235e+07  4.8323034133783951e+07  4.8323034133783184e+07  4.8323034133784518e+07  4.8323034133784287e+07  4.8323034650763407e+07  4.8390164941398695e+07  4.8390164384621687e+07  4.8390164384624697e+07  4.8390164384624861e+07  4.8390164384625643e+07  4.8390164384625077e+07  4.8390164384627022e+07  4.8390164384625912e+07  4.8390164384625763e+07  4.8390164384627022e+07  4.8390164384626620e+07  4.8390164384627253e+07  4.8390164384626575e+07  4.8390164384627074e+07  4.8390164384627461e+07  4.8390164384626962e+07  4.8390164384627223e+07  4.8390164384627871e+07  4.8390164384627797e+07  4.8390164384624891e+07  4.8390164941401139e+07  4.8459777481482990e+07  4.8459776885297924e+07  4.8459776885305360e+07  4.8459776885304838e+07  4.8459776885305926e+07  4.8459776885305740e+07  4.8459776885306701e+07  4.8459776885306492e+07  4.8459776885305703e+07  4.8459776885306619e+07  4.8459776885307148e+07  4.8459776885306962e+07  4.8459776885307096e+07  4.8459776885307677e+07  4.8459776885308184e+07  4.8459776885308586e+07  4.8459776885307804e+07  4.8459776885308899e+07  4.8459776885308549e+07  4.8459776885301828e+07  4.8459777481486954e+07  4.8531764933333419e+07  4.8531764298380353e+07  4.8531764298391633e+07  4.8531764298391894e+07  4.8531764298391797e+07  4.8531764298392117e+07  4.8531764298390791e+07  4.8531764298391677e+07  4.8531764298392139e+07  4.8531764298391625e+07  4.8531764298391990e+07  4.8531764298392452e+07  4.8531764298393577e+07  4.8531764298393473e+07  4.8531764298393913e+07  4.8531764298393629e+07  4.8531764298393503e+07  4.8531764298393980e+07  4.8531764298394531e+07  4.8531764298382588e+07  4.8531764933336467e+07  4.8606016297329932e+07  4.8606015624494292e+07  4.8606015624510199e+07  4.8606015624510713e+07  4.8606015624509186e+07  4.8606015624509901e+07  4.8606015624510065e+07  4.8606015624510258e+07  4.8606015624510802e+07  4.8606015624510303e+07  4.8606015624511406e+07  4.8606015624511316e+07  4.8606015624512486e+07  4.8606015624511190e+07  4.8606015624511749e+07  4.8606015624512032e+07  4.8606015624513574e+07  4.8606015624512665e+07  4.8606015624512188e+07  4.8606015624497935e+07  4.8606016297331400e+07  4.8682417083071396e+07  4.8682416373478718e+07  4.8682416373497523e+07  4.8682416373497590e+07  4.8682416373497985e+07  4.8682416373498037e+07  4.8682416373498835e+07  4.8682416373499356e+07  4.8682416373499021e+07  4.8682416373500124e+07  4.8682416373499073e+07  4.8682416373500280e+07  4.8682416373500019e+07  4.8682416373501912e+07  4.8682416373500668e+07  4.8682416373500712e+07  4.8682416373500995e+07  4.8682416373500802e+07  4.8682416373501390e+07  4.8682416373481862e+07  4.8682417083074272e+07  4.8760849485909462e+07  4.8760848740916975e+07  4.8760848740939997e+07  4.8760848740939662e+07  4.8760848740940593e+07  4.8760848740939289e+07  4.8760848740939565e+07  4.8760848740940012e+07  4.8760848740939692e+07  4.8760848740938768e+07  4.8760848740940526e+07  4.8760848740941159e+07  4.8760848740940593e+07  4.8760848740941085e+07  4.8760848740941890e+07  4.8760848740940996e+07  4.8760848740941226e+07  4.8760848740941979e+07  4.8760848740942799e+07  4.8760848740919195e+07  4.8760849485914119e+07  4.8841192568598971e+07  4.8841191789780237e+07  4.8841191789806999e+07  4.8841191789807156e+07  4.8841191789806761e+07  4.8841191789808489e+07  4.8841191789807081e+07  4.8841191789807074e+07  4.8841191789807796e+07  4.8841191789808474e+07  4.8841191789808504e+07  4.8841191789807707e+07  4.8841191789809473e+07  4.8841191789808862e+07  4.8841191789810061e+07  4.8841191789810278e+07  4.8841191789809100e+07  4.8841191789809100e+07  4.8841191789809532e+07  4.8841191789783671e+07  4.8841192568599284e+07  4.8923322447771937e+07  4.8923321636913337e+07  4.8923321636943780e+07  4.8923321636943638e+07  4.8923321636942200e+07  4.8923321636942603e+07  4.8923321636942379e+07  4.8923321636943534e+07  4.8923321636944123e+07  4.8923321636944525e+07  4.8923321636943616e+07  4.8923321636945181e+07  4.8923321636945873e+07  4.8923321636945553e+07  4.8923321636944793e+07  4.8923321636945255e+07  4.8923321636945292e+07  4.8923321636946484e+07  4.8923321636945702e+07  4.8923321636915989e+07  4.8923322447774798e+07  4.9007112484955549e+07  4.9007111644044608e+07  4.9007111644077092e+07  4.9007111644077271e+07  4.9007111644076951e+07  4.9007111644077778e+07  4.9007111644079261e+07  4.9007111644078344e+07  4.9007111644076511e+07  4.9007111644077606e+07  4.9007111644077137e+07  4.9007111644078203e+07  4.9007111644078054e+07  4.9007111644078143e+07  4.9007111644079141e+07  4.9007111644078836e+07  4.9007111644079678e+07  4.9007111644079551e+07  4.9007111644079551e+07  4.9007111644046366e+07  4.9007112484958582e+07  4.9092433481855020e+07  4.9092432613055557e+07  4.9092432613090940e+07  4.9092432613090865e+07  4.9092432613091052e+07  4.9092432613090023e+07  4.9092432613091059e+07  4.9092432613089822e+07  4.9092432613092110e+07  4.9092432613091692e+07  4.9092432613091655e+07  4.9092432613092072e+07  4.9092432613091737e+07  4.9092432613092594e+07  4.9092432613091476e+07  4.9092432613092221e+07  4.9092432613093235e+07  4.9092432613092855e+07  4.9092432613092512e+07  4.9092432613056846e+07  4.9092433481857106e+07  4.9179153879543185e+07  4.9179152985194519e+07  4.9179152985232763e+07  4.9179152985232644e+07  4.9179152985234804e+07  4.9179152985233702e+07  4.9179152985232510e+07  4.9179152985234283e+07  4.9179152985234424e+07  4.9179152985234335e+07  4.9179152985235535e+07  4.9179152985234737e+07  4.9179152985234402e+07  4.9179152985235117e+07  4.9179152985235937e+07  4.9179152985235579e+07  4.9179152985236056e+07  4.9179152985234864e+07  4.9179152985236160e+07  4.9179152985197149e+07  4.9179153879546493e+07  4.9267139961343229e+07  4.9267139043937132e+07  4.9267139043977767e+07  4.9267139043978296e+07  4.9267139043978363e+07  4.9267139043978497e+07  4.9267139043978453e+07  4.9267139043978155e+07  4.9267139043977946e+07  4.9267139043979228e+07  4.9267139043979861e+07  4.9267139043979056e+07  4.9267139043979995e+07  4.9267139043979771e+07  4.9267139043979757e+07  4.9267139043980397e+07  4.9267139043979689e+07  4.9267139043979689e+07  4.9267139043980740e+07  4.9267139043939143e+07  4.9267139961345904e+07  4.9356256058993161e+07  4.9356255121154748e+07  4.9356255121198103e+07  4.9356255121198080e+07  4.9356255121197537e+07  4.9356255121197328e+07  4.9356255121198140e+07  4.9356255121196918e+07  4.9356255121199906e+07  4.9356255121197976e+07  4.9356255121198140e+07  4.9356255121198528e+07  4.9356255121199064e+07  4.9356255121198602e+07  4.9356255121199377e+07  4.9356255121199898e+07  4.9356255121199705e+07  4.9356255121201344e+07  4.9356255121200323e+07  4.9356255121158555e+07  4.9356256058995076e+07  4.9446364761834055e+07  4.9446363806318045e+07  4.9446363806362025e+07  4.9446363806363635e+07  4.9446363806361191e+07  4.9446363806362748e+07  4.9446363806361519e+07  4.9446363806363925e+07  4.9446363806361839e+07  4.9446363806362979e+07  4.9446363806362085e+07  4.9446363806363329e+07  4.9446363806363508e+07  4.9446363806364931e+07  4.9446363806363277e+07  4.9446363806365393e+07  4.9446363806364261e+07  4.9446363806365438e+07  4.9446363806363173e+07  4.9446363806320317e+07  4.9446364761835679e+07  4.9537327128704339e+07  4.9537326158363082e+07  4.9537326158407703e+07  4.9537326158407375e+07  4.9537326158409059e+07  4.9537326158408508e+07  4.9537326158408977e+07  4.9537326158409245e+07  4.9537326158408940e+07  4.9537326158409804e+07  4.9537326158410311e+07  4.9537326158410087e+07  4.9537326158410214e+07  4.9537326158409961e+07  4.9537326158410050e+07  4.9537326158409521e+07  4.9537326158411704e+07  4.9537326158410341e+07  4.9537326158412799e+07  4.9537326158364601e+07  4.9537327128707536e+07  4.9629002902172923e+07  4.9629001919937663e+07  4.9629001919986077e+07  4.9629001919984832e+07  4.9629001919985041e+07  4.9629001919983268e+07  4.9629001919985227e+07  4.9629001919983491e+07  4.9629001919986010e+07  4.9629001919985041e+07  4.9629001919985287e+07  4.9629001919986099e+07  4.9629001919984721e+07  4.9629001919985838e+07  4.9629001919986986e+07  4.9629001919986725e+07  4.9629001919986852e+07  4.9629001919986300e+07  4.9629001919987537e+07  4.9629001919939950e+07  4.9629002902173690e+07  4.9721250724785596e+07  4.9721249733663760e+07  4.9721249733710647e+07  4.9721249733709417e+07  4.9721249733710013e+07  4.9721249733707994e+07  4.9721249733709618e+07  4.9721249733709671e+07  4.9721249733709872e+07  4.9721249733710997e+07  4.9721249733710408e+07  4.9721249733711019e+07  4.9721249733711898e+07  4.9721249733710393e+07  4.9721249733711503e+07  4.9721249733711369e+07  4.9721249733710550e+07  4.9721249733711563e+07  4.9721249733709268e+07  4.9721249733664595e+07  4.9721250724784769e+07  4.9813928357057966e+07  4.9813927360091403e+07  4.9813927360142268e+07  4.9813927360142827e+07  4.9813927360141091e+07  4.9813927360144362e+07  4.9813927360140547e+07  4.9813927360143200e+07  4.9813927360142313e+07  4.9813927360141791e+07  4.9813927360142127e+07  4.9813927360142425e+07  4.9813927360143468e+07  4.9813927360142805e+07  4.9813927360141963e+07  4.9813927360141642e+07  4.9813927360142075e+07  4.9813927360141821e+07  4.9813927360143036e+07  4.9813927360092558e+07  4.9813928357058726e+07  4.9906892896772832e+07  4.9906891897063620e+07  4.9906891897100732e+07  4.9906891897098042e+07  4.9906891897097923e+07  4.9906891897097997e+07  4.9906891897096448e+07  4.9906891897098579e+07  4.9906891897097975e+07  4.9906891897099048e+07  4.9