<?xml version="1.0"?>
<VTKFile type="UnstructuredGrid"  version="0.1"  >
<UnstructuredGrid>
<Piece  NumberOfPoints="1661" NumberOfCells="3200">
<Points>
<DataArray  type="Float64"  NumberOfComponents="3"  format="ascii">-0.25 -1 0  -0.225 -1 0  -0.2 -1 0  -0.175 -1 0  -0.15 -1 0  -0.125 -1 0  -0.1 -1 0  -0.07500000000000001 -1 0  -0.04999999999999999 -1 0  -0.02499999999999999 -1 0  0 -1 0  0.02500000000000002 -1 0  0.04999999999999999 -1 0  0.07500000000000001 -1 0  0.09999999999999998 -1 0  0.125 -1 0  0.15 -1 0  0.175 -1 0  0.2 -1 0  0.225 -1 0  0.25 -1 0  -0.25 -0.975 0  -0.225 -0.975 0  -0.2 -0.975 0  -0.175 -0.975 0  -0.15 -0.975 0  -0.125 -0.975 0  -0.1 -0.975 0  -0.07500000000000001 -0.975 0  -0.04999999999999999 -0.975 0  -0.02499999999999999 -0.975 0  0 -0.975 0  0.02500000000000002 -0.975 0  0.04999999999999999 -0.975 0  0.07500000000000001 -0.975 0  0.09999999999999998 -0.975 0  0.125 -0.975 0  0.15 -0.975 0  0.175 -0.975 0  0.2 -0.975 0  0.225 -0.975 0  0.25 -0.975 0  -0.25 -0.95 0  -0.225 -0.95 0  -0.2 -0.95 0  -0.175 -0.95 0  -0.15 -0.95 0  -0.125 -0.95 0  -0.1 -0.95 0  -0.07500000000000001 -0.95 0  -0.04999999999999999 -0.95 0  -0.02499999999999999 -0.95 0  0 -0.95 0  0.02500000000000002 -0.95 0  0.04999999999999999 -0.95 0  0.07500000000000001 -0.95 0  0.09999999999999998 -0.95 0  0.125 -0.95 0  0.15 -0.95 0  0.175 -0.95 0  0.2 -0.95 0  0.225 -0.95 0  0.25 -0.95 0  -0.25 -0.925 0  -0.225 -0.925 0  -0.2 -0.925 0  -0.175 -0.925 0  -0.15 -0.925 0  -0.125 -0.925 0  -0.1 -0.925 0  -0.07500000000000001 -0.925 0  -0.04999999999999999 -0.925 0  -0.02499999999999999 -0.925 0  0 -0.925 0  0.02500000000000002 -0.925 0  0.04999999999999999 -0.925 0  0.07500000000000001 -0.925 0  0.09999999999999998 -0.925 0  0.125 -0.925 0  0.15 -0.925 0  0.175 -0.925 0  0.2 -0.925 0  0.225 -0.925 0  0.25 -0.925 0  -0.25 -0.9 0  -0.225 -0.9 0  -0.2 -0.9 0  -0.175 -0.9 0  -0.15 -0.9 0  -0.125 -0.9 0  -0.1 -0.9 0  -0.07500000000000001 -0.9 0  -0.04999999999999999 -0.9 0  -0.02499999999999999 -0.9 0  0 -0.9 0  0.02500000000000002 -0.9 0  0.04999999999999999 -0.9 0  0.07500000000000001 -0.9 0  0.09999999999999998 -0.9 0  0.125 -0.9 0  0.15 -0.9 0  0.175 -0.9 0  0.2 -0.9 0  0.225 -0.9 0  0.25 -0.9 0  -0.25 -0.875 0  -0.225 -0.875 0  -0.2 -0.875 0  -0.175 -0.875 0  -0.15 -0.875 0  -0.125 -0.875 0  -0.1 -0.875 0  -0.07500000000000001 -0.875 0  -0.04999999999999999 -0.875 0  -0.02499999999999999 -0.875 0  0 -0.875 0  0.02500000000000002 -0.875 0  0.04999999999999999 -0.875 0  0.07500000000000001 -0.875 0  0.09999999999999998 -0.875 0  0.125 -0.875 0  0.15 -0.875 0  0.175 -0.875 0  0.2 -0.875 0  0.225 -0.875 0  0.25 -0.875 0  -0.25 -0.85 0  -0.225 -0.85 0  -0.2 -0.85 0  -0.175 -0.85 0  -0.15 -0.85 0  -0.125 -0.85 0  -0.1 -0.85 0  -0.07500000000000001 -0.85 0  -0.04999999999999999 -0.85 0  -0.02499999999999999 -0.85 0  0 -0.85 0  0.02500000000000002 -0.85 0  0.04999999999999999 -0.85 0  0.07500000000000001 -0.85 0  0.09999999999999998 -0.85 0  0.125 -0.85 0  0.15 -0.85 0  0.175 -0.85 0  0.2 -0.85 0  0.225 -0.85 0  0.25 -0.85 0  -0.25 -0.825 0  -0.225 -0.825 0  -0.2 -0.825 0  -0.175 -0.825 0  -0.15 -0.825 0  -0.125 -0.825 0  -0.1 -0.825 0  -0.07500000000000001 -0.825 0  -0.04999999999999999 -0.825 0  -0.02499999999999999 -0.825 0  0 -0.825 0  0.02500000000000002 -0.825 0  0.04999999999999999 -0.825 0  0.07500000000000001 -0.825 0  0.09999999999999998 -0.825 0  0.125 -0.825 0  0.15 -0.825 0  0.175 -0.825 0  0.2 -0.825 0  0.225 -0.825 0  0.25 -0.825 0  -0.25 -0.8 0  -0.225 -0.8 0  -0.2 -0.8 0  -0.175 -0.8 0  -0.15 -0.8 0  -0.125 -0.8 0  -0.1 -0.8 0  -0.07500000000000001 -0.8 0  -0.04999999999999999 -0.8 0  -0.02499999999999999 -0.8 0  0 -0.8 0  0.02500000000000002 -0.8 0  0.04999999999999999 -0.8 0  0.07500000000000001 -0.8 0  0.09999999999999998 -0.8 0  0.125 -0.8 0  0.15 -0.8 0  0.175 -0.8 0  0.2 -0.8 0  0.225 -0.8 0  0.25 -0.8 0  -0.25 -0.775 0  -0.225 -0.775 0  -0.2 -0.775 0  -0.175 -0.775 0  -0.15 -0.775 0  -0.125 -0.775 0  -0.1 -0.775 0  -0.07500000000000001 -0.775 0  -0.04999999999999999 -0.775 0  -0.02499999999999999 -0.775 0  0 -0.775 0  0.02500000000000002 -0.775 0  0.04999999999999999 -0.775 0  0.07500000000000001 -0.775 0  0.09999999999999998 -0.775 0  0.125 -0.775 0  0.15 -0.775 0  0.175 -0.775 0  0.2 -0.775 0  0.225 -0.775 0  0.25 -0.775 0  -0.25 -0.75 0  -0.225 -0.75 0  -0.2 -0.75 0  -0.175 -0.75 0  -0.15 -0.75 0  -0.125 -0.75 0  -0.1 -0.75 0  -0.07500000000000001 -0.75 0  -0.04999999999999999 -0.75 0  -0.02499999999999999 -0.75 0  0 -0.75 0  0.02500000000000002 -0.75 0  0.04999999999999999 -0.75 0  0.07500000000000001 -0.75 0  0.09999999999999998 -0.75 0  0.125 -0.75 0  0.15 -0.75 0  0.175 -0.75 0  0.2 -0.75 0  0.225 -0.75 0  0.25 -0.75 0  -0.25 -0.725 0  -0.225 -0.725 0  -0.2 -0.725 0  -0.175 -0.725 0  -0.15 -0.725 0  -0.125 -0.725 0  -0.1 -0.725 0  -0.07500000000000001 -0.725 0  -0.04999999999999999 -0.725 0  -0.02499999999999999 -0.725 0  0 -0.725 0  0.02500000000000002 -0.725 0  0.04999999999999999 -0.725 0  0.07500000000000001 -0.725 0  0.09999999999999998 -0.725 0  0.125 -0.725 0  0.15 -0.725 0  0.175 -0.725 0  0.2 -0.725 0  0.225 -0.725 0  0.25 -0.725 0  -0.25 -0.7 0  -0.225 -0.7 0  -0.2 -0.7 0  -0.175 -0.7 0  -0.15 -0.7 0  -0.125 -0.7 0  -0.1 -0.7 0  -0.07500000000000001 -0.7 0  -0.04999999999999999 -0.7 0  -0.02499999999999999 -0.7 0  0 -0.7 0  0.02500000000000002 -0.7 0  0.04999999999999999 -0.7 0  0.07500000000000001 -0.7 0  0.09999999999999998 -0.7 0  0.125 -0.7 0  0.15 -0.7 0  0.175 -0.7 0  0.2 -0.7 0  0.225 -0.7 0  0.25 -0.7 0  -0.25 -0.675 0  -0.225 -0.675 0  -0.2 -0.675 0  -0.175 -0.675 0  -0.15 -0.675 0  -0.125 -0.675 0  -0.1 -0.675 0  -0.07500000000000001 -0.675 0  -0.04999999999999999 -0.675 0  -0.02499999999999999 -0.675 0  0 -0.675 0  0.02500000000000002 -0.675 0  0.04999999999999999 -0.675 0  0.07500000000000001 -0.675 0  0.09999999999999998 -0.675 0  0.125 -0.675 0  0.15 -0.675 0  0.175 -0.675 0  0.2 -0.675 0  0.225 -0.675 0  0.25 -0.675 0  -0.25 -0.65 0  -0.225 -0.65 0  -0.2 -0.65 0  -0.175 -0.65 0  -0.15 -0.65 0  -0.125 -0.65 0  -0.1 -0.65 0  -0.07500000000000001 -0.65 0  -0.04999999999999999 -0.65 0  -0.02499999999999999 -0.65 0  0 -0.65 0  0.02500000000000002 -0.65 0  0.04999999999999999 -0.65 0  0.07500000000000001 -0.65 0  0.09999999999999998 -0.65 0  0.125 -0.65 0  0.15 -0.65 0  0.175 -0.65 0  0.2 -0.65 0  0.225 -0.65 0  0.25 -0.65 0  -0.25 -0.625 0  -0.225 -0.625 0  -0.2 -0.625 0  -0.175 -0.625 0  -0.15 -0.625 0  -0.125 -0.625 0  -0.1 -0.625 0  -0.07500000000000001 -0.625 0  -0.04999999999999999 -0.625 0  -0.02499999999999999 -0.625 0  0 -0.625 0  0.02500000000000002 -0.625 0  0.04999999999999999 -0.625 0  0.07500000000000001 -0.625 0  0.09999999999999998 -0.625 0  0.125 -0.625 0  0.15 -0.625 0  0.175 -0.625 0  0.2 -0.625 0  0.225 -0.625 0  0.25 -0.625 0  -0.25 -0.6 0  -0.225 -0.6 0  -0.2 -0.6 0  -0.175 -0.6 0  -0.15 -0.6 0  -0.125 -0.6 0  -0.1 -0.6 0  -0.07500000000000001 -0.6 0  -0.04999999999999999 -0.6 0  -0.02499999999999999 -0.6 0  0 -0.6 0  0.02500000000000002 -0.6 0  0.04999999999999999 -0.6 0  0.07500000000000001 -0.6 0  0.09999999999999998 -0.6 0  0.125 -0.6 0  0.15 -0.6 0  0.175 -0.6 0  0.2 -0.6 0  0.225 -0.6 0  0.25 -0.6 0  -0.25 -0.575 0  -0.225 -0.575 0  -0.2 -0.575 0  -0.175 -0.575 0  -0.15 -0.575 0  -0.125 -0.575 0  -0.1 -0.575 0  -0.07500000000000001 -0.575 0  -0.04999999999999999 -0.575 0  -0.02499999999999999 -0.575 0  0 -0.575 0  0.02500000000000002 -0.575 0  0.04999999999999999 -0.575 0  0.07500000000000001 -0.575 0  0.09999999999999998 -0.575 0  0.125 -0.575 0  0.15 -0.575 0  0.175 -0.575 0  0.2 -0.575 0  0.225 -0.575 0  0.25 -0.575 0  -0.25 -0.55 0  -0.225 -0.55 0  -0.2 -0.55 0  -0.175 -0.55 0  -0.15 -0.55 0  -0.125 -0.55 0  -0.1 -0.55 0  -0.07500000000000001 -0.55 0  -0.04999999999999999 -0.55 0  -0.02499999999999999 -0.55 0  0 -0.55 0  0.02500000000000002 -0.55 0  0.04999999999999999 -0.55 0  0.07500000000000001 -0.55 0  0.09999999999999998 -0.55 0  0.125 -0.55 0  0.15 -0.55 0  0.175 -0.55 0  0.2 -0.55 0  0.225 -0.55 0  0.25 -0.55 0  -0.25 -0.525 0  -0.225 -0.525 0  -0.2 -0.525 0  -0.175 -0.525 0  -0.15 -0.525 0  -0.125 -0.525 0  -0.1 -0.525 0  -0.07500000000000001 -0.525 0  -0.04999999999999999 -0.525 0  -0.02499999999999999 -0.525 0  0 -0.525 0  0.02500000000000002 -0.525 0  0.04999999999999999 -0.525 0  0.07500000000000001 -0.525 0  0.09999999999999998 -0.525 0  0.125 -0.525 0  0.15 -0.525 0  0.175 -0.525 0  0.2 -0.525 0  0.225 -0.525 0  0.25 -0.525 0  -0.25 -0.5 0  -0.225 -0.5 0  -0.2 -0.5 0  -0.175 -0.5 0  -0.15 -0.5 0  -0.125 -0.5 0  -0.1 -0.5 0  -0.07500000000000001 -0.5 0  -0.04999999999999999 -0.5 0  -0.02499999999999999 -0.5 0  0 -0.5 0  0.02500000000000002 -0.5 0  0.04999999999999999 -0.5 0  0.07500000000000001 -0.5 0  0.09999999999999998 -0.5 0  0.125 -0.5 0  0.15 -0.5 0  0.175 -0.5 0  0.2 -0.5 0  0.225 -0.5 0  0.25 -0.5 0  -0.25 -0.475 0  -0.225 -0.475 0  -0.2 -0.475 0  -0.175 -0.475 0  -0.15 -0.475 0  -0.125 -0.475 0  -0.1 -0.475 0  -0.07500000000000001 -0.475 0  -0.04999999999999999 -0.475 0  -0.02499999999999999 -0.475 0  0 -0.475 0  0.02500000000000002 -0.475 0  0.04999999999999999 -0.475 0  0.07500000000000001 -0.475 0  0.09999999999999998 -0.475 0  0.125 -0.475 0  0.15 -0.475 0  0.175 -0.475 0  0.2 -0.475 0  0.225 -0.475 0  0.25 -0.475 0  -0.25 -0.45 0  -0.225 -0.45 0  -0.2 -0.45 0  -0.175 -0.45 0  -0.15 -0.45 0  -0.125 -0.45 0  -0.1 -0.45 0  -0.07500000000000001 -0.45 0  -0.04999999999999999 -0.45 0  -0.02499999999999999 -0.45 0  0 -0.45 0  0.02500000000000002 -0.45 0  0.04999999999999999 -0.45 0  0.07500000000000001 -0.45 0  0.09999999999999998 -0.45 0  0.125 -0.45 0  0.15 -0.45 0  0.175 -0.45 0  0.2 -0.45 0  0.225 -0.45 0  0.25 -0.45 0  -0.25 -0.425 0  -0.225 -0.425 0  -0.2 -0.425 0  -0.175 -0.425 0  -0.15 -0.425 0  -0.125 -0.425 0  -0.1 -0.425 0  -0.07500000000000001 -0.425 0  -0.04999999999999999 -0.425 0  -0.02499999999999999 -0.425 0  0 -0.425 0  0.02500000000000002 -0.425 0  0.04999999999999999 -0.425 0  0.07500000000000001 -0.425 0  0.
[...]
<PointData  Scalars=" mean stress"> 
<DataArray  type="Float64"  Name=" mean stress"  format="ascii">4.8705205368681215e+07  4.8705205368603066e+07  4.8705205368594177e+07  4.8705205368593313e+07  4.8705205368593447e+07  4.8705205368593529e+07  4.8705205368593700e+07  4.8705205368593842e+07  4.8705205368594006e+07  4.8705205368594185e+07  4.8705205368594356e+07  4.8705205368594684e+07  4.8705205368594848e+07  4.8705205368595049e+07  4.8705205368595235e+07  4.8705205368595339e+07  4.8705205368595444e+07  4.8705205368595377e+07  4.8705205368596390e+07  4.8705205368605472e+07  4.8705205368683524e+07  4.8706203608759947e+07  4.8706203608349413e+07  4.8706203608329266e+07  4.8706203608329929e+07  4.8706203608329892e+07  4.8706203608330056e+07  4.8706203608330145e+07  4.8706203608330339e+07  4.8706203608330473e+07  4.8706203608330689e+07  4.8706203608330868e+07  4.8706203608331189e+07  4.8706203608331390e+07  4.8706203608331591e+07  4.8706203608331718e+07  4.8706203608331889e+07  4.8706203608331971e+07  4.8706203608332179e+07  4.8706203608331665e+07  4.8706203608351864e+07  4.8706203608762428e+07  4.8709196790187255e+07  4.8709196788342722e+07  4.8709196788326174e+07  4.8709196788326025e+07  4.8709196788326181e+07  4.8709196788326271e+07  4.8709196788326561e+07  4.8709196788326517e+07  4.8709196788326755e+07  4.8709196788327008e+07  4.8709196788327083e+07  4.8709196788327500e+07  4.8709196788327754e+07  4.8709196788328014e+07  4.8709196788328022e+07  4.8709196788328201e+07  4.8709196788328387e+07  4.8709196788328357e+07  4.8709196788328752e+07  4.8709196788345233e+07  4.8709196790189765e+07  4.8714180297514394e+07  4.8714180293331996e+07  4.8714180293315351e+07  4.8714180293315463e+07  4.8714180293315493e+07  4.8714180293315664e+07  4.8714180293315537e+07  4.8714180293315858e+07  4.8714180293315917e+07  4.8714180293316200e+07  4.8714180293316558e+07  4.8714180293316819e+07  4.8714180293317020e+07  4.8714180293317266e+07  4.8714180293317430e+07  4.8714180293317571e+07  4.8714180293317683e+07  4.8714180293317832e+07  4.8714180293317765e+07  4.8714180293334737e+07  4.8714180297516897e+07  4.8721146446551472e+07  4.8721146439110696e+07  4.8721146439094275e+07  4.8721146439094216e+07  4.8721146439094290e+07  4.8721146439094499e+07  4.8721146439094648e+07  4.8721146439094543e+07  4.8721146439094983e+07  4.8721146439094938e+07  4.8721146439095393e+07  4.8721146439095728e+07  4.8721146439096026e+07  4.8721146439096369e+07  4.8721146439096384e+07  4.8721146439096734e+07  4.8721146439096555e+07  4.8721146439096816e+07  4.8721146439096957e+07  4.8721146439113431e+07  4.8721146446554393e+07  4.8730084495980427e+07  4.8730084484386787e+07  4.8730084484370857e+07  4.8730084484370992e+07  4.8730084484371237e+07  4.8730084484370850e+07  4.8730084484371282e+07  4.8730084484371461e+07  4.8730084484371707e+07  4.8730084484372102e+07  4.8730084484372109e+07  4.8730084484372303e+07  4.8730084484372765e+07  4.8730084484372787e+07  4.8730084484373420e+07  4.8730084484373085e+07  4.8730084484373435e+07  4.8730084484373555e+07  4.8730084484373711e+07  4.8730084484389462e+07  4.8730084495983079e+07  4.8740980663957022e+07  4.8740980647342943e+07  4.8740980647327550e+07  4.8740980647327408e+07  4.8740980647327460e+07  4.8740980647327632e+07  4.8740980647327662e+07  4.8740980647328176e+07  4.8740980647328019e+07  4.8740980647328310e+07  4.8740980647328414e+07  4.8740980647328883e+07  4.8740980647328980e+07  4.8740980647329465e+07  4.8740980647329591e+07  4.8740980647329703e+07  4.8740980647330254e+07  4.8740980647329837e+07  4.8740980647330120e+07  4.8740980647345431e+07  4.8740980663960077e+07  4.8753818149356321e+07  4.8753818126885213e+07  4.8753818126870088e+07  4.8753818126870587e+07  4.8753818126870312e+07  4.8753818126870498e+07  4.8753818126870669e+07  4.8753818126870669e+07  4.8753818126871131e+07  4.8753818126871325e+07  4.8753818126871660e+07  4.8753818126871690e+07  4.8753818126871727e+07  4.8753818126872458e+07  4.8753818126872115e+07  4.8753818126872852e+07  4.8753818126872711e+07  4.8753818126873240e+07  4.8753818126872845e+07  4.8753818126888081e+07  4.8753818149358869e+07  4.8768577157677799e+07  4.8768577128549948e+07  4.8768577128536224e+07  4.8768577128536373e+07  4.8768577128536470e+07  4.8768577128537029e+07  4.8768577128536925e+07  4.8768577128537036e+07  4.8768577128537335e+07  4.8768577128537245e+07  4.8768577128537647e+07  4.8768577128538229e+07  4.8768577128538273e+07  4.8768577128538221e+07  4.8768577128538549e+07  4.8768577128538735e+07  4.8768577128538810e+07  4.8768577128538959e+07  4.8768577128539078e+07  4.8768577128553316e+07  4.8768577157680511e+07  4.8785234931567192e+07  4.8785234895028077e+07  4.8785234895014755e+07  4.8785234895014748e+07  4.8785234895014264e+07  4.8785234895014971e+07  4.8785234895014942e+07  4.8785234895015582e+07  4.8785234895015493e+07  4.8785234895015664e+07  4.8785234895015799e+07  4.8785234895016015e+07  4.8785234895016223e+07  4.8785234895016313e+07  4.8785234895016998e+07  4.8785234895016626e+07  4.8785234895017266e+07  4.8785234895017058e+07  4.8785234895017363e+07  4.8785234895030178e+07  4.8785234931570373e+07  4.8803765785909466e+07  4.8803765741249405e+07  4.8803765741237268e+07  4.8803765741237208e+07  4.8803765741237931e+07  4.8803765741237082e+07  4.8803765741237611e+07  4.8803765741237462e+07  4.8803765741237625e+07  4.8803765741238244e+07  4.8803765741238542e+07  4.8803765741239011e+07  4.8803765741239250e+07  4.8803765741239935e+07  4.8803765741239153e+07  4.8803765741240069e+07  4.8803765741239600e+07  4.8803765741240054e+07  4.8803765741239987e+07  4.8803765741252333e+07  4.8803765785911888e+07  4.8824141147430703e+07  4.8824141093993254e+07  4.8824141093982249e+07  4.8824141093981937e+07  4.8824141093982644e+07  4.8824141093981862e+07  4.8824141093982667e+07  4.8824141093982138e+07  4.8824141093982905e+07  4.8824141093982846e+07  4.8824141093983084e+07  4.8824141093983516e+07  4.8824141093983933e+07  4.8824141093984067e+07  4.8824141093984678e+07  4.8824141093984127e+07  4.8824141093984410e+07  4.8824141093984142e+07  4.8824141093984440e+07  4.8824141093995720e+07  4.8824141147433266e+07  4.8846329598758459e+07  4.8846329535942547e+07  4.8846329535932206e+07  4.8846329535932265e+07  4.8846329535932191e+07  4.8846329535932459e+07  4.8846329535932928e+07  4.8846329535933010e+07  4.8846329535933360e+07  4.8846329535933271e+07  4.8846329535933442e+07  4.8846329535933368e+07  4.8846329535933964e+07  4.8846329535934240e+07  4.8846329535934418e+07  4.8846329535933942e+07  4.8846329535934791e+07  4.8846329535934843e+07  4.8846329535934694e+07  4.8846329535945393e+07  4.8846329598761231e+07  4.8870296926862940e+07  4.8870296854126506e+07  4.8870296854117416e+07  4.8870296854117766e+07  4.8870296854117334e+07  4.8870296854118176e+07  4.8870296854117192e+07  4.8870296854118571e+07  4.8870296854117833e+07  4.8870296854118407e+07  4.8870296854118772e+07  4.8870296854119062e+07  4.8870296854119197e+07  4.8870296854118742e+07  4.8870296854119360e+07  4.8870296854119658e+07  4.8870296854119524e+07  4.8870296854120143e+07  4.8870296854120545e+07  4.8870296854129605e+07  4.8870296926865324e+07  4.8896006175812855e+07  4.8896006092680223e+07  4.8896006092671290e+07  4.8896006092671961e+07  4.8896006092671692e+07  4.8896006092671879e+07  4.8896006092671975e+07  4.8896006092671804e+07  4.8896006092671998e+07  4.8896006092672601e+07  4.8896006092671968e+07  4.8896006092673369e+07  4.8896006092673130e+07  4.8896006092673823e+07  4.8896006092673972e+07  4.8896006092674546e+07  4.8896006092674509e+07  4.8896006092674375e+07  4.8896006092674278e+07  4.8896006092682570e+07  4.8896006175816290e+07  4.8923417703762352e+07  4.8923417609818794e+07  4.8923417609811477e+07  4.8923417609811679e+07  4.8923417609811723e+07  4.8923417609811537e+07  4.8923417609812319e+07  4.8923417609811842e+07  4.8923417609812692e+07  4.8923417609812111e+07  4.8923417609812900e+07  4.8923417609812841e+07  4.8923417609813496e+07  4.8923417609813496e+07  4.8923417609813325e+07  4.8923417609814107e+07  4.8923417609814093e+07  4.8923417609814622e+07  4.8923417609814540e+07  4.8923417609821677e+07  4.8923417703765064e+07  4.8952489244068153e+07  4.8952489138970993e+07  4.8952489138966158e+07  4.8952489138965644e+07  4.8952489138966002e+07  4.8952489138965771e+07  4.8952489138965473e+07  4.8952489138966344e+07  4.8952489138966516e+07  4.8952489138966903e+07  4.8952489138967387e+07  4.8952489138967417e+07  4.8952489138967209e+07  4.8952489138967976e+07  4.8952489138967425e+07  4.8952489138967752e+07  4.8952489138968006e+07  4.8952489138967879e+07  4.8952489138968706e+07  4.8952489138974316e+07  4.8952489244069941e+07  4.8983175970467880e+07  4.8983175853946559e+07  4.8983175853942305e+07  4.8983175853942029e+07  4.8983175853942148e+07  4.8983175853942700e+07  4.8983175853942312e+07  4.8983175853942871e+07  4.8983175853942096e+07  4.8983175853943110e+07  4.8983175853942983e+07  4.8983175853943542e+07  4.8983175853943892e+07  4.8983175853944384e+07  4.8983175853944473e+07  4.8983175853944555e+07  4.8983175853944868e+07  4.8983175853944190e+07  4.8983175853944235e+07  4.8983175853948869e+07  4.8983175970470883e+07  4.9015430566201687e+07  4.9015430438053332e+07  4.9015430438049749e+07  4.9015430438050136e+07  4.9015430438050188e+07  4.9015430438050404e+07  4.9015430438050307e+07  4.9015430438050561e+07  4.9015430438051224e+07  4.9015430438050568e+07  4.9015430438050665e+07  4.9015430438050933e+07  4.9015430438051865e+07  4.9015430438051984e+07  4.9015430438052811e+07  4.9015430438052267e+07  4.9015430438052356e+07  4.9015430438052475e+07  4.9015430438052379e+07  4.9015430438055612e+07  4.9015430566204667e+07  4.9049203296963282e+07  4.9049203157062985e+07  4.9049203157060340e+07  4.9049203157060280e+07  4.9049203157060564e+07  4.9049203157060474e+07  4.9049203157061003e+07  4.9049203157060839e+07  4.9049203157060899e+07  4.9049203157061890e+07  4.9049203157062106e+07  4.9049203157062814e+07  4.9049203157062560e+07  4.9049203157062411e+07  4.9049203157062456e+07  4.9049203157062873e+07  4.9049203157063030e+07  4.9049203157063663e+07  4.9049203157061972e+07  4.9049203157065354e+07  4.9049203296965405e+07  4.9084442087593369e+07  4.9084441935887605e+07  4.9084441935885988e+07  4.9084441935887091e+07  4.9084441935887128e+07  4.9084441935887724e+07  4.9084441935887948e+07  4.9084441935887389e+07  4.9084441935888886e+07  4.9084441935888156e+07  4.9084441935889348e+07  4.9084441935889199e+07  4.9084441935889266e+07  4.9084441935888730e+07  4.9084441935889177e+07  4.9084441935888626e+07  4.9084441935890079e+07  4.9084441935889475e+07  4.9084441935889848e+07  4.9084441935890451e+07  4.9084442087598048e+07  4.9121092602377966e+07  4.9121092438886970e+07  4.9121092438888274e+07  4.9121092438887291e+07  4.9121092438888215e+07  4.9121092438886993e+07  4.9121092438888386e+07  4.9121092438888609e+07  4.9121092438888349e+07  4.9121092438889556e+07  4.9121092438888952e+07  4.9121092438889965e+07  4.9121092438887969e+07  4.9121092438890129e+07  4.9121092438889988e+07  4.9121092438890725e+07  4.9121092438890547e+07  4.9121092438890368e+07  4.9121092438891686e+07  4.9121092438889593e+07  4.9121092602380618e+07  4.9159098328819394e+07  4.9159098153640769e+07  4.9159098153643526e+07  4.9159098153642878e+07  4.9159098153643556e+07  4.9159098153644055e+07  4.9159098153643809e+07  4.9159098153644256e+07  4.9159098153643563e+07  4.9159098153643757e+07  4.9159098153644666e+07  4.9159098153644152e+07  4.9159098153645635e+07  4.9159098153645031e+07  4.9159098153645903e+07  4.9159098153645672e+07  4.9159098153645501e+07  4.9159098153646246e+07  4.9159098153646447e+07  4.9159098153645448e+07  4.9159098328821726e+07  4.9198400664790347e+07  4.9198400478093371e+07  4.9198400478095286e+07  4.9198400478097036e+07  4.9198400478097364e+07  4.9198400478098027e+07  4.9198400478096917e+07  4.9198400478095636e+07  4.9198400478096806e+07  4.9198400478096187e+07  4.9198400478096865e+07  4.9198400478096567e+07  4.9198400478099369e+07  4.9198400478098534e+07  4.9198400478097983e+07  4.9198400478098102e+07  4.9198400478097782e+07  4.9198400478098109e+07  4.9198400478098258e+07  4.9198400478095315e+07  4.9198400664793693e+07  4.9238939008881241e+07  4.9238938810905233e+07  4.9238938810909711e+07  4.9238938810909733e+07  4.9238938810909800e+07  4.9238938810910143e+07  4.9238938810911022e+07  4.9238938810911134e+07  4.9238938810911186e+07  4.9238938810911305e+07  4.9238938810910858e+07  4.9238938810912572e+07  4.9238938810911104e+07  4.9238938810911767e+07  4.9238938810912296e+07  4.9238938810913958e+07  4.9238938810913168e+07  4.9238938810913682e+07  4.9238938810912989e+07  4.9238938810909659e+07  4.9238939008884571e+07  4.9280650853853293e+07  4.9280650644910149e+07  4.9280650644915469e+07  4.9280650644914307e+07  4.9280650644913577e+07  4.9280650644914769e+07  4.9280650644914709e+07  4.9280650644915871e+07  4.9280650644915223e+07  4.9280650644916095e+07  4.9280650644916743e+07  4.9280650644916914e+07  4.9280650644916944e+07  4.9280650644917876e+07  4.9280650644917384e+07  4.9280650644917227e+07  4.9280650644917272e+07  4.9280650644918263e+07  4.9280650644917317e+07  4.9280650644912854e+07  4.9280650853855185e+07  4.9323471883008502e+07  4.9323471663480319e+07  4.9323471663485661e+07  4.9323471663486108e+07  4.9323471663486436e+07  4.9323471663484752e+07  4.9323471663486935e+07  4.9323471663486324e+07  4.9323471663487092e+07  4.9323471663487263e+07  4.9323471663487583e+07  4.9323471663487479e+07  4.9323471663487829e+07  4.9323471663489223e+07  4.9323471663489543e+07  4.9323471663487628e+07  4.9323471663489878e+07  4.9323471663488269e+07  4.9323471663490370e+07  4.9323471663483061e+07  4.9323471883013144e+07  4.9367336069379084e+07  4.9367335839709751e+07  4.9367335839716561e+07  4.9367335839717686e+07  4.9367335839716271e+07  4.9367335839718066e+07  4.9367335839716934e+07  4.9367335839717478e+07  4.9367335839717649e+07  4.9367335839718096e+07  4.9367335839718550e+07  4.9367335839718692e+07  4.9367335839719266e+07  4.9367335839718185e+07  4.9367335839719415e+07  4.9367335839719951e+07  4.9367335839718699e+07  4.9367335839718401e+07  4.9367335839720018e+07  4.9367335839712061e+07  4.9367336069381058e+07  4.9412175777521424e+07  4.9412175538215928e+07  4.9412175538226373e+07  4.9412175538225472e+07  4.9412175538224958e+07  4.9412175538225845e+07  4.9412175538223311e+07  4.9412175538226061e+07  4.9412175538225338e+07  4.9412175538225606e+07  4.9412175538226299e+07  4.9412175538225926e+07  4.9412175538227469e+07  4.9412175538226694e+07  4.9412175538227312e+07  4.9412175538226955e+07  4.9412175538226917e+07  4.9412175538229138e+07  4.9412175538227081e+07  4.9412175538220115e+07  4.9412175777523316e+07  4.9457921867806561e+07  4.9457921619439155e+07  4.9457921619448766e+07  4.9457921619448736e+07  4.9457921619448990e+07  4.9457921619447462e+07  4.9457921619451217e+07  4.9457921619447798e+07  4.9457921619449437e+07  4.9457921619449243e+07  4.9457921619447604e+07  4.9457921619450562e+07  4.9457921619449593e+07  4.9457921619450919e+07  4.9457921619450375e+07  4.9457921619451389e+07  4.9457921619452588e+07  4.9457921619451188e+07  4.9457921619451068e+07  4.9457921619441591e+07  4.9457921867810905e+07  4.9504503803043365e+07  4.9504503546234377e+07  4.9504503546243273e+07  4.9504503546243757e+07  4.9504503546244219e+07  4.9504503546243049e+07  4.9504503546243206e+07  4.9504503546243437e+07  4.9504503546244003e+07  4.9504503546243377e+07  4.9504503546244144e+07  4.9504503546245158e+07  4.9504503546245247e+07  4.9504503546245813e+07  4.9504503546245307e+07  4.9504503546245761e+07  4.9504503546245784e+07  4.9504503546245530e+07  4.9504503546245784e+07  4.9504503546234824e+07  4.9504503803045481e+07  4.9551849757221386e+07  4.9551849492644630e+07  4.9551849492656559e+07  4.9551849492655784e+07  4.9551849492657311e+07  4.9551849492656566e+07  4.9551849492656216e+07  4.9551849492656998e+07  4.9551849492656574e+07  4.9551849492658086e+07  4.9551849492657743e+07  4.9551849492656440e+07  4.9551849492657036e+07  4.9551849492656983e+07  4.9551849492659546e+07  4.9551849492658496e+07  4.9551849492658436e+07  4.9551849492658041e+07  4.9551849492659211e+07  4.9551849492647715e+07  4.9551849757223375e+07  4.9599886726274788e+07  4.9599886454656184e+07  4.9599886454668157e+07  4.9599886454668470e+07  4.9599886454668581e+07  4.9599886454669558e+07  4.9599886454668358e+07  4.9599886454668827e+07  4.9599886454669736e+07  4.9599886454669699e+07  4.9599886454669923e+07  4.9599886454669908e+07  4.9599886454670139e+07  4.9599886454671443e+07  4.9599886454670504e+07  4.9599886454671435e+07  4.9599886454670891e+07  4.9599886454672433e+07  4.9599886454670668e+07  4.9599886454660252e+07  4.9599886726277746e+07  4.9648540640654355e+07  4.9648540362753987e+07  4.9648540362766318e+07  4.9648540362766936e+07  4.9648540362765208e+07  4.9648540362766832e+07  4.9648540362766124e+07  4.9648540362767063e+07  4.9648540362766430e+07  4.9648540362766609e+07  4.9648540362767406e+07  4.9648540362767301e+07  4.9648540362768307e+07  4.9648540362766847e+07  4.9648540362767056e+07  4.9648540362768881e+07  4.9648540362768255e+07  4.9648540362768173e+07  4.9648540362768576e+07  4.9648540362756670e+07  4.9648540640653715e+07  4.9697736479511701e+07  4.9697736196138911e+07  4.9697736196150802e+07  4.9697736196151920e+07  4.9697736196151644e+07  4.9697736196151696e+07  4.9697736196152031e+07  4.9697736196150869e+07  4.9697736196150906e+07  4.9697736196152076e+07  4.9697736196151875e+07  4.9697736196152501e+07  4.9697736196151808e+07  4.9697736196152374e+07  4.9697736196153149e+07  4.9697736196152218e+07  4.9697736196153149e+07  4.9697736196152046e+07  4.9697736196153723e+07  4.9697736196137846e+07  4.9697736479514956e+07  4.9747398386410952e+07  4.9747398098400205e+07  4.9747398098411635e+07  4.9747398098411188e+07  4.9747398098410927e+07  4.9747398098411374e+07  4.9747398098411411e+07  4.9747398098413028e+07  4.9747398098413959e+07  4.9747398098413609e+07  4.9747398098414615e+07  4.9747398098414384e+07  4.9747398098412976e+07  4.9747398098415449e+07  4.9747398098413400e+07  4.9747398098414436e+07  4.9747398098414749e+07  4.9747398098416582e+07  4.9747398098414280e+07  4.9747398098403387e+07  4.9747398386413626e+07  4.9797449786270134e+07  4.9797449494484469e+07  4.9797449494497672e+07  4.9797449494498760e+07  4.9797449494497277e+07  4.9797449494497001e+07  4.9797449494499467e+07  4.9797449494498089e+07  4.9797449494498000e+07  4.9797449494498655e+07  4.9797449494497456e+07  4.9797449494498707e+07  4.9797449494499065e+07  4.9797449494498722e+07  4.9797449494498819e+07  4.9797449494499303e+07  4.9797449494499885e+07  4.9797449494498350e+07  4.9797449494500801e+07  4.9797449494484827e+07  4.9797449786273494e+07  4.9847813503445089e+07  4.9847813208766289e+07  4.9847813208782688e+07  4.9847813208778985e+07  4.9847813208782189e+07  4.9847813208781198e+07  4.9847813208781004e+07  4.9847813208780535e+07  4.9847813208781689e+07  4.9847813208781540e+07  4.9847813208783142e+07  4.9847813208782256e+07  4.9847813208782859e+07  4.9847813208780952e+07  4.9847813208781898e+07  4.9847813208781920e+07  4.9847813208782174e+07  4.9847813208781399e+07  4.9847813208782494e+07  4.9847813208768465e+07  4.9847813503445536e+07  4.9898411880717546e+07  4.9898411584050611e+07  4.9898411584066674e+07  4.9898411584067844e+07  4.9898411584064804e+07  4.9898411584065981e+07  4.9898411584063970e+07  4.9898411584066577e+07  4.9898411584068075e+07  4.9898411584066555e+07  4.9898411584067151e+07  4.9898411584065683e+07  4.9898411584067434e+07  4.9898411584066473e+07  4.9898411584066972e+07  4.9898411584066592e+07  4.9898411584065765e+07  4.9898411584067658e+07  4.9898411584066190e+07  4.9898411584052570e+07  4.9898411880715318e+07  4.9949166899048455e+07  4.9949166601313159e+07  4.9949166601324610e+07  4.9949166601324409e+07  4.9949166601324186e+07  4.9949166601324290e+07  4.9949166601323515e+07  4.9949166601325415e+07  4.9949166601325065e+07  4.9949166601324238e+07  4.9