<?xml version="1.0"?>
<VTKFile type="UnstructuredGrid"  version="0.1"  >
<UnstructuredGrid>
<Piece  NumberOfPoints="1661" NumberOfCells="3200">
<Points>
<DataArray  type="Float64"  NumberOfComponents="3"  format="ascii">-0.25 -1 0  -0.225 -1 0  -0.2 -1 0  -0.175 -1 0  -0.15 -1 0  -0.125 -1 0  -0.1 -1 0  -0.07500000000000001 -1 0  -0.04999999999999999 -1 0  -0.02499999999999999 -1 0  0 -1 0  0.02500000000000002 -1 0  0.04999999999999999 -1 0  0.07500000000000001 -1 0  0.09999999999999998 -1 0  0.125 -1 0  0.15 -1 0  0.175 -1 0  0.2 -1 0  0.225 -1 0  0.25 -1 0  -0.25 -0.975 0  -0.225 -0.975 0  -0.2 -0.975 0  -0.175 -0.975 0  -0.15 -0.975 0  -0.125 -0.975 0  -0.1 -0.975 0  -0.07500000000000001 -0.975 0  -0.04999999999999999 -0.975 0  -0.02499999999999999 -0.975 0  0 -0.975 0  0.02500000000000002 -0.975 0  0.04999999999999999 -0.975 0  0.07500000000000001 -0.975 0  0.09999999999999998 -0.975 0  0.125 -0.975 0  0.15 -0.975 0  0.175 -0.975 0  0.2 -0.975 0  0.225 -0.975 0  0.25 -0.975 0  -0.25 -0.95 0  -0.225 -0.95 0  -0.2 -0.95 0  -0.175 -0.95 0  -0.15 -0.95 0  -0.125 -0.95 0  -0.1 -0.95 0  -0.07500000000000001 -0.95 0  -0.04999999999999999 -0.95 0  -0.02499999999999999 -0.95 0  0 -0.95 0  0.02500000000000002 -0.95 0  0.04999999999999999 -0.95 0  0.07500000000000001 -0.95 0  0.09999999999999998 -0.95 0  0.125 -0.95 0  0.15 -0.95 0  0.175 -0.95 0  0.2 -0.95 0  0.225 -0.95 0  0.25 -0.95 0  -0.25 -0.925 0  -0.225 -0.925 0  -0.2 -0.925 0  -0.175 -0.925 0  -0.15 -0.925 0  -0.125 -0.925 0  -0.1 -0.925 0  -0.07500000000000001 -0.925 0  -0.04999999999999999 -0.925 0  -0.02499999999999999 -0.925 0  0 -0.925 0  0.02500000000000002 -0.925 0  0.04999999999999999 -0.925 0  0.07500000000000001 -0.925 0  0.09999999999999998 -0.925 0  0.125 -0.925 0  0.15 -0.925 0  0.175 -0.925 0  0.2 -0.925 0  0.225 -0.925 0  0.25 -0.925 0  -0.25 -0.9 0  -0.225 -0.9 0  -0.2 -0.9 0  -0.175 -0.9 0  -0.15 -0.9 0  -0.125 -0.9 0  -0.1 -0.9 0  -0.07500000000000001 -0.9 0  -0.04999999999999999 -0.9 0  -0.02499999999999999 -0.9 0  0 -0.9 0  0.02500000000000002 -0.9 0  0.04999999999999999 -0.9 0  0.07500000000000001 -0.9 0  0.09999999999999998 -0.9 0  0.125 -0.9 0  0.15 -0.9 0  0.175 -0.9 0  0.2 -0.9 0  0.225 -0.9 0  0.25 -0.9 0  -0.25 -0.875 0  -0.225 -0.875 0  -0.2 -0.875 0  -0.175 -0.875 0  -0.15 -0.875 0  -0.125 -0.875 0  -0.1 -0.875 0  -0.07500000000000001 -0.875 0  -0.04999999999999999 -0.875 0  -0.02499999999999999 -0.875 0  0 -0.875 0  0.02500000000000002 -0.875 0  0.04999999999999999 -0.875 0  0.07500000000000001 -0.875 0  0.09999999999999998 -0.875 0  0.125 -0.875 0  0.15 -0.875 0  0.175 -0.875 0  0.2 -0.875 0  0.225 -0.875 0  0.25 -0.875 0  -0.25 -0.85 0  -0.225 -0.85 0  -0.2 -0.85 0  -0.175 -0.85 0  -0.15 -0.85 0  -0.125 -0.85 0  -0.1 -0.85 0  -0.07500000000000001 -0.85 0  -0.04999999999999999 -0.85 0  -0.02499999999999999 -0.85 0  0 -0.85 0  0.02500000000000002 -0.85 0  0.04999999999999999 -0.85 0  0.07500000000000001 -0.85 0  0.09999999999999998 -0.85 0  0.125 -0.85 0  0.15 -0.85 0  0.175 -0.85 0  0.2 -0.85 0  0.225 -0.85 0  0.25 -0.85 0  -0.25 -0.825 0  -0.225 -0.825 0  -0.2 -0.825 0  -0.175 -0.825 0  -0.15 -0.825 0  -0.125 -0.825 0  -0.1 -0.825 0  -0.07500000000000001 -0.825 0  -0.04999999999999999 -0.825 0  -0.02499999999999999 -0.825 0  0 -0.825 0  0.02500000000000002 -0.825 0  0.04999999999999999 -0.825 0  0.07500000000000001 -0.825 0  0.09999999999999998 -0.825 0  0.125 -0.825 0  0.15 -0.825 0  0.175 -0.825 0  0.2 -0.825 0  0.225 -0.825 0  0.25 -0.825 0  -0.25 -0.8 0  -0.225 -0.8 0  -0.2 -0.8 0  -0.175 -0.8 0  -0.15 -0.8 0  -0.125 -0.8 0  -0.1 -0.8 0  -0.07500000000000001 -0.8 0  -0.04999999999999999 -0.8 0  -0.02499999999999999 -0.8 0  0 -0.8 0  0.02500000000000002 -0.8 0  0.04999999999999999 -0.8 0  0.07500000000000001 -0.8 0  0.09999999999999998 -0.8 0  0.125 -0.8 0  0.15 -0.8 0  0.175 -0.8 0  0.2 -0.8 0  0.225 -0.8 0  0.25 -0.8 0  -0.25 -0.775 0  -0.225 -0.775 0  -0.2 -0.775 0  -0.175 -0.775 0  -0.15 -0.775 0  -0.125 -0.775 0  -0.1 -0.775 0  -0.07500000000000001 -0.775 0  -0.04999999999999999 -0.775 0  -0.02499999999999999 -0.775 0  0 -0.775 0  0.02500000000000002 -0.775 0  0.04999999999999999 -0.775 0  0.07500000000000001 -0.775 0  0.09999999999999998 -0.775 0  0.125 -0.775 0  0.15 -0.775 0  0.175 -0.775 0  0.2 -0.775 0  0.225 -0.775 0  0.25 -0.775 0  -0.25 -0.75 0  -0.225 -0.75 0  -0.2 -0.75 0  -0.175 -0.75 0  -0.15 -0.75 0  -0.125 -0.75 0  -0.1 -0.75 0  -0.07500000000000001 -0.75 0  -0.04999999999999999 -0.75 0  -0.02499999999999999 -0.75 0  0 -0.75 0  0.02500000000000002 -0.75 0  0.04999999999999999 -0.75 0  0.07500000000000001 -0.75 0  0.09999999999999998 -0.75 0  0.125 -0.75 0  0.15 -0.75 0  0.175 -0.75 0  0.2 -0.75 0  0.225 -0.75 0  0.25 -0.75 0  -0.25 -0.725 0  -0.225 -0.725 0  -0.2 -0.725 0  -0.175 -0.725 0  -0.15 -0.725 0  -0.125 -0.725 0  -0.1 -0.725 0  -0.07500000000000001 -0.725 0  -0.04999999999999999 -0.725 0  -0.02499999999999999 -0.725 0  0 -0.725 0  0.02500000000000002 -0.725 0  0.04999999999999999 -0.725 0  0.07500000000000001 -0.725 0  0.09999999999999998 -0.725 0  0.125 -0.725 0  0.15 -0.725 0  0.175 -0.725 0  0.2 -0.725 0  0.225 -0.725 0  0.25 -0.725 0  -0.25 -0.7 0  -0.225 -0.7 0  -0.2 -0.7 0  -0.175 -0.7 0  -0.15 -0.7 0  -0.125 -0.7 0  -0.1 -0.7 0  -0.07500000000000001 -0.7 0  -0.04999999999999999 -0.7 0  -0.02499999999999999 -0.7 0  0 -0.7 0  0.02500000000000002 -0.7 0  0.04999999999999999 -0.7 0  0.07500000000000001 -0.7 0  0.09999999999999998 -0.7 0  0.125 -0.7 0  0.15 -0.7 0  0.175 -0.7 0  0.2 -0.7 0  0.225 -0.7 0  0.25 -0.7 0  -0.25 -0.675 0  -0.225 -0.675 0  -0.2 -0.675 0  -0.175 -0.675 0  -0.15 -0.675 0  -0.125 -0.675 0  -0.1 -0.675 0  -0.07500000000000001 -0.675 0  -0.04999999999999999 -0.675 0  -0.02499999999999999 -0.675 0  0 -0.675 0  0.02500000000000002 -0.675 0  0.04999999999999999 -0.675 0  0.07500000000000001 -0.675 0  0.09999999999999998 -0.675 0  0.125 -0.675 0  0.15 -0.675 0  0.175 -0.675 0  0.2 -0.675 0  0.225 -0.675 0  0.25 -0.675 0  -0.25 -0.65 0  -0.225 -0.65 0  -0.2 -0.65 0  -0.175 -0.65 0  -0.15 -0.65 0  -0.125 -0.65 0  -0.1 -0.65 0  -0.07500000000000001 -0.65 0  -0.04999999999999999 -0.65 0  -0.02499999999999999 -0.65 0  0 -0.65 0  0.02500000000000002 -0.65 0  0.04999999999999999 -0.65 0  0.07500000000000001 -0.65 0  0.09999999999999998 -0.65 0  0.125 -0.65 0  0.15 -0.65 0  0.175 -0.65 0  0.2 -0.65 0  0.225 -0.65 0  0.25 -0.65 0  -0.25 -0.625 0  -0.225 -0.625 0  -0.2 -0.625 0  -0.175 -0.625 0  -0.15 -0.625 0  -0.125 -0.625 0  -0.1 -0.625 0  -0.07500000000000001 -0.625 0  -0.04999999999999999 -0.625 0  -0.02499999999999999 -0.625 0  0 -0.625 0  0.02500000000000002 -0.625 0  0.04999999999999999 -0.625 0  0.07500000000000001 -0.625 0  0.09999999999999998 -0.625 0  0.125 -0.625 0  0.15 -0.625 0  0.175 -0.625 0  0.2 -0.625 0  0.225 -0.625 0  0.25 -0.625 0  -0.25 -0.6 0  -0.225 -0.6 0  -0.2 -0.6 0  -0.175 -0.6 0  -0.15 -0.6 0  -0.125 -0.6 0  -0.1 -0.6 0  -0.07500000000000001 -0.6 0  -0.04999999999999999 -0.6 0  -0.02499999999999999 -0.6 0  0 -0.6 0  0.02500000000000002 -0.6 0  0.04999999999999999 -0.6 0  0.07500000000000001 -0.6 0  0.09999999999999998 -0.6 0  0.125 -0.6 0  0.15 -0.6 0  0.175 -0.6 0  0.2 -0.6 0  0.225 -0.6 0  0.25 -0.6 0  -0.25 -0.575 0  -0.225 -0.575 0  -0.2 -0.575 0  -0.175 -0.575 0  -0.15 -0.575 0  -0.125 -0.575 0  -0.1 -0.575 0  -0.07500000000000001 -0.575 0  -0.04999999999999999 -0.575 0  -0.02499999999999999 -0.575 0  0 -0.575 0  0.02500000000000002 -0.575 0  0.04999999999999999 -0.575 0  0.07500000000000001 -0.575 0  0.09999999999999998 -0.575 0  0.125 -0.575 0  0.15 -0.575 0  0.175 -0.575 0  0.2 -0.575 0  0.225 -0.575 0  0.25 -0.575 0  -0.25 -0.55 0  -0.225 -0.55 0  -0.2 -0.55 0  -0.175 -0.55 0  -0.15 -0.55 0  -0.125 -0.55 0  -0.1 -0.55 0  -0.07500000000000001 -0.55 0  -0.04999999999999999 -0.55 0  -0.02499999999999999 -0.55 0  0 -0.55 0  0.02500000000000002 -0.55 0  0.04999999999999999 -0.55 0  0.07500000000000001 -0.55 0  0.09999999999999998 -0.55 0  0.125 -0.55 0  0.15 -0.55 0  0.175 -0.55 0  0.2 -0.55 0  0.225 -0.55 0  0.25 -0.55 0  -0.25 -0.525 0  -0.225 -0.525 0  -0.2 -0.525 0  -0.175 -0.525 0  -0.15 -0.525 0  -0.125 -0.525 0  -0.1 -0.525 0  -0.07500000000000001 -0.525 0  -0.04999999999999999 -0.525 0  -0.02499999999999999 -0.525 0  0 -0.525 0  0.02500000000000002 -0.525 0  0.04999999999999999 -0.525 0  0.07500000000000001 -0.525 0  0.09999999999999998 -0.525 0  0.125 -0.525 0  0.15 -0.525 0  0.175 -0.525 0  0.2 -0.525 0  0.225 -0.525 0  0.25 -0.525 0  -0.25 -0.5 0  -0.225 -0.5 0  -0.2 -0.5 0  -0.175 -0.5 0  -0.15 -0.5 0  -0.125 -0.5 0  -0.1 -0.5 0  -0.07500000000000001 -0.5 0  -0.04999999999999999 -0.5 0  -0.02499999999999999 -0.5 0  0 -0.5 0  0.02500000000000002 -0.5 0  0.04999999999999999 -0.5 0  0.07500000000000001 -0.5 0  0.09999999999999998 -0.5 0  0.125 -0.5 0  0.15 -0.5 0  0.175 -0.5 0  0.2 -0.5 0  0.225 -0.5 0  0.25 -0.5 0  -0.25 -0.475 0  -0.225 -0.475 0  -0.2 -0.475 0  -0.175 -0.475 0  -0.15 -0.475 0  -0.125 -0.475 0  -0.1 -0.475 0  -0.07500000000000001 -0.475 0  -0.04999999999999999 -0.475 0  -0.02499999999999999 -0.475 0  0 -0.475 0  0.02500000000000002 -0.475 0  0.04999999999999999 -0.475 0  0.07500000000000001 -0.475 0  0.09999999999999998 -0.475 0  0.125 -0.475 0  0.15 -0.475 0  0.175 -0.475 0  0.2 -0.475 0  0.225 -0.475 0  0.25 -0.475 0  -0.25 -0.45 0  -0.225 -0.45 0  -0.2 -0.45 0  -0.175 -0.45 0  -0.15 -0.45 0  -0.125 -0.45 0  -0.1 -0.45 0  -0.07500000000000001 -0.45 0  -0.04999999999999999 -0.45 0  -0.02499999999999999 -0.45 0  0 -0.45 0  0.02500000000000002 -0.45 0  0.04999999999999999 -0.45 0  0.07500000000000001 -0.45 0  0.09999999999999998 -0.45 0  0.125 -0.45 0  0.15 -0.45 0  0.175 -0.45 0  0.2 -0.45 0  0.225 -0.45 0  0.25 -0.45 0  -0.25 -0.425 0  -0.225 -0.425 0  -0.2 -0.425 0  -0.175 -0.425 0  -0.15 -0.425 0  -0.125 -0.425 0  -0.1 -0.425 0  -0.07500000000000001 -0.425 0  -0.04999999999999999 -0.425 0  -0.02499999999999999 -0.425 0  0 -0.425 0  0.02500000000000002 -0.425 0  0.04999999999999999 -0.425 0  0.07500000000000001 -0.425 0  0.
[...]
<PointData  Scalars=" mean stress"> 
<DataArray  type="Float64"  Name=" mean stress"  format="ascii">3.6003273259214245e+07  3.6003273246887840e+07  3.6003273245467529e+07  3.6003273245322503e+07  3.6003273245342553e+07  3.6003273245339692e+07  3.6003273245340258e+07  3.6003273245340258e+07  3.6003273245340362e+07  3.6003273245340459e+07  3.6003273245340645e+07  3.6003273245340809e+07  3.6003273245341003e+07  3.6003273245341048e+07  3.6003273245341361e+07  3.6003273245340876e+07  3.6003273245344006e+07  3.6003273245323904e+07  3.6003273245469131e+07  3.6003273246889442e+07  3.6003273259215876e+07  3.6014063255318262e+07  3.6014063190433040e+07  3.6014063187258705e+07  3.6014063187358141e+07  3.6014063187342525e+07  3.6014063187345088e+07  3.6014063187344708e+07  3.6014063187344849e+07  3.6014063187345020e+07  3.6014063187345110e+07  3.6014063187345289e+07  3.6014063187345497e+07  3.6014063187345631e+07  3.6014063187345855e+07  3.6014063187345847e+07  3.6014063187346362e+07  3.6014063187343933e+07  3.6014063187359728e+07  3.6014063187260322e+07  3.6014063190434761e+07  3.6014063255320027e+07  3.6046416684138283e+07  3.6046416392894477e+07  3.6046416390313119e+07  3.6046416390282087e+07  3.6046416390289687e+07  3.6046416390288234e+07  3.6046416390288681e+07  3.6046416390288718e+07  3.6046416390288875e+07  3.6046416390289046e+07  3.6046416390289143e+07  3.6046416390289418e+07  3.6046416390289597e+07  3.6046416390289776e+07  3.6046416390289843e+07  3.6046416390289724e+07  3.6046416390291266e+07  3.6046416390283830e+07  3.6046416390314899e+07  3.6046416392896384e+07  3.6046416684140101e+07  3.6100283672436379e+07  3.6100283013005391e+07  3.6100283010389313e+07  3.6100283010397129e+07  3.6100283010394797e+07  3.6100283010395564e+07  3.6100283010395393e+07  3.6100283010395624e+07  3.6100283010395661e+07  3.6100283010395803e+07  3.6100283010396041e+07  3.6100283010396190e+07  3.6100283010396466e+07  3.6100283010396488e+07  3.6100283010396697e+07  3.6100283010396987e+07  3.6100283010396473e+07  3.6100283010398880e+07  3.6100283010391183e+07  3.6100283013007358e+07  3.6100283672438376e+07  3.6175581232908927e+07  3.6175580061959572e+07  3.6175580059449226e+07  3.6175580059448615e+07  3.6175580059449054e+07  3.6175580059449010e+07  3.6175580059449084e+07  3.6175580059449218e+07  3.6175580059449308e+07  3.6175580059449457e+07  3.6175580059449792e+07  3.6175580059449978e+07  3.6175580059450209e+07  3.6175580059450373e+07  3.6175580059450582e+07  3.6175580059450656e+07  3.6175580059450798e+07  3.6175580059450336e+07  3.6175580059451044e+07  3.6175580061961576e+07  3.6175581232911080e+07  3.6272193354084946e+07  3.6272191534182243e+07  3.6272191531780891e+07  3.6272191531781845e+07  3.6272191531781919e+07  3.6272191531781763e+07  3.6272191531782158e+07  3.6272191531782031e+07  3.6272191531782396e+07  3.6272191531782627e+07  3.6272191531782664e+07  3.6272191531782977e+07  3.6272191531783082e+07  3.6272191531783260e+07  3.6272191531783395e+07  3.6272191531783469e+07  3.6272191531783566e+07  3.6272191531783834e+07  3.6272191531782955e+07  3.6272191534184106e+07  3.6272193354086876e+07  3.6389971184305981e+07  3.6389968584070124e+07  3.6389968581802607e+07  3.6389968581803359e+07  3.6389968581803501e+07  3.6389968581803516e+07  3.6389968581803516e+07  3.6389968581803821e+07  3.6389968581803784e+07  3.6389968581804149e+07  3.6389968581804223e+07  3.6389968581804492e+07  3.6389968581804544e+07  3.6389968581804991e+07  3.6389968581805125e+07  3.6389968581805110e+07  3.6389968581805430e+07  3.6389968581805088e+07  3.6389968581804730e+07  3.6389968584072106e+07  3.6389971184308000e+07  3.6528733258409470e+07  3.6528729753927730e+07  3.6528729751814000e+07  3.6528729751814291e+07  3.6528729751814358e+07  3.6528729751814604e+07  3.6528729751814559e+07  3.6528729751814872e+07  3.6528729751814872e+07  3.6528729751814984e+07  3.6528729751815155e+07  3.6528729751815379e+07  3.6528729751815401e+07  3.6528729751815692e+07  3.6528729751815587e+07  3.6528729751816005e+07  3.6528729751815937e+07  3.6528729751816243e+07  3.6528729751815781e+07  3.6528729753930159e+07  3.6528733258411452e+07  3.6688265775824748e+07  3.6688261251719706e+07  3.6688261249776110e+07  3.6688261249776699e+07  3.6688261249776512e+07  3.6688261249776796e+07  3.6688261249776736e+07  3.6688261249776989e+07  3.6688261249777034e+07  3.6688261249777004e+07  3.6688261249777317e+07  3.6688261249777585e+07  3.6688261249777965e+07  3.6688261249777950e+07  3.6688261249777868e+07  3.6688261249778360e+07  3.6688261249778226e+07  3.6688261249778688e+07  3.6688261249777988e+07  3.6688261251721807e+07  3.6688265775826804e+07  3.6868322927976049e+07  3.6868317278400421e+07  3.6868317276641645e+07  3.6868317276642390e+07  3.6868317276642010e+07  3.6868317276642188e+07  3.6868317276642352e+07  3.6868317276642464e+07  3.6868317276642524e+07  3.6868317276642650e+07  3.6868317276642844e+07  3.6868317276643001e+07  3.6868317276643418e+07  3.6868317276643358e+07  3.6868317276643798e+07  3.6868317276643515e+07  3.6868317276643932e+07  3.6868317276643887e+07  3.6868317276643746e+07  3.6868317278401665e+07  3.6868322927978292e+07  3.7068627274826817e+07  3.7068620404324852e+07  3.7068620402765803e+07  3.7068620402765840e+07  3.7068620402766168e+07  3.7068620402766123e+07  3.7068620402766146e+07  3.7068620402766056e+07  3.7068620402766407e+07  3.7068620402766526e+07  3.7068620402766496e+07  3.7068620402766727e+07  3.7068620402766846e+07  3.7068620402767196e+07  3.7068620402767330e+07  3.7068620402767323e+07  3.7068620402767919e+07  3.7068620402767554e+07  3.7068620402767159e+07  3.7068620404326797e+07  3.7068627274827845e+07  3.7288870169961244e+07  3.7288861994207315e+07  3.7288861992856137e+07  3.7288861992856704e+07  3.7288861992856883e+07  3.7288861992856450e+07  3.7288861992856853e+07  3.7288861992856607e+07  3.7288861992857076e+07  3.7288861992857292e+07  3.7288861992857158e+07  3.7288861992857642e+07  3.7288861992857553e+07  3.7288861992857791e+07  3.7288861992857933e+07  3.7288861992858209e+07  3.7288861992858291e+07  3.7288861992858335e+07  3.7288861992858239e+07  3.7288861994209401e+07  3.7288870169963673e+07  3.7528712233604133e+07  3.7528702679989420e+07  3.7528702678854279e+07  3.7528702678854510e+07  3.7528702678855181e+07  3.7528702678854935e+07  3.7528702678855278e+07  3.7528702678855360e+07  3.7528702678854853e+07  3.7528702678855248e+07  3.7528702678855680e+07  3.7528702678855449e+07  3.7528702678855725e+07  3.7528702678856291e+07  3.7528702678856224e+07  3.7528702678856581e+07  3.7528702678856581e+07  3.7528702678856686e+07  3.7528702678856544e+07  3.7528702679991379e+07  3.7528712233606704e+07  3.7787783872871175e+07  3.7787772880959071e+07  3.7787772880045600e+07  3.7787772880045600e+07  3.7787772880045302e+07  3.7787772880046256e+07  3.7787772880045965e+07  3.7787772880046152e+07  3.7787772880045995e+07  3.7787772880045719e+07  3.7787772880046092e+07  3.7787772880046599e+07  3.7787772880047075e+07  3.7787772880046807e+07  3.7787772880046956e+07  3.7787772880046971e+07  3.7787772880047023e+07  3.7787772880047202e+07  3.7787772880047321e+07  3.7787772880961567e+07  3.7787783872872464e+07  3.8065685848499894e+07  3.8065673370340742e+07  3.8065673369649798e+07  3.8065673369650185e+07  3.8065673369650058e+07  3.8065673369649954e+07  3.8065673369649880e+07  3.8065673369649678e+07  3.8065673369650148e+07  3.8065673369650744e+07  3.8065673369650461e+07  3.8065673369650982e+07  3.8065673369651213e+07  3.8065673369651049e+07  3.8065673369651623e+07  3.8065673369651578e+07  3.8065673369651519e+07  3.8065673369651929e+07  3.8065673369651943e+07  3.8065673370342530e+07  3.8065685848502509e+07  3.8361989887239300e+07  3.8361975887534454e+07  3.8361975887067087e+07  3.8361975887067117e+07  3.8361975887067206e+07  3.8361975887067430e+07  3.8361975887067296e+07  3.8361975887067653e+07  3.8361975887068212e+07  3.8361975887067646e+07  3.8361975887068436e+07  3.8361975887068048e+07  3.8361975887068301e+07  3.8361975887069009e+07  3.8361975887068994e+07  3.8361975887069032e+07  3.8361975887069054e+07  3.8361975887069009e+07  3.8361975887069218e+07  3.8361975887536488e+07  3.8361989887241513e+07  3.8676239338971920e+07  3.8676223795116134e+07  3.8676223794869535e+07  3.8676223794869170e+07  3.8676223794868983e+07  3.8676223794868678e+07  3.8676223794868976e+07  3.8676223794869244e+07  3.8676223794870064e+07  3.8676223794870503e+07  3.8676223794870444e+07  3.8676223794870704e+07  3.8676223794870660e+07  3.8676223794870511e+07  3.8676223794870496e+07  3.8676223794870339e+07  3.8676223794871114e+07  3.8676223794871211e+07  3.8676223794871174e+07  3.8676223795118235e+07  3.8676239338973321e+07  3.9007949877626874e+07  3.9007932779611275e+07  3.9007932779580869e+07  3.9007932779580377e+07  3.9007932779580683e+07  3.9007932779580891e+07  3.9007932779581651e+07  3.9007932779582188e+07  3.9007932779580966e+07  3.9007932779581957e+07  3.9007932779582210e+07  3.9007932779582322e+07  3.9007932779582240e+07  3.9007932779582746e+07  3.9007932779582471e+07  3.9007932779582866e+07  3.9007932779582158e+07  3.9007932779582612e+07  3.9007932779583111e+07  3.9007932779613860e+07  3.9007949877629437e+07  3.9356610244834863e+07  3.9356591595033258e+07  3.9356591595212728e+07  3.9356591595212579e+07  3.9356591595212057e+07  3.9356591595213391e+07  3.9356591595212832e+07  3.9356591595213205e+07  3.9356591595213354e+07  3.9356591595212907e+07  3.9356591595212772e+07  3.9356591595213316e+07  3.9356591595213786e+07  3.9356591595214099e+07  3.9356591595214404e+07  3.9356591595214747e+07  3.9356591595214576e+07  3.9356591595214501e+07  3.9356591595214404e+07  3.9356591595035225e+07  3.9356610244836897e+07  3.9721683035219163e+07  3.9721662848062485e+07  3.9721662848441325e+07  3.9721662848441519e+07  3.9721662848441377e+07  3.9721662848441347e+07  3.9721662848441638e+07  3.9721662848441087e+07  3.9721662848442540e+07  3.9721662848442428e+07  3.9721662848443210e+07  3.9721662848442800e+07  3.9721662848442838e+07  3.9721662848442726e+07  3.9721662848443568e+07  3.9721662848443240e+07  3.9721662848443903e+07  3.9721662848443262e+07  3.9721662848443598e+07  3.9721662848064169e+07  3.9721683035220854e+07  4.0102605522167951e+07  4.0102583823706783e+07  4.0102583824277155e+07  4.0102583824277088e+07  4.0102583824277773e+07  4.0102583824277408e+07  4.0102583824277394e+07  4.0102583824278072e+07  4.0102583824277960e+07  4.0102583824278645e+07  4.0102583824278690e+07  4.0102583824279025e+07  4.0102583824278362e+07  4.0102583824278779e+07  4.0102583824278541e+07  4.0102583824278794e+07  4.0102583824279249e+07  4.0102583824279644e+07  4.0102583824280240e+07  4.0102583823708370e+07  4.0102605522171021e+07  4.0498790522838853e+07  4.0498767350224897e+07  4.0498767350976497e+07  4.0498767350975946e+07  4.0498767350976497e+07  4.0498767350975990e+07  4.0498767350977063e+07  4.0498767350976564e+07  4.0498767350976676e+07  4.0498767350976862e+07  4.0498767350975931e+07  4.0498767350976579e+07  4.0498767350976698e+07  4.0498767350976974e+07  4.0498767350977309e+07  4.0498767350977689e+07  4.0498767350977533e+07  4.0498767350977547e+07  4.0498767350978307e+07  4.0498767350228034e+07  4.0498790522842169e+07  4.0909627301109463e+07  4.0909602701993607e+07  4.0909602702910155e+07  4.0909602702909589e+07  4.0909602702910550e+07  4.0909602702910185e+07  4.0909602702910483e+07  4.0909602702910930e+07  4.0909602702910356e+07  4.0909602702910990e+07  4.0909602702911422e+07  4.0909602702911437e+07  4.0909602702911615e+07  4.0909602702911966e+07  4.0909602702911727e+07  4.0909602702911809e+07  4.0909602702912271e+07  4.0909602702911384e+07  4.0909602702912249e+07  4.0909602701995753e+07  4.0909627301110253e+07  4.1334482507110670e+07  4.1334456538965464e+07  4.1334456540035680e+07  4.1334456540035583e+07  4.1334456540035427e+07  4.1334456540036432e+07  4.1334456540035121e+07  4.1334456540035024e+07  4.1334456540035740e+07  4.1334456540035449e+07  4.1334456540036716e+07  4.1334456540036745e+07  4.1334456540037513e+07  4.1334456540037923e+07  4.1334456540037513e+07  4.1334456540037371e+07  4.1334456540035889e+07  4.1334456540037803e+07  4.1334456540038444e+07  4.1334456538968287e+07  4.1334482507113770e+07  4.1772701151942030e+07  4.1772673881332330e+07  4.1772673882542223e+07  4.1772673882541806e+07  4.1772673882541656e+07  4.1772673882542022e+07  4.1772673882541992e+07  4.1772673882541738e+07  4.1772673882541873e+07  4.1772673882542089e+07  4.1772673882542565e+07  4.1772673882542692e+07  4.1772673882543035e+07  4.1772673882542610e+07  4.1772673882544190e+07  4.1772673882543512e+07  4.1772673882544763e+07  4.1772673882544294e+07  4.1772673882543869e+07  4.1772673881335698e+07  4.1772701151945278e+07  4.2223607616058372e+07  4.2223579117867962e+07  4.2223579119199641e+07  4.2223579119199648e+07  4.2223579119199090e+07  4.2223579119199641e+07  4.2223579119199350e+07  4.2223579119200461e+07  4.2223579119200118e+07  4.2223579119201124e+07  4.2223579119201034e+07  4.2223579119200960e+07  4.2223579119201303e+07  4.2223579119201787e+07  4.2223579119200960e+07  4.2223579119201452e+07  4.2223579119202100e+07  4.2223579119202256e+07  4.2223579119202711e+07  4.2223579117869772e+07  4.2223607616059862e+07  4.2686506689827166e+07  4.2686477046441972e+07  4.2686477047883824e+07  4.2686477047883064e+07  4.2686477047883384e+07  4.2686477047882475e+07  4.2686477047883749e+07  4.2686477047883816e+07  4.2686477047884375e+07  4.2686477047884166e+07  4.2686477047884144e+07  4.2686477047884487e+07  4.2686477047884241e+07  4.2686477047884688e+07  4.2686477047885031e+07  4.2686477047885306e+07  4.2686477047885001e+07  4.2686477047884993e+07  4.2686477047886521e+07  4.2686477046445012e+07  4.2686506689829953e+07  4.3160684644670360e+07  4.3160653945141636e+07  4.3160653946675777e+07  4.3160653946674682e+07  4.3160653946675606e+07  4.3160653946674980e+07  4.3160653946675763e+07  4.3160653946675330e+07  4.3160653946675919e+07  4.3160653946675777e+07  4.3160653946676031e+07  4.3160653946677595e+07  4.3160653946677186e+07  4.3160653946677409e+07  4.3160653946677968e+07  4.3160653946677074e+07  4.3160653946677640e+07  4.3160653946677499e+07  4.3160653946678557e+07  4.3160653945143811e+07  4.3160684644671760e+07  4.3645410333111323e+07  4.3645378672304854e+07  4.3645378673916735e+07  4.3645378673917107e+07  4.3645378673915051e+07  4.3645378673916325e+07  4.3645378673915431e+07  4.3645378673915952e+07  4.3645378673916705e+07  4.3645378673915759e+07  4.3645378673917159e+07  4.3645378673916176e+07  4.3645378673917800e+07  4.3645378673917368e+07  4.3645378673917308e+07  4.3645378673918739e+07  4.3645378673918322e+07  4.3645378673918389e+07  4.3645378673918433e+07  4.3645378672307521e+07  4.3645410333113104e+07  4.4139936316092439e+07  4.4139903793829359e+07  4.4139903795504004e+07  4.4139903795503639e+07  4.4139903795503162e+07  4.4139903795504473e+07  4.4139903795504212e+07  4.4139903795504257e+07  4.4139903795502506e+07  4.4139903795504302e+07  4.4139903795502417e+07  4.4139903795504272e+07  4.4139903795503996e+07  4.4139903795505531e+07  4.4139903795505375e+07  4.4139903795505524e+07  4.4139903795505740e+07  4.4139903795505911e+07  4.4139903795505941e+07  4.4139903793830380e+07  4.4139936316094592e+07  4.4643500015790515e+07  4.4643466735989749e+07  4.4643466737712353e+07  4.4643466737711959e+07  4.4643466737711616e+07  4.4643466737711206e+07  4.4643466737711526e+07  4.4643466737711139e+07  4.4643466737712167e+07  4.4643466737712599e+07  4.4643466737712368e+07  4.4643466737713151e+07  4.4643466737713367e+07  4.4643466737712778e+07  4.4643466737712689e+07  4.4643466737712704e+07  4.4643466737714447e+07  4.4643466737713292e+07  4.4643466737713963e+07  4.4643466735991150e+07  4.4643500015793391e+07  4.5155324892153248e+07  4.5155290961986348e+07  4.5155290963741921e+07  4.5155290963740826e+07  4.5155290963742457e+07  4.5155290963741533e+07  4.5155290963742793e+07  4.5155290963741928e+07  4.5155290963743217e+07  4.5155290963741481e+07  4.5155290963743225e+07  4.5155290963742197e+07  4.5155290963742733e+07  4.5155290963743292e+07  4.5155290963743895e+07  4.5155290963744238e+07  4.5155290963743538e+07  4.5155290963743582e+07  4.5155290963744506e+07  4.5155290961987607e+07  4.5155324892155029e+07  4.5674621641354240e+07  4.5674587170412168e+07  4.5674587172187567e+07  4.5674587172186829e+07  4.5674587172188073e+07  4.5674587172187746e+07  4.5674587172187202e+07  4.5674587172188021e+07  4.5674587172186375e+07  4.5674587172188200e+07  4.5674587172188587e+07  4.5674587172187462e+07  4.5674587172188133e+07  4.5674587172188282e+07  4.5674587172188081e+07  4.5674587172188848e+07  4.5674587172187746e+07  4.5674587172189452e+07  4.5674587172188990e+07  4.5674587170414932e+07  4.5674621641356349e+07  4.6200589414270438e+07  4.6200554513755761e+07  4.6200554515537649e+07  4.6200554515536904e+07  4.6200554515537061e+07  4.6200554515537582e+07  4.6200554515537567e+07  4.6200554515537068e+07  4.6200554515538223e+07  4.6200554515537396e+07  4.6200554515537500e+07  4.6200554515538491e+07  4.6200554515538394e+07  4.6200554515537888e+07  4.6200554515538067e+07  4.6200554515539005e+07  4.6200554515538536e+07  4.6200554515540041e+07  4.6200554515539631e+07  4.6200554513759688e+07  4.6200589414271258e+07  4.6732417053112172e+07  4.6732381835066125e+07  4.6732381836838998e+07  4.6732381836839423e+07  4.6732381836838394e+07  4.6732381836838201e+07  4.6732381836838990e+07  4.6732381836838260e+07  4.6732381836839475e+07  4.6732381836839624e+07  4.6732381836839706e+07  4.6732381836840637e+07  4.6732381836840644e+07  4.6732381836840667e+07  4.6732381836841159e+07  4.6732381836840175e+07  4.6732381836841628e+07  4.6732381836840421e+07  4.6732381836841151e+07  4.6732381835068308e+07  4.6732417053115845e+07  4.7269284344277613e+07  4.7269248920815386e+07  4.7269248922566459e+07  4.7269248922567539e+07  4.7269248922565959e+07  4.7269248922567524e+07  4.7269248922567517e+07  4.7269248922568388e+07  4.7269248922567874e+07  4.7269248922567815e+07  4.7269248922568291e+07  4.7269248922568470e+07  4.7269248922568016e+07  4.7269248922568507e+07  4.7269248922568269e+07  4.7269248922568150e+07  4.7269248922570452e+07  4.7269248922568738e+07  4.7269248922569431e+07  4.7269248920815647e+07  4.7269284344279215e+07  4.7810363285432540e+07  4.7810327768020861e+07  4.7810327769752860e+07  4.7810327769746020e+07  4.7810327769748695e+07  4.7810327769746974e+07  4.7810327769748867e+07  4.7810327769748591e+07  4.7810327769749589e+07  4.7810327769749545e+07  4.7810327769748874e+07  4.7810327769749500e+07  4.7810327769749127e+07  4.7810327769749939e+07  4.7810327769749969e+07  4.7810327769749686e+07  4.7810327769749492e+07  4.7810327769748524e+07  4.7810327769755207e+07  4.7810327768022805e+07  4.7810363285433911e+07  4.8354819364805430e+07  4.8354783863712512e+07  4.8354783865344137e+07  4.8354783865364984e+07  4.8354783865360945e+07  4.8354783865360498e+07  4.8354783865359537e+07  4.8354783865361474e+07  4.8354783865360148e+07  4.8354783865362510e+07  4.8354783865360752e+07  4.8354783865361594e+07  4.8354783865361616e+07  4.8354783865360886e+07  4.8354783865360595e+07  4.8354783865362756e+07  4.8354783865361348e+07  4.8354783865366079e+07  4.8354783865343764e+07  4.8354783863712832e+07  4.8354819364806063e+07  4.8901812851316392e+07  4.8901777474126108e+07  4.8901777476071075e+07  4.8901777475984730e+07  4.8901777475975655e+07  4.8901777475980476e+07  4.8901777475977324e+07  4.8901777475980036e+07  4.8901777475979522e+07  4.8901777475978583e+07  4.8901777475979887e+07  4.8901777475979365e+07  4.8901777475980043e+07  4.8901777475980200e+07  4.8901777475979656e+07  4.8901777475981019e+07  4.8901777475976624e+07  4.8901777475985348e+07  4.8901777476070940e+07  4.8901777474128105e+07  4.8901812851315185e+07  4.9450500090233341e+07  4.9450464946687214e+07  4.9450464945905633e+07  4.9450464945615597e+07  4.9450464945667580e+07  4.9450464945656881e+07  4.9450464945659384e+07  4.9450464945658416e+07  4.9450464945659161e+07  4.9450464945658520e+07  4.9