<?xml version="1.0"?>
<VTKFile type="UnstructuredGrid"  version="0.1"  >
<UnstructuredGrid>
<Piece  NumberOfPoints="1661" NumberOfCells="3200">
<Points>
<DataArray  type="Float64"  NumberOfComponents="3"  format="ascii">-0.25 -1 0  -0.225 -1 0  -0.2 -1 0  -0.175 -1 0  -0.15 -1 0  -0.125 -1 0  -0.1 -1 0  -0.07500000000000001 -1 0  -0.04999999999999999 -1 0  -0.02499999999999999 -1 0  0 -1 0  0.02500000000000002 -1 0  0.04999999999999999 -1 0  0.07500000000000001 -1 0  0.09999999999999998 -1 0  0.125 -1 0  0.15 -1 0  0.175 -1 0  0.2 -1 0  0.225 -1 0  0.25 -1 0  -0.25 -0.975 0  -0.225 -0.975 0  -0.2 -0.975 0  -0.175 -0.975 0  -0.15 -0.975 0  -0.125 -0.975 0  -0.1 -0.975 0  -0.07500000000000001 -0.975 0  -0.04999999999999999 -0.975 0  -0.02499999999999999 -0.975 0  0 -0.975 0  0.02500000000000002 -0.975 0  0.04999999999999999 -0.975 0  0.07500000000000001 -0.975 0  0.09999999999999998 -0.975 0  0.125 -0.975 0  0.15 -0.975 0  0.175 -0.975 0  0.2 -0.975 0  0.225 -0.975 0  0.25 -0.975 0  -0.25 -0.95 0  -0.225 -0.95 0  -0.2 -0.95 0  -0.175 -0.95 0  -0.15 -0.95 0  -0.125 -0.95 0  -0.1 -0.95 0  -0.07500000000000001 -0.95 0  -0.04999999999999999 -0.95 0  -0.02499999999999999 -0.95 0  0 -0.95 0  0.02500000000000002 -0.95 0  0.04999999999999999 -0.95 0  0.07500000000000001 -0.95 0  0.09999999999999998 -0.95 0  0.125 -0.95 0  0.15 -0.95 0  0.175 -0.95 0  0.2 -0.95 0  0.225 -0.95 0  0.25 -0.95 0  -0.25 -0.925 0  -0.225 -0.925 0  -0.2 -0.925 0  -0.175 -0.925 0  -0.15 -0.925 0  -0.125 -0.925 0  -0.1 -0.925 0  -0.07500000000000001 -0.925 0  -0.04999999999999999 -0.925 0  -0.02499999999999999 -0.925 0  0 -0.925 0  0.02500000000000002 -0.925 0  0.04999999999999999 -0.925 0  0.07500000000000001 -0.925 0  0.09999999999999998 -0.925 0  0.125 -0.925 0  0.15 -0.925 0  0.175 -0.925 0  0.2 -0.925 0  0.225 -0.925 0  0.25 -0.925 0  -0.25 -0.9 0  -0.225 -0.9 0  -0.2 -0.9 0  -0.175 -0.9 0  -0.15 -0.9 0  -0.125 -0.9 0  -0.1 -0.9 0  -0.07500000000000001 -0.9 0  -0.04999999999999999 -0.9 0  -0.02499999999999999 -0.9 0  0 -0.9 0  0.02500000000000002 -0.9 0  0.04999999999999999 -0.9 0  0.07500000000000001 -0.9 0  0.09999999999999998 -0.9 0  0.125 -0.9 0  0.15 -0.9 0  0.175 -0.9 0  0.2 -0.9 0  0.225 -0.9 0  0.25 -0.9 0  -0.25 -0.875 0  -0.225 -0.875 0  -0.2 -0.875 0  -0.175 -0.875 0  -0.15 -0.875 0  -0.125 -0.875 0  -0.1 -0.875 0  -0.07500000000000001 -0.875 0  -0.04999999999999999 -0.875 0  -0.02499999999999999 -0.875 0  0 -0.875 0  0.02500000000000002 -0.875 0  0.04999999999999999 -0.875 0  0.07500000000000001 -0.875 0  0.09999999999999998 -0.875 0  0.125 -0.875 0  0.15 -0.875 0  0.175 -0.875 0  0.2 -0.875 0  0.225 -0.875 0  0.25 -0.875 0  -0.25 -0.85 0  -0.225 -0.85 0  -0.2 -0.85 0  -0.175 -0.85 0  -0.15 -0.85 0  -0.125 -0.85 0  -0.1 -0.85 0  -0.07500000000000001 -0.85 0  -0.04999999999999999 -0.85 0  -0.02499999999999999 -0.85 0  0 -0.85 0  0.02500000000000002 -0.85 0  0.04999999999999999 -0.85 0  0.07500000000000001 -0.85 0  0.09999999999999998 -0.85 0  0.125 -0.85 0  0.15 -0.85 0  0.175 -0.85 0  0.2 -0.85 0  0.225 -0.85 0  0.25 -0.85 0  -0.25 -0.825 0  -0.225 -0.825 0  -0.2 -0.825 0  -0.175 -0.825 0  -0.15 -0.825 0  -0.125 -0.825 0  -0.1 -0.825 0  -0.07500000000000001 -0.825 0  -0.04999999999999999 -0.825 0  -0.02499999999999999 -0.825 0  0 -0.825 0  0.02500000000000002 -0.825 0  0.04999999999999999 -0.825 0  0.07500000000000001 -0.825 0  0.09999999999999998 -0.825 0  0.125 -0.825 0  0.15 -0.825 0  0.175 -0.825 0  0.2 -0.825 0  0.225 -0.825 0  0.25 -0.825 0  -0.25 -0.8 0  -0.225 -0.8 0  -0.2 -0.8 0  -0.175 -0.8 0  -0.15 -0.8 0  -0.125 -0.8 0  -0.1 -0.8 0  -0.07500000000000001 -0.8 0  -0.04999999999999999 -0.8 0  -0.02499999999999999 -0.8 0  0 -0.8 0  0.02500000000000002 -0.8 0  0.04999999999999999 -0.8 0  0.07500000000000001 -0.8 0  0.09999999999999998 -0.8 0  0.125 -0.8 0  0.15 -0.8 0  0.175 -0.8 0  0.2 -0.8 0  0.225 -0.8 0  0.25 -0.8 0  -0.25 -0.775 0  -0.225 -0.775 0  -0.2 -0.775 0  -0.175 -0.775 0  -0.15 -0.775 0  -0.125 -0.775 0  -0.1 -0.775 0  -0.07500000000000001 -0.775 0  -0.04999999999999999 -0.775 0  -0.02499999999999999 -0.775 0  0 -0.775 0  0.02500000000000002 -0.775 0  0.04999999999999999 -0.775 0  0.07500000000000001 -0.775 0  0.09999999999999998 -0.775 0  0.125 -0.775 0  0.15 -0.775 0  0.175 -0.775 0  0.2 -0.775 0  0.225 -0.775 0  0.25 -0.775 0  -0.25 -0.75 0  -0.225 -0.75 0  -0.2 -0.75 0  -0.175 -0.75 0  -0.15 -0.75 0  -0.125 -0.75 0  -0.1 -0.75 0  -0.07500000000000001 -0.75 0  -0.04999999999999999 -0.75 0  -0.02499999999999999 -0.75 0  0 -0.75 0  0.02500000000000002 -0.75 0  0.04999999999999999 -0.75 0  0.07500000000000001 -0.75 0  0.09999999999999998 -0.75 0  0.125 -0.75 0  0.15 -0.75 0  0.175 -0.75 0  0.2 -0.75 0  0.225 -0.75 0  0.25 -0.75 0  -0.25 -0.725 0  -0.225 -0.725 0  -0.2 -0.725 0  -0.175 -0.725 0  -0.15 -0.725 0  -0.125 -0.725 0  -0.1 -0.725 0  -0.07500000000000001 -0.725 0  -0.04999999999999999 -0.725 0  -0.02499999999999999 -0.725 0  0 -0.725 0  0.02500000000000002 -0.725 0  0.04999999999999999 -0.725 0  0.07500000000000001 -0.725 0  0.09999999999999998 -0.725 0  0.125 -0.725 0  0.15 -0.725 0  0.175 -0.725 0  0.2 -0.725 0  0.225 -0.725 0  0.25 -0.725 0  -0.25 -0.7 0  -0.225 -0.7 0  -0.2 -0.7 0  -0.175 -0.7 0  -0.15 -0.7 0  -0.125 -0.7 0  -0.1 -0.7 0  -0.07500000000000001 -0.7 0  -0.04999999999999999 -0.7 0  -0.02499999999999999 -0.7 0  0 -0.7 0  0.02500000000000002 -0.7 0  0.04999999999999999 -0.7 0  0.07500000000000001 -0.7 0  0.09999999999999998 -0.7 0  0.125 -0.7 0  0.15 -0.7 0  0.175 -0.7 0  0.2 -0.7 0  0.225 -0.7 0  0.25 -0.7 0  -0.25 -0.675 0  -0.225 -0.675 0  -0.2 -0.675 0  -0.175 -0.675 0  -0.15 -0.675 0  -0.125 -0.675 0  -0.1 -0.675 0  -0.07500000000000001 -0.675 0  -0.04999999999999999 -0.675 0  -0.02499999999999999 -0.675 0  0 -0.675 0  0.02500000000000002 -0.675 0  0.04999999999999999 -0.675 0  0.07500000000000001 -0.675 0  0.09999999999999998 -0.675 0  0.125 -0.675 0  0.15 -0.675 0  0.175 -0.675 0  0.2 -0.675 0  0.225 -0.675 0  0.25 -0.675 0  -0.25 -0.65 0  -0.225 -0.65 0  -0.2 -0.65 0  -0.175 -0.65 0  -0.15 -0.65 0  -0.125 -0.65 0  -0.1 -0.65 0  -0.07500000000000001 -0.65 0  -0.04999999999999999 -0.65 0  -0.02499999999999999 -0.65 0  0 -0.65 0  0.02500000000000002 -0.65 0  0.04999999999999999 -0.65 0  0.07500000000000001 -0.65 0  0.09999999999999998 -0.65 0  0.125 -0.65 0  0.15 -0.65 0  0.175 -0.65 0  0.2 -0.65 0  0.225 -0.65 0  0.25 -0.65 0  -0.25 -0.625 0  -0.225 -0.625 0  -0.2 -0.625 0  -0.175 -0.625 0  -0.15 -0.625 0  -0.125 -0.625 0  -0.1 -0.625 0  -0.07500000000000001 -0.625 0  -0.04999999999999999 -0.625 0  -0.02499999999999999 -0.625 0  0 -0.625 0  0.02500000000000002 -0.625 0  0.04999999999999999 -0.625 0  0.07500000000000001 -0.625 0  0.09999999999999998 -0.625 0  0.125 -0.625 0  0.15 -0.625 0  0.175 -0.625 0  0.2 -0.625 0  0.225 -0.625 0  0.25 -0.625 0  -0.25 -0.6 0  -0.225 -0.6 0  -0.2 -0.6 0  -0.175 -0.6 0  -0.15 -0.6 0  -0.125 -0.6 0  -0.1 -0.6 0  -0.07500000000000001 -0.6 0  -0.04999999999999999 -0.6 0  -0.02499999999999999 -0.6 0  0 -0.6 0  0.02500000000000002 -0.6 0  0.04999999999999999 -0.6 0  0.07500000000000001 -0.6 0  0.09999999999999998 -0.6 0  0.125 -0.6 0  0.15 -0.6 0  0.175 -0.6 0  0.2 -0.6 0  0.225 -0.6 0  0.25 -0.6 0  -0.25 -0.575 0  -0.225 -0.575 0  -0.2 -0.575 0  -0.175 -0.575 0  -0.15 -0.575 0  -0.125 -0.575 0  -0.1 -0.575 0  -0.07500000000000001 -0.575 0  -0.04999999999999999 -0.575 0  -0.02499999999999999 -0.575 0  0 -0.575 0  0.02500000000000002 -0.575 0  0.04999999999999999 -0.575 0  0.07500000000000001 -0.575 0  0.09999999999999998 -0.575 0  0.125 -0.575 0  0.15 -0.575 0  0.175 -0.575 0  0.2 -0.575 0  0.225 -0.575 0  0.25 -0.575 0  -0.25 -0.55 0  -0.225 -0.55 0  -0.2 -0.55 0  -0.175 -0.55 0  -0.15 -0.55 0  -0.125 -0.55 0  -0.1 -0.55 0  -0.07500000000000001 -0.55 0  -0.04999999999999999 -0.55 0  -0.02499999999999999 -0.55 0  0 -0.55 0  0.02500000000000002 -0.55 0  0.04999999999999999 -0.55 0  0.07500000000000001 -0.55 0  0.09999999999999998 -0.55 0  0.125 -0.55 0  0.15 -0.55 0  0.175 -0.55 0  0.2 -0.55 0  0.225 -0.55 0  0.25 -0.55 0  -0.25 -0.525 0  -0.225 -0.525 0  -0.2 -0.525 0  -0.175 -0.525 0  -0.15 -0.525 0  -0.125 -0.525 0  -0.1 -0.525 0  -0.07500000000000001 -0.525 0  -0.04999999999999999 -0.525 0  -0.02499999999999999 -0.525 0  0 -0.525 0  0.02500000000000002 -0.525 0  0.04999999999999999 -0.525 0  0.07500000000000001 -0.525 0  0.09999999999999998 -0.525 0  0.125 -0.525 0  0.15 -0.525 0  0.175 -0.525 0  0.2 -0.525 0  0.225 -0.525 0  0.25 -0.525 0  -0.25 -0.5 0  -0.225 -0.5 0  -0.2 -0.5 0  -0.175 -0.5 0  -0.15 -0.5 0  -0.125 -0.5 0  -0.1 -0.5 0  -0.07500000000000001 -0.5 0  -0.04999999999999999 -0.5 0  -0.02499999999999999 -0.5 0  0 -0.5 0  0.02500000000000002 -0.5 0  0.04999999999999999 -0.5 0  0.07500000000000001 -0.5 0  0.09999999999999998 -0.5 0  0.125 -0.5 0  0.15 -0.5 0  0.175 -0.5 0  0.2 -0.5 0  0.225 -0.5 0  0.25 -0.5 0  -0.25 -0.475 0  -0.225 -0.475 0  -0.2 -0.475 0  -0.175 -0.475 0  -0.15 -0.475 0  -0.125 -0.475 0  -0.1 -0.475 0  -0.07500000000000001 -0.475 0  -0.04999999999999999 -0.475 0  -0.02499999999999999 -0.475 0  0 -0.475 0  0.02500000000000002 -0.475 0  0.04999999999999999 -0.475 0  0.07500000000000001 -0.475 0  0.09999999999999998 -0.475 0  0.125 -0.475 0  0.15 -0.475 0  0.175 -0.475 0  0.2 -0.475 0  0.225 -0.475 0  0.25 -0.475 0  -0.25 -0.45 0  -0.225 -0.45 0  -0.2 -0.45 0  -0.175 -0.45 0  -0.15 -0.45 0  -0.125 -0.45 0  -0.1 -0.45 0  -0.07500000000000001 -0.45 0  -0.04999999999999999 -0.45 0  -0.02499999999999999 -0.45 0  0 -0.45 0  0.02500000000000002 -0.45 0  0.04999999999999999 -0.45 0  0.07500000000000001 -0.45 0  0.09999999999999998 -0.45 0  0.125 -0.45 0  0.15 -0.45 0  0.175 -0.45 0  0.2 -0.45 0  0.225 -0.45 0  0.25 -0.45 0  -0.25 -0.425 0  -0.225 -0.425 0  -0.2 -0.425 0  -0.175 -0.425 0  -0.15 -0.425 0  -0.125 -0.425 0  -0.1 -0.425 0  -0.07500000000000001 -0.425 0  -0.04999999999999999 -0.425 0  -0.02499999999999999 -0.425 0  0 -0.425 0  0.02500000000000002 -0.425 0  0.04999999999999999 -0.425 0  0.07500000000000001 -0.425 0  0.
[...]
<PointData  Scalars=" mean stress"> 
<DataArray  type="Float64"  Name=" mean stress"  format="ascii">4.4001288383945681e+07  4.4001288382092625e+07  4.4001288381879240e+07  4.4001288381857425e+07  4.4001288381860428e+07  4.4001288381860130e+07  4.4001288381860301e+07  4.4001288381860368e+07  4.4001288381860599e+07  4.4001288381860651e+07  4.4001288381860957e+07  4.4001288381861165e+07  4.4001288381861314e+07  4.4001288381861515e+07  4.4001288381861575e+07  4.4001288381861687e+07  4.4001288381862223e+07  4.4001288381859317e+07  4.4001288381881244e+07  4.4001288382094674e+07  4.4001288383947812e+07  4.4005913180474825e+07  4.4005913170720108e+07  4.4005913170242377e+07  4.4005913170257352e+07  4.4005913170255035e+07  4.4005913170255475e+07  4.4005913170255475e+07  4.4005913170255631e+07  4.4005913170255825e+07  4.4005913170256056e+07  4.4005913170256272e+07  4.4005913170256458e+07  4.4005913170256637e+07  4.4005913170256846e+07  4.4005913170256987e+07  4.4005913170257181e+07  4.4005913170256987e+07  4.4005913170259342e+07  4.4005913170244560e+07  4.4005913170722365e+07  4.4005913180476978e+07  4.4019780448569827e+07  4.4019780404758699e+07  4.4019780404368550e+07  4.4019780404363938e+07  4.4019780404365107e+07  4.4019780404365063e+07  4.4019780404365152e+07  4.4019780404365212e+07  4.4019780404365450e+07  4.4019780404365614e+07  4.4019780404365875e+07  4.4019780404366218e+07  4.4019780404366277e+07  4.4019780404366612e+07  4.4019780404366702e+07  4.4019780404366717e+07  4.4019780404367059e+07  4.4019780404365957e+07  4.4019780404370844e+07  4.4019780404760920e+07  4.4019780448572204e+07  4.4042868801644400e+07  4.4042868702351280e+07  4.4042868701953769e+07  4.4042868701954775e+07  4.4042868701954499e+07  4.4042868701954693e+07  4.4042868701954819e+07  4.4042868701954976e+07  4.4042868701955102e+07  4.4042868701955147e+07  4.4042868701955602e+07  4.4042868701955765e+07  4.4042868701956145e+07  4.4042868701956198e+07  4.4042868701956317e+07  4.4042868701956511e+07  4.4042868701956525e+07  4.4042868701956950e+07  4.4042868701956011e+07  4.4042868702353865e+07  4.4042868801646732e+07  4.4075142639539242e+07  4.4075142462987341e+07  4.4075142462601967e+07  4.4075142462601915e+07  4.4075142462602183e+07  4.4075142462602079e+07  4.4075142462602243e+07  4.4075142462602392e+07  4.4075142462602571e+07  4.4075142462602839e+07  4.4075142462602839e+07  4.4075142462603316e+07  4.4075142462603480e+07  4.4075142462603644e+07  4.4075142462603986e+07  4.4075142462604195e+07  4.4075142462604292e+07  4.4075142462604240e+07  4.4075142462604456e+07  4.4075142462989725e+07  4.4075142639542103e+07  4.4116552197835565e+07  4.4116551922962293e+07  4.4116551922589019e+07  4.4116551922589473e+07  4.4116551922589183e+07  4.4116551922589533e+07  4.4116551922589481e+07  4.4116551922589757e+07  4.4116551922589682e+07  4.4116551922590055e+07  4.4116551922590144e+07  4.4116551922590561e+07  4.4116551922590502e+07  4.4116551922591120e+07  4.4116551922590956e+07  4.4116551922591381e+07  4.4116551922591351e+07  4.4116551922591604e+07  4.4116551922591552e+07  4.4116551922964729e+07  4.4116552197837956e+07  4.4167033625547364e+07  4.4167033231990643e+07  4.4167033231633142e+07  4.4167033231633008e+07  4.4167033231633492e+07  4.4167033231633320e+07  4.4167033231633596e+07  4.4167033231633782e+07  4.4167033231633671e+07  4.4167033231633842e+07  4.4167033231634393e+07  4.4167033231634475e+07  4.4167033231634744e+07  4.4167033231635064e+07  4.4167033231635436e+07  4.4167033231635168e+07  4.4167033231635340e+07  4.4167033231635369e+07  4.4167033231635511e+07  4.4167033231993236e+07  4.4167033625549488e+07  4.4226509083398938e+07  4.4226508551677488e+07  4.4226508551337354e+07  4.4226508551337384e+07  4.4226508551337548e+07  4.4226508551337518e+07  4.4226508551337816e+07  4.4226508551337607e+07  4.4226508551338263e+07  4.4226508551338390e+07  4.4226508551338516e+07  4.4226508551338695e+07  4.4226508551339142e+07  4.4226508551339172e+07  4.4226508551339552e+07  4.4226508551339708e+07  4.4226508551339634e+07  4.4226508551339902e+07  4.4226508551339798e+07  4.4226508551679939e+07  4.4226509083402045e+07  4.4294886863887019e+07  4.4294886175530598e+07  4.4294886175210267e+07  4.4294886175210632e+07  4.4294886175210454e+07  4.4294886175210692e+07  4.4294886175210632e+07  4.4294886175211288e+07  4.4294886175211504e+07  4.4294886175211661e+07  4.4294886175211385e+07  4.4294886175211951e+07  4.4294886175212130e+07  4.4294886175212272e+07  4.4294886175212130e+07  4.4294886175212592e+07  4.4294886175212570e+07  4.4294886175213382e+07  4.4294886175213009e+07  4.4294886175533332e+07  4.4294886863889143e+07  4.4372061532679804e+07  4.4372060670368344e+07  4.4372060670070186e+07  4.4372060670070395e+07  4.4372060670070112e+07  4.4372060670070551e+07  4.4372060670070872e+07  4.4372060670070618e+07  4.4372060670070946e+07  4.4372060670071036e+07  4.4372060670071319e+07  4.4372060670071535e+07  4.4372060670071714e+07  4.4372060670071796e+07  4.4372060670072541e+07  4.4372060670072131e+07  4.4372060670072958e+07  4.4372060670072287e+07  4.4372060670072354e+07  4.4372060670370542e+07  4.4372061532682113e+07  4.4457914091204874e+07  4.4457913038884841e+07  4.4457913038610592e+07  4.4457913038610801e+07  4.4457913038611084e+07  4.4457913038610809e+07  4.4457913038610801e+07  4.4457913038610734e+07  4.4457913038611494e+07  4.4457913038611464e+07  4.4457913038611971e+07  4.4457913038612053e+07  4.4457913038612336e+07  4.4457913038612455e+07  4.4457913038612187e+07  4.4457913038613133e+07  4.4457913038612910e+07  4.4457913038613163e+07  4.4457913038613260e+07  4.4457913038887225e+07  4.4457914091207929e+07  4.4552312160136610e+07  4.4552310903133936e+07  4.4552310902885884e+07  4.4552310902885310e+07  4.4552310902885668e+07  4.4552310902885117e+07  4.4552310902885884e+07  4.4552310902885728e+07  4.4552310902885787e+07  4.4552310902886197e+07  4.4552310902886294e+07  4.4552310902886860e+07  4.4552310902886592e+07  4.4552310902887456e+07  4.4552310902887389e+07  4.4552310902887143e+07  4.4552310902887650e+07  4.4552310902887747e+07  4.4552310902887829e+07  4.4552310903136596e+07  4.4552312160139181e+07  4.4655110183523655e+07  4.4655108708643608e+07  4.4655108708421916e+07  4.4655108708422296e+07  4.4655108708422668e+07  4.4655108708422877e+07  4.4655108708422944e+07  4.4655108708422884e+07  4.4655108708422601e+07  4.4655108708422802e+07  4.4655108708423153e+07  4.4655108708423413e+07  4.4655108708424166e+07  4.4655108708423808e+07  4.4655108708424382e+07  4.4655108708424471e+07  4.4655108708424084e+07  4.4655108708424270e+07  4.4655108708424814e+07  4.4655108708645768e+07  4.4655110183525510e+07  4.4766149653234415e+07  4.4766147948847100e+07  4.4766147948654570e+07  4.4766147948654875e+07  4.4766147948654234e+07  4.4766147948655352e+07  4.4766147948654301e+07  4.4766147948656067e+07  4.4766147948655032e+07  4.4766147948655613e+07  4.4766147948655553e+07  4.4766147948655546e+07  4.4766147948655784e+07  4.4766147948656164e+07  4.4766147948655933e+07  4.4766147948656082e+07  4.4766147948656805e+07  4.4766147948656917e+07  4.4766147948656432e+07  4.4766147948850147e+07  4.4766149653237164e+07  4.4885259353373826e+07  4.4885257409488589e+07  4.4885257409324385e+07  4.4885257409324668e+07  4.4885257409325033e+07  4.4885257409324773e+07  4.4885257409325331e+07  4.4885257409324840e+07  4.4885257409325272e+07  4.4885257409325615e+07  4.4885257409325838e+07  4.4885257409326404e+07  4.4885257409326635e+07  4.4885257409327060e+07  4.4885257409326918e+07  4.4885257409327060e+07  4.4885257409326985e+07  4.4885257409327298e+07  4.4885257409327321e+07  4.4885257409491353e+07  4.4885259353376143e+07  4.5012255624288648e+07  4.5012253432615720e+07  4.5012253432481319e+07  4.5012253432482183e+07  4.5012253432481535e+07  4.5012253432481982e+07  4.5012253432482392e+07  4.5012253432482146e+07  4.5012253432483204e+07  4.5012253432482414e+07  4.5012253432483025e+07  4.5012253432483114e+07  4.5012253432482928e+07  4.5012253432483502e+07  4.5012253432483532e+07  4.5012253432484448e+07  4.5012253432484090e+07  4.5012253432484441e+07  4.5012253432484426e+07  4.5012253432617567e+07  4.5012255624291666e+07  4.5146942645774826e+07  4.5146940199766591e+07  4.5146940199664623e+07  4.5146940199664041e+07  4.5146940199663870e+07  4.5146940199663796e+07  4.5146940199663945e+07  4.5146940199664369e+07  4.5146940199664555e+07  4.5146940199665338e+07  4.5146940199665256e+07  4.5146940199666053e+07  4.5146940199666053e+07  4.5146940199665837e+07  4.5146940199665889e+07  4.5146940199665412e+07  4.5146940199666314e+07  4.5146940199666306e+07  4.5146940199666195e+07  4.5146940199769385e+07  4.5146942645777620e+07  4.5289112739017352e+07  4.5289110033908390e+07  4.5289110033836849e+07  4.5289110033836052e+07  4.5289110033836901e+07  4.5289110033836626e+07  4.5289110033836745e+07  4.5289110033837229e+07  4.5289110033836879e+07  4.5289110033837579e+07  4.5289110033838116e+07  4.5289110033837609e+07  4.5289110033838592e+07  4.5289110033837922e+07  4.5289110033838525e+07  4.5289110033838362e+07  4.5289110033838734e+07  4.5289110033838876e+07  4.5289110033838578e+07  4.5289110033910729e+07  4.5289112739018790e+07  4.5438546686825991e+07  4.5438543719649091e+07  4.5438543719608247e+07  4.5438543719608292e+07  4.5438543719607852e+07  4.5438543719608657e+07  4.5438543719608240e+07  4.5438543719609030e+07  4.5438543719609141e+07  4.5438543719608627e+07  4.5438543719609194e+07  4.5438543719609797e+07  4.5438543719609603e+07  4.5438543719610438e+07  4.5438543719610535e+07  4.5438543719611578e+07  4.5438543719610102e+07  4.5438543719610274e+07  4.5438543719610840e+07  4.5438543719651416e+07  4.5438546686828181e+07  4.5595014071666718e+07  4.5595010841256522e+07  4.5595010841245674e+07  4.5595010841246828e+07  4.5595010841247126e+07  4.5595010841246761e+07  4.5595010841247372e+07  4.5595010841246627e+07  4.5595010841247462e+07  4.5595010841247775e+07  4.5595010841247216e+07  4.5595010841248274e+07  4.5595010841247715e+07  4.5595010841248624e+07  4.5595010841248453e+07  4.5595010841248028e+07  4.5595010841248557e+07  4.5595010841248833e+07  4.5595010841248587e+07  4.5595010841259167e+07  4.5595014071670242e+07  4.5758273630952410e+07  4.5758270137937926e+07  4.5758270137958586e+07  4.5758270137958691e+07  4.5758270137958556e+07  4.5758270137958899e+07  4.5758270137959555e+07  4.5758270137959115e+07  4.5758270137959823e+07  4.5758270137959704e+07  4.5758270137960471e+07  4.5758270137959562e+07  4.5758270137960717e+07  4.5758270137959942e+07  4.5758270137960486e+07  4.5758270137959875e+07  4.5758270137961850e+07  4.5758270137960225e+07  4.5758270137961276e+07  4.5758270137940317e+07  4.5758273630955093e+07  4.5928073629060470e+07  4.5928069875844337e+07  4.5928069875893496e+07  4.5928069875893161e+07  4.5928069875894278e+07  4.5928069875893235e+07  4.5928069875894099e+07  4.5928069875893489e+07  4.5928069875893794e+07  4.5928069875894882e+07  4.5928069875895076e+07  4.5928069875895821e+07  4.5928069875895195e+07  4.5928069875896141e+07  4.5928069875895567e+07  4.5928069875896394e+07  4.5928069875895761e+07  4.5928069875896201e+07  4.5928069875896238e+07  4.5928069875846349e+07  4.5928073629064195e+07  4.6104152245496571e+07  4.6104148236219577e+07  4.6104148236299016e+07  4.6104148236299090e+07  4.6104148236299679e+07  4.6104148236299917e+07  4.6104148236300774e+07  4.6104148236300297e+07  4.6104148236299269e+07  4.6104148236300334e+07  4.6104148236299299e+07  4.6104148236300647e+07  4.6104148236299634e+07  4.6104148236301467e+07  4.6104148236301504e+07  4.6104148236301877e+07  4.6104148236300521e+07  4.6104148236301169e+07  4.6104148236301176e+07  4.6104148236222945e+07  4.6104152245498516e+07  4.6286237978617981e+07  4.6286233719113342e+07  4.6286233719221234e+07  4.6286233719221406e+07  4.6286233719220787e+07  4.6286233719221510e+07  4.6286233719219528e+07  4.6286233719221443e+07  4.6286233719221435e+07  4.6286233719220556e+07  4.6286233719222531e+07  4.6286233719221555e+07  4.6286233719223939e+07  4.6286233719221622e+07  4.6286233719223797e+07  4.6286233719222285e+07  4.6286233719223268e+07  4.6286233719223343e+07  4.6286233719223320e+07  4.6286233719116636e+07  4.6286237978620991e+07  4.6474050064267121e+07  4.6474045562005617e+07  4.6474045562138543e+07  4.6474045562137969e+07  4.6474045562138140e+07  4.6474045562139325e+07  4.6474045562139727e+07  4.6474045562139399e+07  4.6474045562139556e+07  4.6474045562139913e+07  4.6474045562140517e+07  4.6474045562140308e+07  4.6474045562141225e+07  4.6474045562141433e+07  4.6474045562140472e+07  4.6474045562141687e+07  4.6474045562141240e+07  4.6474045562142201e+07  4.6474045562141418e+07  4.6474045562008485e+07  4.6474050064268783e+07  4.6667298908705637e+07  4.6667294172720291e+07  4.6667294172877498e+07  4.6667294172878265e+07  4.6667294172878288e+07  4.6667294172878191e+07  4.6667294172878422e+07  4.6667294172878794e+07  4.6667294172879785e+07  4.6667294172878951e+07  4.6667294172879979e+07  4.6667294172880419e+07  4.6667294172879510e+07  4.6667294172881782e+07  4.6667294172880612e+07  4.6667294172881328e+07  4.6667294172881916e+07  4.6667294172881007e+07  4.6667294172881708e+07  4.6667294172723897e+07  4.6667298908708751e+07  4.6865686535145581e+07  4.6865681575958706e+07  4.6865681576140635e+07  4.6865681576140404e+07  4.6865681576140240e+07  4.6865681576139927e+07  4.6865681576140836e+07  4.6865681576140605e+07  4.6865681576140158e+07  4.6865681576141194e+07  4.6865681576140702e+07  4.6865681576141752e+07  4.6865681576141484e+07  4.6865681576141141e+07  4.6865681576142564e+07  4.6865681576141298e+07  4.6865681576142900e+07  4.6865681576142229e+07  4.6865681576143026e+07  4.6865681575960018e+07  4.6865686535148598e+07  4.7068907043219149e+07  4.7068901872751221e+07  4.7068901872955084e+07  4.7068901872955076e+07  4.7068901872956038e+07  4.7068901872955866e+07  4.7068901872955963e+07  4.7068901872956611e+07  4.7068901872956678e+07  4.7068901872957736e+07  4.7068901872956507e+07  4.7068901872956261e+07  4.7068901872958280e+07  4.7068901872957841e+07  4.7068901872958533e+07  4.7068901872958250e+07  4.7068901872956924e+07  4.7068901872958198e+07  4.7068901872958101e+07  4.7068901872755192e+07  4.7068907043221273e+07  4.7276647080658942e+07  4.7276641712135777e+07  4.7276641712361172e+07  4.7276641712359697e+07  4.7276641712359287e+07  4.7276641712359652e+07  4.7276641712359279e+07  4.7276641712359384e+07  4.7276641712360390e+07  4.7276641712359682e+07  4.7276641712360770e+07  4.7276641712361634e+07  4.7276641712361030e+07  4.7276641712361991e+07  4.7276641712361261e+07  4.7276641712362982e+07  4.7276641712362222e+07  4.7276641712363243e+07  4.7276641712362580e+07  4.7276641712138705e+07  4.7276647080661081e+07  4.7488586326467961e+07  4.7488580774317682e+07  4.7488580774558537e+07  4.7488580774560116e+07  4.7488580774558283e+07  4.7488580774559811e+07  4.7488580774559401e+07  4.7488580774558842e+07  4.7488580774559498e+07  4.7488580774559706e+07  4.7488580774559848e+07  4.7488580774560824e+07  4.7488580774560608e+07  4.7488580774561077e+07  4.7488580774561025e+07  4.7488580774560377e+07  4.7488580774561733e+07  4.7488580774560198e+07  4.7488580774561666e+07  4.7488580774319559e+07  4.7488586326470643e+07  4.7704397984841138e+07  4.7704392264579624e+07  4.7704392264836714e+07  4.7704392264838152e+07  4.7704392264837414e+07  4.7704392264837682e+07  4.7704392264836989e+07  4.7704392264837831e+07  4.7704392264837593e+07  4.7704392264838822e+07  4.7704392264837742e+07  4.7704392264837727e+07  4.7704392264838845e+07  4.7704392264838897e+07  4.7704392264838666e+07  4.7704392264839135e+07  4.7704392264839433e+07  4.7704392264839269e+07  4.7704392264838375e+07  4.7704392264580511e+07  4.7704397984843619e+07  4.7923749289059572e+07  4.7923743417177506e+07  4.7923743417451769e+07  4.7923743417449377e+07  4.7923743417451888e+07  4.7923743417449690e+07  4.7923743417451665e+07  4.7923743417451292e+07  4.7923743417451642e+07  4.7923743417450838e+07  4.7923743417451315e+07  4.7923743417452820e+07  4.7923743417451508e+07  4.7923743417452566e+07  4.7923743417452626e+07  4.7923743417453133e+07  4.7923743417452395e+07  4.7923743417452507e+07  4.7923743417452775e+07  4.7923743417179793e+07  4.7923749289062336e+07  4.8146302014599688e+07  4.8146296008450381e+07  4.8146296008733362e+07  4.8146296008733824e+07  4.8146296008734569e+07  4.8146296008733459e+07  4.8146296008734331e+07  4.8146296008733973e+07  4.8146296008733630e+07  4.8146296008734092e+07  4.8146296008735523e+07  4.8146296008734539e+07  4.8146296008735865e+07  4.8146296008735865e+07  4.8146296008736275e+07  4.8146296008735619e+07  4.8146296008734971e+07  4.8146296008736208e+07  4.8146296008736975e+07  4.8146296008452833e+07  4.8146302014602534e+07  4.8371713000653394e+07  4.8371706878316037e+07  4.8371706878611468e+07  4.8371706878610820e+07  4.8371706878609687e+07  4.8371706878611945e+07  4.8371706878609501e+07  4.8371706878611229e+07  4.8371706878611140e+07  4.8371706878610499e+07  4.8371706878611095e+07  4.8371706878611177e+07  4.8371706878612936e+07  4.8371706878611825e+07  4.8371706878611676e+07  4.8371706878612287e+07  4.8371706878613472e+07  4.8371706878614210e+07  4.8371706878612563e+07  4.8371706878320083e+07  4.8371713000652559e+07  4.8599634679253109e+07  4.8599628459428631e+07  4.8599628459729247e+07  4.8599628459730208e+07  4.8599628459729813e+07  4.8599628459730253e+07  4.8599628459730104e+07  4.8599628459730282e+07  4.8599628459729791e+07  4.8599628459730662e+07  4.8599628459729955e+07  4.8599628459730648e+07  4.8599628459730230e+07  4.8599628459730409e+07  4.8599628459731571e+07  4.8599628459731311e+07  4.8599628459732942e+07  4.8599628459730983e+07  4.8599628459732577e+07  4.8599628459429130e+07  4.8599634679256827e+07  4.8829715611219101e+07  4.8829709313079283e+07  4.8829709313385539e+07  4.8829709313386008e+07  4.8829709313386567e+07  4.8829709313385777e+07  4.8829709313387312e+07  4.8829709313386671e+07  4.8829709313388392e+07  4.8829709313387305e+07  4.8829709313388832e+07  4.8829709313387319e+07  4.8829709313386708e+07  4.8829709313388042e+07  4.8829709313387930e+07  4.8829709313388906e+07  4.8829709313389793e+07  4.8829709313387938e+07  4.8829709313390039e+07  4.8829709313081391e+07  4.8829715611222431e+07  4.9061601028033301e+07  4.9061594671107709e+07  4.9061594671419293e+07  4.9061594671417229e+07  4.9061594671417058e+07  4.9061594671415515e+07  4.9061594671416409e+07  4.9061594671417080e+07  4.9061594671417043e+07  4.9061594671418592e+07  4.9061594671417408e+07  4.9061594671417579e+07  4.9061594671418138e+07  4.9061594671417348e+07  4.9061594671418026e+07  4.9061594671417646e+07  4.9061594671417899e+07  4.9061594671419740e+07  4.9061594671418764e+07  4.9061594671108000e+07  4.9061601028034016e+07  4.9294933378870279e+07  4.9294926982925147e+07  4.9294926983232528e+07  4.9294926983233452e+07  4.9294926983231701e+07  4.9294926983234607e+07  4.9294926983233035e+07  4.9294926983234741e+07  4.9294926983234167e+07  4.9294926983233847e+07  4.9294926983234376e+07  4.9294926983235568e+07  4.9294926983234972e+07  4.9294926983234450e+07  4.9294926983234316e+07  4.9294926983236246e+07  4.9294926983233891e+07  4.9294926983234398e+07  4.9294926983232625e+07  4.9294926982927009e+07  4.9294933378872603e+07  4.9529352881963052e+07  4.9529346466806762e+07  4.9529346467141472e+07  4.9529346467136391e+07  4.9529346467135593e+07  4.9529346467134431e+07  4.9529346467134453e+07  4.9529346467135847e+07  4.9529346467136681e+07  4.9529346467137471e+07  4.9529346467137083e+07  4.9529346467135131e+07  4.9529346467134617e+07  4.9529346467134736e+07  4.9529346467135325e+07  4.9529346467134446e+07  4.9529346467135482e+07  4.9529346467137635e+07  4.9529346467144027e+07  4.9529346466809087e+07  4.9529352881961964e+07  4.9764498079174012e+07  4.9764491664972208e+07  4.9764491665095128e+07  4.9764491665070668e+07  4.9764491665075280e+07  4.9764491665076099e+07  4.9764491665075019e+07  4.9764491665074438e+07  4.9764491665074602e+07  4.9764491665074572e+07  4.9