<?xml version="1.0"?>
<VTKFile type="UnstructuredGrid"  version="0.1"  >
<UnstructuredGrid>
<Piece  NumberOfPoints="1091" NumberOfCells="2050">
<Points>
<DataArray  type="Float64"  NumberOfComponents="3"  format="ascii">-0.5 -1 0  -0.4 -1 0  -0.3 -1 0  -0.2 -1 0  -0.09999999999999998 -1 0  0 -1 0  0.09999999999999998 -1 0  0.2 -1 0  0.3 -1 0  0.4 -1 0  0.5 -1 0  -0.5 -0.98 0  -0.4 -0.98 0  -0.3 -0.98 0  -0.2 -0.98 0  -0.09999999999999998 -0.98 0  0 -0.98 0  0.09999999999999998 -0.98 0  0.2 -0.98 0  0.3 -0.98 0  0.4 -0.98 0  0.5 -0.98 0  -0.5 -0.96 0  -0.4 -0.96 0  -0.3 -0.96 0  -0.2 -0.96 0  -0.09999999999999998 -0.96 0  0 -0.96 0  0.09999999999999998 -0.96 0  0.2 -0.96 0  0.3 -0.96 0  0.4 -0.96 0  0.5 -0.96 0  -0.5 -0.9399999999999999 0  -0.4 -0.9399999999999999 0  -0.3 -0.9399999999999999 0  -0.2 -0.9399999999999999 0  -0.09999999999999998 -0.9399999999999999 0  0 -0.9399999999999999 0  0.09999999999999998 -0.9399999999999999 0  0.2 -0.9399999999999999 0  0.3 -0.9399999999999999 0  0.4 -0.9399999999999999 0  0.5 -0.9399999999999999 0  -0.5 -0.92 0  -0.4 -0.92 0  -0.3 -0.92 0  -0.2 -0.92 0  -0.09999999999999998 -0.92 0  0 -0.92 0  0.09999999999999998 -0.92 0  0.2 -0.92 0  0.3 -0.92 0  0.4 -0.92 0  0.5 -0.92 0  -0.5 -0.9 0  -0.4 -0.9 0  -0.3 -0.9 0  -0.2 -0.9 0  -0.09999999999999998 -0.9 0  0 -0.9 0  0.09999999999999998 -0.9 0  0.2 -0.9 0  0.3 -0.9 0  0.4 -0.9 0  0.5 -0.9 0  -0.5 -0.88 0  -0.4 -0.88 0  -0.3 -0.88 0  -0.2 -0.88 0  -0.09999999999999998 -0.88 0  0 -0.88 0  0.09999999999999998 -0.88 0  0.2 -0.88 0  0.3 -0.88 0  0.4 -0.88 0  0.5 -0.88 0  -0.5 -0.86 0  -0.4 -0.86 0  -0.3 -0.86 0  -0.2 -0.86 0  -0.09999999999999998 -0.86 0  0 -0.86 0  0.09999999999999998 -0.86 0  0.2 -0.86 0  0.3 -0.86 0  0.4 -0.86 0  0.5 -0.86 0  -0.5 -0.84 0  -0.4 -0.84 0  -0.3 -0.84 0  -0.2 -0.84 0  -0.09999999999999998 -0.84 0  0 -0.84 0  0.09999999999999998 -0.84 0  0.2 -0.84 0  0.3 -0.84 0  0.4 -0.84 0  0.5 -0.84 0  -0.5 -0.8200000000000001 0  -0.4 -0.8200000000000001 0  -0.3 -0.8200000000000001 0  -0.2 -0.8200000000000001 0  -0.09999999999999998 -0.8200000000000001 0  0 -0.8200000000000001 0  0.09999999999999998 -0.8200000000000001 0  0.2 -0.8200000000000001 0  0.3 -0.8200000000000001 0  0.4 -0.8200000000000001 0  0.5 -0.8200000000000001 0  -0.5 -0.8 0  -0.4 -0.8 0  -0.3 -0.8 0  -0.2 -0.8 0  -0.09999999999999998 -0.8 0  0 -0.8 0  0.09999999999999998 -0.8 0  0.2 -0.8 0  0.3 -0.8 0  0.4 -0.8 0  0.5 -0.8 0  -0.5 -0.78 0  -0.4 -0.78 0  -0.3 -0.78 0  -0.2 -0.78 0  -0.09999999999999998 -0.78 0  0 -0.78 0  0.09999999999999998 -0.78 0  0.2 -0.78 0  0.3 -0.78 0  0.4 -0.78 0  0.5 -0.78 0  -0.5 -0.76 0  -0.4 -0.76 0  -0.3 -0.76 0  -0.2 -0.76 0  -0.09999999999999998 -0.76 0  0 -0.76 0  0.09999999999999998 -0.76 0  0.2 -0.76 0  0.3 -0.76 0  0.4 -0.76 0  0.5 -0.76 0  -0.5 -0.74 0  -0.4 -0.74 0  -0.3 -0.74 0  -0.2 -0.74 0  -0.09999999999999998 -0.74 0  0 -0.74 0  0.09999999999999998 -0.74 0  0.2 -0.74 0  0.3 -0.74 0  0.4 -0.74 0  0.5 -0.74 0  -0.5 -0.72 0  -0.4 -0.72 0  -0.3 -0.72 0  -0.2 -0.72 0  -0.09999999999999998 -0.72 0  0 -0.72 0  0.09999999999999998 -0.72 0  0.2 -0.72 0  0.3 -0.72 0  0.4 -0.72 0  0.5 -0.72 0  -0.5 -0.7 0  -0.4 -0.7 0  -0.3 -0.7 0  -0.2 -0.7 0  -0.09999999999999998 -0.7 0  0 -0.7 0  0.09999999999999998 -0.7 0  0.2 -0.7 0  0.3 -0.7 0  0.4 -0.7 0  0.5 -0.7 0  -0.5 -0.6799999999999999 0  -0.4 -0.6799999999999999 0  -0.3 -0.6799999999999999 0  -0.2 -0.6799999999999999 0  -0.09999999999999998 -0.6799999999999999 0  0 -0.6799999999999999 0  0.09999999999999998 -0.6799999999999999 0  0.2 -0.6799999999999999 0  0.3 -0.6799999999999999 0  0.4 -0.6799999999999999 0  0.5 -0.6799999999999999 0  -0.5 -0.6599999999999999 0  -0.4 -0.6599999999999999 0  -0.3 -0.6599999999999999 0  -0.2 -0.6599999999999999 0  -0.09999999999999998 -0.6599999999999999 0  0 -0.6599999999999999 0  0.09999999999999998 -0.6599999999999999 0  0.2 -0.6599999999999999 0  0.3 -0.6599999999999999 0  0.4 -0.6599999999999999 0  0.5 -0.6599999999999999 0  -0.5 -0.64 0  -0.4 -0.64 0  -0.3 -0.64 0  -0.2 -0.64 0  -0.09999999999999998 -0.64 0  0 -0.64 0  0.09999999999999998 -0.64 0  0.2 -0.64 0  0.3 -0.64 0  0.4 -0.64 0  0.5 -0.64 0  -0.5 -0.62 0  -0.4 -0.62 0  -0.3 -0.62 0  -0.2 -0.62 0  -0.09999999999999998 -0.62 0  0 -0.62 0  0.09999999999999998 -0.62 0  0.2 -0.62 0  0.3 -0.62 0  0.4 -0.62 0  0.5 -0.62 0  -0.5 -0.6 0  -0.4 -0.6 0  -0.3 -0.6 0  -0.2 -0.6 0  -0.09999999999999998 -0.6 0  0 -0.6 0  0.09999999999999998 -0.6 0  0.2 -0.6 0  0.3 -0.6 0  0.4 -0.6 0  0.5 -0.6 0  -0.5 -0.5800000000000001 0  -0.4 -0.5800000000000001 0  -0.3 -0.5800000000000001 0  -0.2 -0.5800000000000001 0  -0.09999999999999998 -0.5800000000000001 0  0 -0.5800000000000001 0  0.09999999999999998 -0.5800000000000001 0  0.2 -0.5800000000000001 0  0.3 -0.5800000000000001 0  0.4 -0.5800000000000001 0  0.5 -0.5800000000000001 0  -0.5 -0.5600000000000001 0  -0.4 -0.5600000000000001 0  -0.3 -0.5600000000000001 0  -0.2 -0.5600000000000001 0  -0.09999999999999998 -0.5600000000000001 0  0 -0.5600000000000001 0  0.09999999999999998 -0.5600000000000001 0  0.2 -0.5600000000000001 0  0.3 -0.5600000000000001 0  0.4 -0.5600000000000001 0  0.5 -0.5600000000000001 0  -0.5 -0.54 0  -0.4 -0.54 0  -0.3 -0.54 0  -0.2 -0.54 0  -0.09999999999999998 -0.54 0  0 -0.54 0  0.09999999999999998 -0.54 0  0.2 -0.54 0  0.3 -0.54 0  0.4 -0.54 0  0.5 -0.54 0  -0.5 -0.52 0  -0.4 -0.52 0  -0.3 -0.52 0  -0.2 -0.52 0  -0.09999999999999998 -0.52 0  0 -0.52 0  0.09999999999999998 -0.52 0  0.2 -0.52 0  0.3 -0.52 0  0.4 -0.52 0  0.5 -0.52 0  -0.5 -0.5 0  -0.4 -0.5 0  -0.3 -0.5 0  -0.2 -0.5 0  -0.09999999999999998 -0.5 0  0 -0.5 0  0.09999999999999998 -0.5 0  0.2 -0.5 0  0.3 -0.5 0  0.4 -0.5 0  0.5 -0.5 0  -0.5 -0.48 0  -0.4 -0.48 0  -0.3 -0.48 0  -0.2 -0.48 0  -0.09999999999999998 -0.48 0  0 -0.48 0  0.09999999999999998 -0.48 0  0.2 -0.48 0  0.3 -0.48 0  0.4 -0.48 0  0.5 -0.48 0  -0.5 -0.46 0  -0.4 -0.46 0  -0.3 -0.46 0  -0.2 -0.46 0  -0.09999999999999998 -0.46 0  0 -0.46 0  0.09999999999999998 -0.46 0  0.2 -0.46 0  0.3 -0.46 0  0.4 -0.46 0  0.5 -0.46 0  -0.5 -0.4399999999999999 0  -0.4 -0.4399999999999999 0  -0.3 -0.4399999999999999 0  -0.2 -0.4399999999999999 0  -0.09999999999999998 -0.4399999999999999 0  0 -0.4399999999999999 0  0.09999999999999998 -0.4399999999999999 0  0.2 -0.4399999999999999 0  0.3 -0.4399999999999999 0  0.4 -0.4399999999999999 0  0.5 -0.4399999999999999 0  -0.5 -0.42 0  -0.4 -0.42 0  -0.3 -0.42 0  -0.2 -0.42 0  -0.09999999999999998 -0.42 0  0 -0.42 0  0.09999999999999998 -0.42 0  0.2 -0.42 0  0.3 -0.42 0  0.4 -0.42 0  0.5 -0.42 0  -0.5 -0.4 0  -0.4 -0.4 0  -0.3 -0.4 0  -0.2 -0.4 0  -0.09999999999999998 -0.4 0  0 -0.4 0  0.09999999999999998 -0.4 0  0.2 -0.4 0  0.3 -0.4 0  0.4 -0.4 0  0.5 -0.4 0  -0.5 -0.38 0  -0.4 -0.38 0  -0.3 -0.38 0  -0.2 -0.38 0  -0.09999999999999998 -0.38 0  0 -0.38 0  0.09999999999999998 -0.38 0  0.2 -0.38 0  0.3 -0.38 0  0.4 -0.38 0  0.5 -0.38 0  -0.5 -0.36 0  -0.4 -0.36 0  -0.3 -0.36 0  -0.2 -0.36 0  -0.09999999999999998 -0.36 0  0 -0.36 0  0.09999999999999998 -0.36 0  0.2 -0.36 0  0.3 -0.36 0  0.4 -0.36 0  0.5 -0.36 0  -0.5 -0.34 0  -0.4 -0.34 0  -0.3 -0.34 0  -0.2 -0.34 0  -0.09999999999999998 -0.34 0  0 -0.34 0  0.09999999999999998 -0.34 0  0.2 -0.34 0  0.3 -0.34 0  0.4 -0.34 0  0.5 -0.34 0  -0.5 -0.32 0  -0.4 -0.32 0  -0.3 -0.32 0  -0.2 -0.32 0  -0.09999999999999998 -0.32 0  0 -0.32 0  0.09999999999999998 -0.32 0  0.2 -0.32 0  0.3 -0.32 0  0.4 -0.32 0  0.5 -0.32 0  -0.5 -0.3 0  -0.4 -0.3 0  -0.3 -0.3 0  -0.2 -0.3 0  -0.09999999999999998 -0.3 0  0 -0.3 0  0.09999999999999998 -0.3 0  0.2 -0.3 0  0.3 -0.3 0  0.4 -0.3 0  0.5 -0.3 0  -0.5 -0.28 0  -0.4 -0.28 0  -0.3 -0.28 0  -0.2 -0.28 0  -0.09999999999999998 -0.28 0  0 -0.28 0  0.09999999999999998 -0.28 0  0.2 -0.28 0  0.3 -0.28 0  0.4 -0.28 0  0.5 -0.28 0  -0.5 -0.26 0  -0.4 -0.26 0  -0.3 -0.26 0  -0.2 -0.26 0  -0.09999999999999998 -0.26 0  0 -0.26 0  0.09999999999999998 -0.26 0  0.2 -0.26 0  0.3 -0.26 0  0.4 -0.26 0  0.5 -0.26 0  -0.5 -0.24 0  -0.4 -0.24 0  -0.3 -0.24 0  -0.2 -0.24 0  -0.09999999999999998 -0.24 0  0 -0.24 0  0.09999999999999998 -0.24 0  0.2 -0.24 0  0.3 -0.24 0  0.4 -0.24 0  0.5 -0.24 0  -0.5 -0.22 0  -0.4 -0.22 0  -0.3 -0.22 0  -0.2 -0.22 0  -0.09999999999999998 -0.22 0  0 -0.22 0  0.09999999999999998 -0.22 0  0.2 -0.22 0  0.3 -0.22 0  0.4 -0.22 0  0.5 -0.22 0  -0.5 -0.2 0  -0.4 -0.2 0  -0.3 -0.2 0  -0.2 -0.2 0  -0.09999999999999998 -0.2 0  0 -0.2 0  0.09999999999999998 -0.2 0  0.2 -0.2 0  0.3 -0.2 0  0.4 -0.2 0  0.5 -0.2 0  -0.5 -0.18 0  -0.4 -0.18 0  -0.3 -0.18 0  -0.2 -0.18 0  -0.09999999999999998 -0.18 0  0 -0.18 0  0.09999999999999998 -0.18 0  0.2 -0.18 0  0.3 -0.18 0  0.4 -0.18 0  0.5 -0.18 0  -0.5 -0.16 0  -0.4 -0.16 0  -0.3 -0.16 0  -0.2 -0.16 0  -0.09999999999999998 -0.16 0  0 -0.16 0  0.09999999999999998 -0.16 0  0.2 -0.16 0  0.3 -0.16 0  0.4 -0.16 0  0.5 -0.16 0  -0.5 -0.14 0  -0.4 -0.14 0  -0.3 -0.14 0  -0.2 -0.14 0  -0.09999999999999998 -0.14 0  0 -0.14 0  0.09999999999999998 -0.14 0  0.2 -0.14 0  0.3 -0.14 0  0.4 -0.14 0  0.5 -0.14 0  -0.5 -0.12 0  -0.4 -0.12 0  -0.3 -0.12 0  -0.2 -0.12 0  -0.09999999999999998 -0.12 0  0 -0.12 0  0.09999999999999998 -0.12 0  0.2 -0.12 0  0.3 -0.12 0  0.4 -0.12 0  0.5 -0.12 0  -0.5 -0.09999999999999998 0  -0.4 -0.09999999999999998 0  -0.3 -0.09999999999999998 0  -0.2 -0.09999999999999998 0  -0.09999999999999998 -0.09999999999999998 0  0 -0.09999999999999998 0  0.09999999999999998 -0.09999999999999998 0  0.2 -0.09999999999999998 0  0.3 -0.09999999999999998 0  0.4 -0.09999999999999998 0  0.5 -0.09999999999999998 0  -0.5 -0.07999999999999996 0  -0.4 -0.07999999999999996 0  -0.3 -0.07999999999999996 0  -0.2 -0.07999999999999996 0  -0.09999999999999998 -0.07999999999999996 0  0 -0.07999999999999996 0  0.09999999999999998 -0.07999999999999996 0  0.2 -0.07999999999999996 0  0.3 -0.07999999999999996 0  0.4 -0.07999999999999996 0  0.5 -0.07999999999999996 0  -0.5 -0.06000000000000005 0  -0.4 -0.06000000000000005 0  -0.3 -0.06000000000000005 0  -0.2 -0.06000000000000005 0  -0.09999999
[...]
<PointData  Scalars=" mean stress"> 
<DataArray  type="Float64"  Name=" mean stress"  format="ascii">2.6651216685978165e+06  2.6651216685978342e+06  2.6651216685978514e+06  2.6651216685978854e+06  2.6651216685978523e+06  2.6651216685978100e+06  2.6651216685978132e+06  2.6651216685977872e+06  2.6651216685977839e+06  2.6651216685977043e+06  2.6651216685977876e+06  2.6651216685977918e+06  2.6651216685978523e+06  2.6651216685979096e+06  2.6651216685979497e+06  2.6651216685978738e+06  2.6651216685978277e+06  2.6651216685978090e+06  2.6651216685977676e+06  2.6651216685977783e+06  2.6651216685976554e+06  2.6651216685977289e+06  2.6651216685977816e+06  2.6651216685978598e+06  2.6651216685979585e+06  2.6651216685980037e+06  2.6651216685979068e+06  2.6651216685978547e+06  2.6651216685978165e+06  2.6651216685977564e+06  2.6651216685977625e+06  2.6651216685976186e+06  2.6651216685976735e+06  2.6651216685977736e+06  2.6651216685978691e+06  2.6651216685979869e+06  2.6651216685980605e+06  2.6651216685979394e+06  2.6651216685979199e+06  2.6651216685978388e+06  2.6651216685977667e+06  2.6651216685977159e+06  2.6651216685975878e+06  2.6651216685976656e+06  2.6651216685977774e+06  2.6651216685978710e+06  2.6651216685980046e+06  2.6651216685980782e+06  2.6651216685979809e+06  2.6651216685979529e+06  2.6651216685978882e+06  2.6651216685977885e+06  2.6651216685976661e+06  2.6651216685975706e+06  2.6651216685976218e+06  2.6651216685978058e+06  2.6651216685978728e+06  2.6651216685979976e+06  2.6651216685980754e+06  2.6651216685980163e+06  2.6651216685979515e+06  2.6651216685978840e+06  2.6651216685978114e+06  2.6651216685976335e+06  2.6651216685975343e+06  2.6651216685975520e+06  2.6651216685978100e+06  2.6651216685978617e+06  2.6651216685980088e+06  2.6651216685981364e+06  2.6651216685979874e+06  2.6651216685979175e+06  2.6651216685978333e+06  2.6651216685977830e+06  2.6651216685976055e+06  2.6651216685974416e+06  2.6651216685974998e+06  2.6651216685977485e+06  2.6651216685978440e+06  2.6651216685980516e+06  2.6651216685981723e+06  2.6651216685979976e+06  2.6651216685979459e+06  2.6651216685978225e+06  2.6651216685977392e+06  2.6651216685975855e+06  2.6651216685973974e+06  2.6651216685974984e+06  2.6651216685977252e+06  2.6651216685978421e+06  2.6651216685981136e+06  2.6651216685981988e+06  2.6651216685980535e+06  2.6651216685979357e+06  2.6651216685979520e+06  2.6651216685977457e+06  2.6651216685975739e+06  2.6651216685974076e+06  2.6651216685974724e+06  2.6651216685977760e+06  2.6651216685978505e+06  2.6651216685981145e+06  2.6651216685982137e+06  2.6651216685981094e+06  2.6651216685979916e+06  2.6651216685980461e+06  2.6651216685978249e+06  2.6651216685975660e+06  2.6651216685974910e+06  2.6651216685975157e+06  2.6651216685978039e+06  2.6651216685979650e+06  2.6651216685983343e+06  2.6651216685982598e+06  2.6651216685981350e+06  2.6651216685979492e+06  2.6651216685979799e+06  2.6651216685978305e+06  2.6651216685975557e+06  2.6651216685974393e+06  2.6651216685974733e+06  2.6651216685978090e+06  2.6651216685979636e+06  2.6651216685984330e+06  2.6651216685982342e+06  2.6651216685981136e+06  2.6651216685979720e+06  2.6651216685980060e+06  2.6651216685978500e+06  2.6651216685976130e+06  2.6651216685974076e+06  2.6651216685974370e+06  2.6651216685977699e+06  2.6651216685980437e+06  2.6651216685984298e+06  2.6651216685982780e+06  2.6651216685980996e+06  2.6651216685980032e+06  2.6651216685979492e+06  2.6651216685977662e+06  2.6651216685976405e+06  2.6651216685973587e+06  2.6651216685974388e+06  2.6651216685977476e+06  2.6651216685980572e+06  2.6651216685982784e+06  2.6651216685981862e+06  2.6651216685980856e+06  2.6651216685980908e+06  2.6651216685978156e+06  2.6651216685977052e+06  2.6651216685976335e+06  2.6651216685973611e+06  2.6651216685974211e+06  2.6651216685977420e+06  2.6651216685980023e+06  2.6651216685982617e+06  2.6651216685981411e+06  2.6651216685980894e+06  2.6651216685980679e+06  2.6651216685977643e+06  2.6651216685977657e+06  2.6651216685976353e+06  2.6651216685973806e+06  2.6651216685974500e+06  2.6651216685977876e+06  2.6651216685980684e+06  2.6651216685982039e+06  2.6651216685980996e+06  2.6651216685981755e+06  2.6651216685981373e+06  2.6651216685977257e+06  2.6651216685976675e+06  2.6651216685975837e+06  2.6651216685974770e+06  2.6651216685976041e+06  2.6651216685978393e+06  2.6651216685981830e+06  2.6651216685982132e+06  2.6651216685982323e+06  2.6651216685982454e+06  2.6651216685980591e+06  2.6651216685976032e+06  2.6651216685975846e+06  2.6651216685974933e+06  2.6651216685974034e+06  2.6651216685976279e+06  2.6651216685977131e+06  2.6651216685981466e+06  2.6651216685984014e+06  2.6651216685983539e+06  2.6651216685982351e+06  2.6651216685979962e+06  2.6651216685975608e+06  2.6651216685973895e+06  2.6651216685974752e+06  2.6651216685974086e+06  2.6651216685978193e+06  2.6651216685978086e+06  2.6651216685980735e+06  2.6651216685985122e+06  2.6651216685983012e+06  2.6651216685981383e+06  2.6651216685978947e+06  2.6651216685975669e+06  2.6651216685973071e+06  2.6651216685973783e+06  2.6651216685973760e+06  2.6651216685976838e+06  2.6651216685978980e+06  2.6651216685979892e+06  2.6651216685985029e+06  2.6651216685983301e+06  2.6651216685981378e+06  2.6651216685978067e+06  2.6651216685976088e+06  2.6651216685973844e+06  2.6651216685972828e+06  2.6651216685973564e+06  2.6651216685977038e+06  2.6651216685978761e+06  2.6651216685979157e+06  2.6651216685985285e+06  2.6651216685984964e+06  2.6651216685981434e+06  2.6651216685979017e+06  2.6651216685977806e+06  2.6651216685974752e+06  2.6651216685974007e+06  2.6651216685974821e+06  2.6651216685975548e+06  2.6651216685978966e+06  2.6651216685979492e+06  2.6651216685984856e+06  2.6651216685983534e+06  2.6651216685978812e+06  2.6651216685978658e+06  2.6651216685977248e+06  2.6651216685978197e+06  2.6651216685975040e+06  2.6651216685975399e+06  2.6651216685977769e+06  2.6651216685979306e+06  2.6651216685980046e+06  2.6651216685984745e+06  2.6651216685983278e+06  2.6651216685980284e+06  2.6651216685979590e+06  2.6651216685977313e+06  2.6651216685979837e+06  2.6651216685976340e+06  2.6651216685974123e+06  2.6651216685977420e+06  2.6651216685979795e+06  2.6651216685980591e+06  2.6651216685986849e+06  2.6651216685986081e+06  2.6651216685978663e+06  2.6651216685980423e+06  2.6651216685979301e+06  2.6651216685979753e+06  2.6651216685976144e+06  2.6651216685973317e+06  2.6651216685976502e+06  2.6651216685978863e+06  2.6651216685980922e+06  2.6651216685985639e+06  2.6651216685984181e+06  2.6651216685979231e+06  2.6651216685981317e+06  2.6651216685979846e+06  2.6651216685980563e+06  2.6651216685975580e+06  2.6651216685972884e+06  2.6651216685978291e+06  2.6651216685976782e+06  2.6651216685980116e+06  2.6651216685986542e+06  2.6651216685984205e+06  2.6651216685982780e+06  2.6651216685982025e+06  2.6651216685982225e+06  2.6651216685979259e+06  2.6651216685975865e+06  2.6651216685974435e+06  2.6651216685979012e+06  2.6651216685976470e+06  2.6651216685979217e+06  2.6651216685986826e+06  2.6651216685983287e+06  2.6651216685983958e+06  2.6651216685982491e+06  2.6651216685982966e+06  2.6651216685979245e+06  2.6651216685977099e+06  2.6651216685976535e+06  2.6651216685978817e+06  2.6651216685975571e+06  2.6651216685978808e+06  2.6651216685987134e+06  2.6651216685984624e+06  2.6651216685987064e+06  2.6651216685983427e+06  2.6651216685981513e+06  2.6651216685977983e+06  2.6651216685979450e+06  2.6651216685978579e+06  2.6651216685978770e+06  2.6651216685976000e+06  2.6651216685980991e+06  2.6651216685988866e+06  2.6651216685986500e+06  2.6651216685989988e+06  2.6651216685984074e+06  2.6651216685978710e+06  2.6651216685977224e+06  2.6651216685979334e+06  2.6651216685979525e+06  2.6651216685977657e+06  2.6651216685977159e+06  2.6651216685980260e+06  2.6651216685987953e+06  2.6651216685985415e+06  2.6651216685986542e+06  2.6651216685983902e+06  2.6651216685979622e+06  2.6651216685981918e+06  2.6651216685979418e+06  2.6651216685979464e+06  2.6651216685976903e+06  2.6651216685973597e+06  2.6651216685976516e+06  2.6651216685981946e+06  2.6651216685979972e+06  2.6651216685980731e+06  2.6651216685978640e+06  2.6651216685975832e+06  2.6651216685978188e+06  2.6651216685973192e+06  2.6651216685974128e+06  2.6651216685976982e+06  2.6651216685982919e+06  2.6651216685988093e+06  2.6651216685988330e+06  2.6651216685989266e+06  2.6651216685990258e+06  2.6651216685987846e+06  2.6651216685987203e+06  2.6651216685987865e+06  2.6651216685983934e+06  2.6651216685982253e+06  2.6651216685985923e+06  2.6651216686115218e+06  2.6651216686123898e+06  2.6651216686120322e+06  2.6651216686125132e+06  2.6651216686123428e+06  2.6651216686122282e+06  2.6651216686120392e+06  2.6651216686119353e+06  2.6651216686119628e+06  2.6651216686117044e+06  2.6651216686120429e+06  2.6651216684942176e+06  2.6651216684946441e+06  2.6651216684947559e+06  2.6651216684951312e+06  2.6651216684946222e+06  2.6651216684949696e+06  2.6651216684944956e+06  2.6651216684940276e+06  2.6651216684947205e+06  2.6651216684941347e+06  2.6651216684944374e+06  2.6651216680970113e+06  2.6651216680974532e+06  2.6651216680975985e+06  2.6651216680978970e+06  2.6651216680971347e+06  2.6651216680975854e+06  2.6651216680970122e+06  2.6651216680965577e+06  2.6651216680972092e+06  2.6651216680967826e+06  2.6651216680969479e+06  2.6651216759013897e+06  2.6651216759017017e+06  2.6651216759017515e+06  2.6651216759020872e+06  2.6651216759014092e+06  2.6651216759015666e+06  2.6651216759016151e+06  2.6651216759010986e+06  2.6651216759015126e+06  2.6651216759010619e+06  2.6651216759014102e+06  2.6651216958860727e+06  2.6651216958863414e+06  2.6651216958865575e+06  2.6651216958863577e+06  2.6651216958863144e+06  2.6651216958859456e+06  2.6651216958864373e+06  2.6651216958860033e+06  2.6651216958861877e+06  2.6651216958858413e+06  2.6651216958863842e+06  2.6651212268038252e+06  2.6651212268039840e+06  2.6651212268045796e+06  2.6651212268044027e+06  2.6651212268043105e+06  2.6651212268036911e+06  2.6651212268040404e+06  2.6651212268041992e+06  2.6651212268040339e+06  2.6651212268035933e+06  2.6651212268042439e+06  2.6651184811831200e+06  2.6651184811834372e+06  2.6651184811841035e+06  2.6651184811840956e+06  2.6651184811838702e+06  2.6651184811835545e+06  2.6651184811827671e+06  2.6651184811837473e+06  2.6651184811836001e+06  2.6651184811834185e+06  2.6651184811839066e+06  2.6651354824739192e+06  2.6651354824705655e+06  2.6651354824714260e+06  2.6651354824699634e+06  2.6651354824703354e+06  2.6651354824695038e+06  2.6651354824691103e+06  2.6651354824694507e+06  2.6651354824706661e+06  2.6651354824704467e+06  2.6651354824743359e+06  2.6654678010849380e+06  2.6654678007334983e+06  2.6654678006584132e+06  2.6654678006313262e+06  2.6654678006158317e+06  2.6654678006172855e+06  2.6654678006151426e+06  2.6654678006309969e+06  2.6654678006574833e+06  2.6654678007334555e+06  2.6654678010852174e+06  2.6679953414463592e+06  2.6679953269509431e+06  2.6679953247894649e+06  2.6679953241473613e+06  2.6679953240513038e+06  2.6679953240200272e+06  2.6679953240512321e+06  2.6679953241473539e+06  2.6679953247883325e+06  2.6679953269511787e+06  2.6679953414468514e+06  2.6808211314309184e+06  2.6808208392621782e+06  2.6808208063226631e+06  2.6808208009047518e+06  2.6808208002758985e+06  2.6808208003962301e+06  2.6808208002762045e+06  2.6808208009049008e+06  2.6808208063218389e+06  2.6808208392621120e+06  2.6808211314313989e+06  2.7300487185067250e+06  2.7300452199110826e+06  2.7300449492850611e+06  2.7300449240301321e+06  2.7300449251329112e+06  2.7300449248786983e+06  2.7300449251330839e+06  2.7300449240302579e+06  2.7300449492850876e+06  2.7300452199111427e+06  2.7300487185065164e+06  2.8810514853443918e+06  2.8810250576948877e+06  2.8810237983259284e+06  2.8810237815567045e+06  2.8810237818352790e+06  2.8810237830690262e+06  2.8810237818356641e+06  2.8810237815566785e+06  2.8810237983261240e+06  2.8810250576952621e+06  2.8810514853443522e+06  3.2626826285418649e+06  3.2625548115919675e+06  3.2625521018135981e+06  3.2625521373711620e+06  3.2625521498803310e+06  3.2625521437956970e+06  3.2625521498802383e+06  3.2625521373708341e+06  3.2625521018137685e+06  3.2625548115923582e+06  3.2626826285422225e+06  4.0725007490612953e+06  4.0721067460753294e+06  4.0721041879977030e+06  4.0721044584728139e+06  4.0721043915272322e+06  4.0721044124661260e+06  4.0721043915273603e+06  4.0721044584729564e+06  4.0721041879974520e+06  4.0721067460757550e+06  4.0725007490619118e+06  5.5334331994928904e+06  5.5326231165191242e+06  5.5326263942272747e+06  5.5326255993262902e+06  5.5326258240871551e+06  5.5326257724264115e+06  5.5326258240877260e+06  5.5326255993261971e+06  5.5326263942266926e+06  5.5326231165195834e+06  5.5334331994937146e+06  7.7931532038119826e+06  7.7919829538732842e+06  7.7919775147125404e+06  7.7919805912241209e+06  7.7919800861239806e+06  7.7919801724062422e+06  7.7919800861244909e+06  7.7919805912243845e+06  7.7919775147122620e+06  7.7919829538744641e+06  7.7931532038121121e+06  1.0871947603193490e+07  1.0870777831184924e+07  1.0870834571194364e+07  1.0870829330289269e+07  1.0870829928602336e+07  1.0870829843539402e+07  1.0870829928601593e+07  1.0870829330288989e+07  1.0870834571194556e+07  1.0870777831186028e+07  1.0871947603193471e+07  1.3593262749862725e+07  1.3584737961002080e+07  1.3584724621846553e+07  1.3584722956828713e+07  1.3584723048685022e+07  1.3584723039082339e+07  1.3584723048683506e+07  1.3584722956828021e+07  1.3584724621847386e+07  1.3584737961001791e+07  1.3593262749862827e+07  2.6651216685978235e+06  2.6651216685978691e+06  2.6651216685979138e+06  2.6651216685978849e+06  2.6651216685978477e+06  2.6651216685978202e+06  2.6651216685977834e+06  2.6651216685977881e+06  2.6651216685977350e+06  2.6651216685977224e+06  2.6651216685978002e+06  2.6651216685979036e+06  2.6651216685979879e+06  2.6651216685979264e+06  2.6651216685978724e+06  2.6651216685978421e+06  2.6651216685977601e+06  2.6651216685977885e+06  2.6651216685977001e+06  2.6651216685976563e+06  2.6651216685977834e+06  2.6651216685979334e+06  2.6651216685980461e+06  2.6651216685979613e+06  2.6651216685979120e+06  2.6651216685978640e+06  2.6651216685977443e+06  2.6651216685977932e+06  2.6651216685976824e+06  2.6651216685976190e+06  2.6651216685977792e+06  2.6651216685979394e+06  2.6651216685980516e+06  2.6651216685979799e+06  2.6651216685979310e+06  2.6651216685979073e+06  2.6651216685977611e+06  2.6651216685977839e+06  2.6651216685976316e+06  2.6651216685975986e+06  2.6651216685978035e+06  2.6651216685979706e+06  2.6651216685980973e+06  2.6651216685980437e+06  2.6651216685979939e+06  2.6651216685979492e+06  2.6651216685977648e+06  2.6651216685977485e+06  2.6651216685975725e+06  2.6651216685975296e+06  2.6651216685978151e+06  2.6651216685979650e+06  2.6651216685980977e+06  2.6651216685980605e+06  2.6651216685979990e+06  2.6651216685979338e+06  2.6651216685977709e+06  2.6651216685977844e+06  2.6651216685975646e+06  2.6651216685974821e+06  2.6651216685977653e+06  2.6651216685979483e+06  2.6651216685981504e+06  2.6651216685980787e+06  2.6651216685979879e+06  2.6651216685978835e+06  2.6651216685977047e+06  2.6651216685977611e+06  2.6651216685975124e+06  2.6651216685974961e+06  2.6651216685977378e+06  2.6651216685979944e+06  2.6651216685982286e+06  2.6651216685981150e+06  2.6651216685979697e+06  2.6651216685979082e+06  2.6651216685977201e+06  2.6651216685977443e+06  2.6651216685974593e+06  2.6651216685974048e+06  2.6651216685977122e+06  2.6651216685979594e+06  2.6651216685981918e+06  2.6651216685981457e+06  2.6651216685980437e+06  2.6651216685980204e+06  2.6651216685978477e+06  2.6651216685977974e+06  2.6651216685974663e+06  2.6651216685974910e+06  2.6651216685978090e+06  2.6651216685980656e+06  2.6651216685982980e+06  2.6651216685981886e+06  2.6651216685980381e+06  2.6651216685980340e+06  2.6651216685978612e+06  2.6651216685977527e+06  2.6651216685974137e+06  2.6651216685974658e+06  2.6651216685978398e+06  2.6651216685982132e+06  2.6651216685984298e+06  2.6651216685982291e+06  2.6651216685980689e+06  2.6651216685979962e+06  2.6651216685978225e+06  2.6651216685977564e+06  2.6651216685973480e+06  2.6651216685974654e+06  2.6651216685977946e+06  2.6651216685981951e+06  2.6651216685984344e+06  2.6651216685982109e+06  2.6651216685980135e+06  2.6651216685979581e+06  2.6651216685978537e+06  2.6651216685978286e+06  2.6651216685974067e+06  2.6651216685974342e+06  2.6651216685978184e+06  2.6651216685982323e+06  2.6651216685984069e+06  2.6651216685981471e+06  2.6651216685980554e+06  2.6651216685980638e+06  2.6651216685978076e+06  2.6651216685977504e+06  2.6651216685973578e+06  2.6651216685974668e+06  2.6651216685977899e+06  2.6651216685982272e+06  2.6651216685984344e+06  2.6651216685982025e+06  2.6651216685980866e+06  2.6651216685979348e+06  2.6651216685977923e+06  2.6651216685978025e+06  2.6651216685973564e+06  2.6651216685974114e+06  2.6651216685977392e+06  2.6651216685981499e+06  2.6651216685983450e+06  2.6651216685980642e+06  2.6651216685980093e+06  2.6651216685978943e+06  2.6651216685977294e+06  2.6651216685977625e+06  2.6651216685973238e+06  2.6651216685975040e+06  2.6651216685977676e+06  2.6651216685981988e+06  2.6651216685983916e+06  2.6651216685981350e+06  2.6651216685981303e+06  2.6651216685979948e+06  2.6651216685977341e+06  2.6651216685976880e+06  2.6651216685973834e+06  2.6651216685976498e+06  2.6651216685978072e+06  2.6651216685983008e+06  2.6651216685985178e+06  2.6651216685981890e+06  2.6651216685980922e+06  2.6651216685977671e+06  2.6651216685975250e+06  2.6651216685977289e+06  2.6651216685973792e+06  2.6651216685976814e+06  2.6651216685978025e+06  2.6651216685984978e+06  2.6651216685986831e+06  2.6651216685981881e+06  2.6651216685980628e+06  2.6651216685977508e+06  2.6651216685973532e+06  2.6651216685974221e+06  2.6651216685971222e+06  2.6651216685975534e+06  2.6651216685976638e+06  2.6651216685983869e+06  2.6651216685985746e+06  2.6651216685980503e+06  2.6651216685980489e+06  2.6651216685977709e+06  2.6651216685973597e+06  2.6651216685974812e+06  2.6651216685971553e+06  2.6651216685976721e+06  2.6651216685976973e+06  2.6651216685984833e+06  2.6651216685986263e+06  2.6651216685980870e+06  2.6651216685980423e+06  2.6651216685977005e+06  2.6651216685973601e+06  2.6651216685975525e+06  2.6651216685970831e+06  2.6651216685975534e+06  2.6651216685976628e+06  2.6651216685984503e+06  2.6651216685986714e+06  2.6651216685981262e+06  2.6651216685981043e+06  2.6651216685978677e+06  2.6651216685975036e+06  2.6651216685977434e+06  2.6651216685973504e+06  2.6651216685977490e+06  2.6651216685977066e+06  2.6651216685984880e+06  2.6651216685985983e+06  2.6651216685980000e+06  2.6651216685982072e+06  2.6651216685978468e+06  2.6651216685976712e+06  2.6651216685980670e+06  2.6651216685970533e+06  2.6651216685975720e+06  2.6651216685976656e+06  2.6651216685985792e+06  2.6651216685987213e+06  2.6651216685979222e+06  2.6651216685981741e+06  2.6651216685980414e+06  2.6651216685977429e+06  2.6651216685980377e+06  2.6651216685971776e+06  2.6651216685976419e+06  2.6651216685976894e+06  2.6651216685985848e+06  2.6651216685988540e+06  2.6651216685979739e+06  2.6651216685982584e+06  2.6651216685980014e+06  2.6651216685976847e+06  2.6651216685981965e+06  2.6651216685971939e+06  2.6651216685977885e+06  2.6651216685977145e+06  2.6651216685985532e+06  2.6651216685986384e+06  2.6651216685978263e+06  2.6651216685982393e+06  2.6651216685979520e+06  2.6651216685977327e+06  2.6651216685981490e+06  2.6651216685970449e+06  2.6651216685978104e+06  2.6651216685974691e+06  2.6651216685984829e+06  2.6651216685987692e+06  2.6651216685980908e+06  2.6651216685987334e+06  2.6651216685983790e+06  2.6651216685978156e+06  2.6651216685980153e+06  2.6651216685970128e+06  2.6651216685978854e+06  2.6651216685973560e+06  2.6651216685984912e+06  2.6651216685990202e+06  2.6651216685982901e+06  2.6651216685987497e+06  2.6651216685981848e+06  2.6651216685977951e+06  2.6651216685983497e+06  2.6