<?xml version="1.0"?>
<VTKFile type="UnstructuredGrid"  version="0.1"  >
<UnstructuredGrid>
<Piece  NumberOfPoints="1091" NumberOfCells="2050">
<Points>
<DataArray  type="Float64"  NumberOfComponents="3"  format="ascii">-0.5 -1 0  -0.4 -1 0  -0.3 -1 0  -0.2 -1 0  -0.09999999999999998 -1 0  0 -1 0  0.09999999999999998 -1 0  0.2 -1 0  0.3 -1 0  0.4 -1 0  0.5 -1 0  -0.5 -0.98 0  -0.4 -0.98 0  -0.3 -0.98 0  -0.2 -0.98 0  -0.09999999999999998 -0.98 0  0 -0.98 0  0.09999999999999998 -0.98 0  0.2 -0.98 0  0.3 -0.98 0  0.4 -0.98 0  0.5 -0.98 0  -0.5 -0.96 0  -0.4 -0.96 0  -0.3 -0.96 0  -0.2 -0.96 0  -0.09999999999999998 -0.96 0  0 -0.96 0  0.09999999999999998 -0.96 0  0.2 -0.96 0  0.3 -0.96 0  0.4 -0.96 0  0.5 -0.96 0  -0.5 -0.9399999999999999 0  -0.4 -0.9399999999999999 0  -0.3 -0.9399999999999999 0  -0.2 -0.9399999999999999 0  -0.09999999999999998 -0.9399999999999999 0  0 -0.9399999999999999 0  0.09999999999999998 -0.9399999999999999 0  0.2 -0.9399999999999999 0  0.3 -0.9399999999999999 0  0.4 -0.9399999999999999 0  0.5 -0.9399999999999999 0  -0.5 -0.92 0  -0.4 -0.92 0  -0.3 -0.92 0  -0.2 -0.92 0  -0.09999999999999998 -0.92 0  0 -0.92 0  0.09999999999999998 -0.92 0  0.2 -0.92 0  0.3 -0.92 0  0.4 -0.92 0  0.5 -0.92 0  -0.5 -0.9 0  -0.4 -0.9 0  -0.3 -0.9 0  -0.2 -0.9 0  -0.09999999999999998 -0.9 0  0 -0.9 0  0.09999999999999998 -0.9 0  0.2 -0.9 0  0.3 -0.9 0  0.4 -0.9 0  0.5 -0.9 0  -0.5 -0.88 0  -0.4 -0.88 0  -0.3 -0.88 0  -0.2 -0.88 0  -0.09999999999999998 -0.88 0  0 -0.88 0  0.09999999999999998 -0.88 0  0.2 -0.88 0  0.3 -0.88 0  0.4 -0.88 0  0.5 -0.88 0  -0.5 -0.86 0  -0.4 -0.86 0  -0.3 -0.86 0  -0.2 -0.86 0  -0.09999999999999998 -0.86 0  0 -0.86 0  0.09999999999999998 -0.86 0  0.2 -0.86 0  0.3 -0.86 0  0.4 -0.86 0  0.5 -0.86 0  -0.5 -0.84 0  -0.4 -0.84 0  -0.3 -0.84 0  -0.2 -0.84 0  -0.09999999999999998 -0.84 0  0 -0.84 0  0.09999999999999998 -0.84 0  0.2 -0.84 0  0.3 -0.84 0  0.4 -0.84 0  0.5 -0.84 0  -0.5 -0.8200000000000001 0  -0.4 -0.8200000000000001 0  -0.3 -0.8200000000000001 0  -0.2 -0.8200000000000001 0  -0.09999999999999998 -0.8200000000000001 0  0 -0.8200000000000001 0  0.09999999999999998 -0.8200000000000001 0  0.2 -0.8200000000000001 0  0.3 -0.8200000000000001 0  0.4 -0.8200000000000001 0  0.5 -0.8200000000000001 0  -0.5 -0.8 0  -0.4 -0.8 0  -0.3 -0.8 0  -0.2 -0.8 0  -0.09999999999999998 -0.8 0  0 -0.8 0  0.09999999999999998 -0.8 0  0.2 -0.8 0  0.3 -0.8 0  0.4 -0.8 0  0.5 -0.8 0  -0.5 -0.78 0  -0.4 -0.78 0  -0.3 -0.78 0  -0.2 -0.78 0  -0.09999999999999998 -0.78 0  0 -0.78 0  0.09999999999999998 -0.78 0  0.2 -0.78 0  0.3 -0.78 0  0.4 -0.78 0  0.5 -0.78 0  -0.5 -0.76 0  -0.4 -0.76 0  -0.3 -0.76 0  -0.2 -0.76 0  -0.09999999999999998 -0.76 0  0 -0.76 0  0.09999999999999998 -0.76 0  0.2 -0.76 0  0.3 -0.76 0  0.4 -0.76 0  0.5 -0.76 0  -0.5 -0.74 0  -0.4 -0.74 0  -0.3 -0.74 0  -0.2 -0.74 0  -0.09999999999999998 -0.74 0  0 -0.74 0  0.09999999999999998 -0.74 0  0.2 -0.74 0  0.3 -0.74 0  0.4 -0.74 0  0.5 -0.74 0  -0.5 -0.72 0  -0.4 -0.72 0  -0.3 -0.72 0  -0.2 -0.72 0  -0.09999999999999998 -0.72 0  0 -0.72 0  0.09999999999999998 -0.72 0  0.2 -0.72 0  0.3 -0.72 0  0.4 -0.72 0  0.5 -0.72 0  -0.5 -0.7 0  -0.4 -0.7 0  -0.3 -0.7 0  -0.2 -0.7 0  -0.09999999999999998 -0.7 0  0 -0.7 0  0.09999999999999998 -0.7 0  0.2 -0.7 0  0.3 -0.7 0  0.4 -0.7 0  0.5 -0.7 0  -0.5 -0.6799999999999999 0  -0.4 -0.6799999999999999 0  -0.3 -0.6799999999999999 0  -0.2 -0.6799999999999999 0  -0.09999999999999998 -0.6799999999999999 0  0 -0.6799999999999999 0  0.09999999999999998 -0.6799999999999999 0  0.2 -0.6799999999999999 0  0.3 -0.6799999999999999 0  0.4 -0.6799999999999999 0  0.5 -0.6799999999999999 0  -0.5 -0.6599999999999999 0  -0.4 -0.6599999999999999 0  -0.3 -0.6599999999999999 0  -0.2 -0.6599999999999999 0  -0.09999999999999998 -0.6599999999999999 0  0 -0.6599999999999999 0  0.09999999999999998 -0.6599999999999999 0  0.2 -0.6599999999999999 0  0.3 -0.6599999999999999 0  0.4 -0.6599999999999999 0  0.5 -0.6599999999999999 0  -0.5 -0.64 0  -0.4 -0.64 0  -0.3 -0.64 0  -0.2 -0.64 0  -0.09999999999999998 -0.64 0  0 -0.64 0  0.09999999999999998 -0.64 0  0.2 -0.64 0  0.3 -0.64 0  0.4 -0.64 0  0.5 -0.64 0  -0.5 -0.62 0  -0.4 -0.62 0  -0.3 -0.62 0  -0.2 -0.62 0  -0.09999999999999998 -0.62 0  0 -0.62 0  0.09999999999999998 -0.62 0  0.2 -0.62 0  0.3 -0.62 0  0.4 -0.62 0  0.5 -0.62 0  -0.5 -0.6 0  -0.4 -0.6 0  -0.3 -0.6 0  -0.2 -0.6 0  -0.09999999999999998 -0.6 0  0 -0.6 0  0.09999999999999998 -0.6 0  0.2 -0.6 0  0.3 -0.6 0  0.4 -0.6 0  0.5 -0.6 0  -0.5 -0.5800000000000001 0  -0.4 -0.5800000000000001 0  -0.3 -0.5800000000000001 0  -0.2 -0.5800000000000001 0  -0.09999999999999998 -0.5800000000000001 0  0 -0.5800000000000001 0  0.09999999999999998 -0.5800000000000001 0  0.2 -0.5800000000000001 0  0.3 -0.5800000000000001 0  0.4 -0.5800000000000001 0  0.5 -0.5800000000000001 0  -0.5 -0.5600000000000001 0  -0.4 -0.5600000000000001 0  -0.3 -0.5600000000000001 0  -0.2 -0.5600000000000001 0  -0.09999999999999998 -0.5600000000000001 0  0 -0.5600000000000001 0  0.09999999999999998 -0.5600000000000001 0  0.2 -0.5600000000000001 0  0.3 -0.5600000000000001 0  0.4 -0.5600000000000001 0  0.5 -0.5600000000000001 0  -0.5 -0.54 0  -0.4 -0.54 0  -0.3 -0.54 0  -0.2 -0.54 0  -0.09999999999999998 -0.54 0  0 -0.54 0  0.09999999999999998 -0.54 0  0.2 -0.54 0  0.3 -0.54 0  0.4 -0.54 0  0.5 -0.54 0  -0.5 -0.52 0  -0.4 -0.52 0  -0.3 -0.52 0  -0.2 -0.52 0  -0.09999999999999998 -0.52 0  0 -0.52 0  0.09999999999999998 -0.52 0  0.2 -0.52 0  0.3 -0.52 0  0.4 -0.52 0  0.5 -0.52 0  -0.5 -0.5 0  -0.4 -0.5 0  -0.3 -0.5 0  -0.2 -0.5 0  -0.09999999999999998 -0.5 0  0 -0.5 0  0.09999999999999998 -0.5 0  0.2 -0.5 0  0.3 -0.5 0  0.4 -0.5 0  0.5 -0.5 0  -0.5 -0.48 0  -0.4 -0.48 0  -0.3 -0.48 0  -0.2 -0.48 0  -0.09999999999999998 -0.48 0  0 -0.48 0  0.09999999999999998 -0.48 0  0.2 -0.48 0  0.3 -0.48 0  0.4 -0.48 0  0.5 -0.48 0  -0.5 -0.46 0  -0.4 -0.46 0  -0.3 -0.46 0  -0.2 -0.46 0  -0.09999999999999998 -0.46 0  0 -0.46 0  0.09999999999999998 -0.46 0  0.2 -0.46 0  0.3 -0.46 0  0.4 -0.46 0  0.5 -0.46 0  -0.5 -0.4399999999999999 0  -0.4 -0.4399999999999999 0  -0.3 -0.4399999999999999 0  -0.2 -0.4399999999999999 0  -0.09999999999999998 -0.4399999999999999 0  0 -0.4399999999999999 0  0.09999999999999998 -0.4399999999999999 0  0.2 -0.4399999999999999 0  0.3 -0.4399999999999999 0  0.4 -0.4399999999999999 0  0.5 -0.4399999999999999 0  -0.5 -0.42 0  -0.4 -0.42 0  -0.3 -0.42 0  -0.2 -0.42 0  -0.09999999999999998 -0.42 0  0 -0.42 0  0.09999999999999998 -0.42 0  0.2 -0.42 0  0.3 -0.42 0  0.4 -0.42 0  0.5 -0.42 0  -0.5 -0.4 0  -0.4 -0.4 0  -0.3 -0.4 0  -0.2 -0.4 0  -0.09999999999999998 -0.4 0  0 -0.4 0  0.09999999999999998 -0.4 0  0.2 -0.4 0  0.3 -0.4 0  0.4 -0.4 0  0.5 -0.4 0  -0.5 -0.38 0  -0.4 -0.38 0  -0.3 -0.38 0  -0.2 -0.38 0  -0.09999999999999998 -0.38 0  0 -0.38 0  0.09999999999999998 -0.38 0  0.2 -0.38 0  0.3 -0.38 0  0.4 -0.38 0  0.5 -0.38 0  -0.5 -0.36 0  -0.4 -0.36 0  -0.3 -0.36 0  -0.2 -0.36 0  -0.09999999999999998 -0.36 0  0 -0.36 0  0.09999999999999998 -0.36 0  0.2 -0.36 0  0.3 -0.36 0  0.4 -0.36 0  0.5 -0.36 0  -0.5 -0.34 0  -0.4 -0.34 0  -0.3 -0.34 0  -0.2 -0.34 0  -0.09999999999999998 -0.34 0  0 -0.34 0  0.09999999999999998 -0.34 0  0.2 -0.34 0  0.3 -0.34 0  0.4 -0.34 0  0.5 -0.34 0  -0.5 -0.32 0  -0.4 -0.32 0  -0.3 -0.32 0  -0.2 -0.32 0  -0.09999999999999998 -0.32 0  0 -0.32 0  0.09999999999999998 -0.32 0  0.2 -0.32 0  0.3 -0.32 0  0.4 -0.32 0  0.5 -0.32 0  -0.5 -0.3 0  -0.4 -0.3 0  -0.3 -0.3 0  -0.2 -0.3 0  -0.09999999999999998 -0.3 0  0 -0.3 0  0.09999999999999998 -0.3 0  0.2 -0.3 0  0.3 -0.3 0  0.4 -0.3 0  0.5 -0.3 0  -0.5 -0.28 0  -0.4 -0.28 0  -0.3 -0.28 0  -0.2 -0.28 0  -0.09999999999999998 -0.28 0  0 -0.28 0  0.09999999999999998 -0.28 0  0.2 -0.28 0  0.3 -0.28 0  0.4 -0.28 0  0.5 -0.28 0  -0.5 -0.26 0  -0.4 -0.26 0  -0.3 -0.26 0  -0.2 -0.26 0  -0.09999999999999998 -0.26 0  0 -0.26 0  0.09999999999999998 -0.26 0  0.2 -0.26 0  0.3 -0.26 0  0.4 -0.26 0  0.5 -0.26 0  -0.5 -0.24 0  -0.4 -0.24 0  -0.3 -0.24 0  -0.2 -0.24 0  -0.09999999999999998 -0.24 0  0 -0.24 0  0.09999999999999998 -0.24 0  0.2 -0.24 0  0.3 -0.24 0  0.4 -0.24 0  0.5 -0.24 0  -0.5 -0.22 0  -0.4 -0.22 0  -0.3 -0.22 0  -0.2 -0.22 0  -0.09999999999999998 -0.22 0  0 -0.22 0  0.09999999999999998 -0.22 0  0.2 -0.22 0  0.3 -0.22 0  0.4 -0.22 0  0.5 -0.22 0  -0.5 -0.2 0  -0.4 -0.2 0  -0.3 -0.2 0  -0.2 -0.2 0  -0.09999999999999998 -0.2 0  0 -0.2 0  0.09999999999999998 -0.2 0  0.2 -0.2 0  0.3 -0.2 0  0.4 -0.2 0  0.5 -0.2 0  -0.5 -0.18 0  -0.4 -0.18 0  -0.3 -0.18 0  -0.2 -0.18 0  -0.09999999999999998 -0.18 0  0 -0.18 0  0.09999999999999998 -0.18 0  0.2 -0.18 0  0.3 -0.18 0  0.4 -0.18 0  0.5 -0.18 0  -0.5 -0.16 0  -0.4 -0.16 0  -0.3 -0.16 0  -0.2 -0.16 0  -0.09999999999999998 -0.16 0  0 -0.16 0  0.09999999999999998 -0.16 0  0.2 -0.16 0  0.3 -0.16 0  0.4 -0.16 0  0.5 -0.16 0  -0.5 -0.14 0  -0.4 -0.14 0  -0.3 -0.14 0  -0.2 -0.14 0  -0.09999999999999998 -0.14 0  0 -0.14 0  0.09999999999999998 -0.14 0  0.2 -0.14 0  0.3 -0.14 0  0.4 -0.14 0  0.5 -0.14 0  -0.5 -0.12 0  -0.4 -0.12 0  -0.3 -0.12 0  -0.2 -0.12 0  -0.09999999999999998 -0.12 0  0 -0.12 0  0.09999999999999998 -0.12 0  0.2 -0.12 0  0.3 -0.12 0  0.4 -0.12 0  0.5 -0.12 0  -0.5 -0.09999999999999998 0  -0.4 -0.09999999999999998 0  -0.3 -0.09999999999999998 0  -0.2 -0.09999999999999998 0  -0.09999999999999998 -0.09999999999999998 0  0 -0.09999999999999998 0  0.09999999999999998 -0.09999999999999998 0  0.2 -0.09999999999999998 0  0.3 -0.09999999999999998 0  0.4 -0.09999999999999998 0  0.5 -0.09999999999999998 0  -0.5 -0.07999999999999996 0  -0.4 -0.07999999999999996 0  -0.3 -0.07999999999999996 0  -0.2 -0.07999999999999996 0  -0.09999999999999998 -0.07999999999999996 0  0 -0.07999999999999996 0  0.09999999999999998 -0.07999999999999996 0  0.2 -0.07999999999999996 0  0.3 -0.07999999999999996 0  0.4 -0.07999999999999996 0  0.5 -0.07999999999999996 0  -0.5 -0.06000000000000005 0  -0.4 -0.06000000000000005 0  -0.3 -0.06000000000000005 0  -0.2 -0.06000000000000005 0  -0.09999999
[...]
<PointData  Scalars=" mean stress"> 
<DataArray  type="Float64"  Name=" mean stress"  format="ascii">8.9433453801310528e+06  8.9433453794623092e+06  8.9433453793852907e+06  8.9433453793774284e+06  8.9433453793786727e+06  8.9433453793785423e+06  8.9433453793787919e+06  8.9433453793775719e+06  8.9433453793852068e+06  8.9433453794622514e+06  8.9433453801310807e+06  8.9459794816014804e+06  8.9459794780800585e+06  8.9459794779077247e+06  8.9459794779131245e+06  8.9459794779124334e+06  8.9459794779126775e+06  8.9459794779126346e+06  8.9459794779133406e+06  8.9459794779076464e+06  8.9459794780800752e+06  8.9459794816016387e+06  8.9538792080219872e+06  8.9538791922060978e+06  8.9538791920654606e+06  8.9538791920638066e+06  8.9538791920644231e+06  8.9538791920644604e+06  8.9538791920646615e+06  8.9538791920640934e+06  8.9538791920654699e+06  8.9538791922061425e+06  8.9538792080222219e+06  8.9670368158575259e+06  8.9670367800127398e+06  8.9670367798694707e+06  8.9670367798699364e+06  8.9670367798699811e+06  8.9670367798701767e+06  8.9670367798702773e+06  8.9670367798702419e+06  8.9670367798695173e+06  8.9670367800128572e+06  8.9670368158579171e+06  8.9854394098859653e+06  8.9854393461507242e+06  8.9854393460121360e+06  8.9854393460121173e+06  8.9854393460123911e+06  8.9854393460125346e+06  8.9854393460127059e+06  8.9854393460124657e+06  8.9854393460121453e+06  8.9854393461508937e+06  8.9854394098863415e+06  9.0090689531146139e+06  9.0090688538850322e+06  9.0090688537510540e+06  9.0090688537510950e+06  9.0090688537513651e+06  9.0090688537516035e+06  9.0090688537517469e+06  9.0090688537515122e+06  9.0090688537511416e+06  9.0090688538852334e+06  9.0090689531150833e+06  9.0379022838252112e+06  9.0379021417482235e+06  9.0379021416198500e+06  9.0379021416200250e+06  9.0379021416202188e+06  9.0379021416205000e+06  9.0379021416206621e+06  9.0379021416204758e+06  9.0379021416200828e+06  9.0379021417484600e+06  9.0379022838257737e+06  9.0719111369660962e+06  9.0719109450022578e+06  9.0719109448804427e+06  9.0719109448805451e+06  9.0719109448809288e+06  9.0719109448810946e+06  9.0719109448812250e+06  9.0719109448810313e+06  9.0719109448806457e+06  9.0719109450025484e+06  9.0719111369666886e+06  9.1110621703736074e+06  9.1110619218428563e+06  9.1110619217284769e+06  9.1110619217286408e+06  9.1110619217289817e+06  9.1110619217292201e+06  9.1110619217293207e+06  9.1110619217291195e+06  9.1110619217286669e+06  9.1110619218432140e+06  9.1110621703741606e+06  9.1553169957180358e+06  9.1553166843445767e+06  9.1553166842381060e+06  9.1553166842382681e+06  9.1553166842385344e+06  9.1553166842389014e+06  9.1553166842389666e+06  9.1553166842386555e+06  9.1553166842383444e+06  9.1553166843447983e+06  9.1553169957186654e+06  9.2046322141801622e+06  9.2046318341309093e+06  9.2046318340332191e+06  9.2046318340332862e+06  9.2046318340337016e+06  9.2046318340339325e+06  9.2046318340342194e+06  9.2046318340337630e+06  9.2046318340335265e+06  9.2046318341313992e+06  9.2046322141810004e+06  9.2589594568372872e+06  9.2589590027572755e+06  9.2589590026687831e+06  9.2589590026687924e+06  9.2589590026692040e+06  9.2589590026694834e+06  9.2589590026696045e+06  9.2589590026692040e+06  9.2589590026688688e+06  9.2589590027576238e+06  9.2589594568378776e+06  9.3182454297418073e+06  9.3182448967837431e+06  9.3182448967047390e+06  9.3182448967048563e+06  9.3182448967050686e+06  9.3182448967054486e+06  9.3182448967056107e+06  9.3182448967053089e+06  9.3182448967049252e+06  9.3182448967840336e+06  9.3182454297424443e+06  9.3824319636729863e+06  9.3824313475213964e+06  9.3824313474524096e+06  9.3824313474526294e+06  9.3824313474529255e+06  9.3824313474531621e+06  9.3824313474533241e+06  9.3824313474528622e+06  9.3824313474525698e+06  9.3824313475217335e+06  9.3824319636738282e+06  9.4514560685358904e+06  9.4514553654265348e+06  9.4514553653675187e+06  9.4514553653677646e+06  9.4514553653680738e+06  9.4514553653684296e+06  9.4514553653684631e+06  9.4514553653680347e+06  9.4514553653677143e+06  9.4514553654268049e+06  9.4514560685364716e+06  9.5252499923799373e+06  9.5252491991139781e+06  9.5252491990651768e+06  9.5252491990654804e+06  9.5252491990656946e+06  9.5252491990659740e+06  9.5252491990662161e+06  9.5252491990657710e+06  9.5252491990654543e+06  9.5252491991142537e+06  9.5252499923805464e+06  9.6037412850103378e+06  9.6037403989631552e+06  9.6037403989245519e+06  9.6037403989250399e+06  9.6037403989250902e+06  9.6037403989256062e+06  9.6037403989255652e+06  9.6037403989251517e+06  9.6037403989246562e+06  9.6037403989632875e+06  9.6037412850109674e+06  9.6868528661549892e+06  9.6868518852792177e+06  9.6868518852510657e+06  9.6868518852513842e+06  9.6868518852514848e+06  9.6868518852519598e+06  9.6868518852518424e+06  9.6868518852517083e+06  9.6868518852510694e+06  9.6868518852795511e+06  9.6868528661555611e+06  9.7745030981492866e+06  9.7745020209748186e+06  9.7745020209569745e+06  9.7745020209568962e+06  9.7745020209572166e+06  9.7745020209572650e+06  9.7745020209576767e+06  9.7745020209571831e+06  9.7745020209570415e+06  9.7745020209750906e+06  9.7745030981495641e+06  9.8666058630992398e+06  9.8666046887278426e+06  9.8666046887195148e+06  9.8666046887196712e+06  9.8666046887200698e+06  9.8666046887201816e+06  9.8666046887204386e+06  9.8666046887199879e+06  9.8666046887196451e+06  9.8666046887279861e+06  9.8666058630995248e+06  9.9630706444760300e+06  9.9630693725711629e+06  9.9630693725726828e+06  9.9630693725726400e+06  9.9630693725729585e+06  9.9630693725733869e+06  9.9630693725735731e+06  9.9630693725731373e+06  9.9630693725725580e+06  9.9630693725714311e+06  9.9630706444767714e+06  1.0063802613092033e+07  1.0063801243864600e+07  1.0063801243875284e+07  1.0063801243875308e+07  1.0063801243875781e+07  1.0063801243875846e+07  1.0063801243875861e+07  1.0063801243875749e+07  1.0063801243875464e+07  1.0063801243864771e+07  1.0063802613092642e+07  1.0168702717399133e+07  1.0168701251591351e+07  1.0168701251610804e+07  1.0168701251610801e+07  1.0168701251611197e+07  1.0168701251611479e+07  1.0168701251611445e+07  1.0168701251611434e+07  1.0168701251611145e+07  1.0168701251591539e+07  1.0168702717399515e+07  1.0277667778056523e+07  1.0277666216921596e+07  1.0277666216949623e+07  1.0277666216949366e+07  1.0277666216949861e+07  1.0277666216949886e+07  1.0277666216950340e+07  1.0277666216950165e+07  1.0277666216949752e+07  1.0277666216921836e+07  1.0277667778056784e+07  1.0390590586698297e+07  1.0390588931977293e+07  1.0390588932012970e+07  1.0390588932013147e+07  1.0390588932013152e+07  1.0390588932013603e+07  1.0390588932013562e+07  1.0390588932013405e+07  1.0390588932013148e+07  1.0390588931977430e+07  1.0390590586698914e+07  1.0507360008830978e+07  1.0507358262726856e+07  1.0507358262770284e+07  1.0507358262770379e+07  1.0507358262770491e+07  1.0507358262770914e+07  1.0507358262770966e+07  1.0507358262770910e+07  1.0507358262770347e+07  1.0507358262727067e+07  1.0507360008831739e+07  1.0627861090787189e+07  1.0627859255937457e+07  1.0627859255987911e+07  1.0627859255987784e+07  1.0627859255987940e+07  1.0627859255988115e+07  1.0627859255988512e+07  1.0627859255988067e+07  1.0627859255987942e+07  1.0627859255937675e+07  1.0627861090787329e+07  1.0751975170647627e+07  1.0751973250097135e+07  1.0751973250153780e+07  1.0751973250153609e+07  1.0751973250153920e+07  1.0751973250154007e+07  1.0751973250153972e+07  1.0751973250154074e+07  1.0751973250153655e+07  1.0751973250097418e+07  1.0751975170648072e+07  1.0879579993058421e+07  1.0879577990226928e+07  1.0879577990289316e+07  1.0879577990289174e+07  1.0879577990289329e+07  1.0879577990289800e+07  1.0879577990289724e+07  1.0879577990289824e+07  1.0879577990289276e+07  1.0879577990227142e+07  1.0879579993058886e+07  1.1010549827833721e+07  1.1010547746485969e+07  1.1010547746553199e+07  1.1010547746553343e+07  1.1010547746553469e+07  1.1010547746553652e+07  1.1010547746553794e+07  1.1010547746553207e+07  1.1010547746553147e+07  1.1010547746486109e+07  1.1010549827834252e+07  1.1144755592255656e+07  1.1144753436469126e+07  1.1144753436540792e+07  1.1144753436540693e+07  1.1144753436541120e+07  1.1144753436541025e+07  1.1144753436541380e+07  1.1144753436541591e+07  1.1144753436540948e+07  1.1144753436469138e+07  1.1144755592256268e+07  1.1282064976965340e+07  1.1282062751098836e+07  1.1282062751174776e+07  1.1282062751174714e+07  1.1282062751174973e+07  1.1282062751174858e+07  1.1282062751175502e+07  1.1282062751175005e+07  1.1282062751174716e+07  1.1282062751098871e+07  1.1282064976966430e+07  1.1422342575331258e+07  1.1422340283992449e+07  1.1422340284071656e+07  1.1422340284071647e+07  1.1422340284071408e+07  1.1422340284071662e+07  1.1422340284072047e+07  1.1422340284071736e+07  1.1422340284071259e+07  1.1422340283992361e+07  1.1422342575331282e+07  1.1565450016176922e+07  1.1565447664191177e+07  1.1565447664273096e+07  1.1565447664273342e+07  1.1565447664273437e+07  1.1565447664273495e+07  1.1565447664273711e+07  1.1565447664273757e+07  1.1565447664273046e+07  1.1565447664191334e+07  1.1565450016177094e+07  1.1711246099753570e+07  1.1711243692132747e+07  1.1711243692216681e+07  1.1711243692217186e+07  1.1711243692216640e+07  1.1711243692217065e+07  1.1711243692217482e+07  1.1711243692217456e+07  1.1711243692216795e+07  1.1711243692133125e+07  1.1711246099754570e+07  1.1859586936818805e+07  1.1859584478727674e+07  1.1859584478814036e+07  1.1859584478813900e+07  1.1859584478814038e+07  1.1859584478813512e+07  1.1859584478813913e+07  1.1859584478814121e+07  1.1859584478813963e+07  1.1859584478727542e+07  1.1859586936818626e+07  1.2010326090685001e+07  1.2010323587416142e+07  1.2010323587504495e+07  1.2010323587503374e+07  1.2010323587504001e+07  1.2010323587503601e+07  1.2010323587504020e+07  1.2010323587504635e+07  1.2010323587503957e+07  1.2010323587416651e+07  1.2010326090685537e+07  1.2163314722114619e+07  1.2163312179057684e+07  1.2163312179145332e+07  1.2163312179145016e+07  1.2163312179145059e+07  1.2163312179145254e+07  1.2163312179145265e+07  1.2163312179146033e+07  1.2163312179145440e+07  1.2163312179057410e+07  1.2163314722114937e+07  1.2318401736893684e+07  1.2318399159503350e+07  1.2318399159592127e+07  1.2318399159591772e+07  1.2318399159591859e+07  1.2318399159591204e+07  1.2318399159592114e+07  1.2318399159592286e+07  1.2318399159592427e+07  1.2318399159503736e+07  1.2318401736894073e+07  1.2475433935943002e+07  1.2475431329717882e+07  1.2475431329806086e+07  1.2475431329805972e+07  1.2475431329805834e+07  1.2475431329806020e+07  1.2475431329806404e+07  1.2475431329807039e+07  1.2475431329806605e+07  1.2475431329718493e+07  1.2475433935942795e+07  1.2634256167810323e+07  1.2634253538265890e+07  1.2634253538353406e+07  1.2634253538352862e+07  1.2634253538353218e+07  1.2634253538352914e+07  1.2634253538353564e+07  1.2634253538354095e+07  1.2634253538353570e+07  1.2634253538265908e+07  1.2634256167811032e+07  1.2794711483383164e+07  1.2794708836023800e+07  1.2794708836110633e+07  1.2794708836110672e+07  1.2794708836110882e+07  1.2794708836110670e+07  1.2794708836111087e+07  1.2794708836111033e+07  1.2794708836111482e+07  1.2794708836024409e+07  1.2794711483384073e+07  1.2956641292642677e+07  1.2956638632945471e+07  1.2956638633029666e+07  1.2956638633029845e+07  1.2956638633029519e+07  1.2956638633030141e+07  1.2956638633029733e+07  1.2956638633030945e+07  1.2956638633030161e+07  1.2956638632945785e+07  1.2956641292643672e+07  1.3119885523309391e+07  1.3119882856689841e+07  1.3119882856776459e+07  1.3119882856774472e+07  1.3119882856775772e+07  1.3119882856774623e+07  1.3119882856775600e+07  1.3119882856774833e+07  1.3119882856777681e+07  1.3119882856690040e+07  1.3119885523310192e+07  1.3284282781164642e+07  1.3284280112999121e+07  1.3284280113060551e+07  1.3284280113073612e+07  1.3284280113066195e+07  1.3284280113069691e+07  1.3284280113066183e+07  1.3284280113073066e+07  1.3284280113061590e+07  1.3284280112999175e+07  1.3284282781164752e+07  1.3449670512034403e+07  1.3449667847404437e+07  1.3449667847603178e+07  1.3449667847535530e+07  1.3449667847566448e+07  1.3449667847552847e+07  1.3449667847566137e+07  1.3449667847536573e+07  1.3449667847604187e+07  1.3449667847405246e+07  1.3449670512035377e+07  1.3615885164275369e+07  1.3615882509401545e+07  1.3615882508770790e+07  1.3615882509128544e+07  1.3615882508993305e+07  1.3615882509037364e+07  1.3615882508992368e+07  1.3615882509127541e+07  1.3615882508771699e+07  1.3615882509402191e+07  1.3615885164276633e+07  1.3782762357395949e+07  1.3782759710918644e+07  1.3782759715064319e+07  1.3782759713343458e+07  1.3782759713836864e+07  1.3782759713723132e+07  1.3782759713836495e+07  1.3782759713342981e+07  1.3782759715065483e+07  1.3782759710919440e+07  1.3782762357397377e+07  1.3950137027902827e+07  1.3950134426988717e+07  1.3950134404772377e+07  1.3950134411829581e+07  1.3950134410710590e+07  1.3950134410899879e+07  1.3950134410709377e+07  1.3950134411828488e+07  1.3950134404773019e+07  1.3950134426989146e+07  1.3950137027903721e+07  1.4120923366398502e+07  1.4120920936215302e+07  1.4120921053347280e+07  1.4120921042130010e+07  1.4120921043430615e+07  1.4120921043244239e+07  1.4120921043429693e+07  1.4120921042129250e+07  1.4120921053348260e+07  1.4120920936216997e+07  1.4120923366399191e+07  1.4252760731543718e+07  1.4252743210155720e+07  1.4252743187024353e+07  1.4252743183938222e+07  1.4252743184110740e+07  1.4252743184091572e+07  1.4252743184109837e+07  1.4252743183937738e+07  1.4252743187024949e+07  1.4252743210157802e+07  1.4252760731542572e+07  8.9437646069199890e+06  8.9437646072988156e+06  8.9437646073608287e+06  8.9437646073614825e+06  8.9437646073615439e+06  8.9437646073616296e+06  8.9437646073616613e+06  8.9437646073608845e+06  8.9437646072987579e+06  8.9437646069200169e+06  8.9490323918347731e+06  8.9490323935070504e+06  8.9490323935843166e+06  8.9490323935836088e+06  8.9490323935838379e+06  8.9490323935839348e+06  8.9490323935838640e+06  8.9490323935844079e+06  8.9490323935070038e+06  8.9490323918349277e+06  8.9595627991001513e+06  8.9595628034357391e+06  8.9595628035071474e+06  8.9595628035075013e+06  8.9595628035076093e+06  8.9595628035077285e+06  8.9595628035078067e+06  8.9595628035073038e+06  8.9595628034357764e+06  8.9595627991003934e+06  8.9753455084611755e+06  8.9753455167947188e+06  8.9753455168651901e+06  8.9753455168653149e+06  8.9753455168655198e+06  8.9753455168656688e+06  8.9753455168657228e+06  8.9753455168654025e+06  8.9753455167947318e+06  8.9753455084614530e+06  8.9963650515093151e+06  8.9963650651204959e+06  8.9963650651887264e+06  8.9963650651888177e+06  8.9963650651890822e+06  8.9963650651893187e+06  8.9963650651892889e+06  8.9963650651889704e+06  8.9963650651206672e+06  8.9963650515097398e+06  9.0226008259213902e+06  9.0226008460575063e+06  9.0226008461232334e+06  9.0226008461233769e+06  9.0226008461236507e+06  9.0226008461237960e+06  9.0226008461237624e+06  9.0226008461234234e+06  9.0226008460575156e+06  9.0226008259217422e+06  9.0540271145822909e+06  9.0540271424418166e+06  9.0540271425045300e+06  9.0540271425048355e+06  9.0540271425050441e+06  9.0540271425052155e+06  9.0540271425052416e+06  9.0540271425048672e+06  9.0540271424420401e+06  9.0540271145827398e+06  9.0906131094057541e+06  9.0906131461318564e+06  9.0906131461909991e+06  9.0906131461909860e+06  9.0906131461912710e+06  9.0906131461914238e+06  9.0906131461914666e+06  9.0906131461912449e+06  9.0906131461318452e+06  9.0906131094063260e+06  9.1323229399131928e+06  9.1323229865842294e+06  9.1323229866396487e+06  9.1323229866398647e+06  9.1323229866401851e+06  9.1323229866405334e+06  9.1323229866405595e+06  9.1323229866400678e+06  9.1323229865845665e+06  9.1323229399137981e+06  9.1791157065425254e+06  9.1791157641679849e+06  9.1791157642192468e+06  9.1791157642195038e+06  9.1791157642197777e+06  9.1791157642199956e+06  9.1791157642198335e+06  9.1791157642195486e+06  9.1791157641681675e+06  9.1791157065428980e+06  9.2309455186767485e+06  9.2309455881884843e+06  9.2309455882351585e+06  9.2309455882353038e+06  9.2309455882357769e+06  9.2309455882359538e+06  9.2309455882358626e+06  9.2309455882354360e+06  9.2309455881885700e+06  9.2309455186773855e+06  9.2877615373745542e+06  9.2877616196223032e+06  9.2877616196646262e+06  9.2877616196649037e+06  9.2877616196650751e+06  9.2877616196653303e+06  9.2877616196652558e+06  9.2877616196648255e+06  9.2877616196226161e+06  9.2877615373752732e+06  9.3495080227831826e+06  9.3495081185305100e+06  9.3495081185677834e+06  9.3495081185679380e+06  9.3495081185683329e+06  9.3495081185686234e+06  9.3495081185682919e+06  9.3495081185677722e+06  9.3495081185305845e+06  9.3495080227837190e+06  9.4161243862106428e+06  9.4161244961309079e+06  9.4161244961629789e+06  9.4161244961631540e+06  9.4161244961634465e+06  9.4161244961637817e+06  9.4161244961638693e+06  9.4161244961636122e+06  9.4161244961311463e+06  9.4161243862110265e+06  9.4875452468350735e+06  9.4875453715085778e+06  9.4875453715359569e+06  9.4875453715360556e+06  9.4875453715362810e+06  9.4875453715366852e+06  9.4875453715365939e+06  9.4875453715360537e+06  9.4875453715087436e+06  9.4875452468355615e+06  9.5637004930187091e+06  9.5637006329305917e+06  9.5637006329527553e+06  9.5637006329533067e+06  9.5637006329535171e+06  9.5637006329537369e+06  9.5637006329534836e+06  9.5637006329529546e+06  9.5637006329310313e+06  9.5637004930193257e+06  9.6445153481963631e+06  9.6445155037368890e+06  9.6445155037534460e+06  9.6445155037532765e+06  9.6445155037536081e+06  9.6445155037538838e+06  9.6445155037539508e+06  9.6445155037538409e+06  9.6445155037368294e+06  9.6445153481966294e+06  9.7299104413021319e+06  9.7299106127637774e+06  9.7299106127757430e+06  9.7299106127760466e+06  9.7299106127763465e+06  9.7299106127766185e+06  9.7299106127765607e+06  9.7299106127759963e+06  9.7299106127639841e+06  9.7299104413024876e+06  9.8198018816972207e+06  9.8198020692787077e+06  9.8198020692857094e+06  9.8198020692858491e+06  9.8198020692860335e+06  9.8198020692865346e+06  9.8198020692863856e+06  9.8198020692855231e+06  9.8198020692788251e+06  9.8198018816981390e+06  9.9141013385519069e+06  9.9141015423558932e+06  9.9141015423578005e+06  9.9141015423577391e+06  9.9141015423579495e+06  9.9141015423583332e+06  9.9141015423582736e+06  9.9141015423577875e+06  9.9141015423559546e+06  9.9141013385526482e+06  1.0012716124631424e+07  1.0012716344668580e+07  1.0012716344665416e+07  1.0012716344665769e+07  1.0012716344666190e+07  1.0012716344666108e+07  1.0012716344666269e+07  1.0012716344666254e+07  1.0012716344668787e+07  1.0012716124631185e+07  1.0115549284440821e+07  1.0115549520632608e+07  1.0115549520625100e+07  1.0115549520625183e+07  1.0115549520625517e+07  1.0115549520625683e+07  1.0115549520625481e+07  1.0115549520625036e+07  1.0115549520632418e+07  1.0115549284441229e+07  1.0222499686667411e+07  1.0222499938848108e+07  1.0222499938836336e+07  1.0222499938836560e+07  1.0222499938836813e+07  1.0222499938836951e+07  1.0222499938836938e+07  1.0222499938836658e+07  1.0222499938848333e+07  1.0222499686667765e+07  1.0333462120853504e+07  1.0333462388774088e+07  1.0333462388758430e+07  1.0333462388758646e+07  1.0333462388758784e+07  1.0333462388758937e+07  1.0333462388759114e+07  1.0333462388758512e+07  1.0333462388774110e+07  1.0333462120853974e+07  1.0448327398238778e+07  1.0448327681571063e+07  1.0448327681551002e+07  1.0448327681550920e+07  1.0448327681551278e+07  1.0448327681551691e+07  1.0448327681551771e+07  1.0448327681551645e+07  1.0448327681570796e+07  1.0448327398238700e+07  1.0566982456695382e+07  1.0566982755036326e+07  1.0566982755013218e+07  1.0566982755013090e+07  1.0566982755013134e+07  1.0566982755013185e+07  1.0566982755013315e+07  1.0566982755013211e+07  1.0566982755036820e+07  1.0566982456696345e+07  1.0689310469682204e+07  1.0689310782559110e+07  1.0689310782532806e+07  1.0689310782533072e+07  1.0689310782533333e+07  1.0689310782533750e+07  1.0689310782533456e+07  1.0689310782532968e+07  1.0