<?xml version="1.0"?>
<VTKFile type="UnstructuredGrid"  version="0.1"  >
<UnstructuredGrid>
<Piece  NumberOfPoints="1091" NumberOfCells="2050">
<Points>
<DataArray  type="Float64"  NumberOfComponents="3"  format="ascii">-0.5 -1 0  -0.4 -1 0  -0.3 -1 0  -0.2 -1 0  -0.09999999999999998 -1 0  0 -1 0  0.09999999999999998 -1 0  0.2 -1 0  0.3 -1 0  0.4 -1 0  0.5 -1 0  -0.5 -0.98 0  -0.4 -0.98 0  -0.3 -0.98 0  -0.2 -0.98 0  -0.09999999999999998 -0.98 0  0 -0.98 0  0.09999999999999998 -0.98 0  0.2 -0.98 0  0.3 -0.98 0  0.4 -0.98 0  0.5 -0.98 0  -0.5 -0.96 0  -0.4 -0.96 0  -0.3 -0.96 0  -0.2 -0.96 0  -0.09999999999999998 -0.96 0  0 -0.96 0  0.09999999999999998 -0.96 0  0.2 -0.96 0  0.3 -0.96 0  0.4 -0.96 0  0.5 -0.96 0  -0.5 -0.9399999999999999 0  -0.4 -0.9399999999999999 0  -0.3 -0.9399999999999999 0  -0.2 -0.9399999999999999 0  -0.09999999999999998 -0.9399999999999999 0  0 -0.9399999999999999 0  0.09999999999999998 -0.9399999999999999 0  0.2 -0.9399999999999999 0  0.3 -0.9399999999999999 0  0.4 -0.9399999999999999 0  0.5 -0.9399999999999999 0  -0.5 -0.92 0  -0.4 -0.92 0  -0.3 -0.92 0  -0.2 -0.92 0  -0.09999999999999998 -0.92 0  0 -0.92 0  0.09999999999999998 -0.92 0  0.2 -0.92 0  0.3 -0.92 0  0.4 -0.92 0  0.5 -0.92 0  -0.5 -0.9 0  -0.4 -0.9 0  -0.3 -0.9 0  -0.2 -0.9 0  -0.09999999999999998 -0.9 0  0 -0.9 0  0.09999999999999998 -0.9 0  0.2 -0.9 0  0.3 -0.9 0  0.4 -0.9 0  0.5 -0.9 0  -0.5 -0.88 0  -0.4 -0.88 0  -0.3 -0.88 0  -0.2 -0.88 0  -0.09999999999999998 -0.88 0  0 -0.88 0  0.09999999999999998 -0.88 0  0.2 -0.88 0  0.3 -0.88 0  0.4 -0.88 0  0.5 -0.88 0  -0.5 -0.86 0  -0.4 -0.86 0  -0.3 -0.86 0  -0.2 -0.86 0  -0.09999999999999998 -0.86 0  0 -0.86 0  0.09999999999999998 -0.86 0  0.2 -0.86 0  0.3 -0.86 0  0.4 -0.86 0  0.5 -0.86 0  -0.5 -0.84 0  -0.4 -0.84 0  -0.3 -0.84 0  -0.2 -0.84 0  -0.09999999999999998 -0.84 0  0 -0.84 0  0.09999999999999998 -0.84 0  0.2 -0.84 0  0.3 -0.84 0  0.4 -0.84 0  0.5 -0.84 0  -0.5 -0.8200000000000001 0  -0.4 -0.8200000000000001 0  -0.3 -0.8200000000000001 0  -0.2 -0.8200000000000001 0  -0.09999999999999998 -0.8200000000000001 0  0 -0.8200000000000001 0  0.09999999999999998 -0.8200000000000001 0  0.2 -0.8200000000000001 0  0.3 -0.8200000000000001 0  0.4 -0.8200000000000001 0  0.5 -0.8200000000000001 0  -0.5 -0.8 0  -0.4 -0.8 0  -0.3 -0.8 0  -0.2 -0.8 0  -0.09999999999999998 -0.8 0  0 -0.8 0  0.09999999999999998 -0.8 0  0.2 -0.8 0  0.3 -0.8 0  0.4 -0.8 0  0.5 -0.8 0  -0.5 -0.78 0  -0.4 -0.78 0  -0.3 -0.78 0  -0.2 -0.78 0  -0.09999999999999998 -0.78 0  0 -0.78 0  0.09999999999999998 -0.78 0  0.2 -0.78 0  0.3 -0.78 0  0.4 -0.78 0  0.5 -0.78 0  -0.5 -0.76 0  -0.4 -0.76 0  -0.3 -0.76 0  -0.2 -0.76 0  -0.09999999999999998 -0.76 0  0 -0.76 0  0.09999999999999998 -0.76 0  0.2 -0.76 0  0.3 -0.76 0  0.4 -0.76 0  0.5 -0.76 0  -0.5 -0.74 0  -0.4 -0.74 0  -0.3 -0.74 0  -0.2 -0.74 0  -0.09999999999999998 -0.74 0  0 -0.74 0  0.09999999999999998 -0.74 0  0.2 -0.74 0  0.3 -0.74 0  0.4 -0.74 0  0.5 -0.74 0  -0.5 -0.72 0  -0.4 -0.72 0  -0.3 -0.72 0  -0.2 -0.72 0  -0.09999999999999998 -0.72 0  0 -0.72 0  0.09999999999999998 -0.72 0  0.2 -0.72 0  0.3 -0.72 0  0.4 -0.72 0  0.5 -0.72 0  -0.5 -0.7 0  -0.4 -0.7 0  -0.3 -0.7 0  -0.2 -0.7 0  -0.09999999999999998 -0.7 0  0 -0.7 0  0.09999999999999998 -0.7 0  0.2 -0.7 0  0.3 -0.7 0  0.4 -0.7 0  0.5 -0.7 0  -0.5 -0.6799999999999999 0  -0.4 -0.6799999999999999 0  -0.3 -0.6799999999999999 0  -0.2 -0.6799999999999999 0  -0.09999999999999998 -0.6799999999999999 0  0 -0.6799999999999999 0  0.09999999999999998 -0.6799999999999999 0  0.2 -0.6799999999999999 0  0.3 -0.6799999999999999 0  0.4 -0.6799999999999999 0  0.5 -0.6799999999999999 0  -0.5 -0.6599999999999999 0  -0.4 -0.6599999999999999 0  -0.3 -0.6599999999999999 0  -0.2 -0.6599999999999999 0  -0.09999999999999998 -0.6599999999999999 0  0 -0.6599999999999999 0  0.09999999999999998 -0.6599999999999999 0  0.2 -0.6599999999999999 0  0.3 -0.6599999999999999 0  0.4 -0.6599999999999999 0  0.5 -0.6599999999999999 0  -0.5 -0.64 0  -0.4 -0.64 0  -0.3 -0.64 0  -0.2 -0.64 0  -0.09999999999999998 -0.64 0  0 -0.64 0  0.09999999999999998 -0.64 0  0.2 -0.64 0  0.3 -0.64 0  0.4 -0.64 0  0.5 -0.64 0  -0.5 -0.62 0  -0.4 -0.62 0  -0.3 -0.62 0  -0.2 -0.62 0  -0.09999999999999998 -0.62 0  0 -0.62 0  0.09999999999999998 -0.62 0  0.2 -0.62 0  0.3 -0.62 0  0.4 -0.62 0  0.5 -0.62 0  -0.5 -0.6 0  -0.4 -0.6 0  -0.3 -0.6 0  -0.2 -0.6 0  -0.09999999999999998 -0.6 0  0 -0.6 0  0.09999999999999998 -0.6 0  0.2 -0.6 0  0.3 -0.6 0  0.4 -0.6 0  0.5 -0.6 0  -0.5 -0.5800000000000001 0  -0.4 -0.5800000000000001 0  -0.3 -0.5800000000000001 0  -0.2 -0.5800000000000001 0  -0.09999999999999998 -0.5800000000000001 0  0 -0.5800000000000001 0  0.09999999999999998 -0.5800000000000001 0  0.2 -0.5800000000000001 0  0.3 -0.5800000000000001 0  0.4 -0.5800000000000001 0  0.5 -0.5800000000000001 0  -0.5 -0.5600000000000001 0  -0.4 -0.5600000000000001 0  -0.3 -0.5600000000000001 0  -0.2 -0.5600000000000001 0  -0.09999999999999998 -0.5600000000000001 0  0 -0.5600000000000001 0  0.09999999999999998 -0.5600000000000001 0  0.2 -0.5600000000000001 0  0.3 -0.5600000000000001 0  0.4 -0.5600000000000001 0  0.5 -0.5600000000000001 0  -0.5 -0.54 0  -0.4 -0.54 0  -0.3 -0.54 0  -0.2 -0.54 0  -0.09999999999999998 -0.54 0  0 -0.54 0  0.09999999999999998 -0.54 0  0.2 -0.54 0  0.3 -0.54 0  0.4 -0.54 0  0.5 -0.54 0  -0.5 -0.52 0  -0.4 -0.52 0  -0.3 -0.52 0  -0.2 -0.52 0  -0.09999999999999998 -0.52 0  0 -0.52 0  0.09999999999999998 -0.52 0  0.2 -0.52 0  0.3 -0.52 0  0.4 -0.52 0  0.5 -0.52 0  -0.5 -0.5 0  -0.4 -0.5 0  -0.3 -0.5 0  -0.2 -0.5 0  -0.09999999999999998 -0.5 0  0 -0.5 0  0.09999999999999998 -0.5 0  0.2 -0.5 0  0.3 -0.5 0  0.4 -0.5 0  0.5 -0.5 0  -0.5 -0.48 0  -0.4 -0.48 0  -0.3 -0.48 0  -0.2 -0.48 0  -0.09999999999999998 -0.48 0  0 -0.48 0  0.09999999999999998 -0.48 0  0.2 -0.48 0  0.3 -0.48 0  0.4 -0.48 0  0.5 -0.48 0  -0.5 -0.46 0  -0.4 -0.46 0  -0.3 -0.46 0  -0.2 -0.46 0  -0.09999999999999998 -0.46 0  0 -0.46 0  0.09999999999999998 -0.46 0  0.2 -0.46 0  0.3 -0.46 0  0.4 -0.46 0  0.5 -0.46 0  -0.5 -0.4399999999999999 0  -0.4 -0.4399999999999999 0  -0.3 -0.4399999999999999 0  -0.2 -0.4399999999999999 0  -0.09999999999999998 -0.4399999999999999 0  0 -0.4399999999999999 0  0.09999999999999998 -0.4399999999999999 0  0.2 -0.4399999999999999 0  0.3 -0.4399999999999999 0  0.4 -0.4399999999999999 0  0.5 -0.4399999999999999 0  -0.5 -0.42 0  -0.4 -0.42 0  -0.3 -0.42 0  -0.2 -0.42 0  -0.09999999999999998 -0.42 0  0 -0.42 0  0.09999999999999998 -0.42 0  0.2 -0.42 0  0.3 -0.42 0  0.4 -0.42 0  0.5 -0.42 0  -0.5 -0.4 0  -0.4 -0.4 0  -0.3 -0.4 0  -0.2 -0.4 0  -0.09999999999999998 -0.4 0  0 -0.4 0  0.09999999999999998 -0.4 0  0.2 -0.4 0  0.3 -0.4 0  0.4 -0.4 0  0.5 -0.4 0  -0.5 -0.38 0  -0.4 -0.38 0  -0.3 -0.38 0  -0.2 -0.38 0  -0.09999999999999998 -0.38 0  0 -0.38 0  0.09999999999999998 -0.38 0  0.2 -0.38 0  0.3 -0.38 0  0.4 -0.38 0  0.5 -0.38 0  -0.5 -0.36 0  -0.4 -0.36 0  -0.3 -0.36 0  -0.2 -0.36 0  -0.09999999999999998 -0.36 0  0 -0.36 0  0.09999999999999998 -0.36 0  0.2 -0.36 0  0.3 -0.36 0  0.4 -0.36 0  0.5 -0.36 0  -0.5 -0.34 0  -0.4 -0.34 0  -0.3 -0.34 0  -0.2 -0.34 0  -0.09999999999999998 -0.34 0  0 -0.34 0  0.09999999999999998 -0.34 0  0.2 -0.34 0  0.3 -0.34 0  0.4 -0.34 0  0.5 -0.34 0  -0.5 -0.32 0  -0.4 -0.32 0  -0.3 -0.32 0  -0.2 -0.32 0  -0.09999999999999998 -0.32 0  0 -0.32 0  0.09999999999999998 -0.32 0  0.2 -0.32 0  0.3 -0.32 0  0.4 -0.32 0  0.5 -0.32 0  -0.5 -0.3 0  -0.4 -0.3 0  -0.3 -0.3 0  -0.2 -0.3 0  -0.09999999999999998 -0.3 0  0 -0.3 0  0.09999999999999998 -0.3 0  0.2 -0.3 0  0.3 -0.3 0  0.4 -0.3 0  0.5 -0.3 0  -0.5 -0.28 0  -0.4 -0.28 0  -0.3 -0.28 0  -0.2 -0.28 0  -0.09999999999999998 -0.28 0  0 -0.28 0  0.09999999999999998 -0.28 0  0.2 -0.28 0  0.3 -0.28 0  0.4 -0.28 0  0.5 -0.28 0  -0.5 -0.26 0  -0.4 -0.26 0  -0.3 -0.26 0  -0.2 -0.26 0  -0.09999999999999998 -0.26 0  0 -0.26 0  0.09999999999999998 -0.26 0  0.2 -0.26 0  0.3 -0.26 0  0.4 -0.26 0  0.5 -0.26 0  -0.5 -0.24 0  -0.4 -0.24 0  -0.3 -0.24 0  -0.2 -0.24 0  -0.09999999999999998 -0.24 0  0 -0.24 0  0.09999999999999998 -0.24 0  0.2 -0.24 0  0.3 -0.24 0  0.4 -0.24 0  0.5 -0.24 0  -0.5 -0.22 0  -0.4 -0.22 0  -0.3 -0.22 0  -0.2 -0.22 0  -0.09999999999999998 -0.22 0  0 -0.22 0  0.09999999999999998 -0.22 0  0.2 -0.22 0  0.3 -0.22 0  0.4 -0.22 0  0.5 -0.22 0  -0.5 -0.2 0  -0.4 -0.2 0  -0.3 -0.2 0  -0.2 -0.2 0  -0.09999999999999998 -0.2 0  0 -0.2 0  0.09999999999999998 -0.2 0  0.2 -0.2 0  0.3 -0.2 0  0.4 -0.2 0  0.5 -0.2 0  -0.5 -0.18 0  -0.4 -0.18 0  -0.3 -0.18 0  -0.2 -0.18 0  -0.09999999999999998 -0.18 0  0 -0.18 0  0.09999999999999998 -0.18 0  0.2 -0.18 0  0.3 -0.18 0  0.4 -0.18 0  0.5 -0.18 0  -0.5 -0.16 0  -0.4 -0.16 0  -0.3 -0.16 0  -0.2 -0.16 0  -0.09999999999999998 -0.16 0  0 -0.16 0  0.09999999999999998 -0.16 0  0.2 -0.16 0  0.3 -0.16 0  0.4 -0.16 0  0.5 -0.16 0  -0.5 -0.14 0  -0.4 -0.14 0  -0.3 -0.14 0  -0.2 -0.14 0  -0.09999999999999998 -0.14 0  0 -0.14 0  0.09999999999999998 -0.14 0  0.2 -0.14 0  0.3 -0.14 0  0.4 -0.14 0  0.5 -0.14 0  -0.5 -0.12 0  -0.4 -0.12 0  -0.3 -0.12 0  -0.2 -0.12 0  -0.09999999999999998 -0.12 0  0 -0.12 0  0.09999999999999998 -0.12 0  0.2 -0.12 0  0.3 -0.12 0  0.4 -0.12 0  0.5 -0.12 0  -0.5 -0.09999999999999998 0  -0.4 -0.09999999999999998 0  -0.3 -0.09999999999999998 0  -0.2 -0.09999999999999998 0  -0.09999999999999998 -0.09999999999999998 0  0 -0.09999999999999998 0  0.09999999999999998 -0.09999999999999998 0  0.2 -0.09999999999999998 0  0.3 -0.09999999999999998 0  0.4 -0.09999999999999998 0  0.5 -0.09999999999999998 0  -0.5 -0.07999999999999996 0  -0.4 -0.07999999999999996 0  -0.3 -0.07999999999999996 0  -0.2 -0.07999999999999996 0  -0.09999999999999998 -0.07999999999999996 0  0 -0.07999999999999996 0  0.09999999999999998 -0.07999999999999996 0  0.2 -0.07999999999999996 0  0.3 -0.07999999999999996 0  0.4 -0.07999999999999996 0  0.5 -0.07999999999999996 0  -0.5 -0.06000000000000005 0  -0.4 -0.06000000000000005 0  -0.3 -0.06000000000000005 0  -0.2 -0.06000000000000005 0  -0.09999999
[...]
<PointData  Scalars=" mean stress"> 
<DataArray  type="Float64"  Name=" mean stress"  format="ascii">2.6651216685978197e+06  2.6651216685978291e+06  2.6651216685978598e+06  2.6651216685978677e+06  2.6651216685978500e+06  2.6651216685978007e+06  2.6651216685978202e+06  2.6651216685977648e+06  2.6651216685977885e+06  2.6651216685977075e+06  2.6651216685978039e+06  2.6651216685978035e+06  2.6651216685978435e+06  2.6651216685979078e+06  2.6651216685979185e+06  2.6651216685978780e+06  2.6651216685978197e+06  2.6651216685978053e+06  2.6651216685977676e+06  2.6651216685977713e+06  2.6651216685976624e+06  2.6651216685977411e+06  2.6651216685977862e+06  2.6651216685978491e+06  2.6651216685979385e+06  2.6651216685979865e+06  2.6651216685979217e+06  2.6651216685978286e+06  2.6651216685978235e+06  2.6651216685977513e+06  2.6651216685977518e+06  2.6651216685976009e+06  2.6651216685976693e+06  2.6651216685978053e+06  2.6651216685978635e+06  2.6651216685979906e+06  2.6651216685980354e+06  2.6651216685979273e+06  2.6651216685978794e+06  2.6651216685978519e+06  2.6651216685977657e+06  2.6651216685977196e+06  2.6651216685975799e+06  2.6651216685976521e+06  2.6651216685978128e+06  2.6651216685978798e+06  2.6651216685980163e+06  2.6651216685980381e+06  2.6651216685979576e+06  2.6651216685979203e+06  2.6651216685978626e+06  2.6651216685977755e+06  2.6651216685976568e+06  2.6651216685975529e+06  2.6651216685976312e+06  2.6651216685978351e+06  2.6651216685979017e+06  2.6651216685980046e+06  2.6651216685980423e+06  2.6651216685980130e+06  2.6651216685979413e+06  2.6651216685978719e+06  2.6651216685977974e+06  2.6651216685976232e+06  2.6651216685975576e+06  2.6651216685975608e+06  2.6651216685978221e+06  2.6651216685978794e+06  2.6651216685980023e+06  2.6651216685980787e+06  2.6651216685979762e+06  2.6651216685978947e+06  2.6651216685978104e+06  2.6651216685977695e+06  2.6651216685975958e+06  2.6651216685974747e+06  2.6651216685975189e+06  2.6651216685977657e+06  2.6651216685978486e+06  2.6651216685980619e+06  2.6651216685981336e+06  2.6651216685979636e+06  2.6651216685979213e+06  2.6651216685977983e+06  2.6651216685977234e+06  2.6651216685976055e+06  2.6651216685974072e+06  2.6651216685974323e+06  2.6651216685977830e+06  2.6651216685978477e+06  2.6651216685980824e+06  2.6651216685981131e+06  2.6651216685980204e+06  2.6651216685979269e+06  2.6651216685978947e+06  2.6651216685977033e+06  2.6651216685975557e+06  2.6651216685973764e+06  2.6651216685974495e+06  2.6651216685978211e+06  2.6651216685979143e+06  2.6651216685981159e+06  2.6651216685981308e+06  2.6651216685980614e+06  2.6651216685979217e+06  2.6651216685980093e+06  2.6651216685977769e+06  2.6651216685975771e+06  2.6651216685974412e+06  2.6651216685974686e+06  2.6651216685978221e+06  2.6651216685979511e+06  2.6651216685981834e+06  2.6651216685981709e+06  2.6651216685980544e+06  2.6651216685978710e+06  2.6651216685979497e+06  2.6651216685977513e+06  2.6651216685975678e+06  2.6651216685974076e+06  2.6651216685974621e+06  2.6651216685978556e+06  2.6651216685979967e+06  2.6651216685982998e+06  2.6651216685982426e+06  2.6651216685980838e+06  2.6651216685978998e+06  2.6651216685979529e+06  2.6651216685977336e+06  2.6651216685976116e+06  2.6651216685973727e+06  2.6651216685974156e+06  2.6651216685978188e+06  2.6651216685980414e+06  2.6651216685983003e+06  2.6651216685981629e+06  2.6651216685980828e+06  2.6651216685979879e+06  2.6651216685979287e+06  2.6651216685977126e+06  2.6651216685975390e+06  2.6651216685973871e+06  2.6651216685974309e+06  2.6651216685977611e+06  2.6651216685980437e+06  2.6651216685982682e+06  2.6651216685981089e+06  2.6651216685980665e+06  2.6651216685980596e+06  2.6651216685978468e+06  2.6651216685976521e+06  2.6651216685975273e+06  2.6651216685973583e+06  2.6651216685973173e+06  2.6651216685978179e+06  2.6651216685979823e+06  2.6651216685982347e+06  2.6651216685981099e+06  2.6651216685980395e+06  2.6651216685980321e+06  2.6651216685977560e+06  2.6651216685978305e+06  2.6651216685975837e+06  2.6651216685973522e+06  2.6651216685974207e+06  2.6651216685978537e+06  2.6651216685980298e+06  2.6651216685981764e+06  2.6651216685981546e+06  2.6651216685981704e+06  2.6651216685980791e+06  2.6651216685978039e+06  2.6651216685977546e+06  2.6651216685975376e+06  2.6651216685974146e+06  2.6651216685974528e+06  2.6651216685978188e+06  2.6651216685981336e+06  2.6651216685982305e+06  2.6651216685981951e+06  2.6651216685981671e+06  2.6651216685980042e+06  2.6651216685976507e+06  2.6651216685976083e+06  2.6651216685975213e+06  2.6651216685973522e+06  2.6651216685975082e+06  2.6651216685977653e+06  2.6651216685980754e+06  2.6651216685983073e+06  2.6651216685981653e+06  2.6651216685981727e+06  2.6651216685980191e+06  2.6651216685975995e+06  2.6651216685974188e+06  2.6651216685973965e+06  2.6651216685973736e+06  2.6651216685976670e+06  2.6651216685978319e+06  2.6651216685980372e+06  2.6651216685984079e+06  2.6651216685981425e+06  2.6651216685982435e+06  2.6651216685979138e+06  2.6651216685976121e+06  2.6651216685973536e+06  2.6651216685973122e+06  2.6651216685974244e+06  2.6651216685975851e+06  2.6651216685978570e+06  2.6651216685979660e+06  2.6651216685983716e+06  2.6651216685982561e+06  2.6651216685981452e+06  2.6651216685978314e+06  2.6651216685977168e+06  2.6651216685974249e+06  2.6651216685972805e+06  2.6651216685973513e+06  2.6651216685975692e+06  2.6651216685979054e+06  2.6651216685979445e+06  2.6651216685982952e+06  2.6651216685983068e+06  2.6651216685980475e+06  2.6651216685978342e+06  2.6651216685978612e+06  2.6651216685974556e+06  2.6651216685973774e+06  2.6651216685974379e+06  2.6651216685974896e+06  2.6651216685978929e+06  2.6651216685979674e+06  2.6651216685983501e+06  2.6651216685982379e+06  2.6651216685979613e+06  2.6651216685978500e+06  2.6651216685977988e+06  2.6651216685978002e+06  2.6651216685974454e+06  2.6651216685974076e+06  2.6651216685977234e+06  2.6651216685979706e+06  2.6651216685979879e+06  2.6651216685982826e+06  2.6651216685982482e+06  2.6651216685979264e+06  2.6651216685978491e+06  2.6651216685976791e+06  2.6651216685980000e+06  2.6651216685975618e+06  2.6651216685973252e+06  2.6651216685977359e+06  2.6651216685979511e+06  2.6651216685980731e+06  2.6651216685983944e+06  2.6651216685984121e+06  2.6651216685978482e+06  2.6651216685980591e+06  2.6651216685977592e+06  2.6651216685979385e+06  2.6651216685975944e+06  2.6651216685974440e+06  2.6651216685975571e+06  2.6651216685980009e+06  2.6651216685980419e+06  2.6651216685983650e+06  2.6651216685982766e+06  2.6651216685979348e+06  2.6651216685980605e+06  2.6651216685980149e+06  2.6651216685979664e+06  2.6651216685975837e+06  2.6651216685973792e+06  2.6651216685976759e+06  2.6651216685977890e+06  2.6651216685979762e+06  2.6651216685984121e+06  2.6651216685981951e+06  2.6651216685981518e+06  2.6651216685980489e+06  2.6651216685982328e+06  2.6651216685978253e+06  2.6651216685975469e+06  2.6651216685973047e+06  2.6651216685977993e+06  2.6651216685976326e+06  2.6651216685978225e+06  2.6651216685983762e+06  2.6651216685982170e+06  2.6651216685982589e+06  2.6651216685981723e+06  2.6651216685982523e+06  2.6651216685978244e+06  2.6651216685977317e+06  2.6651216685974593e+06  2.6651216685977965e+06  2.6651216685976963e+06  2.6651216685979031e+06  2.6651216685987040e+06  2.6651216685984130e+06  2.6651216685984149e+06  2.6651216685981564e+06  2.6651216685980153e+06  2.6651216685976353e+06  2.6651216685977532e+06  2.6651216685975813e+06  2.6651216685977140e+06  2.6651216685976731e+06  2.6651216685980442e+06  2.6651216685987893e+06  2.6651216685984777e+06  2.6651216685986756e+06  2.6651216685982952e+06  2.6651216685978472e+06  2.6651216685976982e+06  2.6651216685978016e+06  2.6651216685978118e+06  2.6651216685975660e+06  2.6651216685977918e+06  2.6651216685979199e+06  2.6651216685985178e+06  2.6651216685982207e+06  2.6651216685982640e+06  2.6651216685980298e+06  2.6651216685979133e+06  2.6651216685979688e+06  2.6651216685978118e+06  2.6651216685978938e+06  2.6651216685977266e+06  2.6651216685979026e+06  2.6651216685978654e+06  2.6651216685982547e+06  2.6651216685981164e+06  2.6651216685982654e+06  2.6651216685980298e+06  2.6651216685979604e+06  2.6651216685980377e+06  2.6651216685976340e+06  2.6651216685976498e+06  2.6651216685977513e+06  2.6651216685976358e+06  2.6651216685980642e+06  2.6651216685979147e+06  2.6651216685982435e+06  2.6651216685982258e+06  2.6651216685980679e+06  2.6651216685980121e+06  2.6651216685980423e+06  2.6651216685975711e+06  2.6651216685976270e+06  2.6651216685979194e+06  2.6651216685970169e+06  2.6651216685978379e+06  2.6651216685975236e+06  2.6651216685978910e+06  2.6651216685979059e+06  2.6651216685976209e+06  2.6651216685973667e+06  2.6651216685973378e+06  2.6651216685971785e+06  2.6651216685970323e+06  2.6651216685972731e+06  2.6651216686012908e+06  2.6651216686017890e+06  2.6651216686018030e+06  2.6651216686021211e+06  2.6651216686019436e+06  2.6651216686020247e+06  2.6651216686015436e+06  2.6651216686010892e+06  2.6651216686016191e+06  2.6651216686011553e+06  2.6651216686014934e+06  2.6651216685839146e+06  2.6651216685841633e+06  2.6651216685842886e+06  2.6651216685845754e+06  2.6651216685838751e+06  2.6651216685842355e+06  2.6651216685835589e+06  2.6651216685832734e+06  2.6651216685840781e+06  2.6651216685835207e+06  2.6651216685838131e+06  2.6651216685186257e+06  2.6651216685187984e+06  2.6651216685188762e+06  2.6651216685189963e+06  2.6651216685185423e+06  2.6651216685187472e+06  2.6651216685186229e+06  2.6651216685182829e+06  2.6651216685185088e+06  2.6651216685181917e+06  2.6651216685186736e+06  2.6651216700941320e+06  2.6651216700943564e+06  2.6651216700945026e+06  2.6651216700944072e+06  2.6651216700942907e+06  2.6651216700938405e+06  2.6651216700944514e+06  2.6651216700940658e+06  2.6651216700939946e+06  2.6651216700937576e+06  2.6651216700942293e+06  2.6651216614519912e+06  2.6651216614523539e+06  2.6651216614526971e+06  2.6651216614525504e+06  2.6651216614525924e+06  2.6651216614521286e+06  2.6651216614523917e+06  2.6651216614523446e+06  2.6651216614521747e+06  2.6651216614518603e+06  2.6651216614525449e+06  2.6651216274499670e+06  2.6651216274505514e+06  2.6651216274506776e+06  2.6651216274508713e+06  2.6651216274506180e+06  2.6651216274502384e+06  2.6651216274496145e+06  2.6651216274504145e+06  2.6651216274502059e+06  2.6651216274501756e+06  2.6651216274502254e+06  2.6651223195907525e+06  2.6651223195888796e+06  2.6651223195910198e+06  2.6651223195898952e+06  2.6651223195903851e+06  2.6651223195900442e+06  2.6651223195895138e+06  2.6651223195894551e+06  2.6651223195904936e+06  2.6651223195890225e+06  2.6651223195909210e+06  2.6651219483060548e+06  2.6651219483178314e+06  2.6651219483089242e+06  2.6651219483151217e+06  2.6651219483113834e+06  2.6651219483135655e+06  2.6651219483110257e+06  2.6651219483148623e+06  2.6651219483080525e+06  2.6651219483181112e+06  2.6651219483062020e+06  2.6650784888821892e+06  2.6650784888031050e+06  2.6650784888609550e+06  2.6650784888256788e+06  2.6650784888444063e+06  2.6650784888365543e+06  2.6650784888444408e+06  2.6650784888258870e+06  2.6650784888598486e+06  2.6650784888033350e+06  2.6650784888827023e+06  2.6650578645902174e+06  2.6650578649948686e+06  2.6650578646374592e+06  2.6650578648034995e+06  2.6650578646812099e+06  2.6650578646936286e+06  2.6650578646813761e+06  2.6650578648035103e+06  2.6650578646368515e+06  2.6650578649946549e+06  2.6650578645905107e+06  2.6680334649471785e+06  2.6680334266800787e+06  2.6680334211476715e+06  2.6680334161786041e+06  2.6680334149816209e+06  2.6680334145722170e+06  2.6680334149821335e+06  2.6680334161788626e+06  2.6680334211477479e+06  2.6680334266802496e+06  2.6680334649470565e+06  2.6947808470501169e+06  2.6947792469509756e+06  2.6947789846254182e+06  2.6947789289129148e+06  2.6947789248754107e+06  2.6947789278257056e+06  2.6947789248757246e+06  2.6947789289130676e+06  2.6947789846257064e+06  2.6947792469513654e+06  2.6947808470501448e+06  2.8268333022771310e+06  2.8268055890417271e+06  2.8268031809696895e+06  2.8268030479050037e+06  2.8268030836954350e+06  2.8268030727615394e+06  2.8268030836953227e+06  2.8268030479046144e+06  2.8268031809699587e+06  2.8268055890420456e+06  2.8268333022775818e+06  3.2746665956675150e+06  3.2744533514443068e+06  3.2744461794130830e+06  3.2744466970413784e+06  3.2744465922853146e+06  3.2744466239719102e+06  3.2744465922855842e+06  3.2744466970414864e+06  3.2744461794128469e+06  3.2744533514446653e+06  3.2746665956677925e+06  4.4051581119738966e+06  4.4043665187477916e+06  4.4043664528092518e+06  4.4043655450519174e+06  4.4043658626200529e+06  4.4043657865663022e+06  4.4043658626207132e+06  4.4043655450520795e+06  4.4043664528085478e+06  4.4043665187483197e+06  4.4051581119741704e+06  6.6153696126746358e+06  6.6138055800311826e+06  6.6137988003023909e+06  6.6138033246211279e+06  6.6138025705354800e+06  6.6138027000164837e+06  6.6138025705358805e+06  6.6138033246210972e+06  6.6137988003019504e+06  6.6138055800321437e+06  6.6153696126745408e+06  1.0117242115966855e+07  1.0115494235854443e+07  1.0115584111629568e+07  1.0115575898543367e+07  1.0115576821915783e+07  1.0115576692097979e+07  1.0115576821915435e+07  1.0115575898543440e+07  1.0115584111629991e+07  1.0115494235855719e+07  1.0117242115967274e+07  1.3432070840294095e+07  1.3418779408882666e+07  1.3418755477157291e+07  1.3418752792606989e+07  1.3418752942428408e+07  1.3418752926728796e+07  1.3418752942427123e+07  1.3418752792606886e+07  1.3418755477159055e+07  1.3418779408882486e+07  1.3432070840294542e+07  2.6651216685978277e+06  2.6651216685978663e+06  2.6651216685979036e+06  2.6651216685978728e+06  2.6651216685978398e+06  2.6651216685978235e+06  2.6651216685977881e+06  2.6651216685977778e+06  2.6651216685977345e+06  2.6651216685977206e+06  2.6651216685978142e+06  2.6651216685978919e+06  2.6651216685979557e+06  2.6651216685979213e+06  2.6651216685978691e+06  2.6651216685978323e+06  2.6651216685977643e+06  2.6651216685977764e+06  2.6651216685976926e+06  2.6651216685976703e+06  2.6651216685978048e+06  2.6651216685979292e+06  2.6651216685980321e+06  2.6651216685979730e+06  2.6651216685978910e+06  2.6651216685978528e+06  2.6651216685977569e+06  2.6651216685977755e+06  2.6651216685976651e+06  2.6651216685976046e+06  2.6651216685977965e+06  2.6651216685979199e+06  2.6651216685980433e+06  2.6651216685979692e+06  2.6651216685978966e+06  2.6651216685978933e+06  2.6651216685977643e+06  2.6651216685977606e+06  2.6651216685976116e+06  2.6651216685975818e+06  2.6651216685978575e+06  2.6651216685979930e+06  2.6651216685980563e+06  2.6651216685980316e+06  2.6651216685979888e+06  2.6651216685979357e+06  2.6651216685977834e+06  2.6651216685977387e+06  2.6651216685975720e+06  2.6651216685975553e+06  2.6651216685978221e+06  2.6651216685979613e+06  2.6651216685980777e+06  2.6651216685980293e+06  2.6651216685979548e+06  2.6651216685979199e+06  2.6651216685977848e+06  2.6651216685977639e+06  2.6651216685975711e+06  2.6651216685974929e+06  2.6651216685977969e+06  2.6651216685979692e+06  2.6651216685980926e+06  2.6651216685980516e+06  2.6651216685979557e+06  2.6651216685978482e+06  2.6651216685977085e+06  2.6651216685977317e+06  2.6651216685975031e+06  2.6651216685974728e+06  2.6651216685977825e+06  2.6651216685980232e+06  2.6651216685981606e+06  2.6651216685980433e+06  2.6651216685979706e+06  2.6651216685978854e+06  2.6651216685976954e+06  2.6651216685976963e+06  2.6651216685974561e+06  2.6651216685974146e+06  2.6651216685977601e+06  2.6651216685979208e+06  2.6651216685980912e+06  2.6651216685981001e+06  2.6651216685979888e+06  2.6651216685979217e+06  2.6651216685978170e+06  2.6651216685977834e+06  2.6651216685974705e+06  2.6651216685974281e+06  2.6651216685978281e+06  2.6651216685981071e+06  2.6651216685982090e+06  2.6651216685981401e+06  2.6651216685980638e+06  2.6651216685979716e+06  2.6651216685978267e+06  2.6651216685976987e+06  2.6651216685973792e+06  2.6651216685974197e+06  2.6651216685978277e+06  2.6651216685981108e+06  2.6651216685982603e+06  2.6651216685981378e+06  2.6651216685979813e+06  2.6651216685979194e+06  2.6651216685978002e+06  2.6651216685977769e+06  2.6651216685974086e+06  2.6651216685973904e+06  2.6651216685978984e+06  2.6651216685982374e+06  2.6651216685983203e+06  2.6651216685981336e+06  2.6651216685980102e+06  2.6651216685979292e+06  2.6651216685978146e+06  2.6651216685977611e+06  2.6651216685974267e+06  2.6651216685974747e+06  2.6651216685978435e+06  2.6651216685982221e+06  2.6651216685982849e+06  2.6651216685981355e+06  2.6651216685981024e+06  2.6651216685980144e+06  2.6651216685977704e+06  2.6651216685976260e+06  2.6651216685973126e+06  2.6651216685974021e+06  2.6651216685978146e+06  2.6651216685981918e+06  2.6651216685982384e+06  2.6651216685981015e+06  2.6651216685980335e+06  2.6651216685978984e+06  2.6651216685977834e+06  2.6651216685977150e+06  2.6651216685973327e+06  2.6651216685973601e+06  2.6651216685977494e+06  2.6651216685981443e+06  2.6651216685983203e+06  2.6651216685981038e+06  2.6651216685980614e+06  2.6651216685979306e+06  2.6651216685977890e+06  2.6651216685977667e+06  2.6651216685973615e+06  2.6651216685974207e+06  2.6651216685978235e+06  2.6651216685981434e+06  2.6651216685982440e+06  2.6651216685981248e+06  2.6651216685980181e+06  2.6651216685978742e+06  2.6651216685977704e+06  2.6651216685976982e+06  2.6651216685974277e+06  2.6651216685975567e+06  2.6651216685978044e+06  2.6651216685983394e+06  2.6651216685983976e+06  2.6651216685981289e+06  2.6651216685981364e+06  2.6651216685978961e+06  2.6651216685976139e+06  2.6651216685975883e+06  2.6651216685972600e+06  2.6651216685974631e+06  2.6651216685978700e+06  2.6651216685983147e+06  2.6651216685984414e+06  2.6651216685981653e+06  2.6651216685980675e+06  2.6651216685977071e+06  2.6651216685973671e+06  2.6651216685974072e+06  2.6651216685972074e+06  2.6651216685974994e+06  2.6651216685977904e+06  2.6651216685983664e+06  2.6651216685983944e+06  2.6651216685980684e+06  2.6651216685980489e+06  2.6651216685978649e+06  2.6651216685976270e+06  2.6651216685974635e+06  2.6651216685971655e+06  2.6651216685975729e+06  2.6651216685977150e+06  2.6651216685982924e+06  2.6651216685984088e+06  2.6651216685980433e+06  2.6651216685980540e+06  2.6651216685977387e+06  2.6651216685974528e+06  2.6651216685975352e+06  2.6651216685971748e+06  2.6651216685975459e+06  2.6651216685976502e+06  2.6651216685983101e+06  2.6651216685984139e+06  2.6651216685980698e+06  2.6651216685980428e+06  2.6651216685978570e+06  2.6651216685976251e+06  2.6651216685975590e+06  2.6651216685973126e+06  2.6651216685976600e+06  2.6651216685977620e+06  2.6651216685982626e+06  2.6651216685982961e+06  2.6651216685979357e+06  2.6651216685980950e+06  2.6651216685977108e+06  2.6651216685976754e+06  2.6651216685979110e+06  2.6651216685971143e+06  2.6651216685975296e+06  2.6651216685978067e+06  2.6651216685985699e+06  2.6651216685985681e+06  2.6651216685980367e+06  2.6651216685981192e+06  2.6651216685978156e+06  2.6651216685977294e+06  2.6651216685978989e+06  2.6651216685972288e+06  2.6651216685975636e+06  2.6651216685977066e+06  2.6651216685984018e+06  2.6651216685986188e+06  2.6651216685979557e+06  2.6651216685981355e+06  2.6651216685979422e+06  2.6651216685977834e+06  2.6651216685979650e+06  2.6651216685972125e+06  2.6651216685976493e+06  2.6651216685978412e+06  2.6651216685983893e+06  2.6651216685983073e+06  2.6651216685978966e+06  2.6651216685983185e+06  2.6651216685981066e+06  2.6651216685979445e+06  2.6651216685978919e+06  2.6651216685971366e+06  2.6651216685977541e+06  2.6651216685975785e+06  2.6651216685983292e+06  2.6651216685983958e+06  2.6651216685979245e+06  2.6651216685984554e+06  2.6651216685981462e+06  2.6651216685980335e+06  2.6651216685981015e+06  2.6651216685971157e+06  2.6651216685976856e+06  2.6651216685975203e+06  2.6651216685983934e+06  2.6651216685986877e+06  2.6651216685981117e+06  2.6651216685984894e+06  2.6651216685979897e+06  2.6651216685977308e+06  2.6651216685980093e+06  2.6