<?xml version="1.0"?>
<VTKFile type="UnstructuredGrid"  version="0.1"  >
<UnstructuredGrid>
<Piece  NumberOfPoints="1661" NumberOfCells="3200">
<Points>
<DataArray  type="Float64"  NumberOfComponents="3"  format="ascii">-0.25 -1 0  -0.225 -1 0  -0.2 -1 0  -0.175 -1 0  -0.15 -1 0  -0.125 -1 0  -0.1 -1 0  -0.07500000000000001 -1 0  -0.04999999999999999 -1 0  -0.02499999999999999 -1 0  0 -1 0  0.02500000000000002 -1 0  0.04999999999999999 -1 0  0.07500000000000001 -1 0  0.09999999999999998 -1 0  0.125 -1 0  0.15 -1 0  0.175 -1 0  0.2 -1 0  0.225 -1 0  0.25 -1 0  -0.25 -0.975 0  -0.225 -0.975 0  -0.2 -0.975 0  -0.175 -0.975 0  -0.15 -0.975 0  -0.125 -0.975 0  -0.1 -0.975 0  -0.07500000000000001 -0.975 0  -0.04999999999999999 -0.975 0  -0.02499999999999999 -0.975 0  0 -0.975 0  0.02500000000000002 -0.975 0  0.04999999999999999 -0.975 0  0.07500000000000001 -0.975 0  0.09999999999999998 -0.975 0  0.125 -0.975 0  0.15 -0.975 0  0.175 -0.975 0  0.2 -0.975 0  0.225 -0.975 0  0.25 -0.975 0  -0.25 -0.95 0  -0.225 -0.95 0  -0.2 -0.95 0  -0.175 -0.95 0  -0.15 -0.95 0  -0.125 -0.95 0  -0.1 -0.95 0  -0.07500000000000001 -0.95 0  -0.04999999999999999 -0.95 0  -0.02499999999999999 -0.95 0  0 -0.95 0  0.02500000000000002 -0.95 0  0.04999999999999999 -0.95 0  0.07500000000000001 -0.95 0  0.09999999999999998 -0.95 0  0.125 -0.95 0  0.15 -0.95 0  0.175 -0.95 0  0.2 -0.95 0  0.225 -0.95 0  0.25 -0.95 0  -0.25 -0.925 0  -0.225 -0.925 0  -0.2 -0.925 0  -0.175 -0.925 0  -0.15 -0.925 0  -0.125 -0.925 0  -0.1 -0.925 0  -0.07500000000000001 -0.925 0  -0.04999999999999999 -0.925 0  -0.02499999999999999 -0.925 0  0 -0.925 0  0.02500000000000002 -0.925 0  0.04999999999999999 -0.925 0  0.07500000000000001 -0.925 0  0.09999999999999998 -0.925 0  0.125 -0.925 0  0.15 -0.925 0  0.175 -0.925 0  0.2 -0.925 0  0.225 -0.925 0  0.25 -0.925 0  -0.25 -0.9 0  -0.225 -0.9 0  -0.2 -0.9 0  -0.175 -0.9 0  -0.15 -0.9 0  -0.125 -0.9 0  -0.1 -0.9 0  -0.07500000000000001 -0.9 0  -0.04999999999999999 -0.9 0  -0.02499999999999999 -0.9 0  0 -0.9 0  0.02500000000000002 -0.9 0  0.04999999999999999 -0.9 0  0.07500000000000001 -0.9 0  0.09999999999999998 -0.9 0  0.125 -0.9 0  0.15 -0.9 0  0.175 -0.9 0  0.2 -0.9 0  0.225 -0.9 0  0.25 -0.9 0  -0.25 -0.875 0  -0.225 -0.875 0  -0.2 -0.875 0  -0.175 -0.875 0  -0.15 -0.875 0  -0.125 -0.875 0  -0.1 -0.875 0  -0.07500000000000001 -0.875 0  -0.04999999999999999 -0.875 0  -0.02499999999999999 -0.875 0  0 -0.875 0  0.02500000000000002 -0.875 0  0.04999999999999999 -0.875 0  0.07500000000000001 -0.875 0  0.09999999999999998 -0.875 0  0.125 -0.875 0  0.15 -0.875 0  0.175 -0.875 0  0.2 -0.875 0  0.225 -0.875 0  0.25 -0.875 0  -0.25 -0.85 0  -0.225 -0.85 0  -0.2 -0.85 0  -0.175 -0.85 0  -0.15 -0.85 0  -0.125 -0.85 0  -0.1 -0.85 0  -0.07500000000000001 -0.85 0  -0.04999999999999999 -0.85 0  -0.02499999999999999 -0.85 0  0 -0.85 0  0.02500000000000002 -0.85 0  0.04999999999999999 -0.85 0  0.07500000000000001 -0.85 0  0.09999999999999998 -0.85 0  0.125 -0.85 0  0.15 -0.85 0  0.175 -0.85 0  0.2 -0.85 0  0.225 -0.85 0  0.25 -0.85 0  -0.25 -0.825 0  -0.225 -0.825 0  -0.2 -0.825 0  -0.175 -0.825 0  -0.15 -0.825 0  -0.125 -0.825 0  -0.1 -0.825 0  -0.07500000000000001 -0.825 0  -0.04999999999999999 -0.825 0  -0.02499999999999999 -0.825 0  0 -0.825 0  0.02500000000000002 -0.825 0  0.04999999999999999 -0.825 0  0.07500000000000001 -0.825 0  0.09999999999999998 -0.825 0  0.125 -0.825 0  0.15 -0.825 0  0.175 -0.825 0  0.2 -0.825 0  0.225 -0.825 0  0.25 -0.825 0  -0.25 -0.8 0  -0.225 -0.8 0  -0.2 -0.8 0  -0.175 -0.8 0  -0.15 -0.8 0  -0.125 -0.8 0  -0.1 -0.8 0  -0.07500000000000001 -0.8 0  -0.04999999999999999 -0.8 0  -0.02499999999999999 -0.8 0  0 -0.8 0  0.02500000000000002 -0.8 0  0.04999999999999999 -0.8 0  0.07500000000000001 -0.8 0  0.09999999999999998 -0.8 0  0.125 -0.8 0  0.15 -0.8 0  0.175 -0.8 0  0.2 -0.8 0  0.225 -0.8 0  0.25 -0.8 0  -0.25 -0.775 0  -0.225 -0.775 0  -0.2 -0.775 0  -0.175 -0.775 0  -0.15 -0.775 0  -0.125 -0.775 0  -0.1 -0.775 0  -0.07500000000000001 -0.775 0  -0.04999999999999999 -0.775 0  -0.02499999999999999 -0.775 0  0 -0.775 0  0.02500000000000002 -0.775 0  0.04999999999999999 -0.775 0  0.07500000000000001 -0.775 0  0.09999999999999998 -0.775 0  0.125 -0.775 0  0.15 -0.775 0  0.175 -0.775 0  0.2 -0.775 0  0.225 -0.775 0  0.25 -0.775 0  -0.25 -0.75 0  -0.225 -0.75 0  -0.2 -0.75 0  -0.175 -0.75 0  -0.15 -0.75 0  -0.125 -0.75 0  -0.1 -0.75 0  -0.07500000000000001 -0.75 0  -0.04999999999999999 -0.75 0  -0.02499999999999999 -0.75 0  0 -0.75 0  0.02500000000000002 -0.75 0  0.04999999999999999 -0.75 0  0.07500000000000001 -0.75 0  0.09999999999999998 -0.75 0  0.125 -0.75 0  0.15 -0.75 0  0.175 -0.75 0  0.2 -0.75 0  0.225 -0.75 0  0.25 -0.75 0  -0.25 -0.725 0  -0.225 -0.725 0  -0.2 -0.725 0  -0.175 -0.725 0  -0.15 -0.725 0  -0.125 -0.725 0  -0.1 -0.725 0  -0.07500000000000001 -0.725 0  -0.04999999999999999 -0.725 0  -0.02499999999999999 -0.725 0  0 -0.725 0  0.02500000000000002 -0.725 0  0.04999999999999999 -0.725 0  0.07500000000000001 -0.725 0  0.09999999999999998 -0.725 0  0.125 -0.725 0  0.15 -0.725 0  0.175 -0.725 0  0.2 -0.725 0  0.225 -0.725 0  0.25 -0.725 0  -0.25 -0.7 0  -0.225 -0.7 0  -0.2 -0.7 0  -0.175 -0.7 0  -0.15 -0.7 0  -0.125 -0.7 0  -0.1 -0.7 0  -0.07500000000000001 -0.7 0  -0.04999999999999999 -0.7 0  -0.02499999999999999 -0.7 0  0 -0.7 0  0.02500000000000002 -0.7 0  0.04999999999999999 -0.7 0  0.07500000000000001 -0.7 0  0.09999999999999998 -0.7 0  0.125 -0.7 0  0.15 -0.7 0  0.175 -0.7 0  0.2 -0.7 0  0.225 -0.7 0  0.25 -0.7 0  -0.25 -0.675 0  -0.225 -0.675 0  -0.2 -0.675 0  -0.175 -0.675 0  -0.15 -0.675 0  -0.125 -0.675 0  -0.1 -0.675 0  -0.07500000000000001 -0.675 0  -0.04999999999999999 -0.675 0  -0.02499999999999999 -0.675 0  0 -0.675 0  0.02500000000000002 -0.675 0  0.04999999999999999 -0.675 0  0.07500000000000001 -0.675 0  0.09999999999999998 -0.675 0  0.125 -0.675 0  0.15 -0.675 0  0.175 -0.675 0  0.2 -0.675 0  0.225 -0.675 0  0.25 -0.675 0  -0.25 -0.65 0  -0.225 -0.65 0  -0.2 -0.65 0  -0.175 -0.65 0  -0.15 -0.65 0  -0.125 -0.65 0  -0.1 -0.65 0  -0.07500000000000001 -0.65 0  -0.04999999999999999 -0.65 0  -0.02499999999999999 -0.65 0  0 -0.65 0  0.02500000000000002 -0.65 0  0.04999999999999999 -0.65 0  0.07500000000000001 -0.65 0  0.09999999999999998 -0.65 0  0.125 -0.65 0  0.15 -0.65 0  0.175 -0.65 0  0.2 -0.65 0  0.225 -0.65 0  0.25 -0.65 0  -0.25 -0.625 0  -0.225 -0.625 0  -0.2 -0.625 0  -0.175 -0.625 0  -0.15 -0.625 0  -0.125 -0.625 0  -0.1 -0.625 0  -0.07500000000000001 -0.625 0  -0.04999999999999999 -0.625 0  -0.02499999999999999 -0.625 0  0 -0.625 0  0.02500000000000002 -0.625 0  0.04999999999999999 -0.625 0  0.07500000000000001 -0.625 0  0.09999999999999998 -0.625 0  0.125 -0.625 0  0.15 -0.625 0  0.175 -0.625 0  0.2 -0.625 0  0.225 -0.625 0  0.25 -0.625 0  -0.25 -0.6 0  -0.225 -0.6 0  -0.2 -0.6 0  -0.175 -0.6 0  -0.15 -0.6 0  -0.125 -0.6 0  -0.1 -0.6 0  -0.07500000000000001 -0.6 0  -0.04999999999999999 -0.6 0  -0.02499999999999999 -0.6 0  0 -0.6 0  0.02500000000000002 -0.6 0  0.04999999999999999 -0.6 0  0.07500000000000001 -0.6 0  0.09999999999999998 -0.6 0  0.125 -0.6 0  0.15 -0.6 0  0.175 -0.6 0  0.2 -0.6 0  0.225 -0.6 0  0.25 -0.6 0  -0.25 -0.575 0  -0.225 -0.575 0  -0.2 -0.575 0  -0.175 -0.575 0  -0.15 -0.575 0  -0.125 -0.575 0  -0.1 -0.575 0  -0.07500000000000001 -0.575 0  -0.04999999999999999 -0.575 0  -0.02499999999999999 -0.575 0  0 -0.575 0  0.02500000000000002 -0.575 0  0.04999999999999999 -0.575 0  0.07500000000000001 -0.575 0  0.09999999999999998 -0.575 0  0.125 -0.575 0  0.15 -0.575 0  0.175 -0.575 0  0.2 -0.575 0  0.225 -0.575 0  0.25 -0.575 0  -0.25 -0.55 0  -0.225 -0.55 0  -0.2 -0.55 0  -0.175 -0.55 0  -0.15 -0.55 0  -0.125 -0.55 0  -0.1 -0.55 0  -0.07500000000000001 -0.55 0  -0.04999999999999999 -0.55 0  -0.02499999999999999 -0.55 0  0 -0.55 0  0.02500000000000002 -0.55 0  0.04999999999999999 -0.55 0  0.07500000000000001 -0.55 0  0.09999999999999998 -0.55 0  0.125 -0.55 0  0.15 -0.55 0  0.175 -0.55 0  0.2 -0.55 0  0.225 -0.55 0  0.25 -0.55 0  -0.25 -0.525 0  -0.225 -0.525 0  -0.2 -0.525 0  -0.175 -0.525 0  -0.15 -0.525 0  -0.125 -0.525 0  -0.1 -0.525 0  -0.07500000000000001 -0.525 0  -0.04999999999999999 -0.525 0  -0.02499999999999999 -0.525 0  0 -0.525 0  0.02500000000000002 -0.525 0  0.04999999999999999 -0.525 0  0.07500000000000001 -0.525 0  0.09999999999999998 -0.525 0  0.125 -0.525 0  0.15 -0.525 0  0.175 -0.525 0  0.2 -0.525 0  0.225 -0.525 0  0.25 -0.525 0  -0.25 -0.5 0  -0.225 -0.5 0  -0.2 -0.5 0  -0.175 -0.5 0  -0.15 -0.5 0  -0.125 -0.5 0  -0.1 -0.5 0  -0.07500000000000001 -0.5 0  -0.04999999999999999 -0.5 0  -0.02499999999999999 -0.5 0  0 -0.5 0  0.02500000000000002 -0.5 0  0.04999999999999999 -0.5 0  0.07500000000000001 -0.5 0  0.09999999999999998 -0.5 0  0.125 -0.5 0  0.15 -0.5 0  0.175 -0.5 0  0.2 -0.5 0  0.225 -0.5 0  0.25 -0.5 0  -0.25 -0.475 0  -0.225 -0.475 0  -0.2 -0.475 0  -0.175 -0.475 0  -0.15 -0.475 0  -0.125 -0.475 0  -0.1 -0.475 0  -0.07500000000000001 -0.475 0  -0.04999999999999999 -0.475 0  -0.02499999999999999 -0.475 0  0 -0.475 0  0.02500000000000002 -0.475 0  0.04999999999999999 -0.475 0  0.07500000000000001 -0.475 0  0.09999999999999998 -0.475 0  0.125 -0.475 0  0.15 -0.475 0  0.175 -0.475 0  0.2 -0.475 0  0.225 -0.475 0  0.25 -0.475 0  -0.25 -0.45 0  -0.225 -0.45 0  -0.2 -0.45 0  -0.175 -0.45 0  -0.15 -0.45 0  -0.125 -0.45 0  -0.1 -0.45 0  -0.07500000000000001 -0.45 0  -0.04999999999999999 -0.45 0  -0.02499999999999999 -0.45 0  0 -0.45 0  0.02500000000000002 -0.45 0  0.04999999999999999 -0.45 0  0.07500000000000001 -0.45 0  0.09999999999999998 -0.45 0  0.125 -0.45 0  0.15 -0.45 0  0.175 -0.45 0  0.2 -0.45 0  0.225 -0.45 0  0.25 -0.45 0  -0.25 -0.425 0  -0.225 -0.425 0  -0.2 -0.425 0  -0.175 -0.425 0  -0.15 -0.425 0  -0.125 -0.425 0  -0.1 -0.425 0  -0.07500000000000001 -0.425 0  -0.04999999999999999 -0.425 0  -0.02499999999999999 -0.425 0  0 -0.425 0  0.02500000000000002 -0.425 0  0.04999999999999999 -0.425 0  0.07500000000000001 -0.425 0  0.
[...]
<PointData  Scalars=" mean stress"> 
<DataArray  type="Float64"  Name=" mean stress"  format="ascii">4.7722194353294641e+07  4.7722194353048258e+07  4.7722194353019945e+07  4.7722194353017122e+07  4.7722194353017554e+07  4.7722194353017583e+07  4.7722194353017733e+07  4.7722194353017785e+07  4.7722194353018038e+07  4.7722194353018090e+07  4.7722194353018366e+07  4.7722194353018641e+07  4.7722194353018880e+07  4.7722194353018984e+07  4.7722194353019185e+07  4.7722194353019238e+07  4.7722194353019446e+07  4.7722194353019111e+07  4.7722194353022143e+07  4.7722194353050567e+07  4.7722194353296928e+07  4.7723950459980294e+07  4.7723950458683416e+07  4.7723950458619855e+07  4.7723950458621860e+07  4.7723950458621599e+07  4.7723950458621733e+07  4.7723950458621830e+07  4.7723950458621912e+07  4.7723950458622091e+07  4.7723950458622403e+07  4.7723950458622470e+07  4.7723950458622850e+07  4.7723950458623029e+07  4.7723950458623357e+07  4.7723950458623335e+07  4.7723950458623469e+07  4.7723950458623610e+07  4.7723950458623961e+07  4.7723950458622128e+07  4.7723950458685733e+07  4.7723950459982626e+07  4.7729216073524952e+07  4.7729216067699112e+07  4.7729216067647137e+07  4.7729216067646556e+07  4.7729216067646794e+07  4.7729216067646958e+07  4.7729216067646988e+07  4.7729216067647204e+07  4.7729216067647241e+07  4.7729216067647435e+07  4.7729216067647822e+07  4.7729216067648172e+07  4.7729216067648374e+07  4.7729216067648478e+07  4.7729216067648649e+07  4.7729216067648679e+07  4.7729216067648925e+07  4.7729216067648880e+07  4.7729216067649618e+07  4.7729216067701600e+07  4.7729216073527381e+07  4.7737983074166112e+07  4.7737983060958110e+07  4.7737983060905106e+07  4.7737983060905315e+07  4.7737983060905255e+07  4.7737983060905457e+07  4.7737983060905479e+07  4.7737983060905613e+07  4.7737983060905866e+07  4.7737983060906038e+07  4.7737983060906410e+07  4.7737983060906596e+07  4.7737983060906857e+07  4.7737983060907222e+07  4.7737983060907282e+07  4.7737983060907528e+07  4.7737983060907401e+07  4.7737983060907714e+07  4.7737983060907543e+07  4.7737983060960881e+07  4.7737983074168846e+07  4.7750237943876952e+07  4.7750237920380734e+07  4.7750237920329064e+07  4.7750237920329206e+07  4.7750237920329176e+07  4.7750237920329213e+07  4.7750237920329362e+07  4.7750237920329668e+07  4.7750237920329832e+07  4.7750237920329973e+07  4.7750237920330293e+07  4.7750237920330450e+07  4.7750237920330919e+07  4.7750237920331158e+07  4.7750237920331128e+07  4.7750237920331597e+07  4.7750237920331709e+07  4.7750237920331545e+07  4.7750237920331672e+07  4.7750237920383319e+07  4.7750237943879679e+07  4.7765961786467001e+07  4.7765961749863677e+07  4.7765961749813341e+07  4.7765961749813363e+07  4.7765961749813668e+07  4.7765961749813721e+07  4.7765961749813877e+07  4.7765961749813877e+07  4.7765961749814078e+07  4.7765961749814615e+07  4.7765961749814376e+07  4.7765961749815077e+07  4.7765961749815144e+07  4.7765961749815300e+07  4.7765961749815740e+07  4.7765961749815606e+07  4.7765961749815881e+07  4.7765961749816008e+07  4.7765961749816149e+07  4.7765961749866135e+07  4.7765961786469862e+07  4.7785130356848009e+07  4.7785130304400936e+07  4.7785130304352693e+07  4.7785130304352812e+07  4.7785130304352753e+07  4.7785130304353006e+07  4.7785130304353334e+07  4.7785130304353282e+07  4.7785130304353543e+07  4.7785130304353461e+07  4.7785130304353818e+07  4.7785130304354221e+07  4.7785130304354198e+07  4.7785130304354638e+07  4.7785130304354690e+07  4.7785130304354623e+07  4.7785130304355189e+07  4.7785130304355197e+07  4.7785130304355390e+07  4.7785130304403678e+07  4.7785130356850676e+07  4.7807714098392837e+07  4.7807714027471788e+07  4.7807714027425371e+07  4.7807714027425408e+07  4.7807714027425647e+07  4.7807714027425453e+07  4.7807714027425840e+07  4.7807714027426071e+07  4.7807714027426265e+07  4.7807714027426504e+07  4.7807714027426787e+07  4.7807714027426653e+07  4.7807714027427204e+07  4.7807714027427517e+07  4.7807714027427703e+07  4.7807714027428046e+07  4.7807714027427830e+07  4.7807714027428024e+07  4.7807714027428120e+07  4.7807714027474314e+07  4.7807714098395519e+07  4.7833678188516751e+07  4.7833678096611306e+07  4.7833678096567363e+07  4.7833678096567616e+07  4.7833678096567251e+07  4.7833678096567832e+07  4.7833678096567668e+07  4.7833678096568063e+07  4.7833678096568376e+07  4.7833678096568294e+07  4.7833678096568801e+07  4.7833678096569002e+07  4.7833678096569486e+07  4.7833678096569553e+07  4.7833678096569687e+07  4.7833678096569858e+07  4.7833678096569762e+07  4.7833678096570320e+07  4.7833678096569911e+07  4.7833678096614242e+07  4.7833678188519403e+07  4.7862982592368096e+07  4.7862982477107100e+07  4.7862982477065869e+07  4.7862982477065966e+07  4.7862982477065638e+07  4.7862982477066018e+07  4.7862982477066018e+07  4.7862982477066338e+07  4.7862982477066405e+07  4.7862982477066629e+07  4.7862982477066517e+07  4.7862982477067307e+07  4.7862982477067091e+07  4.7862982477067448e+07  4.7862982477067932e+07  4.7862982477067932e+07  4.7862982477068692e+07  4.7862982477068111e+07  4.7862982477068461e+07  4.7862982477109931e+07  4.7862982592370726e+07  4.7895582124563992e+07  4.7895581983728930e+07  4.7895581983690560e+07  4.7895581983690374e+07  4.7895581983690523e+07  4.7895581983690463e+07  4.7895581983690709e+07  4.7895581983690619e+07  4.7895581983690798e+07  4.7895581983691506e+07  4.7895581983691864e+07  4.7895581983691901e+07  4.7895581983692154e+07  4.7895581983692907e+07  4.7895581983692124e+07  4.7895581983693227e+07  4.7895581983692579e+07  4.7895581983692899e+07  4.7895581983693056e+07  4.7895581983731069e+07  4.7895582124566115e+07  4.7931426518858597e+07  4.7931426350399718e+07  4.7931426350364901e+07  4.7931426350365154e+07  4.7931426350365497e+07  4.7931426350364916e+07  4.7931426350365274e+07  4.7931426350365177e+07  4.7931426350365713e+07  4.7931426350365512e+07  4.7931426350366041e+07  4.7931426350365907e+07  4.7931426350366391e+07  4.7931426350366026e+07  4.7931426350366853e+07  4.7931426350366399e+07  4.7931426350367226e+07  4.7931426350367308e+07  4.7931426350367211e+07  4.7931426350402661e+07  4.7931426518861935e+07  4.7970460505658954e+07  4.7970460307706177e+07  4.7970460307673313e+07  4.7970460307673074e+07  4.7970460307673931e+07  4.7970460307673894e+07  4.7970460307673901e+07  4.7970460307674140e+07  4.7970460307673968e+07  4.7970460307674460e+07  4.7970460307674602e+07  4.7970460307674795e+07  4.7970460307675079e+07  4.7970460307675131e+07  4.7970460307675861e+07  4.7970460307675496e+07  4.7970460307675660e+07  4.7970460307675749e+07  4.7970460307676256e+07  4.7970460307707831e+07  4.7970460505660936e+07  4.8012623897236355e+07  4.8012623668111175e+07  4.8012623668083452e+07  4.8012623668083653e+07  4.8012623668083116e+07  4.8012623668083891e+07  4.8012623668083496e+07  4.8012623668083780e+07  4.8012623668084107e+07  4.8012623668083951e+07  4.8012623668084353e+07  4.8012623668084987e+07  4.8012623668084994e+07  4.8012623668086253e+07  4.8012623668085285e+07  4.8012623668086052e+07  4.8012623668085650e+07  4.8012623668086007e+07  4.8012623668085948e+07  4.8012623668115005e+07  4.8012623897238970e+07  4.8057851680543751e+07  4.8057851418774828e+07  4.8057851418749228e+07  4.8057851418749593e+07  4.8057851418749467e+07  4.8057851418749355e+07  4.8057851418750167e+07  4.8057851418749578e+07  4.8057851418750532e+07  4.8057851418750107e+07  4.8057851418750204e+07  4.8057851418751024e+07  4.8057851418751255e+07  4.8057851418750972e+07  4.8057851418751433e+07  4.8057851418751612e+07  4.8057851418751843e+07  4.8057851418752290e+07  4.8057851418751895e+07  4.8057851418777034e+07  4.8057851680546835e+07  4.8106074117455348e+07  4.8106073821779266e+07  4.8106073821758166e+07  4.8106073821758121e+07  4.8106073821758166e+07  4.8106073821758248e+07  4.8106073821758375e+07  4.8106073821759082e+07  4.8106073821758419e+07  4.8106073821759477e+07  4.8106073821759008e+07  4.8106073821759582e+07  4.8106073821760014e+07  4.8106073821759805e+07  4.8106073821760193e+07  4.8106073821760334e+07  4.8106073821760811e+07  4.8106073821760468e+07  4.8106073821760945e+07  4.8106073821781874e+07  4.8106074117458194e+07  4.8157216852300458e+07  4.8157216521676384e+07  4.8157216521659441e+07  4.8157216521659233e+07  4.8157216521659613e+07  4.8157216521658964e+07  4.8157216521659255e+07  4.8157216521659628e+07  4.8157216521659933e+07  4.8157216521660529e+07  4.8157216521661349e+07  4.8157216521660723e+07  4.8157216521660611e+07  4.8157216521661259e+07  4.8157216521660522e+07  4.8157216521661334e+07  4.8157216521661475e+07  4.8157216521661341e+07  4.8157216521661945e+07  4.8157216521679066e+07  4.8157216852303579e+07  4.8211201026517004e+07  4.8211200660130136e+07  4.8211200660116389e+07  4.8211200660116360e+07  4.8211200660115957e+07  4.8211200660117246e+07  4.8211200660116948e+07  4.8211200660116635e+07  4.8211200660117008e+07  4.8211200660116404e+07  4.8211200660117529e+07  4.8211200660118178e+07  4.8211200660118245e+07  4.8211200660117567e+07  4.8211200660118289e+07  4.8211200660118356e+07  4.8211200660118788e+07  4.8211200660119370e+07  4.8211200660118766e+07  4.8211200660132430e+07  4.8211201026518583e+07  4.8267943400246121e+07  4.8267942997510001e+07  4.8267942997500472e+07  4.8267942997501075e+07  4.8267942997501150e+07  4.8267942997501843e+07  4.8267942997501209e+07  4.8267942997502126e+07  4.8267942997501910e+07  4.8267942997502193e+07  4.8267942997501597e+07  4.8267942997502156e+07  4.8267942997502901e+07  4.8267942997502923e+07  4.8267942997503936e+07  4.8267942997503057e+07  4.8267942997503236e+07  4.8267942997503042e+07  4.8267942997503050e+07  4.8267942997512877e+07  4.8267943400247537e+07  4.8327356480679043e+07  4.8327356041247047e+07  4.8327356041242197e+07  4.8327356041242279e+07  4.8327356041242175e+07  4.8327356041242205e+07  4.8327356041242912e+07  4.8327356041242614e+07  4.8327356041243084e+07  4.8327356041243628e+07  4.8327356041243404e+07  4.8327356041243501e+07  4.8327356041243620e+07  4.8327356041243784e+07  4.8327356041243963e+07  4.8327356041244462e+07  4.8327356041244499e+07  4.8327356041244246e+07  4.8327356041243859e+07  4.8327356041249759e+07  4.8327356480683580e+07  4.8389348656978659e+07  4.8389348180733435e+07  4.8389348180731088e+07  4.8389348180732012e+07  4.8389348180732250e+07  4.8389348180732086e+07  4.8389348180732012e+07  4.8389348180732355e+07  4.8389348180732921e+07  4.8389348180733137e+07  4.8389348180733256e+07  4.8389348180734053e+07  4.8389348180733383e+07  4.8389348180735014e+07  4.8389348180734456e+07  4.8389348180734761e+07  4.8389348180734813e+07  4.8389348180734590e+07  4.8389348180735163e+07  4.8389348180735856e+07  4.8389348656982683e+07  4.8453824341520309e+07  4.8453823828582510e+07  4.8453823828585133e+07  4.8453823828584999e+07  4.8453823828585744e+07  4.8453823828585044e+07  4.8453823828586370e+07  4.8453823828585967e+07  4.8453823828586526e+07  4.8453823828586519e+07  4.8453823828587279e+07  4.8453823828587219e+07  4.8453823828587085e+07  4.8453823828587689e+07  4.8453823828587219e+07  4.8453823828587420e+07  4.8453823828587517e+07  4.8453823828587741e+07  4.8453823828588136e+07  4.8453823828585163e+07  4.8453824341523014e+07  4.8520684117296495e+07  4.8520683568019435e+07  4.8520683568026774e+07  4.8520683568025753e+07  4.8520683568027623e+07  4.8520683568026751e+07  4.8520683568027563e+07  4.8520683568026707e+07  4.8520683568026610e+07  4.8520683568027347e+07  4.8520683568028204e+07  4.8520683568028063e+07  4.8520683568028130e+07  4.8520683568028107e+07  4.8520683568029530e+07  4.8520683568029031e+07  4.8520683568028897e+07  4.8520683568029359e+07  4.8520683568029381e+07  4.8520683568024166e+07  4.8520684117298663e+07  4.8589824891200818e+07  4.8589824306171671e+07  4.8589824306182660e+07  4.8589824306183577e+07  4.8589824306182168e+07  4.8589824306185260e+07  4.8589824306181937e+07  4.8589824306184523e+07  4.8589824306183107e+07  4.8589824306183100e+07  4.8589824306183137e+07  4.8589824306183875e+07  4.8589824306185521e+07  4.8589824306184821e+07  4.8589824306185029e+07  4.8589824306184992e+07  4.8589824306184500e+07  4.8589824306185476e+07  4.8589824306185104e+07  4.8589824306174830e+07  4.8589824891204096e+07  4.8661140053003706e+07  4.8661139433034182e+07  4.8661139433046609e+07  4.8661139433048323e+07  4.8661139433047540e+07  4.8661139433048055e+07  4.8661139433048390e+07  4.8661139433047064e+07  4.8661139433048725e+07  4.8661139433048166e+07  4.8661139433049262e+07  4.8661139433048859e+07  4.8661139433049299e+07  4.8661139433050305e+07  4.8661139433050014e+07  4.8661139433051042e+07  4.8661139433050476e+07  4.8661139433050007e+07  4.8661139433050819e+07  4.8661139433036596e+07  4.8661140053006932e+07  4.8734519639729947e+07  4.8734518985847980e+07  4.8734518985865436e+07  4.8734518985864267e+07  4.8734518985864535e+07  4.8734518985863440e+07  4.8734518985866524e+07  4.8734518985865571e+07  4.8734518985866070e+07  4.8734518985866465e+07  4.8734518985866383e+07  4.8734518985867172e+07  4.8734518985867448e+07  4.8734518985867739e+07  4.8734518985867254e+07  4.8734518985866636e+07  4.8734518985867821e+07  4.8734518985867478e+07  4.8734518985867985e+07  4.8734518985849857e+07  4.8734519639732502e+07  4.8809850505210035e+07  4.8809849818661764e+07  4.8809849818682998e+07  4.8809849818682596e+07  4.8809849818683945e+07  4.8809849818683438e+07  4.8809849818682775e+07  4.8809849818684824e+07  4.8809849818683885e+07  4.8809849818684831e+07  4.8809849818685062e+07  4.8809849818685181e+07  4.8809849818684563e+07  4.8809849818684831e+07  4.8809849818685755e+07  4.8809849818685032e+07  4.8809849818686247e+07  4.8809849818685882e+07  4.8809849818686903e+07  4.8809849818665184e+07  4.8809850505213052e+07  4.8887016494560704e+07  4.8887015776792631e+07  4.8887015776817702e+07  4.8887015776817620e+07  4.8887015776817225e+07  4.8887015776817203e+07  4.8887015776817642e+07  4.8887015776817441e+07  4.8887015776817746e+07  4.8887015776818588e+07  4.8887015776816942e+07  4.8887015776818804e+07  4.8887015776818521e+07  4.8887015776819527e+07  4.8887015776819780e+07  4.8887015776820011e+07  4.8887015776819445e+07  4.8887015776819520e+07  4.8887015776820078e+07  4.8887015776796214e+07  4.8887016494562715e+07  4.8965898623272613e+07  4.8965897875926644e+07  4.8965897875954747e+07  4.8965897875954993e+07  4.8965897875953570e+07  4.8965897875954472e+07  4.8965897875953421e+07  4.8965897875953987e+07  4.8965897875954270e+07  4.8965897875953004e+07  4.8965897875955403e+07  4.8965897875954233e+07  4.8965897875955515e+07  4.8965897875954576e+07  4.8965897875955179e+07  4.8965897875954695e+07  4.8965897875955090e+07  4.8965897875957146e+07  4.8965897875955142e+07  4.8965897875929147e+07  4.8965898623273797e+07  4.9046375260680497e+07  4.9046374485582396e+07  4.9046374485611081e+07  4.9046374485611133e+07  4.9046374485612005e+07  4.9046374485612392e+07  4.9046374485613093e+07  4.9046374485612065e+07  4.9046374485611692e+07  4.9046374485613346e+07  4.9046374485611387e+07  4.9046374485612698e+07  4.9046374485613704e+07  4.9046374485613696e+07  4.9046374485613950e+07  4.9046374485614955e+07  4.9046374485615216e+07  4.9046374485614032e+07  4.9046374485613808e+07  4.9046374485583723e+07  4.9046375260683335e+07  4.9128322317523420e+07  4.9128321516661502e+07  4.9128321516695492e+07  4.9128321516694710e+07  4.9128321516695209e+07  4.9128321516694382e+07  4.9128321516694315e+07  4.9128321516694501e+07  4.9128321516694985e+07  4.9128321516696341e+07  4.9128321516695112e+07  4.9128321516697071e+07  4.9128321516696505e+07  4.9128321516697757e+07  4.9128321516696237e+07  4.9128321516697228e+07  4.9128321516697243e+07  4.9128321516697258e+07  4.9128321516697437e+07  4.9128321516662993e+07  4.9128322317525983e+07  4.9211613437253401e+07  4.9211612612783164e+07  4.9211612612819314e+07  4.9211612612818018e+07  4.9211612612818524e+07  4.9211612612817846e+07  4.9211612612819344e+07  4.9211612612818994e+07  4.9211612612819709e+07  4.9211612612818457e+07  4.9211612612820461e+07  4.9211612612819202e+07  4.9211612612819493e+07  4.9211612612820312e+07  4.9211612612820335e+07  4.9211612612819768e+07  4.9211612612820238e+07  4.9211612612819426e+07  4.9211612612820588e+07  4.9211612612785198e+07  4.9211613437255926e+07  4.9296120190900415e+07  4.9296119345112115e+07  4.9296119345149606e+07  4.9296119345150709e+07  4.9296119345151819e+07  4.9296119345150046e+07  4.9296119345150322e+07  4.9296119345151037e+07  4.9296119345150717e+07  4.9296119345151633e+07  4.9296119345152013e+07  4.9296119345150173e+07  4.9296119345151789e+07  4.9296119345150337e+07  4.9296119345152311e+07  4.9296119345151283e+07  4.9296119345151186e+07  4.9296119345152415e+07  4.9296119345152676e+07  4.9296119345115870e+07  4.9296120190901011e+07  4.9381712275079064e+07  4.9381711410393111e+07  4.9381711410433501e+07  4.9381711410434097e+07  4.9381711410433389e+07  4.9381711410434619e+07  4.9381711410433099e+07  4.9381711410433047e+07  4.9381711410434186e+07  4.9381711410433471e+07  4.9381711410432927e+07  4.9381711410434604e+07  4.9381711410434529e+07  4.9381711410435475e+07  4.9381711410434455e+07  4.9381711410437323e+07  4.9381711410436228e+07  4.9381711410437040e+07  4.9381711410435788e+07  4.9381711410396785e+07  4.9381712275081791e+07  4.9468257712915696e+07  4.9468256831868477e+07  4.9468256831907541e+07  4.9468256831909396e+07  4.9468256831906818e+07  4.9468256831908591e+07  4.9468256831908822e+07  4.9468256831908241e+07  4.9468256831909224e+07  4.9468256831908457e+07  4.9468256831908517e+07  4.9468256831909172e+07  4.9468256831908859e+07  4.9468256831910260e+07  4.9468256831909098e+07  4.9468256831909075e+07  4.9468256831909969e+07  4.9468256831909418e+07  4.9468256831910655e+07  4.9468256831869140e+07  4.9468257712921448e+07  4.9555623057553664e+07  4.9555622162764668e+07  4.9555622162806436e+07  4.9555622162805863e+07  4.9555622162805788e+07  4.9555622162806295e+07  4.9555622162807234e+07  4.9555622162808247e+07  4.9555622162806883e+07  4.9555622162808068e+07  4.9555622162807837e+07  4.9555622162809052e+07  4.9555622162808262e+07  4.9555622162806913e+07  4.9555622162809178e+07  4.9555622162808344e+07  4.9555622162809968e+07  4.9555622162809402e+07  4.9555622162810266e+07  4.9555622162766740e+07  4.9555623057554647e+07  4.9643673597896777e+07  4.9643672692077242e+07  4.9643672692121856e+07  4.9643672692119658e+07  4.9643672692120373e+07  4.9643672692118876e+07  4.9643672692121416e+07  4.9643672692121089e+07  4.9643672692122564e+07  4.9643672692123249e+07  4.9643672692122571e+07  4.9643672692123033e+07  4.9643672692121014e+07  4.9643672692122974e+07  4.9643672692121893e+07  4.9643672692123100e+07  4.9643672692121685e+07  4.9643672692123085e+07  4.9643672692121834e+07  4.9643672692079097e+07  4.9643673597897023e+07  4.9732273566358835e+07  4.9732272652275167e+07  4.9732272652318813e+07  4.9732272652317531e+07  4.9732272652319118e+07  4.9732272652317248e+07  4.9732272652316324e+07  4.9732272652316548e+07  4.9732272652318768e+07  4.9732272652317047e+07  4.9732272652319945e+07  4.9732272652317688e+07  4.9732272652319916e+07  4.9732272652318977e+07  4.9732272652318902e+07  4.9732272652318582e+07  4.9732272652319372e+07  4.9732272652319416e+07  4.9732272652320385e+07  4.9732272652276404e+07  4.9732273566358984e+07  4.9821286348176539e+07  4.9821285428636722e+07  4.9821285428680800e+07  4.9821285428680740e+07  4.9821285428679332e+07  4.9821285428680591e+07  4.9821285428679645e+07  4.9821285428680725e+07  4.9821285428678960e+07  4.9821285428679138e+07  4.9821285428679824e+07  4.9821285428680561e+07  4.9821285428680934e+07  4.9821285428679720e+07  4.9821285428680867e+07  4.9821285428680815e+07  4.9821285428680256e+07  4.9821285428679474e+07  4.9821285428680070e+07  4.9821285428635195e+07  4.9821286348176092e+07  4.9910574692063801e+07  4.9910573769924805e+07  4.9910573769959062e+07  4.9910573769959152e+07  4.9910573769958071e+07  4.9910573769957647e+07  4.9910573769957080e+07  4.9910573769958802e+07  4.9910573769958571e+07  4.9910573769959673e+07  4.9