<?xml version="1.0"?>
<VTKFile type="UnstructuredGrid"  version="0.1"  >
<UnstructuredGrid>
<Piece  NumberOfPoints="842" NumberOfCells="1558">
<Points>
<DataArray  type="Float64"  NumberOfComponents="3"  format="ascii">-0.0276663799715744 -0.01092484037076335 0  -0.02564535436017864 -0.01084511294647212 0  -0.02670367363770539 -0.009673121330096374 0  -0.005263160237910004 -0.02021752904783427 0  -0.007142011617282996 -0.01910283839912953 0  -0.005721283706472954 -0.01885557948612299 0  -0.0281698471591208 -0.02275267842199816 0  -0.02903513146439706 -0.02434883282751898 0  -0.02995923345153408 -0.02281962011159115 0  -0.02194671231853508 -0.02685161179016307 0  -0.01998381313981156 -0.02559788065223443 0  -0.02251591588925926 -0.02534187964809537 0  -0.01232728691104433 -0.02110916578981165 0  -0.01088465027479771 -0.02276583133720164 0  -0.01252602534445095 -0.02273869080129673 0  0.005715900577929808 -0.01040157292959515 0  0.004247300133094481 -0.009831459016042156 0  0.004907604482269278 -0.01163228449796421 0  -0.03410210568064787 -0.008693516596393575 0  -0.03379801363784417 -0.0103885645650361 0  -0.03562726343960552 -0.009426495186475627 0  0.006078421240027776 -0.01533115251916825 0  0.007761962215727216 -0.01436391407193771 0  0.007560746450350726 -0.01596246015309179 0  -7.74643124966494e-05 -0.01210497681433211 0  0.002001407188016981 -0.01282170755437008 0  0.0005044285752298626 -0.01379044141987053 0  -0.00554502207324609 -0.01082482616207859 0  -0.006966384852671079 -0.01037459975243556 0  -0.007325780537656768 -0.01169056999739311 0  0.0002817996959115863 -0.02849048409288438 0  -0.000521210781477624 -0.03017876919236858 0  -0.001093500833290798 -0.02871309477119382 0  -0.03855671686840088 -0.01158279252224793 0  -0.03682332408031391 -0.01225302138555511 0  -0.0368905664630186 -0.01067239776272578 0  -0.03477498087981482 -0.02000619738968918 0  -0.03576754543181598 -0.02199302756157714 0  -0.0368712770501877 -0.02020029047180321 0  -0.04703432812742372 -0.02574389618985774 0  -0.04510990978682888 -0.02604639913600089 0  -0.04632952237384835 -0.02712048465619426 0  -0.002527586879520364 -0.00629891729928651 0  -0.0001503063646937945 -0.006276275587524281 0  -0.001326895479615754 -0.004595719664517121 0  -0.0391644784367541 -0.01475132581728818 0  -0.03830472500445715 -0.01681657123351652 0  -0.03747211747330889 -0.01525838136698858 0  -0.04075246902758298 -0.009218971500852071 0  -0.0390524324035903 -0.007885807867200442 0  -0.03901033695063318 -0.009802432939280079 0  0.003472222222222224 -0.02569444444444444 0  0.0056511112593847 -0.02488019662884799 0  0.003895180821987836 -0.0236393607118779 0  -0.008984816994941665 -0.02386872512578754 0  -0.01047523617110418 -0.02424834223494819 0  -0.008755951219614224 -0.02540612226970509 0  -0.02607827560230913 -0.005825920664671352 0  -0.02366594197767203 -0.005292891736900223 0  -0.0244176916399364 -0.007091582381241824 0  -0.02367778516049199 -0.03017364301424246 0  -0.02386650680183691 -0.02796326546759065 0  -0.02530794991191344 -0.02877131804044909 0  -0.01141704038127351 -0.0167818866184824 0  -0.01018001736303466 -0.01731677346741527 0  -0.01092651995755553 -0.01555498543504074 0  0.001146640918992101 -0.03102340112947342 0  0.002374909778313783 -0.03024414641598028 0  0.0007456373584565139 -0.02974621554810341 0  -0.04340535430000796 -0.0269894710178804 0  -0.04155359187777521 -0.02721283122394998 0  -0.04292416821868097 -0.02527853614675298 0  -0.0359068175526368 -0.02378498890761314 0  -0.0344744899149291 -0.02368696530563707 0  -0.03869629983246461 -0.02993079031598002 0  -0.04001755749432813 -0.03154569960410863 0  -0.03773880776055265 -0.03135466038045543 0  -0.01519286889167067 -0.02524713998052752 0  -0.01372769770201255 -0.02474768454376013 0  -0.01539547060946176 -0.02382892795598995 0  -0.01339366522435274 -0.01536013878562232 0  -0.01394780381623048 -0.01383273374796204 0  -0.01490915618241073 -0.01544996258508927 0  -0.02045411777499171 -0.02137437814389278 0  -0.01808827066958148 -0.02161702253189069 0  -0.01944913613402156 -0.02323068114780422 0  -0.02083333333333333 -0.02916666666666667 0  -0.01996045286964509 -0.02732161636951317 0  -0.01948607568027211 -0.02870451566043084 0  7.979462213787225e-05 -0.02582162422291141 0  -0.0009137538293355649 -0.02723890034088429 0  -0.001688252126561377 -0.02596267815987898 0  -0.02992158084177625 -0.03174834582032531 0  -0.03167994964754182 -0.03258206454415181 0  -0.03225438180362809 -0.03107962040142952 0  -0.0332818926824345 -0.03653956979812621 0  -0.03199324472616771 -0.03821759015296883 0  -0.03208329558284936 -0.0356823713947898 0  -0.04681050916597652 -0.03624892877251493 0  -0.04845991064854558 -0.03673512378254998 0  -0.04871075467533732 -0.03533381496454418 0  -0.01532173405145471 -0.01057512148167935 0  -0.01329391795258302 -0.01114439183113224 0  -0.01330341998558062 -0.00913423680360549 0  -0.007685836574511986 -0.007395433330292244 0  -0.009035679641316699 -0.005678099849451732 0  -0.009317707561007742 -0.00723817591573791 0  -0.001242692848311552 -0.02453787375321078 0  0.0002330144247192046 -0.02434070912065012 0  -0.02842807177184132 -0.008782837269883144 0  -0.02944926228062005 -0.009670420328744092 0  -0.01885631351121119 -0.01192416515989788 0  -0.01691676593555981 -0.01170096973318147 0  -0.01773829605562014 -0.01310079118234815 0  0.004614118426858764 -0.003565458483726032 0  0.002509334680925278 -0.004358807632452355 0  0.002343081211279474 -0.002873718352678741 0  -0.0256811132162094 -0.01574526990493712 0  -0.02690767244945899 -0.01528906187458992 0  -0.02622650184931827 -0.01695490013392893 0  -0.0389700769880035 -0.02479351460937479 0  -0.04037085504457759 -0.02357245548155283 0  -0.03967306021942603 -0.02235634449025938 0  0.003888413565608712 -0.01876506087328944 0  0.004891551310597494 -0.02075766768178287 0  0.00544129398496433 -0.01923210266410404 0  0.003071894030292726 -0.02042492932582908 0  0.002062167648373497 -0.0188974618762693 0  -0.0057072681558855 -0.02389109188241274 0  -0.007219239710984426 -0.02563954733366955 0  -0.007346103689937933 -0.02388886401972043 0  -0.004305627510404235 -0.01860920323802679 0  -0.003838294149787177 -0.01997663600034633 0  -0.04002020625879645 -0.03599772838717169 0  -0.04003280620145459 -0.03837589288876646 0  -0.04154988470785092 -0.03717873950518868 0  -0.0225476961674239 -0.01444132597291705 0  -0.02025701458283329 -0.01494682055541054 0  -0.0216061340761294 -0.01561750970419796 0  -0.02829648461666062 -0.01956624970699918 0  -0.02707115965843617 -0.02111328273495852 0  -0.0292085379373125 -0.02119822803744204 0  -0.04728154767137447 -0.006405108493471457 0  -0.04604470251786473 -0.007179652518545553 0  -0.0465402423867751 -0.005257825588374055 0  -0.046875 0 0  -0.04531250000000001 -0.001756154364948668 0  -0.04771549300742191 -0.002284506992578096 0  -0.0009083904135866786 -0.008529558496548306 0  0.000950029780725288 -0.009981924865605908 0  0.0008390356868680526 -0.007863289832610657 0  -0.0078125 -0.001818766801925782 0  -0.009005249798019331 -0.003220453989580621 0  -0.006849416828355778 -0.002880654960679921 0  -0.02769414424234968 -0.004535329022474685 0  -0.02757189723697045 -0.007051096417690477 0  -0.0448635495855776 -0.02761310087595703 0  -0.03862197093400277 -0.01903101690089815 0  -0.040801568013976 -0.01930730968599865 0  -0.04009200278840774 -0.02061118635583271 0  -0.04746877202505475 -0.0109375 0  -0.04625552207057551 -0.01250248254200394 0  -0.04822282986172321 -0.01254746375338932 0  -0.005471962873640671 -0.002483469538180225 0  -0.004703752454419383 -0.003891541969087049 0  -0.006032357434950986 -0.00440111221351207 0  0.015625 0 0  0.0140625 0 0  0.01388737105418562 -0.001431809280784936 0  -0.01181095915764366 -0.02754518578663798 0  -0.01362705441163126 -0.02658032522347269 0  -0.0131583949593131 -0.02788978773038426 0  -0.01813881802721089 -0.02824236465419501 0  -0.01783316571178066 -0.02961095015928098 0  -0.008680555555555554 -0.02743055555555555 0  -0.01019665171916844 -0.02882888222490615 0  -0.01030008360592415 -0.02730207136590873 0  -0.002966181741115359 -0.02519100039815357 0  -0.003650638982939926 -0.02687347943237787 0  -0.004763226258762934 -0.02544039938959696 0  -0.00733492014463835 -0.0222500651304849 0  -0.005550790196063865 -0.02199648679170341 0  0.001807424563025037 -0.0170842299175074 0  -8.496028144727461e-05 -0.0173220879651638 0  0.001003955519332805 -0.01812162078302066 0  0.001645105436913761 -0.01133910380044415 0  -0.02782210082246164 -0.01245307863511379 0  -0.0272180192319855 -0.01366321175396599 0  -0.02859666188170644 -0.01347995636094129 0  -0.03001746758328084 -0.01854532903596594 0  -0.02875526836452914 -0.01771333367449953 0  -0.03729550197386729 -0.009143045021487963 0  -0.03106530920251624 -0.021416390819467 0  -0.03121801362079181 -0.02311719699921014 0  -0.02412336947070342 -0.002392407656188244 0  -0.02517425035907583 -0.004044451102670074 0  -0.02553047554310944 -0.001551189984565228 0  -0.04332752203014248 -0.02894861994940035 0  -0.03361300586943999 -0.03280621050224407 0  -0.03504726554755612 -0.03214148367483272 0  -0.03446251600527064 -0.03401240796041776 0  -0.02666093500983432 -0.02972007434472025 0  -0.02825737921890155 -0.03078867343507981 0  -0.02691307433272296 -0.03107019967741321 0  -0.02412288540753498 -0.02548656141284193 0  -0.02502601119571767 -0.02452216257656308 0  -0.02523744315919711 -0.0261723293570944 0  0.007590321611890428 -0.01002544604880517 0  0.009217381127136798 -0.01087786990918838 0  0.008858123610367597 -0.009584568252459222 0  0.01075672523973394 -0.01188005193203498 0  0.008545263046002623 -0.01258731613206785 0  -0.002401366537453123 -0.02012997179630549 0  -0.003768377061401588 -0.02226186400376761 0  -0.001934031832172576 -0.02146311508091197 0  -0.001242172060814776 -0.02269478175693585 0  -0.002687248212944535 -0.02354019374584471 0  -0.008385574756346015 -0.01083162927881422 0  -0.007996120807677542 -0.00927
[...]
<PointData  Scalars=" mean stress"> 
<DataArray  type="Float64"  Name=" mean stress"  format="ascii">6.6609195563814573e+09  6.6609195535882635e+09  6.6609195485300398e+09  6.6609195393021269e+09  6.6609195390970831e+09  6.6609195418097591e+09  6.6609195873201780e+09  6.6609195290823717e+09  6.6609195236656761e+09  6.6609195648190346e+09  6.6609195061739626e+09  6.6609195456088009e+09  6.6609195417674799e+09  6.6609195464304094e+09  6.6609195263575392e+09  6.6609195446158209e+09  6.6609195495327902e+09  6.6609195397876244e+09  6.6609195661330681e+09  6.6609194852429333e+09  6.6609195468160391e+09  6.6609195447756376e+09  6.6609195467996588e+09  6.6609195394575949e+09  6.6609195444950809e+09  6.6609195373580418e+09  6.6609195404785728e+09  6.6609195400996609e+09  6.6609195385945635e+09  6.6609195450075912e+09  6.6609195480458012e+09  6.6609195322884493e+09  6.6609195269186716e+09  6.6609195353107681e+09  6.6609195477754850e+09  6.6609195705965538e+09  6.6609195384310055e+09  6.6609196142732115e+09  6.6609195239056892e+09  6.6609195447209148e+09  6.6609195230889521e+09  6.6609195469310188e+09  6.6609195402258043e+09  6.6609195449185104e+09  6.6609195423301287e+09  6.6609194771009827e+09  6.6609196100568933e+09  6.6609196169009094e+09  6.6609195036432085e+09  6.6609195313780174e+09  6.6609195409732609e+09  6.6609195372334881e+09  6.6609195409126663e+09  6.6609195414545660e+09  6.6609195332247534e+09  6.6609195397592716e+09  6.6609195376545267e+09  6.6609195403464899e+09  6.6609195300658245e+09  6.6609195417440195e+09  6.6609195643627310e+09  6.6609195257570152e+09  6.6609195129661942e+09  6.6609195393623438e+09  6.6609195338800907e+09  6.6609195405261097e+09  6.6609195333488379e+09  6.6609195594210892e+09  6.6609195492102079e+09  6.6609195445526543e+09  6.6609195447677889e+09  6.6609195452673664e+09  6.6609195143407001e+09  6.6609195915868578e+09  6.6609195620971670e+09  6.6609195312930107e+09  6.6609195386448555e+09  6.6609195446845121e+09  6.6609195198075018e+09  6.6609195401992311e+09  6.6609195335429640e+09  6.6609195223889055e+09  6.6609195464461575e+09  6.6609196012768126e+09  6.6609195289403343e+09  6.6609195362424726e+09  6.6609194963509235e+09  6.6609196088034220e+09  6.6609195581563177e+09  6.6609195259421921e+09  6.6609195448908710e+09  6.6609195436525335e+09  6.6609195563229618e+09  6.6609195795973463e+09  6.6609195354495478e+09  6.6609195306511250e+09  6.6609195092742481e+09  6.6609195462895594e+09  6.6609195353531332e+09  6.6609195424531479e+09  6.6609195412965403e+09  6.6609195271486797e+09  6.6609195426101885e+09  6.6609195467796831e+09  6.6609195418145628e+09  6.6609195391601772e+09  6.6609195389426842e+09  6.6609195491467266e+09  6.6609195386623297e+09  6.6609195656298723e+09  6.6609195181184664e+09  6.6609195441858263e+09  6.6609195495274763e+09  6.6609195285072947e+09  6.6609195403434086e+09  6.6609195439886236e+09  6.6609195388474874e+09  6.6609195400957279e+09  6.6609195168590450e+09  6.6609196390943251e+09  6.6609195471383057e+09  6.6609195586932325e+09  6.6609195640579691e+09  6.6609195301192741e+09  6.6609195416462803e+09  6.6609195521859703e+09  6.6609195408780174e+09  6.6609195439016132e+09  6.6609195350145035e+09  6.6609195330097933e+09  6.6609195391780443e+09  6.6609195409133034e+09  6.6609195431225033e+09  6.6609195560624037e+09  6.6609194914828243e+09  6.6609195421382055e+09  6.6609195211811743e+09  6.6609195730265169e+09  6.6609195803016624e+09  6.6609194601254292e+09  6.6609195417913904e+09  6.6609195236243773e+09  6.6609195095947371e+09  6.6609195585529613e+09  6.6609195451963463e+09  6.6609195369647179e+09  6.6609195475980339e+09  6.6609195464102840e+09  6.6609195396118546e+09  6.6609195349769878e+09  6.6609195362245522e+09  6.6609195435815477e+09  6.6609195418989458e+09  6.6609195381056509e+09  6.6609195357613964e+09  6.6609195464063416e+09  6.6609195666902533e+09  6.6609195861835451e+09  6.6609195327659712e+09  6.6609195347123461e+09  6.6609195282814322e+09  6.6609195471119833e+09  6.6609195471711798e+09  6.6609195454977741e+09  6.6609195463738146e+09  6.6609195386826487e+09  6.6609195461202202e+09  6.6609195296414528e+09  6.6609195242963428e+09  6.6609195347530298e+09  6.6609195683603506e+09  6.6609195456390142e+09  6.6609195884855709e+09  6.6609194987078772e+09  6.6609195588872814e+09  6.6609195540546598e+09  6.6609195361362133e+09  6.6609195448471489e+09  6.6609195401909733e+09  6.6609195350608225e+09  6.6609195446476860e+09  6.6609195446225233e+09  6.6609195466719275e+09  6.6609195392256985e+09  6.6609195381725101e+09  6.6609195400158091e+09  6.6609195285122509e+09  6.6609195008022633e+09  6.6609195172977152e+09  6.6609195826657495e+09  6.6609195144995594e+09  6.6609195483098812e+09  6.6609194645570755e+09  6.6609196020610895e+09  6.6609195401326628e+09  6.6609195538253298e+09  6.6609195320458574e+09  6.6609195353813210e+09  6.6609195183331833e+09  6.6609195500526648e+09  6.6609195073644562e+09  6.6609195506746197e+09  6.6609195289441748e+09  6.6609195544023352e+09  6.6609195352385521e+09  6.6609195254387121e+09  6.6609195835532579e+09  6.6609195393429327e+09  6.6609195287770586e+09  6.6609195463776016e+09  6.6609195433600798e+09  6.6609195362772341e+09  6.6609195398717318e+09  6.6609195411169729e+09  6.6609195411519337e+09  6.6609195358203049e+09  6.6609195501509047e+09  6.6609195437942848e+09  6.6609195384164762e+09  6.6609195412782850e+09  6.6609195409624605e+09  6.6609195428397398e+09  6.6609195549441891e+09  6.6609195501000490e+09  6.6609195567801437e+09  6.6609195435157833e+09  6.6609195453978786e+09  6.6609195600345173e+09  6.6609195678573866e+09  6.6609195082027578e+09  6.6609195470173788e+09  6.6609194508238773e+09  6.6609195450623398e+09  6.6609195735372801e+09  6.6609195467091360e+09  6.6609195290890598e+09  6.6609195157800694e+09  6.6609195284007263e+09  6.6609195593012209e+09  6.6609195182603779e+09  6.6609195382499886e+09  6.6609195158033447e+09  6.6609195448519258e+09  6.6609195285887384e+09  6.6609195996671028e+09  6.6609195471887045e+09  6.6609194497461586e+09  6.6609195364748011e+09  6.6609195402192240e+09  6.6609195612722578e+09  6.6609195262720680e+09  6.6609195455488033e+09  6.6609195302749357e+09  6.6609195201290884e+09  6.6609194724136868e+09  6.6609195174331837e+09  6.6609195708661871e+09  6.6609195549350529e+09  6.6609195664247074e+09  6.6609194823760986e+09  6.6609195626425047e+09  6.6609195801539297e+09  6.6609195291950903e+09  6.6609195583878117e+09  6.6609195235149813e+09  6.6609195359237843e+09  6.6609195456890173e+09  6.6609195604390421e+09  6.6609195340850258e+09  6.6609195127793608e+09  6.6609195254448528e+09  6.6609195413021402e+09  6.6609195345355873e+09  6.6609195320668373e+09  6.6609195444603195e+09  6.6609195453503571e+09  6.6609195417807589e+09  6.6609195366337223e+09  6.6609195555042152e+09  6.6609195314236746e+09  6.6609195465054960e+09  6.6609195472742958e+09  6.6609195287899122e+09  6.6609195067240591e+09  6.6609195515492830e+09  6.6609195260767078e+09  6.6609195513376036e+09  6.6609195390356617e+09  6.6609195427671623e+09  6.6609195435236263e+09  6.6609195354468298e+09  6.6609195402954559e+09  6.6609195430556879e+09  6.6609195326238098e+09  6.6609195453848848e+09  6.6609195321931171e+09  6.6609195303376303e+09  6.6609195092954226e+09  6.6609195416395607e+09  6.6609195401385584e+09  6.6609195372587223e+09  6.6609195389114485e+09  6.6609195362725353e+09  6.6609195404352036e+09  6.6609195471355562e+09  6.6609195368135805e+09  6.6609195568044605e+09  6.6609194738765821e+09  6.6609194770880966e+09  6.6609195396933851e+09  6.6609195380299063e+09  6.6609195461452894e+09  6.6609195378925066e+09  6.6609195395073633e+09  6.6609195498885183e+09  6.6609195293788223e+09  6.6609195303848743e+09  6.6609195776756697e+09  6.6609196193534956e+09  6.6609196953554125e+09  6.6609195245818157e+09  6.6609195142366810e+09  6.6609195931769733e+09  6.6609195110103455e+09  6.6609195132526731e+09  6.6609195073341866e+09  6.6609196127177563e+09  6.6609194734339476e+09  6.6609195866310501e+09  6.6609193209368372e+09  6.6609195761151104e+09  6.6609195067705708e+09  6.6609196371356201e+09  6.6609195436646223e+09  6.6609195315100889e+09  6.6609195319574947e+09  6.6609195480441961e+09  6.6609195349788990e+09  6.6609195554030542e+09  6.6609195397061901e+09  6.6609195435997038e+09  6.6609195348428888e+09  6.6609195459194555e+09  6.6609195432013206e+09  6.6609195418592319e+09  6.6609195578320417e+09  6.6609195150391645e+09  6.6609195577771788e+09  6.6609195609700079e+09  6.6609195335564747e+09  6.6609195449245052e+09  6.6609195402775002e+09  6.6609195305919733e+09  6.6609195142976685e+09  6.6609195341729794e+09  6.6609195352418375e+09  6.6609195429708595e+09  6.6609195391268835e+09  6.6609194993897934e+09  6.6609195788359766e+09  6.6609195411962633e+09  6.6609195585176325e+09  6.6609195308122044e+09  6.6609195457367010e+09  6.6609195494793100e+09  6.6609195133498602e+09  6.6609196193849678e+09  6.6609195660425882e+09  6.6609195703963127e+09  6.6609195825866871e+09  6.6609195613821526e+09  6.6609194440065994e+09  6.6609195420146618e+09  6.6609195441448097e+09  6.6609195428609076e+09  6.6609195068066969e+09  6.6609195451101637e+09  6.6609195549068279e+09  6.6609195425987988e+09  6.6609195357921400e+09  6.6609195348900414e+09  6.6609195491563511e+09  6.6609195352730265e+09  6.6609195441960459e+09  6.6609195341715708e+09  6.6609195521945696e+09  6.6609195325233536e+09  6.6609195373555241e+09  6.6609195870698557e+09  6.6609195450626421e+09  6.6609195425957232e+09  6.6609195497466993e+09  6.6609195366760187e+09  6.6609195346363363e+09  6.6609195372719278e+09  6.6609195423845377e+09  6.6609195438522606e+09  6.6609195360572519e+09  6.6609195360973415e+09  6.6609195450735207e+09  6.6609195394964666e+09  6.6609195418725853e+09  6.6609195416842642e+09  6.6609195372224522e+09  6.6609195408211107e+09  6.6609195347640152e+09  6.6609195396156054e+09  6.6609195389900236e+09  6.6609195576040068e+09  6.6609194654695311e+09  6.6609195123059683e+09  6.6609195723954401e+09  6.6609195860427065e+09  6.6609195477563047e+09  6.6609195738736639e+09  6.6609195274648628e+09  6.6609195513739519e+09  6.6609195435313873e+09  6.6609195321177578e+09  6.6609195400790491e+09  6.6609195461612482e+09  6.6609195389021101e+09  6.6609195403846588e+09  6.6609195411015110e+09  6.6609195413348093e+09  6.6609195162190838e+09  6.6609195491257067e+09  6.6609195298275700e+09  6.6609195421933413e+09  6.6609195687831354e+09  6.6609195397212286e+09  6.6609195331033268e+09  6.6609195275537653e+09  6.6609195207000008e+09  6.6609195340297623e+09  6.6609195819406376e+09  6.6609195402534361e+09  6.6609195412207651e+09  6.6609195377069540e+09  6.6609195238703604e+09  6.6609195482388010e+09  6.6609195485505648e+09  6.6609195416905890e+09  6.6609195446172123e+09  6.6609195536131887e+09  6.6609195473920660e+09  6.6609195276051054e+09  6.6609195457058468e+09  6.6609195592547407e+09  6.6609195546165924e+09  6.6609195770302153e+09  6.6609194572054214e+09  6.6609195523062429e+09  6.6609195576528683e+09  6.6609195462699022e+09  6.6609195440087347e+09  6.6609195532854128e+09  6.6609195445458784e+09  6.6609195316667328e+09  6.6609195371936016e+09  6.6609195367791014e+09  6.6609195384495020e+09  6.6609195407879734e+09  6.6609195406908808e+09  6.6609195482356443e+09  6.6609195280477314e+09  6.6609195382603531e+09  6.6609195423169050e+09  6.6609195369216290e+09  6.6609195379188366e+09  6.6609195407928038e+09  6.6609195393923817e+09  6.6609195297625008e+09  6.6609195474729033e+09  6.6609195407939863e+09  6.6609195282350769e+09  6.6609195312145052e+09  6.6609195312988977e+09  6.6609195530136909e+09  6.6609195367173662e+09  6.6609195315336504e+09  6.6609195404476137e+09  6.6609195317798519e+09  6.6609195481091299e+09  6.6609195446317272e+09  6.6609195373823137e+09  6.6609195306986475e+09  6.6609195808508196e+09  6.6609195509284840e+09  6.6609195406332235e+09  6.6609195245886393e+09  6.6609195357067099e+09  6.6609195450632677e+09  6.6609195259140444e+09  6.6609195296155510e+09  6.6609195428184814e+09  6.6609195425902672e+09  6.6609195381119051e+09  6.6609195523322554e+09  6.6609195118104477e+09  6.6609195429638834e+09  6.6609195654095488e+09  6.6609195364022818e+09  6.6609195274345732e+09  6.6609195353510571e+09  6.6609195296181431e+09  6.6609195303868303e+09  6.6609194978522167e+09  6.6609196184592314e+09  6.6609195329994249e+09  6.6609195185598011e+09  6.6609195683823118e+09  6.6609195060080843e+09  6.6609195586830235e+09  6.6609195218831778e+09  6.6609195539124708e+09  6.6609195519141073e+09  6.6609194283963194e+09  6.6609194902870131e+09  6.6609195349034700e+09  6.6609195604274549e+09  6.6609195197511015e+09  6.6609195376612787e+09  6.6609195432454004e+09  6.6609194907519264e+09  6.6609195455890102e+09  6.6609194844434080e+09  6.6609194845358162e+09  6.6609195247166281e+09  6.6609194855247650e+09  6.6609195664091234e+09  6.6609195267366333e+09  6.6609195396373377e+09  6.6609195857467461e+09  6.6609195014818211e+09  6.6609195327614136e+09  6.6609195204222527e+09  6.6609195614366341e+09  6.6609195271849499e+09  6.6609195191984730e+09  6.6609195427203751e+09  6.6609195490997620e+09  6.6609195381409483e+09  6.6609195663194065e+09  6.6609195422990561e+09  6.6609195410047913e+09  6.6609195405898323e+09  6.6609195389605618e+09  6.6609195477554312e+09  6.6609195437877045e+09  6.6609195154166460e+09  6.6609195330786543e+09  6.6609195552171965e+09  6.6609195416687469e+09  6.6609195122033367e+09  6.6609195514099617e+09  6.6609195475854139e+09  6.6609195407982063e+09  6.6609195790944157e+09  6.6609195858248177e+09  6.6609195625082626e+09  6.6609195029424963e+09  6.6609195358414469e+09  6.6609195678561153e+09  6.6609195456536465e+09  6.6609195418311529e+09  6.6609195559771442e+09  6.6609195379546270e+09  6.6609195442971382e+09  6.6609195546816063e+09  6.6609195365924006e+09  6.6609195375333881e+09  6.6609195431770172e+09  6.6609195436489687e+09  6.6609195406634521e+09  6.6609195149949532e+09  6.6609195183160028e+09  6.6609195357076473e+09  6.6609194402745047e+09  6.6609194977219353e+09  6.6609195203304348e+09  6.6609195443687582e+09  6.6609195593244047e+09  6.6609195384194727e+09  6.6609195382405767e+09  6.6609195382340536e+09  6.6609195240494137e+09  6.6609195641343918e+09  6.6609195396525955e+09  6.6609195318699074e+09  6.6609195286809187e+09  6.6609195367837276e+09  6.6609195499155350e+09  6.6609195384627466e+09  6.6609195633937712e+09  6.6609195885024223e+09  6.6609195378699856e+09  6.6609195360125999e+09  6.6609195348576965e+09  6.6609195605552254e+09  6.6609195244740906e+09  6.6609195204349566e+09  6.6609195406915722e+09  6.6609195530939837e+09  6.6609195439228964e+09  6.6609195476814699e+09  6.6609195434571581e+09  6.6609194938588963e+09  6.6609195349790735e+09  6.6609194758751249e+09  6.6609195393310347e+09  6.6609195010982952e+09  6.6609195559002314e+09  6.6609195118471394e+09  6.6609195466769762e+09  6.6609195533206873e+09  6.6609195627091131e+09  6.6609195957285280e+09  6.6609195321207914e+09  6.6609195783719339e+09  6.6609195552575989e+09  6.6609195290309000e+09  6.6609195642698240e+09  6.6609195225443621e+09  6.6609195242416687e+09  6.6609195434157085e+09  6.6609195455824871e+09  6.6609195289643736e+09  6.6609195413050241e+09  6.6609195432417240e+09  6.6609195136331081e+09  6.6609195285227823e+09  6.6609195702831993e+09  6.6609195398406973e+09  6.6609195296071119e+09  6.6609195745494576e+09  6.6609195534880667e+09  6.6609195554027739e+09  6.6609195435563240e+09  6.6609195406657476e+09  6.6609195336404495e+09  6.6609194901582689e+09  6.6609195393813829e+09  6.6609195454536495e+09  6.6609195407621317e+09  6.6609195414928026e+09  6.6609195389261427e+09  6.6609195437764893e+09  6.6609195361116304e+09  6.6609195412898121e+09  6.6609195454363527e+09  6.6609195391878099e+09  6.6609195420689373e+09  6.6609195491129847e+09  6.6609195416735220e+09  6.6609195377423525e+09  6.6609195306166782e+09  6.6609195353315620e+09  6.6609195414798880e+09  6.6609195351376152e+09  6.6609195382864685e+09  6.6609195114325151e+09  6.6609195175186014e+09  6.6609195398193426e+09  6.6609195566526566e+09  6.6609195441033649e+09  6.6609195514659719e+09  6.6609195453288479e+09  6.6609195396837673e+09  6.6609195454097891e+09  6.6609195420407343e+09  6.6609195456101561e+09  6.6609195372952633e+09  6.6609195408711452e+09  6.6609195420655766e+09  6.6609195467162275e+09  6.6609194671278534e+09  6.6609195273944836e+09  6.6609195350233412e+09  6.6609195634770231e+09  6.6609195353290558e+09  6.6609195147141266e+09  6.6609195407057524e+09  6.6609195400859613e+09  6.6609195400440159e+09  6.6609195482846336e+09  6.6609195321017666e+09  6.6609195501340933e+09  6.6609195447076998e+09  6.6609195413836317e+09  6.6609195389421787e+09  6.6609195592174721e+09  6.6609195604758453e+09  6.6609195311950464e+09  6.6609196670366335e+09  6.6609194813142157e+09  6.6609195313491106e+09  6.6609195276429472e+09  6.6609195298232422e+09  6.6609195260106936e+09  6.6609195404025726e+09  6.6609195441717482e+09  6.6609195293372145e+09  6.6609195389869471e+09  6.6609195370882721e+09  6.6609195323113174e+09  6.6609195123635406e+09  6.6609195255127840e+09  6.6609195494757767e+09  6.6609195487449732e+09  6.6609195547677984e+09  6.6609195572564030e+09  6.6609195360423145e+09  6.6609195303099041e+09  6.6609195251823349e+09  6.6609195495905457e+09  6.6609195483241968e+09  6.6609195255174417e+09  6.6609195335752182e+09  6.6609195855212536e+09  6.6609194702062149e+09  6.6609194497320480e+09  6.6609195242609234e+09  6.6609195544939651e+09  6.6609195152947063e+09  6.6609195427186422e+09  6.6609195336228724e+09  6.6609195343962784e+09  6.6609195415448341e+09  6.6609194495267982e+09  6.6609195439174728e+09  6.6609195396114435e+09  6.6609195266683025e+09  6.6609195427165203e+09  6.6609195644018574e+09  6.6609195580282221e+09  6.6609195567039738e+09  6.6609195394933872e+09  6.6609195412942572e+09  6.6609195409806910e+09  6.6609195543543072e+09  6.6609195393943577e+09  6.6609195258671169e+09  6.6609195523573475e+09  6.6609195038017311e+09  6.6609195426410494e+09  6.6609195350071173e+09  6.6609195463232851e+09  6.6609195431966896e+09  6.6609195408133888e+09  6.6609195117867489e+09  6.6609196436094275e+09  6.6609195141054316e+09  6.6609195801725512e+09  6.6609195281953707e+09  6.6609195388891401e+09  6.6609195324823856e+09  6.6609195286202288e+09  6.6609195187127056e+09  6.6609195262233429e+09  6.6609195319384623e+09  6.6609195501924858e+09  6.6609195368193331e+09  6.6609195001717615e+09  6.6609195121173429e+09  6.6609195616521616e+09  6.6609195294559250e+09  6.6609195519005442e+09  6.6609195532495403e+09  6.6609195384370356e+09  6.6609195379930487e+09  6.6609195390376673e+09  6.6609195447968378e+09  6.6609195279602718e+09  6.6609195206861668e+09  6.6609195523575487e+09  6.6609195420092010e+09  6.6609195374682064e+09  6.6609196325573902e+09  6.6609195373122969e+09  6.6609195350104723e+09  6.6609195476158686e+09  6.6609196787107897e+09  6.6609195371347733e+09  6.6609195414103518e+09  6.6609195311910086e+09  6.6609195435204172e+09  6.6609195413246670e+09  6.6609195386674042e+09  6.6609196138038759e+09  6.6609195484048328e+09  6.6609195500938053e+09  6.6609195448093815e+09  6.6609195104927759e+09  6.6609195394658375e+09  6.6609195418584175e+09  6.6609195421484165e+09  6.6609195565110664e+09  6.6609195318872290e+09  6.6609195414742975e+09  6.6609195504429836e+09  6.6609195105914888e+09  6.6609195374166508e+09  6.6609195427796354e+09  6.6609194925237694e+09  6.6609195571947727e+09  6.6609195396984415e+09  6.6609195406216717e+09  6.6609195733538656e+09  6.6609195533740501e+09  6.6609195425908089e+09  6.6609195410967894e+09  6.6609195423009844e+09  6.6609195193584290e+09  6.6609195477508879e+09  6.6609195713710814e+09  6.6609195548121204e+09  6.6609195348994474e+09  6.6609195451625690e+09  6.6609195475241547e+09  6.6609195271901655e+09  6.6609195413713865e+09  6.6609195391259060e+09  6.6609195447703753e+09  6.6609195251698704e+09  6.6609195437683296e+09  6.6609195420149069e+09  6.6609195626521120e+09  6.6609195471975994e+09  6.6