<?xml version="1.0"?>
<VTKFile type="UnstructuredGrid"  version="0.1"  >
<UnstructuredGrid>
<Piece  NumberOfPoints="431" NumberOfCells="800">
<Points>
<DataArray  type="Float64"  NumberOfComponents="3"  format="ascii">-0.25 -1 0  -0.2 -1 0  -0.15 -1 0  -0.1 -1 0  -0.04999999999999999 -1 0  0 -1 0  0.04999999999999999 -1 0  0.09999999999999998 -1 0  0.15 -1 0  0.2 -1 0  0.25 -1 0  -0.25 -0.95 0  -0.2 -0.95 0  -0.15 -0.95 0  -0.1 -0.95 0  -0.04999999999999999 -0.95 0  0 -0.95 0  0.04999999999999999 -0.95 0  0.09999999999999998 -0.95 0  0.15 -0.95 0  0.2 -0.95 0  0.25 -0.95 0  -0.25 -0.9 0  -0.2 -0.9 0  -0.15 -0.9 0  -0.1 -0.9 0  -0.04999999999999999 -0.9 0  0 -0.9 0  0.04999999999999999 -0.9 0  0.09999999999999998 -0.9 0  0.15 -0.9 0  0.2 -0.9 0  0.25 -0.9 0  -0.25 -0.85 0  -0.2 -0.85 0  -0.15 -0.85 0  -0.1 -0.85 0  -0.04999999999999999 -0.85 0  0 -0.85 0  0.04999999999999999 -0.85 0  0.09999999999999998 -0.85 0  0.15 -0.85 0  0.2 -0.85 0  0.25 -0.85 0  -0.25 -0.8 0  -0.2 -0.8 0  -0.15 -0.8 0  -0.1 -0.8 0  -0.04999999999999999 -0.8 0  0 -0.8 0  0.04999999999999999 -0.8 0  0.09999999999999998 -0.8 0  0.15 -0.8 0  0.2 -0.8 0  0.25 -0.8 0  -0.25 -0.75 0  -0.2 -0.75 0  -0.15 -0.75 0  -0.1 -0.75 0  -0.04999999999999999 -0.75 0  0 -0.75 0  0.04999999999999999 -0.75 0  0.09999999999999998 -0.75 0  0.15 -0.75 0  0.2 -0.75 0  0.25 -0.75 0  -0.25 -0.7 0  -0.2 -0.7 0  -0.15 -0.7 0  -0.1 -0.7 0  -0.04999999999999999 -0.7 0  0 -0.7 0  0.04999999999999999 -0.7 0  0.09999999999999998 -0.7 0  0.15 -0.7 0  0.2 -0.7 0  0.25 -0.7 0  -0.25 -0.65 0  -0.2 -0.65 0  -0.15 -0.65 0  -0.1 -0.65 0  -0.04999999999999999 -0.65 0  0 -0.65 0  0.04999999999999999 -0.65 0  0.09999999999999998 -0.65 0  0.15 -0.65 0  0.2 -0.65 0  0.25 -0.65 0  -0.25 -0.6 0  -0.2 -0.6 0  -0.15 -0.6 0  -0.1 -0.6 0  -0.04999999999999999 -0.6 0  0 -0.6 0  0.04999999999999999 -0.6 0  0.09999999999999998 -0.6 0  0.15 -0.6 0  0.2 -0.6 0  0.25 -0.6 0  -0.25 -0.55 0  -0.2 -0.55 0  -0.15 -0.55 0  -0.1 -0.55 0  -0.04999999999999999 -0.55 0  0 -0.55 0  0.04999999999999999 -0.55 0  0.09999999999999998 -0.55 0  0.15 -0.55 0  0.2 -0.55 0  0.25 -0.55 0  -0.25 -0.5 0  -0.2 -0.5 0  -0.15 -0.5 0  -0.1 -0.5 0  -0.04999999999999999 -0.5 0  0 -0.5 0  0.04999999999999999 -0.5 0  0.09999999999999998 -0.5 0  0.15 -0.5 0  0.2 -0.5 0  0.25 -0.5 0  -0.25 -0.45 0  -0.2 -0.45 0  -0.15 -0.45 0  -0.1 -0.45 0  -0.04999999999999999 -0.45 0  0 -0.45 0  0.04999999999999999 -0.45 0  0.09999999999999998 -0.45 0  0.15 -0.45 0  0.2 -0.45 0  0.25 -0.45 0  -0.25 -0.4 0  -0.2 -0.4 0  -0.15 -0.4 0  -0.1 -0.4 0  -0.04999999999999999 -0.4 0  0 -0.4 0  0.04999999999999999 -0.4 0  0.09999999999999998 -0.4 0  0.15 -0.4 0  0.2 -0.4 0  0.25 -0.4 0  -0.25 -0.35 0  -0.2 -0.35 0  -0.15 -0.35 0  -0.1 -0.35 0  -0.04999999999999999 -0.35 0  0 -0.35 0  0.04999999999999999 -0.35 0  0.09999999999999998 -0.35 0  0.15 -0.35 0  0.2 -0.35 0  0.25 -0.35 0  -0.25 -0.3 0  -0.2 -0.3 0  -0.15 -0.3 0  -0.1 -0.3 0  -0.04999999999999999 -0.3 0  0 -0.3 0  0.04999999999999999 -0.3 0  0.09999999999999998 -0.3 0  0.15 -0.3 0  0.2 -0.3 0  0.25 -0.3 0  -0.25 -0.25 0  -0.2 -0.25 0  -0.15 -0.25 0  -0.1 -0.25 0  -0.04999999999999999 -0.25 0  0 -0.25 0  0.04999999999999999 -0.25 0  0.09999999999999998 -0.25 0  0.15 -0.25 0  0.2 -0.25 0  0.25 -0.25 0  -0.25 -0.2 0  -0.2 -0.2 0  -0.15 -0.2 0  -0.1 -0.2 0  -0.04999999999999999 -0.2 0  0 -0.2 0  0.04999999999999999 -0.2 0  0.09999999999999998 -0.2 0  0.15 -0.2 0  0.2 -0.2 0  0.25 -0.2 0  -0.25 -0.15 0  -0.2 -0.15 0  -0.15 -0.15 0  -0.1 -0.15 0  -0.04999999999999999 -0.15 0  0 -0.15 0  0.04999999999999999 -0.15 0  0.09999999999999998 -0.15 0  0.15 -0.15 0  0.2 -0.15 0  0.25 -0.15 0  -0.25 -0.09999999999999998 0  -0.2 -0.09999999999999998 0  -0.15 -0.09999999999999998 0  -0.1 -0.09999999999999998 0  -0.04999999999999999 -0.09999999999999998 0  0 -0.09999999999999998 0  0.04999999999999999 -0.09999999999999998 0  0.09999999999999998 -0.09999999999999998 0  0.15 -0.09999999999999998 0  0.2 -0.09999999999999998 0  0.25 -0.09999999999999998 0  -0.25 -0.05000000000000004 0  -0.2 -0.05000000000000004 0  -0.15 -0.05000000000000004 0  -0.1 -0.05000000000000004 0  -0.04999999999999999 -0.05000000000000004 0  0 -0.05000000000000004 0  0.04999999999999999 -0.05000000000000004 0  0.09999999999999998 -0.05000000000000004 0  0.15 -0.05000000000000004 0  0.2 -0.05000000000000004 0  0.25 -0.05000000000000004 0  -0.25 0 0  -0.2 0 0  -0.15 0 0  -0.1 0 0  -0.04999999999999999 0 0  0 0 0  0.04999999999999999 0 0  0.09999999999999998 0 0  0.15 0 0  0.2 0 0  0.25 0 0  -0.225 -0.975 0  -0.175 -0.975 0  -0.125 -0.975 0  -0.07500000000000001 -0.975 0  -0.02499999999999999 -0.975 0  0.02500000000000002 -0.975 0  0.07500000000000001 -0.975 0  0.125 -0.975 0  0.175 -0.975 0  0.225 -0.975 0  -0.225 -0.925 0  -0.175 -0.925 0  -0.125 -0.925 0  -0.07500000000000001 -0.925 0  -0.02499999999999999 -0.925 0  0.02500000000000002 -0.925 0  0.07500000000000001 -0.925 0  0.125 -0.925 0  0.175 -0.925 0  0.225 -0.925 0  -0.225 -0.875 0  -0.175 -0.875 0  -0.125 -0.875 0  -0.07500000000000001 -0.875 0  -0.02499999999999999 -0.875 0  0.02500000000000002 -0.875 0  0.07500000000000001 -0.875 0  0.125 -0.875 0  0.175 -0.875 0  0.225 -0.875 0  -0.225 -0.825 0  -0.175 -0.825 0  -0.125 -0.825 0  -0.07500000000000001 -0.825 0  -0.02499999999999999 -0.825 0  0.02500000000000002 -0.825 0  0.07500000000000001 -0.825 0  0.125 -0.825 0  0.175 -0.825 0  0.225 -0.825 0  -0.225 -0.775 0  -0.175 -0.775 0  -0.125 -0.775 0  -0.07500000000000001 -0.775 0  -0.02499999999999999 -0.775 0  0.02500000000000002 -0.775 0  0.07500000000000001 -0.775 0  0.125 -0.775 0  0.175 -0.775 0  0.225 -0.775 0  -0.225 -0.725 0  -0.175 -0.725 0  -0.125 -0.725 0  -0.07500000000000001 -0.725 0  -0.02499999999999999 -0.725 0  0.02500000000000002 -0.725 0  0.07500000000000001 -0.725 0  0.125 -0.725 0  0.175 -0.725 0  0.225 -0.725 0  -0.225 -0.675 0  -0.175 -0.675 0  -0.125 -0.675 0  -0.07500000000000001 -0.675 0  -0.02499999999999999 -0.675 0  0.02500000000000002 -0.675 0  0.07500000000000001 -0.675 0  0.125 -0.675 0  0.175 -0.675 0  0.225 -0.675 0  -0.225 -0.625 0  -0.175 -0.625 0  -0.125 -0.625 0  -0.07500000000000001 -0.625 0  -0.02499999999999999 -0.625 0  0.02500000000000002 -0.625 0  0.07500000000000001 -0.625 0  0.125 -0.625 0  0.175 -0.625 0  0.225 -0.625 0  -0.225 -0.575 0  -0.175 -0.575 0  -0.125 -0.575 0  -0.07500000000000001 -0.575 0  -0.02499999999999999 -0.575 0  0.02500000000000002 -0.575 0  0.07500000000000001 -0.575 0  0.125 -0.575 0  0.175 -0.575 0  0.225 -0.575 0  -0.225 -0.525 0  -0.175 -0.525 0  -0.125 -0.525 0  -0.07500000000000001 -0.525 0  -0.02499999999999999 -0.525 0  0.02500000000000002 -0.525 0  0.07500000000000001 -0.525 0  0.125 -0.525 0  0.175 -0.525 0  0.225 -0.525 0  -0.225 -0.475 0  -0.175 -0.475 0  -0.125 -0.475 0  -0.07500000000000001 -0.475 0  -0.02499999999999999 -0.475 0  0.02500000000000002 -0.475 0  0.07500000000000001 -0.475 0  0.125 -0.475 0  0.175 -0.475 0  0.225 -0.475 0  -0.225 -0.425 0  -0.175 -0.425 0  -0.125 -0.425 0  -0.07500000000000001 -0.425 0  -0.02499999999999999 -0.425 0  0.02500000000000002 -0.425 0  0.07500000000000001 -0.425 0  0.125 -0.425 0  0.175 -0.425 0  0.225 -0.425 0  -0.225 -0.375 0  -0.175 -0.375 0  -0.125 -0.375 0  -0.07500000000000001 -0.375 0  -0.02499999999999999 -0.375 0  0.02500000000000002 -0.375 0  0.07500000000000001 -0.375 0  0.125 -0.375 0  0.175 -0.375 0  0.225 -0.375 0  -0.225 -0.325 0  -0.175 -0.325 0  -0.125 -0.325 0  -0.07500000000000001 -0.325 0  -0.02499999999999999 -0.325 0  0.02500000000000002 -0.325 0  0.07500000000000001 -0.325 0  0.125 -0.325 0  0.175 -0.325 0  0.225 -0.325 0  -0.225 -0.275 0  -0.175 -0.275 0  -0.125 -0.275 0  -0.07500000000000001 -0.275 0  -0.02499999999999999 -0.275 0  0.02500000000000002 -0.275 0  0.07500000000000001 -0.275 0  0.125 -0.275 0  0.175 -0.275 0  0.225 -0.275 0  -0.225 -0.225 0  -0.175 -0.225 0  -0.125 -0.225 0  -0.07500000000000001 -0.225 0  -0.02499999999999999 -0.225 0  0.02500000000000002 -0.225 0  0.07500000000000001 -0.225 0  0.125 -0.225 0  0.175 -0.225 0  0.225 -0.225 0  -0.225 -0.175 0  -0.175 -0.175 0  -0.125 -0.175 0  -0.07500000000000001 -0.175 0  -0.02499999999999999 -0.175 0  0.02500000000000002 -0.175 0  0.07500000000000001 -0.175 0  0.125 -0.175 0  0.175 -0.175 0  0.225 -0.175 0  -0.225 -0.125 0  -0.175 -0.125 0  -0.125 -0.125 0  -0.07500000000000001 -0.125 0  -0.02499999999999999 -0.125 0  0.02500000000000002 -0.125 0  0.07500000000000001 -0.125 0  0.125 -0.125 0  0.175 -0.125 0  0.225 -0.125 0  -0.225 -0.07499999999999996 0  -0.175 -0.07499999999999996 0  -0.125 -0.07499999999999996 0  -0.07500000000000001 -0.07499999999999996 0  -0.02499999999999999 -0.07499999999999996 0  0.02500000000000002 -0.07499999999999996 0  0.07500000000000001 -0.07499999999999996 0  0.125 -0.07499999999999996 0  0.175 -0.07499999999999996 0  0.225 -0.07499999999999996 0  -0.225 -0.02500000000000002 0  -0.175 -0.02500000000000002 0  -0.125 -0.02500000000000002 0  -0.07500000000000001 -0.02500000000000002 0  -0.02499999999999999 -0.02500000000000002 0  0.02500000000000002 -0.02500000000000002 0  0.07500000000000001 -0.02500000000000002 0  0.125 -0.02500000000000002 0  0.175 -0.02500000000000002 0  0.225 -0.02500000000000002 0  </DataArray>
</Points>
<Cells>
[...]
<PointData  Scalars=" mean stress"> 
<DataArray  type="Float64"  Name=" mean stress"  format="ascii">1.4177855770644434e+07  1.4177855770540254e+07  1.4177855770528249e+07  1.4177855770527065e+07  1.4177855770527218e+07  1.4177855770527260e+07  1.4177855770527299e+07  1.4177855770527199e+07  1.4177855770528413e+07  1.4177855770540422e+07  1.4177855770644624e+07  1.4178188262906881e+07  1.4178188262359459e+07  1.4178188262332723e+07  1.4178188262333645e+07  1.4178188262333563e+07  1.4178188262333600e+07  1.4178188262333665e+07  1.4178188262333861e+07  1.4178188262333045e+07  1.4178188262359701e+07  1.4178188262907110e+07  1.4179183690299191e+07  1.4179183687851388e+07  1.4179183687830228e+07  1.4179183687829912e+07  1.4179183687830046e+07  1.4179183687830146e+07  1.4179183687830251e+07  1.4179183687830241e+07  1.4179183687830508e+07  1.4179183687851744e+07  1.4179183690299559e+07  1.4180835915415127e+07  1.4180835909908213e+07  1.4180835909887418e+07  1.4180835909887454e+07  1.4180835909887513e+07  1.4180835909887608e+07  1.4180835909887722e+07  1.4180835909887854e+07  1.4180835909887824e+07  1.4180835909908608e+07  1.4180835915415563e+07  1.4183134751718001e+07  1.4183134742026377e+07  1.4183134742007496e+07  1.4183134742007554e+07  1.4183134742007591e+07  1.4183134742007723e+07  1.4183134742007751e+07  1.4183134742007861e+07  1.4183134742007995e+07  1.4183134742026867e+07  1.4183134751718471e+07  1.4186066026031829e+07  1.4186066011142317e+07  1.4186066011125721e+07  1.4186066011125699e+07  1.4186066011125866e+07  1.4186066011125823e+07  1.4186066011125959e+07  1.4186066011126030e+07  1.4186066011126138e+07  1.4186066011142774e+07  1.4186066026032342e+07  1.4189611665980149e+07  1.4189611645007247e+07  1.4189611644993166e+07  1.4189611644993212e+07  1.4189611644993247e+07  1.4189611644993350e+07  1.4189611644993462e+07  1.4189611644993592e+07  1.4189611644993600e+07  1.4189611645007709e+07  1.4189611665980577e+07  1.4193749811399216e+07  1.4193749783609230e+07  1.4193749783598034e+07  1.4193749783598077e+07  1.4193749783598039e+07  1.4193749783598306e+07  1.4193749783598347e+07  1.4193749783598429e+07  1.4193749783598445e+07  1.4193749783609672e+07  1.4193749811399758e+07  1.4198454949119518e+07  1.4198454913947843e+07  1.4198454913939636e+07  1.4198454913939750e+07  1.4198454913939789e+07  1.4198454913939882e+07  1.4198454913940035e+07  1.4198454913940094e+07  1.4198454913940296e+07  1.4198454913948253e+07  1.4198454949119875e+07  1.4203698070264814e+07  1.4203698027329931e+07  1.4203698027325133e+07  1.4203698027325083e+07  1.4203698027325137e+07  1.4203698027325358e+07  1.4203698027325397e+07  1.4203698027325422e+07  1.4203698027325543e+07  1.4203698027330434e+07  1.4203698070265094e+07  1.4209446849104540e+07  1.4209446798218217e+07  1.4209446798216665e+07  1.4209446798216566e+07  1.4209446798216596e+07  1.4209446798216708e+07  1.4209446798217140e+07  1.4209446798216980e+07  1.4209446798217088e+07  1.4209446798218651e+07  1.4209446849105204e+07  1.4215665842358025e+07  1.4215665783528125e+07  1.4215665783530178e+07  1.4215665783530034e+07  1.4215665783530276e+07  1.4215665783530256e+07  1.4215665783530116e+07  1.4215665783530412e+07  1.4215665783530291e+07  1.4215665783528680e+07  1.4215665842358494e+07  1.4222316707715973e+07  1.4222316641147677e+07  1.4222316641152995e+07  1.4222316641153054e+07  1.4222316641152924e+07  1.4222316641153270e+07  1.4222316641153237e+07  1.4222316641153516e+07  1.4222316641153293e+07  1.4222316641148265e+07  1.4222316707716350e+07  1.4229358440237913e+07  1.4229358366328361e+07  1.4229358366336208e+07  1.4229358366336731e+07  1.4229358366337070e+07  1.4229358366336599e+07  1.4229358366336875e+07  1.4229358366336860e+07  1.4229358366337102e+07  1.4229358366328575e+07  1.4229358440238589e+07  1.4236747625166530e+07  1.4236747544492209e+07  1.4236747544503136e+07  1.4236747544503184e+07  1.4236747544503177e+07  1.4236747544503525e+07  1.4236747544503357e+07  1.4236747544503570e+07  1.4236747544503713e+07  1.4236747544492856e+07  1.4236747625167046e+07  1.4244438705593122e+07  1.4244438618898911e+07  1.4244438618912799e+07  1.4244438618912678e+07  1.4244438618912529e+07  1.4244438618912673e+07  1.4244438618912645e+07  1.4244438618912783e+07  1.4244438618912989e+07  1.4244438618899584e+07  1.4244438705593694e+07  1.4252384263339501e+07  1.4252384171517685e+07  1.4252384171533447e+07  1.4252384171533341e+07  1.4252384171533495e+07  1.4252384171533324e+07  1.4252384171533622e+07  1.4252384171533717e+07  1.4252384171533762e+07  1.4252384171517819e+07  1.4252384263339765e+07  1.4260535311305061e+07  1.4260535215373952e+07  1.4260535215391358e+07  1.4260535215391440e+07  1.4260535215391265e+07  1.4260535215391833e+07  1.4260535215391709e+07  1.4260535215391764e+07  1.4260535215391610e+07  1.4260535215374265e+07  1.4260535311305009e+07  1.4268841595493451e+07  1.4268841496572632e+07  1.4268841496590992e+07  1.4268841496591205e+07  1.4268841496591050e+07  1.4268841496590680e+07  1.4268841496591209e+07  1.4268841496591140e+07  1.4268841496591030e+07  1.4268841496572327e+07  1.4268841595493421e+07  1.4277251904846834e+07  1.4277251804127347e+07  1.4277251804146605e+07  1.4277251804146163e+07  1.4277251804146301e+07  1.4277251804146120e+07  1.4277251804146245e+07  1.4277251804145858e+07  1.4277251804145889e+07  1.4277251804126838e+07  1.4277251904846717e+07  1.4283675233190797e+07  1.4283675131889638e+07  1.4283675131907811e+07  1.4283675131907564e+07  1.4283675131907620e+07  1.4283675131907931e+07  1.4283675131907577e+07  1.4283675131906793e+07  1.4283675131907180e+07  1.4283675131888995e+07  1.4283675233189795e+07  1.4177862026198059e+07  1.4177862026256949e+07  1.4177862026266549e+07  1.4177862026266642e+07  1.4177862026266672e+07  1.4177862026266716e+07  1.4177862026266746e+07  1.4177862026266733e+07  1.4177862026257163e+07  1.4177862026198260e+07  1.4178526971039984e+07  1.4178526971298927e+07  1.4178526971310679e+07  1.4178526971310522e+07  1.4178526971310625e+07  1.4178526971310755e+07  1.4178526971310819e+07  1.4178526971311012e+07  1.4178526971299289e+07  1.4178526971040292e+07  1.4179852761113239e+07  1.4179852761780711e+07  1.4179852761791257e+07  1.4179852761791272e+07  1.4179852761791319e+07  1.4179852761791449e+07  1.4179852761791568e+07  1.4179852761791581e+07  1.4179852761781026e+07  1.4179852761113612e+07  1.4181831222487958e+07  1.4181831223759644e+07  1.4181831223769473e+07  1.4181831223769592e+07  1.4181831223769613e+07  1.4181831223769639e+07  1.4181831223769728e+07  1.4181831223769806e+07  1.4181831223760059e+07  1.4181831222488347e+07  1.4184450157307670e+07  1.4184450159360286e+07  1.4184450159369122e+07  1.4184450159369046e+07  1.4184450159369284e+07  1.4184450159369424e+07  1.4184450159369394e+07  1.4184450159369636e+07  1.4184450159360867e+07  1.4184450157308197e+07  1.4187693418981742e+07  1.4187693421973862e+07  1.4187693421981506e+07  1.4187693421981765e+07  1.4187693421981798e+07  1.4187693421981754e+07  1.4187693421981884e+07  1.4187693421981845e+07  1.4187693421974275e+07  1.4187693418982232e+07  1.4191541011741627e+07  1.4191541015807668e+07  1.4191541015814168e+07  1.4191541015814006e+07  1.4191541015814018e+07  1.4191541015814245e+07  1.4191541015814366e+07  1.4191541015814524e+07  1.4191541015808161e+07  1.4191541011741988e+07  1.4195969213918164e+07  1.4195969219166752e+07  1.4195969219171396e+07  1.4195969219171239e+07  1.4195969219171306e+07  1.4195969219171548e+07  1.4195969219171707e+07  1.4195969219171751e+07  1.4195969219167057e+07  1.4195969213918608e+07  1.4200950724194594e+07  1.4200950730703752e+07  1.4200950730707049e+07  1.4200950730707442e+07  1.4200950730707522e+07  1.4200950730707439e+07  1.4200950730707467e+07  1.4200950730707807e+07  1.4200950730704611e+07  1.4200950724194841e+07  1.4206454829926485e+07  1.4206454837744700e+07  1.4206454837746335e+07  1.4206454837746117e+07  1.4206454837746324e+07  1.4206454837746598e+07  1.4206454837746764e+07  1.4206454837746715e+07  1.4206454837745108e+07  1.4206454829927333e+07  1.4212447596497318e+07  1.4212447605638638e+07  1.4212447605638526e+07  1.4212447605638832e+07  1.4212447605638796e+07  1.4212447605638936e+07  1.4212447605638754e+07  1.4212447605638515e+07  1.4212447605638999e+07  1.4212447596497945e+07  1.4218892076531639e+07  1.4218892086978983e+07  1.4218892086977601e+07  1.4218892086977227e+07  1.4218892086977316e+07  1.4218892086977279e+07  1.4218892086977605e+07  1.4218892086977931e+07  1.4218892086979555e+07  1.4218892076532323e+07  1.4225748537692355e+07  1.4225748549394883e+07  1.4225748549391178e+07  1.4225748549391525e+07  1.4225748549391720e+07  1.4225748549391873e+07  1.4225748549391890e+07  1.4225748549391786e+07  1.4225748549395170e+07  1.4225748537692621e+07  1.4232974707638608e+07  1.4232974720516074e+07  1.4232974720511323e+07  1.4232974720511520e+07  1.4232974720511336e+07  1.4232974720511179e+07  1.4232974720511274e+07  1.4232974720511585e+07  1.4232974720516423e+07  1.4232974707638854e+07  1.4240526034651935e+07  1.4240526048593743e+07  1.4240526048587918e+07  1.4240526048587823e+07  1.4240526048588065e+07  1.4240526048588177e+07  1.4240526048588200e+07  1.4240526048588511e+07  1.4240526048594572e+07  1.4240526034652520e+07  1.4248355962310150e+07  1.4248355977180550e+07  1.4248355977172917e+07  1.4248355977172984e+07  1.4248355977173064e+07  1.4248355977173109e+07  1.4248355977172988e+07  1.4248355977172950e+07  1.4248355977180479e+07  1.4248355962310303e+07  1.4256416216521898e+07  1.4256416232161094e+07  1.4256416232153380e+07  1.4256416232153291e+07  1.4256416232153285e+07  1.4256416232153397e+07  1.4256416232153809e+07  1.4256416232153909e+07  1.4256416232161924e+07  1.4256416216522871e+07  1.4264657103155019e+07  1.4264657119385328e+07  1.4264657119376166e+07  1.4264657119376212e+07  1.4264657119376324e+07  1.4264657119376315e+07  1.4264657119376447e+07  1.4264657119376481e+07  1.4264657119385311e+07  1.4264657103154575e+07  1.4273027814412324e+07  1.4273027831041712e+07  1.4273027831032213e+07  1.4273027831032319e+07  1.4273027831032103e+07  1.4273027831032528e+07  1.4273027831032511e+07  1.4273027831031771e+07  1.4273027831041096e+07  1.4273027814412002e+07  1.4282496318982434e+07  1.4282496335812800e+07  1.4282496335803760e+07  1.4282496335803458e+07  1.4282496335803410e+07  1.4282496335802972e+07  1.4282496335802639e+07  1.4282496335802814e+07  1.4282496335811926e+07  1.4282496318981513e+07  </DataArray> 
</PointData> 
</Piece>
</UnstructuredGrid>
</VTKFile>