<?xml version="1.0"?>
<VTKFile type="UnstructuredGrid"  version="0.1"  >
<UnstructuredGrid>
<Piece  NumberOfPoints="431" NumberOfCells="800">
<Points>
<DataArray  type="Float64"  NumberOfComponents="3"  format="ascii">-0.25 -1 0  -0.2 -1 0  -0.15 -1 0  -0.1 -1 0  -0.04999999999999999 -1 0  0 -1 0  0.04999999999999999 -1 0  0.09999999999999998 -1 0  0.15 -1 0  0.2 -1 0  0.25 -1 0  -0.25 -0.95 0  -0.2 -0.95 0  -0.15 -0.95 0  -0.1 -0.95 0  -0.04999999999999999 -0.95 0  0 -0.95 0  0.04999999999999999 -0.95 0  0.09999999999999998 -0.95 0  0.15 -0.95 0  0.2 -0.95 0  0.25 -0.95 0  -0.25 -0.9 0  -0.2 -0.9 0  -0.15 -0.9 0  -0.1 -0.9 0  -0.04999999999999999 -0.9 0  0 -0.9 0  0.04999999999999999 -0.9 0  0.09999999999999998 -0.9 0  0.15 -0.9 0  0.2 -0.9 0  0.25 -0.9 0  -0.25 -0.85 0  -0.2 -0.85 0  -0.15 -0.85 0  -0.1 -0.85 0  -0.04999999999999999 -0.85 0  0 -0.85 0  0.04999999999999999 -0.85 0  0.09999999999999998 -0.85 0  0.15 -0.85 0  0.2 -0.85 0  0.25 -0.85 0  -0.25 -0.8 0  -0.2 -0.8 0  -0.15 -0.8 0  -0.1 -0.8 0  -0.04999999999999999 -0.8 0  0 -0.8 0  0.04999999999999999 -0.8 0  0.09999999999999998 -0.8 0  0.15 -0.8 0  0.2 -0.8 0  0.25 -0.8 0  -0.25 -0.75 0  -0.2 -0.75 0  -0.15 -0.75 0  -0.1 -0.75 0  -0.04999999999999999 -0.75 0  0 -0.75 0  0.04999999999999999 -0.75 0  0.09999999999999998 -0.75 0  0.15 -0.75 0  0.2 -0.75 0  0.25 -0.75 0  -0.25 -0.7 0  -0.2 -0.7 0  -0.15 -0.7 0  -0.1 -0.7 0  -0.04999999999999999 -0.7 0  0 -0.7 0  0.04999999999999999 -0.7 0  0.09999999999999998 -0.7 0  0.15 -0.7 0  0.2 -0.7 0  0.25 -0.7 0  -0.25 -0.65 0  -0.2 -0.65 0  -0.15 -0.65 0  -0.1 -0.65 0  -0.04999999999999999 -0.65 0  0 -0.65 0  0.04999999999999999 -0.65 0  0.09999999999999998 -0.65 0  0.15 -0.65 0  0.2 -0.65 0  0.25 -0.65 0  -0.25 -0.6 0  -0.2 -0.6 0  -0.15 -0.6 0  -0.1 -0.6 0  -0.04999999999999999 -0.6 0  0 -0.6 0  0.04999999999999999 -0.6 0  0.09999999999999998 -0.6 0  0.15 -0.6 0  0.2 -0.6 0  0.25 -0.6 0  -0.25 -0.55 0  -0.2 -0.55 0  -0.15 -0.55 0  -0.1 -0.55 0  -0.04999999999999999 -0.55 0  0 -0.55 0  0.04999999999999999 -0.55 0  0.09999999999999998 -0.55 0  0.15 -0.55 0  0.2 -0.55 0  0.25 -0.55 0  -0.25 -0.5 0  -0.2 -0.5 0  -0.15 -0.5 0  -0.1 -0.5 0  -0.04999999999999999 -0.5 0  0 -0.5 0  0.04999999999999999 -0.5 0  0.09999999999999998 -0.5 0  0.15 -0.5 0  0.2 -0.5 0  0.25 -0.5 0  -0.25 -0.45 0  -0.2 -0.45 0  -0.15 -0.45 0  -0.1 -0.45 0  -0.04999999999999999 -0.45 0  0 -0.45 0  0.04999999999999999 -0.45 0  0.09999999999999998 -0.45 0  0.15 -0.45 0  0.2 -0.45 0  0.25 -0.45 0  -0.25 -0.4 0  -0.2 -0.4 0  -0.15 -0.4 0  -0.1 -0.4 0  -0.04999999999999999 -0.4 0  0 -0.4 0  0.04999999999999999 -0.4 0  0.09999999999999998 -0.4 0  0.15 -0.4 0  0.2 -0.4 0  0.25 -0.4 0  -0.25 -0.35 0  -0.2 -0.35 0  -0.15 -0.35 0  -0.1 -0.35 0  -0.04999999999999999 -0.35 0  0 -0.35 0  0.04999999999999999 -0.35 0  0.09999999999999998 -0.35 0  0.15 -0.35 0  0.2 -0.35 0  0.25 -0.35 0  -0.25 -0.3 0  -0.2 -0.3 0  -0.15 -0.3 0  -0.1 -0.3 0  -0.04999999999999999 -0.3 0  0 -0.3 0  0.04999999999999999 -0.3 0  0.09999999999999998 -0.3 0  0.15 -0.3 0  0.2 -0.3 0  0.25 -0.3 0  -0.25 -0.25 0  -0.2 -0.25 0  -0.15 -0.25 0  -0.1 -0.25 0  -0.04999999999999999 -0.25 0  0 -0.25 0  0.04999999999999999 -0.25 0  0.09999999999999998 -0.25 0  0.15 -0.25 0  0.2 -0.25 0  0.25 -0.25 0  -0.25 -0.2 0  -0.2 -0.2 0  -0.15 -0.2 0  -0.1 -0.2 0  -0.04999999999999999 -0.2 0  0 -0.2 0  0.04999999999999999 -0.2 0  0.09999999999999998 -0.2 0  0.15 -0.2 0  0.2 -0.2 0  0.25 -0.2 0  -0.25 -0.15 0  -0.2 -0.15 0  -0.15 -0.15 0  -0.1 -0.15 0  -0.04999999999999999 -0.15 0  0 -0.15 0  0.04999999999999999 -0.15 0  0.09999999999999998 -0.15 0  0.15 -0.15 0  0.2 -0.15 0  0.25 -0.15 0  -0.25 -0.09999999999999998 0  -0.2 -0.09999999999999998 0  -0.15 -0.09999999999999998 0  -0.1 -0.09999999999999998 0  -0.04999999999999999 -0.09999999999999998 0  0 -0.09999999999999998 0  0.04999999999999999 -0.09999999999999998 0  0.09999999999999998 -0.09999999999999998 0  0.15 -0.09999999999999998 0  0.2 -0.09999999999999998 0  0.25 -0.09999999999999998 0  -0.25 -0.05000000000000004 0  -0.2 -0.05000000000000004 0  -0.15 -0.05000000000000004 0  -0.1 -0.05000000000000004 0  -0.04999999999999999 -0.05000000000000004 0  0 -0.05000000000000004 0  0.04999999999999999 -0.05000000000000004 0  0.09999999999999998 -0.05000000000000004 0  0.15 -0.05000000000000004 0  0.2 -0.05000000000000004 0  0.25 -0.05000000000000004 0  -0.25 0 0  -0.2 0 0  -0.15 0 0  -0.1 0 0  -0.04999999999999999 0 0  0 0 0  0.04999999999999999 0 0  0.09999999999999998 0 0  0.15 0 0  0.2 0 0  0.25 0 0  -0.225 -0.975 0  -0.175 -0.975 0  -0.125 -0.975 0  -0.07500000000000001 -0.975 0  -0.02499999999999999 -0.975 0  0.02500000000000002 -0.975 0  0.07500000000000001 -0.975 0  0.125 -0.975 0  0.175 -0.975 0  0.225 -0.975 0  -0.225 -0.925 0  -0.175 -0.925 0  -0.125 -0.925 0  -0.07500000000000001 -0.925 0  -0.02499999999999999 -0.925 0  0.02500000000000002 -0.925 0  0.07500000000000001 -0.925 0  0.125 -0.925 0  0.175 -0.925 0  0.225 -0.925 0  -0.225 -0.875 0  -0.175 -0.875 0  -0.125 -0.875 0  -0.07500000000000001 -0.875 0  -0.02499999999999999 -0.875 0  0.02500000000000002 -0.875 0  0.07500000000000001 -0.875 0  0.125 -0.875 0  0.175 -0.875 0  0.225 -0.875 0  -0.225 -0.825 0  -0.175 -0.825 0  -0.125 -0.825 0  -0.07500000000000001 -0.825 0  -0.02499999999999999 -0.825 0  0.02500000000000002 -0.825 0  0.07500000000000001 -0.825 0  0.125 -0.825 0  0.175 -0.825 0  0.225 -0.825 0  -0.225 -0.775 0  -0.175 -0.775 0  -0.125 -0.775 0  -0.07500000000000001 -0.775 0  -0.02499999999999999 -0.775 0  0.02500000000000002 -0.775 0  0.07500000000000001 -0.775 0  0.125 -0.775 0  0.175 -0.775 0  0.225 -0.775 0  -0.225 -0.725 0  -0.175 -0.725 0  -0.125 -0.725 0  -0.07500000000000001 -0.725 0  -0.02499999999999999 -0.725 0  0.02500000000000002 -0.725 0  0.07500000000000001 -0.725 0  0.125 -0.725 0  0.175 -0.725 0  0.225 -0.725 0  -0.225 -0.675 0  -0.175 -0.675 0  -0.125 -0.675 0  -0.07500000000000001 -0.675 0  -0.02499999999999999 -0.675 0  0.02500000000000002 -0.675 0  0.07500000000000001 -0.675 0  0.125 -0.675 0  0.175 -0.675 0  0.225 -0.675 0  -0.225 -0.625 0  -0.175 -0.625 0  -0.125 -0.625 0  -0.07500000000000001 -0.625 0  -0.02499999999999999 -0.625 0  0.02500000000000002 -0.625 0  0.07500000000000001 -0.625 0  0.125 -0.625 0  0.175 -0.625 0  0.225 -0.625 0  -0.225 -0.575 0  -0.175 -0.575 0  -0.125 -0.575 0  -0.07500000000000001 -0.575 0  -0.02499999999999999 -0.575 0  0.02500000000000002 -0.575 0  0.07500000000000001 -0.575 0  0.125 -0.575 0  0.175 -0.575 0  0.225 -0.575 0  -0.225 -0.525 0  -0.175 -0.525 0  -0.125 -0.525 0  -0.07500000000000001 -0.525 0  -0.02499999999999999 -0.525 0  0.02500000000000002 -0.525 0  0.07500000000000001 -0.525 0  0.125 -0.525 0  0.175 -0.525 0  0.225 -0.525 0  -0.225 -0.475 0  -0.175 -0.475 0  -0.125 -0.475 0  -0.07500000000000001 -0.475 0  -0.02499999999999999 -0.475 0  0.02500000000000002 -0.475 0  0.07500000000000001 -0.475 0  0.125 -0.475 0  0.175 -0.475 0  0.225 -0.475 0  -0.225 -0.425 0  -0.175 -0.425 0  -0.125 -0.425 0  -0.07500000000000001 -0.425 0  -0.02499999999999999 -0.425 0  0.02500000000000002 -0.425 0  0.07500000000000001 -0.425 0  0.125 -0.425 0  0.175 -0.425 0  0.225 -0.425 0  -0.225 -0.375 0  -0.175 -0.375 0  -0.125 -0.375 0  -0.07500000000000001 -0.375 0  -0.02499999999999999 -0.375 0  0.02500000000000002 -0.375 0  0.07500000000000001 -0.375 0  0.125 -0.375 0  0.175 -0.375 0  0.225 -0.375 0  -0.225 -0.325 0  -0.175 -0.325 0  -0.125 -0.325 0  -0.07500000000000001 -0.325 0  -0.02499999999999999 -0.325 0  0.02500000000000002 -0.325 0  0.07500000000000001 -0.325 0  0.125 -0.325 0  0.175 -0.325 0  0.225 -0.325 0  -0.225 -0.275 0  -0.175 -0.275 0  -0.125 -0.275 0  -0.07500000000000001 -0.275 0  -0.02499999999999999 -0.275 0  0.02500000000000002 -0.275 0  0.07500000000000001 -0.275 0  0.125 -0.275 0  0.175 -0.275 0  0.225 -0.275 0  -0.225 -0.225 0  -0.175 -0.225 0  -0.125 -0.225 0  -0.07500000000000001 -0.225 0  -0.02499999999999999 -0.225 0  0.02500000000000002 -0.225 0  0.07500000000000001 -0.225 0  0.125 -0.225 0  0.175 -0.225 0  0.225 -0.225 0  -0.225 -0.175 0  -0.175 -0.175 0  -0.125 -0.175 0  -0.07500000000000001 -0.175 0  -0.02499999999999999 -0.175 0  0.02500000000000002 -0.175 0  0.07500000000000001 -0.175 0  0.125 -0.175 0  0.175 -0.175 0  0.225 -0.175 0  -0.225 -0.125 0  -0.175 -0.125 0  -0.125 -0.125 0  -0.07500000000000001 -0.125 0  -0.02499999999999999 -0.125 0  0.02500000000000002 -0.125 0  0.07500000000000001 -0.125 0  0.125 -0.125 0  0.175 -0.125 0  0.225 -0.125 0  -0.225 -0.07499999999999996 0  -0.175 -0.07499999999999996 0  -0.125 -0.07499999999999996 0  -0.07500000000000001 -0.07499999999999996 0  -0.02499999999999999 -0.07499999999999996 0  0.02500000000000002 -0.07499999999999996 0  0.07500000000000001 -0.07499999999999996 0  0.125 -0.07499999999999996 0  0.175 -0.07499999999999996 0  0.225 -0.07499999999999996 0  -0.225 -0.02500000000000002 0  -0.175 -0.02500000000000002 0  -0.125 -0.02500000000000002 0  -0.07500000000000001 -0.02500000000000002 0  -0.02499999999999999 -0.02500000000000002 0  0.02500000000000002 -0.02500000000000002 0  0.07500000000000001 -0.02500000000000002 0  0.125 -0.02500000000000002 0  0.175 -0.02500000000000002 0  0.225 -0.02500000000000002 0  </DataArray>
</Points>
<Cells>
[...]
<PointData  Scalars=" mean stress"> 
<DataArray  type="Float64"  Name=" mean stress"  format="ascii">1.1433572367323605e+07  1.1433572277079104e+07  1.1433572266674388e+07  1.1433572265627587e+07  1.1433572265775077e+07  1.1433572265750030e+07  1.1433572265775140e+07  1.1433572265627701e+07  1.1433572266674537e+07  1.1433572277079260e+07  1.1433572367323767e+07  1.1442361166438304e+07  1.1442360692393782e+07  1.1442360669389520e+07  1.1442360670131097e+07  1.1442360670015801e+07  1.1442360670036849e+07  1.1442360670015909e+07  1.1442360670131288e+07  1.1442360669389738e+07  1.1442360692394046e+07  1.1442361166438594e+07  1.1468674042281553e+07  1.1468671927361524e+07  1.1468671909370605e+07  1.1468671909156203e+07  1.1468671909211770e+07  1.1468671909199458e+07  1.1468671909211883e+07  1.1468671909156483e+07  1.1468671909370869e+07  1.1468671927361820e+07  1.1468674042281842e+07  1.1512349141363289e+07  1.1512344400588922e+07  1.1512344383427778e+07  1.1512344383495189e+07  1.1512344383477705e+07  1.1512344383483039e+07  1.1512344383477846e+07  1.1512344383495383e+07  1.1512344383428097e+07  1.1512344400589254e+07  1.1512349141363686e+07  1.1573118145206254e+07  1.1573109844125696e+07  1.1573109829162462e+07  1.1573109829166029e+07  1.1573109829170236e+07  1.1573109829168716e+07  1.1573109829170464e+07  1.1573109829166366e+07  1.1573109829162722e+07  1.1573109844126036e+07  1.1573118145206662e+07  1.1650607601993846e+07  1.1650594930313110e+07  1.1650594917835230e+07  1.1650594917847138e+07  1.1650594917846318e+07  1.1650594917846771e+07  1.1650594917846452e+07  1.1650594917847391e+07  1.1650594917835573e+07  1.1650594930313529e+07  1.1650607601994278e+07  1.1744341207330720e+07  1.1744323495340090e+07  1.1744323485693796e+07  1.1744323485700078e+07  1.1744323485700240e+07  1.1744323485700127e+07  1.1744323485700455e+07  1.1744323485700289e+07  1.1744323485694205e+07  1.1744323495340459e+07  1.1744341207331100e+07  1.1853742650985233e+07  1.1853719389835954e+07  1.1853719383224675e+07  1.1853719383227333e+07  1.1853719383227346e+07  1.1853719383227581e+07  1.1853719383227581e+07  1.1853719383227732e+07  1.1853719383225018e+07  1.1853719389836384e+07  1.1853742650985558e+07  1.1978139082132075e+07  1.1978109935980406e+07  1.1978109932492970e+07  1.1978109932492051e+07  1.1978109932492100e+07  1.1978109932492154e+07  1.1978109932492277e+07  1.1978109932492319e+07  1.1978109932493333e+07  1.1978109935980596e+07  1.1978139082132401e+07  1.2116765164323082e+07  1.2116729976245550e+07  1.2116729975856151e+07  1.2116729975852055e+07  1.2116729975852134e+07  1.2116729975852206e+07  1.2116729975852130e+07  1.2116729975852296e+07  1.2116729975856382e+07  1.2116729976245901e+07  1.2116765164323483e+07  1.2268767702595601e+07  1.2268726494067999e+07  1.2268726496645290e+07  1.2268726496638179e+07  1.2268726496638266e+07  1.2268726496638330e+07  1.2268726496638341e+07  1.2268726496638460e+07  1.2268726496645592e+07  1.2268726494068414e+07  1.2268767702596109e+07  1.2433210818886418e+07  1.2433163783330854e+07  1.2433163788650898e+07  1.2433163788641667e+07  1.2433163788641589e+07  1.2433163788641622e+07  1.2433163788641814e+07  1.2433163788641794e+07  1.2433163788651224e+07  1.2433163783331163e+07  1.2433210818886839e+07  1.2609081648676034e+07  1.2609029139739968e+07  1.2609029147503313e+07  1.2609029147491967e+07  1.2609029147491973e+07  1.2609029147492116e+07  1.2609029147492193e+07  1.2609029147492142e+07  1.2609029147503594e+07  1.2609029139740087e+07  1.2609081648676118e+07  1.2795296527892679e+07  1.2795239043298069e+07  1.2795239053145586e+07  1.2795239053133069e+07  1.2795239053133324e+07  1.2795239053133238e+07  1.2795239053133303e+07  1.2795239053133491e+07  1.2795239053145889e+07  1.2795239043298366e+07  1.2795296527892765e+07  1.2990707635257805e+07  1.2990645797143705e+07  1.2990645808676980e+07  1.2990645808663359e+07  1.2990645808663620e+07  1.2990645808663696e+07  1.2990645808663895e+07  1.2990645808663733e+07  1.2990645808677169e+07  1.2990645797143996e+07  1.2990707635258107e+07  1.3194110051395062e+07  1.3194044584134327e+07  1.3194044596925752e+07  1.3194044596914519e+07  1.3194044596913576e+07  1.3194044596913973e+07  1.3194044596913541e+07  1.3194044596914444e+07  1.3194044596925829e+07  1.3194044584134564e+07  1.3194110051395409e+07  1.3404249192342794e+07  1.3404180898702495e+07  1.3404180912354240e+07  1.3404180912328444e+07  1.3404180912332738e+07  1.3404180912331615e+07  1.3404180912332488e+07  1.3404180912328435e+07  1.3404180912354216e+07  1.3404180898702655e+07  1.3404249192342617e+07  1.3619828571199408e+07  1.3619758308229594e+07  1.3619758322119681e+07  1.3619758322170427e+07  1.3619758322157472e+07  1.3619758322156915e+07  1.3619758322157718e+07  1.3619758322170392e+07  1.3619758322119743e+07  1.3619758308229582e+07  1.3619828571199428e+07  1.3839517840690395e+07  1.3839446492888376e+07  1.3839446507842986e+07  1.3839446507576996e+07  1.3839446507555956e+07  1.3839446507565925e+07  1.3839446507555559e+07  1.3839446507576713e+07  1.3839446507842774e+07  1.3839446492887996e+07  1.3839517840690667e+07  1.4061961054957740e+07  1.4061889526434107e+07  1.4061889533239082e+07  1.4061889532391936e+07  1.4061889532540793e+07  1.4061889532513920e+07  1.4061889532540422e+07  1.4061889532391576e+07  1.4061889533238871e+07  1.4061889526433822e+07  1.4061961054957513e+07  1.4231851676095504e+07  1.4231780521336176e+07  1.4231780500536082e+07  1.4231780502656737e+07  1.4231780502418907e+07  1.4231780502454357e+07  1.4231780502418563e+07  1.4231780502655787e+07  1.4231780500535060e+07  1.4231780521335064e+07  1.4231851676093809e+07  1.1433737547623698e+07  1.1433737598606963e+07  1.1433737606900480e+07  1.1433737606968598e+07  1.1433737606961600e+07  1.1433737606961643e+07  1.1433737606968693e+07  1.1433737606900677e+07  1.1433737598607145e+07  1.1433737547623863e+07  1.1451313166955277e+07  1.1451313390580600e+07  1.1451313400680203e+07  1.1451313400563303e+07  1.1451313400576131e+07  1.1451313400576165e+07  1.1451313400563460e+07  1.1451313400680425e+07  1.1451313390580859e+07  1.1451313166955538e+07  1.1486356463057162e+07  1.1486357037652673e+07  1.1486357046476776e+07  1.1486357046504004e+07  1.1486357046496360e+07  1.1486357046496412e+07  1.1486357046504226e+07  1.1486357046477096e+07  1.1486357037652999e+07  1.1486356463057503e+07  1.1538652206456754e+07  1.1538653296471499e+07  1.1538653304484788e+07  1.1538653304470394e+07  1.1538653304472903e+07  1.1538653304473065e+07  1.1538653304470669e+07  1.1538653304485122e+07  1.1538653296471862e+07  1.1538652206457147e+07  1.1607879160996560e+07  1.1607880910450272e+07  1.1607880917306513e+07  1.1607880917301873e+07  1.1607880917301387e+07  1.1607880917301271e+07  1.1607880917301923e+07  1.1607880917306794e+07  1.1607880910450567e+07  1.1607879160997018e+07  1.1693611989280600e+07  1.1693614521573579e+07  1.1693614527099948e+07  1.1693614527095694e+07  1.1693614527095802e+07  1.1693614527096029e+07  1.1693614527095992e+07  1.1693614527100326e+07  1.1693614521574061e+07  1.1693611989280948e+07  1.1795323800222132e+07  1.1795327213445287e+07  1.1795327217507157e+07  1.1795327217504844e+07  1.1795327217504881e+07  1.1795327217504948e+07  1.1795327217505094e+07  1.1795327217507524e+07  1.1795327213445634e+07  1.1795323800222386e+07  1.1912389303585185e+07  1.1912393668144614e+07  1.1912393670668539e+07  1.1912393670667909e+07  1.1912393670668026e+07  1.1912393670668229e+07  1.1912393670668216e+07  1.1912393670668649e+07  1.1912393668144803e+07  1.1912389303585548e+07  1.2044088566469776e+07  1.2044093923514675e+07  1.2044093924484586e+07  1.2044093924485991e+07  1.2044093924485965e+07  1.2044093924485989e+07  1.2044093924486132e+07  1.2044093924485112e+07  1.2044093923515085e+07  1.2044088566469969e+07  1.2189611352019943e+07  1.2189617712994495e+07  1.2189617712449823e+07  1.2189617712452570e+07  1.2189617712452713e+07  1.2189617712452551e+07  1.2189617712452747e+07  1.2189617712450210e+07  1.2189617712994829e+07  1.2189611352020526e+07  1.2348062019517221e+07  1.2348069366725521e+07  1.2348069364754692e+07  1.2348069364758950e+07  1.2348069364759041e+07  1.2348069364759244e+07  1.2348069364759102e+07  1.2348069364754844e+07  1.2348069366725855e+07  1.2348062019517429e+07  1.2518464960825451e+07  1.2518473248930680e+07  1.2518473245664515e+07  1.2518473245669700e+07  1.2518473245669534e+07  1.2518473245669521e+07  1.2518473245669780e+07  1.2518473245664628e+07  1.2518473248930926e+07  1.2518464960826049e+07  1.2699770544400157e+07  1.2699779702729143e+07  1.2699779698331706e+07  1.2699779698337587e+07  1.2699779698337775e+07  1.2699779698337860e+07  1.2699779698337639e+07  1.2699779698332081e+07  1.2699779702729691e+07  1.2699770544400193e+07  1.2890861534115184e+07  1.2890871469627647e+07  1.2890871464287914e+07  1.2890871464294335e+07  1.2890871464294249e+07  1.2890871464294314e+07  1.2890871464294756e+07  1.2890871464288034e+07  1.2890871469627192e+07  1.2890861534115098e+07  1.3090559946231546e+07  1.3090570546989765e+07  1.3090570540913951e+07  1.3090570540920619e+07  1.3090570540920641e+07  1.3090570540920526e+07  1.3090570540920394e+07  1.3090570540914342e+07  1.3090570546990415e+07  1.3090559946231704e+07  1.3297634303935412e+07  1.3297645442929689e+07  1.3297645436327383e+07  1.3297645436335657e+07  1.3297645436335152e+07  1.3297645436335143e+07  1.3297645436335666e+07  1.3297645436327124e+07  1.3297645442929747e+07  1.3297634303936223e+07  1.3510807245172741e+07  1.3510818784305019e+07  1.3510818777412763e+07  1.3510818777408613e+07  1.3510818777410772e+07  1.3510818777410923e+07  1.3510818777408740e+07  1.3510818777412789e+07  1.3510818784305293e+07  1.3510807245172901e+07  1.3728763435940487e+07  1.3728775230266418e+07  1.3728775223108117e+07  1.3728775223169904e+07  1.3728775223175883e+07  1.3728775223176068e+07  1.3728775223170253e+07  1.3728775223108428e+07  1.3728775230266251e+07  1.3728763435939936e+07  1.3950157736794397e+07  1.3950169637642013e+07  1.3950169632479157e+07  1.3950169632725289e+07  1.3950169632697206e+07  1.3950169632696733e+07  1.3950169632724311e+07  1.3950169632478230e+07  1.3950169637640746e+07  1.3950157736793380e+07  1.4200590385575792e+07  1.4200602322640529e+07  1.4200602325820308e+07  1.4200602325524431e+07  1.4200602325544385e+07  1.4200602325544242e+07  1.4200602325524092e+07  1.4200602325819915e+07  1.4200602322640469e+07  1.4200590385575486e+07  </DataArray> 
</PointData> 
</Piece>
</UnstructuredGrid>
</VTKFile>