<?xml version="1.0"?>
<VTKFile type="UnstructuredGrid"  version="0.1"  >
<UnstructuredGrid>
<Piece  NumberOfPoints="1661" NumberOfCells="3200">
<Points>
<DataArray  type="Float64"  NumberOfComponents="3"  format="ascii">-0.25 -1 0  -0.225 -1 0  -0.2 -1 0  -0.175 -1 0  -0.15 -1 0  -0.125 -1 0  -0.1 -1 0  -0.07500000000000001 -1 0  -0.04999999999999999 -1 0  -0.02499999999999999 -1 0  0 -1 0  0.02500000000000002 -1 0  0.04999999999999999 -1 0  0.07500000000000001 -1 0  0.09999999999999998 -1 0  0.125 -1 0  0.15 -1 0  0.175 -1 0  0.2 -1 0  0.225 -1 0  0.25 -1 0  -0.25 -0.975 0  -0.225 -0.975 0  -0.2 -0.975 0  -0.175 -0.975 0  -0.15 -0.975 0  -0.125 -0.975 0  -0.1 -0.975 0  -0.07500000000000001 -0.975 0  -0.04999999999999999 -0.975 0  -0.02499999999999999 -0.975 0  0 -0.975 0  0.02500000000000002 -0.975 0  0.04999999999999999 -0.975 0  0.07500000000000001 -0.975 0  0.09999999999999998 -0.975 0  0.125 -0.975 0  0.15 -0.975 0  0.175 -0.975 0  0.2 -0.975 0  0.225 -0.975 0  0.25 -0.975 0  -0.25 -0.95 0  -0.225 -0.95 0  -0.2 -0.95 0  -0.175 -0.95 0  -0.15 -0.95 0  -0.125 -0.95 0  -0.1 -0.95 0  -0.07500000000000001 -0.95 0  -0.04999999999999999 -0.95 0  -0.02499999999999999 -0.95 0  0 -0.95 0  0.02500000000000002 -0.95 0  0.04999999999999999 -0.95 0  0.07500000000000001 -0.95 0  0.09999999999999998 -0.95 0  0.125 -0.95 0  0.15 -0.95 0  0.175 -0.95 0  0.2 -0.95 0  0.225 -0.95 0  0.25 -0.95 0  -0.25 -0.925 0  -0.225 -0.925 0  -0.2 -0.925 0  -0.175 -0.925 0  -0.15 -0.925 0  -0.125 -0.925 0  -0.1 -0.925 0  -0.07500000000000001 -0.925 0  -0.04999999999999999 -0.925 0  -0.02499999999999999 -0.925 0  0 -0.925 0  0.02500000000000002 -0.925 0  0.04999999999999999 -0.925 0  0.07500000000000001 -0.925 0  0.09999999999999998 -0.925 0  0.125 -0.925 0  0.15 -0.925 0  0.175 -0.925 0  0.2 -0.925 0  0.225 -0.925 0  0.25 -0.925 0  -0.25 -0.9 0  -0.225 -0.9 0  -0.2 -0.9 0  -0.175 -0.9 0  -0.15 -0.9 0  -0.125 -0.9 0  -0.1 -0.9 0  -0.07500000000000001 -0.9 0  -0.04999999999999999 -0.9 0  -0.02499999999999999 -0.9 0  0 -0.9 0  0.02500000000000002 -0.9 0  0.04999999999999999 -0.9 0  0.07500000000000001 -0.9 0  0.09999999999999998 -0.9 0  0.125 -0.9 0  0.15 -0.9 0  0.175 -0.9 0  0.2 -0.9 0  0.225 -0.9 0  0.25 -0.9 0  -0.25 -0.875 0  -0.225 -0.875 0  -0.2 -0.875 0  -0.175 -0.875 0  -0.15 -0.875 0  -0.125 -0.875 0  -0.1 -0.875 0  -0.07500000000000001 -0.875 0  -0.04999999999999999 -0.875 0  -0.02499999999999999 -0.875 0  0 -0.875 0  0.02500000000000002 -0.875 0  0.04999999999999999 -0.875 0  0.07500000000000001 -0.875 0  0.09999999999999998 -0.875 0  0.125 -0.875 0  0.15 -0.875 0  0.175 -0.875 0  0.2 -0.875 0  0.225 -0.875 0  0.25 -0.875 0  -0.25 -0.85 0  -0.225 -0.85 0  -0.2 -0.85 0  -0.175 -0.85 0  -0.15 -0.85 0  -0.125 -0.85 0  -0.1 -0.85 0  -0.07500000000000001 -0.85 0  -0.04999999999999999 -0.85 0  -0.02499999999999999 -0.85 0  0 -0.85 0  0.02500000000000002 -0.85 0  0.04999999999999999 -0.85 0  0.07500000000000001 -0.85 0  0.09999999999999998 -0.85 0  0.125 -0.85 0  0.15 -0.85 0  0.175 -0.85 0  0.2 -0.85 0  0.225 -0.85 0  0.25 -0.85 0  -0.25 -0.825 0  -0.225 -0.825 0  -0.2 -0.825 0  -0.175 -0.825 0  -0.15 -0.825 0  -0.125 -0.825 0  -0.1 -0.825 0  -0.07500000000000001 -0.825 0  -0.04999999999999999 -0.825 0  -0.02499999999999999 -0.825 0  0 -0.825 0  0.02500000000000002 -0.825 0  0.04999999999999999 -0.825 0  0.07500000000000001 -0.825 0  0.09999999999999998 -0.825 0  0.125 -0.825 0  0.15 -0.825 0  0.175 -0.825 0  0.2 -0.825 0  0.225 -0.825 0  0.25 -0.825 0  -0.25 -0.8 0  -0.225 -0.8 0  -0.2 -0.8 0  -0.175 -0.8 0  -0.15 -0.8 0  -0.125 -0.8 0  -0.1 -0.8 0  -0.07500000000000001 -0.8 0  -0.04999999999999999 -0.8 0  -0.02499999999999999 -0.8 0  0 -0.8 0  0.02500000000000002 -0.8 0  0.04999999999999999 -0.8 0  0.07500000000000001 -0.8 0  0.09999999999999998 -0.8 0  0.125 -0.8 0  0.15 -0.8 0  0.175 -0.8 0  0.2 -0.8 0  0.225 -0.8 0  0.25 -0.8 0  -0.25 -0.775 0  -0.225 -0.775 0  -0.2 -0.775 0  -0.175 -0.775 0  -0.15 -0.775 0  -0.125 -0.775 0  -0.1 -0.775 0  -0.07500000000000001 -0.775 0  -0.04999999999999999 -0.775 0  -0.02499999999999999 -0.775 0  0 -0.775 0  0.02500000000000002 -0.775 0  0.04999999999999999 -0.775 0  0.07500000000000001 -0.775 0  0.09999999999999998 -0.775 0  0.125 -0.775 0  0.15 -0.775 0  0.175 -0.775 0  0.2 -0.775 0  0.225 -0.775 0  0.25 -0.775 0  -0.25 -0.75 0  -0.225 -0.75 0  -0.2 -0.75 0  -0.175 -0.75 0  -0.15 -0.75 0  -0.125 -0.75 0  -0.1 -0.75 0  -0.07500000000000001 -0.75 0  -0.04999999999999999 -0.75 0  -0.02499999999999999 -0.75 0  0 -0.75 0  0.02500000000000002 -0.75 0  0.04999999999999999 -0.75 0  0.07500000000000001 -0.75 0  0.09999999999999998 -0.75 0  0.125 -0.75 0  0.15 -0.75 0  0.175 -0.75 0  0.2 -0.75 0  0.225 -0.75 0  0.25 -0.75 0  -0.25 -0.725 0  -0.225 -0.725 0  -0.2 -0.725 0  -0.175 -0.725 0  -0.15 -0.725 0  -0.125 -0.725 0  -0.1 -0.725 0  -0.07500000000000001 -0.725 0  -0.04999999999999999 -0.725 0  -0.02499999999999999 -0.725 0  0 -0.725 0  0.02500000000000002 -0.725 0  0.04999999999999999 -0.725 0  0.07500000000000001 -0.725 0  0.09999999999999998 -0.725 0  0.125 -0.725 0  0.15 -0.725 0  0.175 -0.725 0  0.2 -0.725 0  0.225 -0.725 0  0.25 -0.725 0  -0.25 -0.7 0  -0.225 -0.7 0  -0.2 -0.7 0  -0.175 -0.7 0  -0.15 -0.7 0  -0.125 -0.7 0  -0.1 -0.7 0  -0.07500000000000001 -0.7 0  -0.04999999999999999 -0.7 0  -0.02499999999999999 -0.7 0  0 -0.7 0  0.02500000000000002 -0.7 0  0.04999999999999999 -0.7 0  0.07500000000000001 -0.7 0  0.09999999999999998 -0.7 0  0.125 -0.7 0  0.15 -0.7 0  0.175 -0.7 0  0.2 -0.7 0  0.225 -0.7 0  0.25 -0.7 0  -0.25 -0.675 0  -0.225 -0.675 0  -0.2 -0.675 0  -0.175 -0.675 0  -0.15 -0.675 0  -0.125 -0.675 0  -0.1 -0.675 0  -0.07500000000000001 -0.675 0  -0.04999999999999999 -0.675 0  -0.02499999999999999 -0.675 0  0 -0.675 0  0.02500000000000002 -0.675 0  0.04999999999999999 -0.675 0  0.07500000000000001 -0.675 0  0.09999999999999998 -0.675 0  0.125 -0.675 0  0.15 -0.675 0  0.175 -0.675 0  0.2 -0.675 0  0.225 -0.675 0  0.25 -0.675 0  -0.25 -0.65 0  -0.225 -0.65 0  -0.2 -0.65 0  -0.175 -0.65 0  -0.15 -0.65 0  -0.125 -0.65 0  -0.1 -0.65 0  -0.07500000000000001 -0.65 0  -0.04999999999999999 -0.65 0  -0.02499999999999999 -0.65 0  0 -0.65 0  0.02500000000000002 -0.65 0  0.04999999999999999 -0.65 0  0.07500000000000001 -0.65 0  0.09999999999999998 -0.65 0  0.125 -0.65 0  0.15 -0.65 0  0.175 -0.65 0  0.2 -0.65 0  0.225 -0.65 0  0.25 -0.65 0  -0.25 -0.625 0  -0.225 -0.625 0  -0.2 -0.625 0  -0.175 -0.625 0  -0.15 -0.625 0  -0.125 -0.625 0  -0.1 -0.625 0  -0.07500000000000001 -0.625 0  -0.04999999999999999 -0.625 0  -0.02499999999999999 -0.625 0  0 -0.625 0  0.02500000000000002 -0.625 0  0.04999999999999999 -0.625 0  0.07500000000000001 -0.625 0  0.09999999999999998 -0.625 0  0.125 -0.625 0  0.15 -0.625 0  0.175 -0.625 0  0.2 -0.625 0  0.225 -0.625 0  0.25 -0.625 0  -0.25 -0.6 0  -0.225 -0.6 0  -0.2 -0.6 0  -0.175 -0.6 0  -0.15 -0.6 0  -0.125 -0.6 0  -0.1 -0.6 0  -0.07500000000000001 -0.6 0  -0.04999999999999999 -0.6 0  -0.02499999999999999 -0.6 0  0 -0.6 0  0.02500000000000002 -0.6 0  0.04999999999999999 -0.6 0  0.07500000000000001 -0.6 0  0.09999999999999998 -0.6 0  0.125 -0.6 0  0.15 -0.6 0  0.175 -0.6 0  0.2 -0.6 0  0.225 -0.6 0  0.25 -0.6 0  -0.25 -0.575 0  -0.225 -0.575 0  -0.2 -0.575 0  -0.175 -0.575 0  -0.15 -0.575 0  -0.125 -0.575 0  -0.1 -0.575 0  -0.07500000000000001 -0.575 0  -0.04999999999999999 -0.575 0  -0.02499999999999999 -0.575 0  0 -0.575 0  0.02500000000000002 -0.575 0  0.04999999999999999 -0.575 0  0.07500000000000001 -0.575 0  0.09999999999999998 -0.575 0  0.125 -0.575 0  0.15 -0.575 0  0.175 -0.575 0  0.2 -0.575 0  0.225 -0.575 0  0.25 -0.575 0  -0.25 -0.55 0  -0.225 -0.55 0  -0.2 -0.55 0  -0.175 -0.55 0  -0.15 -0.55 0  -0.125 -0.55 0  -0.1 -0.55 0  -0.07500000000000001 -0.55 0  -0.04999999999999999 -0.55 0  -0.02499999999999999 -0.55 0  0 -0.55 0  0.02500000000000002 -0.55 0  0.04999999999999999 -0.55 0  0.07500000000000001 -0.55 0  0.09999999999999998 -0.55 0  0.125 -0.55 0  0.15 -0.55 0  0.175 -0.55 0  0.2 -0.55 0  0.225 -0.55 0  0.25 -0.55 0  -0.25 -0.525 0  -0.225 -0.525 0  -0.2 -0.525 0  -0.175 -0.525 0  -0.15 -0.525 0  -0.125 -0.525 0  -0.1 -0.525 0  -0.07500000000000001 -0.525 0  -0.04999999999999999 -0.525 0  -0.02499999999999999 -0.525 0  0 -0.525 0  0.02500000000000002 -0.525 0  0.04999999999999999 -0.525 0  0.07500000000000001 -0.525 0  0.09999999999999998 -0.525 0  0.125 -0.525 0  0.15 -0.525 0  0.175 -0.525 0  0.2 -0.525 0  0.225 -0.525 0  0.25 -0.525 0  -0.25 -0.5 0  -0.225 -0.5 0  -0.2 -0.5 0  -0.175 -0.5 0  -0.15 -0.5 0  -0.125 -0.5 0  -0.1 -0.5 0  -0.07500000000000001 -0.5 0  -0.04999999999999999 -0.5 0  -0.02499999999999999 -0.5 0  0 -0.5 0  0.02500000000000002 -0.5 0  0.04999999999999999 -0.5 0  0.07500000000000001 -0.5 0  0.09999999999999998 -0.5 0  0.125 -0.5 0  0.15 -0.5 0  0.175 -0.5 0  0.2 -0.5 0  0.225 -0.5 0  0.25 -0.5 0  -0.25 -0.475 0  -0.225 -0.475 0  -0.2 -0.475 0  -0.175 -0.475 0  -0.15 -0.475 0  -0.125 -0.475 0  -0.1 -0.475 0  -0.07500000000000001 -0.475 0  -0.04999999999999999 -0.475 0  -0.02499999999999999 -0.475 0  0 -0.475 0  0.02500000000000002 -0.475 0  0.04999999999999999 -0.475 0  0.07500000000000001 -0.475 0  0.09999999999999998 -0.475 0  0.125 -0.475 0  0.15 -0.475 0  0.175 -0.475 0  0.2 -0.475 0  0.225 -0.475 0  0.25 -0.475 0  -0.25 -0.45 0  -0.225 -0.45 0  -0.2 -0.45 0  -0.175 -0.45 0  -0.15 -0.45 0  -0.125 -0.45 0  -0.1 -0.45 0  -0.07500000000000001 -0.45 0  -0.04999999999999999 -0.45 0  -0.02499999999999999 -0.45 0  0 -0.45 0  0.02500000000000002 -0.45 0  0.04999999999999999 -0.45 0  0.07500000000000001 -0.45 0  0.09999999999999998 -0.45 0  0.125 -0.45 0  0.15 -0.45 0  0.175 -0.45 0  0.2 -0.45 0  0.225 -0.45 0  0.25 -0.45 0  -0.25 -0.425 0  -0.225 -0.425 0  -0.2 -0.425 0  -0.175 -0.425 0  -0.15 -0.425 0  -0.125 -0.425 0  -0.1 -0.425 0  -0.07500000000000001 -0.425 0  -0.04999999999999999 -0.425 0  -0.02499999999999999 -0.425 0  0 -0.425 0  0.02500000000000002 -0.425 0  0.04999999999999999 -0.425 0  0.07500000000000001 -0.425 0  0.
[...]
<PointData  Scalars=" mean stress"> 
<DataArray  type="Float64"  Name=" mean stress"  format="ascii">1.4984009108043836e+07  1.4984008953980761e+07  1.4984008936197050e+07  1.4984008934397833e+07  1.4984008934648817e+07  1.4984008934611702e+07  1.4984008934617408e+07  1.4984008934616501e+07  1.4984008934616715e+07  1.4984008934616698e+07  1.4984008934616731e+07  1.4984008934616776e+07  1.4984008934616854e+07  1.4984008934616758e+07  1.4984008934617629e+07  1.4984008934612000e+07  1.4984008934649127e+07  1.4984008934398169e+07  1.4984008936197411e+07  1.4984008953981141e+07  1.4984009108044216e+07  1.5008626801020857e+07  1.5008625989969589e+07  1.5008625950483367e+07  1.5008625951738758e+07  1.5008625951542614e+07  1.5008625951573590e+07  1.5008625951568659e+07  1.5008625951569483e+07  1.5008625951569408e+07  1.5008625951569423e+07  1.5008625951569481e+07  1.5008625951569539e+07  1.5008625951569544e+07  1.5008625951569740e+07  1.5008625951568961e+07  1.5008625951573925e+07  1.5008625951542998e+07  1.5008625951739172e+07  1.5008625950483803e+07  1.5008625989969997e+07  1.5008626801021304e+07  1.5082475306387698e+07  1.5082471676189695e+07  1.5082471644733170e+07  1.5082471644357236e+07  1.5082471644451449e+07  1.5082471644433456e+07  1.5082471644436695e+07  1.5082471644436192e+07  1.5082471644436292e+07  1.5082471644436378e+07  1.5082471644436382e+07  1.5082471644436462e+07  1.5082471644436544e+07  1.5082471644436486e+07  1.5082471644437063e+07  1.5082471644433891e+07  1.5082471644451907e+07  1.5082471644357709e+07  1.5082471644733712e+07  1.5082471676190253e+07  1.5082475306388201e+07  1.5205537723895520e+07  1.5205529540961519e+07  1.5205529510066418e+07  1.5205529510172212e+07  1.5205529510142727e+07  1.5205529510150217e+07  1.5205529510148602e+07  1.5205529510148967e+07  1.5205529510148946e+07  1.5205529510149011e+07  1.5205529510149097e+07  1.5205529510149132e+07  1.5205529510149177e+07  1.5205529510149300e+07  1.5205529510149099e+07  1.5205529510150641e+07  1.5205529510143312e+07  1.5205529510172784e+07  1.5205529510066975e+07  1.5205529540962163e+07  1.5205537723896198e+07  1.5377785089069637e+07  1.5377770647729907e+07  1.5377770619444814e+07  1.5377770619443916e+07  1.5377770619450921e+07  1.5377770619448654e+07  1.5377770619449355e+07  1.5377770619449193e+07  1.5377770619449304e+07  1.5377770619449301e+07  1.5377770619449401e+07  1.5377770619449487e+07  1.5377770619449578e+07  1.5377770619449589e+07  1.5377770619449753e+07  1.5377770619449247e+07  1.5377770619451484e+07  1.5377770619444482e+07  1.5377770619445454e+07  1.5377770647730522e+07  1.5377785089070356e+07  1.5599173798965791e+07  1.5599151527603609e+07  1.5599151502188850e+07  1.5599151502204025e+07  1.5599151502202610e+07  1.5599151502203185e+07  1.5599151502202976e+07  1.5599151502203126e+07  1.5599151502203077e+07  1.5599151502203193e+07  1.5599151502203230e+07  1.5599151502203323e+07  1.5599151502203306e+07  1.5599151502203407e+07  1.5599151502203440e+07  1.5599151502203668e+07  1.5599151502203165e+07  1.5599151502204673e+07  1.5599151502189552e+07  1.5599151527604291e+07  1.5599173798966506e+07  1.5869642778695006e+07  1.5869611251776401e+07  1.5869611229658749e+07  1.5869611229666498e+07  1.5869611229666816e+07  1.5869611229666572e+07  1.5869611229666729e+07  1.5869611229666727e+07  1.5869611229666814e+07  1.5869611229666920e+07  1.5869611229666965e+07  1.5869611229667040e+07  1.5869611229667110e+07  1.5869611229667166e+07  1.5869611229667319e+07  1.5869611229667163e+07  1.5869611229667414e+07  1.5869611229667054e+07  1.5869611229659546e+07  1.5869611251777148e+07  1.5869642778695665e+07  1.6189109793516699e+07  1.6189067754545938e+07  1.6189067735983511e+07  1.6189067735988081e+07  1.6189067735988047e+07  1.6189067735988175e+07  1.6189067735988190e+07  1.6189067735988274e+07  1.6189067735988304e+07  1.6189067735988369e+07  1.6189067735988326e+07  1.6189067735988514e+07  1.6189067735988447e+07  1.6189067735988686e+07  1.6189067735988609e+07  1.6189067735988816e+07  1.6189067735988704e+07  1.6189067735988902e+07  1.6189067735984225e+07  1.6189067754546696e+07  1.6189109793517431e+07  1.6557467071868187e+07  1.6557413447386822e+07  1.6557413432525449e+07  1.6557413432526382e+07  1.6557413432526384e+07  1.6557413432526518e+07  1.6557413432526454e+07  1.6557413432526575e+07  1.6557413432526626e+07  1.6557413432526523e+07  1.6557413432526730e+07  1.6557413432526676e+07  1.6557413432526911e+07  1.6557413432526920e+07  1.6557413432527034e+07  1.6557413432527019e+07  1.6557413432527095e+07  1.6557413432527073e+07  1.6557413432526089e+07  1.6557413447387764e+07  1.6557467071868844e+07  1.6974576282172672e+07  1.6974510190427445e+07  1.6974510179299053e+07  1.6974510179297082e+07  1.6974510179297023e+07  1.6974510179297172e+07  1.6974510179297205e+07  1.6974510179297209e+07  1.6974510179297231e+07  1.6974510179297343e+07  1.6974510179297309e+07  1.6974510179297384e+07  1.6974510179297555e+07  1.6974510179297499e+07  1.6974510179297626e+07  1.6974510179297514e+07  1.6974510179297790e+07  1.6974510179297633e+07  1.6974510179299790e+07  1.6974510190428082e+07  1.6974576282173607e+07  1.7440262941297762e+07  1.7440183695327591e+07  1.7440183687867012e+07  1.7440183687862482e+07  1.7440183687862366e+07  1.7440183687862296e+07  1.7440183687862426e+07  1.7440183687862433e+07  1.7440183687862474e+07  1.7440183687862646e+07  1.7440183687862653e+07  1.7440183687862840e+07  1.7440183687862724e+07  1.7440183687862962e+07  1.7440183687862728e+07  1.7440183687863052e+07  1.7440183687862918e+07  1.7440183687863141e+07  1.7440183687867746e+07  1.7440183695328217e+07  1.7440262941298537e+07  1.7954310337227844e+07  1.7954217443118181e+07  1.7954217439177442e+07  1.7954217439170752e+07  1.7954217439171024e+07  1.7954217439170953e+07  1.7954217439170960e+07  1.7954217439170897e+07  1.7954217439171042e+07  1.7954217439171109e+07  1.7954217439171121e+07  1.7954217439171199e+07  1.7954217439171281e+07  1.7954217439171407e+07  1.7954217439171448e+07  1.7954217439171404e+07  1.7954217439171635e+07  1.7954217439171478e+07  1.7954217439178281e+07  1.7954217443119012e+07  1.7954310337228701e+07  1.8516453057667751e+07  1.8516346208721586e+07  1.8516346208088614e+07  1.8516346208080605e+07  1.8516346208080690e+07  1.8516346208080631e+07  1.8516346208080448e+07  1.8516346208080679e+07  1.8516346208080746e+07  1.8516346208080750e+07  1.8516346208080880e+07  1.8516346208080988e+07  1.8516346208081011e+07  1.8516346208080906e+07  1.8516346208081160e+07  1.8516346208081245e+07  1.8516346208081149e+07  1.8516346208081301e+07  1.8516346208089445e+07  1.8516346208722483e+07  1.8516453057668526e+07  1.9126370223385029e+07  1.9126249291058645e+07  1.9126249293474890e+07  1.9126249293465711e+07  1.9126249293465909e+07  1.9126249293465871e+07  1.9126249293466251e+07  1.9126249293466002e+07  1.9126249293465983e+07  1.9126249293466136e+07  1.9126249293466069e+07  1.9126249293466248e+07  1.9126249293466303e+07  1.9126249293466300e+07  1.9126249293466367e+07  1.9126249293466378e+07  1.9126249293466438e+07  1.9126249293466568e+07  1.9126249293475557e+07  1.9126249291059636e+07  1.9126370223385856e+07  1.9783678531193476e+07  1.9783543553631153e+07  1.9783543558806963e+07  1.9783543558797602e+07  1.9783543558797617e+07  1.9783543558797628e+07  1.9783543558797736e+07  1.9783543558797583e+07  1.9783543558797780e+07  1.9783543558797643e+07  1.9783543558797903e+07  1.9783543558797888e+07  1.9783543558798112e+07  1.9783543558798227e+07  1.9783543558798123e+07  1.9783543558798257e+07  1.9783543558798272e+07  1.9783543558798309e+07  1.9783543558808032e+07  1.9783543553631969e+07  1.9783678531194482e+07  2.0487925216239545e+07  2.0487776385173924e+07  2.0487776392804351e+07  2.0487776392794918e+07  2.0487776392794628e+07  2.0487776392794840e+07  2.0487776392794739e+07  2.0487776392794900e+07  2.0487776392795164e+07  2.0487776392795078e+07  2.0487776392795146e+07  2.0487776392795295e+07  2.0487776392795384e+07  2.0487776392795511e+07  2.0487776392795414e+07  2.0487776392795607e+07  2.0487776392795675e+07  2.0487776392795645e+07  2.0487776392805539e+07  2.0487776385174874e+07  2.0487925216240916e+07  2.1238581046632949e+07  2.1238418693329386e+07  2.1238418703104064e+07  2.1238418703094516e+07  2.1238418703094624e+07  2.1238418703094501e+07  2.1238418703094576e+07  2.1238418703094892e+07  2.1238418703094922e+07  2.1238418703095119e+07  2.1238418703095090e+07  2.1238418703094963e+07  2.1238418703095071e+07  2.1238418703095280e+07  2.1238418703095239e+07  2.1238418703095116e+07  2.1238418703095313e+07  2.1238418703095295e+07  2.1238418703105006e+07  2.1238418693330277e+07  2.1238581046633713e+07  2.2035033465377718e+07  2.2034858046175603e+07  2.2034858057789743e+07  2.2034858057780161e+07  2.2034858057780564e+07  2.2034858057780731e+07  2.2034858057780668e+07  2.2034858057780664e+07  2.2034858057780631e+07  2.2034858057780687e+07  2.2034858057780851e+07  2.2034858057781059e+07  2.2034858057780944e+07  2.2034858057780679e+07  2.2034858057781134e+07  2.2034858057781145e+07  2.2034858057780966e+07  2.2034858057781406e+07  2.2034858057790235e+07  2.2034858046176698e+07  2.2035033465378314e+07  2.2876579994953863e+07  2.2876392076842934e+07  2.2876392090001851e+07  2.2876392089993179e+07  2.2876392089992937e+07  2.2876392089993197e+07  2.2876392089993101e+07  2.2876392089993399e+07  2.2876392089993495e+07  2.2876392089993566e+07  2.2876392089993414e+07  2.2876392089993730e+07  2.2876392089993991e+07  2.2876392089993991e+07  2.2876392089993898e+07  2.2876392089993980e+07  2.2876392089994036e+07  2.2876392089993834e+07  2.2876392090002667e+07  2.2876392076843739e+07  2.2876579994955055e+07  2.3762422018719204e+07  2.3762222265265964e+07  2.3762222279690865e+07  2.3762222279683143e+07  2.3762222279682875e+07  2.3762222279683441e+07  2.3762222279683419e+07  2.3762222279683523e+07  2.3762222279683527e+07  2.3762222279683504e+07  2.3762222279683821e+07  2.3762222279683750e+07  2.3762222279683825e+07  2.3762222279684015e+07  2.3762222279683985e+07  2.3762222279684033e+07  2.3762222279684409e+07  2.3762222279684212e+07  2.3762222279692076e+07  2.3762222265267029e+07  2.3762422018720485e+07  2.4691659050515682e+07  2.4691448208361030e+07  2.4691448223793197e+07  2.4691448223785698e+07  2.4691448223785866e+07  2.4691448223785605e+07  2.4691448223786023e+07  2.4691448223785739e+07  2.4691448223786086e+07  2.4691448223786067e+07  2.4691448223786350e+07  2.4691448223786384e+07  2.4691448223786429e+07  2.4691448223786160e+07  2.4691448223786578e+07  2.4691448223786555e+07  2.4691448223787002e+07  2.4691448223786887e+07  2.4691448223794453e+07  2.4691448208361968e+07  2.4691659050516844e+07  2.5663283599499408e+07  2.5663062485562455e+07  2.5663062501762524e+07  2.5663062501755625e+07  2.5663062501756176e+07  2.5663062501755733e+07  2.5663062501756106e+07  2.5663062501756445e+07  2.5663062501756191e+07  2.5663062501756798e+07  2.5663062501756456e+07  2.5663062501757141e+07  2.5663062501756370e+07  2.5663062501757070e+07  2.5663062501756676e+07  2.5663062501756892e+07  2.5663062501756843e+07  2.5663062501757134e+07  2.5663062501764271e+07  2.5663062485564254e+07  2.5663283599500708e+07  2.6676176731255244e+07  2.6675946220706418e+07  2.6675946237454049e+07  2.6675946237447530e+07  2.6675946237447985e+07  2.6675946237448048e+07  2.6675946237448066e+07  2.6675946237447798e+07  2.6675946237447612e+07  2.6675946237448033e+07  2.6675946237448104e+07  2.6675946237448383e+07  2.6675946237448446e+07  2.6675946237448771e+07  2.6675946237449028e+07  2.6675946237449143e+07  2.6675946237448636e+07  2.6675946237448879e+07  2.6675946237455118e+07  2.6675946220708005e+07  2.6676176731256645e+07  2.7729104418734543e+07  2.7728865433747221e+07  2.7728865450843256e+07  2.7728865450838156e+07  2.7728865450837329e+07  2.7728865450838156e+07  2.7728865450837739e+07  2.7728865450838022e+07  2.7728865450838055e+07  2.7728865450837553e+07  2.7728865450838115e+07  2.7728865450838115e+07  2.7728865450838976e+07  2.7728865450838391e+07  2.7728865450839072e+07  2.7728865450838976e+07  2.7728865450838793e+07  2.7728865450838789e+07  2.7728865450844530e+07  2.7728865433748804e+07  2.7729104418735884e+07  2.8820714767592084e+07  2.8820468266867593e+07  2.8820468284130383e+07  2.8820468284125369e+07  2.8820468284125298e+07  2.8820468284125645e+07  2.8820468284125321e+07  2.8820468284125511e+07  2.8820468284125499e+07  2.8820468284125775e+07  2.8820468284125928e+07  2.8820468284125917e+07  2.8820468284125928e+07  2.8820468284126557e+07  2.8820468284126423e+07  2.8820468284126583e+07  2.8820468284126572e+07  2.8820468284126967e+07  2.8820468284131821e+07  2.8820468266868569e+07  2.8820714767593771e+07  2.9949536190104868e+07  2.9949283159116525e+07  2.9949283176383369e+07  2.9949283176378783e+07  2.9949283176378593e+07  2.9949283176377952e+07  2.9949283176378291e+07  2.9949283176378421e+07  2.9949283176379286e+07  2.9949283176379178e+07  2.9949283176379111e+07  2.9949283176379163e+07  2.9949283176379446e+07  2.9949283176379822e+07  2.9949283176379457e+07  2.9949283176379871e+07  2.9949283176380105e+07  2.9949283176379934e+07  2.9949283176384714e+07  2.9949283159117967e+07  2.9949536190106157e+07  3.1113976590224173e+07  3.1113718032143518e+07  3.1113718049266446e+07  3.1113718049262155e+07  3.1113718049262945e+07  3.1113718049262151e+07  3.1113718049262755e+07  3.1113718049262755e+07  3.1113718049262561e+07  3.1113718049263336e+07  3.1113718049263429e+07  3.1113718049263388e+07  3.1113718049263544e+07  3.1113718049263597e+07  3.1113718049263973e+07  3.1113718049263000e+07  3.1113718049263839e+07  3.1113718049263313e+07  3.1113718049268268e+07  3.1113718032144878e+07  3.1113976590225231e+07  3.2312323609526869e+07  3.2312060536763955e+07  3.2312060553610470e+07  3.2312060553606510e+07  3.2312060553606279e+07  3.2312060553606801e+07  3.2312060553606641e+07  3.2312060553606734e+07  3.2312060553607125e+07  3.2312060553606581e+07  3.2312060553606901e+07  3.2312060553607207e+07  3.2312060553607412e+07  3.2312060553607352e+07  3.2312060553607762e+07  3.2312060553608149e+07  3.2312060553607594e+07  3.2312060553608149e+07  3.2312060553611536e+07  3.2312060536765490e+07  3.2312323609528396e+07  3.3542745970068634e+07  3.3542479396381017e+07  3.3542479412831910e+07  3.3542479412828919e+07  3.3542479412828129e+07  3.3542479412829064e+07  3.3542479412828684e+07  3.3542479412828933e+07  3.3542479412828710e+07  3.3542479412828382e+07  3.3542479412829041e+07  3.3542479412829135e+07  3.3542479412829801e+07  3.3542479412830014e+07  3.3542479412829690e+07  3.3542479412830219e+07  3.3542479412830148e+07  3.3542479412830614e+07  3.3542479412833367e+07  3.3542479396382391e+07  3.3542745970068898e+07  3.4803295935625084e+07  3.4803026868763857e+07  3.4803026884711690e+07  3.4803026884708680e+07  3.4803026884708926e+07  3.4803026884708978e+07  3.4803026884708986e+07  3.4803026884708516e+07  3.4803026884708710e+07  3.4803026884709284e+07  3.4803026884708717e+07  3.4803026884709306e+07  3.4803026884709157e+07  3.4803026884709410e+07  3.4803026884709440e+07  3.4803026884709582e+07  3.4803026884709716e+07  3.4803026884709343e+07  3.4803026884712711e+07  3.4803026868764281e+07  3.4803295935627446e+07  3.6091912897710033e+07  3.6091642332539387e+07  3.6091642347889811e+07  3.6091642347887248e+07  3.6091642347886913e+07  3.6091642347886920e+07  3.6091642347886868e+07  3.6091642347887263e+07  3.6091642347886764e+07  3.6091642347887442e+07  3.6091642347887360e+07  3.6091642347887859e+07  3.6091642347887509e+07  3.6091642347887829e+07  3.6091642347887523e+07  3.6091642347887374e+07  3.6091642347887836e+07  3.6091642347887926e+07  3.6091642347890370e+07  3.6091642332540780e+07  3.6091912897711590e+07  3.7406428077262811e+07  3.7406156989358649e+07  3.7406157004025429e+07  3.7406157004022591e+07  3.7406157004023500e+07  3.7406157004022449e+07  3.7406157004023090e+07  3.7406157004022747e+07  3.7406157004023492e+07  3.7406157004022956e+07  3.7406157004023120e+07  3.7406157004022889e+07  3.7406157004023783e+07  3.7406157004023820e+07  3.7406157004024111e+07  3.7406157004024573e+07  3.7406157004024245e+07  3.7406157004023820e+07  3.7406157004026584e+07  3.7406156989360414e+07  3.7406428077263989e+07  3.8744570317378856e+07  3.8744299657066673e+07  3.8744299670974419e+07  3.8744299670972176e+07  3.8744299670972720e+07  3.8744299670972861e+07  3.8744299670972727e+07  3.8744299670972370e+07  3.8744299670972481e+07  3.8744299670973182e+07  3.8744299670972891e+07  3.8744299670973137e+07  3.8744299670972861e+07  3.8744299670973085e+07  3.8744299670973815e+07  3.8744299670973487e+07  3.8744299670973599e+07  3.8744299670973741e+07  3.8744299670975804e+07  3.8744299657067381e+07  3.8744570317380495e+07  4.0103972926976211e+07  4.0103703613811590e+07  4.0103703626896292e+07  4.0103703626895100e+07  4.0103703626894563e+07  4.0103703626894623e+07  4.0103703626893923e+07  4.0103703626895413e+07  4.0103703626894899e+07  4.0103703626894735e+07  4.0103703626895174e+07  4.0103703626895137e+07  4.0103703626895778e+07  4.0103703626895048e+07  4.0103703626895376e+07  4.0103703626895607e+07  4.0103703626895890e+07  4.0103703626896322e+07  4.0103703626897335e+07  4.0103703613813490e+07  4.0103972926976137e+07  4.1482181520269163e+07  4.1481914437960118e+07  4.1481914450166605e+07  4.1481914450162865e+07  4.1481914450164042e+07  4.1481914450164206e+07  4.1481914450164482e+07  4.1481914450164102e+07  4.1481914450164072e+07  4.1481914450164430e+07  4.1481914450164407e+07  4.1481914450164810e+07  4.1481914450164773e+07  4.1481914450164884e+07  4.1481914450163946e+07  4.1481914450164944e+07  4.1481914450164542e+07  4.1481914450164013e+07  4.1481914450167626e+07  4.1481914437960900e+07  4.1482181520270340e+07  4.2876662782440387e+07  4.2876398774259947e+07  4.2876398785510443e+07  4.2876398785524502e+07  4.2876398785517722e+07  4.2876398785519116e+07  4.2876398785519049e+07  4.2876398785519205e+07  4.2876398785520285e+07  4.2876398785519749e+07  4.2876398785520025e+07  4.2876398785520308e+07  4.2876398785519138e+07  4.2876398785519853e+07  4.2876398785520256e+07  4.2876398785519809e+07  4.2876398785519056e+07  4.2876398785524569e+07  4.2876398785512939e+07  4.2876398774260052e+07  4.2876662782442547e+07  4.4284814078684106e+07  4.4284553942952640e+07  4.4284553953405917e+07  4.4284553953327931e+07  4.4284553953354076e+07  4.4284553953348987e+07  4.4284553953349695e+07  4.4284553953349233e+07  4.4284553953349873e+07  4.4284553953349993e+07  4.4284553953350194e+07  4.4284553953350112e+07  4.4284553953350432e+07  4.4284553953350186e+07  4.4284553953349955e+07  4.4284553953350440e+07  4.4284553953355640e+07  4.4284553953328796e+07  4.4284553953406595e+07  4.4284553942952774e+07  4.4284814078684792e+07  4.5703973809211962e+07  4.5703718297853492e+07  4.5703718306277320e+07  4.5703718306660675e+07  4.5703718306584403e+07  4.5703718306582697e+07  4.5703718306585602e+07  4.5703718306584999e+07  4.5703718306584321e+07  4.5703718306585498e+07  4.5703718306583986e+07  4.5703718306585029e+07  4.5703718306584626e+07  4.5703718306584828e+07  4.5703718306585364e+07  4.5703718306583114e+07  4.5703718306583747e+07  4.5703718306661531e+07  4.5703718306277402e+07  4.5703718297855079e+07  4.5703973809212036e+07  4.7131432415730856e+07  4.7131182216346420e+07  4.7131182230178654e+07  4.7131182228623688e+07  4.7131182228496775e+07  4.7131182228547119e+07  4.7131182228536531e+07  4.7131182228539430e+07  4.7131182228539288e+07  4.7131182228537969e+07  4.7131182228539154e+07  4.7131182228538454e+07  4.7131182228538990e+07  4.7131182228538543e+07  4.7131182228537254e+07  4.7131182228547476e+07  4.7131182228497267e+07  4.7131182228624217e+07  4.7131182230178475e+07  4.7131182216346480e+07  4.7131432415729545e+07  4.8564443867062591e+07  4.8564199694774717e+07  4.8564199659873866e+07  4.8564199654728241e+07  4.8564199655627809e+07  4.8564199655488081e+07  4.8564199655509442e+07  4.8564199655506231e+07  4.8564199655507348e+07  4.8564199655506551e+07  4.8