<?xml version="1.0"?>
<VTKFile type="UnstructuredGrid"  version="0.1"  >
<UnstructuredGrid>
<Piece  NumberOfPoints="527" NumberOfCells="971">
<Points>
<DataArray  type="Float64"  NumberOfComponents="3"  format="ascii">0.01552943322599933 -0.01039223976967649 0  0.01561231669066057 -0.008674083460499629 0  0.01413052010119659 -0.009389502160894639 0  0.009071852058287186 -0.03111646240531644 0  0.009454590536262899 -0.02926375325908127 0  0.008053957990568473 -0.0299402944179232 0  -0.005263160237910004 -0.02021752904783427 0  -0.007142011617282996 -0.01910283839912953 0  -0.005721283706472954 -0.01885557948612299 0  0.005715900577929808 -0.01040157292959515 0  0.004247300133094481 -0.009831459016042156 0  0.004907604482269278 -0.01163228449796421 0  0.006078421240027776 -0.01533115251916825 0  0.007761962215727216 -0.01436391407193771 0  0.007560746450350726 -0.01596246015309179 0  0.01492528999248245 -0.002433543897202234 0  0.01607090679295778 -0.003444215195152167 0  0.01610599002356381 -0.001455662474053389 0  0.006028532990060553 -0.03846042534778643 0  0.006689526301856015 -0.04071687560886686 0  0.00470687896267873 -0.04007262327868574 0  0.01533845899304755 -0.03450745320159019 0  0.01291635033112928 -0.03408703642975243 0  0.01431567335582407 -0.03550779203295518 0  0.007681421014797305 -0.0335876017633407 0  0.007398918941703169 -0.03180190167941388 0  0.009257982989763691 -0.03352046177391386 0  -7.74643124966494e-05 -0.01210497681433211 0  0.002001407188016981 -0.01282170755437008 0  0.0005044285752298626 -0.01379044141987053 0  -0.00554502207324609 -0.01082482616207859 0  -0.006966384852671079 -0.01037459975243556 0  -0.007325780537656768 -0.01169056999739311 0  0.0002817996959115863 -0.02849048409288438 0  -0.000521210781477624 -0.03017876919236858 0  -0.001093500833290798 -0.02871309477119382 0  -0.002501899107215252 -0.03451361758785813 0  -0.003994222433335283 -0.03302847981728372 0  -0.00237569780992264 -0.03289446498059487 0  -0.002527586879520364 -0.00629891729928651 0  -0.0001503063646937945 -0.006276275587524281 0  -0.001326895479615754 -0.004595719664517121 0  0.003472222222222224 -0.02569444444444444 0  0.0056511112593847 -0.02488019662884799 0  0.003895180821987836 -0.0236393607118779 0  -0.008984816994941665 -0.02386872512578754 0  -0.01047523617110418 -0.02424834223494819 0  -0.008755951219614224 -0.02540612226970509 0  0.001146640918992101 -0.03102340112947342 0  0.002374909778313783 -0.03024414641598028 0  0.0007456373584565139 -0.02974621554810341 0  0.0182766464026848 -0.03019791398854459 0  0.02042604155621803 -0.02955189065163524 0  0.0197299190175258 -0.03137365445772399 0  0.01379230725571167 -0.03273328139531854 0  0.01501791995124707 -0.03322599139945957 0  0.01329990464676595 -0.03651525526650057 0  0.01388418709928712 -0.03784026285822586 0  0.01225930750566253 -0.03749767039702803 0  0.002256955057953323 -0.03542009683155154 0  0.002478844003272855 -0.03693214507778883 0  0.0009942345205310021 -0.03581760440233908 0  7.979462213787225e-05 -0.02582162422291141 0  -0.0009137538293355649 -0.02723890034088429 0  -0.001688252126561377 -0.02596267815987898 0  -0.007685836574511986 -0.007395433330292244 0  -0.009035679641316699 -0.005678099849451732 0  -0.009317707561007742 -0.00723817591573791 0  0.0004382181809313461 -0.04439373199081217 0  0.0007479406588227182 -0.04630941102478892 0  0.001434473698376028 -0.04521553686097385 0  0.009039169047364189 -0.04062936042476101 0  0.007849009582011639 -0.03910743039857202 0  0.009507271836584152 -0.03875260097857094 0  0.0116140763143414 -0.0200294715722589 0  0.01255567389343238 -0.01875669977713929 0  0.01289863565765652 -0.02096070221481863 0  -0.001242692848311552 -0.02453787375321078 0  0.0002330144247192046 -0.02434070912065012 0  -0.005615842898686297 -0.03437124196063728 0  -0.007416067229776028 -0.03518034726825829 0  -0.006054704616810422 -0.03580205691967763 0  -0.004157923962185587 -0.03660884936063957 0  -0.002121340039484437 -0.0366645371443241 0  -0.003389459586812602 -0.03835665334840834 0  0.01436274818423154 -0.02590687146513118 0  0.01376997500590554 -0.02405110063143605 0  0.01312811451181107 -0.02527868237689237 0  0.015181836533936 -0.03191525840546049 0  0.01661043679905785 -0.0331297702723849 0  0.01668600241955626 -0.03097866552280258 0  0.004614118426858764 -0.003565458483726032 0  0.002509334680925278 -0.004358807632452355 0  0.002343081211279474 -0.002873718352678741 0  0.01731419597837964 -0.008924158772178585 0  0.01891769558890485 -0.008130063332440622 0  0.01661233695577045 -0.007784557864161785 0  0.003888413565608712 -0.01876506087328944 0  0.004891551310597494 -0.02075766768178287 0  0.00544129398496433 -0.01923210266410404 0  0.003071894030292726 -0.02042492932582908 0  0.002062167648373497 -0.0188974618762693 0  -0.0057072681558855 -0.02389109188241274 0  -0.007219239710984426 -0.02563954733366955 0  -0.007346103689937933 -0.02388886401972043 0  -0.004305627510404235 -0.01860920323802679 0  -0.003838294149787177 -0.01997663600034633 0  -0.005175004679933259 -0.03128537442936601 0  -0.003579275799392356 -0.02990168269634324 0  -0.003587402364175357 -0.03149153588773727 0  0.003782179117330453 -0.03352803109814534 0  0.001800461004723053 -0.0329743674150207 0  0.009302575519085478 -0.04534992603921641 0  0.009513501161241235 -0.04296668972212099 0  0.01124108542315425 -0.04409850809919492 0  -0.0009083904135866786 -0.008529558496548306 0  0.000950029780725288 -0.009981924865605908 0  0.0008390356868680526 -0.007863289832610657 0  -0.0078125 -0.001818766801925782 0  -0.009005249798019331 -0.003220453989580621 0  -0.006849416828355778 -0.002880654960679921 0  -0.005471962873640671 -0.002483469538180225 0  -0.004703752454419383 -0.003891541969087049 0  -0.006032357434950986 -0.00440111221351207 0  0.015625 0 0  0.0140625 0 0  0.01388737105418562 -0.001431809280784936 0  -0.007999101390003741 -0.03706595863040997 0  -0.002966181741115359 -0.02519100039815357 0  -0.003650638982939926 -0.02687347943237787 0  -0.004763226258762934 -0.02544039938959696 0  -0.00733492014463835 -0.0222500651304849 0  -0.005550790196063865 -0.02199648679170341 0  0.01595944973070434 -0.01665864079534912 0  0.01490811737430122 -0.01815748923040521 0  0.01620791970234805 -0.01795106480095328 0  0.01520615639784498 -0.01268049936812179 0  0.01475119078452227 -0.0148270426093771 0  0.01391218072944126 -0.01352772495826596 0  0.001807424563025037 -0.0170842299175074 0  -8.496028144727461e-05 -0.0173220879651638 0  0.001003955519332805 -0.01812162078302066 0  0.001645105436913761 -0.01133910380044415 0  0.01398706243080254 -0.0221150896608866 0  0.01258564041330076 -0.02332910432433855 0  0.009194419875177533 -0.02206075900562258 0  0.01024587951903527 -0.02330935545630703 0  0.01055332124836828 -0.02122269026435361 0  0.007590321611890428 -0.01002544604880517 0  0.009217381127136798 -0.01087786990918838 0  0.008858123610367597 -0.009584568252459222 0  0.01075672523973394 -0.01188005193203498 0  0.008545263046002623 -0.01258731613206785 0  -0.002401366537453123 -0.02012997179630549 0  -0.003768377061401588 -0.02226186400376761 0  -0.001934031832172576 -0.02146311508091197 0  -0.001242172060814776 -0.02269478175693585 0  -0.002687248212944535 -0.02354019374584471 0  -0.008385574756346015 -0.01083162927881422 0  -0.007996120807677542 -0.009276532098770388 0  0.01135833061239636 -0.03411864136424596 0  0.01234457162076637 -0.03542175489045764 0  0.01484586826671411 -0.03892294491435778 0  0.01682229953162608 -0.03997649591280195 0  0.01537065409622362 -0.04031910134814119 0  0.01953075217518766 -0.02799030610032226 0  -0.006023660024602393 -0.03729834141399786 0  0.01556230856807037 -0.006954656242163968 0  0.01452119780971544 -0.007845376921609476 0  0.01493929066620763 -0.005842453764582118 0  0.00260771577430766 -0.04575534361521472 0  0.001593906033397699 -0.04805586364640495 0  0.003215512932028335 -0.04739683855119951 0  0.01388889061737944 -0.01961056581486995 0  0.00848679002385368 -0.01728089887285961 0  0.01091258567492647 -0.01676505135253015 0  0.009026629356790904 -0.01591729099564875 0  -0.0007291972817302392 -0.03815205647041336 0  -0.0008318520259667226 -0.04038123225473551 0  0.0007661706505117675 -0.03878712621920281 0  0.008592979660450702 -0.03732438270432173 0  0.008168121474082026 -0.03544844926309867 0  0.006801984231713659 -0.03674392697831581 0  0.001825126981212151 -0.008873854041609817 0  0.0004213409092374296 -0.003522267437169826 0  0.001176028743070504 -0.005312707133933157 0  0.003235556574780704 -0.04154949902408906 0  0.005169085000972016 -0.0420044241556977 0  0.01805191463477333 -0.01489685993184803 0  0.02031059517510626 -0.01433651055799742 0  0.01957410453124071 -0.01620020054378964 0  0.01748238166535701 -0.01634392573638821 0  0.01570862682144985 -0.02385902104839043 0  0.01610131562394197 -0.02156661281752332 0  0.01619085190094634 -0.01938421123497572 0  0.01478188997540652 -0.02082974819103365 0  -0.01088465027479771 -0.02276583133720164 0  -0.007808666799817795 -0.01546134924060014 0  -0.005536251248839077 -0.01513289695023397 0  -0.007593318388070634 -0.01416090010898731 0  -0.009529647465935568 -0.008809308805338086 0  0.00648040877914181 -0.009352850839624468 0  0.009688124777025769 -0.01460836901279954 0  0.01107020214776975 -0.01357625950359936 0  0.009744700986594435 -0.01324271814211144 0  -0.008680555555555554 -0.02743055555555555 0  -0.01026658336100219 -0.02577212780879937 0  -0.002375017943413014 -0.02816654106277556 0  0.001823757237959144 -0.02703169908190218 0  0.003833816990584821 -0.02734430907162308 0  0.017292207270899 -0.03696063516466189 0  0.01604828773016203 -0.03791592173361046 0  0.01751563465771312 -0.03854040120278274 0  -0.004350183622882246 -0.01639694235721915 0  -0.00654316002217061 -0.01619168547737489 0  -0.007439175550382293 -0.004187299635792556 0  0.01353758505471251 -0.04075172725089799 0  0.0129699535640053 -0.03896329809606121 0  0.01295019700693523 -0.
[...]
<PointData  Scalars=" mean stress"> 
<DataArray  type="Float64"  Name=" mean stress"  format="ascii">6.6609195401208534e+09  6.6609195403209085e+09  6.6609195401008272e+09  6.6609195403780918e+09  6.6609195400817490e+09  6.6609195402619257e+09  6.6609195401672478e+09  6.6609195400406504e+09  6.6609195402259064e+09  6.6609195403847427e+09  6.6609195403367243e+09  6.6609195401424580e+09  6.6609195403975115e+09  6.6609195404546747e+09  6.6609195401567278e+09  6.6609195402854338e+09  6.6609195402827511e+09  6.6609195402987528e+09  6.6609195404988594e+09  6.6609195405406170e+09  6.6609195401229172e+09  6.6609195408973761e+09  6.6609195411024895e+09  6.6609195405914869e+09  6.6609195403459435e+09  6.6609195404303675e+09  6.6609195402698641e+09  6.6609195400282917e+09  6.6609195402881498e+09  6.6609195403321581e+09  6.6609195402520380e+09  6.6609195402990427e+09  6.6609195404496851e+09  6.6609195405990925e+09  6.6609195399480171e+09  6.6609195396219244e+09  6.6609195400136976e+09  6.6609195399919548e+09  6.6609195400676069e+09  6.6609195403461418e+09  6.6609195404561481e+09  6.6609195405800581e+09  6.6609195400884056e+09  6.6609195403726234e+09  6.6609195403586359e+09  6.6609195396608524e+09  6.6609195404196854e+09  6.6609195391315985e+09  6.6609195399027662e+09  6.6609195409016562e+09  6.6609195405797901e+09  6.6609195406056681e+09  6.6609195407491817e+09  6.6609195409536657e+09  6.6609195396791916e+09  6.6609195408911161e+09  6.6609195401842537e+09  6.6609195424958591e+09  6.6609195405717592e+09  6.6609195402432604e+09  6.6609195402096815e+09  6.6609195400720921e+09  6.6609195397941875e+09  6.6609195405635147e+09  6.6609195402939157e+09  6.6609195403340597e+09  6.6609195401070175e+09  6.6609195398954592e+09  6.6609195407302837e+09  6.6609195397742481e+09  6.6609195401388712e+09  6.6609195406612844e+09  6.6609195407153120e+09  6.6609195402519865e+09  6.6609195399541111e+09  6.6609195403093491e+09  6.6609195407432356e+09  6.6609195404750614e+09  6.6609195401259842e+09  6.6609195389551897e+09  6.6609195408867369e+09  6.6609195407657089e+09  6.6609195400630884e+09  6.6609195397904644e+09  6.6609195399909773e+09  6.6609195402317905e+09  6.6609195403913288e+09  6.6609195397036190e+09  6.6609195399505272e+09  6.6609195396507988e+09  6.6609195399428034e+09  6.6609195401933193e+09  6.6609195401372719e+09  6.6609195402513933e+09  6.6609195406199331e+09  6.6609195402942028e+09  6.6609195402903976e+09  6.6609195401669750e+09  6.6609195403190241e+09  6.6609195404976215e+09  6.6609195402499647e+09  6.6609195403777275e+09  6.6609195402615786e+09  6.6609195402254524e+09  6.6609195403358107e+09  6.6609195402851954e+09  6.6609195404694138e+09  6.6609195409650021e+09  6.6609195408783102e+09  6.6609195400998182e+09  6.6609195399925833e+09  6.6609195399860172e+09  6.6609195402528343e+09  6.6609195402302637e+09  6.6609195396908484e+09  6.6609195402575922e+09  6.6609195402758493e+09  6.6609195402576694e+09  6.6609195405195322e+09  6.6609195403594255e+09  6.6609195398752317e+09  6.6609195403534403e+09  6.6609195409520187e+09  6.6609195399463682e+09  6.6609195403041410e+09  6.6609195401514215e+09  6.6609195403159113e+09  6.6609195403633242e+09  6.6609195404344368e+09  6.6609195400971041e+09  6.6609195403848562e+09  6.6609195405506239e+09  6.6609195404030504e+09  6.6609195407846088e+09  6.6609195400661497e+09  6.6609195402425680e+09  6.6609195405807533e+09  6.6609195402062788e+09  6.6609195403704910e+09  6.6609195403983765e+09  6.6609195401989536e+09  6.6609195401748953e+09  6.6609195401753006e+09  6.6609195397922974e+09  6.6609195398772984e+09  6.6609195402013178e+09  6.6609195399130220e+09  6.6609195405706530e+09  6.6609195401534672e+09  6.6609195400739775e+09  6.6609195402643299e+09  6.6609195404492922e+09  6.6609195402050610e+09  6.6609195402389488e+09  6.6609195402742071e+09  6.6609195401660290e+09  6.6609195402075682e+09  6.6609195407155056e+09  6.6609195403925190e+09  6.6609195400571680e+09  6.6609195404899120e+09  6.6609195379402847e+09  6.6609195384627724e+09  6.6609195380229073e+09  6.6609195411222067e+09  6.6609195402620001e+09  6.6609195395403099e+09  6.6609195402811260e+09  6.6609195399662914e+09  6.6609195402912445e+09  6.6609195405910006e+09  6.6609195397619171e+09  6.6609195407269859e+09  6.6609195404190502e+09  6.6609195397328587e+09  6.6609195400668917e+09  6.6609195403189354e+09  6.6609195408115530e+09  6.6609195401405420e+09  6.6609195402918634e+09  6.6609195402609644e+09  6.6609195398561840e+09  6.6609195403672304e+09  6.6609195402348347e+09  6.6609195404364367e+09  6.6609195401379585e+09  6.6609195396764669e+09  6.6609195402594137e+09  6.6609195406321182e+09  6.6609195399879856e+09  6.6609195401834946e+09  6.6609195403219604e+09  6.6609195404382229e+09  6.6609195401196871e+09  6.6609195402675238e+09  6.6609195400370102e+09  6.6609195404013214e+09  6.6609195401821909e+09  6.6609195403408375e+09  6.6609195400447950e+09  6.6609195405610952e+09  6.6609195402746849e+09  6.6609195398757362e+09  6.6609195401246777e+09  6.6609195401325321e+09  6.6609195416181555e+09  6.6609195406534424e+09  6.6609195403470974e+09  6.6609195401169605e+09  6.6609195403443298e+09  6.6609195399890833e+09  6.6609195398816328e+09  6.6609195429893570e+09  6.6609195400961342e+09  6.6609195402227221e+09  6.6609195400791397e+09  6.6609195391059408e+09  6.6609195411713276e+09  6.6609195403228331e+09  6.6609195403826838e+09  6.6609195402709389e+09  6.6609195403987341e+09  6.6609195400249624e+09  6.6609195402495022e+09  6.6609195404502354e+09  6.6609195399130526e+09  6.6609195404472246e+09  6.6609195403947468e+09  6.6609195400648289e+09  6.6609195402666349e+09  6.6609195399616070e+09  6.6609195401769199e+09  6.6609195405833549e+09  6.6609195404225140e+09  6.6609195401984005e+09  6.6609195406519299e+09  6.6609195405815630e+09  6.6609195405058928e+09  6.6609195402865429e+09  6.6609195406008720e+09  6.6609195405017338e+09  6.6609195403642988e+09  6.6609195394574108e+09  6.6609195400229721e+09  6.6609195403433638e+09  6.6609195405927048e+09  6.6609195401169167e+09  6.6609195403917179e+09  6.6609195400624409e+09  6.6609195403124638e+09  6.6609195401002274e+09  6.6609195401741781e+09  6.6609195402083626e+09  6.6609195401748161e+09  6.6609195403009787e+09  6.6609195409045324e+09  6.6609195406004572e+09  6.6609195398881321e+09  6.6609195404370937e+09  6.6609195402382612e+09  6.6609195401041975e+09  6.6609195411071310e+09  6.6609195389777813e+09  6.6609195404477901e+09  6.6609195403577795e+09  6.6609195403668365e+09  6.6609195400699530e+09  6.6609195401408930e+09  6.6609195402994461e+09  6.6609195402823553e+09  6.6609195402623987e+09  6.6609195403102713e+09  6.6609195402660046e+09  6.6609195404140444e+09  6.6609195400320730e+09  6.6609195404759312e+09  6.6609195381039219e+09  6.6609195401234226e+09  6.6609195400002699e+09  6.6609195403656063e+09  6.6609195404014349e+09  6.6609195396692514e+09  6.6609195401703644e+09  6.6609195404795914e+09  6.6609195402682104e+09  6.6609195405429010e+09  6.6609195402413321e+09  6.6609195402910891e+09  6.6609195398712254e+09  6.6609195400411148e+09  6.6609195403052301e+09  6.6609195401373911e+09  6.6609195402159672e+09  6.6609195403962831e+09  6.6609195403053570e+09  6.6609195399917307e+09  6.6609195401045408e+09  6.6609195404739161e+09  6.6609195402945166e+09  6.6609195403455410e+09  6.6609195403916941e+09  6.6609195402844267e+09  6.6609195402180185e+09  6.6609195404837437e+09  6.6609195403233232e+09  6.6609195402898846e+09  6.6609195400725765e+09  6.6609195401873016e+09  6.6609195392602520e+09  6.6609195423549194e+09  6.6609195395121956e+09  6.6609195403804369e+09  6.6609195403660593e+09  6.6609195404351692e+09  6.6609195402527609e+09  6.6609195399747667e+09  6.6609195402422266e+09  6.6609195402100649e+09  6.6609195402826319e+09  6.6609195400545063e+09  6.6609195401455803e+09  6.6609195402615948e+09  6.6609195398845949e+09  6.6609195402069616e+09  6.6609195401649323e+09  6.6609195396187258e+09  6.6609195398660297e+09  6.6609195398485174e+09  6.6609195398857527e+09  6.6609195414415588e+09  6.6609195419781532e+09  6.6609195393591270e+09  6.6609195408183689e+09  6.6609195405404234e+09  6.6609195398405647e+09  6.6609195401651583e+09  6.6609195401020041e+09  6.6609195404510641e+09  6.6609195399581594e+09  6.6609195400478821e+09  6.6609195383252935e+09  6.6609195400083752e+09  6.6609195406538687e+09  6.6609195406163435e+09  6.6609195400114965e+09  6.6609195396628351e+09  6.6609195401394157e+09  6.6609195402469921e+09  6.6609195401994944e+09  6.6609195402810698e+09  6.6609195401990089e+09  6.6609195400763931e+09  6.6609195402060375e+09  6.6609195402162027e+09  6.6609195402060623e+09  6.6609195402657738e+09  6.6609195403042574e+09  6.6609195403175116e+09  6.6609195399638834e+09  6.6609195406147585e+09  6.6609195402860689e+09  6.6609195396268473e+09  6.6609195409833269e+09  6.6609195400330048e+09  6.6609195401813288e+09  6.6609195403443384e+09  6.6609195404201164e+09  6.6609195402676277e+09  6.6609195400903759e+09  6.6609195402501869e+09  6.6609195403234844e+09  6.6609195401456223e+09  6.6609195399921608e+09  6.6609195400541077e+09  6.6609195402176170e+09  6.6609195411303587e+09  6.6609195402720146e+09  6.6609195403091249e+09  6.6609195402602224e+09  6.6609195402049809e+09  6.6609195405431633e+09  6.6609195403284683e+09  6.6609195399526358e+09  6.6609195401988459e+09  6.6609195403323765e+09  6.6609195406790791e+09  6.6609195397361317e+09  6.6609195401256638e+09  6.6609195400091610e+09  6.6609195386892958e+09  6.6609195405747261e+09  6.6609195399872761e+09  6.6609195402115002e+09  6.6609195417151709e+09  6.6609195406107473e+09  6.6609195406714411e+09  6.6609195400221062e+09  6.6609195406310863e+09  6.6609195403595829e+09  6.6609195404048452e+09  6.6609195402874956e+09  6.6609195404364443e+09  6.6609195402483482e+09  6.6609195402220373e+09  6.6609195402171803e+09  6.6609195395170488e+09  6.6609195406263304e+09  6.6609195407805271e+09  6.6609195407658882e+09  6.6609195398115358e+09  6.6609195404735746e+09  6.6609195404047642e+09  6.6609195403947830e+09  6.6609195406541204e+09  6.6609195416227150e+09  6.6609195401774502e+09  6.6609195404610844e+09  6.6609195403826256e+09  6.6609195401154737e+09  6.6609195405821362e+09  6.6609195399975901e+09  6.6609195401956043e+09  6.6609195398979158e+09  6.6609195404786396e+09  6.6609195405368443e+09  6.6609195400896406e+09  6.6609195402341890e+09  6.6609195404300947e+09  6.6609195397285652e+09  6.6609195401786985e+09  6.6609195402735510e+09  6.6609195397419901e+09  6.6609195400777760e+09  6.6609195411814375e+09  6.6609195403180218e+09  6.6609195402394514e+09  6.6609195401547689e+09  6.6609195402845793e+09  6.6609195403477831e+09  6.6609195403181868e+09  6.6609195401569147e+09  6.6609195404121857e+09  6.6609195408242531e+09  6.6609195426869545e+09  6.6609195403901529e+09  6.6609195402070627e+09  6.6609195401499615e+09  6.6609195395297918e+09  6.6609195402953014e+09  6.6609195401833735e+09  6.6609195401144428e+09  6.6609195401549625e+09  6.6609195402167311e+09  6.6609195400464993e+09  6.6609195413673201e+09  6.6609195395729923e+09  6.6609195402607746e+09  6.6609195400060654e+09  6.6609195402482786e+09  6.6609195397617626e+09  6.6609195398383217e+09  6.6609195401819592e+09  6.6609195404525051e+09  6.6609195402097874e+09  6.6609195402623310e+09  6.6609195402178965e+09  6.6609195402890091e+09  6.6609195401953087e+09  6.6609195404456730e+09  6.6609195399558601e+09  6.6609195403488550e+09  6.6609195409444427e+09  6.6609195408564587e+09  6.6609195394150038e+09  6.6609195400334435e+09  6.6609195402903328e+09  6.6609195402128963e+09  6.6609195401346760e+09  6.6609195401485233e+09  6.6609195401934090e+09  6.6609195403297882e+09  6.6609195412951069e+09  6.6609195402133627e+09  6.6609195403185263e+09  6.6609195397210999e+09  6.6609195404706879e+09  6.6609195411493435e+09  6.6609195402530947e+09  6.6609195409274979e+09  6.6609195398409691e+09  6.6609195403171177e+09  6.6609195398236132e+09  6.6609195402826538e+09  6.6609195401128941e+09  6.6609195403593092e+09  6.6609195401130133e+09  6.6609195403455210e+09  6.6609195400175066e+09  6.6609195402906151e+09  6.6609195397279139e+09  6.6609195403231468e+09  6.6609195401343136e+09  6.6609195402275248e+09  6.6609195401495419e+09  6.6609195402248602e+09  6.6609195405227127e+09  6.6609195402641993e+09  6.6609195404036293e+09  6.6609195403201294e+09  6.6609195388918781e+09  6.6609195404051304e+09  6.6609195402880411e+09  6.6609195404361143e+09  6.6609195396809721e+09  6.6609195402944412e+09  6.6609195401907911e+09  6.6609195400261879e+09  6.6609195398591499e+09  6.6609195401191502e+09  6.6609195402668953e+09  6.6609195402799520e+09  6.6609195402314014e+09  6.6609195401931238e+09  6.6609195402070589e+09  6.6609195402738743e+09  6.6609195398029242e+09  6.6609195401155758e+09  </DataArray> 
</PointData> 
</Piece>
</UnstructuredGrid>
</VTKFile>