<?xml version="1.0"?>
<VTKFile type="UnstructuredGrid"  version="0.1"  >
<UnstructuredGrid>
<Piece  NumberOfPoints="431" NumberOfCells="800">
<Points>
<DataArray  type="Float64"  NumberOfComponents="3"  format="ascii">-0.25 -1 0  -0.2 -1 0  -0.15 -1 0  -0.1 -1 0  -0.04999999999999999 -1 0  0 -1 0  0.04999999999999999 -1 0  0.09999999999999998 -1 0  0.15 -1 0  0.2 -1 0  0.25 -1 0  -0.25 -0.95 0  -0.2 -0.95 0  -0.15 -0.95 0  -0.1 -0.95 0  -0.04999999999999999 -0.95 0  0 -0.95 0  0.04999999999999999 -0.95 0  0.09999999999999998 -0.95 0  0.15 -0.95 0  0.2 -0.95 0  0.25 -0.95 0  -0.25 -0.9 0  -0.2 -0.9 0  -0.15 -0.9 0  -0.1 -0.9 0  -0.04999999999999999 -0.9 0  0 -0.9 0  0.04999999999999999 -0.9 0  0.09999999999999998 -0.9 0  0.15 -0.9 0  0.2 -0.9 0  0.25 -0.9 0  -0.25 -0.85 0  -0.2 -0.85 0  -0.15 -0.85 0  -0.1 -0.85 0  -0.04999999999999999 -0.85 0  0 -0.85 0  0.04999999999999999 -0.85 0  0.09999999999999998 -0.85 0  0.15 -0.85 0  0.2 -0.85 0  0.25 -0.85 0  -0.25 -0.8 0  -0.2 -0.8 0  -0.15 -0.8 0  -0.1 -0.8 0  -0.04999999999999999 -0.8 0  0 -0.8 0  0.04999999999999999 -0.8 0  0.09999999999999998 -0.8 0  0.15 -0.8 0  0.2 -0.8 0  0.25 -0.8 0  -0.25 -0.75 0  -0.2 -0.75 0  -0.15 -0.75 0  -0.1 -0.75 0  -0.04999999999999999 -0.75 0  0 -0.75 0  0.04999999999999999 -0.75 0  0.09999999999999998 -0.75 0  0.15 -0.75 0  0.2 -0.75 0  0.25 -0.75 0  -0.25 -0.7 0  -0.2 -0.7 0  -0.15 -0.7 0  -0.1 -0.7 0  -0.04999999999999999 -0.7 0  0 -0.7 0  0.04999999999999999 -0.7 0  0.09999999999999998 -0.7 0  0.15 -0.7 0  0.2 -0.7 0  0.25 -0.7 0  -0.25 -0.65 0  -0.2 -0.65 0  -0.15 -0.65 0  -0.1 -0.65 0  -0.04999999999999999 -0.65 0  0 -0.65 0  0.04999999999999999 -0.65 0  0.09999999999999998 -0.65 0  0.15 -0.65 0  0.2 -0.65 0  0.25 -0.65 0  -0.25 -0.6 0  -0.2 -0.6 0  -0.15 -0.6 0  -0.1 -0.6 0  -0.04999999999999999 -0.6 0  0 -0.6 0  0.04999999999999999 -0.6 0  0.09999999999999998 -0.6 0  0.15 -0.6 0  0.2 -0.6 0  0.25 -0.6 0  -0.25 -0.55 0  -0.2 -0.55 0  -0.15 -0.55 0  -0.1 -0.55 0  -0.04999999999999999 -0.55 0  0 -0.55 0  0.04999999999999999 -0.55 0  0.09999999999999998 -0.55 0  0.15 -0.55 0  0.2 -0.55 0  0.25 -0.55 0  -0.25 -0.5 0  -0.2 -0.5 0  -0.15 -0.5 0  -0.1 -0.5 0  -0.04999999999999999 -0.5 0  0 -0.5 0  0.04999999999999999 -0.5 0  0.09999999999999998 -0.5 0  0.15 -0.5 0  0.2 -0.5 0  0.25 -0.5 0  -0.25 -0.45 0  -0.2 -0.45 0  -0.15 -0.45 0  -0.1 -0.45 0  -0.04999999999999999 -0.45 0  0 -0.45 0  0.04999999999999999 -0.45 0  0.09999999999999998 -0.45 0  0.15 -0.45 0  0.2 -0.45 0  0.25 -0.45 0  -0.25 -0.4 0  -0.2 -0.4 0  -0.15 -0.4 0  -0.1 -0.4 0  -0.04999999999999999 -0.4 0  0 -0.4 0  0.04999999999999999 -0.4 0  0.09999999999999998 -0.4 0  0.15 -0.4 0  0.2 -0.4 0  0.25 -0.4 0  -0.25 -0.35 0  -0.2 -0.35 0  -0.15 -0.35 0  -0.1 -0.35 0  -0.04999999999999999 -0.35 0  0 -0.35 0  0.04999999999999999 -0.35 0  0.09999999999999998 -0.35 0  0.15 -0.35 0  0.2 -0.35 0  0.25 -0.35 0  -0.25 -0.3 0  -0.2 -0.3 0  -0.15 -0.3 0  -0.1 -0.3 0  -0.04999999999999999 -0.3 0  0 -0.3 0  0.04999999999999999 -0.3 0  0.09999999999999998 -0.3 0  0.15 -0.3 0  0.2 -0.3 0  0.25 -0.3 0  -0.25 -0.25 0  -0.2 -0.25 0  -0.15 -0.25 0  -0.1 -0.25 0  -0.04999999999999999 -0.25 0  0 -0.25 0  0.04999999999999999 -0.25 0  0.09999999999999998 -0.25 0  0.15 -0.25 0  0.2 -0.25 0  0.25 -0.25 0  -0.25 -0.2 0  -0.2 -0.2 0  -0.15 -0.2 0  -0.1 -0.2 0  -0.04999999999999999 -0.2 0  0 -0.2 0  0.04999999999999999 -0.2 0  0.09999999999999998 -0.2 0  0.15 -0.2 0  0.2 -0.2 0  0.25 -0.2 0  -0.25 -0.15 0  -0.2 -0.15 0  -0.15 -0.15 0  -0.1 -0.15 0  -0.04999999999999999 -0.15 0  0 -0.15 0  0.04999999999999999 -0.15 0  0.09999999999999998 -0.15 0  0.15 -0.15 0  0.2 -0.15 0  0.25 -0.15 0  -0.25 -0.09999999999999998 0  -0.2 -0.09999999999999998 0  -0.15 -0.09999999999999998 0  -0.1 -0.09999999999999998 0  -0.04999999999999999 -0.09999999999999998 0  0 -0.09999999999999998 0  0.04999999999999999 -0.09999999999999998 0  0.09999999999999998 -0.09999999999999998 0  0.15 -0.09999999999999998 0  0.2 -0.09999999999999998 0  0.25 -0.09999999999999998 0  -0.25 -0.05000000000000004 0  -0.2 -0.05000000000000004 0  -0.15 -0.05000000000000004 0  -0.1 -0.05000000000000004 0  -0.04999999999999999 -0.05000000000000004 0  0 -0.05000000000000004 0  0.04999999999999999 -0.05000000000000004 0  0.09999999999999998 -0.05000000000000004 0  0.15 -0.05000000000000004 0  0.2 -0.05000000000000004 0  0.25 -0.05000000000000004 0  -0.25 0 0  -0.2 0 0  -0.15 0 0  -0.1 0 0  -0.04999999999999999 0 0  0 0 0  0.04999999999999999 0 0  0.09999999999999998 0 0  0.15 0 0  0.2 0 0  0.25 0 0  -0.225 -0.975 0  -0.175 -0.975 0  -0.125 -0.975 0  -0.07500000000000001 -0.975 0  -0.02499999999999999 -0.975 0  0.02500000000000002 -0.975 0  0.07500000000000001 -0.975 0  0.125 -0.975 0  0.175 -0.975 0  0.225 -0.975 0  -0.225 -0.925 0  -0.175 -0.925 0  -0.125 -0.925 0  -0.07500000000000001 -0.925 0  -0.02499999999999999 -0.925 0  0.02500000000000002 -0.925 0  0.07500000000000001 -0.925 0  0.125 -0.925 0  0.175 -0.925 0  0.225 -0.925 0  -0.225 -0.875 0  -0.175 -0.875 0  -0.125 -0.875 0  -0.07500000000000001 -0.875 0  -0.02499999999999999 -0.875 0  0.02500000000000002 -0.875 0  0.07500000000000001 -0.875 0  0.125 -0.875 0  0.175 -0.875 0  0.225 -0.875 0  -0.225 -0.825 0  -0.175 -0.825 0  -0.125 -0.825 0  -0.07500000000000001 -0.825 0  -0.02499999999999999 -0.825 0  0.02500000000000002 -0.825 0  0.07500000000000001 -0.825 0  0.125 -0.825 0  0.175 -0.825 0  0.225 -0.825 0  -0.225 -0.775 0  -0.175 -0.775 0  -0.125 -0.775 0  -0.07500000000000001 -0.775 0  -0.02499999999999999 -0.775 0  0.02500000000000002 -0.775 0  0.07500000000000001 -0.775 0  0.125 -0.775 0  0.175 -0.775 0  0.225 -0.775 0  -0.225 -0.725 0  -0.175 -0.725 0  -0.125 -0.725 0  -0.07500000000000001 -0.725 0  -0.02499999999999999 -0.725 0  0.02500000000000002 -0.725 0  0.07500000000000001 -0.725 0  0.125 -0.725 0  0.175 -0.725 0  0.225 -0.725 0  -0.225 -0.675 0  -0.175 -0.675 0  -0.125 -0.675 0  -0.07500000000000001 -0.675 0  -0.02499999999999999 -0.675 0  0.02500000000000002 -0.675 0  0.07500000000000001 -0.675 0  0.125 -0.675 0  0.175 -0.675 0  0.225 -0.675 0  -0.225 -0.625 0  -0.175 -0.625 0  -0.125 -0.625 0  -0.07500000000000001 -0.625 0  -0.02499999999999999 -0.625 0  0.02500000000000002 -0.625 0  0.07500000000000001 -0.625 0  0.125 -0.625 0  0.175 -0.625 0  0.225 -0.625 0  -0.225 -0.575 0  -0.175 -0.575 0  -0.125 -0.575 0  -0.07500000000000001 -0.575 0  -0.02499999999999999 -0.575 0  0.02500000000000002 -0.575 0  0.07500000000000001 -0.575 0  0.125 -0.575 0  0.175 -0.575 0  0.225 -0.575 0  -0.225 -0.525 0  -0.175 -0.525 0  -0.125 -0.525 0  -0.07500000000000001 -0.525 0  -0.02499999999999999 -0.525 0  0.02500000000000002 -0.525 0  0.07500000000000001 -0.525 0  0.125 -0.525 0  0.175 -0.525 0  0.225 -0.525 0  -0.225 -0.475 0  -0.175 -0.475 0  -0.125 -0.475 0  -0.07500000000000001 -0.475 0  -0.02499999999999999 -0.475 0  0.02500000000000002 -0.475 0  0.07500000000000001 -0.475 0  0.125 -0.475 0  0.175 -0.475 0  0.225 -0.475 0  -0.225 -0.425 0  -0.175 -0.425 0  -0.125 -0.425 0  -0.07500000000000001 -0.425 0  -0.02499999999999999 -0.425 0  0.02500000000000002 -0.425 0  0.07500000000000001 -0.425 0  0.125 -0.425 0  0.175 -0.425 0  0.225 -0.425 0  -0.225 -0.375 0  -0.175 -0.375 0  -0.125 -0.375 0  -0.07500000000000001 -0.375 0  -0.02499999999999999 -0.375 0  0.02500000000000002 -0.375 0  0.07500000000000001 -0.375 0  0.125 -0.375 0  0.175 -0.375 0  0.225 -0.375 0  -0.225 -0.325 0  -0.175 -0.325 0  -0.125 -0.325 0  -0.07500000000000001 -0.325 0  -0.02499999999999999 -0.325 0  0.02500000000000002 -0.325 0  0.07500000000000001 -0.325 0  0.125 -0.325 0  0.175 -0.325 0  0.225 -0.325 0  -0.225 -0.275 0  -0.175 -0.275 0  -0.125 -0.275 0  -0.07500000000000001 -0.275 0  -0.02499999999999999 -0.275 0  0.02500000000000002 -0.275 0  0.07500000000000001 -0.275 0  0.125 -0.275 0  0.175 -0.275 0  0.225 -0.275 0  -0.225 -0.225 0  -0.175 -0.225 0  -0.125 -0.225 0  -0.07500000000000001 -0.225 0  -0.02499999999999999 -0.225 0  0.02500000000000002 -0.225 0  0.07500000000000001 -0.225 0  0.125 -0.225 0  0.175 -0.225 0  0.225 -0.225 0  -0.225 -0.175 0  -0.175 -0.175 0  -0.125 -0.175 0  -0.07500000000000001 -0.175 0  -0.02499999999999999 -0.175 0  0.02500000000000002 -0.175 0  0.07500000000000001 -0.175 0  0.125 -0.175 0  0.175 -0.175 0  0.225 -0.175 0  -0.225 -0.125 0  -0.175 -0.125 0  -0.125 -0.125 0  -0.07500000000000001 -0.125 0  -0.02499999999999999 -0.125 0  0.02500000000000002 -0.125 0  0.07500000000000001 -0.125 0  0.125 -0.125 0  0.175 -0.125 0  0.225 -0.125 0  -0.225 -0.07499999999999996 0  -0.175 -0.07499999999999996 0  -0.125 -0.07499999999999996 0  -0.07500000000000001 -0.07499999999999996 0  -0.02499999999999999 -0.07499999999999996 0  0.02500000000000002 -0.07499999999999996 0  0.07500000000000001 -0.07499999999999996 0  0.125 -0.07499999999999996 0  0.175 -0.07499999999999996 0  0.225 -0.07499999999999996 0  -0.225 -0.02500000000000002 0  -0.175 -0.02500000000000002 0  -0.125 -0.02500000000000002 0  -0.07500000000000001 -0.02500000000000002 0  -0.02499999999999999 -0.02500000000000002 0  0.02500000000000002 -0.02500000000000002 0  0.07500000000000001 -0.02500000000000002 0  0.125 -0.02500000000000002 0  0.175 -0.02500000000000002 0  0.225 -0.02500000000000002 0  </DataArray>
</Points>
<Cells>
[...]
<PointData  Scalars=" mean stress"> 
<DataArray  type="Float64"  Name=" mean stress"  format="ascii">1.1048709325280111e+07  1.1048709205091568e+07  1.1048709191231988e+07  1.1048709189839341e+07  1.1048709190035721e+07  1.1048709190002367e+07  1.1048709190035794e+07  1.1048709189839460e+07  1.1048709191232175e+07  1.1048709205091732e+07  1.1048709325280292e+07  1.1058680027445078e+07  1.1058679396131130e+07  1.1058679365514122e+07  1.1058679366502972e+07  1.1058679366349442e+07  1.1058679366377408e+07  1.1058679366349520e+07  1.1058679366503173e+07  1.1058679365514340e+07  1.1058679396131380e+07  1.1058680027445361e+07  1.1088531731038945e+07  1.1088528915571295e+07  1.1088528891693333e+07  1.1088528891408933e+07  1.1088528891482849e+07  1.1088528891466415e+07  1.1088528891482940e+07  1.1088528891409127e+07  1.1088528891693614e+07  1.1088528915571587e+07  1.1088531731039261e+07  1.1138081433596063e+07  1.1138075126411133e+07  1.1138075103734681e+07  1.1138075103825025e+07  1.1138075103801772e+07  1.1138075103808843e+07  1.1138075103801904e+07  1.1138075103825290e+07  1.1138075103734968e+07  1.1138075126411496e+07  1.1138081433596365e+07  1.1207025788957022e+07  1.1207014754562551e+07  1.1207014734930938e+07  1.1207014734936029e+07  1.1207014734941656e+07  1.1207014734939501e+07  1.1207014734941876e+07  1.1207014734936280e+07  1.1207014734931223e+07  1.1207014754562890e+07  1.1207025788957402e+07  1.1294942500005955e+07  1.1294925674074650e+07  1.1294925657878246e+07  1.1294925657893889e+07  1.1294925657892782e+07  1.1294925657893443e+07  1.1294925657892877e+07  1.1294925657894179e+07  1.1294925657878652e+07  1.1294925674074959e+07  1.1294942500006393e+07  1.1401292829944754e+07  1.1401269341549732e+07  1.1401269329242565e+07  1.1401269329250168e+07  1.1401269329250388e+07  1.1401269329250271e+07  1.1401269329250610e+07  1.1401269329250367e+07  1.1401269329242958e+07  1.1401269341550145e+07  1.1401292829945108e+07  1.1525424728690227e+07  1.1525393926896850e+07  1.1525393918728147e+07  1.1525393918730652e+07  1.1525393918730646e+07  1.1525393918730874e+07  1.1525393918730827e+07  1.1525393918731069e+07  1.1525393918728348e+07  1.1525393926897261e+07  1.1525424728690512e+07  1.1666576652461490e+07  1.1666538121378222e+07  1.1666538117433216e+07  1.1666538117430735e+07  1.1666538117430784e+07  1.1666538117430808e+07  1.1666538117430920e+07  1.1666538117430964e+07  1.1666538117433432e+07  1.1666538121378554e+07  1.1666576652461896e+07  1.1823882047720650e+07  1.1823835612658707e+07  1.1823835612861345e+07  1.1823835612854410e+07  1.1823835612854516e+07  1.1823835612854606e+07  1.1823835612854587e+07  1.1823835612854656e+07  1.1823835612861738e+07  1.1823835612659078e+07  1.1823882047721136e+07  1.1996374486445388e+07  1.1996320211083841e+07  1.1996320215213474e+07  1.1996320215202734e+07  1.1996320215202797e+07  1.1996320215202862e+07  1.1996320215202820e+07  1.1996320215202983e+07  1.1996320215213764e+07  1.1996320211084273e+07  1.1996374486445803e+07  1.2182993432041209e+07  1.2182931607476171e+07  1.2182931615189036e+07  1.2182931615175258e+07  1.2182931615175312e+07  1.2182931615175212e+07  1.2182931615175532e+07  1.2182931615175443e+07  1.2182931615189377e+07  1.2182931607476501e+07  1.2182993432041530e+07  1.2382590611187065e+07  1.2382521737958867e+07  1.2382521748813661e+07  1.2382521748797540e+07  1.2382521748797476e+07  1.2382521748797804e+07  1.2382521748797623e+07  1.2382521748797717e+07  1.2382521748813923e+07  1.2382521737959003e+07  1.2382590611187471e+07  1.2593936961705342e+07  1.2593861726112526e+07  1.2593861739596168e+07  1.2593861739578890e+07  1.2593861739578972e+07  1.2593861739578817e+07  1.2593861739579126e+07  1.2593861739579244e+07  1.2593861739596531e+07  1.2593861726112684e+07  1.2593936961705614e+07  1.2815730121119205e+07  1.2815649367217164e+07  1.2815649382773563e+07  1.2815649382754551e+07  1.2815649382755186e+07  1.2815649382755052e+07  1.2815649382755246e+07  1.2815649382754890e+07  1.2815649382773520e+07  1.2815649367217360e+07  1.2815730121119015e+07  1.3046602414873673e+07  1.3046517113584381e+07  1.3046517130627092e+07  1.3046517130612571e+07  1.3046517130610863e+07  1.3046517130611558e+07  1.3046517130610876e+07  1.3046517130612245e+07  1.3046517130627280e+07  1.3046517113584464e+07  1.3046602414873976e+07  1.3285129297572963e+07  1.3285040514116567e+07  1.3285040532116044e+07  1.3285040532080337e+07  1.3285040532086527e+07  1.3285040532085054e+07  1.3285040532086300e+07  1.3285040532080434e+07  1.3285040532116078e+07  1.3285040514116678e+07  1.3285129297573194e+07  1.3529838194438923e+07  1.3529747056034649e+07  1.3529747074142814e+07  1.3529747074218953e+07  1.3529747074200595e+07  1.3529747074199639e+07  1.3529747074200582e+07  1.3529747074218929e+07  1.3529747074142877e+07  1.3529747056034863e+07  1.3529838194438862e+07  1.3779217688357169e+07  1.3779125348487841e+07  1.3779125367979454e+07  1.3779125367592663e+07  1.3779125367561840e+07  1.3779125367576286e+07  1.3779125367561784e+07  1.3779125367592188e+07  1.3779125367979279e+07  1.3779125348487316e+07  1.3779217688357031e+07  1.4031726976225965e+07  1.4031634607033243e+07  1.4031634614501046e+07  1.4031634613264926e+07  1.4031634613482444e+07  1.4031634613443034e+07  1.4031634613481786e+07  1.4031634613264499e+07  1.4031634614500599e+07  1.4031634607032977e+07  1.4031726976225723e+07  1.4224581849416850e+07  1.4224490105577627e+07  1.4224490072652275e+07  1.4224490075754138e+07  1.4224490075406702e+07  1.4224490075459801e+07  1.4224490075406959e+07  1.4224490075754363e+07  1.4224490072651550e+07  1.4224490105576869e+07  1.4224581849415816e+07  1.1048896674553048e+07  1.1048896742445612e+07  1.1048896753485888e+07  1.1048896753575921e+07  1.1048896753566608e+07  1.1048896753566626e+07  1.1048896753575996e+07  1.1048896753486019e+07  1.1048896742445793e+07  1.1048896674553219e+07  1.1068835648808332e+07  1.1068835946472954e+07  1.1068835959897369e+07  1.1068835959741130e+07  1.1068835959758246e+07  1.1068835959758319e+07  1.1068835959741363e+07  1.1068835959897636e+07  1.1068835946473170e+07  1.1068835648808537e+07  1.1108591594539631e+07  1.1108592358982075e+07  1.1108592370668350e+07  1.1108592370704181e+07  1.1108592370693937e+07  1.1108592370694019e+07  1.1108592370704371e+07  1.1108592370668611e+07  1.1108592358982330e+07  1.1108591594539922e+07  1.1167921224754952e+07  1.1167922673847128e+07  1.1167922684400221e+07  1.1167922684380788e+07  1.1167922684384055e+07  1.1167922684384121e+07  1.1167922684380947e+07  1.1167922684400447e+07  1.1167922673847495e+07  1.1167921224755321e+07  1.1246461366028868e+07  1.1246463689571606e+07  1.1246463698523223e+07  1.1246463698516959e+07  1.1246463698516328e+07  1.1246463698516387e+07  1.1246463698517157e+07  1.1246463698523592e+07  1.1246463689571964e+07  1.1246461366029248e+07  1.1343731040499119e+07  1.1343734399850015e+07  1.1343734406969838e+07  1.1343734406964440e+07  1.1343734406964581e+07  1.1343734406964565e+07  1.1343734406964559e+07  1.1343734406970149e+07  1.1343734399850443e+07  1.1343731040499547e+07  1.1459134260455577e+07  1.1459138782288019e+07  1.1459138787404256e+07  1.1459138787401633e+07  1.1459138787401658e+07  1.1459138787401827e+07  1.1459138787401836e+07  1.1459138787404470e+07  1.1459138782288367e+07  1.1459134260455854e+07  1.1591963496387893e+07  1.1591969269654486e+07  1.1591969272682453e+07  1.1591969272682203e+07  1.1591969272682326e+07  1.1591969272682423e+07  1.1591969272682616e+07  1.1591969272682754e+07  1.1591969269654736e+07  1.1591963496388305e+07  1.1741403820747904e+07  1.1741410894818541e+07  1.1741410895755827e+07  1.1741410895758346e+07  1.1741410895758267e+07  1.1741410895758320e+07  1.1741410895758374e+07  1.1741410895756135e+07  1.1741410894818831e+07  1.1741403820748081e+07  1.1906537711254306e+07  1.1906546095637819e+07  1.1906546094558531e+07  1.1906546094562786e+07  1.1906546094563035e+07  1.1906546094563007e+07  1.1906546094563155e+07  1.1906546094558902e+07  1.1906546095637999e+07  1.1906537711254682e+07  1.2086350496847175e+07  1.2086360162312608e+07  1.2086360159357470e+07  1.2086360159363778e+07  1.2086360159363603e+07  1.2086360159363739e+07  1.2086360159363741e+07  1.2086360159357483e+07  1.2086360162312947e+07  1.2086350496847644e+07  1.2279736424248585e+07  1.2279747305211084e+07  1.2279747300575830e+07  1.2279747300583202e+07  1.2279747300583310e+07  1.2279747300583441e+07  1.2279747300583631e+07  1.2279747300576368e+07  1.2279747305211522e+07  1.2279736424248857e+07  1.2485505318203868e+07  1.2485517316168495e+07  1.2485517310091173e+07  1.2485517310099589e+07  1.2485517310099574e+07  1.2485517310099827e+07  1.2485517310099892e+07  1.2485517310091423e+07  1.2485517316168452e+07  1.2485505318203632e+07  1.2702389803016461e+07  1.2702402790862255e+07  1.2702402783610165e+07  1.2702402783619547e+07  1.2702402783619529e+07  1.2702402783619100e+07  1.2702402783619208e+07  1.2702402783610374e+07  1.2702402790862588e+07  1.2702389803016823e+07  1.2929053047300082e+07  1.2929066874164613e+07  1.2929066866022194e+07  1.2929066866030309e+07  1.2929066866030658e+07  1.2929066866031135e+07  1.2929066866030924e+07  1.2929066866022360e+07  1.2929066874164931e+07  1.2929053047300730e+07  1.3164096988014415e+07  1.3164111484563543e+07  1.3164111475814447e+07  1.3164111475826250e+07  1.3164111475825159e+07  1.3164111475825312e+07  1.3164111475826304e+07  1.3164111475814920e+07  1.3164111484564036e+07  1.3164096988014655e+07  1.3406070984108206e+07  1.3406085967935616e+07  1.3406085958897455e+07  1.3406085958890149e+07  1.3406085958893696e+07  1.3406085958893273e+07  1.3406085958889781e+07  1.3406085958897026e+07  1.3406085967935340e+07  1.3406070984108232e+07  1.3653480844443668e+07  1.3653496125725238e+07  1.3653496116401967e+07  1.3653496116491687e+07  1.3653496116500353e+07  1.3653496116500467e+07  1.3653496116491692e+07  1.3653496116402078e+07  1.3653496125725230e+07  1.3653480844443196e+07  1.3904798167679746e+07  1.3904813553138817e+07  1.3904813546803504e+07  1.3904813547162585e+07  1.3904813547121607e+07  1.3904813547121618e+07  1.3904813547162389e+07  1.3904813546803124e+07  1.3904813553138278e+07  1.3904798167679569e+07  1.4189081924712813e+07  1.4189097337090299e+07  1.4189097342987051e+07  1.4189097342552943e+07  1.4189097342582138e+07  1.4189097342581637e+07  1.4189097342552183e+07  1.4189097342986291e+07  1.4189097337089639e+07  1.4189081924712010e+07  </DataArray> 
</PointData> 
</Piece>
</UnstructuredGrid>
</VTKFile>