<?xml version="1.0"?>
<VTKFile type="UnstructuredGrid"  version="0.1"  >
<UnstructuredGrid>
<Piece  NumberOfPoints="15776" NumberOfCells="31038">
<Points>
<DataArray  type="Float64"  NumberOfComponents="3"  format="ascii">-0.05 0 0  -0.05 -0.1 0  0.05 -0.1 0  0.05 0 0  0 -0.1 0  0.05 -0.05 0  0 0 0  -0.05 -0.05 0  0 -0.05 0  -0.025 -0.1 0  -0.025 0 0  -0.05 -0.025 0  0.025 -0.1 0  0.05 -0.025 0  0.025 0 0  0.025 -0.06875000000000001 0  0.025 -0.03750000000000001 0  -0.02083333333333333 -0.02916666666666667 0  -0.05 -0.07500000000000001 0  -0.02083333333333333 -0.07083333333333333 0  0.05 -0.07500000000000001 0  0.003472222222222224 -0.02569444444444444 0  0.002378144654088049 -0.07627751572327045 0  -0.02083333333333333 -0.05 0  0.03125 -0.01875 0  -0.01233019290593089 -0.08678347112328397 0  -0.0125 -0.0130952380952381 0  -0.03690476190476191 -0.03750000000000001 0  -0.03541666666666667 -0.06041666666666666 0  -0.03385416666666667 -0.01614583333333334 0  0.05 -0.08750000000000001 0  0.03750000000000001 -0.1 0  -0.03385416666666666 -0.08385416666666666 0  0.03348214285714286 -0.08348214285714287 0  0.0125 0 0  0.0125 -0.1 0  0.01719551374627341 -0.0830513925183794 0  0.01029527261028368 -0.06231463651962176 0  0.0328125 -0.05312500000000001 0  -0.01041666666666666 -0.03958333333333333 0  -0.01041666666666667 -0.06041666666666667 0  0.01470753125203114 -0.04816506250406229 0  0.01799242424242424 -0.02474747474747475 0  0.03750000000000001 -0.03125 0  0.05 -0.0625 0  0.00625 -0.01223723723723724 0  0.05 -0.0125 0  0.03750000000000001 0 0  0.03765012642225032 -0.07127449431099875 0  0.02021617032392894 -0.01201127655869035 0  0.006028532990060553 -0.03846042534778643 0  -0.05 -0.0625 0  -0.03750000000000001 0 0  -0.05 -0.03750000000000001 0  -0.0125 -0.1 0  -0.0125 0 0  -0.05 -0.0125 0  -0.03750000000000001 -0.1 0  0.05 -0.03750000000000001 0  -0.05 -0.08750000000000001 0  -0.008680555555555554 -0.02743055555555555 0  0.006250000000000001 -0.08914373740925415 0  -0.009584768711776409 -0.07507825100308022 0  -0.03268229166666667 -0.07200520833333332 0  0.03939012096774194 -0.04309475806451613 0  0.02190003906503893 -0.05743439453251947 0  -0.03834537706133037 -0.04910019455252918 0  0.01284084887861751 -0.07298400536762802 0  -0.02264613483542079 -0.0820413651645792 0  -0.02366071428571428 -0.01123511904761905 0  -0.03199404761904762 -0.02730654761904763 0  -0.0244047619047619 -0.06041666666666667 0  -0.01041666666666666 -0.05 0  -0.02083333333333332 -0.03958333333333333 0  2.405987640392848e-05 -0.0604407265430706 0  -0.002910133850527605 -0.01736173448892657 0  -0.02961483445283294 -0.04429487938443922 0  0.0390625 -0.0109375 0  0.040625 -0.021875 0  0.028125 -0.028125 0  -0.04176917540113871 -0.06803243885869564 0  0.03965658412817928 -0.06102022076500465 0  0.01533845899304755 -0.03450745320159019 0  0.02948377458963575 -0.008744075527611174 0  0.02448333984417315 -0.04800472330961902 0  -0.002638588467448458 -0.08480290334513936 0  0.01875 -0.09260679016400503 0  0.02801599660666901 -0.09111197895245939 0  0.0427726833976834 -0.08125000000000002 0  0.04010991573299855 -0.09061756875992701 0  -0.03125000000000001 -0.09292674731182796 0  -0.04078102849914793 -0.09075246902758297 0  -0.04292674731182795 -0.08125000000000002 0  -0.04292674731182796 -0.01875 0  -0.04075246902758298 -0.009218971500852071 0  -0.002501899107215252 -0.03451361758785813 0  -0.01875 -0.09331034417873318 0  -0.04137052725919914 -0.02906901041666667 0  -0.02515071191829004 -0.02065873579545455 0  -0.004560476962080258 -0.008160345583815167 0  -0.01571003401360544 -0.02162698412698413 0  -0.006250000000000001 -0.09347094524847423 0  -0.03184688459542486 -0.007177652942204195 0  -0.043423574176247 -0.05645164743293771 0  -0.002931194584325539 -0.06897337298686135 0  0.04141166808534667 -0.05159229946940671 0  0.03072628767995273 -0.06184751883997637 0  0.01331794183364191 -0.01736907532119644 0  -0.02991071428571428 -0.05329326110353833 0  0.0302193738423544 -0.07555280640245397 0  -0.02844810693838604 -0.03529440998727736 0  -0.05 -0.04375 0  0.009435764744425919 -0.08043238240966273 0  0.02057363836381549 -0.07561467685960577 0  0.025334823172674 -0.08341820123348352 0  0.005194622404326759 -0.06864849887959712 0  0.01732194592699554 -0.06627651681808928 0  0.006285662925187238 -0.05520590615175079 0  -0.01875 0 0  0.03186492887377232 -0.04533174938342453 0  -0.0008783629089698517 -0.04219661564043644 0  0.05 -0.00625 0  0.03375689409777979 -0.03792049068961304 0  0.05 -0.06875000000000001 0  0.01439721346977286 -0.05583102001882564 0  0.007184194424042271 -0.04772337119454249 0  0.01846824474048517 -0.04149541481145257 0  -0.01682300313953808 -0.07723258764373991 0  0.01091777409106017 -0.0280645394299259 0  -0.005208333333333333 -0.05520833333333334 0  -0.01562499999999999 -0.034375 0  -0.015625 -0.05520833333333333 0  -0.01562499999999999 -0.04479166666666667 0  -0.01741071428571429 -0.06383928571428571 0  -0.01017446891572471 -0.06775731747543173 0  0.02462121212121212 -0.02174873737373738 0  -0.01727537722908093 -0.007335299088771311 0  -0.04246234479210493 -0.04269936147867359 0  0.02155204304257197 -0.03095624460965786 0  0.01316725552433098 -0.00805546078058521 0  0.01875 0 0  -0.02717633928571428 -0.0671875 0  -0.02899339936689958 -0.07835247286481212 0  0.034375 -0.025 0  0.04269000268040276 -0.03649499463919448 0  0.04375 0 0  0.04375 -0.02812499999999999 0  -0.03761497647442349 -0.02322577938762476 0  0.05 -0.05625 0  -0.02487731781150031 -0.08912078797260026 0  -0.03695888676976247 -0.07756467740738612 0  0.002206599034779407 -0.006587679234291101 0  0.003888413565608712 -0.01876506087328944 0  0.04375 -0.1 0  0.05 -0.09375 0  -0.008944539808483216 -0.02059134745263918 0  -0.04331057662916364 -0.07455691519284439 0  0.0439453125 -0.0158203125 0  -0.0001289479518082485 -0.09093484953796985 0  -0.04345238095238095 -0.03556995462159739 0  -0.01996941165388946 -0.01664836497274012 0  -0.04375 -0.1 0  -0.05 -0.09375 0  -0.04375 0 0  -0.05 -0.00625 0  0.005594154517873918 -0.03190847365283561 0  0.01173248358540133 -0.04209249512146222 0  0.03419217537052396 -0.09402564429600242 0  0.01187454317038147 -0.09313287027544383 0  0.00625 -0.1 0  0.02629142191479375 -0.01446643061282435 0  0.021875 -0.005713666436405997 0  0.04321758283034931 -0.06704044172466167 0  0.03164035608931087 -0.06843232885197728 0  0.04337196116786825 -0.07463925880684733 0  0.03637679552963742 -0.07765509762578199 0  0.003626010873625676 -0.08324593924595615 0  -0.01086143623908221 -0.006877234301934964 0  0.05 -0.04375 0  0.01179919481827354 -0.08623489346281316 0  -0.01250448524457812 -0.09373974299368953 0  -0.05 -0.06875000000000001 0  -0.03125 0 0  -0.03125 -0.1 0  0.03125 0 0  0.05 -0.03125 0  -0.05 -0.03125 0  0.03125 -0.1 0  -0.00625 -0.1 0  -0.01875 -0.1 0  -0.05 -0.01875 0  0.01875 -0.1 0  -0.00625 0 0  0.00625 0 0  0.05 -0.01875 0  -0.05 -0.05625 0  -0.05 -0.08125000000000002 0  0.05 -0.08125000000000002 0  -0.005208333333333331 -0.04663513209089385 0  -0.008645094114120339 -0.03363601830115741 0  -0.01475694444444444 -0.0282986111111111 0  -0.002375017943413014 -0.02816654106277556 0  0.01949511126133643 -0.01820257885343882 0  -0.01184447766846871 -0.08072281861600734 0  -0.003534735552586339 -0.07499381884380991 0  -7.74643124966494e-05 -0.01210497681433211 0  -0.0189894669743643 -0.08708512345290294 0  -0.03573478741405032 -0.06660859450219164 0  0.04359375 -0.006406250000000002 0  0.03517259397916334 -0.00591284371726238 0  0.01965556274601837 -0.05175082112889391 0  0.0278582381998454 -0.05655080703154879 0  0.02250150625287546 -0.06335204673888746 0  -0.04398521510889171 -0.06244044890584508 0  -0.04409485128436456 -0.05055827494263457 0  -0.03770557434490081 -0.05497182533168162 0  -0.03656642640981419 -0.04343156897269072 0  0.009194419875177533 -0.02206075900562258 0  0.04451331908599852 -0.04636519166703897 0  -0.01485520520633521 -0.0715431557666749 0  0.03646473132841593 -0.0487266977067035 0  0.04405668594067944 -0.05696201317865261 0  -0.005203169869815907 -0.063408387077611 0  -0.02247505510150612 -0.07631841748069951 0  -0.02804244587606518 -0.08423194559419436 0  -0.02935822174816368 -0.01244339991380455 0  -0.03106530920251624 -0.021416390819467 0  -0.02607827560230913 -0.005825920664671352 0  -0.03361300586943999 -0.03280621050224407 0  -0.02666093500983432 -0.02972007434472025 0  0.02285652838955744 -0.08859591663874328 0  0.03188089108105607 -0.03248232675683183 0  0.004333204611837944 -0.09457186870462708 0  -0.02704324561419352 -0.07289471972323462 0  0.007922643115429704 -0.005561362357538799 0  0.0335055138043014 -0.01319301380430141 0  0.03678783220616013 -0.0177615033815196 0  -0.02428736139211932 -0.05463634003970875 0  -0.02991071428571428 -0.06211553281168236 0  0.01197199101441062 -0.06755294829741498 0  0.007340105850365504 -0.07377496925579345 0  0.0155154430127655 -0.07780260757679426 0  0.03658895737846099 -0.06574341599602251 0  -0.02410709817404581 -0.09456977129140082 0  0.01071697988857716 -0.05184278466318995 0  0.01728938824664831 -0.06065342293474459 0  -0.001242172060814776 -0.02269478175693585 0  -0.03834687844188856 -0.07228526864991387 0  0.03504935696459177 -0.08867226036471411 0  0.03924608506562968 -0.08530978616477196 0  0.04446421559415197 -0.08718473081338503 0  0.02679267124047066 -0.0428532372923227 0  -0.007808666799817795 -0.01546134924060014 0  -0.02636641232583814 -0.04890574755055194 0  -0.02267804660897878 -0.04479166666666666 0  0.03489498531895979 -0.05823382415106163 0  1.202993820196636e-05 -0.0552203632715353 0  0.005332838990544739 -0.06042849285714701 0  -0.04436969017718883 -0.02424446436705185 0  -0.01009042364871584 -0.04479166666666667 0  -0.01041666666666667 -0.05520833333333333 0  -0.015625 -0.05 0  -0.01562499999999999 -0.03958333333333334 0  -0.02083333333333332 -0.034375 0  0.04436432681906392 -0.09436432681906393 0  -0.02240513392857143 -0.06518787202380952 0  0.04537177
[...]
<PointData  Scalars=" mean stress"> 
<DataArray  type="Float64"  Name=" mean stress"  format="ascii">1.2655137031715329e+09  3.3810311957143402e+09  3.5776366341384468e+09  1.2922385957830939e+09  5.7975303145794608e+07  3.7230964142292403e+07  1.6408976932374642e+09  3.7303462590835258e+07  8.3673840416534737e+07  5.7319455787004583e+07  1.6274217161549160e+09  2.0043884948231542e+08  5.7298108634525731e+07  1.9999040214558476e+08  1.6248000887108409e+09  5.8162941153386362e+07  1.1239160219508466e+08  2.1874267149838513e+08  4.6968432891770139e+07  6.0412400756286003e+07  4.7080742896536879e+07  2.9958104152628714e+08  6.4602633205868229e+07  7.2736697082351059e+07  5.0715290595519727e+08  6.0501708164515823e+07  7.8578467298246634e+08  8.4507246845990315e+07  4.9670028024813458e+07  6.1364659112132919e+08  4.5579452051323839e+07  5.7608990801527895e+07  5.4891223176873893e+07  5.4906763563382395e+07  1.6308488626729753e+09  5.7799670935382240e+07  6.0040576975797795e+07  6.8787034164253652e+07  5.4017673816414587e+07  1.1608656360768066e+08  7.0029701116820931e+07  8.1814263458950385e+07  3.1948090125500870e+08  1.4137233991966954e+08  4.2286420668476939e+07  8.3515352673290920e+08  6.0266806542279828e+08  1.6205846940191767e+09  5.0030443962410890e+07  8.5074148507472813e+08  1.2364699112054320e+08  4.2314493734398060e+07  1.6250809886720107e+09  5.7370280725688666e+07  5.7784945152034409e+07  1.6199244130463147e+09  6.0091784901958001e+08  5.7493114964820184e+07  5.6993445244090468e+07  4.5470602101543225e+07  2.6236055146511984e+08  6.0851382146962442e+07  6.3896500158433579e+07  5.3110738502412632e+07  5.6054226714884669e+07  6.4216620695376307e+07  4.8649620451230481e+07  6.3546191185682237e+07  5.8466167183500051e+07  8.9544919862064111e+08  2.3044234186290219e+08  6.0359427611189581e+07  8.1143510101799309e+07  1.0625036596852973e+08  7.2191972179550484e+07  5.7819659320569742e+08  7.2441143449477002e+07  8.9322910936560166e+08  3.2688277503637254e+08  2.2692818004872936e+08  4.6973209850766644e+07  4.5876453873758003e+07  1.4993994316529763e+08  1.0449736438004227e+09  7.1641658680470288e+07  6.2152991629576281e+07  5.8485686817101613e+07  5.7041928037027679e+07  5.0121796613474675e+07  5.6230496259926043e+07  5.6743113169912808e+07  5.6463183586708896e+07  5.0038118117148951e+07  4.2048953271380365e+08  9.9563176321533275e+08  1.5726481331620985e+08  5.8403350965193719e+07  1.5447152361033824e+08  4.3904796747211623e+08  1.0734152507012343e+09  4.1101450848267198e+08  5.9773656494566523e+07  1.1592747959260457e+09  4.1686967571410172e+07  6.7428108842098758e+07  4.3178799076912738e+07  5.4102780065643281e+07  5.7101468536483085e+08  5.7941687975652479e+07  5.5006840985919178e+07  1.2487276452062842e+08  4.0415679713581540e+07  6.2553377758032441e+07  5.9784718345079057e+07  5.7538046232451253e+07  6.7171462823500931e+07  6.3649349316360563e+07  7.5830368476164803e+07  1.6279221956671102e+09  6.6183605416085646e+07  1.0533008199942480e+08  8.1270617208611238e+08  9.1193811143590152e+07  4.5156294561022446e+07  7.1244091002014935e+07  8.6885001293308049e+07  9.9240366691578627e+07  6.1170575339845374e+07  2.4576642471420711e+08  7.6099852984565258e+07  1.5302753468435571e+08  7.1053718049406946e+07  8.9347301773950011e+07  6.4455560784993812e+07  6.6364281996651255e+07  4.0186409499195260e+08  1.1314020295044622e+09  5.0165432186928473e+07  1.9057106587067863e+08  1.0837323268853619e+09  1.6289829818916993e+09  5.6701722142087087e+07  5.5851920694457583e+07  2.7500284401911849e+08  7.4146141790455803e+07  1.6308698645483627e+09  1.5770689216375089e+08  3.0395090460374105e+08  3.9081442648075618e+07  5.7628902443520546e+07  5.2078028181420110e+07  1.1751505651512733e+09  5.1123261524954581e+08  6.1809968944932967e+07  2.7365045797874596e+07  4.4867653599634546e+08  4.8182918617519684e+07  5.3162174223185408e+08  6.0612630328327656e+07  7.6974290994207188e+07  6.0620822543650675e+08  6.1033074575914808e+07  2.4871583828442872e+07  1.6482308337089612e+09  8.1115194935346448e+08  1.8795704621492806e+08  1.0185279704598497e+08  5.6731160479351349e+07  5.9317561748466589e+07  5.7921358665131837e+07  7.1454343340923548e+08  1.2418959836661263e+09  4.5913222927320406e+07  5.3359746409406148e+07  4.8252106836088724e+07  5.2308284748392917e+07  6.2544638176795073e+07  1.1600909916510675e+09  4.0280044684272021e+07  6.0768804697960578e+07  5.9148727761437990e+07  4.5085265669822611e+07  1.6226314570780520e+09  5.7171328164320938e+07  1.6232880962393956e+09  1.0312974111010280e+08  1.0514586530485764e+08  5.7125227626743205e+07  5.7934545422814250e+07  5.7567372359682694e+07  3.7030647259739101e+08  5.7576310021297149e+07  1.6158738116291804e+09  1.6238959828160169e+09  3.6965675064281398e+08  3.9024331336112484e+07  4.7606916959401675e+07  4.7693838890389390e+07  9.0135907607105076e+07  1.6489241730251220e+08  2.4075173932259628e+08  2.4873079598943254e+08  5.3966508384319997e+08  6.1886188816643670e+07  6.4944005666413561e+07  8.3633757892213428e+08  5.9127972564841777e+07  5.0045403740119949e+07  1.1934845316462379e+09  1.2570143548708065e+09  7.1640230507172659e+07  5.8513005368459336e+07  6.1032169163313240e+07  4.3802097547357090e+07  4.0340285000797719e+07  4.7129295239611179e+07  6.0662136559751011e+07  3.9739069800994581e+08  4.1551951647588231e+07  6.3189451724149324e+07  5.2183038541206963e+07  4.1515979512741826e+07  6.9847401473581865e+07  5.8928308519679353e+07  5.6776395065668404e+07  8.1739365763893044e+08  4.0088419129144549e+08  1.2380950906353624e+09  1.3582499473691630e+08  2.0165904075774011e+08  5.8067707682097323e+07  1.4449540586468360e+08  5.9555200168570787e+07  5.6667542214637376e+07  1.2504363308871260e+09  7.7847079983040929e+08  5.1907414643971956e+08  6.3636194717048809e+07  5.4807298382687427e+07  6.5712927950460143e+07  6.4882707544351861e+07  6.1488725448419474e+07  4.9493827374596193e+07  5.7543501328214541e+07  7.8114962953447238e+07  6.5958827746955968e+07  3.7793437002837408e+08  4.9816262726337522e+07  5.5837147266034506e+07  5.3476129476078220e+07  5.0721059077499256e+07  8.1807247476496071e+07  6.6575340308733892e+08  6.7451923516068771e+07  8.1891922521142408e+07  5.0124085777376547e+07  7.6860006961149171e+07  7.1647974779003859e+07  2.3365039524263927e+08  9.3437317615426168e+07  7.4094461233879477e+07  7.7791609145579562e+07  1.1235900911361365e+08  1.4642332916362405e+08  6.1795854654739633e+07  6.0586744195022628e+07  4.9226438232261173e+07  6.5473036173493259e+07  1.5044594195215803e+08  2.2043523724169019e+08  1.3249162120209835e+08  4.3242707273052685e+07  6.3220803419068143e+07  6.0120352169149138e+07  9.2516246596508622e+07  5.8001106902944863e+07  8.1150066293753982e+07  6.3457177617970422e+07  6.1755679717038870e+07  1.1949956956745382e+08  6.0833300624538764e+07  2.8612198110566396e+08  1.5587876882553780e+08  3.3445835115266073e+08  2.1513997819041181e+08  1.3218134953198960e+09  5.8968336031419225e+07  5.6885402355468303e+07  6.4674416205335629e+08  6.5013077473945653e+08  9.0310068469370329e+08  9.8061691247404873e+08  1.3110244677873917e+09  6.1909688541922711e+07  8.0607913740723118e+07  5.3486424064992420e+07  5.0318815357670784e+07  5.6037812665080756e+07  1.4044697963228390e+09  9.2781928531622469e+07  5.8102373316486008e+07  9.1332643502914107e+08  2.8008536606549627e+08  6.9109724926861212e+07  8.5879326781598473e+08  5.9369227148491904e+07  5.8294580144263640e+07  5.7677650918365762e+07  5.9207359414042406e+07  5.7502246672418326e+07  5.5945328093843348e+07  5.9107742845618427e+07  1.9660782527267212e+08  2.9093047505291122e+08  1.1756958703372157e+08  6.5549456937003529e+08  5.8073909098757160e+08  4.1894803272692448e+08  5.6904727741635486e+07  4.7974571733686626e+07  7.5846287853014529e+08  1.4709616923321265e+08  6.0980958482539289e+07  5.6541485413342714e+07  1.3886286216146908e+09  4.7990057488565758e+07  1.3870701802891121e+09  1.0021672009765500e+08  8.0210299260882699e+08  1.2101937222867596e+09  4.5496015395745017e+07  5.7145199297012918e+07  5.6441446772801936e+07  4.6861736560113370e+07  3.9342799134306377e+08  5.2817007176428057e+07  5.9391656669938363e+07  3.8890734054854877e+07  3.0426663192176318e+08  3.2855185284522152e+08  5.9487717424805069e+08  9.1258737323657024e+08  5.9382178643612884e+07  6.7854394793538779e+07  7.4558118929634780e+07  6.0235265809688993e+07  6.5920865129495122e+07  6.6124660350285180e+07  3.9013379696878165e+07  5.2176929908024162e+07  5.7713669124382868e+07  7.8114485592306018e+07  1.4077022826774609e+08  5.7034190743660375e+07  5.7122104213769719e+07  8.4972278210197604e+08  5.8670137798916712e+07  4.6456780107069969e+07  4.6269467819125541e+07  5.8681900319363661e+07  5.8198188897564799e+07  1.3800108210934734e+09  1.3473778979725373e+09  1.4074964222185774e+09  3.4893833837989283e+08  2.0042549926234126e+08  1.1230899031295362e+08  1.3572623922762420e+09  4.3830586191151984e+07  6.1648642769001529e+07  6.8120017314159468e+07  5.9606129794986330e+07  4.0796230887530029e+07  4.4796987258520693e+08  4.8349543099770598e+07  5.3499229777689219e+07  5.2473072948501907e+07  8.1595233980015516e+07  1.3291219454994688e+09  6.1527225082809083e+07  8.5163013207312956e+07  6.5246148651820309e+07  4.5482216409957282e+07  1.1216506339335635e+08  8.7206233658104658e+07  7.7470055071365583e+08  1.3419789125564947e+09  1.1613810911454913e+08  4.7255890417752527e+07  1.4271470008146777e+09  5.8733057188270882e+07  1.9639459916770488e+08  4.4659887395166077e+07  8.0942121358492449e+07  6.6681421150910467e+07  6.9198424858469039e+07  3.9029760011823207e+07  7.2287581019198567e+07  6.1429997120131120e+07  6.3784092407290280e+07  6.3317266753704362e+07  6.0072718817091727e+08  5.2191910831202209e+07  5.9659583523377314e+07  6.1749153256927967e+07  4.3809661632110968e+07  7.2130528845964909e+07  7.9601023349749953e+07  5.2875224421840988e+07  6.2916154164962128e+07  4.8599251406132363e+07  2.0525860605209452e+08  1.1824336236432739e+08  5.0167112965494350e+07  1.3599033747964356e+09  1.0297283711358007e+09  2.7506684149276781e+08  6.6312993778210811e+07  6.3531117277130283e+07  1.0778719684085304e+08  5.7308726654688120e+07  4.4568668978427552e+07  5.3649725597675659e+07  7.0761648895951375e+07  4.3310612181459337e+08  5.1402180020458162e+07  2.0728081561105475e+08  4.0829789884920746e+07  2.7581702692975789e+08  9.1410205602383748e+07  1.2806840417093554e+08  5.9296403060495533e+07  5.8995361775121383e+07  6.9873153642509460e+07  1.1239811992667239e+09  7.5314764155837834e+07  9.4257936329771057e+07  2.9625881424429214e+08  1.8985767255087286e+08  1.3980140901565175e+09  4.8005223226037391e+07  4.7951583868845567e+07  4.3355313595322467e+07  6.5773749960303552e+07  6.6672225053802669e+08  7.0066894735732138e+08  6.8446292533451855e+07  3.1576568473606956e+08  1.6248835810476353e+09  1.5598602789555800e+08  6.8847661985844478e+07  4.7698910668406099e+08  4.5187014656302434e+08  5.0282509901458330e+07  5.9724594334733292e+07  6.7891014661775291e+07  7.5291950875865012e+07  1.0503455393804638e+08  8.9333901732242405e+07  1.0301790341221935e+08  4.0425481143587035e+08  5.7424638383217894e+07  5.4264797977648325e+07  6.3358786570850931e+07  1.5964809611918005e+08  6.7489734275747642e+07  4.7177303245793998e+07  5.4008236017972261e+07  6.0269606022335577e+08  6.2708063712895401e+07  5.9655057588067703e+07  6.0643074211182266e+07  1.0258564273064579e+08  8.0195535373538524e+07  8.4835258274627700e+07  2.8775090844120890e+08  4.7168475932866238e+07  4.8495240109102711e+07  6.0598381880824894e+07  1.0134827086080812e+08  1.3794704861342382e+09  9.2526922493439305e+08  5.2673306866828376e+08  9.9693973620510447e+08  7.4000945398487002e+07  5.6551047000483058e+07  5.4972914590472355e+07  5.8055945573111199e+07  5.7138612323907785e+07  5.7856195924398400e+07  5.9196167860980287e+07  6.2824217423799062e+08  7.4032258945808202e+07  4.3058404023764379e+07  1.2176453824606138e+08  1.0457961559369909e+09  5.7827316941692680e+07  9.6116603207205474e+07  7.8484988492168456e+07  7.9915796745279029e+07  1.2662969857195847e+08  1.9148832835921335e+08  1.4065653394804168e+08  1.0107654195336124e+08  8.4579619239441365e+07  7.5602855492207482e+07  1.3919396857474232e+09  6.7509213769476816e+07  6.4653471870901100e+07  6.5904283538878761e+07  5.7219601927715071e+07  6.7900297699559307e+08  6.4814755973217592e+07  5.4985630900416426e+07  5.9069003037026234e+07  5.8106258226962857e+07  3.6970678855138075e+08  3.0105071555328357e+08  5.5663995736292213e+07  5.4132244777806215e+07  1.6233336992882919e+09  4.0511002501769245e+07  7.0315423789747447e+07  5.7901976260128349e+07  4.9672062099561252e+07  2.4241576632437697e+08  1.6756572872078174e+08  2.0778142406126148e+08  4.5860445973119557e+08  1.6147678640891907e+09  6.3493179412353717e+07  3.8504304713627316e+07  5.6821217085939907e+07  5.1847485379247583e+07  4.9878462422287658e+07  5.0968242449350052e+07  1.9811047387593791e+08  6.3868277341138840e+07  4.4748590929425351e+07  4.5557403122446917e+07  4.7926715278587013e+07  6.8724264222285759e+08  1.1310771818425778e+08  8.7908025878431186e+07  1.9970189536853215e+08  2.9926212374996305e+08  1.9316129005995548e+08  7.6079910112062126e+07  2.2788525290443736e+08  6.0731809354165062e+07  6.2881930023515508e+07  7.8851371480405763e+07  1.3958587643840919e+09  1.0539069934827995e+09  1.0506389819553142e+09  3.2212908279402584e+08  2.2645044123359928e+08  2.7108028858618498e+08  5.8962752306118637e+07  3.9717222317712581e+08  4.9872852672713804e+08  1.0569360306149379e+09  5.2652347443692222e+07  5.7329066517304249e+07  4.5761821763466418e+08  4.8327863285104227e+08  6.0302559145804890e+07  5.6863735681689069e+07  8.5404241794258520e+07  5.8182859015923657e+07  5.1833341982230954e+07  1.4143526739318378e+09  4.3219614297947526e+08  5.7290650313570477e+07  5.6958240196959794e+07  5.6966008771699086e+07  5.7245807815182760e+07  6.6514128736574709e+07  1.0711414401085457e+08  8.3807734388883576e+07  6.7540871111578777e+07  7.1217314756869584e+07  9.5417478815616965e+07  3.7695340750591445e+08  3.7732609950516418e+07  1.4225844327550146e+08  9.0479022339966506e+07  4.8928105139801383e+08  1.4112657564481181e+08  1.1310746686557581e+09  1.2077695815617344e+09  8.9758637407897329e+08  5.1329008312689227e+08  5.8953747383609146e+07  3.9281676824377912e+08  5.5450361033833027e+07  6.1700977208547264e+07  5.3871351737809591e+07  5.4883059848568521e+07  4.7557021553745955e+07  4.7300840345161848e+07  4.9204872486702099e+07  7.2030983043103778e+08  5.9863330874949805e+07  5.6804415656601280e+07  1.0404500832747449e+08  5.5935781080407128e+07  5.1861968291258492e+07  9.1265782522811031e+08  7.4601541629221582e+08  6.0653076630783483e+07  6.0129504660753958e+07  6.1390011524607219e+07  5.7266649532484241e+07  3.7620983155877572e+08  7.0984640915996149e+07  5.6418970234922183e+08  1.4482618179340076e+09  6.9002307549879536e+07  2.3001519067672941e+08  1.4876845266972932e+08  8.9118829105447161e+08  5.1918307566419369e+08  7.1973542359402525e+08  4.9585002539776117e+08  6.3490039000024825e+07  5.8674913678698130e+07  5.5570152625948593e+07  5.8912322383040480e+07  6.1568084359816611e+07  3.4544798603682888e+08  1.4284613620063660e+09  1.4257369798123662e+09  1.0405441874090035e+09  5.9111933009946734e+07  5.3426700958720803e+07  6.1384655295029178e+07  1.6295585829748940e+09  5.7203233195815541e+07  6.2574819893244699e+07  6.6346478947468126e+08  6.0136108081754729e+07  1.3345757339340594e+08  1.6354744353154383e+09  6.2295946355391771e+07  6.2808454080541104e+07  3.2970792251112843e+08  7.0728771805632845e+07  1.1336943562355213e+09  9.7009654058388793e+08  1.1259859367505105e+09  5.2168615410361856e+07  4.0445188790018596e+07  1.4886813243623557e+09  4.9951071399961106e+07  9.4704527183252215e+07  1.1126604393227928e+09  1.4646208271815453e+09  7.5145162277121329e+08  2.9778012629354370e+08  2.6710858848407862e+08  5.6596154114834443e+07  1.9364681068223354e+08  9.2030841299188733e+07  7.2712394832525894e+07  4.8162072333008572e+07  5.7945314900899954e+07  6.1550583045080945e+07  6.0273847193629213e+07  5.8857885312463902e+07  5.9440336398497656e+07  5.8471586065506436e+07  4.7288254852525055e+07  1.6180918791577315e+09  4.6174377002048358e+07  4.6223671621441446e+07  7.5889770071201816e+07  4.7532911718177967e+07  4.7498296090099238e+07  1.6235033536502326e+09  5.7681608325273342e+07  5.7672964147861548e+07  7.2459561036834097e+08  5.7909986177105106e+07  5.7895439812092878e+07  1.6311429438602133e+09  7.3189435391636240e+08  7.3189909731527364e+08  7.5198457814693081e+08  5.7952677646992065e+07  5.7982068511818238e+07  1.6241034930263112e+09  1.6952160044069726e+09  1.6127831002775896e+09  5.7211967870785639e+07  1.4387614768596119e+08  3.7773327950206853e+07  3.7819309156520762e+07  4.6158199614999674e+07  1.6248491376551080e+09  5.7422091088587873e+07  5.8496809588740565e+07  1.6255531282152812e+09  5.8371959420494832e+07  2.7541669752217293e+08  4.6436558156107470e+07  1.8023732569919059e+09  3.7722170735006161e+07  1.6197142253467340e+09  1.6255205619133096e+09  4.0170820980152816e+07  4.7287428519600064e+07  4.0985063788003281e+07  4.8966138668602996e+07  5.1085708487971887e+07  4.6635922947127444e+08  1.5354944607699189e+08  5.9143250529496387e+07  5.8350495079539604e+07  5.8712612627804704e+07  8.5621740330405033e+08  5.8661104387745544e+07  6.3893207102652259e+07  1.2490898107979132e+08  1.5826261509336415e+08  2.0614900806997651e+08  8.3652765143705800e+07  1.2791926463815258e+08  9.4537556941439837e+07  1.4513216638166177e+09  9.8445446042088270e+07  5.0504157027087092e+07  7.8479866804316208e+07  9.4241328904372692e+08  5.6787245698792420e+07  1.8938093752183649e+08  4.7500557677357018e+08  3.6333820229917407e+08  7.1732592300767422e+07  6.2333793893952176e+07  6.3038225652551837e+07  3.0433727866904920e+08  5.6142705243312880e+07  5.9678547545826934e+07  1.1092486368019442e+08  4.7047643894747931e+08  7.7558516683070213e+07  6.7115102998214588e+07  6.9972024749739259e+07  6.7436261512152240e+07  6.2783366894023731e+07  2.5593274496473223e+08  6.1189531518365242e+07  7.9821631782723516e+07  4.2239648577232428e+07  3.9601884341976948e+07  6.1012007822671466e+07  7.2326167626655436e+08  5.9813914813872270e+07  6.5080576519643433e+07  6.4838335632133812e+07  6.6107285104902618e+07  4.1138185232273716e+08  5.3856470669880942e+07  5.3038426691174030e+07  8.2151442489742804e+08  9.2765882905657053e+08  7.1194057007563487e+07  5.7028868760806985e+07  5.6064999480828024e+07  6.2037368002109043e+07  5.3933868494923472e+07  6.1839872757233292e+07  4.3082135591570444e+07  4.5437893768493377e+07  4.2400701168851197e+07  5.2586948771889441e+07  6.6432944784507811e+08  5.9703479055622414e+07  6.1369649855612636e+08  4.9166595722351789e+07  4.1041130697060220e+07  4.4134448141074315e+07  5.7131434076032184e+07  5.1277008582849723e+08  3.0239286181368470e+08  5.5852373829595137e+08  5.8226079039511099e+07  6.3444492792621039e+07  6.3579119969791152e+07  4.1792530690427810e+07  7.1693282962847918e+07  5.5429912006032348e+07  4.3864023155878209e+07  3.8078146673116155e+07  1.0434318416201859e+09  1.0032115931311128e+08  7.7262103638977766e+08  7.1640343302571261e+08  4.4222717257565185e+07  4.6990913778958179e+07  4.8247548040000118e+07  5.8546660572865926e+07  7.5287628063932180e+07  5.8900373358553551e+07  5.7469819529934682e+07  6.0917404373599738e+07  7.0892815423386753e+08  1.9886087384508568e+08  2.1205245759531975e+08  6.9918648475193012e+08  3.2559397684675467e+08  6.0045969359561108e+07  6.2048805096446209e+07  8.1595922354349494e+08  5.5987493850820348e+07  5.8374341327517495e+07  6.1705417069266535e+07  1.4623950701714780e+09  4.7635377321332037e+07  7.2484836868209213e+07  1.4939794992271444e+08  5.5762807093356334e+07  1.2354322529306886e+09  4.8827153381254822e+07  1.4751565481932981e+09  9.1076395759568644e+08  6.0599955630755343e+07  5.5630242560285911e+07  5.7