<?xml version="1.0"?>
<VTKFile type="UnstructuredGrid"  version="0.1"  >
<UnstructuredGrid>
<Piece  NumberOfPoints="654" NumberOfCells="1220">
<Points>
<DataArray  type="Float64"  NumberOfComponents="3"  format="ascii">-0.05 0 0  -0.05 -0.1 0  0.05 -0.1 0  0.05 0 0  0 -0.1 0  0.05 -0.05 0  0 0 0  -0.05 -0.05 0  0 -0.05 0  -0.025 -0.1 0  -0.025 0 0  -0.05 -0.025 0  0.025 -0.1 0  0.05 -0.025 0  0.025 0 0  0.025 -0.06875000000000001 0  0.025 -0.03750000000000001 0  -0.02083333333333333 -0.02916666666666667 0  -0.05 -0.07500000000000001 0  -0.02083333333333333 -0.07083333333333333 0  0.05 -0.07500000000000001 0  0.003472222222222224 -0.02569444444444444 0  0.002378144654088049 -0.07627751572327045 0  -0.02083333333333333 -0.05 0  0.03125 -0.01875 0  -0.01233019290593089 -0.08678347112328397 0  -0.0125 -0.0130952380952381 0  -0.03690476190476191 -0.03750000000000001 0  -0.03541666666666667 -0.06041666666666666 0  -0.03385416666666667 -0.01614583333333334 0  0.05 -0.08750000000000001 0  0.03750000000000001 -0.1 0  -0.03385416666666666 -0.08385416666666666 0  0.03348214285714286 -0.08348214285714287 0  0.0125 0 0  0.0125 -0.1 0  0.01719551374627341 -0.0830513925183794 0  0.01029527261028368 -0.06231463651962176 0  0.0328125 -0.05312500000000001 0  -0.01041666666666666 -0.03958333333333333 0  -0.01041666666666667 -0.06041666666666667 0  0.01470753125203114 -0.04816506250406229 0  0.01799242424242424 -0.02474747474747475 0  0.03750000000000001 -0.03125 0  0.05 -0.0625 0  0.00625 -0.01223723723723724 0  0.05 -0.0125 0  0.03750000000000001 0 0  0.03765012642225032 -0.07127449431099875 0  0.02021617032392894 -0.01201127655869035 0  0.006028532990060553 -0.03846042534778643 0  -0.05 -0.0625 0  -0.03750000000000001 0 0  -0.05 -0.03750000000000001 0  -0.0125 -0.1 0  -0.0125 0 0  -0.05 -0.0125 0  -0.03750000000000001 -0.1 0  0.05 -0.03750000000000001 0  -0.05 -0.08750000000000001 0  -0.008680555555555554 -0.02743055555555555 0  0.006250000000000001 -0.08914373740925415 0  -0.009584768711776409 -0.07507825100308022 0  -0.03268229166666667 -0.07200520833333332 0  0.03939012096774194 -0.04309475806451613 0  0.02190003906503893 -0.05743439453251947 0  -0.03834537706133037 -0.04910019455252918 0  0.01284084887861751 -0.07298400536762802 0  -0.02264613483542079 -0.0820413651645792 0  -0.02366071428571428 -0.01123511904761905 0  -0.03199404761904762 -0.02730654761904763 0  -0.0244047619047619 -0.06041666666666667 0  -0.01041666666666666 -0.05 0  -0.02083333333333332 -0.03958333333333333 0  2.405987640392848e-05 -0.0604407265430706 0  -0.002910133850527605 -0.01736173448892657 0  -0.02961483445283294 -0.04429487938443922 0  0.0390625 -0.0109375 0  0.040625 -0.021875 0  0.028125 -0.028125 0  -0.04176917540113871 -0.06803243885869564 0  0.03965658412817928 -0.06102022076500465 0  0.01533845899304755 -0.03450745320159019 0  0.02948377458963575 -0.008744075527611174 0  0.02448333984417315 -0.04800472330961902 0  -0.002638588467448458 -0.08480290334513936 0  0.01875 -0.09260679016400503 0  0.02801599660666901 -0.09111197895245939 0  0.0427726833976834 -0.08125000000000002 0  0.04010991573299855 -0.09061756875992701 0  -0.03125000000000001 -0.09292674731182796 0  -0.04078102849914793 -0.09075246902758297 0  -0.04292674731182795 -0.08125000000000002 0  -0.04292674731182796 -0.01875 0  -0.04075246902758298 -0.009218971500852071 0  -0.002501899107215252 -0.03451361758785813 0  -0.01875 -0.09331034417873318 0  -0.04137052725919914 -0.02906901041666667 0  -0.02515071191829004 -0.02065873579545455 0  -0.004560476962080258 -0.008160345583815167 0  -0.01571003401360544 -0.02162698412698413 0  -0.006250000000000001 -0.09347094524847423 0  -0.03184688459542486 -0.007177652942204195 0  -0.043423574176247 -0.05645164743293771 0  -0.002931194584325539 -0.06897337298686135 0  0.04141166808534667 -0.05159229946940671 0  0.03072628767995273 -0.06184751883997637 0  0.01331794183364191 -0.01736907532119644 0  -0.02991071428571428 -0.05329326110353833 0  0.0302193738423544 -0.07555280640245397 0  -0.02844810693838604 -0.03529440998727736 0  -0.05 -0.04375 0  0.009435764744425919 -0.08043238240966273 0  0.02057363836381549 -0.07561467685960577 0  0.025334823172674 -0.08341820123348352 0  0.005194622404326759 -0.06864849887959712 0  0.01732194592699554 -0.06627651681808928 0  0.006285662925187238 -0.05520590615175079 0  -0.01875 0 0  0.03186492887377232 -0.04533174938342453 0  -0.0008783629089698517 -0.04219661564043644 0  0.05 -0.00625 0  0.03375689409777979 -0.03792049068961304 0  0.05 -0.06875000000000001 0  0.01439721346977286 -0.05583102001882564 0  0.007184194424042271 -0.04772337119454249 0  0.01846824474048517 -0.04149541481145257 0  -0.01682300313953808 -0.07723258764373991 0  0.01091777409106017 -0.0280645394299259 0  -0.01562499999999999 -0.034375 0  -0.005184328773648671 -0.055232337893018 0  -0.015625 -0.05520833333333333 0  -0.01562499999999999 -0.04479166666666667 0  -0.01741071428571429 -0.06383928571428571 0  -0.01017446891572471 -0.06775731747543173 0  0.02462121212121212 -0.02174873737373738 0  -0.01727537722908093 -0.007335299088771311 0  -0.04246234479210493 -0.04269936147867359 0  0.02155204304257197 -0.03095624460965786 0  0.01316725552433098 -0.00805546078058521 0  0.01875 0 0  -0.02717633928571428 -0.0671875 0  -0.02899339936689958 -0.07835247286481212 0  0.034375 -0.025 0  0.04269000268040276 -0.03649499463919448 0  0.04375 0 0  0.04375 -0.02812499999999999 0  -0.03761497647442349 -0.02322577938762476 0  0.05 -0.05625 0  -0.02487731781150031 -0.08912078797260026 0  -0.03695888676976247 -0.07756467740738612 0  0.002206599034779407 -0.006587679234291101 0  0.003888413565608712 -0.01876506087328944 0  0.04375 -0.1 0  0.05 -0.09375 0  -0.008944539808483216 -0.02059134745263918 0  -0.04331057662916364 -0.07455691519284439 0  0.0439453125 -0.0158203125 0  -0.0001289479518082485 -0.09093484953796985 0  -0.04345238095238095 -0.03556995462159739 0  -0.01996941165388946 -0.01664836497274012 0  -0.04375 -0.1 0  -0.05 -0.09375 0  -0.04375 0 0  -0.05 -0.00625 0  0.005594154517873918 -0.03190847365283561 0  0.01173248358540133 -0.04209249512146222 0  0.03419217537052396 -0.09402564429600242 0  0.01187454317038147 -0.09313287027544383 0  0.00625 -0.1 0  0.02629142191479375 -0.01446643061282435 0  0.021875 -0.005713666436405997 0  0.04321758283034931 -0.06704044172466167 0  0.03164035608931087 -0.06843232885197728 0  0.04337196116786825 -0.07463925880684733 0  0.03637679552963742 -0.07765509762578199 0  0.003626010873625676 -0.08324593924595615 0  -0.01086143623908221 -0.006877234301934964 0  0.05 -0.04375 0  0.01179919481827354 -0.08623489346281316 0  -0.01250448524457812 -0.09373974299368953 0  -0.05 -0.06875000000000001 0  -0.03125 0 0  -0.03125 -0.1 0  0.03125 0 0  0.05 -0.03125 0  -0.05 -0.03125 0  0.03125 -0.1 0  -0.00625 -0.1 0  -0.01875 -0.1 0  -0.05 -0.01875 0  0.01875 -0.1 0  -0.00625 0 0  0.00625 0 0  0.05 -0.01875 0  -0.05 -0.05625 0  -0.05 -0.08125000000000002 0  0.05 -0.08125000000000002 0  -0.005208333333333331 -0.04663513209089385 0  -0.008645094114120339 -0.03363601830115741 0  -0.01475694444444444 -0.0282986111111111 0  -0.002375017943413014 -0.02816654106277556 0  0.01949511126133643 -0.01820257885343882 0  -0.01184447766846871 -0.08072281861600734 0  -0.003534735552586339 -0.07499381884380991 0  -7.74643124966494e-05 -0.01210497681433211 0  -0.0189894669743643 -0.08708512345290294 0  -0.03573478741405032 -0.06660859450219164 0  0.04359375 -0.006406250000000002 0  0.03517259397916334 -0.00591284371726238 0  0.01965556274601837 -0.05175082112889391 0  0.0278582381998454 -0.05655080703154879 0  0.02250150625287546 -0.06335204673888746 0  -0.04398521510889171 -0.06244044890584508 0  -0.04409485128436456 -0.05055827494263457 0  -0.03770557434490081 -0.05497182533168162 0  -0.03656642640981419 -0.04343156897269072 0  0.009194419875177533 -0.02206075900562258 0  0.04451331908599852 -0.04636519166703897 0  -0.01485520520633521 -0.0715431557666749 0  0.03646473132841593 -0.0487266977067035 0  0.04405668594067944 -0.05696201317865261 0  -0.005203169869815907 -0.063408387077611 0  -0.02247505510150612 -0.07631841748069951 0  -0.02804244587606518 -0.08423194559419436 0  -0.02935822174816368 -0.01244339991380455 0  -0.03106530920251624 -0.021416390819467 0  -0.02607827560230913 -0.005825920664671352 0  -0.03361300586943999 -0.03280621050224407 0  -0.02666093500983432 -0.02972007434472025 0  0.02285652838955744 -0.08859591663874328 0  0.03188089108105607 -0.03248232675683183 0  0.004333204611837944 -0.09457186870462708 0  -0.02704324561419352 -0.07289471972323462 0  0.007922643115429704 -0.005561362357538799 0  0.0335055138043014 -0.01319301380430141 0  0.03678783220616013 -0.0177615033815196 0  -0.02428736139211932 -0.05463634003970875 0  -0.02991071428571428 -0.06211553281168236 0  0.01197199101441062 -0.06755294829741498 0  0.007340105850365504 -0.07377496925579345 0  0.0155154430127655 -0.07780260757679426 0  0.03658895737846099 -0.06574341599602251 0  -0.02410709817404581 -0.09456977129140082 0  0.01071697988857716 -0.05184278466318995 0  0.01728938824664831 -0.06065342293474459 0  -0.001242172060814776 -0.02269478175693585 0  -0.03834687844188856 -0.07228526864991387 0  0.03504935696459177 -0.08867226036471411 0  0.03924608506562968 -0.08530978616477196 0  0.04446421559415197 -0.08718473081338503 0  0.02679267124047066 -0.0428532372923227 0  -0.007808666799817795 -0.01546134924060014 0  -0.02636641232583814 -0.04890574755055194 0  -0.02267804660897878 -0.04479166666666666 0  0.03489498531895979 -0.05823382415106163 0  3.608994237358591e-05 -0.05522030782704834 0  0.005332838990544739 -0.06042849285714701 0  -0.04436969017718883 -0.02424446436705185 0  -0.01009042364871584 -0.04479166666666667 0  -0.01041666666666667 -0.05520833333333333 0  -0.015625 -0.05 0  -0.01562499999999999 -0.03958333333333334 0  -0.02083333333333332 -0.034375 0  0.04436432681906392 -0.09436432681906393 0  -0.02240513392857143 -0.06518787202380952 0  0.045371774633
[...]
<PointData  Scalars=" mean stress"> 
<DataArray  type="Float64"  Name=" mean stress"  format="ascii">1.6426263214133680e+09  7.7245072651032376e+08  7.7202872514763117e+08  1.6464475390808468e+09  7.7128665723747289e+08  1.0295260213833336e+09  1.6470780830376201e+09  1.0314905554228715e+09  1.0319674718064362e+09  7.7217305942062426e+08  1.6450869508895214e+09  1.3233054691943293e+09  7.7247350438834572e+08  1.3343000547478266e+09  1.6471406884617858e+09  8.7761410921299243e+08  1.1672408390331657e+09  1.2670079856895232e+09  8.4018905275229800e+08  8.6600687591198492e+08  8.4086544815594828e+08  1.3135367354127090e+09  8.3222467673565805e+08  1.0314183560075741e+09  1.4115074458303075e+09  7.9084825689693022e+08  1.4817461592654893e+09  1.1637372866381378e+09  9.4060181709253716e+08  1.4428195149398930e+09  7.8859375507397354e+08  7.7170349296477830e+08  7.9946571489986289e+08  8.0110462190779746e+08  1.6518347670361421e+09  7.7204374473279572e+08  8.0342562349780369e+08  9.2171935072573984e+08  1.0003342456405960e+09  1.1463735583016975e+09  9.3985160405393994e+08  1.0513192385237194e+09  1.3292614914586415e+09  1.2496569232310748e+09  9.2085574526492667e+08  1.4946599046303177e+09  1.4949026322448123e+09  1.6364157075160899e+09  8.6392712789452899e+08  1.4947852060303373e+09  1.1560000371285725e+09  9.2292775808500731e+08  1.6502905050167422e+09  1.1669406289999094e+09  7.7271157114621294e+08  1.6533904731478231e+09  1.5006170676621625e+09  7.7162473016195512e+08  1.1699174934796326e+09  7.8789510261844027e+08  1.2926404744909244e+09  7.8470763014445949e+08  8.3677423507860625e+08  8.6009563060549152e+08  1.1071668340741429e+09  9.6322756824954915e+08  1.0407083270684350e+09  8.5240650245369411e+08  8.0701423594999170e+08  1.5122099254020500e+09  1.2901377189891987e+09  9.4091016276174974e+08  1.0360400540586371e+09  1.1465743647780139e+09  9.3706064861084235e+08  1.4221045535636973e+09  1.0994915784648097e+09  1.5100617057548087e+09  1.3624416006036377e+09  1.2835022857775753e+09  8.8351204802318645e+08  9.3563503726958656e+08  1.2064137162759638e+09  1.5406599661797073e+09  1.0548418582606053e+09  7.9680292370592034e+08  7.7787778046314692e+08  7.8073488493133175e+08  8.0807803793455744e+08  7.8136479413781989e+08  7.7716504631913865e+08  7.8111752790826988e+08  8.0879349606149042e+08  1.4104761962913551e+09  1.5369958761845598e+09  1.2068021080780210e+09  7.7765340609569514e+08  1.2725998713328257e+09  1.3780233088410761e+09  1.5492735159411011e+09  1.3723259806414881e+09  7.7641392281891870e+08  1.5615953644875896e+09  9.6789965835039902e+08  8.7209069044761753e+08  1.0161132161451147e+09  9.2750187627128303e+08  1.4264672069583535e+09  1.0040614682454634e+09  8.3615390396868932e+08  1.1928868543892272e+09  1.0999690692748806e+09  8.1234512008067608e+08  8.3715516963491559e+08  8.0154264490285158e+08  8.7871653278097415e+08  8.9589121918174720e+08  9.8237964002114046e+08  1.6543060699962118e+09  1.0832450166023450e+09  1.1137145701661451e+09  1.5809112786314435e+09  1.1688599318576403e+09  8.7370679404697442e+08  9.8021822192416096e+08  1.0577252529892218e+09  1.1248718272319937e+09  8.2607586406233978e+08  1.2855610782583151e+09  1.2006357201874971e+09  9.8709934904787624e+08  9.8518107219742072e+08  1.0930202136603670e+09  9.1309742480898619e+08  8.8360984425664186e+08  1.3680618708351448e+09  1.5659638720499034e+09  1.1069867296649628e+09  1.2468665221891556e+09  1.5530961964840481e+09  1.6457731081689837e+09  8.8842881921421540e+08  8.2417728159609151e+08  1.3237268037944493e+09  1.1794472288691924e+09  1.6492459131186497e+09  1.2816154941364100e+09  1.3477091778332474e+09  9.7896559386782026e+08  7.8553791976483929e+08  8.2674057788663030e+08  1.5673288402064288e+09  1.4027428356369295e+09  7.7202872823538542e+08  7.7738468956420851e+08  1.3866443338694987e+09  8.4349738988039172e+08  1.4439759260390000e+09  7.7988472377090681e+08  1.1902568585850110e+09  1.4383588116487472e+09  7.7172999793713355e+08  7.7707980051826501e+08  1.6485635381926935e+09  1.5787028065254555e+09  1.2321878412024667e+09  1.1203035795178592e+09  7.7632926431565380e+08  7.7710035512867057e+08  7.7176713135648715e+08  1.4662059688825510e+09  1.5790032554869585e+09  8.9193618361092389e+08  8.7937580927262545e+08  8.4174134172381437e+08  8.2665273570776737e+08  8.0230445776347744e+08  1.5638682442283578e+09  1.1048468892411895e+09  7.9359187140117991e+08  7.7561922226782334e+08  8.7371526453878486e+08  1.6526803355239470e+09  7.7177680794301891e+08  1.6413034150598869e+09  1.2370758001883848e+09  1.2435507502444179e+09  7.7213984045657778e+08  7.7194813479096520e+08  7.7208302638862634e+08  1.4086590149640079e+09  7.7195302278146005e+08  1.6499791373182695e+09  1.6427157331899230e+09  1.4048698015958216e+09  9.8185115943694389e+08  8.1197074881924748e+08  8.0864439981164348e+08  1.0684899386694700e+09  1.2156039989125969e+09  1.2839790923754122e+09  1.2881601497738416e+09  1.4104656303049769e+09  8.1544809752730942e+08  8.4019933338644123e+08  1.5030369047789557e+09  7.8948062548164546e+08  8.8825813346851408e+08  1.5702705070068610e+09  1.5927834827997718e+09  1.0145433921362007e+09  9.7434986377204216e+08  9.1752071551859987e+08  9.2471468649128401e+08  1.0270391667563835e+09  9.8728763011535859e+08  1.1094211877154253e+09  1.3646577742070506e+09  1.0718117058265946e+09  8.5916793337754726e+08  1.0464110555179287e+09  9.6889295377516997e+08  9.1796417205819249e+08  8.3056166355353510e+08  7.9779120230661535e+08  1.4935466482198677e+09  1.3697985764169900e+09  1.5881790446056573e+09  1.2281850012101114e+09  1.2620227888644595e+09  7.8626288959076834e+08  1.2265996176664300e+09  7.7470843527507639e+08  8.5451053854820442e+08  1.5990173852773893e+09  1.4816995264750943e+09  1.4155122710313451e+09  9.8941433475018418e+08  9.2555819986836112e+08  8.8384244021320343e+08  8.4600100090275717e+08  8.2455008893037271e+08  8.9662192847322714e+08  7.7447944080900633e+08  1.0105831240545919e+09  9.3240842048035121e+08  1.3514975461559169e+09  8.5772686994857705e+08  7.8591454550120628e+08  7.9500987177436757e+08  7.9077865694176614e+08  1.1111796513657372e+09  1.4482360621472101e+09  1.0435135763024757e+09  1.0889979455623116e+09  9.5812907876398456e+08  9.8661336097492588e+08  9.3968835412188172e+08  1.3319021303071458e+09  1.0824311143474324e+09  9.8250850010242927e+08  1.0272251306181121e+09  1.1473789418665752e+09  1.2064413813667748e+09  7.7479446587015975e+08  9.0104463943210232e+08  1.1213654476967189e+09  9.4953157023706949e+08  1.1986247483493176e+09  1.2651268689690654e+09  1.1863220385035493e+09  9.2505647820923102e+08  8.1725667351927316e+08  8.0541909615780616e+08  1.1294964790587418e+09  1.0504395799004056e+09  1.1366300022892146e+09  8.1407981258860326e+08  7.9751454927253115e+08  1.1528666257693434e+09  8.6554332375434446e+08  1.3606469466821277e+09  1.2246239143918607e+09  1.3449020600685158e+09  1.2944276139293587e+09  1.6036013413464143e+09  7.7390081883746338e+08  7.7417286690021718e+08  1.4779902237699606e+09  1.4619389455045009e+09  1.5113388323656635e+09  1.5279867040089297e+09  1.6035458143422534e+09  1.0180515208566264e+09  1.0670339433860908e+09  7.9431177771258628e+08  7.9281888590508354e+08  7.8514268644463158e+08  1.6147626865342238e+09  1.0753154117398901e+09  7.7395895268112898e+08  1.5424574350840158e+09  1.3056352303805137e+09  8.9957882795128620e+08  1.5011557713516254e+09  7.7634137673627627e+08  7.7312663333883107e+08  7.7314019487928545e+08  7.8781796121586859e+08  8.2473890156564450e+08  8.1171107112896442e+08  8.1365787303218436e+08  1.2808044788206673e+09  1.3212569740108457e+09  1.2275916113856626e+09  1.4461756804505756e+09  1.4270533414795349e+09  1.3678738938545041e+09  7.7399239174266517e+08  8.2211830149221468e+08  1.5161577770138023e+09  1.1920839752316749e+09  7.8483545939607704e+08  7.9251559465058994e+08  1.6239535254669583e+09  8.2500568323744571e+08  1.6225504414686344e+09  1.1044064088469179e+09  1.4911905864298675e+09  1.5737591646259284e+09  9.7600354390102458e+08  8.4882127793158245e+08  7.8721974875700450e+08  9.1449838719876420e+08  1.3628103784067624e+09  1.1442464155031655e+09  7.8173393211916876e+08  1.0009300511829007e+09  1.3168096427843950e+09  1.3276782475924959e+09  1.4376576330582283e+09  1.5142297377801440e+09  7.7394271418905258e+08  9.4085260923215461e+08  1.1550114816395278e+09  7.8344525123592269e+08  8.6293661853916728e+08  8.5640201269245017e+08  1.0647277236608500e+09  9.7474556481532741e+08  9.6012986505149698e+08  1.2039402212223320e+09  1.2781560263743172e+09  7.7321851322240591e+08  9.0730783764450121e+08  1.4964293080859993e+09  7.7276236457197666e+08  8.5584605542142344e+08  8.6552448972914755e+08  7.7276817167289996e+08  7.7224742306408632e+08  1.6206031415357053e+09  1.6205635258280690e+09  1.6263453013609600e+09  1.3325289736968994e+09  1.2432753260564284e+09  1.1845149616494801e+09  1.6089241636435151e+09  9.0481767971106195e+08  7.9639639877418363e+08  9.9291165348483860e+08  9.3857195588079953e+08  9.3768791287183726e+08  1.4014017540887606e+09  1.0228628337588673e+09  7.8011310534212184e+08  8.9288092632390451e+08  8.4331767608153296e+08  1.6120891001141815e+09  7.8956872723634374e+08  1.1308942604712124e+09  1.0014223314229867e+09  9.5087181457613647e+08  1.2364278075461631e+09  1.0993707473676829e+09  1.4838852161743801e+09  1.6107968800143175e+09  1.1484656819318266e+09  1.0611143888540046e+09  1.6258200126216903e+09  7.9716718138998187e+08  1.2424743243900921e+09  8.9239141600038981e+08  7.7266805417847586e+08  9.0996142554083943e+08  9.0490004349821770e+08  9.9655166961899281e+08  8.0940428211192322e+08  8.2701313917817175e+08  8.3162624467296445e+08  1.4357401412227817e+09  9.4675686165816402e+08  8.1159659110355639e+08  7.8259210275045395e+08  8.4654022996310246e+08  9.0490433857417107e+08  9.6534403333391690e+08  1.0077679239914271e+09  8.0947024272801411e+08  8.8113849948273563e+08  8.0196856973252082e+08  1.2531964111513376e+09  1.1771220189024146e+09  8.2578959560911632e+08  1.6149800168578980e+09  1.5408660686806409e+09  1.3156055547791703e+09  9.1432246195055532e+08  8.6837914518471265e+08  1.1280281696899612e+09  7.7424341750453460e+08  1.0682565659570122e+09  8.3352233835092175e+08  7.7185030800017977e+08  1.3859771103606479e+09  1.0120474345042330e+09  1.2822441894471846e+09  9.4697304981389165e+08  1.3623129737607384e+09  1.0729778170631506e+09  1.1596704238452811e+09  1.0427353909868546e+09  1.0851364236227629e+09  1.0638577236188236e+09  1.5565826191846364e+09  1.2255389324161367e+09  1.3056355731501923e+09  1.2378158734744859e+09  1.6188702786009505e+09  1.0108892148166699e+09  7.8241551735220504e+08  1.0072141809236652e+09  8.6803566559231377e+08  1.4590779104343660e+09  1.4603872208004496e+09  9.0981802137077427e+08  1.3789359796416507e+09  1.6510399481701081e+09  1.2219767441618690e+09  9.4251630758687687e+08  1.4414095363691998e+09  1.4322342150728064e+09  9.2379751752293909e+08  7.7716710881201184e+08  9.7392835512687397e+08  1.0121979203388990e+09  1.1488056247933185e+09  1.0928461389385874e+09  1.1960902435349395e+09  1.3704914417641244e+09  7.7209654425007319e+08  8.2318475395611572e+08  1.1353760102096925e+09  1.2415874805560446e+09  8.9555645535936999e+08  8.6282113412319052e+08  8.1461287220148098e+08  1.4321252491394472e+09  8.3824375067694438e+08  8.2175998376836896e+08  8.4298952147930241e+08  1.1058336206688020e+09  1.0206395305107155e+09  1.0564607171509187e+09  1.3129305272099235e+09  7.9743539880330849e+08  8.0378221700011647e+08  8.8850752343010092e+08  1.1828346083557065e+09  1.6177386614341376e+09  1.5055728050319574e+09  1.4089144191776474e+09  1.5263154770664589e+09  7.8004608751397061e+08  8.5902259330967629e+08  9.6337771011982036e+08  7.7906725191665256e+08  7.7813881748199439e+08  7.9527687975674665e+08  1.1434738341014285e+09  1.4580135917523289e+09  1.0041980083747429e+09  1.1046703189562387e+09  1.1586517987765946e+09  1.5440398491861634e+09  7.7297054156084573e+08  9.5597490623033726e+08  1.1071077219777732e+09  1.0647193442801764e+09  1.1751104213733339e+09  1.2520280213868496e+09  1.1910672851630840e+09  1.1111171919790511e+09  1.0606998055115143e+09  1.0092003703652697e+09  1.6195224637112756e+09  8.8589062820534384e+08  8.6087642141156733e+08  8.5508785990653527e+08  8.1228931795283699e+08  1.4519042166416693e+09  8.8294177461269081e+08  8.6768809862994611e+08  8.7456697260416675e+08  9.1061788820694351e+08  1.3573876222944293e+09  1.3195893905500033e+09  8.0957754243796563e+08  9.5899896107892394e+08  1.6443945137609446e+09  9.5939070549583948e+08  1.1209320348348117e+09  7.7823436240708947e+08  8.4396642673556459e+08  1.2809662077302186e+09  1.2320656424842019e+09  1.2741378913371711e+09  1.3930900080561585e+09  1.6389148762774043e+09  8.1674140413442433e+08  1.0380846763039713e+09  7.7302037916880643e+08  9.1968229976145911e+08  8.3695432254256105e+08  8.1998158160868049e+08  1.2520163851916380e+09  1.0934195721761587e+09  8.8897831357510328e+08  9.0799718388185823e+08  8.7559483236523950e+08  1.4579414259462183e+09  1.2585956012636178e+09  7.7211675222937810e+08  1.3104974093430154e+09  1.3549213885321848e+09  1.2809177125058110e+09  7.7279507939882803e+08  1.3288987416683872e+09  7.9788389470809591e+08  9.2498365692875385e+08  1.0926095130995834e+09  1.6283533134633250e+09  1.5662271188755774e+09  1.5463082474414015e+09  1.3636270826606393e+09  1.3200533613001945e+09  1.3310529354062092e+09  7.7350871086845529e+08  1.3628676347453299e+09  1.4012754496618345e+09  1.5457914305772059e+09  9.0390547981611192e+08  7.8705713330578840e+08  1.4103793330480974e+09  1.4621160979933994e+09  7.8286855635518038e+08  7.7712830890820980e+08  1.1681602933819189e+09  1.0424709087900676e+09  8.3792241445165265e+08  1.6304223710152590e+09  1.3825282275572560e+09  7.7246271745334911e+08  7.7282535416398108e+08  7.7691119375862646e+08  8.3090881951025844e+08  1.1904405240336049e+09  1.2286566922641234e+09  1.1844126138198075e+09  8.7585616059143567e+08  7.7244181719371676e+08  1.1494413801361427e+09  1.3585785035821450e+09  1.2819339968834679e+09  1.0772304209428446e+09  1.3942928554016106e+09  1.2083813281420672e+09  1.5537279282553883e+09  1.5766763964032416e+09  1.5544758174697251e+09  1.4056961417361722e+09  7.7781232757390678e+08  1.4181211392570848e+09  7.8003804999866903e+08  1.1522909737133451e+09  9.4583116386201727e+08  8.4130099802532971e+08  8.5734379196057343e+08  8.4793271080295014e+08  8.2545774395223856e+08  1.4975865908316963e+09  7.9361869814473498e+08  7.7208203550378382e+08  1.1212377986203225e+09  8.8300086586295187e+08  8.6737206746253359e+08  1.5165830121439781e+09  1.4727641630154777e+09  7.8144318669344521e+08  7.7798327077262878e+08  7.8887133324727035e+08  7.7224286254666018e+08  1.3994367763865161e+09  9.6634889190044773e+08  1.0601120042787050e+09  1.6248545986745086e+09  7.8228645594612062e+08  9.0059473984072590e+08  1.2753167952194352e+09  1.2008354075885401e+09  1.5008967539342196e+09  1.4150736399156492e+09  1.4565975794093471e+09  1.3941718989709406e+09  9.6346494995201838e+08  8.5230927835948122e+08  7.7296892999542987e+08  1.0518227517524105e+09  1.3399322369544575e+09  1.6347898508834574e+09  1.6319635085214913e+09  1.5491051347749348e+09  8.4973834181083608e+08  8.1168514583732939e+08  7.9954030735852325e+08  1.6487579922307651e+09  7.7208832727252543e+08  8.0446374593674839e+08  1.4426603816074955e+09  7.9247944539902103e+08  1.1686381420537677e+09  1.6500569097736716e+09  7.9765273679198015e+08  8.1020293229621792e+08  1.3251334079913759e+09  9.2422914243027079e+08  1.5393063382730973e+09  1.5646454092865508e+09  1.0709372498441638e+09  1.0867033688767605e+09  9.4611618192138290e+08  1.6281109418395486e+09  9.8307745132168150e+08  1.1989350616757495e+09  </DataArray> 
</PointData> 
</Piece>
</UnstructuredGrid>
</VTKFile>