<?xml version="1.0"?>
<VTKFile type="UnstructuredGrid"  version="0.1"  >
<UnstructuredGrid>
<Piece  NumberOfPoints="431" NumberOfCells="800">
<Points>
<DataArray  type="Float64"  NumberOfComponents="3"  format="ascii">-0.25 -1 0  -0.2 -1 0  -0.15 -1 0  -0.1 -1 0  -0.04999999999999999 -1 0  0 -1 0  0.04999999999999999 -1 0  0.09999999999999998 -1 0  0.15 -1 0  0.2 -1 0  0.25 -1 0  -0.25 -0.95 0  -0.2 -0.95 0  -0.15 -0.95 0  -0.1 -0.95 0  -0.04999999999999999 -0.95 0  0 -0.95 0  0.04999999999999999 -0.95 0  0.09999999999999998 -0.95 0  0.15 -0.95 0  0.2 -0.95 0  0.25 -0.95 0  -0.25 -0.9 0  -0.2 -0.9 0  -0.15 -0.9 0  -0.1 -0.9 0  -0.04999999999999999 -0.9 0  0 -0.9 0  0.04999999999999999 -0.9 0  0.09999999999999998 -0.9 0  0.15 -0.9 0  0.2 -0.9 0  0.25 -0.9 0  -0.25 -0.85 0  -0.2 -0.85 0  -0.15 -0.85 0  -0.1 -0.85 0  -0.04999999999999999 -0.85 0  0 -0.85 0  0.04999999999999999 -0.85 0  0.09999999999999998 -0.85 0  0.15 -0.85 0  0.2 -0.85 0  0.25 -0.85 0  -0.25 -0.8 0  -0.2 -0.8 0  -0.15 -0.8 0  -0.1 -0.8 0  -0.04999999999999999 -0.8 0  0 -0.8 0  0.04999999999999999 -0.8 0  0.09999999999999998 -0.8 0  0.15 -0.8 0  0.2 -0.8 0  0.25 -0.8 0  -0.25 -0.75 0  -0.2 -0.75 0  -0.15 -0.75 0  -0.1 -0.75 0  -0.04999999999999999 -0.75 0  0 -0.75 0  0.04999999999999999 -0.75 0  0.09999999999999998 -0.75 0  0.15 -0.75 0  0.2 -0.75 0  0.25 -0.75 0  -0.25 -0.7 0  -0.2 -0.7 0  -0.15 -0.7 0  -0.1 -0.7 0  -0.04999999999999999 -0.7 0  0 -0.7 0  0.04999999999999999 -0.7 0  0.09999999999999998 -0.7 0  0.15 -0.7 0  0.2 -0.7 0  0.25 -0.7 0  -0.25 -0.65 0  -0.2 -0.65 0  -0.15 -0.65 0  -0.1 -0.65 0  -0.04999999999999999 -0.65 0  0 -0.65 0  0.04999999999999999 -0.65 0  0.09999999999999998 -0.65 0  0.15 -0.65 0  0.2 -0.65 0  0.25 -0.65 0  -0.25 -0.6 0  -0.2 -0.6 0  -0.15 -0.6 0  -0.1 -0.6 0  -0.04999999999999999 -0.6 0  0 -0.6 0  0.04999999999999999 -0.6 0  0.09999999999999998 -0.6 0  0.15 -0.6 0  0.2 -0.6 0  0.25 -0.6 0  -0.25 -0.55 0  -0.2 -0.55 0  -0.15 -0.55 0  -0.1 -0.55 0  -0.04999999999999999 -0.55 0  0 -0.55 0  0.04999999999999999 -0.55 0  0.09999999999999998 -0.55 0  0.15 -0.55 0  0.2 -0.55 0  0.25 -0.55 0  -0.25 -0.5 0  -0.2 -0.5 0  -0.15 -0.5 0  -0.1 -0.5 0  -0.04999999999999999 -0.5 0  0 -0.5 0  0.04999999999999999 -0.5 0  0.09999999999999998 -0.5 0  0.15 -0.5 0  0.2 -0.5 0  0.25 -0.5 0  -0.25 -0.45 0  -0.2 -0.45 0  -0.15 -0.45 0  -0.1 -0.45 0  -0.04999999999999999 -0.45 0  0 -0.45 0  0.04999999999999999 -0.45 0  0.09999999999999998 -0.45 0  0.15 -0.45 0  0.2 -0.45 0  0.25 -0.45 0  -0.25 -0.4 0  -0.2 -0.4 0  -0.15 -0.4 0  -0.1 -0.4 0  -0.04999999999999999 -0.4 0  0 -0.4 0  0.04999999999999999 -0.4 0  0.09999999999999998 -0.4 0  0.15 -0.4 0  0.2 -0.4 0  0.25 -0.4 0  -0.25 -0.35 0  -0.2 -0.35 0  -0.15 -0.35 0  -0.1 -0.35 0  -0.04999999999999999 -0.35 0  0 -0.35 0  0.04999999999999999 -0.35 0  0.09999999999999998 -0.35 0  0.15 -0.35 0  0.2 -0.35 0  0.25 -0.35 0  -0.25 -0.3 0  -0.2 -0.3 0  -0.15 -0.3 0  -0.1 -0.3 0  -0.04999999999999999 -0.3 0  0 -0.3 0  0.04999999999999999 -0.3 0  0.09999999999999998 -0.3 0  0.15 -0.3 0  0.2 -0.3 0  0.25 -0.3 0  -0.25 -0.25 0  -0.2 -0.25 0  -0.15 -0.25 0  -0.1 -0.25 0  -0.04999999999999999 -0.25 0  0 -0.25 0  0.04999999999999999 -0.25 0  0.09999999999999998 -0.25 0  0.15 -0.25 0  0.2 -0.25 0  0.25 -0.25 0  -0.25 -0.2 0  -0.2 -0.2 0  -0.15 -0.2 0  -0.1 -0.2 0  -0.04999999999999999 -0.2 0  0 -0.2 0  0.04999999999999999 -0.2 0  0.09999999999999998 -0.2 0  0.15 -0.2 0  0.2 -0.2 0  0.25 -0.2 0  -0.25 -0.15 0  -0.2 -0.15 0  -0.15 -0.15 0  -0.1 -0.15 0  -0.04999999999999999 -0.15 0  0 -0.15 0  0.04999999999999999 -0.15 0  0.09999999999999998 -0.15 0  0.15 -0.15 0  0.2 -0.15 0  0.25 -0.15 0  -0.25 -0.09999999999999998 0  -0.2 -0.09999999999999998 0  -0.15 -0.09999999999999998 0  -0.1 -0.09999999999999998 0  -0.04999999999999999 -0.09999999999999998 0  0 -0.09999999999999998 0  0.04999999999999999 -0.09999999999999998 0  0.09999999999999998 -0.09999999999999998 0  0.15 -0.09999999999999998 0  0.2 -0.09999999999999998 0  0.25 -0.09999999999999998 0  -0.25 -0.05000000000000004 0  -0.2 -0.05000000000000004 0  -0.15 -0.05000000000000004 0  -0.1 -0.05000000000000004 0  -0.04999999999999999 -0.05000000000000004 0  0 -0.05000000000000004 0  0.04999999999999999 -0.05000000000000004 0  0.09999999999999998 -0.05000000000000004 0  0.15 -0.05000000000000004 0  0.2 -0.05000000000000004 0  0.25 -0.05000000000000004 0  -0.25 0 0  -0.2 0 0  -0.15 0 0  -0.1 0 0  -0.04999999999999999 0 0  0 0 0  0.04999999999999999 0 0  0.09999999999999998 0 0  0.15 0 0  0.2 0 0  0.25 0 0  -0.225 -0.975 0  -0.175 -0.975 0  -0.125 -0.975 0  -0.07500000000000001 -0.975 0  -0.02499999999999999 -0.975 0  0.02500000000000002 -0.975 0  0.07500000000000001 -0.975 0  0.125 -0.975 0  0.175 -0.975 0  0.225 -0.975 0  -0.225 -0.925 0  -0.175 -0.925 0  -0.125 -0.925 0  -0.07500000000000001 -0.925 0  -0.02499999999999999 -0.925 0  0.02500000000000002 -0.925 0  0.07500000000000001 -0.925 0  0.125 -0.925 0  0.175 -0.925 0  0.225 -0.925 0  -0.225 -0.875 0  -0.175 -0.875 0  -0.125 -0.875 0  -0.07500000000000001 -0.875 0  -0.02499999999999999 -0.875 0  0.02500000000000002 -0.875 0  0.07500000000000001 -0.875 0  0.125 -0.875 0  0.175 -0.875 0  0.225 -0.875 0  -0.225 -0.825 0  -0.175 -0.825 0  -0.125 -0.825 0  -0.07500000000000001 -0.825 0  -0.02499999999999999 -0.825 0  0.02500000000000002 -0.825 0  0.07500000000000001 -0.825 0  0.125 -0.825 0  0.175 -0.825 0  0.225 -0.825 0  -0.225 -0.775 0  -0.175 -0.775 0  -0.125 -0.775 0  -0.07500000000000001 -0.775 0  -0.02499999999999999 -0.775 0  0.02500000000000002 -0.775 0  0.07500000000000001 -0.775 0  0.125 -0.775 0  0.175 -0.775 0  0.225 -0.775 0  -0.225 -0.725 0  -0.175 -0.725 0  -0.125 -0.725 0  -0.07500000000000001 -0.725 0  -0.02499999999999999 -0.725 0  0.02500000000000002 -0.725 0  0.07500000000000001 -0.725 0  0.125 -0.725 0  0.175 -0.725 0  0.225 -0.725 0  -0.225 -0.675 0  -0.175 -0.675 0  -0.125 -0.675 0  -0.07500000000000001 -0.675 0  -0.02499999999999999 -0.675 0  0.02500000000000002 -0.675 0  0.07500000000000001 -0.675 0  0.125 -0.675 0  0.175 -0.675 0  0.225 -0.675 0  -0.225 -0.625 0  -0.175 -0.625 0  -0.125 -0.625 0  -0.07500000000000001 -0.625 0  -0.02499999999999999 -0.625 0  0.02500000000000002 -0.625 0  0.07500000000000001 -0.625 0  0.125 -0.625 0  0.175 -0.625 0  0.225 -0.625 0  -0.225 -0.575 0  -0.175 -0.575 0  -0.125 -0.575 0  -0.07500000000000001 -0.575 0  -0.02499999999999999 -0.575 0  0.02500000000000002 -0.575 0  0.07500000000000001 -0.575 0  0.125 -0.575 0  0.175 -0.575 0  0.225 -0.575 0  -0.225 -0.525 0  -0.175 -0.525 0  -0.125 -0.525 0  -0.07500000000000001 -0.525 0  -0.02499999999999999 -0.525 0  0.02500000000000002 -0.525 0  0.07500000000000001 -0.525 0  0.125 -0.525 0  0.175 -0.525 0  0.225 -0.525 0  -0.225 -0.475 0  -0.175 -0.475 0  -0.125 -0.475 0  -0.07500000000000001 -0.475 0  -0.02499999999999999 -0.475 0  0.02500000000000002 -0.475 0  0.07500000000000001 -0.475 0  0.125 -0.475 0  0.175 -0.475 0  0.225 -0.475 0  -0.225 -0.425 0  -0.175 -0.425 0  -0.125 -0.425 0  -0.07500000000000001 -0.425 0  -0.02499999999999999 -0.425 0  0.02500000000000002 -0.425 0  0.07500000000000001 -0.425 0  0.125 -0.425 0  0.175 -0.425 0  0.225 -0.425 0  -0.225 -0.375 0  -0.175 -0.375 0  -0.125 -0.375 0  -0.07500000000000001 -0.375 0  -0.02499999999999999 -0.375 0  0.02500000000000002 -0.375 0  0.07500000000000001 -0.375 0  0.125 -0.375 0  0.175 -0.375 0  0.225 -0.375 0  -0.225 -0.325 0  -0.175 -0.325 0  -0.125 -0.325 0  -0.07500000000000001 -0.325 0  -0.02499999999999999 -0.325 0  0.02500000000000002 -0.325 0  0.07500000000000001 -0.325 0  0.125 -0.325 0  0.175 -0.325 0  0.225 -0.325 0  -0.225 -0.275 0  -0.175 -0.275 0  -0.125 -0.275 0  -0.07500000000000001 -0.275 0  -0.02499999999999999 -0.275 0  0.02500000000000002 -0.275 0  0.07500000000000001 -0.275 0  0.125 -0.275 0  0.175 -0.275 0  0.225 -0.275 0  -0.225 -0.225 0  -0.175 -0.225 0  -0.125 -0.225 0  -0.07500000000000001 -0.225 0  -0.02499999999999999 -0.225 0  0.02500000000000002 -0.225 0  0.07500000000000001 -0.225 0  0.125 -0.225 0  0.175 -0.225 0  0.225 -0.225 0  -0.225 -0.175 0  -0.175 -0.175 0  -0.125 -0.175 0  -0.07500000000000001 -0.175 0  -0.02499999999999999 -0.175 0  0.02500000000000002 -0.175 0  0.07500000000000001 -0.175 0  0.125 -0.175 0  0.175 -0.175 0  0.225 -0.175 0  -0.225 -0.125 0  -0.175 -0.125 0  -0.125 -0.125 0  -0.07500000000000001 -0.125 0  -0.02499999999999999 -0.125 0  0.02500000000000002 -0.125 0  0.07500000000000001 -0.125 0  0.125 -0.125 0  0.175 -0.125 0  0.225 -0.125 0  -0.225 -0.07499999999999996 0  -0.175 -0.07499999999999996 0  -0.125 -0.07499999999999996 0  -0.07500000000000001 -0.07499999999999996 0  -0.02499999999999999 -0.07499999999999996 0  0.02500000000000002 -0.07499999999999996 0  0.07500000000000001 -0.07499999999999996 0  0.125 -0.07499999999999996 0  0.175 -0.07499999999999996 0  0.225 -0.07499999999999996 0  -0.225 -0.02500000000000002 0  -0.175 -0.02500000000000002 0  -0.125 -0.02500000000000002 0  -0.07500000000000001 -0.02500000000000002 0  -0.02499999999999999 -0.02500000000000002 0  0.02500000000000002 -0.02500000000000002 0  0.07500000000000001 -0.02500000000000002 0  0.125 -0.02500000000000002 0  0.175 -0.02500000000000002 0  0.225 -0.02500000000000002 0  </DataArray>
</Points>
<Cells>
[...]
<PointData  Scalars=" mean stress"> 
<DataArray  type="Float64"  Name=" mean stress"  format="ascii">1.2922057464096602e+07  1.2922057445826018e+07  1.2922057443720754e+07  1.2922057443508044e+07  1.2922057443537908e+07  1.2922057443532825e+07  1.2922057443537889e+07  1.2922057443508029e+07  1.2922057443720700e+07  1.2922057445825975e+07  1.2922057464096587e+07  1.2926261242976550e+07  1.2926261146989256e+07  1.2926261142321231e+07  1.2926261142470740e+07  1.2926261142447347e+07  1.2926261142451610e+07  1.2926261142447405e+07  1.2926261142470732e+07  1.2926261142321257e+07  1.2926261146989260e+07  1.2926261242976578e+07  1.2938846754539844e+07  1.2938846325720729e+07  1.2938846322035052e+07  1.2938846321991034e+07  1.2938846322002312e+07  1.2938846321999833e+07  1.2938846322002349e+07  1.2938846321991125e+07  1.2938846322035117e+07  1.2938846325720826e+07  1.2938846754539935e+07  1.2959736357238863e+07  1.2959735393929979e+07  1.2959735390361071e+07  1.2959735390374308e+07  1.2959735390370844e+07  1.2959735390371867e+07  1.2959735390370848e+07  1.2959735390374381e+07  1.2959735390361177e+07  1.2959735393930055e+07  1.2959736357238919e+07  1.2988801254486712e+07  1.2988799562705275e+07  1.2988799559517723e+07  1.2988799559518259e+07  1.2988799559519088e+07  1.2988799559518909e+07  1.2988799559519269e+07  1.2988799559518434e+07  1.2988799559517909e+07  1.2988799562705386e+07  1.2988801254486868e+07  1.3025862234199317e+07  1.3025859641937261e+07  1.3025859639183184e+07  1.3025859639185723e+07  1.3025859639185581e+07  1.3025859639185725e+07  1.3025859639185645e+07  1.3025859639185788e+07  1.3025859639183313e+07  1.3025859641937414e+07  1.3025862234199502e+07  1.3070690783651905e+07  1.3070687143916249e+07  1.3070687141667511e+07  1.3070687141669104e+07  1.3070687141669204e+07  1.3070687141669108e+07  1.3070687141669126e+07  1.3070687141669134e+07  1.3070687141667606e+07  1.3070687143916406e+07  1.3070690783652065e+07  1.3123010497195762e+07  1.3123005692216165e+07  1.3123005690522613e+07  1.3123005690523615e+07  1.3123005690523667e+07  1.3123005690523608e+07  1.3123005690523703e+07  1.3123005690523684e+07  1.3123005690522656e+07  1.3123005692216489e+07  1.3123010497196047e+07  1.3182498781456614e+07  1.3182492725616917e+07  1.3182492724511605e+07  1.3182492724512037e+07  1.3182492724512160e+07  1.3182492724512218e+07  1.3182492724512232e+07  1.3182492724512298e+07  1.3182492724511633e+07  1.3182492725617038e+07  1.3182498781456809e+07  1.3248788844958486e+07  1.3248781486804148e+07  1.3248781486302415e+07  1.3248781486302432e+07  1.3248781486302549e+07  1.3248781486302612e+07  1.3248781486302650e+07  1.3248781486302640e+07  1.3248781486302791e+07  1.3248781486804228e+07  1.3248788844958693e+07  1.3321471960339122e+07  1.3321463283549016e+07  1.3321463283648800e+07  1.3321463283648090e+07  1.3321463283648103e+07  1.3321463283648260e+07  1.3321463283648293e+07  1.3321463283648130e+07  1.3321463283648940e+07  1.3321463283549186e+07  1.3321471960339114e+07  1.3400099985094052e+07  1.3400090008430377e+07  1.3400090009111669e+07  1.3400090009110510e+07  1.3400090009110533e+07  1.3400090009110559e+07  1.3400090009110555e+07  1.3400090009110594e+07  1.3400090009111626e+07  1.3400090008430401e+07  1.3400099985094134e+07  1.3484188125298027e+07  1.3484176901564360e+07  1.3484176902791420e+07  1.3484176902789764e+07  1.3484176902789885e+07  1.3484176902789803e+07  1.3484176902789839e+07  1.3484176902790105e+07  1.3484176902791612e+07  1.3484176901564540e+07  1.3484188125298349e+07  1.3573217925232025e+07  1.3573205539309982e+07  1.3573205541032830e+07  1.3573205541031159e+07  1.3573205541031029e+07  1.3573205541030914e+07  1.3573205541030938e+07  1.3573205541031089e+07  1.3573205541032922e+07  1.3573205539310006e+07  1.3573217925231902e+07  1.3666640464467321e+07  1.3666627030521845e+07  1.3666627032678984e+07  1.3666627032676628e+07  1.3666627032676566e+07  1.3666627032676769e+07  1.3666627032676723e+07  1.3666627032676652e+07  1.3666627032679018e+07  1.3666627030521791e+07  1.3666640464467360e+07  1.3763879742680142e+07  1.3763865400647998e+07  1.3763865403167171e+07  1.3763865403164787e+07  1.3763865403164731e+07  1.3763865403164688e+07  1.3763865403164811e+07  1.3763865403164681e+07  1.3763865403167151e+07  1.3763865400648048e+07  1.3763879742680032e+07  1.3864336231318522e+07  1.3864321142800504e+07  1.3864321145605875e+07  1.3864321145602029e+07  1.3864321145602301e+07  1.3864321145602087e+07  1.3864321145602241e+07  1.3864321145601781e+07  1.3864321145605940e+07  1.3864321142800409e+07  1.3864336231318669e+07  1.3967390570186649e+07  1.3967374913936233e+07  1.3967374916922506e+07  1.3967374916926535e+07  1.3967374916925125e+07  1.3967374916924896e+07  1.3967374916924737e+07  1.3967374916926423e+07  1.3967374916922282e+07  1.3967374913936554e+07  1.3967390570187004e+07  1.4072407386375390e+07  1.4072391353171382e+07  1.4072391356386418e+07  1.4072391356356343e+07  1.4072391356353879e+07  1.4072391356354801e+07  1.4072391356353542e+07  1.4072391356356239e+07  1.4072391356386174e+07  1.4072391353171438e+07  1.4072407386375578e+07  1.4178739210933972e+07  1.4178723000294672e+07  1.4178723002688069e+07  1.4178723002594050e+07  1.4178723002610173e+07  1.4178723002607098e+07  1.4178723002610536e+07  1.4178723002593992e+07  1.4178723002688190e+07  1.4178723000294648e+07  1.4178739210934078e+07  1.4259949456196146e+07  1.4259933233477619e+07  1.4259933232873306e+07  1.4259933233102972e+07  1.4259933233077584e+07  1.4259933233081892e+07  1.4259933233078860e+07  1.4259933233103912e+07  1.4259933232873574e+07  1.4259933233477639e+07  1.4259949456196468e+07  1.2922136522917198e+07  1.2922136533243047e+07  1.2922136534924805e+07  1.2922136534938937e+07  1.2922136534937538e+07  1.2922136534937533e+07  1.2922136534938946e+07  1.2922136534924800e+07  1.2922136533242997e+07  1.2922136522917150e+07  1.2930543397749361e+07  1.2930543443108607e+07  1.2930543445167156e+07  1.2930543445143778e+07  1.2930543445146393e+07  1.2930543445146367e+07  1.2930543445143815e+07  1.2930543445167195e+07  1.2930543443108611e+07  1.2930543397749359e+07  1.2947305315586977e+07  1.2947305432343818e+07  1.2947305434164969e+07  1.2947305434170743e+07  1.2947305434169196e+07  1.2947305434169242e+07  1.2947305434170853e+07  1.2947305434165101e+07  1.2947305432343949e+07  1.2947305315587016e+07  1.2972318935038907e+07  1.2972319157094482e+07  1.2972319158780044e+07  1.2972319158777256e+07  1.2972319158777837e+07  1.2972319158777904e+07  1.2972319158777425e+07  1.2972319158780189e+07  1.2972319157094495e+07  1.2972318935039017e+07  1.3005430041980369e+07  1.3005430399566667e+07  1.3005430401051391e+07  1.3005430401050506e+07  1.3005430401050400e+07  1.3005430401050393e+07  1.3005430401050474e+07  1.3005430401051428e+07  1.3005430399566879e+07  1.3005430041980494e+07  1.3046434498212378e+07  1.3046435017930929e+07  1.3046435019180592e+07  1.3046435019179719e+07  1.3046435019179793e+07  1.3046435019179720e+07  1.3046435019179806e+07  1.3046435019180767e+07  1.3046435017931053e+07  1.3046434498212416e+07  1.3095079501203036e+07  1.3095080205088541e+07  1.3095080206073577e+07  1.3095080206072781e+07  1.3095080206072783e+07  1.3095080206072766e+07  1.3095080206072804e+07  1.3095080206073511e+07  1.3095080205088537e+07  1.3095079501203272e+07  1.3151065142299529e+07  1.3151066047291446e+07  1.3151066047990922e+07  1.3151066047990581e+07  1.3151066047990596e+07  1.3151066047990747e+07  1.3151066047990808e+07  1.3151066047991063e+07  1.3151066047291761e+07  1.3151065142299768e+07  1.3214046255693659e+07  1.3214047373213200e+07  1.3214047373614611e+07  1.3214047373614721e+07  1.3214047373614794e+07  1.3214047373614572e+07  1.3214047373614592e+07  1.3214047373614574e+07  1.3214047373212891e+07  1.3214046255693611e+07  1.3283634546338782e+07  1.3283635882041829e+07  1.3283635882142328e+07  1.3283635882142514e+07  1.3283635882142639e+07  1.3283635882142853e+07  1.3283635882142954e+07  1.3283635882142914e+07  1.3283635882042354e+07  1.3283634546339132e+07  1.3359400983786397e+07  1.3359402537485849e+07  1.3359402537291158e+07  1.3359402537291566e+07  1.3359402537291493e+07  1.3359402537291752e+07  1.3359402537291644e+07  1.3359402537291091e+07  1.3359402537486071e+07  1.3359400983786469e+07  1.3440878447167218e+07  1.3440880212923225e+07  1.3440880212446524e+07  1.3440880212447328e+07  1.3440880212447323e+07  1.3440880212447036e+07  1.3440880212447200e+07  1.3440880212446820e+07  1.3440880212923432e+07  1.3440878447167527e+07  1.3527564605023505e+07  1.3527566571391897e+07  1.3527566570655063e+07  1.3527566570655845e+07  1.3527566570655936e+07  1.3527566570655916e+07  1.3527566570655888e+07  1.3527566570655061e+07  1.3527566571391925e+07  1.3527564605023677e+07  1.3618925012238642e+07  1.3618927162665907e+07  1.3618927161696732e+07  1.3618927161698017e+07  1.3618927161697924e+07  1.3618927161697859e+07  1.3618927161697945e+07  1.3618927161696967e+07  1.3618927162666082e+07  1.3618925012238415e+07  1.3714396404968351e+07  1.3714398718316510e+07  1.3714398717148393e+07  1.3714398717149252e+07  1.3714398717149066e+07  1.3714398717149008e+07  1.3714398717149211e+07  1.3714398717148302e+07  1.3714398718316473e+07  1.3714396404968513e+07  1.3813390173271531e+07  1.3813392624449799e+07  1.3813392623120109e+07  1.3813392623121584e+07  1.3813392623121664e+07  1.3813392623121968e+07  1.3813392623121887e+07  1.3813392623120043e+07  1.3813392624449825e+07  1.3813390173271423e+07  1.3915295990024006e+07  1.3915298550707946e+07  1.3915298549260076e+07  1.3915298549260171e+07  1.3915298549260078e+07  1.3915298549259709e+07  1.3915298549259562e+07  1.3915298549259990e+07  1.3915298550708015e+07  1.3915295990024066e+07  1.4019485573739063e+07  1.4019488213170361e+07  1.4019488211626362e+07  1.4019488211633438e+07  1.4019488211634304e+07  1.4019488211634288e+07  1.4019488211633632e+07  1.4019488211626317e+07  1.4019488213170368e+07  1.4019485573739480e+07  1.4125316561954832e+07  1.4125319247664582e+07  1.4125319246293586e+07  1.4125319246321568e+07  1.4125319246318007e+07  1.4125319246318463e+07  1.4125319246321952e+07  1.4125319246293586e+07  1.4125319247664308e+07  1.4125316561954651e+07  1.4245026989422169e+07  1.4245029696606321e+07  1.4245029696124459e+07  1.4245029696092755e+07  1.4245029696095273e+07  1.4245029696095180e+07  1.4245029696092665e+07  1.4245029696124503e+07  1.4245029696606351e+07  1.4245026989422163e+07  </DataArray> 
</PointData> 
</Piece>
</UnstructuredGrid>
</VTKFile>