<?xml version="1.0"?>
<VTKFile type="UnstructuredGrid"  version="0.1"  >
<UnstructuredGrid>
<Piece  NumberOfPoints="1091" NumberOfCells="2050">
<Points>
<DataArray  type="Float64"  NumberOfComponents="3"  format="ascii">-0.5 -1 0  -0.4 -1 0  -0.3 -1 0  -0.2 -1 0  -0.09999999999999998 -1 0  0 -1 0  0.09999999999999998 -1 0  0.2 -1 0  0.3 -1 0  0.4 -1 0  0.5 -1 0  -0.5 -0.98 0  -0.4 -0.98 0  -0.3 -0.98 0  -0.2 -0.98 0  -0.09999999999999998 -0.98 0  0 -0.98 0  0.09999999999999998 -0.98 0  0.2 -0.98 0  0.3 -0.98 0  0.4 -0.98 0  0.5 -0.98 0  -0.5 -0.96 0  -0.4 -0.96 0  -0.3 -0.96 0  -0.2 -0.96 0  -0.09999999999999998 -0.96 0  0 -0.96 0  0.09999999999999998 -0.96 0  0.2 -0.96 0  0.3 -0.96 0  0.4 -0.96 0  0.5 -0.96 0  -0.5 -0.9399999999999999 0  -0.4 -0.9399999999999999 0  -0.3 -0.9399999999999999 0  -0.2 -0.9399999999999999 0  -0.09999999999999998 -0.9399999999999999 0  0 -0.9399999999999999 0  0.09999999999999998 -0.9399999999999999 0  0.2 -0.9399999999999999 0  0.3 -0.9399999999999999 0  0.4 -0.9399999999999999 0  0.5 -0.9399999999999999 0  -0.5 -0.92 0  -0.4 -0.92 0  -0.3 -0.92 0  -0.2 -0.92 0  -0.09999999999999998 -0.92 0  0 -0.92 0  0.09999999999999998 -0.92 0  0.2 -0.92 0  0.3 -0.92 0  0.4 -0.92 0  0.5 -0.92 0  -0.5 -0.9 0  -0.4 -0.9 0  -0.3 -0.9 0  -0.2 -0.9 0  -0.09999999999999998 -0.9 0  0 -0.9 0  0.09999999999999998 -0.9 0  0.2 -0.9 0  0.3 -0.9 0  0.4 -0.9 0  0.5 -0.9 0  -0.5 -0.88 0  -0.4 -0.88 0  -0.3 -0.88 0  -0.2 -0.88 0  -0.09999999999999998 -0.88 0  0 -0.88 0  0.09999999999999998 -0.88 0  0.2 -0.88 0  0.3 -0.88 0  0.4 -0.88 0  0.5 -0.88 0  -0.5 -0.86 0  -0.4 -0.86 0  -0.3 -0.86 0  -0.2 -0.86 0  -0.09999999999999998 -0.86 0  0 -0.86 0  0.09999999999999998 -0.86 0  0.2 -0.86 0  0.3 -0.86 0  0.4 -0.86 0  0.5 -0.86 0  -0.5 -0.84 0  -0.4 -0.84 0  -0.3 -0.84 0  -0.2 -0.84 0  -0.09999999999999998 -0.84 0  0 -0.84 0  0.09999999999999998 -0.84 0  0.2 -0.84 0  0.3 -0.84 0  0.4 -0.84 0  0.5 -0.84 0  -0.5 -0.8200000000000001 0  -0.4 -0.8200000000000001 0  -0.3 -0.8200000000000001 0  -0.2 -0.8200000000000001 0  -0.09999999999999998 -0.8200000000000001 0  0 -0.8200000000000001 0  0.09999999999999998 -0.8200000000000001 0  0.2 -0.8200000000000001 0  0.3 -0.8200000000000001 0  0.4 -0.8200000000000001 0  0.5 -0.8200000000000001 0  -0.5 -0.8 0  -0.4 -0.8 0  -0.3 -0.8 0  -0.2 -0.8 0  -0.09999999999999998 -0.8 0  0 -0.8 0  0.09999999999999998 -0.8 0  0.2 -0.8 0  0.3 -0.8 0  0.4 -0.8 0  0.5 -0.8 0  -0.5 -0.78 0  -0.4 -0.78 0  -0.3 -0.78 0  -0.2 -0.78 0  -0.09999999999999998 -0.78 0  0 -0.78 0  0.09999999999999998 -0.78 0  0.2 -0.78 0  0.3 -0.78 0  0.4 -0.78 0  0.5 -0.78 0  -0.5 -0.76 0  -0.4 -0.76 0  -0.3 -0.76 0  -0.2 -0.76 0  -0.09999999999999998 -0.76 0  0 -0.76 0  0.09999999999999998 -0.76 0  0.2 -0.76 0  0.3 -0.76 0  0.4 -0.76 0  0.5 -0.76 0  -0.5 -0.74 0  -0.4 -0.74 0  -0.3 -0.74 0  -0.2 -0.74 0  -0.09999999999999998 -0.74 0  0 -0.74 0  0.09999999999999998 -0.74 0  0.2 -0.74 0  0.3 -0.74 0  0.4 -0.74 0  0.5 -0.74 0  -0.5 -0.72 0  -0.4 -0.72 0  -0.3 -0.72 0  -0.2 -0.72 0  -0.09999999999999998 -0.72 0  0 -0.72 0  0.09999999999999998 -0.72 0  0.2 -0.72 0  0.3 -0.72 0  0.4 -0.72 0  0.5 -0.72 0  -0.5 -0.7 0  -0.4 -0.7 0  -0.3 -0.7 0  -0.2 -0.7 0  -0.09999999999999998 -0.7 0  0 -0.7 0  0.09999999999999998 -0.7 0  0.2 -0.7 0  0.3 -0.7 0  0.4 -0.7 0  0.5 -0.7 0  -0.5 -0.6799999999999999 0  -0.4 -0.6799999999999999 0  -0.3 -0.6799999999999999 0  -0.2 -0.6799999999999999 0  -0.09999999999999998 -0.6799999999999999 0  0 -0.6799999999999999 0  0.09999999999999998 -0.6799999999999999 0  0.2 -0.6799999999999999 0  0.3 -0.6799999999999999 0  0.4 -0.6799999999999999 0  0.5 -0.6799999999999999 0  -0.5 -0.6599999999999999 0  -0.4 -0.6599999999999999 0  -0.3 -0.6599999999999999 0  -0.2 -0.6599999999999999 0  -0.09999999999999998 -0.6599999999999999 0  0 -0.6599999999999999 0  0.09999999999999998 -0.6599999999999999 0  0.2 -0.6599999999999999 0  0.3 -0.6599999999999999 0  0.4 -0.6599999999999999 0  0.5 -0.6599999999999999 0  -0.5 -0.64 0  -0.4 -0.64 0  -0.3 -0.64 0  -0.2 -0.64 0  -0.09999999999999998 -0.64 0  0 -0.64 0  0.09999999999999998 -0.64 0  0.2 -0.64 0  0.3 -0.64 0  0.4 -0.64 0  0.5 -0.64 0  -0.5 -0.62 0  -0.4 -0.62 0  -0.3 -0.62 0  -0.2 -0.62 0  -0.09999999999999998 -0.62 0  0 -0.62 0  0.09999999999999998 -0.62 0  0.2 -0.62 0  0.3 -0.62 0  0.4 -0.62 0  0.5 -0.62 0  -0.5 -0.6 0  -0.4 -0.6 0  -0.3 -0.6 0  -0.2 -0.6 0  -0.09999999999999998 -0.6 0  0 -0.6 0  0.09999999999999998 -0.6 0  0.2 -0.6 0  0.3 -0.6 0  0.4 -0.6 0  0.5 -0.6 0  -0.5 -0.5800000000000001 0  -0.4 -0.5800000000000001 0  -0.3 -0.5800000000000001 0  -0.2 -0.5800000000000001 0  -0.09999999999999998 -0.5800000000000001 0  0 -0.5800000000000001 0  0.09999999999999998 -0.5800000000000001 0  0.2 -0.5800000000000001 0  0.3 -0.5800000000000001 0  0.4 -0.5800000000000001 0  0.5 -0.5800000000000001 0  -0.5 -0.5600000000000001 0  -0.4 -0.5600000000000001 0  -0.3 -0.5600000000000001 0  -0.2 -0.5600000000000001 0  -0.09999999999999998 -0.5600000000000001 0  0 -0.5600000000000001 0  0.09999999999999998 -0.5600000000000001 0  0.2 -0.5600000000000001 0  0.3 -0.5600000000000001 0  0.4 -0.5600000000000001 0  0.5 -0.5600000000000001 0  -0.5 -0.54 0  -0.4 -0.54 0  -0.3 -0.54 0  -0.2 -0.54 0  -0.09999999999999998 -0.54 0  0 -0.54 0  0.09999999999999998 -0.54 0  0.2 -0.54 0  0.3 -0.54 0  0.4 -0.54 0  0.5 -0.54 0  -0.5 -0.52 0  -0.4 -0.52 0  -0.3 -0.52 0  -0.2 -0.52 0  -0.09999999999999998 -0.52 0  0 -0.52 0  0.09999999999999998 -0.52 0  0.2 -0.52 0  0.3 -0.52 0  0.4 -0.52 0  0.5 -0.52 0  -0.5 -0.5 0  -0.4 -0.5 0  -0.3 -0.5 0  -0.2 -0.5 0  -0.09999999999999998 -0.5 0  0 -0.5 0  0.09999999999999998 -0.5 0  0.2 -0.5 0  0.3 -0.5 0  0.4 -0.5 0  0.5 -0.5 0  -0.5 -0.48 0  -0.4 -0.48 0  -0.3 -0.48 0  -0.2 -0.48 0  -0.09999999999999998 -0.48 0  0 -0.48 0  0.09999999999999998 -0.48 0  0.2 -0.48 0  0.3 -0.48 0  0.4 -0.48 0  0.5 -0.48 0  -0.5 -0.46 0  -0.4 -0.46 0  -0.3 -0.46 0  -0.2 -0.46 0  -0.09999999999999998 -0.46 0  0 -0.46 0  0.09999999999999998 -0.46 0  0.2 -0.46 0  0.3 -0.46 0  0.4 -0.46 0  0.5 -0.46 0  -0.5 -0.4399999999999999 0  -0.4 -0.4399999999999999 0  -0.3 -0.4399999999999999 0  -0.2 -0.4399999999999999 0  -0.09999999999999998 -0.4399999999999999 0  0 -0.4399999999999999 0  0.09999999999999998 -0.4399999999999999 0  0.2 -0.4399999999999999 0  0.3 -0.4399999999999999 0  0.4 -0.4399999999999999 0  0.5 -0.4399999999999999 0  -0.5 -0.42 0  -0.4 -0.42 0  -0.3 -0.42 0  -0.2 -0.42 0  -0.09999999999999998 -0.42 0  0 -0.42 0  0.09999999999999998 -0.42 0  0.2 -0.42 0  0.3 -0.42 0  0.4 -0.42 0  0.5 -0.42 0  -0.5 -0.4 0  -0.4 -0.4 0  -0.3 -0.4 0  -0.2 -0.4 0  -0.09999999999999998 -0.4 0  0 -0.4 0  0.09999999999999998 -0.4 0  0.2 -0.4 0  0.3 -0.4 0  0.4 -0.4 0  0.5 -0.4 0  -0.5 -0.38 0  -0.4 -0.38 0  -0.3 -0.38 0  -0.2 -0.38 0  -0.09999999999999998 -0.38 0  0 -0.38 0  0.09999999999999998 -0.38 0  0.2 -0.38 0  0.3 -0.38 0  0.4 -0.38 0  0.5 -0.38 0  -0.5 -0.36 0  -0.4 -0.36 0  -0.3 -0.36 0  -0.2 -0.36 0  -0.09999999999999998 -0.36 0  0 -0.36 0  0.09999999999999998 -0.36 0  0.2 -0.36 0  0.3 -0.36 0  0.4 -0.36 0  0.5 -0.36 0  -0.5 -0.34 0  -0.4 -0.34 0  -0.3 -0.34 0  -0.2 -0.34 0  -0.09999999999999998 -0.34 0  0 -0.34 0  0.09999999999999998 -0.34 0  0.2 -0.34 0  0.3 -0.34 0  0.4 -0.34 0  0.5 -0.34 0  -0.5 -0.32 0  -0.4 -0.32 0  -0.3 -0.32 0  -0.2 -0.32 0  -0.09999999999999998 -0.32 0  0 -0.32 0  0.09999999999999998 -0.32 0  0.2 -0.32 0  0.3 -0.32 0  0.4 -0.32 0  0.5 -0.32 0  -0.5 -0.3 0  -0.4 -0.3 0  -0.3 -0.3 0  -0.2 -0.3 0  -0.09999999999999998 -0.3 0  0 -0.3 0  0.09999999999999998 -0.3 0  0.2 -0.3 0  0.3 -0.3 0  0.4 -0.3 0  0.5 -0.3 0  -0.5 -0.28 0  -0.4 -0.28 0  -0.3 -0.28 0  -0.2 -0.28 0  -0.09999999999999998 -0.28 0  0 -0.28 0  0.09999999999999998 -0.28 0  0.2 -0.28 0  0.3 -0.28 0  0.4 -0.28 0  0.5 -0.28 0  -0.5 -0.26 0  -0.4 -0.26 0  -0.3 -0.26 0  -0.2 -0.26 0  -0.09999999999999998 -0.26 0  0 -0.26 0  0.09999999999999998 -0.26 0  0.2 -0.26 0  0.3 -0.26 0  0.4 -0.26 0  0.5 -0.26 0  -0.5 -0.24 0  -0.4 -0.24 0  -0.3 -0.24 0  -0.2 -0.24 0  -0.09999999999999998 -0.24 0  0 -0.24 0  0.09999999999999998 -0.24 0  0.2 -0.24 0  0.3 -0.24 0  0.4 -0.24 0  0.5 -0.24 0  -0.5 -0.22 0  -0.4 -0.22 0  -0.3 -0.22 0  -0.2 -0.22 0  -0.09999999999999998 -0.22 0  0 -0.22 0  0.09999999999999998 -0.22 0  0.2 -0.22 0  0.3 -0.22 0  0.4 -0.22 0  0.5 -0.22 0  -0.5 -0.2 0  -0.4 -0.2 0  -0.3 -0.2 0  -0.2 -0.2 0  -0.09999999999999998 -0.2 0  0 -0.2 0  0.09999999999999998 -0.2 0  0.2 -0.2 0  0.3 -0.2 0  0.4 -0.2 0  0.5 -0.2 0  -0.5 -0.18 0  -0.4 -0.18 0  -0.3 -0.18 0  -0.2 -0.18 0  -0.09999999999999998 -0.18 0  0 -0.18 0  0.09999999999999998 -0.18 0  0.2 -0.18 0  0.3 -0.18 0  0.4 -0.18 0  0.5 -0.18 0  -0.5 -0.16 0  -0.4 -0.16 0  -0.3 -0.16 0  -0.2 -0.16 0  -0.09999999999999998 -0.16 0  0 -0.16 0  0.09999999999999998 -0.16 0  0.2 -0.16 0  0.3 -0.16 0  0.4 -0.16 0  0.5 -0.16 0  -0.5 -0.14 0  -0.4 -0.14 0  -0.3 -0.14 0  -0.2 -0.14 0  -0.09999999999999998 -0.14 0  0 -0.14 0  0.09999999999999998 -0.14 0  0.2 -0.14 0  0.3 -0.14 0  0.4 -0.14 0  0.5 -0.14 0  -0.5 -0.12 0  -0.4 -0.12 0  -0.3 -0.12 0  -0.2 -0.12 0  -0.09999999999999998 -0.12 0  0 -0.12 0  0.09999999999999998 -0.12 0  0.2 -0.12 0  0.3 -0.12 0  0.4 -0.12 0  0.5 -0.12 0  -0.5 -0.09999999999999998 0  -0.4 -0.09999999999999998 0  -0.3 -0.09999999999999998 0  -0.2 -0.09999999999999998 0  -0.09999999999999998 -0.09999999999999998 0  0 -0.09999999999999998 0  0.09999999999999998 -0.09999999999999998 0  0.2 -0.09999999999999998 0  0.3 -0.09999999999999998 0  0.4 -0.09999999999999998 0  0.5 -0.09999999999999998 0  -0.5 -0.07999999999999996 0  -0.4 -0.07999999999999996 0  -0.3 -0.07999999999999996 0  -0.2 -0.07999999999999996 0  -0.09999999999999998 -0.07999999999999996 0  0 -0.07999999999999996 0  0.09999999999999998 -0.07999999999999996 0  0.2 -0.07999999999999996 0  0.3 -0.07999999999999996 0  0.4 -0.07999999999999996 0  0.5 -0.07999999999999996 0  -0.5 -0.06000000000000005 0  -0.4 -0.06000000000000005 0  -0.3 -0.06000000000000005 0  -0.2 -0.06000000000000005 0  -0.09999999
[...]
<PointData  Scalars=" mean stress"> 
<DataArray  type="Float64"  Name=" mean stress"  format="ascii">2.6651216685978179e+06  2.6651216685978249e+06  2.6651216685978593e+06  2.6651216685978663e+06  2.6651216685978505e+06  2.6651216685978011e+06  2.6651216685978225e+06  2.6651216685977704e+06  2.6651216685977885e+06  2.6651216685977117e+06  2.6651216685977951e+06  2.6651216685978081e+06  2.6651216685978472e+06  2.6651216685979022e+06  2.6651216685979161e+06  2.6651216685978686e+06  2.6651216685978132e+06  2.6651216685978090e+06  2.6651216685977662e+06  2.6651216685977783e+06  2.6651216685976586e+06  2.6651216685977392e+06  2.6651216685977932e+06  2.6651216685978486e+06  2.6651216685979380e+06  2.6651216685979837e+06  2.6651216685979180e+06  2.6651216685978211e+06  2.6651216685978174e+06  2.6651216685977560e+06  2.6651216685977546e+06  2.6651216685976032e+06  2.6651216685976619e+06  2.6651216685977997e+06  2.6651216685978626e+06  2.6651216685979874e+06  2.6651216685980284e+06  2.6651216685979189e+06  2.6651216685978756e+06  2.6651216685978547e+06  2.6651216685977736e+06  2.6651216685977243e+06  2.6651216685975813e+06  2.6651216685976530e+06  2.6651216685978328e+06  2.6651216685978789e+06  2.6651216685980004e+06  2.6651216685980335e+06  2.6651216685979497e+06  2.6651216685979171e+06  2.6651216685978561e+06  2.6651216685977858e+06  2.6651216685976759e+06  2.6651216685975632e+06  2.6651216685976316e+06  2.6651216685978263e+06  2.6651216685979064e+06  2.6651216685980000e+06  2.6651216685980232e+06  2.6651216685980218e+06  2.6651216685979394e+06  2.6651216685978775e+06  2.6651216685978016e+06  2.6651216685976316e+06  2.6651216685975478e+06  2.6651216685975711e+06  2.6651216685978123e+06  2.6651216685978705e+06  2.6651216685979920e+06  2.6651216685980661e+06  2.6651216685979655e+06  2.6651216685978840e+06  2.6651216685978174e+06  2.6651216685977690e+06  2.6651216685976158e+06  2.6651216685974798e+06  2.6651216685975115e+06  2.6651216685977723e+06  2.6651216685978398e+06  2.6651216685980377e+06  2.6651216685981136e+06  2.6651216685979534e+06  2.6651216685979012e+06  2.6651216685977969e+06  2.6651216685977257e+06  2.6651216685975995e+06  2.6651216685974207e+06  2.6651216685974477e+06  2.6651216685977769e+06  2.6651216685978328e+06  2.6651216685980721e+06  2.6651216685981005e+06  2.6651216685980135e+06  2.6651216685979296e+06  2.6651216685979208e+06  2.6651216685977071e+06  2.6651216685975809e+06  2.6651216685974007e+06  2.6651216685974523e+06  2.6651216685978356e+06  2.6651216685979245e+06  2.6651216685980950e+06  2.6651216685981345e+06  2.6651216685980549e+06  2.6651216685979264e+06  2.6651216685980009e+06  2.6651216685977820e+06  2.6651216685975660e+06  2.6651216685974286e+06  2.6651216685974947e+06  2.6651216685978137e+06  2.6651216685979567e+06  2.6651216685981727e+06  2.6651216685981555e+06  2.6651216685980596e+06  2.6651216685978794e+06  2.6651216685979641e+06  2.6651216685977704e+06  2.6651216685975571e+06  2.6651216685974277e+06  2.6651216685974305e+06  2.6651216685978356e+06  2.6651216685979706e+06  2.6651216685982887e+06  2.6651216685982156e+06  2.6651216685980996e+06  2.6651216685979231e+06  2.6651216685979725e+06  2.6651216685977415e+06  2.6651216685976074e+06  2.6651216685973806e+06  2.6651216685974607e+06  2.6651216685978114e+06  2.6651216685980419e+06  2.6651216685982798e+06  2.6651216685981359e+06  2.6651216685980880e+06  2.6651216685979613e+06  2.6651216685979431e+06  2.6651216685977168e+06  2.6651216685975683e+06  2.6651216685973629e+06  2.6651216685974211e+06  2.6651216685977918e+06  2.6651216685979990e+06  2.6651216685982496e+06  2.6651216685980726e+06  2.6651216685980563e+06  2.6651216685980870e+06  2.6651216685978440e+06  2.6651216685976661e+06  2.6651216685974831e+06  2.6651216685973853e+06  2.6651216685973122e+06  2.6651216685977867e+06  2.6651216685979851e+06  2.6651216685982374e+06  2.6651216685981136e+06  2.6651216685980638e+06  2.6651216685980386e+06  2.6651216685977373e+06  2.6651216685978072e+06  2.6651216685975790e+06  2.6651216685973704e+06  2.6651216685974528e+06  2.6651216685978211e+06  2.6651216685980395e+06  2.6651216685981560e+06  2.6651216685981355e+06  2.6651216685981248e+06  2.6651216685980693e+06  2.6651216685977974e+06  2.6651216685977881e+06  2.6651216685975534e+06  2.6651216685974211e+06  2.6651216685974859e+06  2.6651216685977792e+06  2.6651216685981066e+06  2.6651216685982007e+06  2.6651216685981792e+06  2.6651216685981583e+06  2.6651216685980009e+06  2.6651216685976963e+06  2.6651216685976470e+06  2.6651216685975431e+06  2.6651216685973732e+06  2.6651216685974915e+06  2.6651216685978202e+06  2.6651216685981089e+06  2.6651216685983064e+06  2.6651216685981783e+06  2.6651216685981639e+06  2.6651216685980521e+06  2.6651216685975897e+06  2.6651216685974053e+06  2.6651216685974300e+06  2.6651216685973410e+06  2.6651216685976605e+06  2.6651216685978402e+06  2.6651216685980395e+06  2.6651216685984330e+06  2.6651216685981406e+06  2.6651216685982333e+06  2.6651216685979040e+06  2.6651216685975883e+06  2.6651216685973620e+06  2.6651216685973355e+06  2.6651216685974607e+06  2.6651216685975892e+06  2.6651216685978798e+06  2.6651216685979385e+06  2.6651216685983734e+06  2.6651216685982044e+06  2.6651216685981713e+06  2.6651216685978146e+06  2.6651216685977913e+06  2.6651216685974603e+06  2.6651216685972982e+06  2.6651216685973830e+06  2.6651216685976046e+06  2.6651216685978682e+06  2.6651216685979250e+06  2.6651216685982663e+06  2.6651216685983124e+06  2.6651216685980158e+06  2.6651216685978319e+06  2.6651216685977988e+06  2.6651216685974258e+06  2.6651216685973504e+06  2.6651216685974328e+06  2.6651216685974919e+06  2.6651216685978291e+06  2.6651216685979529e+06  2.6651216685983208e+06  2.6651216685982705e+06  2.6651216685979469e+06  2.6651216685978398e+06  2.6651216685978500e+06  2.6651216685978048e+06  2.6651216685974472e+06  2.6651216685973885e+06  2.6651216685977085e+06  2.6651216685980014e+06  2.6651216685980116e+06  2.6651216685982686e+06  2.6651216685982272e+06  2.6651216685979571e+06  2.6651216685978151e+06  2.6651216685976651e+06  2.6651216685979539e+06  2.6651216685976498e+06  2.6651216685973587e+06  2.6651216685977699e+06  2.6651216685979157e+06  2.6651216685979818e+06  2.6651216685984326e+06  2.6651216685984293e+06  2.6651216685978347e+06  2.6651216685980479e+06  2.6651216685977494e+06  2.6651216685979632e+06  2.6651216685975711e+06  2.6651216685974374e+06  2.6651216685976461e+06  2.6651216685979874e+06  2.6651216685980703e+06  2.6651216685983744e+06  2.6651216685982863e+06  2.6651216685978826e+06  2.6651216685980554e+06  2.6651216685980195e+06  2.6651216685980055e+06  2.6651216685975292e+06  2.6651216685974039e+06  2.6651216685976018e+06  2.6651216685978076e+06  2.6651216685979734e+06  2.6651216685983934e+06  2.6651216685982188e+06  2.6651216685981262e+06  2.6651216685980489e+06  2.6651216685982766e+06  2.6651216685978454e+06  2.6651216685975641e+06  2.6651216685972963e+06  2.6651216685978519e+06  2.6651216685976414e+06  2.6651216685978244e+06  2.6651216685984181e+06  2.6651216685981723e+06  2.6651216685982351e+06  2.6651216685981364e+06  2.6651216685982053e+06  2.6651216685977788e+06  2.6651216685977504e+06  2.6651216685974421e+06  2.6651216685977746e+06  2.6651216685976465e+06  2.6651216685978943e+06  2.6651216685986165e+06  2.6651216685984079e+06  2.6651216685983939e+06  2.6651216685981811e+06  2.6651216685979562e+06  2.6651216685976684e+06  2.6651216685977615e+06  2.6651216685976204e+06  2.6651216685977383e+06  2.6651216685976759e+06  2.6651216685980302e+06  2.6651216685988475e+06  2.6651216685984726e+06  2.6651216685986719e+06  2.6651216685982738e+06  2.6651216685978496e+06  2.6651216685977359e+06  2.6651216685978021e+06  2.6651216685978835e+06  2.6651216685976437e+06  2.6651216685978151e+06  2.6651216685979217e+06  2.6651216685985420e+06  2.6651216685981634e+06  2.6651216685982454e+06  2.6651216685980465e+06  2.6651216685979152e+06  2.6651216685979138e+06  2.6651216685978347e+06  2.6651216685978002e+06  2.6651216685976693e+06  2.6651216685978039e+06  2.6651216685978882e+06  2.6651216685981955e+06  2.6651216685981303e+06  2.6651216685983096e+06  2.6651216685979781e+06  2.6651216685979976e+06  2.6651216685980149e+06  2.6651216685976526e+06  2.6651216685976810e+06  2.6651216685978184e+06  2.6651216685976526e+06  2.6651216685980503e+06  2.6651216685979357e+06  2.6651216685982435e+06  2.6651216685982235e+06  2.6651216685981257e+06  2.6651216685979739e+06  2.6651216685980875e+06  2.6651216685975562e+06  2.6651216685976814e+06  2.6651216685978808e+06  2.6651216685970929e+06  2.6651216685977844e+06  2.6651216685973811e+06  2.6651216685978170e+06  2.6651216685978472e+06  2.6651216685976349e+06  2.6651216685973625e+06  2.6651216685973047e+06  2.6651216685971450e+06  2.6651216685970458e+06  2.6651216685973033e+06  2.6651216686007422e+06  2.6651216686013639e+06  2.6651216686013760e+06  2.6651216686016060e+06  2.6651216686014854e+06  2.6651216686014524e+06  2.6651216686010640e+06  2.6651216686005988e+06  2.6651216686012018e+06  2.6651216686007506e+06  2.6651216686009392e+06  2.6651216685894430e+06  2.6651216685897219e+06  2.6651216685899086e+06  2.6651216685902234e+06  2.6651216685894500e+06  2.6651216685898197e+06  2.6651216685891286e+06  2.6651216685889307e+06  2.6651216685896944e+06  2.6651216685891021e+06  2.6651216685893196e+06  2.6651216684919703e+06  2.6651216684921943e+06  2.6651216684923284e+06  2.6651216684923880e+06  2.6651216684918799e+06  2.6651216684921812e+06  2.6651216684920769e+06  2.6651216684916713e+06  2.6651216684919633e+06  2.6651216684916369e+06  2.6651216684921361e+06  2.6651216700270595e+06  2.6651216700272467e+06  2.6651216700273878e+06  2.6651216700272765e+06  2.6651216700271899e+06  2.6651216700267787e+06  2.6651216700274087e+06  2.6651216700269268e+06  2.6651216700269086e+06  2.6651216700266954e+06  2.6651216700272295e+06  2.6651216632826962e+06  2.6651216632830678e+06  2.6651216632834175e+06  2.6651216632832987e+06  2.6651216632833122e+06  2.6651216632828354e+06  2.6651216632830109e+06  2.6651216632831367e+06  2.6651216632828014e+06  2.6651216632825327e+06  2.6651216632830203e+06  2.6651216203128700e+06  2.6651216203134949e+06  2.6651216203136262e+06  2.6651216203138311e+06  2.6651216203134912e+06  2.6651216203133003e+06  2.6651216203126172e+06  2.6651216203135005e+06  2.6651216203132281e+06  2.6651216203131103e+06  2.6651216203132863e+06  2.6651222539978349e+06  2.6651222539959815e+06  2.6651222539980882e+06  2.6651222539969203e+06  2.6651222539975047e+06  2.6651222539970418e+06  2.6651222539966041e+06  2.6651222539965101e+06  2.6651222539975694e+06  2.6651222539961422e+06  2.6651222539980486e+06  2.6651225010318430e+06  2.6651225010429588e+06  2.6651225010346281e+06  2.6651225010405085e+06  2.6651225010368265e+06  2.6651225010389946e+06  2.6651225010364982e+06  2.6651225010401411e+06  2.6651225010337648e+06  2.6651225010430557e+06  2.6651225010320498e+06  2.6650818834299464e+06  2.6650818833560473e+06  2.6650818834096710e+06  2.6650818833769010e+06  2.6650818833942711e+06  2.6650818833868005e+06  2.6650818833942735e+06  2.6650818833771809e+06  2.6650818834086200e+06  2.6650818833562173e+06  2.6650818834303324e+06  2.6650336877279193e+06  2.6650336881322898e+06  2.6650336878075181e+06  2.6650336879683272e+06  2.6650336878612558e+06  2.6650336878758469e+06  2.6650336878614002e+06  2.6650336879684506e+06  2.6650336878069681e+06  2.6650336881323066e+06  2.6650336877282388e+06  2.6676956912695812e+06  2.6676956585947047e+06  2.6676956539821518e+06  2.6676956494961213e+06  2.6676956483227685e+06  2.6676956478912435e+06  2.6676956483232095e+06  2.6676956494962126e+06  2.6676956539823567e+06  2.6676956585947713e+06  2.6676956912696846e+06  2.6929523780679274e+06  2.6929509198566722e+06  2.6929506750418567e+06  2.6929506202183748e+06  2.6929506158508849e+06  2.6929506188692800e+06  2.6929506158512495e+06  2.6929506202185918e+06  2.6929506750421724e+06  2.6929509198570345e+06  2.6929523780678143e+06  2.8206884771574917e+06  2.8206621405517166e+06  2.8206597782651484e+06  2.8206596389096603e+06  2.8206596753654657e+06  2.8206596643118970e+06  2.8206596753654289e+06  2.8206596389093432e+06  2.8206597782653491e+06  2.8206621405522069e+06  2.8206884771579406e+06  3.2603612809403790e+06  3.2601527164416462e+06  3.2601454514096454e+06  3.2601459718768513e+06  3.2601458665576442e+06  3.2601458984724204e+06  3.2601458665578337e+06  3.2601459718768308e+06  3.2601454514095243e+06  3.2601527164418777e+06  3.2603612809407269e+06  4.3813751154538188e+06  4.3805865915826065e+06  4.3805863629728192e+06  4.3805854578864826e+06  4.3805857774372781e+06  4.3805857007833607e+06  4.3805857774379011e+06  4.3805854578867052e+06  4.3805863629722977e+06  4.3805865915830657e+06  4.3813751154541103e+06  6.5878026472295010e+06  6.5862298943852689e+06  6.5862230572457882e+06  6.5862276220814148e+06  6.5862268611397874e+06  6.5862269918006295e+06  6.5862268611400630e+06  6.5862276220813328e+06  6.5862230572451111e+06  6.5862298943862040e+06  6.5878026472292179e+06  1.0098504630085656e+07  1.0096741115925804e+07  1.0096831951082712e+07  1.0096823651343023e+07  1.0096824584092373e+07  1.0096824453004731e+07  1.0096824584092025e+07  1.0096823651343059e+07  1.0096831951083139e+07  1.0096741115927054e+07  1.0098504630085828e+07  1.3428004059475167e+07  1.3414576882185081e+07  1.3414552616964974e+07  1.3414549903110171e+07  1.3414550054635420e+07  1.3414550038753487e+07  1.3414550054634074e+07  1.3414549903110845e+07  1.3414552616966752e+07  1.3414576882184276e+07  1.3428004059475251e+07  2.6651216685978235e+06  2.6651216685978654e+06  2.6651216685978984e+06  2.6651216685978724e+06  2.6651216685978347e+06  2.6651216685978211e+06  2.6651216685977862e+06  2.6651216685977802e+06  2.6651216685977364e+06  2.6651216685977243e+06  2.6651216685978076e+06  2.6651216685978854e+06  2.6651216685979515e+06  2.6651216685979185e+06  2.6651216685978677e+06  2.6651216685978388e+06  2.6651216685977746e+06  2.6651216685977885e+06  2.6651216685976945e+06  2.6651216685976572e+06  2.6651216685977979e+06  2.6651216685979133e+06  2.6651216685980172e+06  2.6651216685979576e+06  2.6651216685978826e+06  2.6651216685978421e+06  2.6651216685977574e+06  2.6651216685977909e+06  2.6651216685976763e+06  2.6651216685976046e+06  2.6651216685978095e+06  2.6651216685979366e+06  2.6651216685980484e+06  2.6651216685979660e+06  2.6651216685978952e+06  2.6651216685978859e+06  2.6651216685977671e+06  2.6651216685977676e+06  2.6651216685976214e+06  2.6651216685975757e+06  2.6651216685978407e+06  2.6651216685979799e+06  2.6651216685980461e+06  2.6651216685980055e+06  2.6651216685979748e+06  2.6651216685979250e+06  2.6651216685977732e+06  2.6651216685977527e+06  2.6651216685975743e+06  2.6651216685975557e+06  2.6651216685978305e+06  2.6651216685979711e+06  2.6651216685980582e+06  2.6651216685980214e+06  2.6651216685979445e+06  2.6651216685979133e+06  2.6651216685977899e+06  2.6651216685977699e+06  2.6651216685976018e+06  2.6651216685975203e+06  2.6651216685978207e+06  2.6651216685979548e+06  2.6651216685980824e+06  2.6651216685980479e+06  2.6651216685979497e+06  2.6651216685978542e+06  2.6651216685977196e+06  2.6651216685977466e+06  2.6651216685975031e+06  2.6651216685974654e+06  2.6651216685977778e+06  2.6651216685980218e+06  2.6651216685981569e+06  2.6651216685980596e+06  2.6651216685979827e+06  2.6651216685979078e+06  2.6651216685977234e+06  2.6651216685976903e+06  2.6651216685974635e+06  2.6651216685974025e+06  2.6651216685977429e+06  2.6651216685979152e+06  2.6651216685980796e+06  2.6651216685980665e+06  2.6651216685979529e+06  2.6651216685979073e+06  2.6651216685978025e+06  2.6651216685977601e+06  2.6651216685974523e+06  2.6651216685974267e+06  2.6651216685978137e+06  2.6651216685980526e+06  2.6651216685981480e+06  2.6651216685981145e+06  2.6651216685980558e+06  2.6651216685979888e+06  2.6651216685978686e+06  2.6651216685977355e+06  2.6651216685974025e+06  2.6651216685974458e+06  2.6651216685978272e+06  2.6651216685981029e+06  2.6651216685982593e+06  2.6651216685981401e+06  2.6651216685979725e+06  2.6651216685978891e+06  2.6651216685977769e+06  2.6651216685977709e+06  2.6651216685974547e+06  2.6651216685974407e+06  2.6651216685978975e+06  2.6651216685982440e+06  2.6651216685983026e+06  2.6651216685981667e+06  2.6651216685980409e+06  2.6651216685979110e+06  2.6651216685977862e+06  2.6651216685977317e+06  2.6651216685973718e+06  2.6651216685974239e+06  2.6651216685978579e+06  2.6651216685982235e+06  2.6651216685982794e+06  2.6651216685981639e+06  2.6651216685981322e+06  2.6651216685980377e+06  2.6651216685977825e+06  2.6651216685976437e+06  2.6651216685973653e+06  2.6651216685974756e+06  2.6651216685977941e+06  2.6651216685981820e+06  2.6651216685982430e+06  2.6651216685980656e+06  2.6651216685980489e+06  2.6651216685979445e+06  2.6651216685978393e+06  2.6651216685977513e+06  2.6651216685973420e+06  2.6651216685973895e+06  2.6651216685977927e+06  2.6651216685981732e+06  2.6651216685982756e+06  2.6651216685980954e+06  2.6651216685980363e+06  2.6651216685979315e+06  2.6651216685978142e+06  2.6651216685978193e+06  2.6651216685973504e+06  2.6651216685973434e+06  2.6651216685977983e+06  2.6651216685981234e+06  2.6651216685982277e+06  2.6651216685981043e+06  2.6651216685980316e+06  2.6651216685978854e+06  2.6651216685977466e+06  2.6651216685976242e+06  2.6651216685973825e+06  2.6651216685975897e+06  2.6651216685978058e+06  2.6651216685982840e+06  2.6651216685983636e+06  2.6651216685981154e+06  2.6651216685981005e+06  2.6651216685978789e+06  2.6651216685975916e+06  2.6651216685976116e+06  2.6651216685972991e+06  2.6651216685975106e+06  2.6651216685978333e+06  2.6651216685982784e+06  2.6651216685983753e+06  2.6651216685980964e+06  2.6651216685980791e+06  2.6651216685977890e+06  2.6651216685974067e+06  2.6651216685974025e+06  2.6651216685972107e+06  2.6651216685975101e+06  2.6651216685977099e+06  2.6651216685983171e+06  2.6651216685983832e+06  2.6651216685980810e+06  2.6651216685980572e+06  2.6651216685977783e+06  2.6651216685975650e+06  2.6651216685974486e+06  2.6651216685971059e+06  2.6651216685975241e+06  2.6651216685977215e+06  2.6651216685983166e+06  2.6651216685984521e+06  2.6651216685980656e+06  2.6651216685980102e+06  2.6651216685977662e+06  2.6651216685975222e+06  2.6651216685975832e+06  2.6651216685972940e+06  2.6651216685975809e+06  2.6651216685977271e+06  2.6651216685982617e+06  2.6651216685984237e+06  2.6651216685981178e+06  2.6651216685980824e+06  2.6651216685978812e+06  2.6651216685976498e+06  2.6651216685976260e+06  2.6651216685973071e+06  2.6651216685976400e+06  2.6651216685977061e+06  2.6651216685983893e+06  2.6651216685983459e+06  2.6651216685978831e+06  2.6651216685979967e+06  2.6651216685976903e+06  2.6651216685976689e+06  2.6651216685977783e+06  2.6651216685970831e+06  2.6651216685975697e+06  2.6651216685977983e+06  2.6651216685984712e+06  2.6651216685985518e+06  2.6651216685980470e+06  2.6651216685981574e+06  2.6651216685978062e+06  2.6651216685976982e+06  2.6651216685979925e+06  2.6651216685972172e+06  2.6651216685974975e+06  2.6651216685977546e+06  2.6651216685984517e+06  2.6651216685985494e+06  2.6651216685978696e+06  2.6651216685981252e+06  2.6651216685979855e+06  2.6651216685978384e+06  2.6651216685979464e+06  2.6651216685973103e+06  2.6651216685977611e+06  2.6651216685977685e+06  2.6651216685982388e+06  2.6651216685982929e+06  2.6651216685979320e+06  2.6651216685982603e+06  2.6651216685980009e+06  2.6651216685978975e+06  2.6651216685979431e+06  2.6651216685971399e+06  2.6651216685977704e+06  2.6651216685975618e+06  2.6651216685983012e+06  2.6651216685983893e+06  2.6651216685979413e+06  2.6651216685984819e+06  2.6651216685982002e+06  2.6651216685980195e+06  2.6651216685980665e+06  2.6651216685971715e+06  2.6651216685977210e+06  2.6651216685975161e+06  2.6651216685984377e+06  2.6651216685987110e+06  2.6651216685981406e+06  2.6651216685984861e+06  2.6651216685979557e+06  2.6651216685977811e+06  2.6651216685980665e+06  2.6