<?xml version="1.0"?>
<VTKFile type="UnstructuredGrid"  version="0.1"  >
<UnstructuredGrid>
<Piece  NumberOfPoints="431" NumberOfCells="800">
<Points>
<DataArray  type="Float64"  NumberOfComponents="3"  format="ascii">-0.25 -1 0  -0.2 -1 0  -0.15 -1 0  -0.1 -1 0  -0.04999999999999999 -1 0  0 -1 0  0.04999999999999999 -1 0  0.09999999999999998 -1 0  0.15 -1 0  0.2 -1 0  0.25 -1 0  -0.25 -0.95 0  -0.2 -0.95 0  -0.15 -0.95 0  -0.1 -0.95 0  -0.04999999999999999 -0.95 0  0 -0.95 0  0.04999999999999999 -0.95 0  0.09999999999999998 -0.95 0  0.15 -0.95 0  0.2 -0.95 0  0.25 -0.95 0  -0.25 -0.9 0  -0.2 -0.9 0  -0.15 -0.9 0  -0.1 -0.9 0  -0.04999999999999999 -0.9 0  0 -0.9 0  0.04999999999999999 -0.9 0  0.09999999999999998 -0.9 0  0.15 -0.9 0  0.2 -0.9 0  0.25 -0.9 0  -0.25 -0.85 0  -0.2 -0.85 0  -0.15 -0.85 0  -0.1 -0.85 0  -0.04999999999999999 -0.85 0  0 -0.85 0  0.04999999999999999 -0.85 0  0.09999999999999998 -0.85 0  0.15 -0.85 0  0.2 -0.85 0  0.25 -0.85 0  -0.25 -0.8 0  -0.2 -0.8 0  -0.15 -0.8 0  -0.1 -0.8 0  -0.04999999999999999 -0.8 0  0 -0.8 0  0.04999999999999999 -0.8 0  0.09999999999999998 -0.8 0  0.15 -0.8 0  0.2 -0.8 0  0.25 -0.8 0  -0.25 -0.75 0  -0.2 -0.75 0  -0.15 -0.75 0  -0.1 -0.75 0  -0.04999999999999999 -0.75 0  0 -0.75 0  0.04999999999999999 -0.75 0  0.09999999999999998 -0.75 0  0.15 -0.75 0  0.2 -0.75 0  0.25 -0.75 0  -0.25 -0.7 0  -0.2 -0.7 0  -0.15 -0.7 0  -0.1 -0.7 0  -0.04999999999999999 -0.7 0  0 -0.7 0  0.04999999999999999 -0.7 0  0.09999999999999998 -0.7 0  0.15 -0.7 0  0.2 -0.7 0  0.25 -0.7 0  -0.25 -0.65 0  -0.2 -0.65 0  -0.15 -0.65 0  -0.1 -0.65 0  -0.04999999999999999 -0.65 0  0 -0.65 0  0.04999999999999999 -0.65 0  0.09999999999999998 -0.65 0  0.15 -0.65 0  0.2 -0.65 0  0.25 -0.65 0  -0.25 -0.6 0  -0.2 -0.6 0  -0.15 -0.6 0  -0.1 -0.6 0  -0.04999999999999999 -0.6 0  0 -0.6 0  0.04999999999999999 -0.6 0  0.09999999999999998 -0.6 0  0.15 -0.6 0  0.2 -0.6 0  0.25 -0.6 0  -0.25 -0.55 0  -0.2 -0.55 0  -0.15 -0.55 0  -0.1 -0.55 0  -0.04999999999999999 -0.55 0  0 -0.55 0  0.04999999999999999 -0.55 0  0.09999999999999998 -0.55 0  0.15 -0.55 0  0.2 -0.55 0  0.25 -0.55 0  -0.25 -0.5 0  -0.2 -0.5 0  -0.15 -0.5 0  -0.1 -0.5 0  -0.04999999999999999 -0.5 0  0 -0.5 0  0.04999999999999999 -0.5 0  0.09999999999999998 -0.5 0  0.15 -0.5 0  0.2 -0.5 0  0.25 -0.5 0  -0.25 -0.45 0  -0.2 -0.45 0  -0.15 -0.45 0  -0.1 -0.45 0  -0.04999999999999999 -0.45 0  0 -0.45 0  0.04999999999999999 -0.45 0  0.09999999999999998 -0.45 0  0.15 -0.45 0  0.2 -0.45 0  0.25 -0.45 0  -0.25 -0.4 0  -0.2 -0.4 0  -0.15 -0.4 0  -0.1 -0.4 0  -0.04999999999999999 -0.4 0  0 -0.4 0  0.04999999999999999 -0.4 0  0.09999999999999998 -0.4 0  0.15 -0.4 0  0.2 -0.4 0  0.25 -0.4 0  -0.25 -0.35 0  -0.2 -0.35 0  -0.15 -0.35 0  -0.1 -0.35 0  -0.04999999999999999 -0.35 0  0 -0.35 0  0.04999999999999999 -0.35 0  0.09999999999999998 -0.35 0  0.15 -0.35 0  0.2 -0.35 0  0.25 -0.35 0  -0.25 -0.3 0  -0.2 -0.3 0  -0.15 -0.3 0  -0.1 -0.3 0  -0.04999999999999999 -0.3 0  0 -0.3 0  0.04999999999999999 -0.3 0  0.09999999999999998 -0.3 0  0.15 -0.3 0  0.2 -0.3 0  0.25 -0.3 0  -0.25 -0.25 0  -0.2 -0.25 0  -0.15 -0.25 0  -0.1 -0.25 0  -0.04999999999999999 -0.25 0  0 -0.25 0  0.04999999999999999 -0.25 0  0.09999999999999998 -0.25 0  0.15 -0.25 0  0.2 -0.25 0  0.25 -0.25 0  -0.25 -0.2 0  -0.2 -0.2 0  -0.15 -0.2 0  -0.1 -0.2 0  -0.04999999999999999 -0.2 0  0 -0.2 0  0.04999999999999999 -0.2 0  0.09999999999999998 -0.2 0  0.15 -0.2 0  0.2 -0.2 0  0.25 -0.2 0  -0.25 -0.15 0  -0.2 -0.15 0  -0.15 -0.15 0  -0.1 -0.15 0  -0.04999999999999999 -0.15 0  0 -0.15 0  0.04999999999999999 -0.15 0  0.09999999999999998 -0.15 0  0.15 -0.15 0  0.2 -0.15 0  0.25 -0.15 0  -0.25 -0.09999999999999998 0  -0.2 -0.09999999999999998 0  -0.15 -0.09999999999999998 0  -0.1 -0.09999999999999998 0  -0.04999999999999999 -0.09999999999999998 0  0 -0.09999999999999998 0  0.04999999999999999 -0.09999999999999998 0  0.09999999999999998 -0.09999999999999998 0  0.15 -0.09999999999999998 0  0.2 -0.09999999999999998 0  0.25 -0.09999999999999998 0  -0.25 -0.05000000000000004 0  -0.2 -0.05000000000000004 0  -0.15 -0.05000000000000004 0  -0.1 -0.05000000000000004 0  -0.04999999999999999 -0.05000000000000004 0  0 -0.05000000000000004 0  0.04999999999999999 -0.05000000000000004 0  0.09999999999999998 -0.05000000000000004 0  0.15 -0.05000000000000004 0  0.2 -0.05000000000000004 0  0.25 -0.05000000000000004 0  -0.25 0 0  -0.2 0 0  -0.15 0 0  -0.1 0 0  -0.04999999999999999 0 0  0 0 0  0.04999999999999999 0 0  0.09999999999999998 0 0  0.15 0 0  0.2 0 0  0.25 0 0  -0.225 -0.975 0  -0.175 -0.975 0  -0.125 -0.975 0  -0.07500000000000001 -0.975 0  -0.02499999999999999 -0.975 0  0.02500000000000002 -0.975 0  0.07500000000000001 -0.975 0  0.125 -0.975 0  0.175 -0.975 0  0.225 -0.975 0  -0.225 -0.925 0  -0.175 -0.925 0  -0.125 -0.925 0  -0.07500000000000001 -0.925 0  -0.02499999999999999 -0.925 0  0.02500000000000002 -0.925 0  0.07500000000000001 -0.925 0  0.125 -0.925 0  0.175 -0.925 0  0.225 -0.925 0  -0.225 -0.875 0  -0.175 -0.875 0  -0.125 -0.875 0  -0.07500000000000001 -0.875 0  -0.02499999999999999 -0.875 0  0.02500000000000002 -0.875 0  0.07500000000000001 -0.875 0  0.125 -0.875 0  0.175 -0.875 0  0.225 -0.875 0  -0.225 -0.825 0  -0.175 -0.825 0  -0.125 -0.825 0  -0.07500000000000001 -0.825 0  -0.02499999999999999 -0.825 0  0.02500000000000002 -0.825 0  0.07500000000000001 -0.825 0  0.125 -0.825 0  0.175 -0.825 0  0.225 -0.825 0  -0.225 -0.775 0  -0.175 -0.775 0  -0.125 -0.775 0  -0.07500000000000001 -0.775 0  -0.02499999999999999 -0.775 0  0.02500000000000002 -0.775 0  0.07500000000000001 -0.775 0  0.125 -0.775 0  0.175 -0.775 0  0.225 -0.775 0  -0.225 -0.725 0  -0.175 -0.725 0  -0.125 -0.725 0  -0.07500000000000001 -0.725 0  -0.02499999999999999 -0.725 0  0.02500000000000002 -0.725 0  0.07500000000000001 -0.725 0  0.125 -0.725 0  0.175 -0.725 0  0.225 -0.725 0  -0.225 -0.675 0  -0.175 -0.675 0  -0.125 -0.675 0  -0.07500000000000001 -0.675 0  -0.02499999999999999 -0.675 0  0.02500000000000002 -0.675 0  0.07500000000000001 -0.675 0  0.125 -0.675 0  0.175 -0.675 0  0.225 -0.675 0  -0.225 -0.625 0  -0.175 -0.625 0  -0.125 -0.625 0  -0.07500000000000001 -0.625 0  -0.02499999999999999 -0.625 0  0.02500000000000002 -0.625 0  0.07500000000000001 -0.625 0  0.125 -0.625 0  0.175 -0.625 0  0.225 -0.625 0  -0.225 -0.575 0  -0.175 -0.575 0  -0.125 -0.575 0  -0.07500000000000001 -0.575 0  -0.02499999999999999 -0.575 0  0.02500000000000002 -0.575 0  0.07500000000000001 -0.575 0  0.125 -0.575 0  0.175 -0.575 0  0.225 -0.575 0  -0.225 -0.525 0  -0.175 -0.525 0  -0.125 -0.525 0  -0.07500000000000001 -0.525 0  -0.02499999999999999 -0.525 0  0.02500000000000002 -0.525 0  0.07500000000000001 -0.525 0  0.125 -0.525 0  0.175 -0.525 0  0.225 -0.525 0  -0.225 -0.475 0  -0.175 -0.475 0  -0.125 -0.475 0  -0.07500000000000001 -0.475 0  -0.02499999999999999 -0.475 0  0.02500000000000002 -0.475 0  0.07500000000000001 -0.475 0  0.125 -0.475 0  0.175 -0.475 0  0.225 -0.475 0  -0.225 -0.425 0  -0.175 -0.425 0  -0.125 -0.425 0  -0.07500000000000001 -0.425 0  -0.02499999999999999 -0.425 0  0.02500000000000002 -0.425 0  0.07500000000000001 -0.425 0  0.125 -0.425 0  0.175 -0.425 0  0.225 -0.425 0  -0.225 -0.375 0  -0.175 -0.375 0  -0.125 -0.375 0  -0.07500000000000001 -0.375 0  -0.02499999999999999 -0.375 0  0.02500000000000002 -0.375 0  0.07500000000000001 -0.375 0  0.125 -0.375 0  0.175 -0.375 0  0.225 -0.375 0  -0.225 -0.325 0  -0.175 -0.325 0  -0.125 -0.325 0  -0.07500000000000001 -0.325 0  -0.02499999999999999 -0.325 0  0.02500000000000002 -0.325 0  0.07500000000000001 -0.325 0  0.125 -0.325 0  0.175 -0.325 0  0.225 -0.325 0  -0.225 -0.275 0  -0.175 -0.275 0  -0.125 -0.275 0  -0.07500000000000001 -0.275 0  -0.02499999999999999 -0.275 0  0.02500000000000002 -0.275 0  0.07500000000000001 -0.275 0  0.125 -0.275 0  0.175 -0.275 0  0.225 -0.275 0  -0.225 -0.225 0  -0.175 -0.225 0  -0.125 -0.225 0  -0.07500000000000001 -0.225 0  -0.02499999999999999 -0.225 0  0.02500000000000002 -0.225 0  0.07500000000000001 -0.225 0  0.125 -0.225 0  0.175 -0.225 0  0.225 -0.225 0  -0.225 -0.175 0  -0.175 -0.175 0  -0.125 -0.175 0  -0.07500000000000001 -0.175 0  -0.02499999999999999 -0.175 0  0.02500000000000002 -0.175 0  0.07500000000000001 -0.175 0  0.125 -0.175 0  0.175 -0.175 0  0.225 -0.175 0  -0.225 -0.125 0  -0.175 -0.125 0  -0.125 -0.125 0  -0.07500000000000001 -0.125 0  -0.02499999999999999 -0.125 0  0.02500000000000002 -0.125 0  0.07500000000000001 -0.125 0  0.125 -0.125 0  0.175 -0.125 0  0.225 -0.125 0  -0.225 -0.07499999999999996 0  -0.175 -0.07499999999999996 0  -0.125 -0.07499999999999996 0  -0.07500000000000001 -0.07499999999999996 0  -0.02499999999999999 -0.07499999999999996 0  0.02500000000000002 -0.07499999999999996 0  0.07500000000000001 -0.07499999999999996 0  0.125 -0.07499999999999996 0  0.175 -0.07499999999999996 0  0.225 -0.07499999999999996 0  -0.225 -0.02500000000000002 0  -0.175 -0.02500000000000002 0  -0.125 -0.02500000000000002 0  -0.07500000000000001 -0.02500000000000002 0  -0.02499999999999999 -0.02500000000000002 0  0.02500000000000002 -0.02500000000000002 0  0.07500000000000001 -0.02500000000000002 0  0.125 -0.02500000000000002 0  0.175 -0.02500000000000002 0  0.225 -0.02500000000000002 0  </DataArray>
</Points>
<Cells>
[...]
<PointData  Scalars="pressure"> 
<DataArray  type="Float64"  Name="pressure"  format="ascii">9.7782558594645001e+06  9.7782558594644982e+06  9.7782558594645001e+06  9.7782558594645076e+06  9.7782558594644982e+06  9.7782558594644833e+06  9.7782558594644759e+06  9.7782558594644666e+06  9.7782558594644647e+06  9.7782558594644554e+06  9.7782558594644573e+06  9.7481194468055759e+06  9.7481194468055759e+06  9.7481194468055852e+06  9.7481194468055833e+06  9.7481194468055852e+06  9.7481194468055703e+06  9.7481194468055516e+06  9.7481194468055423e+06  9.7481194468055405e+06  9.7481194468055386e+06  9.7481194468055293e+06  9.6578956403951943e+06  9.6578956403951850e+06  9.6578956403951906e+06  9.6578956403951887e+06  9.6578956403951850e+06  9.6578956403951738e+06  9.6578956403951608e+06  9.6578956403951552e+06  9.6578956403951477e+06  9.6578956403951459e+06  9.6578956403951477e+06  9.5081396120888405e+06  9.5081396120888405e+06  9.5081396120888423e+06  9.5081396120888460e+06  9.5081396120888293e+06  9.5081396120888274e+06  9.5081396120888218e+06  9.5081396120888051e+06  9.5081396120887976e+06  9.5081396120887939e+06  9.5081396120887958e+06  9.2997729112974051e+06  9.2997729112974163e+06  9.2997729112974014e+06  9.2997729112974033e+06  9.2997729112973958e+06  9.2997729112973884e+06  9.2997729112973884e+06  9.2997729112973809e+06  9.2997729112973697e+06  9.2997729112973697e+06  9.2997729112973735e+06  9.0340778797801435e+06  9.0340778797801360e+06  9.0340778797801416e+06  9.0340778797801435e+06  9.0340778797801305e+06  9.0340778797801323e+06  9.0340778797801193e+06  9.0340778797801286e+06  9.0340778797801267e+06  9.0340778797801156e+06  9.0340778797801193e+06  8.7126898730768114e+06  8.7126898730768114e+06  8.7126898730768077e+06  8.7126898730768114e+06  8.7126898730768133e+06  8.7126898730767984e+06  8.7126898730768021e+06  8.7126898730767835e+06  8.7126898730767835e+06  8.7126898730767891e+06  8.7126898730767816e+06  8.3375873294997355e+06  8.3375873294997290e+06  8.3375873294997402e+06  8.3375873294997355e+06  8.3375873294997262e+06  8.3375873294997206e+06  8.3375873294997066e+06  8.3375873294997131e+06  8.3375873294997038e+06  8.3375873294996964e+06  8.3375873294997085e+06  7.9110797395505561e+06  7.9110797395505626e+06  7.9110797395505626e+06  7.9110797395505598e+06  7.9110797395505626e+06  7.9110797395505570e+06  7.9110797395505514e+06  7.9110797395505542e+06  7.9110797395505477e+06  7.9110797395505384e+06  7.9110797395505402e+06  7.4357935807053214e+06  7.4357935807053205e+06  7.4357935807053186e+06  7.4357935807053298e+06  7.4357935807053195e+06  7.4357935807053158e+06  7.4357935807053186e+06  7.4357935807053186e+06  7.4357935807053084e+06  7.4357935807053074e+06  7.4357935807053074e+06  6.9146562946983185e+06  6.9146562946983231e+06  6.9146562946983278e+06  6.9146562946983296e+06  6.9146562946983268e+06  6.9146562946983259e+06  6.9146562946983241e+06  6.9146562946983278e+06  6.9146562946983129e+06  6.9146562946983147e+06  6.9146562946983138e+06  6.3508783966763970e+06  6.3508783966763988e+06  6.3508783966764044e+06  6.3508783966763997e+06  6.3508783966764081e+06  6.3508783966763979e+06  6.3508783966764100e+06  6.3508783966763951e+06  6.3508783966763942e+06  6.3508783966763942e+06  6.3508783966763895e+06  5.7479338178042769e+06  5.7479338178042704e+06  5.7479338178042853e+06  5.7479338178042769e+06  5.7479338178042807e+06  5.7479338178042816e+06  5.7479338178042807e+06  5.7479338178042825e+06  5.7479338178042723e+06  5.7479338178042695e+06  5.7479338178042732e+06  5.1095385949675357e+06  5.1095385949675385e+06  5.1095385949675376e+06  5.1095385949675431e+06  5.1095385949675404e+06  5.1095385949675385e+06  5.1095385949675385e+06  5.1095385949675357e+06  5.1095385949675310e+06  5.1095385949675292e+06  5.1095385949675282e+06  4.4396280330023095e+06  4.4396280330023114e+06  4.4396280330023123e+06  4.4396280330023114e+06  4.4396280330023123e+06  4.4396280330023095e+06  4.4396280330023048e+06  4.4396280330023067e+06  4.4396280330023011e+06  4.4396280330023030e+06  4.4396280330023002e+06  3.7423324762205021e+06  3.7423324762205007e+06  3.7423324762205044e+06  3.7423324762205039e+06  3.7423324762205007e+06  3.7423324762205025e+06  3.7423324762204983e+06  3.7423324762205053e+06  3.7423324762204988e+06  3.7423324762204927e+06  3.7423324762204937e+06  3.0219518367200894e+06  3.0219518367200899e+06  3.0219518367200899e+06  3.0219518367200866e+06  3.0219518367200885e+06  3.0219518367200871e+06  3.0219518367200862e+06  3.0219518367200866e+06  3.0219518367200927e+06  3.0219518367200866e+06  3.0219518367200890e+06  2.2829290368869738e+06  2.2829290368869747e+06  2.2829290368869766e+06  2.2829290368869794e+06  2.2829290368869766e+06  2.2829290368869761e+06  2.2829290368869738e+06  2.2829290368869752e+06  2.2829290368869738e+06  2.2829290368869742e+06  2.2829290368869742e+06  1.5298225324225042e+06  1.5298225324225016e+06  1.5298225324225016e+06  1.5298225324225046e+06  1.5298225324225044e+06  1.5298225324224993e+06  1.5298225324225007e+06  1.5298225324225025e+06  1.5298225324225037e+06  1.5298225324225028e+06  1.5298225324225044e+06  7.6727808998990373e+05  7.6727808998990373e+05  7.6727808998990385e+05  7.6727808998990152e+05  7.6727808998990024e+05  7.6727808998990059e+05  7.6727808998990047e+05  7.6727808998990222e+05  7.6727808998990164e+05  7.6727808998990327e+05  7.6727808998990536e+05  -3.4106051316484783e-11  -9.0269764197902000e-11  6.8878236447744673e-11  1.2789769243681797e-11  -5.9685589803848364e-11  3.8198016178674644e-11  1.8145485114473551e-10  1.2782156285798651e-10  1.0658141036401495e-12  -8.5408603266702010e-11  1.0231815394945435e-10  9.7682089003376924e+06  9.7682089003376979e+06  9.7682089003376979e+06  9.7682089003376942e+06  9.7682089003376849e+06  9.7682089003376737e+06  9.7682089003376607e+06  9.7682089003376476e+06  9.7682089003376476e+06  9.7682089003376476e+06  9.7079978945523072e+06  9.7079978945523091e+06  9.7079978945523109e+06  9.7079978945523016e+06  9.7079978945522904e+06  9.7079978945522830e+06  9.7079978945522718e+06  9.7079978945522625e+06  9.7079978945522588e+06  9.7079978945522550e+06  9.5879463717866205e+06  9.5879463717866261e+06  9.5879463717866261e+06  9.5879463717866223e+06  9.5879463717866093e+06  9.5879463717865981e+06  9.5879463717865869e+06  9.5879463717865758e+06  9.5879463717865758e+06  9.5879463717865702e+06  9.4087930658957828e+06  9.4087930658957902e+06  9.4087930658957884e+06  9.4087930658957828e+06  9.4087930658957772e+06  9.4087930658957679e+06  9.4087930658957604e+06  9.4087930658957530e+06  9.4087930658957493e+06  9.4087930658957474e+06  9.1716404798775017e+06  9.1716404798774980e+06  9.1716404798774980e+06  9.1716404798775017e+06  9.1716404798774961e+06  9.1716404798774887e+06  9.1716404798774812e+06  9.1716404798774756e+06  9.1716404798774719e+06  9.1716404798774701e+06  8.8779482010687441e+06  8.8779482010687366e+06  8.8779482010687422e+06  8.8779482010687385e+06  8.8779482010687348e+06  8.8779482010687273e+06  8.8779482010687198e+06  8.8779482010687161e+06  8.8779482010687124e+06  8.8779482010687031e+06  8.5295240424524304e+06  8.5295240424524304e+06  8.5295240424524304e+06  8.5295240424524248e+06  8.5295240424524210e+06  8.5295240424524155e+06  8.5295240424524080e+06  8.5295240424524061e+06  8.5295240424524006e+06  8.5295240424523968e+06  8.1285130569553412e+06  8.1285130569553450e+06  8.1285130569553506e+06  8.1285130569553534e+06  8.1285130569553394e+06  8.1285130569553338e+06  8.1285130569553310e+06  8.1285130569553208e+06  8.1285130569553226e+06  8.1285130569553189e+06  7.6773844836307345e+06  7.6773844836307401e+06  7.6773844836307419e+06  7.6773844836307447e+06  7.6773844836307419e+06  7.6773844836307308e+06  7.6773844836307280e+06  7.6773844836307270e+06  7.6773844836307243e+06  7.6773844836307177e+06  7.1789166967554810e+06  7.1789166967554884e+06  7.1789166967554856e+06  7.1789166967554931e+06  7.1789166967554940e+06  7.1789166967554884e+06  7.1789166967554810e+06  7.1789166967554819e+06  7.1789166967554754e+06  7.1789166967554698e+06  6.6361802410914684e+06  6.6361802410914740e+06  6.6361802410914777e+06  6.6361802410914805e+06  6.6361802410914805e+06  6.6361802410914749e+06  6.6361802410914721e+06  6.6361802410914740e+06  6.6361802410914712e+06  6.6361802410914721e+06  6.0525190487940731e+06  6.0525190487940777e+06  6.0525190487940814e+06  6.0525190487940777e+06  6.0525190487940786e+06  6.0525190487940749e+06  6.0525190487940758e+06  6.0525190487940768e+06  6.0525190487940703e+06  6.0525190487940665e+06  5.4315299455987951e+06  5.4315299455987941e+06  5.4315299455987951e+06  5.4315299455987960e+06  5.4315299455987941e+06  5.4315299455987895e+06  5.4315299455987914e+06  5.4315299455987839e+06  5.4315299455987811e+06  5.4315299455987839e+06  4.7770405658537988e+06  4.7770405658538006e+06  4.7770405658537978e+06  4.7770405658538006e+06  4.7770405658537969e+06  4.7770405658537932e+06  4.7770405658537922e+06  4.7770405658537922e+06  4.7770405658537885e+06  4.7770405658537894e+06  4.0930858075413252e+06  4.0930858075413238e+06  4.0930858075413266e+06  4.0930858075413299e+06  4.0930858075413257e+06  4.0930858075413248e+06  4.0930858075413248e+06  4.0930858075413206e+06  4.0930858075413192e+06  4.0930858075413164e+06  3.3838829694763524e+06  3.3838829694763487e+06  3.3838829694763510e+06  3.3838829694763520e+06  3.3838829694763524e+06  3.3838829694763469e+06  3.3838829694763483e+06  3.3838829694763492e+06  3.3838829694763464e+06  3.3838829694763450e+06  2.6538057232052791e+06  2.6538057232052768e+06  2.6538057232052791e+06  2.6538057232052786e+06  2.6538057232052791e+06  2.6538057232052758e+06  2.6538057232052744e+06  2.6538057232052763e+06  2.6538057232052772e+06  2.6538057232052758e+06  1.9073570815650418e+06  1.9073570815650413e+06  1.9073570815650434e+06  1.9073570815650427e+06  1.9073570815650411e+06  1.9073570815650392e+06  1.9073570815650378e+06  1.9073570815650402e+06  1.9073570815650411e+06  1.9073570815650413e+06  1.1491415342208478e+06  1.1491415342208485e+06  1.1491415342208492e+06  1.1491415342208461e+06  1.1491415342208447e+06  1.1491415342208440e+06  1.1491415342208450e+06  1.1491415342208471e+06  1.1491415342208464e+06  1.1491415342208485e+06  3.8383652760662290e+05  3.8383652760662331e+05  3.8383652760662342e+05  3.8383652760662255e+05  3.8383652760662168e+05  3.8383652760662208e+05  3.8383652760662202e+05  3.8383652760662267e+05  3.8383652760662313e+05  3.8383652760662365e+05  </DataArray> 
</PointData> 
</Piece>
</UnstructuredGrid>
</VTKFile>