<?xml version="1.0"?>
<VTKFile type="UnstructuredGrid"  version="0.1"  >
<UnstructuredGrid>
<Piece  NumberOfPoints="1661" NumberOfCells="3200">
<Points>
<DataArray  type="Float64"  NumberOfComponents="3"  format="ascii">-0.25 -1 0  -0.225 -1 0  -0.2 -1 0  -0.175 -1 0  -0.15 -1 0  -0.125 -1 0  -0.1 -1 0  -0.07500000000000001 -1 0  -0.04999999999999999 -1 0  -0.02499999999999999 -1 0  0 -1 0  0.02500000000000002 -1 0  0.04999999999999999 -1 0  0.07500000000000001 -1 0  0.09999999999999998 -1 0  0.125 -1 0  0.15 -1 0  0.175 -1 0  0.2 -1 0  0.225 -1 0  0.25 -1 0  -0.25 -0.975 0  -0.225 -0.975 0  -0.2 -0.975 0  -0.175 -0.975 0  -0.15 -0.975 0  -0.125 -0.975 0  -0.1 -0.975 0  -0.07500000000000001 -0.975 0  -0.04999999999999999 -0.975 0  -0.02499999999999999 -0.975 0  0 -0.975 0  0.02500000000000002 -0.975 0  0.04999999999999999 -0.975 0  0.07500000000000001 -0.975 0  0.09999999999999998 -0.975 0  0.125 -0.975 0  0.15 -0.975 0  0.175 -0.975 0  0.2 -0.975 0  0.225 -0.975 0  0.25 -0.975 0  -0.25 -0.95 0  -0.225 -0.95 0  -0.2 -0.95 0  -0.175 -0.95 0  -0.15 -0.95 0  -0.125 -0.95 0  -0.1 -0.95 0  -0.07500000000000001 -0.95 0  -0.04999999999999999 -0.95 0  -0.02499999999999999 -0.95 0  0 -0.95 0  0.02500000000000002 -0.95 0  0.04999999999999999 -0.95 0  0.07500000000000001 -0.95 0  0.09999999999999998 -0.95 0  0.125 -0.95 0  0.15 -0.95 0  0.175 -0.95 0  0.2 -0.95 0  0.225 -0.95 0  0.25 -0.95 0  -0.25 -0.925 0  -0.225 -0.925 0  -0.2 -0.925 0  -0.175 -0.925 0  -0.15 -0.925 0  -0.125 -0.925 0  -0.1 -0.925 0  -0.07500000000000001 -0.925 0  -0.04999999999999999 -0.925 0  -0.02499999999999999 -0.925 0  0 -0.925 0  0.02500000000000002 -0.925 0  0.04999999999999999 -0.925 0  0.07500000000000001 -0.925 0  0.09999999999999998 -0.925 0  0.125 -0.925 0  0.15 -0.925 0  0.175 -0.925 0  0.2 -0.925 0  0.225 -0.925 0  0.25 -0.925 0  -0.25 -0.9 0  -0.225 -0.9 0  -0.2 -0.9 0  -0.175 -0.9 0  -0.15 -0.9 0  -0.125 -0.9 0  -0.1 -0.9 0  -0.07500000000000001 -0.9 0  -0.04999999999999999 -0.9 0  -0.02499999999999999 -0.9 0  0 -0.9 0  0.02500000000000002 -0.9 0  0.04999999999999999 -0.9 0  0.07500000000000001 -0.9 0  0.09999999999999998 -0.9 0  0.125 -0.9 0  0.15 -0.9 0  0.175 -0.9 0  0.2 -0.9 0  0.225 -0.9 0  0.25 -0.9 0  -0.25 -0.875 0  -0.225 -0.875 0  -0.2 -0.875 0  -0.175 -0.875 0  -0.15 -0.875 0  -0.125 -0.875 0  -0.1 -0.875 0  -0.07500000000000001 -0.875 0  -0.04999999999999999 -0.875 0  -0.02499999999999999 -0.875 0  0 -0.875 0  0.02500000000000002 -0.875 0  0.04999999999999999 -0.875 0  0.07500000000000001 -0.875 0  0.09999999999999998 -0.875 0  0.125 -0.875 0  0.15 -0.875 0  0.175 -0.875 0  0.2 -0.875 0  0.225 -0.875 0  0.25 -0.875 0  -0.25 -0.85 0  -0.225 -0.85 0  -0.2 -0.85 0  -0.175 -0.85 0  -0.15 -0.85 0  -0.125 -0.85 0  -0.1 -0.85 0  -0.07500000000000001 -0.85 0  -0.04999999999999999 -0.85 0  -0.02499999999999999 -0.85 0  0 -0.85 0  0.02500000000000002 -0.85 0  0.04999999999999999 -0.85 0  0.07500000000000001 -0.85 0  0.09999999999999998 -0.85 0  0.125 -0.85 0  0.15 -0.85 0  0.175 -0.85 0  0.2 -0.85 0  0.225 -0.85 0  0.25 -0.85 0  -0.25 -0.825 0  -0.225 -0.825 0  -0.2 -0.825 0  -0.175 -0.825 0  -0.15 -0.825 0  -0.125 -0.825 0  -0.1 -0.825 0  -0.07500000000000001 -0.825 0  -0.04999999999999999 -0.825 0  -0.02499999999999999 -0.825 0  0 -0.825 0  0.02500000000000002 -0.825 0  0.04999999999999999 -0.825 0  0.07500000000000001 -0.825 0  0.09999999999999998 -0.825 0  0.125 -0.825 0  0.15 -0.825 0  0.175 -0.825 0  0.2 -0.825 0  0.225 -0.825 0  0.25 -0.825 0  -0.25 -0.8 0  -0.225 -0.8 0  -0.2 -0.8 0  -0.175 -0.8 0  -0.15 -0.8 0  -0.125 -0.8 0  -0.1 -0.8 0  -0.07500000000000001 -0.8 0  -0.04999999999999999 -0.8 0  -0.02499999999999999 -0.8 0  0 -0.8 0  0.02500000000000002 -0.8 0  0.04999999999999999 -0.8 0  0.07500000000000001 -0.8 0  0.09999999999999998 -0.8 0  0.125 -0.8 0  0.15 -0.8 0  0.175 -0.8 0  0.2 -0.8 0  0.225 -0.8 0  0.25 -0.8 0  -0.25 -0.775 0  -0.225 -0.775 0  -0.2 -0.775 0  -0.175 -0.775 0  -0.15 -0.775 0  -0.125 -0.775 0  -0.1 -0.775 0  -0.07500000000000001 -0.775 0  -0.04999999999999999 -0.775 0  -0.02499999999999999 -0.775 0  0 -0.775 0  0.02500000000000002 -0.775 0  0.04999999999999999 -0.775 0  0.07500000000000001 -0.775 0  0.09999999999999998 -0.775 0  0.125 -0.775 0  0.15 -0.775 0  0.175 -0.775 0  0.2 -0.775 0  0.225 -0.775 0  0.25 -0.775 0  -0.25 -0.75 0  -0.225 -0.75 0  -0.2 -0.75 0  -0.175 -0.75 0  -0.15 -0.75 0  -0.125 -0.75 0  -0.1 -0.75 0  -0.07500000000000001 -0.75 0  -0.04999999999999999 -0.75 0  -0.02499999999999999 -0.75 0  0 -0.75 0  0.02500000000000002 -0.75 0  0.04999999999999999 -0.75 0  0.07500000000000001 -0.75 0  0.09999999999999998 -0.75 0  0.125 -0.75 0  0.15 -0.75 0  0.175 -0.75 0  0.2 -0.75 0  0.225 -0.75 0  0.25 -0.75 0  -0.25 -0.725 0  -0.225 -0.725 0  -0.2 -0.725 0  -0.175 -0.725 0  -0.15 -0.725 0  -0.125 -0.725 0  -0.1 -0.725 0  -0.07500000000000001 -0.725 0  -0.04999999999999999 -0.725 0  -0.02499999999999999 -0.725 0  0 -0.725 0  0.02500000000000002 -0.725 0  0.04999999999999999 -0.725 0  0.07500000000000001 -0.725 0  0.09999999999999998 -0.725 0  0.125 -0.725 0  0.15 -0.725 0  0.175 -0.725 0  0.2 -0.725 0  0.225 -0.725 0  0.25 -0.725 0  -0.25 -0.7 0  -0.225 -0.7 0  -0.2 -0.7 0  -0.175 -0.7 0  -0.15 -0.7 0  -0.125 -0.7 0  -0.1 -0.7 0  -0.07500000000000001 -0.7 0  -0.04999999999999999 -0.7 0  -0.02499999999999999 -0.7 0  0 -0.7 0  0.02500000000000002 -0.7 0  0.04999999999999999 -0.7 0  0.07500000000000001 -0.7 0  0.09999999999999998 -0.7 0  0.125 -0.7 0  0.15 -0.7 0  0.175 -0.7 0  0.2 -0.7 0  0.225 -0.7 0  0.25 -0.7 0  -0.25 -0.675 0  -0.225 -0.675 0  -0.2 -0.675 0  -0.175 -0.675 0  -0.15 -0.675 0  -0.125 -0.675 0  -0.1 -0.675 0  -0.07500000000000001 -0.675 0  -0.04999999999999999 -0.675 0  -0.02499999999999999 -0.675 0  0 -0.675 0  0.02500000000000002 -0.675 0  0.04999999999999999 -0.675 0  0.07500000000000001 -0.675 0  0.09999999999999998 -0.675 0  0.125 -0.675 0  0.15 -0.675 0  0.175 -0.675 0  0.2 -0.675 0  0.225 -0.675 0  0.25 -0.675 0  -0.25 -0.65 0  -0.225 -0.65 0  -0.2 -0.65 0  -0.175 -0.65 0  -0.15 -0.65 0  -0.125 -0.65 0  -0.1 -0.65 0  -0.07500000000000001 -0.65 0  -0.04999999999999999 -0.65 0  -0.02499999999999999 -0.65 0  0 -0.65 0  0.02500000000000002 -0.65 0  0.04999999999999999 -0.65 0  0.07500000000000001 -0.65 0  0.09999999999999998 -0.65 0  0.125 -0.65 0  0.15 -0.65 0  0.175 -0.65 0  0.2 -0.65 0  0.225 -0.65 0  0.25 -0.65 0  -0.25 -0.625 0  -0.225 -0.625 0  -0.2 -0.625 0  -0.175 -0.625 0  -0.15 -0.625 0  -0.125 -0.625 0  -0.1 -0.625 0  -0.07500000000000001 -0.625 0  -0.04999999999999999 -0.625 0  -0.02499999999999999 -0.625 0  0 -0.625 0  0.02500000000000002 -0.625 0  0.04999999999999999 -0.625 0  0.07500000000000001 -0.625 0  0.09999999999999998 -0.625 0  0.125 -0.625 0  0.15 -0.625 0  0.175 -0.625 0  0.2 -0.625 0  0.225 -0.625 0  0.25 -0.625 0  -0.25 -0.6 0  -0.225 -0.6 0  -0.2 -0.6 0  -0.175 -0.6 0  -0.15 -0.6 0  -0.125 -0.6 0  -0.1 -0.6 0  -0.07500000000000001 -0.6 0  -0.04999999999999999 -0.6 0  -0.02499999999999999 -0.6 0  0 -0.6 0  0.02500000000000002 -0.6 0  0.04999999999999999 -0.6 0  0.07500000000000001 -0.6 0  0.09999999999999998 -0.6 0  0.125 -0.6 0  0.15 -0.6 0  0.175 -0.6 0  0.2 -0.6 0  0.225 -0.6 0  0.25 -0.6 0  -0.25 -0.575 0  -0.225 -0.575 0  -0.2 -0.575 0  -0.175 -0.575 0  -0.15 -0.575 0  -0.125 -0.575 0  -0.1 -0.575 0  -0.07500000000000001 -0.575 0  -0.04999999999999999 -0.575 0  -0.02499999999999999 -0.575 0  0 -0.575 0  0.02500000000000002 -0.575 0  0.04999999999999999 -0.575 0  0.07500000000000001 -0.575 0  0.09999999999999998 -0.575 0  0.125 -0.575 0  0.15 -0.575 0  0.175 -0.575 0  0.2 -0.575 0  0.225 -0.575 0  0.25 -0.575 0  -0.25 -0.55 0  -0.225 -0.55 0  -0.2 -0.55 0  -0.175 -0.55 0  -0.15 -0.55 0  -0.125 -0.55 0  -0.1 -0.55 0  -0.07500000000000001 -0.55 0  -0.04999999999999999 -0.55 0  -0.02499999999999999 -0.55 0  0 -0.55 0  0.02500000000000002 -0.55 0  0.04999999999999999 -0.55 0  0.07500000000000001 -0.55 0  0.09999999999999998 -0.55 0  0.125 -0.55 0  0.15 -0.55 0  0.175 -0.55 0  0.2 -0.55 0  0.225 -0.55 0  0.25 -0.55 0  -0.25 -0.525 0  -0.225 -0.525 0  -0.2 -0.525 0  -0.175 -0.525 0  -0.15 -0.525 0  -0.125 -0.525 0  -0.1 -0.525 0  -0.07500000000000001 -0.525 0  -0.04999999999999999 -0.525 0  -0.02499999999999999 -0.525 0  0 -0.525 0  0.02500000000000002 -0.525 0  0.04999999999999999 -0.525 0  0.07500000000000001 -0.525 0  0.09999999999999998 -0.525 0  0.125 -0.525 0  0.15 -0.525 0  0.175 -0.525 0  0.2 -0.525 0  0.225 -0.525 0  0.25 -0.525 0  -0.25 -0.5 0  -0.225 -0.5 0  -0.2 -0.5 0  -0.175 -0.5 0  -0.15 -0.5 0  -0.125 -0.5 0  -0.1 -0.5 0  -0.07500000000000001 -0.5 0  -0.04999999999999999 -0.5 0  -0.02499999999999999 -0.5 0  0 -0.5 0  0.02500000000000002 -0.5 0  0.04999999999999999 -0.5 0  0.07500000000000001 -0.5 0  0.09999999999999998 -0.5 0  0.125 -0.5 0  0.15 -0.5 0  0.175 -0.5 0  0.2 -0.5 0  0.225 -0.5 0  0.25 -0.5 0  -0.25 -0.475 0  -0.225 -0.475 0  -0.2 -0.475 0  -0.175 -0.475 0  -0.15 -0.475 0  -0.125 -0.475 0  -0.1 -0.475 0  -0.07500000000000001 -0.475 0  -0.04999999999999999 -0.475 0  -0.02499999999999999 -0.475 0  0 -0.475 0  0.02500000000000002 -0.475 0  0.04999999999999999 -0.475 0  0.07500000000000001 -0.475 0  0.09999999999999998 -0.475 0  0.125 -0.475 0  0.15 -0.475 0  0.175 -0.475 0  0.2 -0.475 0  0.225 -0.475 0  0.25 -0.475 0  -0.25 -0.45 0  -0.225 -0.45 0  -0.2 -0.45 0  -0.175 -0.45 0  -0.15 -0.45 0  -0.125 -0.45 0  -0.1 -0.45 0  -0.07500000000000001 -0.45 0  -0.04999999999999999 -0.45 0  -0.02499999999999999 -0.45 0  0 -0.45 0  0.02500000000000002 -0.45 0  0.04999999999999999 -0.45 0  0.07500000000000001 -0.45 0  0.09999999999999998 -0.45 0  0.125 -0.45 0  0.15 -0.45 0  0.175 -0.45 0  0.2 -0.45 0  0.225 -0.45 0  0.25 -0.45 0  -0.25 -0.425 0  -0.225 -0.425 0  -0.2 -0.425 0  -0.175 -0.425 0  -0.15 -0.425 0  -0.125 -0.425 0  -0.1 -0.425 0  -0.07500000000000001 -0.425 0  -0.04999999999999999 -0.425 0  -0.02499999999999999 -0.425 0  0 -0.425 0  0.02500000000000002 -0.425 0  0.04999999999999999 -0.425 0  0.07500000000000001 -0.425 0  0.
[...]
<PointData  Scalars="pressure"> 
<DataArray  type="Float64"  Name="pressure"  format="ascii">5.0400396287575975e+05  5.0400396287575900e+05  5.0400396287575812e+05  5.0400396287575556e+05  5.0400396287575149e+05  5.0400396287574532e+05  5.0400396287573758e+05  5.0400396287574596e+05  5.0400396287575364e+05  5.0400396287575841e+05  5.0400396287576261e+05  5.0400396287576447e+05  5.0400396287576720e+05  5.0400396287577157e+05  5.0400396287578763e+05  5.0400396287577902e+05  5.0400396287578158e+05  5.0400396287578490e+05  5.0400396287578822e+05  5.0400396287579060e+05  5.0400396287579165e+05  5.0361539408585022e+05  5.0361539408584993e+05  5.0361539408584876e+05  5.0361539408584597e+05  5.0361539408584265e+05  5.0361539408583730e+05  5.0361539408582816e+05  5.0361539408583782e+05  5.0361539408584416e+05  5.0361539408584888e+05  5.0361539408585260e+05  5.0361539408585522e+05  5.0361539408585615e+05  5.0361539408585889e+05  5.0361539408586273e+05  5.0361539408586698e+05  5.0361539408586913e+05  5.0361539408587344e+05  5.0361539408587775e+05  5.0361539408588153e+05  5.0361539408588049e+05  5.0245028686103359e+05  5.0245028686103265e+05  5.0245028686103330e+05  5.0245028686103097e+05  5.0245028686102614e+05  5.0245028686102189e+05  5.0245028686101391e+05  5.0245028686102189e+05  5.0245028686102887e+05  5.0245028686103312e+05  5.0245028686103382e+05  5.0245028686103784e+05  5.0245028686103749e+05  5.0245028686103423e+05  5.0245028686102823e+05  5.0245028686104243e+05  5.0245028686105012e+05  5.0245028686105454e+05  5.0245028686105931e+05  5.0245028686106013e+05  5.0245028686106123e+05  5.0051043771220103e+05  5.0051043771220080e+05  5.0051043771219859e+05  5.0051043771219667e+05  5.0051043771219539e+05  5.0051043771219131e+05  5.0051043771218584e+05  5.0051043771219259e+05  5.0051043771219760e+05  5.0051043771219940e+05  5.0051043771220406e+05  5.0051043771220383e+05  5.0051043771220342e+05  5.0051043771219999e+05  5.0051043771219056e+05  5.0051043771220505e+05  5.0051043771221157e+05  5.0051043771221797e+05  5.0051043771222321e+05  5.0051043771222391e+05  5.0051043771222455e+05  4.9779883774613601e+05  4.9779883774613967e+05  4.9779883774613106e+05  4.9779883774613141e+05  4.9779883774613793e+05  4.9779883774612920e+05  4.9779883774612600e+05  4.9779883774612914e+05  4.9779883774613304e+05  4.9779883774613554e+05  4.9779883774613851e+05  4.9779883774614084e+05  4.9779883774614049e+05  4.9779883774613863e+05  4.9779883774612827e+05  4.9779883774614322e+05  4.9779883774615236e+05  4.9779883774615353e+05  4.9779883774615533e+05  4.9779883774615679e+05  4.9779883774615795e+05  4.9431966805344640e+05  4.9431966805344599e+05  4.9431966805344634e+05  4.9431966805344250e+05  4.9431966805344104e+05  4.9431966805343615e+05  4.9431966805342818e+05  4.9431966805343906e+05  4.9431966805344459e+05  4.9431966805344692e+05  4.9431966805344942e+05  4.9431966805345117e+05  4.9431966805345286e+05  4.9431966805345385e+05  4.9431966805345420e+05  4.9431966805346287e+05  4.9431966805346520e+05  4.9431966805346159e+05  4.9431966805346170e+05  4.9431966805346397e+05  4.9431966805346298e+05  4.9007829326162284e+05  4.9007829326162243e+05  4.9007829326162551e+05  4.9007829326162220e+05  4.9007829326161818e+05  4.9007829326161719e+05  4.9007829326160165e+05  4.9007829326162400e+05  4.9007829326163878e+05  4.9007829326162662e+05  4.9007829326161667e+05  4.9007829326163605e+05  4.9007829326163809e+05  4.9007829326163401e+05  4.9007829326163675e+05  4.9007829326164146e+05  4.9007829326164484e+05  4.9007829326163884e+05  4.9007829326163646e+05  4.9007829326163937e+05  4.9007829326164065e+05  4.8508125326317252e+05  4.8508125326317357e+05  4.8508125326317467e+05  4.8508125326317415e+05  4.8508125326317240e+05  4.8508125326317159e+05  4.8508125326317264e+05  4.8508125326317502e+05  4.8508125326317776e+05  4.8508125326317718e+05  4.8508125326317741e+05  4.8508125326318352e+05  4.8508125326318352e+05  4.8508125326318707e+05  4.8508125326319394e+05  4.8508125326319307e+05  4.8508125326319190e+05  4.8508125326319039e+05  4.8508125326318899e+05  4.8508125326318818e+05  4.8508125326318678e+05  4.7933625313158816e+05  4.7933625313158042e+05  4.7933625313158828e+05  4.7933625313157827e+05  4.7933625313159107e+05  4.7933625313159020e+05  4.7933625313158979e+05  4.7933625313158473e+05  4.7933625313158066e+05  4.7933625313158263e+05  4.7933625313158333e+05  4.7933625313158659e+05  4.7933625313159375e+05  4.7933625313159608e+05  4.7933625313160062e+05  4.7933625313160417e+05  4.7933625313160120e+05  4.7933625313159608e+05  4.7933625313159649e+05  4.7933625313159364e+05  4.7933625313159468e+05  4.7285215124065289e+05  4.7285215124065179e+05  4.7285215124065237e+05  4.7285215124065138e+05  4.7285215124065091e+05  4.7285215124064882e+05  4.7285215124064655e+05  4.7285215124064696e+05  4.7285215124064480e+05  4.7285215124064172e+05  4.7285215124063735e+05  4.7285215124064701e+05  4.7285215124065307e+05  4.7285215124065982e+05  4.7285215124066093e+05  4.7285215124066873e+05  4.7285215124066977e+05  4.7285215124065045e+05  4.7285215124065737e+05  4.7285215124065382e+05  4.7285215124066034e+05  4.6563894560550980e+05  4.6563894560550852e+05  4.6563894560551137e+05  4.6563894560550782e+05  4.6563894560551073e+05  4.6563894560550601e+05  4.6563894560550305e+05  4.6563894560550118e+05  4.6563894560550159e+05  4.6563894560550211e+05  4.6563894560550404e+05  4.6563894560550351e+05  4.6563894560551079e+05  4.6563894560551498e+05  4.6563894560551899e+05  4.6563894560552435e+05  4.6563894560552487e+05  4.6563894560551795e+05  4.6563894560550840e+05  4.6563894560550700e+05  4.6563894560550858e+05  4.5770775846642343e+05  4.5770775846642279e+05  4.5770775846642017e+05  4.5770775846641668e+05  4.5770775846641598e+05  4.5770775846641755e+05  4.5770775846641185e+05  4.5770775846641313e+05  4.5770775846641348e+05  4.5770775846641365e+05  4.5770775846640998e+05  4.5770775846641621e+05  4.5770775846641744e+05  4.5770775846642884e+05  4.5770775846643525e+05  4.5770775846643955e+05  4.5770775846644188e+05  4.5770775846643461e+05  4.5770775846643432e+05  4.5770775846642762e+05  4.5770775846642943e+05  4.4907081913910131e+05  4.4907081913910003e+05  4.4907081913910375e+05  4.4907081913909892e+05  4.4907081913909211e+05  4.4907081913909485e+05  4.4907081913908775e+05  4.4907081913908827e+05  4.4907081913908891e+05  4.4907081913909392e+05  4.4907081913909374e+05  4.4907081913910049e+05  4.4907081913909968e+05  4.4907081913910428e+05  4.4907081913911487e+05  4.4907081913911650e+05  4.4907081913912488e+05  4.4907081913911668e+05  4.4907081913911330e+05  4.4907081913911097e+05  4.4907081913910928e+05  4.3974144515796256e+05  4.3974144515796367e+05  4.3974144515796687e+05  4.3974144515796279e+05  4.3974144515795732e+05  4.3974144515795395e+05  4.3974144515794679e+05  4.3974144515795429e+05  4.3974144515795505e+05  4.3974144515796169e+05  4.3974144515797053e+05  4.3974144515797199e+05  4.3974144515797542e+05  4.3974144515798066e+05  4.3974144515799399e+05  4.3974144515799510e+05  4.3974144515798846e+05  4.3974144515799067e+05  4.3974144515798846e+05  4.3974144515798008e+05  4.3974144515797810e+05  4.2973402174149355e+05  4.2973402174149483e+05  4.2973402174149099e+05  4.2973402174148592e+05  4.2973402174147492e+05  4.2973402174148010e+05  4.2973402174147224e+05  4.2973402174148464e+05  4.2973402174148714e+05  4.2973402174148930e+05  4.2973402174150106e+05  4.2973402174150979e+05  4.2973402174150507e+05  4.2973402174151799e+05  4.2973402174152585e+05  4.2973402174152742e+05  4.2973402174152510e+05  4.2973402174152102e+05  4.2973402174151415e+05  4.2973402174151439e+05  4.2973402174151526e+05  4.1906397961123666e+05  4.1906397961123561e+05  4.1906397961123491e+05  4.1906397961122403e+05  4.1906397961122025e+05  4.1906397961121734e+05  4.1906397961122246e+05  4.1906397961121914e+05  4.1906397961122042e+05  4.1906397961122298e+05  4.1906397961123614e+05  4.1906397961124295e+05  4.1906397961124987e+05  4.1906397961125738e+05  4.1906397961126850e+05  4.1906397961126984e+05  4.1906397961127001e+05  4.1906397961126367e+05  4.1906397961126687e+05  4.1906397961126739e+05  4.1906397961126937e+05  4.0774777119877690e+05  4.0774777119878330e+05  4.0774777119876945e+05  4.0774777119876229e+05  4.0774777119876060e+05  4.0774777119876188e+05  4.0774777119875426e+05  4.0774777119875798e+05  4.0774777119876049e+05  4.0774777119876922e+05  4.0774777119877003e+05  4.0774777119877987e+05  4.0774777119878342e+05  4.0774777119879419e+05  4.0774777119880170e+05  4.0774777119880693e+05  4.0774777119881101e+05  4.0774777119880746e+05  4.0774777119881881e+05  4.0774777119882422e+05  4.0774777119882271e+05  3.9580284527728072e+05  3.9580284527727979e+05  3.9580284527727461e+05  3.9580284527727554e+05  3.9580284527727490e+05  3.9580284527726896e+05  3.9580284527725418e+05  3.9580284527726244e+05  3.9580284527727176e+05  3.9580284527727810e+05  3.9580284527730296e+05  3.9580284527728008e+05  3.9580284527728497e+05  3.9580284527729795e+05  3.9580284527730528e+05  3.9580284527731035e+05  3.9580284527731867e+05  3.9580284527733125e+05  3.9580284527734009e+05  3.9580284527733497e+05  3.9580284527734679e+05  3.8324762005672214e+05  3.8324762005672738e+05  3.8324762005672383e+05  3.8324762005671940e+05  3.8324762005670863e+05  3.8324762005671335e+05  3.8324762005670497e+05  3.8324762005671638e+05  3.8324762005672103e+05  3.8324762005672511e+05  3.8324762005672115e+05  3.8324762005672918e+05  3.8324762005673978e+05  3.8324762005675427e+05  3.8324762005678040e+05  3.8324762005677313e+05  3.8324762005677738e+05  3.8324762005677784e+05  3.8324762005678075e+05  3.8324762005678396e+05  3.8324762005678698e+05  3.7010145478438173e+05  3.7010145478438179e+05  3.7010145478437952e+05  3.7010145478437777e+05  3.7010145478437294e+05  3.7010145478437428e+05  3.7010145478437433e+05  3.7010145478438423e+05  3.7010145478438429e+05  3.7010145478438277e+05  3.7010145478438737e+05  3.7010145478439337e+05  3.7010145478441234e+05  3.7010145478443085e+05  3.7010145478445909e+05  3.7010145478444814e+05  3.7010145478443394e+05  3.7010145478444186e+05  3.7010145478444849e+05  3.7010145478444523e+05  3.7010145478444954e+05  3.5638461989423726e+05  3.5638461989424349e+05  3.5638461989424971e+05  3.5638461989425146e+05  3.5638461989424465e+05  3.5638461989424867e+05  3.5638461989425728e+05  3.5638461989426636e+05  3.5638461989426432e+05  3.5638461989426817e+05  3.5638461989426735e+05  3.5638461989428109e+05  3.5638461989429547e+05  3.5638461989430588e+05  3.5638461989433318e+05  3.5638461989432911e+05  3.5638461989433994e+05  3.5638461989432643e+05  3.5638461989432090e+05  3.5638461989431875e+05  3.5638461989431846e+05  3.4211826575151528e+05  3.4211826575151988e+05  3.4211826575151546e+05  3.4211826575151552e+05  3.4211826575152238e+05  3.4211826575152529e+05  3.4211826575153338e+05  3.4211826575153973e+05  3.4211826575154206e+05  3.4211826575154800e+05  3.4211826575155795e+05  3.4211826575157442e+05  3.4211826575157972e+05  3.4211826575158857e+05  3.4211826575160737e+05  3.4211826575160149e+05  3.4211826575160783e+05  3.4211826575159770e+05  3.4211826575159025e+05  3.4211826575157873e+05  3.4211826575157314e+05  3.2732439004022960e+05  3.2732439004022372e+05  3.2732439004021446e+05  3.2732439004022471e+05  3.2732439004022162e+05  3.2732439004022494e+05  3.2732439004022954e+05  3.2732439004024176e+05  3.2732439004025573e+05  3.2732439004026371e+05  3.2732439004027768e+05  3.2732439004028653e+05  3.2732439004030224e+05  3.2732439004031930e+05  3.2732439004032267e+05  3.2732439004032756e+05  3.2732439004031301e+05  3.2732439004030812e+05  3.2732439004030498e+05  3.2732439004029456e+05  3.2732439004029473e+05  3.1202580384443718e+05  3.1202580384443380e+05  3.1202580384443537e+05  3.1202580384443613e+05  3.1202580384443380e+05  3.1202580384444044e+05  3.1202580384444690e+05  3.1202580384444841e+05  3.1202580384445156e+05  3.1202580384446547e+05  3.1202580384448194e+05  3.1202580384449335e+05  3.1202580384450709e+05  3.1202580384452897e+05  3.1202580384455877e+05  3.1202580384455452e+05  3.1202580384454451e+05  3.1202580384453112e+05  3.1202580384453107e+05  3.1202580384451913e+05  3.1202580384451797e+05  2.9624609647519485e+05  2.9624609647520422e+05  2.9624609647519822e+05  2.9624609647519246e+05  2.9624609647519112e+05  2.9624609647520678e+05  2.9624609647521947e+05  2.9624609647522419e+05  2.9624609647522419e+05  2.9624609647523245e+05  2.9624609647525224e+05  2.9624609647526516e+05  2.9624609647528810e+05  2.9624609647532384e+05  2.9624609647534142e+05  2.9624609647533909e+05  2.9624609647533239e+05  2.9624609647531784e+05  2.9624609647531033e+05  2.9624609647529718e+05  2.9624609647529095e+05  2.8000959909754928e+05  2.8000959909755219e+05  2.8000959909754846e+05  2.8000959909754153e+05  2.8000959909754153e+05  2.8000959909755131e+05  2.8000959909756272e+05  2.8000959909757401e+05  2.8000959909758641e+05  2.8000959909759159e+05  2.8000959909760946e+05  2.8000959909762267e+05  2.8000959909765358e+05  2.8000959909768263e+05  2.8000959909771086e+05  2.8000959909770300e+05  2.8000959909769823e+05  2.8000959909769299e+05  2.8000959909767826e+05  2.8000959909765352e+05  2.8000959909766348e+05  2.6334134721359186e+05  2.6334134721358970e+05  2.6334134721358988e+05  2.6334134721358452e+05  2.6334134721359477e+05  2.6334134721359925e+05  2.6334134721360827e+05  2.6334134721362911e+05  2.6334134721363400e+05  2.6334134721364279e+05  2.6334134721365408e+05  2.6334134721368243e+05  2.6334134721369931e+05  2.6334134721373301e+05  2.6334134721377667e+05  2.6334134721374913e+05  2.6334134721373190e+05  2.6334134721372841e+05  2.6334134721372457e+05  2.6334134721372050e+05  2.6334134721372800e+05  2.4626704205960032e+05  2.4626704205959680e+05  2.4626704205959450e+05  2.4626704205960294e+05  2.4626704205960702e+05  2.4626704205960489e+05  2.4626704205960667e+05  2.4626704205962943e+05  2.4626704205965073e+05  2.4626704205965795e+05  2.4626704205967620e+05  2.4626704205970324e+05  2.4626704205972789e+05  2.4626704205975871e+05  2.4626704205978269e+05  2.4626704205976243e+05  2.4626704205975414e+05  2.4626704205974733e+05  2.4626704205974421e+05  2.4626704205973528e+05  2.4626704205972957e+05  2.2881301097653576e+05  2.2881301097655069e+05  2.2881301097655189e+05  2.2881301097655258e+05  2.2881301097655125e+05  2.2881301097654711e+05  2.2881301097652776e+05  2.2881301097656577e+05  2.2881301097658731e+05  2.2881301097660465e+05  2.2881301097661938e+05  2.2881301097663509e+05  2.2881301097666603e+05  2.2881301097669842e+05  2.2881301097673990e+05  2.2881301097672104e+05  2.2881301097671510e+05  2.2881301097669516e+05  2.2881301097668553e+05  2.2881301097667828e+05  2.2881301097667517e+05  2.1100616681527699e+05  2.1100616681527725e+05  2.1100616681528155e+05  2.1100616681528211e+05  2.1100616681526101e+05  2.1100616681525941e+05  2.1100616681524142e+05  2.1100616681527763e+05  2.1100616681530373e+05  2.1100616681533327e+05  2.1100616681535420e+05  2.1100616681536488e+05  2.1100616681538461e+05  2.1100616681541732e+05  2.1100616681545458e+05  2.1100616681544750e+05  2.1100616681543691e+05  2.1100616681542687e+05  2.1100616681540292e+05  2.1100616681538863e+05  2.1100616681539224e+05  1.9287396643880196e+05  1.9287396643880685e+05  1.9287396643881401e+05  1.9287396643880554e+05  1.9287396643879192e+05  1.9287396643878816e+05  1.9287396643878080e+05  1.9287396643880859e+05  1.9287396643882597e+05  1.9287396643885790e+05  1.9287396643887597e+05  1.9287396643888444e+05  1.9287396643891689e+05  1.9287396643894337e+05  1.9287396643899006e+05  1.9287396643897874e+05  1.9287396643896413e+05  1.9287396643893365e+05  1.9287396643893787e+05  1.9287396643892000e+05  1.9287396643891998e+05  1.7444436838586448e+05  1.7444436838586925e+05  1.7444436838586564e+05  1.7444436838586300e+05  1.7444436838585522e+05  1.7444436838585662e+05  1.7444436838585383e+05  1.7444436838586238e+05  1.7444436838587129e+05  1.7444436838589079e+05  1.7444436838591998e+05  1.7444436838594786e+05  1.7444436838597577e+05  1.7444436838599885e+05  1.7444436838604149e+05  1.7444436838601751e+05  1.7444436838600031e+05  1.7444436838597932e+05  1.7444436838597228e+05  1.7444436838596180e+05  1.7444436838597310e+05  1.5574578976085823e+05  1.5574578976085296e+05  1.5574578976084618e+05  1.5574578976084079e+05  1.5574578976083649e+05  1.5574578976084388e+05  1.5574578976084598e+05  1.5574578976085183e+05  1.5574578976085960e+05  1.5574578976086603e+05  1.5574578976088297e+05  1.5574578976092496e+05  1.5574578976096050e+05  1.5574578976098174e+05  1.5574578976100404e+05  1.5574578976098241e+05  1.5574578976096484e+05  1.5574578976094621e+05  1.5574578976093460e+05  1.5574578976093404e+05  1.5574578976093713e+05  1.3680706241671572e+05  1.3680706241670536e+05  1.3680706241670463e+05  1.3680706241669104e+05  1.3680706241669756e+05  1.3680706241671051e+05  1.3680706241671118e+05  1.3680706241671951e+05  1.3680706241671540e+05  1.3680706241673644e+05  1.3680706241675367e+05  1.3680706241677978e+05  1.3680706241680266e+05  1.3680706241682748e+05  1.3680706241684049e+05  1.3680706241683403e+05  1.3680706241680161e+05  1.3680706241678071e+05  1.3680706241677716e+05  1.3680706241678126e+05  1.3680706241677847e+05  1.1765738849830003e+05  1.1765738849829999e+05  1.1765738849828330e+05  1.1765738849827703e+05  1.1765738849828477e+05  1.1765738849828469e+05  1.1765738849828942e+05  1.1765738849829721e+05  1.1765738849830077e+05  1.1765738849831370e+05  1.1765738849832675e+05  1.1765738849834594e+05  1.1765738849836064e+05  1.1765738849837545e+05  1.1765738849837810e+05  1.1765738849838240e+05  1.1765738849837030e+05  1.1765738849835334e+05  1.1765738849835246e+05  1.1765738849835185e+05  1.1765738849835008e+05  9.8326295414794862e+04  9.8326295414788023e+04  9.8326295414789740e+04  9.8326295414780019e+04  9.8326295414778739e+04  9.8326295414774300e+04  9.8326295414797263e+04  9.8326295414798180e+04  9.8326295414790904e+04  9.8326295414796245e+04  9.8326295414804976e+04  9.8326295414811786e+04  9.8326295414808046e+04  9.8326295414829132e+04  9.8326295414834851e+04  9.8326295414851105e+04  9.8326295414844761e+04  9.8326295414842723e+04  9.8326295414829059e+04  9.8326295414832479e+04  9.8326295414842753e+04  7.8843590310590022e+04  7.8843590310589032e+04  7.8843590310578540e+04  7.8843590310567277e+04  7.8843590310572021e+04  7.8843590310574757e+04  7.8843590310567422e+04  7.8843590310587781e+04  7.8843590310592379e+04  7.8843590310586485e+04  7.8843590310585350e+04  7.8843590310580723e+04  7.8843590310578045e+04  7.8843590310580679e+04  7.8843590310603206e+04  7.8843590310606523e+04  7.8843590310604690e+04  7.8843590310611704e+04  7.8843590310605869e+04  7.8843590310615255e+04  7.8843590310619489e+04  5.9239314104831254e+04  5.9239314104835525e+04  5.9239314104833247e+04  5.9239314104827426e+04  5.9239314104816403e+04  5.9239314104830592e+04  5.9239314104839767e+04  5.9239314104838348e+04  5.9239314104839810e+04  5.9239314104820296e+04  5.9239314104822915e+04  5.9239314104824145e+04  5.9239314104816527e+04  5.9239314104826713e+04  5.9239314104816389e+04  5.9239314104829289e+04  5.9239314104840181e+04  5.9239314104840254e+04  5.9239314104850659e+04  5.9239314104843586e+04  5.9239314104836201e+04  3.9543695170480598e+04  3.9543695170488914e+04  3.9543695170502579e+04  3.9543695170473278e+04  3.9543695170461157e+04  3.9543695170475759e+04  3.9543695170496154e+04  3.9543695170479878e+04  3.9543695170462808e+04  3.9543695170462473e+04  3.9543695170472914e+04  3.9543695170460684e+04  3.9543695170462226e+04  3.9543695170464482e+04  3.9543695170459781e+04  3.9543695170464489e+04  3.9543695170476800e+04  3.9543695170471612e+04  3.9543695170469924e+04  3.9543695170466730e+04  3.9543695170480016e+04  1.9787102724351349e+04  1.9787102724352702e+04  1.9787102724351262e+04  1.9787102724345521e+04  1.9787102724331762e+04  1.9787102724348257e+04  1.9787102724343120e+04  1.9787102724348118e+04  1.9787102724339045e+04  1.9787102724333105e+04  1.978710272