<?xml version="1.0"?>
<VTKFile type="UnstructuredGrid"  version="0.1"  >
<UnstructuredGrid>
<Piece  NumberOfPoints="431" NumberOfCells="800">
<Points>
<DataArray  type="Float64"  NumberOfComponents="3"  format="ascii">-0.25 -1 0  -0.2 -1 0  -0.15 -1 0  -0.1 -1 0  -0.04999999999999999 -1 0  0 -1 0  0.04999999999999999 -1 0  0.09999999999999998 -1 0  0.15 -1 0  0.2 -1 0  0.25 -1 0  -0.25 -0.95 0  -0.2 -0.95 0  -0.15 -0.95 0  -0.1 -0.95 0  -0.04999999999999999 -0.95 0  0 -0.95 0  0.04999999999999999 -0.95 0  0.09999999999999998 -0.95 0  0.15 -0.95 0  0.2 -0.95 0  0.25 -0.95 0  -0.25 -0.9 0  -0.2 -0.9 0  -0.15 -0.9 0  -0.1 -0.9 0  -0.04999999999999999 -0.9 0  0 -0.9 0  0.04999999999999999 -0.9 0  0.09999999999999998 -0.9 0  0.15 -0.9 0  0.2 -0.9 0  0.25 -0.9 0  -0.25 -0.85 0  -0.2 -0.85 0  -0.15 -0.85 0  -0.1 -0.85 0  -0.04999999999999999 -0.85 0  0 -0.85 0  0.04999999999999999 -0.85 0  0.09999999999999998 -0.85 0  0.15 -0.85 0  0.2 -0.85 0  0.25 -0.85 0  -0.25 -0.8 0  -0.2 -0.8 0  -0.15 -0.8 0  -0.1 -0.8 0  -0.04999999999999999 -0.8 0  0 -0.8 0  0.04999999999999999 -0.8 0  0.09999999999999998 -0.8 0  0.15 -0.8 0  0.2 -0.8 0  0.25 -0.8 0  -0.25 -0.75 0  -0.2 -0.75 0  -0.15 -0.75 0  -0.1 -0.75 0  -0.04999999999999999 -0.75 0  0 -0.75 0  0.04999999999999999 -0.75 0  0.09999999999999998 -0.75 0  0.15 -0.75 0  0.2 -0.75 0  0.25 -0.75 0  -0.25 -0.7 0  -0.2 -0.7 0  -0.15 -0.7 0  -0.1 -0.7 0  -0.04999999999999999 -0.7 0  0 -0.7 0  0.04999999999999999 -0.7 0  0.09999999999999998 -0.7 0  0.15 -0.7 0  0.2 -0.7 0  0.25 -0.7 0  -0.25 -0.65 0  -0.2 -0.65 0  -0.15 -0.65 0  -0.1 -0.65 0  -0.04999999999999999 -0.65 0  0 -0.65 0  0.04999999999999999 -0.65 0  0.09999999999999998 -0.65 0  0.15 -0.65 0  0.2 -0.65 0  0.25 -0.65 0  -0.25 -0.6 0  -0.2 -0.6 0  -0.15 -0.6 0  -0.1 -0.6 0  -0.04999999999999999 -0.6 0  0 -0.6 0  0.04999999999999999 -0.6 0  0.09999999999999998 -0.6 0  0.15 -0.6 0  0.2 -0.6 0  0.25 -0.6 0  -0.25 -0.55 0  -0.2 -0.55 0  -0.15 -0.55 0  -0.1 -0.55 0  -0.04999999999999999 -0.55 0  0 -0.55 0  0.04999999999999999 -0.55 0  0.09999999999999998 -0.55 0  0.15 -0.55 0  0.2 -0.55 0  0.25 -0.55 0  -0.25 -0.5 0  -0.2 -0.5 0  -0.15 -0.5 0  -0.1 -0.5 0  -0.04999999999999999 -0.5 0  0 -0.5 0  0.04999999999999999 -0.5 0  0.09999999999999998 -0.5 0  0.15 -0.5 0  0.2 -0.5 0  0.25 -0.5 0  -0.25 -0.45 0  -0.2 -0.45 0  -0.15 -0.45 0  -0.1 -0.45 0  -0.04999999999999999 -0.45 0  0 -0.45 0  0.04999999999999999 -0.45 0  0.09999999999999998 -0.45 0  0.15 -0.45 0  0.2 -0.45 0  0.25 -0.45 0  -0.25 -0.4 0  -0.2 -0.4 0  -0.15 -0.4 0  -0.1 -0.4 0  -0.04999999999999999 -0.4 0  0 -0.4 0  0.04999999999999999 -0.4 0  0.09999999999999998 -0.4 0  0.15 -0.4 0  0.2 -0.4 0  0.25 -0.4 0  -0.25 -0.35 0  -0.2 -0.35 0  -0.15 -0.35 0  -0.1 -0.35 0  -0.04999999999999999 -0.35 0  0 -0.35 0  0.04999999999999999 -0.35 0  0.09999999999999998 -0.35 0  0.15 -0.35 0  0.2 -0.35 0  0.25 -0.35 0  -0.25 -0.3 0  -0.2 -0.3 0  -0.15 -0.3 0  -0.1 -0.3 0  -0.04999999999999999 -0.3 0  0 -0.3 0  0.04999999999999999 -0.3 0  0.09999999999999998 -0.3 0  0.15 -0.3 0  0.2 -0.3 0  0.25 -0.3 0  -0.25 -0.25 0  -0.2 -0.25 0  -0.15 -0.25 0  -0.1 -0.25 0  -0.04999999999999999 -0.25 0  0 -0.25 0  0.04999999999999999 -0.25 0  0.09999999999999998 -0.25 0  0.15 -0.25 0  0.2 -0.25 0  0.25 -0.25 0  -0.25 -0.2 0  -0.2 -0.2 0  -0.15 -0.2 0  -0.1 -0.2 0  -0.04999999999999999 -0.2 0  0 -0.2 0  0.04999999999999999 -0.2 0  0.09999999999999998 -0.2 0  0.15 -0.2 0  0.2 -0.2 0  0.25 -0.2 0  -0.25 -0.15 0  -0.2 -0.15 0  -0.15 -0.15 0  -0.1 -0.15 0  -0.04999999999999999 -0.15 0  0 -0.15 0  0.04999999999999999 -0.15 0  0.09999999999999998 -0.15 0  0.15 -0.15 0  0.2 -0.15 0  0.25 -0.15 0  -0.25 -0.09999999999999998 0  -0.2 -0.09999999999999998 0  -0.15 -0.09999999999999998 0  -0.1 -0.09999999999999998 0  -0.04999999999999999 -0.09999999999999998 0  0 -0.09999999999999998 0  0.04999999999999999 -0.09999999999999998 0  0.09999999999999998 -0.09999999999999998 0  0.15 -0.09999999999999998 0  0.2 -0.09999999999999998 0  0.25 -0.09999999999999998 0  -0.25 -0.05000000000000004 0  -0.2 -0.05000000000000004 0  -0.15 -0.05000000000000004 0  -0.1 -0.05000000000000004 0  -0.04999999999999999 -0.05000000000000004 0  0 -0.05000000000000004 0  0.04999999999999999 -0.05000000000000004 0  0.09999999999999998 -0.05000000000000004 0  0.15 -0.05000000000000004 0  0.2 -0.05000000000000004 0  0.25 -0.05000000000000004 0  -0.25 0 0  -0.2 0 0  -0.15 0 0  -0.1 0 0  -0.04999999999999999 0 0  0 0 0  0.04999999999999999 0 0  0.09999999999999998 0 0  0.15 0 0  0.2 0 0  0.25 0 0  -0.225 -0.975 0  -0.175 -0.975 0  -0.125 -0.975 0  -0.07500000000000001 -0.975 0  -0.02499999999999999 -0.975 0  0.02500000000000002 -0.975 0  0.07500000000000001 -0.975 0  0.125 -0.975 0  0.175 -0.975 0  0.225 -0.975 0  -0.225 -0.925 0  -0.175 -0.925 0  -0.125 -0.925 0  -0.07500000000000001 -0.925 0  -0.02499999999999999 -0.925 0  0.02500000000000002 -0.925 0  0.07500000000000001 -0.925 0  0.125 -0.925 0  0.175 -0.925 0  0.225 -0.925 0  -0.225 -0.875 0  -0.175 -0.875 0  -0.125 -0.875 0  -0.07500000000000001 -0.875 0  -0.02499999999999999 -0.875 0  0.02500000000000002 -0.875 0  0.07500000000000001 -0.875 0  0.125 -0.875 0  0.175 -0.875 0  0.225 -0.875 0  -0.225 -0.825 0  -0.175 -0.825 0  -0.125 -0.825 0  -0.07500000000000001 -0.825 0  -0.02499999999999999 -0.825 0  0.02500000000000002 -0.825 0  0.07500000000000001 -0.825 0  0.125 -0.825 0  0.175 -0.825 0  0.225 -0.825 0  -0.225 -0.775 0  -0.175 -0.775 0  -0.125 -0.775 0  -0.07500000000000001 -0.775 0  -0.02499999999999999 -0.775 0  0.02500000000000002 -0.775 0  0.07500000000000001 -0.775 0  0.125 -0.775 0  0.175 -0.775 0  0.225 -0.775 0  -0.225 -0.725 0  -0.175 -0.725 0  -0.125 -0.725 0  -0.07500000000000001 -0.725 0  -0.02499999999999999 -0.725 0  0.02500000000000002 -0.725 0  0.07500000000000001 -0.725 0  0.125 -0.725 0  0.175 -0.725 0  0.225 -0.725 0  -0.225 -0.675 0  -0.175 -0.675 0  -0.125 -0.675 0  -0.07500000000000001 -0.675 0  -0.02499999999999999 -0.675 0  0.02500000000000002 -0.675 0  0.07500000000000001 -0.675 0  0.125 -0.675 0  0.175 -0.675 0  0.225 -0.675 0  -0.225 -0.625 0  -0.175 -0.625 0  -0.125 -0.625 0  -0.07500000000000001 -0.625 0  -0.02499999999999999 -0.625 0  0.02500000000000002 -0.625 0  0.07500000000000001 -0.625 0  0.125 -0.625 0  0.175 -0.625 0  0.225 -0.625 0  -0.225 -0.575 0  -0.175 -0.575 0  -0.125 -0.575 0  -0.07500000000000001 -0.575 0  -0.02499999999999999 -0.575 0  0.02500000000000002 -0.575 0  0.07500000000000001 -0.575 0  0.125 -0.575 0  0.175 -0.575 0  0.225 -0.575 0  -0.225 -0.525 0  -0.175 -0.525 0  -0.125 -0.525 0  -0.07500000000000001 -0.525 0  -0.02499999999999999 -0.525 0  0.02500000000000002 -0.525 0  0.07500000000000001 -0.525 0  0.125 -0.525 0  0.175 -0.525 0  0.225 -0.525 0  -0.225 -0.475 0  -0.175 -0.475 0  -0.125 -0.475 0  -0.07500000000000001 -0.475 0  -0.02499999999999999 -0.475 0  0.02500000000000002 -0.475 0  0.07500000000000001 -0.475 0  0.125 -0.475 0  0.175 -0.475 0  0.225 -0.475 0  -0.225 -0.425 0  -0.175 -0.425 0  -0.125 -0.425 0  -0.07500000000000001 -0.425 0  -0.02499999999999999 -0.425 0  0.02500000000000002 -0.425 0  0.07500000000000001 -0.425 0  0.125 -0.425 0  0.175 -0.425 0  0.225 -0.425 0  -0.225 -0.375 0  -0.175 -0.375 0  -0.125 -0.375 0  -0.07500000000000001 -0.375 0  -0.02499999999999999 -0.375 0  0.02500000000000002 -0.375 0  0.07500000000000001 -0.375 0  0.125 -0.375 0  0.175 -0.375 0  0.225 -0.375 0  -0.225 -0.325 0  -0.175 -0.325 0  -0.125 -0.325 0  -0.07500000000000001 -0.325 0  -0.02499999999999999 -0.325 0  0.02500000000000002 -0.325 0  0.07500000000000001 -0.325 0  0.125 -0.325 0  0.175 -0.325 0  0.225 -0.325 0  -0.225 -0.275 0  -0.175 -0.275 0  -0.125 -0.275 0  -0.07500000000000001 -0.275 0  -0.02499999999999999 -0.275 0  0.02500000000000002 -0.275 0  0.07500000000000001 -0.275 0  0.125 -0.275 0  0.175 -0.275 0  0.225 -0.275 0  -0.225 -0.225 0  -0.175 -0.225 0  -0.125 -0.225 0  -0.07500000000000001 -0.225 0  -0.02499999999999999 -0.225 0  0.02500000000000002 -0.225 0  0.07500000000000001 -0.225 0  0.125 -0.225 0  0.175 -0.225 0  0.225 -0.225 0  -0.225 -0.175 0  -0.175 -0.175 0  -0.125 -0.175 0  -0.07500000000000001 -0.175 0  -0.02499999999999999 -0.175 0  0.02500000000000002 -0.175 0  0.07500000000000001 -0.175 0  0.125 -0.175 0  0.175 -0.175 0  0.225 -0.175 0  -0.225 -0.125 0  -0.175 -0.125 0  -0.125 -0.125 0  -0.07500000000000001 -0.125 0  -0.02499999999999999 -0.125 0  0.02500000000000002 -0.125 0  0.07500000000000001 -0.125 0  0.125 -0.125 0  0.175 -0.125 0  0.225 -0.125 0  -0.225 -0.07499999999999996 0  -0.175 -0.07499999999999996 0  -0.125 -0.07499999999999996 0  -0.07500000000000001 -0.07499999999999996 0  -0.02499999999999999 -0.07499999999999996 0  0.02500000000000002 -0.07499999999999996 0  0.07500000000000001 -0.07499999999999996 0  0.125 -0.07499999999999996 0  0.175 -0.07499999999999996 0  0.225 -0.07499999999999996 0  -0.225 -0.02500000000000002 0  -0.175 -0.02500000000000002 0  -0.125 -0.02500000000000002 0  -0.07500000000000001 -0.02500000000000002 0  -0.02499999999999999 -0.02500000000000002 0  0.02500000000000002 -0.02500000000000002 0  0.07500000000000001 -0.02500000000000002 0  0.125 -0.02500000000000002 0  0.175 -0.02500000000000002 0  0.225 -0.02500000000000002 0  </DataArray>
</Points>
<Cells>
[...]
<PointData  Scalars="pressure"> 
<DataArray  type="Float64"  Name="pressure"  format="ascii">4.0300464402782135e+06  4.0300464402782149e+06  4.0300464402782177e+06  4.0300464402782158e+06  4.0300464402782135e+06  4.0300464402782065e+06  4.0300464402782042e+06  4.0300464402782014e+06  4.0300464402782014e+06  4.0300464402781995e+06  4.0300464402782014e+06  4.0176231772060147e+06  4.0176231772060138e+06  4.0176231772060217e+06  4.0176231772060147e+06  4.0176231772060138e+06  4.0176231772060096e+06  4.0176231772060050e+06  4.0176231772060054e+06  4.0176231772059985e+06  4.0176231772060040e+06  4.0176231772059975e+06  3.9804299801480020e+06  3.9804299801480016e+06  3.9804299801480011e+06  3.9804299801480011e+06  3.9804299801480016e+06  3.9804299801479965e+06  3.9804299801479941e+06  3.9804299801479895e+06  3.9804299801479909e+06  3.9804299801479857e+06  3.9804299801479904e+06  3.9186961534405635e+06  3.9186961534405639e+06  3.9186961534405658e+06  3.9186961534405625e+06  3.9186961534405616e+06  3.9186961534405602e+06  3.9186961534405560e+06  3.9186961534405570e+06  3.9186961534405546e+06  3.9186961534405560e+06  3.9186961534405495e+06  3.8328023000865197e+06  3.8328023000865225e+06  3.8328023000865174e+06  3.8328023000865253e+06  3.8328023000865169e+06  3.8328023000865187e+06  3.8328023000865192e+06  3.8328023000865146e+06  3.8328023000865150e+06  3.8328023000865160e+06  3.8328023000865146e+06  3.7232779755739458e+06  3.7232779755739481e+06  3.7232779755739500e+06  3.7232779755739472e+06  3.7232779755739449e+06  3.7232779755739453e+06  3.7232779755739472e+06  3.7232779755739477e+06  3.7232779755739481e+06  3.7232779755739467e+06  3.7232779755739463e+06  3.5907984234701893e+06  3.5907984234701875e+06  3.5907984234701856e+06  3.5907984234701870e+06  3.5907984234701907e+06  3.5907984234701865e+06  3.5907984234701861e+06  3.5907984234701865e+06  3.5907984234701870e+06  3.5907984234701861e+06  3.5907984234701842e+06  3.4361804128906499e+06  3.4361804128906480e+06  3.4361804128906503e+06  3.4361804128906517e+06  3.4361804128906475e+06  3.4361804128906489e+06  3.4361804128906457e+06  3.4361804128906475e+06  3.4361804128906489e+06  3.4361804128906466e+06  3.4361804128906499e+06  3.2603772034743186e+06  3.2603772034743195e+06  3.2603772034743205e+06  3.2603772034743214e+06  3.2603772034743195e+06  3.2603772034743181e+06  3.2603772034743167e+06  3.2603772034743209e+06  3.2603772034743181e+06  3.2603772034743209e+06  3.2603772034743209e+06  3.0644726688738270e+06  3.0644726688738260e+06  3.0644726688738270e+06  3.0644726688738288e+06  3.0644726688738298e+06  3.0644726688738265e+06  3.0644726688738321e+06  3.0644726688738302e+06  3.0644726688738293e+06  3.0644726688738298e+06  3.0644726688738284e+06  2.8496746149546285e+06  2.8496746149546253e+06  2.8496746149546304e+06  2.8496746149546346e+06  2.8496746149546374e+06  2.8496746149546355e+06  2.8496746149546388e+06  2.8496746149546425e+06  2.8496746149546374e+06  2.8496746149546406e+06  2.8496746149546388e+06  2.6173073338634507e+06  2.6173073338634535e+06  2.6173073338634530e+06  2.6173073338634549e+06  2.6173073338634628e+06  2.6173073338634628e+06  2.6173073338634660e+06  2.6173073338634656e+06  2.6173073338634651e+06  2.6173073338634628e+06  2.6173073338634642e+06  2.3688034398398180e+06  2.3688034398398153e+06  2.3688034398398222e+06  2.3688034398398204e+06  2.3688034398398241e+06  2.3688034398398292e+06  2.3688034398398297e+06  2.3688034398398306e+06  2.3688034398398288e+06  2.3688034398398311e+06  2.3688034398398302e+06  2.1056950370772853e+06  2.1056950370772858e+06  2.1056950370772853e+06  2.1056950370772909e+06  2.1056950370772937e+06  2.1056950370772970e+06  2.1056950370772993e+06  2.1056950370772965e+06  2.1056950370773016e+06  2.1056950370772965e+06  2.1056950370772993e+06  1.8296042740651192e+06  1.8296042740651206e+06  1.8296042740651201e+06  1.8296042740651227e+06  1.8296042740651281e+06  1.8296042740651278e+06  1.8296042740651295e+06  1.8296042740651320e+06  1.8296042740651276e+06  1.8296042740651278e+06  1.8296042740651257e+06  1.5422333426308583e+06  1.5422333426308611e+06  1.5422333426308646e+06  1.5422333426308667e+06  1.5422333426308644e+06  1.5422333426308667e+06  1.5422333426308692e+06  1.5422333426308699e+06  1.5422333426308671e+06  1.5422333426308634e+06  1.5422333426308637e+06  1.2453539833360375e+06  1.2453539833360387e+06  1.2453539833360431e+06  1.2453539833360438e+06  1.2453539833360401e+06  1.2453539833360375e+06  1.2453539833360377e+06  1.2453539833360401e+06  1.2453539833360373e+06  1.2453539833360370e+06  1.2453539833360366e+06  9.4079656192913395e+05  9.4079656192913337e+05  9.4079656192913244e+05  9.4079656192912976e+05  9.4079656192912452e+05  9.4079656192912126e+05  9.4079656192912161e+05  9.4079656192912115e+05  9.4079656192911766e+05  9.4079656192911719e+05  9.4079656192911859e+05  6.3043878421287704e+05  6.3043878421287681e+05  6.3043878421287448e+05  6.3043878421286982e+05  6.3043878421286540e+05  6.3043878421285981e+05  6.3043878421286121e+05  6.3043878421285981e+05  6.3043878421286121e+05  6.3043878421285772e+05  6.3043878421285900e+05  3.1619411892019049e+05  3.1619411892019102e+05  3.1619411892019201e+05  3.1619411892018659e+05  3.1619411892018002e+05  3.1619411892017798e+05  3.1619411892017961e+05  3.1619411892018112e+05  3.1619411892018066e+05  3.1619411892018071e+05  3.1619411892018147e+05  -3.4106051316484783e-11  -1.4847405452416426e-11  2.8319013800626164e-11  -7.8565725354045310e-11  2.5579538487363587e-11  -3.5495416130158549e-12  4.9693582582221987e-11  -1.4483652372681320e-11  2.3714363805993324e-11  -7.1404420837622539e-11  1.1937117960769673e-10  4.0259047378607630e+06  4.0259047378607597e+06  4.0259047378607639e+06  4.0259047378607634e+06  4.0259047378607583e+06  4.0259047378607555e+06  4.0259047378607513e+06  4.0259047378607490e+06  4.0259047378607453e+06  4.0259047378607453e+06  4.0010837462252672e+06  4.0010837462252663e+06  4.0010837462252672e+06  4.0010837462252681e+06  4.0010837462252635e+06  4.0010837462252593e+06  4.0010837462252569e+06  4.0010837462252518e+06  4.0010837462252518e+06  4.0010837462252486e+06  3.9515947898683217e+06  3.9515947898683217e+06  3.9515947898683245e+06  3.9515947898683250e+06  3.9515947898683189e+06  3.9515947898683157e+06  3.9515947898683120e+06  3.9515947898683087e+06  3.9515947898683068e+06  3.9515947898683078e+06  3.8777429793083654e+06  3.8777429793083644e+06  3.8777429793083635e+06  3.8777429793083621e+06  3.8777429793083612e+06  3.8777429793083607e+06  3.8777429793083570e+06  3.8777429793083533e+06  3.8777429793083514e+06  3.8777429793083537e+06  3.7799836278562699e+06  3.7799836278562676e+06  3.7799836278562658e+06  3.7799836278562639e+06  3.7799836278562681e+06  3.7799836278562676e+06  3.7799836278562658e+06  3.7799836278562611e+06  3.7799836278562592e+06  3.7799836278562616e+06  3.6589194448806606e+06  3.6589194448806592e+06  3.6589194448806583e+06  3.6589194448806588e+06  3.6589194448806606e+06  3.6589194448806592e+06  3.6589194448806578e+06  3.6589194448806597e+06  3.6589194448806578e+06  3.6589194448806578e+06  3.5152968204314844e+06  3.5152968204314853e+06  3.5152968204314876e+06  3.5152968204314881e+06  3.5152968204314848e+06  3.5152968204314834e+06  3.5152968204314848e+06  3.5152968204314816e+06  3.5152968204314848e+06  3.5152968204314820e+06  3.3500012240992542e+06  3.3500012240992566e+06  3.3500012240992556e+06  3.3500012240992589e+06  3.3500012240992570e+06  3.3500012240992542e+06  3.3500012240992556e+06  3.3500012240992552e+06  3.3500012240992552e+06  3.3500012240992542e+06  3.1640517464442910e+06  3.1640517464442924e+06  3.1640517464442942e+06  3.1640517464442956e+06  3.1640517464442947e+06  3.1640517464442942e+06  3.1640517464442933e+06  3.1640517464442952e+06  3.1640517464442942e+06  3.1640517464442933e+06  2.9585948166142432e+06  2.9585948166142474e+06  2.9585948166142488e+06  2.9585948166142497e+06  2.9585948166142507e+06  2.9585948166142516e+06  2.9585948166142525e+06  2.9585948166142539e+06  2.9585948166142516e+06  2.9585948166142493e+06  2.7348971348470133e+06  2.7348971348470156e+06  2.7348971348470170e+06  2.7348971348470207e+06  2.7348971348470235e+06  2.7348971348470221e+06  2.7348971348470249e+06  2.7348971348470259e+06  2.7348971348470249e+06  2.7348971348470235e+06  2.4943378633982348e+06  2.4943378633982381e+06  2.4943378633982404e+06  2.4943378633982418e+06  2.4943378633982469e+06  2.4943378633982469e+06  2.4943378633982441e+06  2.4943378633982479e+06  2.4943378633982479e+06  2.4943378633982483e+06  2.2384001240082029e+06  2.2384001240082029e+06  2.2384001240082071e+06  2.2384001240082094e+06  2.2384001240082136e+06  2.2384001240082146e+06  2.2384001240082160e+06  2.2384001240082155e+06  2.2384001240082136e+06  2.2384001240082155e+06  1.9686618543036932e+06  1.9686618543036941e+06  1.9686618543036969e+06  1.9686618543036988e+06  1.9686618543037043e+06  1.9686618543037050e+06  1.9686618543037060e+06  1.9686618543037039e+06  1.9686618543037039e+06  1.9686618543037029e+06  1.6867860794891622e+06  1.6867860794891627e+06  1.6867860794891657e+06  1.6867860794891668e+06  1.6867860794891694e+06  1.6867860794891710e+06  1.6867860794891715e+06  1.6867860794891727e+06  1.6867860794891694e+06  1.6867860794891678e+06  1.3945106592944912e+06  1.3945106592944956e+06  1.3945106592944975e+06  1.3945106592944970e+06  1.3945106592944956e+06  1.3945106592944956e+06  1.3945106592944968e+06  1.3945106592944970e+06  1.3945106592944933e+06  1.3945106592944919e+06  1.0936375733899099e+06  1.0936375733899113e+06  1.0936375733899102e+06  1.0936375733899069e+06  1.0936375733899032e+06  1.0936375733899018e+06  1.0936375733899036e+06  1.0936375733899015e+06  1.0936375733898988e+06  1.0936375733898997e+06  7.8602181133268005e+05  7.8602181133267831e+05  7.8602181133267505e+05  7.8602181133267132e+05  7.8602181133266725e+05  7.8602181133266480e+05  7.8602181133266387e+05  7.8602181133266399e+05  7.8602181133266189e+05  7.8602181133266189e+05  4.7355993555658293e+05  4.7355993555658351e+05  4.7355993555658084e+05  4.7355993555657414e+05  4.7355993555656879e+05  4.7355993555656797e+05  4.7355993555656850e+05  4.7355993555656931e+05  4.7355993555656885e+05  4.7355993555656972e+05  1.5817838793826045e+05  1.5817838793826048e+05  1.5817838793826025e+05  1.5817838793825693e+05  1.5817838793825524e+05  1.5817838793825542e+05  1.5817838793825562e+05  1.5817838793825568e+05  1.5817838793825608e+05  1.5817838793825585e+05  </DataArray> 
</PointData> 
</Piece>
</UnstructuredGrid>
</VTKFile>