<?xml version="1.0"?>
<VTKFile type="UnstructuredGrid"  version="0.1"  >
<UnstructuredGrid>
<Piece  NumberOfPoints="1661" NumberOfCells="3200">
<Points>
<DataArray  type="Float64"  NumberOfComponents="3"  format="ascii">-0.25 -1 0  -0.225 -1 0  -0.2 -1 0  -0.175 -1 0  -0.15 -1 0  -0.125 -1 0  -0.1 -1 0  -0.07500000000000001 -1 0  -0.04999999999999999 -1 0  -0.02499999999999999 -1 0  0 -1 0  0.02500000000000002 -1 0  0.04999999999999999 -1 0  0.07500000000000001 -1 0  0.09999999999999998 -1 0  0.125 -1 0  0.15 -1 0  0.175 -1 0  0.2 -1 0  0.225 -1 0  0.25 -1 0  -0.25 -0.975 0  -0.225 -0.975 0  -0.2 -0.975 0  -0.175 -0.975 0  -0.15 -0.975 0  -0.125 -0.975 0  -0.1 -0.975 0  -0.07500000000000001 -0.975 0  -0.04999999999999999 -0.975 0  -0.02499999999999999 -0.975 0  0 -0.975 0  0.02500000000000002 -0.975 0  0.04999999999999999 -0.975 0  0.07500000000000001 -0.975 0  0.09999999999999998 -0.975 0  0.125 -0.975 0  0.15 -0.975 0  0.175 -0.975 0  0.2 -0.975 0  0.225 -0.975 0  0.25 -0.975 0  -0.25 -0.95 0  -0.225 -0.95 0  -0.2 -0.95 0  -0.175 -0.95 0  -0.15 -0.95 0  -0.125 -0.95 0  -0.1 -0.95 0  -0.07500000000000001 -0.95 0  -0.04999999999999999 -0.95 0  -0.02499999999999999 -0.95 0  0 -0.95 0  0.02500000000000002 -0.95 0  0.04999999999999999 -0.95 0  0.07500000000000001 -0.95 0  0.09999999999999998 -0.95 0  0.125 -0.95 0  0.15 -0.95 0  0.175 -0.95 0  0.2 -0.95 0  0.225 -0.95 0  0.25 -0.95 0  -0.25 -0.925 0  -0.225 -0.925 0  -0.2 -0.925 0  -0.175 -0.925 0  -0.15 -0.925 0  -0.125 -0.925 0  -0.1 -0.925 0  -0.07500000000000001 -0.925 0  -0.04999999999999999 -0.925 0  -0.02499999999999999 -0.925 0  0 -0.925 0  0.02500000000000002 -0.925 0  0.04999999999999999 -0.925 0  0.07500000000000001 -0.925 0  0.09999999999999998 -0.925 0  0.125 -0.925 0  0.15 -0.925 0  0.175 -0.925 0  0.2 -0.925 0  0.225 -0.925 0  0.25 -0.925 0  -0.25 -0.9 0  -0.225 -0.9 0  -0.2 -0.9 0  -0.175 -0.9 0  -0.15 -0.9 0  -0.125 -0.9 0  -0.1 -0.9 0  -0.07500000000000001 -0.9 0  -0.04999999999999999 -0.9 0  -0.02499999999999999 -0.9 0  0 -0.9 0  0.02500000000000002 -0.9 0  0.04999999999999999 -0.9 0  0.07500000000000001 -0.9 0  0.09999999999999998 -0.9 0  0.125 -0.9 0  0.15 -0.9 0  0.175 -0.9 0  0.2 -0.9 0  0.225 -0.9 0  0.25 -0.9 0  -0.25 -0.875 0  -0.225 -0.875 0  -0.2 -0.875 0  -0.175 -0.875 0  -0.15 -0.875 0  -0.125 -0.875 0  -0.1 -0.875 0  -0.07500000000000001 -0.875 0  -0.04999999999999999 -0.875 0  -0.02499999999999999 -0.875 0  0 -0.875 0  0.02500000000000002 -0.875 0  0.04999999999999999 -0.875 0  0.07500000000000001 -0.875 0  0.09999999999999998 -0.875 0  0.125 -0.875 0  0.15 -0.875 0  0.175 -0.875 0  0.2 -0.875 0  0.225 -0.875 0  0.25 -0.875 0  -0.25 -0.85 0  -0.225 -0.85 0  -0.2 -0.85 0  -0.175 -0.85 0  -0.15 -0.85 0  -0.125 -0.85 0  -0.1 -0.85 0  -0.07500000000000001 -0.85 0  -0.04999999999999999 -0.85 0  -0.02499999999999999 -0.85 0  0 -0.85 0  0.02500000000000002 -0.85 0  0.04999999999999999 -0.85 0  0.07500000000000001 -0.85 0  0.09999999999999998 -0.85 0  0.125 -0.85 0  0.15 -0.85 0  0.175 -0.85 0  0.2 -0.85 0  0.225 -0.85 0  0.25 -0.85 0  -0.25 -0.825 0  -0.225 -0.825 0  -0.2 -0.825 0  -0.175 -0.825 0  -0.15 -0.825 0  -0.125 -0.825 0  -0.1 -0.825 0  -0.07500000000000001 -0.825 0  -0.04999999999999999 -0.825 0  -0.02499999999999999 -0.825 0  0 -0.825 0  0.02500000000000002 -0.825 0  0.04999999999999999 -0.825 0  0.07500000000000001 -0.825 0  0.09999999999999998 -0.825 0  0.125 -0.825 0  0.15 -0.825 0  0.175 -0.825 0  0.2 -0.825 0  0.225 -0.825 0  0.25 -0.825 0  -0.25 -0.8 0  -0.225 -0.8 0  -0.2 -0.8 0  -0.175 -0.8 0  -0.15 -0.8 0  -0.125 -0.8 0  -0.1 -0.8 0  -0.07500000000000001 -0.8 0  -0.04999999999999999 -0.8 0  -0.02499999999999999 -0.8 0  0 -0.8 0  0.02500000000000002 -0.8 0  0.04999999999999999 -0.8 0  0.07500000000000001 -0.8 0  0.09999999999999998 -0.8 0  0.125 -0.8 0  0.15 -0.8 0  0.175 -0.8 0  0.2 -0.8 0  0.225 -0.8 0  0.25 -0.8 0  -0.25 -0.775 0  -0.225 -0.775 0  -0.2 -0.775 0  -0.175 -0.775 0  -0.15 -0.775 0  -0.125 -0.775 0  -0.1 -0.775 0  -0.07500000000000001 -0.775 0  -0.04999999999999999 -0.775 0  -0.02499999999999999 -0.775 0  0 -0.775 0  0.02500000000000002 -0.775 0  0.04999999999999999 -0.775 0  0.07500000000000001 -0.775 0  0.09999999999999998 -0.775 0  0.125 -0.775 0  0.15 -0.775 0  0.175 -0.775 0  0.2 -0.775 0  0.225 -0.775 0  0.25 -0.775 0  -0.25 -0.75 0  -0.225 -0.75 0  -0.2 -0.75 0  -0.175 -0.75 0  -0.15 -0.75 0  -0.125 -0.75 0  -0.1 -0.75 0  -0.07500000000000001 -0.75 0  -0.04999999999999999 -0.75 0  -0.02499999999999999 -0.75 0  0 -0.75 0  0.02500000000000002 -0.75 0  0.04999999999999999 -0.75 0  0.07500000000000001 -0.75 0  0.09999999999999998 -0.75 0  0.125 -0.75 0  0.15 -0.75 0  0.175 -0.75 0  0.2 -0.75 0  0.225 -0.75 0  0.25 -0.75 0  -0.25 -0.725 0  -0.225 -0.725 0  -0.2 -0.725 0  -0.175 -0.725 0  -0.15 -0.725 0  -0.125 -0.725 0  -0.1 -0.725 0  -0.07500000000000001 -0.725 0  -0.04999999999999999 -0.725 0  -0.02499999999999999 -0.725 0  0 -0.725 0  0.02500000000000002 -0.725 0  0.04999999999999999 -0.725 0  0.07500000000000001 -0.725 0  0.09999999999999998 -0.725 0  0.125 -0.725 0  0.15 -0.725 0  0.175 -0.725 0  0.2 -0.725 0  0.225 -0.725 0  0.25 -0.725 0  -0.25 -0.7 0  -0.225 -0.7 0  -0.2 -0.7 0  -0.175 -0.7 0  -0.15 -0.7 0  -0.125 -0.7 0  -0.1 -0.7 0  -0.07500000000000001 -0.7 0  -0.04999999999999999 -0.7 0  -0.02499999999999999 -0.7 0  0 -0.7 0  0.02500000000000002 -0.7 0  0.04999999999999999 -0.7 0  0.07500000000000001 -0.7 0  0.09999999999999998 -0.7 0  0.125 -0.7 0  0.15 -0.7 0  0.175 -0.7 0  0.2 -0.7 0  0.225 -0.7 0  0.25 -0.7 0  -0.25 -0.675 0  -0.225 -0.675 0  -0.2 -0.675 0  -0.175 -0.675 0  -0.15 -0.675 0  -0.125 -0.675 0  -0.1 -0.675 0  -0.07500000000000001 -0.675 0  -0.04999999999999999 -0.675 0  -0.02499999999999999 -0.675 0  0 -0.675 0  0.02500000000000002 -0.675 0  0.04999999999999999 -0.675 0  0.07500000000000001 -0.675 0  0.09999999999999998 -0.675 0  0.125 -0.675 0  0.15 -0.675 0  0.175 -0.675 0  0.2 -0.675 0  0.225 -0.675 0  0.25 -0.675 0  -0.25 -0.65 0  -0.225 -0.65 0  -0.2 -0.65 0  -0.175 -0.65 0  -0.15 -0.65 0  -0.125 -0.65 0  -0.1 -0.65 0  -0.07500000000000001 -0.65 0  -0.04999999999999999 -0.65 0  -0.02499999999999999 -0.65 0  0 -0.65 0  0.02500000000000002 -0.65 0  0.04999999999999999 -0.65 0  0.07500000000000001 -0.65 0  0.09999999999999998 -0.65 0  0.125 -0.65 0  0.15 -0.65 0  0.175 -0.65 0  0.2 -0.65 0  0.225 -0.65 0  0.25 -0.65 0  -0.25 -0.625 0  -0.225 -0.625 0  -0.2 -0.625 0  -0.175 -0.625 0  -0.15 -0.625 0  -0.125 -0.625 0  -0.1 -0.625 0  -0.07500000000000001 -0.625 0  -0.04999999999999999 -0.625 0  -0.02499999999999999 -0.625 0  0 -0.625 0  0.02500000000000002 -0.625 0  0.04999999999999999 -0.625 0  0.07500000000000001 -0.625 0  0.09999999999999998 -0.625 0  0.125 -0.625 0  0.15 -0.625 0  0.175 -0.625 0  0.2 -0.625 0  0.225 -0.625 0  0.25 -0.625 0  -0.25 -0.6 0  -0.225 -0.6 0  -0.2 -0.6 0  -0.175 -0.6 0  -0.15 -0.6 0  -0.125 -0.6 0  -0.1 -0.6 0  -0.07500000000000001 -0.6 0  -0.04999999999999999 -0.6 0  -0.02499999999999999 -0.6 0  0 -0.6 0  0.02500000000000002 -0.6 0  0.04999999999999999 -0.6 0  0.07500000000000001 -0.6 0  0.09999999999999998 -0.6 0  0.125 -0.6 0  0.15 -0.6 0  0.175 -0.6 0  0.2 -0.6 0  0.225 -0.6 0  0.25 -0.6 0  -0.25 -0.575 0  -0.225 -0.575 0  -0.2 -0.575 0  -0.175 -0.575 0  -0.15 -0.575 0  -0.125 -0.575 0  -0.1 -0.575 0  -0.07500000000000001 -0.575 0  -0.04999999999999999 -0.575 0  -0.02499999999999999 -0.575 0  0 -0.575 0  0.02500000000000002 -0.575 0  0.04999999999999999 -0.575 0  0.07500000000000001 -0.575 0  0.09999999999999998 -0.575 0  0.125 -0.575 0  0.15 -0.575 0  0.175 -0.575 0  0.2 -0.575 0  0.225 -0.575 0  0.25 -0.575 0  -0.25 -0.55 0  -0.225 -0.55 0  -0.2 -0.55 0  -0.175 -0.55 0  -0.15 -0.55 0  -0.125 -0.55 0  -0.1 -0.55 0  -0.07500000000000001 -0.55 0  -0.04999999999999999 -0.55 0  -0.02499999999999999 -0.55 0  0 -0.55 0  0.02500000000000002 -0.55 0  0.04999999999999999 -0.55 0  0.07500000000000001 -0.55 0  0.09999999999999998 -0.55 0  0.125 -0.55 0  0.15 -0.55 0  0.175 -0.55 0  0.2 -0.55 0  0.225 -0.55 0  0.25 -0.55 0  -0.25 -0.525 0  -0.225 -0.525 0  -0.2 -0.525 0  -0.175 -0.525 0  -0.15 -0.525 0  -0.125 -0.525 0  -0.1 -0.525 0  -0.07500000000000001 -0.525 0  -0.04999999999999999 -0.525 0  -0.02499999999999999 -0.525 0  0 -0.525 0  0.02500000000000002 -0.525 0  0.04999999999999999 -0.525 0  0.07500000000000001 -0.525 0  0.09999999999999998 -0.525 0  0.125 -0.525 0  0.15 -0.525 0  0.175 -0.525 0  0.2 -0.525 0  0.225 -0.525 0  0.25 -0.525 0  -0.25 -0.5 0  -0.225 -0.5 0  -0.2 -0.5 0  -0.175 -0.5 0  -0.15 -0.5 0  -0.125 -0.5 0  -0.1 -0.5 0  -0.07500000000000001 -0.5 0  -0.04999999999999999 -0.5 0  -0.02499999999999999 -0.5 0  0 -0.5 0  0.02500000000000002 -0.5 0  0.04999999999999999 -0.5 0  0.07500000000000001 -0.5 0  0.09999999999999998 -0.5 0  0.125 -0.5 0  0.15 -0.5 0  0.175 -0.5 0  0.2 -0.5 0  0.225 -0.5 0  0.25 -0.5 0  -0.25 -0.475 0  -0.225 -0.475 0  -0.2 -0.475 0  -0.175 -0.475 0  -0.15 -0.475 0  -0.125 -0.475 0  -0.1 -0.475 0  -0.07500000000000001 -0.475 0  -0.04999999999999999 -0.475 0  -0.02499999999999999 -0.475 0  0 -0.475 0  0.02500000000000002 -0.475 0  0.04999999999999999 -0.475 0  0.07500000000000001 -0.475 0  0.09999999999999998 -0.475 0  0.125 -0.475 0  0.15 -0.475 0  0.175 -0.475 0  0.2 -0.475 0  0.225 -0.475 0  0.25 -0.475 0  -0.25 -0.45 0  -0.225 -0.45 0  -0.2 -0.45 0  -0.175 -0.45 0  -0.15 -0.45 0  -0.125 -0.45 0  -0.1 -0.45 0  -0.07500000000000001 -0.45 0  -0.04999999999999999 -0.45 0  -0.02499999999999999 -0.45 0  0 -0.45 0  0.02500000000000002 -0.45 0  0.04999999999999999 -0.45 0  0.07500000000000001 -0.45 0  0.09999999999999998 -0.45 0  0.125 -0.45 0  0.15 -0.45 0  0.175 -0.45 0  0.2 -0.45 0  0.225 -0.45 0  0.25 -0.45 0  -0.25 -0.425 0  -0.225 -0.425 0  -0.2 -0.425 0  -0.175 -0.425 0  -0.15 -0.425 0  -0.125 -0.425 0  -0.1 -0.425 0  -0.07500000000000001 -0.425 0  -0.04999999999999999 -0.425 0  -0.02499999999999999 -0.425 0  0 -0.425 0  0.02500000000000002 -0.425 0  0.04999999999999999 -0.425 0  0.07500000000000001 -0.425 0  0.
[...]
<PointData  Scalars="pressure"> 
<DataArray  type="Float64"  Name="pressure"  format="ascii">4.3227743275445879e+07  4.3227743275445856e+07  4.3227743275445931e+07  4.3227743275445960e+07  4.3227743275446035e+07  4.3227743275446050e+07  4.3227743275446147e+07  4.3227743275446206e+07  4.3227743275446311e+07  4.3227743275446385e+07  4.3227743275446527e+07  4.3227743275446624e+07  4.3227743275446706e+07  4.3227743275446758e+07  4.3227743275446877e+07  4.3227743275446929e+07  4.3227743275446974e+07  4.3227743275447018e+07  4.3227743275447041e+07  4.3227743275447026e+07  4.3227743275447041e+07  4.3201536454202160e+07  4.3201536454202153e+07  4.3201536454202168e+07  4.3201536454202279e+07  4.3201536454202272e+07  4.3201536454202354e+07  4.3201536454202361e+07  4.3201536454202533e+07  4.3201536454202585e+07  4.3201536454202667e+07  4.3201536454202756e+07  4.3201536454202905e+07  4.3201536454202957e+07  4.3201536454203069e+07  4.3201536454203047e+07  4.3201536454203233e+07  4.3201536454203263e+07  4.3201536454203270e+07  4.3201536454203285e+07  4.3201536454203345e+07  4.3201536454203278e+07  4.3122862635870568e+07  4.3122862635870554e+07  4.3122862635870583e+07  4.3122862635870703e+07  4.3122862635870725e+07  4.3122862635870770e+07  4.3122862635870881e+07  4.3122862635870896e+07  4.3122862635870956e+07  4.3122862635871075e+07  4.3122862635871165e+07  4.3122862635871284e+07  4.3122862635871358e+07  4.3122862635871463e+07  4.3122862635871552e+07  4.3122862635871582e+07  4.3122862635871641e+07  4.3122862635871656e+07  4.3122862635871716e+07  4.3122862635871723e+07  4.3122862635871708e+07  4.2991562953961276e+07  4.2991562953961231e+07  4.2991562953961283e+07  4.2991562953961335e+07  4.2991562953961365e+07  4.2991562953961462e+07  4.2991562953961492e+07  4.2991562953961559e+07  4.2991562953961655e+07  4.2991562953961767e+07  4.2991562953961864e+07  4.2991562953961954e+07  4.2991562953962110e+07  4.2991562953962140e+07  4.2991562953962192e+07  4.2991562953962311e+07  4.2991562953962296e+07  4.2991562953962371e+07  4.2991562953962341e+07  4.2991562953962393e+07  4.2991562953962423e+07  4.2807376611447260e+07  4.2807376611447304e+07  4.2807376611447334e+07  4.2807376611447290e+07  4.2807376611447386e+07  4.2807376611447394e+07  4.2807376611447528e+07  4.2807376611447573e+07  4.2807376611447692e+07  4.2807376611447804e+07  4.2807376611447878e+07  4.2807376611448020e+07  4.2807376611448094e+07  4.2807376611448191e+07  4.2807376611448318e+07  4.2807376611448333e+07  4.2807376611448370e+07  4.2807376611448407e+07  4.2807376611448400e+07  4.2807376611448430e+07  4.2807376611448407e+07  4.2569946814318374e+07  4.2569946814318374e+07  4.2569946814318366e+07  4.2569946814318426e+07  4.2569946814318508e+07  4.2569946814318545e+07  4.2569946814318627e+07  4.2569946814318672e+07  4.2569946814318769e+07  4.2569946814318873e+07  4.2569946814319015e+07  4.2569946814319126e+07  4.2569946814319208e+07  4.2569946814319305e+07  4.2569946814319335e+07  4.2569946814319454e+07  4.2569946814319506e+07  4.2569946814319491e+07  4.2569946814319529e+07  4.2569946814319536e+07  4.2569946814319521e+07  4.2278829003966361e+07  4.2278829003966369e+07  4.2278829003966421e+07  4.2278829003966421e+07  4.2278829003966421e+07  4.2278829003966555e+07  4.2278829003966503e+07  4.2278829003966704e+07  4.2278829003966779e+07  4.2278829003966890e+07  4.2278829003966995e+07  4.2278829003967077e+07  4.2278829003967263e+07  4.2278829003967270e+07  4.2278829003967337e+07  4.2278829003967457e+07  4.2278829003967471e+07  4.2278829003967471e+07  4.2278829003967516e+07  4.2278829003967509e+07  4.2278829003967509e+07  4.1933501313078620e+07  4.1933501313078657e+07  4.1933501313078642e+07  4.1933501313078709e+07  4.1933501313078716e+07  4.1933501313078761e+07  4.1933501313078880e+07  4.1933501313078903e+07  4.1933501313079067e+07  4.1933501313079111e+07  4.1933501313079186e+07  4.1933501313079350e+07  4.1933501313079424e+07  4.1933501313079558e+07  4.1933501313079625e+07  4.1933501313079670e+07  4.1933501313079752e+07  4.1933501313079737e+07  4.1933501313079774e+07  4.1933501313079759e+07  4.1933501313079782e+07  4.1533377147224061e+07  4.1533377147224009e+07  4.1533377147224031e+07  4.1533377147224054e+07  4.1533377147224084e+07  4.1533377147224128e+07  4.1533377147224203e+07  4.1533377147224277e+07  4.1533377147224367e+07  4.1533377147224493e+07  4.1533377147224583e+07  4.1533377147224739e+07  4.1533377147224821e+07  4.1533377147224918e+07  4.1533377147225022e+07  4.1533377147225060e+07  4.1533377147225112e+07  4.1533377147225149e+07  4.1533377147225142e+07  4.1533377147225164e+07  4.1533377147225134e+07  4.1077819771235287e+07  4.1077819771235257e+07  4.1077819771235272e+07  4.1077819771235265e+07  4.1077819771235332e+07  4.1077819771235362e+07  4.1077819771235436e+07  4.1077819771235533e+07  4.1077819771235660e+07  4.1077819771235742e+07  4.1077819771235861e+07  4.1077819771235958e+07  4.1077819771236062e+07  4.1077819771236174e+07  4.1077819771236263e+07  4.1077819771236315e+07  4.1077819771236412e+07  4.1077819771236330e+07  4.1077819771236420e+07  4.1077819771236397e+07  4.1077819771236382e+07  4.0566158755834848e+07  4.0566158755834877e+07  4.0566158755834870e+07  4.0566158755834915e+07  4.0566158755834922e+07  4.0566158755834989e+07  4.0566158755835034e+07  4.0566158755835146e+07  4.0566158755835272e+07  4.0566158755835377e+07  4.0566158755835481e+07  4.0566158755835593e+07  4.0566158755835675e+07  4.0566158755835764e+07  4.0566158755835824e+07  4.0566158755835921e+07  4.0566158755835973e+07  4.0566158755836025e+07  4.0566158755836003e+07  4.0566158755835965e+07  4.0566158755835980e+07  3.9997708115815163e+07  3.9997708115815163e+07  3.9997708115815185e+07  3.9997708115815207e+07  3.9997708115815207e+07  3.9997708115815274e+07  3.9997708115815401e+07  3.9997708115815461e+07  3.9997708115815565e+07  3.9997708115815662e+07  3.9997708115815736e+07  3.9997708115815885e+07  3.9997708115816005e+07  3.9997708115816064e+07  3.9997708115816191e+07  3.9997708115816183e+07  3.9997708115816273e+07  3.9997708115816273e+07  3.9997708115816325e+07  3.9997708115816310e+07  3.9997708115816295e+07  3.9371785946650550e+07  3.9371785946650587e+07  3.9371785946650572e+07  3.9371785946650669e+07  3.9371785946650662e+07  3.9371785946650714e+07  3.9371785946650803e+07  3.9371785946650892e+07  3.9371785946650982e+07  3.9371785946651064e+07  3.9371785946651198e+07  3.9371785946651340e+07  3.9371785946651407e+07  3.9371785946651503e+07  3.9371785946651615e+07  3.9371785946651652e+07  3.9371785946651690e+07  3.9371785946651734e+07  3.9371785946651757e+07  3.9371785946651727e+07  3.9371785946651727e+07  3.8687735341966629e+07  3.8687735341966584e+07  3.8687735341966651e+07  3.8687735341966659e+07  3.8687735341966681e+07  3.8687735341966771e+07  3.8687735341966830e+07  3.8687735341966927e+07  3.8687735341967002e+07  3.8687735341967098e+07  3.8687735341967233e+07  3.8687735341967337e+07  3.8687735341967449e+07  3.8687735341967575e+07  3.8687735341967605e+07  3.8687735341967680e+07  3.8687735341967739e+07  3.8687735341967732e+07  3.8687735341967754e+07  3.8687735341967754e+07  3.8687735341967747e+07  3.7944946350183979e+07  3.7944946350183941e+07  3.7944946350183927e+07  3.7944946350183971e+07  3.7944946350184038e+07  3.7944946350184076e+07  3.7944946350184128e+07  3.7944946350184254e+07  3.7944946350184351e+07  3.7944946350184426e+07  3.7944946350184508e+07  3.7944946350184657e+07  3.7944946350184791e+07  3.7944946350184828e+07  3.7944946350185022e+07  3.7944946350184977e+07  3.7944946350185037e+07  3.7944946350185059e+07  3.7944946350185059e+07  3.7944946350185044e+07  3.7944946350185066e+07  3.7142878705357723e+07  3.7142878705357760e+07  3.7142878705357701e+07  3.7142878705357775e+07  3.7142878705357805e+07  3.7142878705357842e+07  3.7142878705357902e+07  3.7142878705357969e+07  3.7142878705358081e+07  3.7142878705358177e+07  3.7142878705358304e+07  3.7142878705358431e+07  3.7142878705358520e+07  3.7142878705358632e+07  3.7142878705358677e+07  3.7142878705358721e+07  3.7142878705358811e+07  3.7142878705358818e+07  3.7142878705358855e+07  3.7142878705358811e+07  3.7142878705358803e+07  3.6281085045279332e+07  3.6281085045279279e+07  3.6281085045279324e+07  3.6281085045279346e+07  3.6281085045279428e+07  3.6281085045279451e+07  3.6281085045279458e+07  3.6281085045279585e+07  3.6281085045279630e+07  3.6281085045279741e+07  3.6281085045279816e+07  3.6281085045279972e+07  3.6281085045280084e+07  3.6281085045280166e+07  3.6281085045280233e+07  3.6281085045280345e+07  3.6281085045280360e+07  3.6281085045280367e+07  3.6281085045280367e+07  3.6281085045280382e+07  3.6281085045280389e+07  3.5359234309914269e+07  3.5359234309914291e+07  3.5359234309914291e+07  3.5359234309914336e+07  3.5359234309914343e+07  3.5359234309914388e+07  3.5359234309914470e+07  3.5359234309914507e+07  3.5359234309914574e+07  3.5359234309914671e+07  3.5359234309914760e+07  3.5359234309914902e+07  3.5359234309914991e+07  3.5359234309915125e+07  3.5359234309915192e+07  3.5359234309915230e+07  3.5359234309915327e+07  3.5359234309915289e+07  3.5359234309915312e+07  3.5359234309915297e+07  3.5359234309915297e+07  3.4377134995881356e+07  3.4377134995881334e+07  3.4377134995881319e+07  3.4377134995881356e+07  3.4377134995881423e+07  3.4377134995881453e+07  3.4377134995881498e+07  3.4377134995881557e+07  3.4377134995881639e+07  3.4377134995881736e+07  3.4377134995881811e+07  3.4377134995881945e+07  3.4377134995882049e+07  3.4377134995882146e+07  3.4377134995882198e+07  3.4377134995882265e+07  3.4377134995882332e+07  3.4377134995882340e+07  3.4377134995882332e+07  3.4377134995882362e+07  3.4377134995882362e+07  3.3334757928632375e+07  3.3334757928632334e+07  3.3334757928632349e+07  3.3334757928632408e+07  3.3334757928632393e+07  3.3334757928632453e+07  3.3334757928632502e+07  3.3334757928632583e+07  3.3334757928632647e+07  3.3334757928632706e+07  3.3334757928632818e+07  3.3334757928632915e+07  3.3334757928633027e+07  3.3334757928633116e+07  3.3334757928633183e+07  3.3334757928633254e+07  3.3334757928633291e+07  3.3334757928633336e+07  3.3334757928633321e+07  3.3334757928633329e+07  3.3334757928633343e+07  3.2232258203985557e+07  3.2232258203985564e+07  3.2232258203985546e+07  3.2232258203985553e+07  3.2232258203985609e+07  3.2232258203985658e+07  3.2232258203985695e+07  3.2232258203985725e+07  3.2232258203985803e+07  3.2232258203985915e+07  3.2232258203985997e+07  3.2232258203986105e+07  3.2232258203986201e+07  3.2232258203986272e+07  3.2232258203986384e+07  3.2232258203986410e+07  3.2232258203986481e+07  3.2232258203986496e+07  3.2232258203986473e+07  3.2232258203986488e+07  3.2232258203986477e+07  3.1069995945388414e+07  3.1069995945388418e+07  3.1069995945388444e+07  3.1069995945388477e+07  3.1069995945388496e+07  3.1069995945388544e+07  3.1069995945388589e+07  3.1069995945388641e+07  3.1069995945388746e+07  3.1069995945388801e+07  3.1069995945388876e+07  3.1069995945388991e+07  3.1069995945389066e+07  3.1069995945389174e+07  3.1069995945389241e+07  3.1069995945389275e+07  3.1069995945389360e+07  3.1069995945389364e+07  3.1069995945389397e+07  3.1069995945389371e+07  3.1069995945389383e+07  2.9848555523394767e+07  2.9848555523394763e+07  2.9848555523394760e+07  2.9848555523394793e+07  2.9848555523394834e+07  2.9848555523394860e+07  2.9848555523394920e+07  2.9848555523395002e+07  2.9848555523395035e+07  2.9848555523395188e+07  2.9848555523395233e+07  2.9848555523395304e+07  2.9848555523395427e+07  2.9848555523395505e+07  2.9848555523395553e+07  2.9848555523395579e+07  2.9848555523395624e+07  2.9848555523395658e+07  2.9848555523395658e+07  2.9848555523395687e+07  2.9848555523395665e+07  2.8568762889907725e+07  2.8568762889907707e+07  2.8568762889907729e+07  2.8568762889907736e+07  2.8568762889907785e+07  2.8568762889907833e+07  2.8568762889907826e+07  2.8568762889907911e+07  2.8568762889908005e+07  2.8568762889908068e+07  2.8568762889908154e+07  2.8568762889908265e+07  2.8568762889908314e+07  2.8568762889908411e+07  2.8568762889908455e+07  2.8568762889908515e+07  2.8568762889908545e+07  2.8568762889908567e+07  2.8568762889908575e+07  2.8568762889908608e+07  2.8568762889908586e+07  2.7231700692242067e+07  2.7231700692242127e+07  2.7231700692242075e+07  2.7231700692242093e+07  2.7231700692242116e+07  2.7231700692242160e+07  2.7231700692242250e+07  2.7231700692242265e+07  2.7231700692242343e+07  2.7231700692242410e+07  2.7231700692242522e+07  2.7231700692242619e+07  2.7231700692242704e+07  2.7231700692242734e+07  2.7231700692242812e+07  2.7231700692242838e+07  2.7231700692242902e+07  2.7231700692242913e+07  2.7231700692242917e+07  2.7231700692242932e+07  2.7231700692242924e+07  2.5838720851327185e+07  2.5838720851327181e+07  2.5838720851327203e+07  2.5838720851327222e+07  2.5838720851327252e+07  2.5838720851327281e+07  2.5838720851327349e+07  2.5838720851327389e+07  2.5838720851327457e+07  2.5838720851327535e+07  2.5838720851327620e+07  2.5838720851327702e+07  2.5838720851327784e+07  2.5838720851327848e+07  2.5838720851327874e+07  2.5838720851327937e+07  2.5838720851327974e+07  2.5838720851327986e+07  2.5838720851327982e+07  2.5838720851327989e+07  2.5838720851327978e+07  2.4391454314586546e+07  2.4391454314586550e+07  2.4391454314586557e+07  2.4391454314586595e+07  2.4391454314586595e+07  2.4391454314586673e+07  2.4391454314586699e+07  2.4391454314586781e+07  2.4391454314586826e+07  2.4391454314586904e+07  2.4391454314586986e+07  2.4391454314587075e+07  2.4391454314587124e+07  2.4391454314587187e+07  2.4391454314587217e+07  2.4391454314587276e+07  2.4391454314587336e+07  2.4391454314587321e+07  2.4391454314587340e+07  2.4391454314587332e+07  2.4391454314587340e+07  2.2891817727181505e+07  2.2891817727181509e+07  2.2891817727181520e+07  2.2891817727181528e+07  2.2891817727181576e+07  2.2891817727181587e+07  2.2891817727181651e+07  2.2891817727181677e+07  2.2891817727181774e+07  2.2891817727181811e+07  2.2891817727181882e+07  2.2891817727181979e+07  2.2891817727182031e+07  2.2891817727182105e+07  2.2891817727182154e+07  2.2891817727182172e+07  2.2891817727182187e+07  2.2891817727182213e+07  2.2891817727182236e+07  2.2891817727182262e+07  2.2891817727182239e+07  2.1342016805183407e+07  2.1342016805183366e+07  2.1342016805183385e+07  2.1342016805183399e+07  2.1342016805183433e+07  2.1342016805183440e+07  2.1342016805183493e+07  2.1342016805183552e+07  2.1342016805183612e+07  2.1342016805183686e+07  2.1342016805183746e+07  2.1342016805183820e+07  2.1342016805183887e+07  2.1342016805183936e+07  2.1342016805183999e+07  2.1342016805184029e+07  2.1342016805184051e+07  2.1342016805184059e+07  2.1342016805184074e+07  2.1342016805184070e+07  2.1342016805184081e+07  1.9744546240419649e+07  1.9744546240419649e+07  1.9744546240419634e+07  1.9744546240419663e+07  1.9744546240419690e+07  1.9744546240419712e+07  1.9744546240419731e+07  1.9744546240419809e+07  1.9744546240419868e+07  1.9744546240419902e+07  1.9744546240419969e+07  1.9744546240420047e+07  1.9744546240420122e+07  1.9744546240420178e+07  1.9744546240420196e+07  1.9744546240420245e+07  1.9744546240420245e+07  1.9744546240420282e+07  1.9744546240420282e+07  1.9744546240420286e+07  1.9744546240420293e+07  1.8102186018579811e+07  1.8102186018579792e+07  1.8102186018579800e+07  1.8102186018579811e+07  1.8102186018579841e+07  1.8102186018579856e+07  1.8102186018579893e+07  1.8102186018579941e+07  1.8102186018579986e+07  1.8102186018580064e+07  1.8102186018580105e+07  1.8102186018580187e+07  1.8102186018580236e+07  1.8102186018580288e+07  1.8102186018580321e+07  1.8102186018580344e+07  1.8102186018580388e+07  1.8102186018580388e+07  1.8102186018580392e+07  1.8102186018580388e+07  1.8102186018580392e+07  1.6417994088815808e+07  1.6417994088815805e+07  1.6417994088815790e+07  1.6417994088815818e+07  1.6417994088815819e+07  1.6417994088815868e+07  1.6417994088815894e+07  1.6417994088815931e+07  1.6417994088815996e+07  1.6417994088816028e+07  1.6417994088816077e+07  1.6417994088816136e+07  1.6417994088816185e+07  1.6417994088816237e+07  1.6417994088816283e+07  1.6417994088816302e+07  1.6417994088816330e+07  1.6417994088816330e+07  1.6417994088816345e+07  1.6417994088816341e+07  1.6417994088816343e+07  1.4695295383471778e+07  1.4695295383471793e+07  1.4695295383471813e+07  1.4695295383471802e+07  1.4695295383471837e+07  1.4695295383471830e+07  1.4695295383471860e+07  1.4695295383471904e+07  1.4695295383471932e+07  1.4695295383471990e+07  1.4695295383472033e+07  1.4695295383472102e+07  1.4695295383472139e+07  1.4695295383472186e+07  1.4695295383472219e+07  1.4695295383472240e+07  1.4695295383472243e+07  1.4695295383472256e+07  1.4695295383472286e+07  1.4695295383472273e+07  1.4695295383472268e+07  1.2937667249499431e+07  1.2937667249499420e+07  1.2937667249499425e+07  1.2937667249499433e+07  1.2937667249499438e+07  1.2937667249499453e+07  1.2937667249499489e+07  1.2937667249499505e+07  1.2937667249499556e+07  1.2937667249499591e+07  1.2937667249499658e+07  1.2937667249499692e+07  1.2937667249499738e+07  1.2937667249499774e+07  1.2937667249499824e+07  1.2937667249499798e+07  1.2937667249499833e+07  1.2937667249499841e+07  1.2937667249499831e+07  1.2937667249499878e+07  1.2937667249499843e+07  1.1148921417177897e+07  1.1148921417177884e+07  1.1148921417177878e+07  1.1148921417177882e+07  1.1148921417177891e+07  1.1148921417177903e+07  1.1148921417177912e+07  1.1148921417177964e+07  1.1148921417177979e+07  1.1148921417178025e+07  1.1148921417178066e+07  1.1148921417178115e+07  1.1148921417178154e+07  1.1148921417178178e+07  1.1148921417178214e+07  1.1148921417178215e+07  1.1148921417178228e+07  1.1148921417178230e+07  1.1148921417178236e+07  1.1148921417178247e+07  1.1148921417178247e+07  9.3330826954750828e+06  9.3330826954750847e+06  9.3330826954750698e+06  9.3330826954750773e+06  9.3330826954750866e+06  9.3330826954750922e+06  9.3330826954751145e+06  9.3330826954751369e+06  9.3330826954751685e+06  9.3330826954752039e+06  9.3330826954752281e+06  9.3330826954752672e+06  9.3330826954752970e+06  9.3330826954753324e+06  9.3330826954753585e+06  9.3330826954753660e+06  9.3330826954753753e+06  9.3330826954753753e+06  9.3330826954753865e+06  9.3330826954753771e+06  9.3330826954753827e+06  7.4943646452071751e+06  7.4943646452071695e+06  7.4943646452071620e+06  7.4943646452071657e+06  7.4943646452071685e+06  7.4943646452071769e+06  7.4943646452071825e+06  7.4943646452072104e+06  7.4943646452072337e+06  7.4943646452072514e+06  7.4943646452072849e+06  7.4943646452073129e+06  7.4943646452073399e+06  7.4943646452073697e+06  7.4943646452073874e+06  7.4943646452073958e+06  7.4943646452074042e+06  7.4943646452073930e+06  7.4943646452074032e+06  7.4943646452074060e+06  7.4943646452074144e+06  5.6371425395138962e+06  5.6371425395139009e+06  5.6371425395138990e+06  5.6371425395138953e+06  5.6371425395138934e+06  5.6371425395138981e+06  5.6371425395139055e+06  5.6371425395139242e+06  5.6371425395139428e+06  5.6371425395139661e+06  5.6371425395139847e+06  5.6371425395140043e+06  5.6371425395140145e+06  5.6371425395140452e+06  5.6371425395140620e+06  5.6371425395140639e+06  5.6371425395140676e+06  5.6371425395140694e+06  5.6371425395140667e+06  5.6371425395140741e+06  5.6371425395140741e+06  3.7659239745421293e+06  3.7659239745421237e+06  3.7659239745421261e+06  3.7659239745421195e+06  3.7659239745421200e+06  3.7659239745421247e+06  3.7659239745421307e+06  3.7659239745421442e+06  3.7659239745421568e+06  3.7659239745421708e+06  3.7659239745421917e+06  3.7659239745421996e+06  3.7659239745422122e+06  3.7659239745422238e+06  3.7659239745422476e+06  3.7659239745422401e+06  3.7659239745422364e+06  3.7659239745422397e+06  3.7659239745422397e+06  3.7659239745422415e+06  3.7659239745422415e+06  1.8853175401876280e+06  1.8853175401876236e+06  1.8853175401876220e+06  1.8853175401876189e+06  1.8853175401876133e+06  1.8853175401876250e+06  1.8853175401876234e+06  1.8853175401876336e+06  1.8853175401876378e+06  1.8853175401876457e+06  1.885317540