<?xml version="1.0"?>
<VTKFile type="UnstructuredGrid"  version="0.1"  >
<UnstructuredGrid>
<Piece  NumberOfPoints="1661" NumberOfCells="3200">
<Points>
<DataArray  type="Float64"  NumberOfComponents="3"  format="ascii">-0.25 -1 0  -0.225 -1 0  -0.2 -1 0  -0.175 -1 0  -0.15 -1 0  -0.125 -1 0  -0.1 -1 0  -0.07500000000000001 -1 0  -0.04999999999999999 -1 0  -0.02499999999999999 -1 0  0 -1 0  0.02500000000000002 -1 0  0.04999999999999999 -1 0  0.07500000000000001 -1 0  0.09999999999999998 -1 0  0.125 -1 0  0.15 -1 0  0.175 -1 0  0.2 -1 0  0.225 -1 0  0.25 -1 0  -0.25 -0.975 0  -0.225 -0.975 0  -0.2 -0.975 0  -0.175 -0.975 0  -0.15 -0.975 0  -0.125 -0.975 0  -0.1 -0.975 0  -0.07500000000000001 -0.975 0  -0.04999999999999999 -0.975 0  -0.02499999999999999 -0.975 0  0 -0.975 0  0.02500000000000002 -0.975 0  0.04999999999999999 -0.975 0  0.07500000000000001 -0.975 0  0.09999999999999998 -0.975 0  0.125 -0.975 0  0.15 -0.975 0  0.175 -0.975 0  0.2 -0.975 0  0.225 -0.975 0  0.25 -0.975 0  -0.25 -0.95 0  -0.225 -0.95 0  -0.2 -0.95 0  -0.175 -0.95 0  -0.15 -0.95 0  -0.125 -0.95 0  -0.1 -0.95 0  -0.07500000000000001 -0.95 0  -0.04999999999999999 -0.95 0  -0.02499999999999999 -0.95 0  0 -0.95 0  0.02500000000000002 -0.95 0  0.04999999999999999 -0.95 0  0.07500000000000001 -0.95 0  0.09999999999999998 -0.95 0  0.125 -0.95 0  0.15 -0.95 0  0.175 -0.95 0  0.2 -0.95 0  0.225 -0.95 0  0.25 -0.95 0  -0.25 -0.925 0  -0.225 -0.925 0  -0.2 -0.925 0  -0.175 -0.925 0  -0.15 -0.925 0  -0.125 -0.925 0  -0.1 -0.925 0  -0.07500000000000001 -0.925 0  -0.04999999999999999 -0.925 0  -0.02499999999999999 -0.925 0  0 -0.925 0  0.02500000000000002 -0.925 0  0.04999999999999999 -0.925 0  0.07500000000000001 -0.925 0  0.09999999999999998 -0.925 0  0.125 -0.925 0  0.15 -0.925 0  0.175 -0.925 0  0.2 -0.925 0  0.225 -0.925 0  0.25 -0.925 0  -0.25 -0.9 0  -0.225 -0.9 0  -0.2 -0.9 0  -0.175 -0.9 0  -0.15 -0.9 0  -0.125 -0.9 0  -0.1 -0.9 0  -0.07500000000000001 -0.9 0  -0.04999999999999999 -0.9 0  -0.02499999999999999 -0.9 0  0 -0.9 0  0.02500000000000002 -0.9 0  0.04999999999999999 -0.9 0  0.07500000000000001 -0.9 0  0.09999999999999998 -0.9 0  0.125 -0.9 0  0.15 -0.9 0  0.175 -0.9 0  0.2 -0.9 0  0.225 -0.9 0  0.25 -0.9 0  -0.25 -0.875 0  -0.225 -0.875 0  -0.2 -0.875 0  -0.175 -0.875 0  -0.15 -0.875 0  -0.125 -0.875 0  -0.1 -0.875 0  -0.07500000000000001 -0.875 0  -0.04999999999999999 -0.875 0  -0.02499999999999999 -0.875 0  0 -0.875 0  0.02500000000000002 -0.875 0  0.04999999999999999 -0.875 0  0.07500000000000001 -0.875 0  0.09999999999999998 -0.875 0  0.125 -0.875 0  0.15 -0.875 0  0.175 -0.875 0  0.2 -0.875 0  0.225 -0.875 0  0.25 -0.875 0  -0.25 -0.85 0  -0.225 -0.85 0  -0.2 -0.85 0  -0.175 -0.85 0  -0.15 -0.85 0  -0.125 -0.85 0  -0.1 -0.85 0  -0.07500000000000001 -0.85 0  -0.04999999999999999 -0.85 0  -0.02499999999999999 -0.85 0  0 -0.85 0  0.02500000000000002 -0.85 0  0.04999999999999999 -0.85 0  0.07500000000000001 -0.85 0  0.09999999999999998 -0.85 0  0.125 -0.85 0  0.15 -0.85 0  0.175 -0.85 0  0.2 -0.85 0  0.225 -0.85 0  0.25 -0.85 0  -0.25 -0.825 0  -0.225 -0.825 0  -0.2 -0.825 0  -0.175 -0.825 0  -0.15 -0.825 0  -0.125 -0.825 0  -0.1 -0.825 0  -0.07500000000000001 -0.825 0  -0.04999999999999999 -0.825 0  -0.02499999999999999 -0.825 0  0 -0.825 0  0.02500000000000002 -0.825 0  0.04999999999999999 -0.825 0  0.07500000000000001 -0.825 0  0.09999999999999998 -0.825 0  0.125 -0.825 0  0.15 -0.825 0  0.175 -0.825 0  0.2 -0.825 0  0.225 -0.825 0  0.25 -0.825 0  -0.25 -0.8 0  -0.225 -0.8 0  -0.2 -0.8 0  -0.175 -0.8 0  -0.15 -0.8 0  -0.125 -0.8 0  -0.1 -0.8 0  -0.07500000000000001 -0.8 0  -0.04999999999999999 -0.8 0  -0.02499999999999999 -0.8 0  0 -0.8 0  0.02500000000000002 -0.8 0  0.04999999999999999 -0.8 0  0.07500000000000001 -0.8 0  0.09999999999999998 -0.8 0  0.125 -0.8 0  0.15 -0.8 0  0.175 -0.8 0  0.2 -0.8 0  0.225 -0.8 0  0.25 -0.8 0  -0.25 -0.775 0  -0.225 -0.775 0  -0.2 -0.775 0  -0.175 -0.775 0  -0.15 -0.775 0  -0.125 -0.775 0  -0.1 -0.775 0  -0.07500000000000001 -0.775 0  -0.04999999999999999 -0.775 0  -0.02499999999999999 -0.775 0  0 -0.775 0  0.02500000000000002 -0.775 0  0.04999999999999999 -0.775 0  0.07500000000000001 -0.775 0  0.09999999999999998 -0.775 0  0.125 -0.775 0  0.15 -0.775 0  0.175 -0.775 0  0.2 -0.775 0  0.225 -0.775 0  0.25 -0.775 0  -0.25 -0.75 0  -0.225 -0.75 0  -0.2 -0.75 0  -0.175 -0.75 0  -0.15 -0.75 0  -0.125 -0.75 0  -0.1 -0.75 0  -0.07500000000000001 -0.75 0  -0.04999999999999999 -0.75 0  -0.02499999999999999 -0.75 0  0 -0.75 0  0.02500000000000002 -0.75 0  0.04999999999999999 -0.75 0  0.07500000000000001 -0.75 0  0.09999999999999998 -0.75 0  0.125 -0.75 0  0.15 -0.75 0  0.175 -0.75 0  0.2 -0.75 0  0.225 -0.75 0  0.25 -0.75 0  -0.25 -0.725 0  -0.225 -0.725 0  -0.2 -0.725 0  -0.175 -0.725 0  -0.15 -0.725 0  -0.125 -0.725 0  -0.1 -0.725 0  -0.07500000000000001 -0.725 0  -0.04999999999999999 -0.725 0  -0.02499999999999999 -0.725 0  0 -0.725 0  0.02500000000000002 -0.725 0  0.04999999999999999 -0.725 0  0.07500000000000001 -0.725 0  0.09999999999999998 -0.725 0  0.125 -0.725 0  0.15 -0.725 0  0.175 -0.725 0  0.2 -0.725 0  0.225 -0.725 0  0.25 -0.725 0  -0.25 -0.7 0  -0.225 -0.7 0  -0.2 -0.7 0  -0.175 -0.7 0  -0.15 -0.7 0  -0.125 -0.7 0  -0.1 -0.7 0  -0.07500000000000001 -0.7 0  -0.04999999999999999 -0.7 0  -0.02499999999999999 -0.7 0  0 -0.7 0  0.02500000000000002 -0.7 0  0.04999999999999999 -0.7 0  0.07500000000000001 -0.7 0  0.09999999999999998 -0.7 0  0.125 -0.7 0  0.15 -0.7 0  0.175 -0.7 0  0.2 -0.7 0  0.225 -0.7 0  0.25 -0.7 0  -0.25 -0.675 0  -0.225 -0.675 0  -0.2 -0.675 0  -0.175 -0.675 0  -0.15 -0.675 0  -0.125 -0.675 0  -0.1 -0.675 0  -0.07500000000000001 -0.675 0  -0.04999999999999999 -0.675 0  -0.02499999999999999 -0.675 0  0 -0.675 0  0.02500000000000002 -0.675 0  0.04999999999999999 -0.675 0  0.07500000000000001 -0.675 0  0.09999999999999998 -0.675 0  0.125 -0.675 0  0.15 -0.675 0  0.175 -0.675 0  0.2 -0.675 0  0.225 -0.675 0  0.25 -0.675 0  -0.25 -0.65 0  -0.225 -0.65 0  -0.2 -0.65 0  -0.175 -0.65 0  -0.15 -0.65 0  -0.125 -0.65 0  -0.1 -0.65 0  -0.07500000000000001 -0.65 0  -0.04999999999999999 -0.65 0  -0.02499999999999999 -0.65 0  0 -0.65 0  0.02500000000000002 -0.65 0  0.04999999999999999 -0.65 0  0.07500000000000001 -0.65 0  0.09999999999999998 -0.65 0  0.125 -0.65 0  0.15 -0.65 0  0.175 -0.65 0  0.2 -0.65 0  0.225 -0.65 0  0.25 -0.65 0  -0.25 -0.625 0  -0.225 -0.625 0  -0.2 -0.625 0  -0.175 -0.625 0  -0.15 -0.625 0  -0.125 -0.625 0  -0.1 -0.625 0  -0.07500000000000001 -0.625 0  -0.04999999999999999 -0.625 0  -0.02499999999999999 -0.625 0  0 -0.625 0  0.02500000000000002 -0.625 0  0.04999999999999999 -0.625 0  0.07500000000000001 -0.625 0  0.09999999999999998 -0.625 0  0.125 -0.625 0  0.15 -0.625 0  0.175 -0.625 0  0.2 -0.625 0  0.225 -0.625 0  0.25 -0.625 0  -0.25 -0.6 0  -0.225 -0.6 0  -0.2 -0.6 0  -0.175 -0.6 0  -0.15 -0.6 0  -0.125 -0.6 0  -0.1 -0.6 0  -0.07500000000000001 -0.6 0  -0.04999999999999999 -0.6 0  -0.02499999999999999 -0.6 0  0 -0.6 0  0.02500000000000002 -0.6 0  0.04999999999999999 -0.6 0  0.07500000000000001 -0.6 0  0.09999999999999998 -0.6 0  0.125 -0.6 0  0.15 -0.6 0  0.175 -0.6 0  0.2 -0.6 0  0.225 -0.6 0  0.25 -0.6 0  -0.25 -0.575 0  -0.225 -0.575 0  -0.2 -0.575 0  -0.175 -0.575 0  -0.15 -0.575 0  -0.125 -0.575 0  -0.1 -0.575 0  -0.07500000000000001 -0.575 0  -0.04999999999999999 -0.575 0  -0.02499999999999999 -0.575 0  0 -0.575 0  0.02500000000000002 -0.575 0  0.04999999999999999 -0.575 0  0.07500000000000001 -0.575 0  0.09999999999999998 -0.575 0  0.125 -0.575 0  0.15 -0.575 0  0.175 -0.575 0  0.2 -0.575 0  0.225 -0.575 0  0.25 -0.575 0  -0.25 -0.55 0  -0.225 -0.55 0  -0.2 -0.55 0  -0.175 -0.55 0  -0.15 -0.55 0  -0.125 -0.55 0  -0.1 -0.55 0  -0.07500000000000001 -0.55 0  -0.04999999999999999 -0.55 0  -0.02499999999999999 -0.55 0  0 -0.55 0  0.02500000000000002 -0.55 0  0.04999999999999999 -0.55 0  0.07500000000000001 -0.55 0  0.09999999999999998 -0.55 0  0.125 -0.55 0  0.15 -0.55 0  0.175 -0.55 0  0.2 -0.55 0  0.225 -0.55 0  0.25 -0.55 0  -0.25 -0.525 0  -0.225 -0.525 0  -0.2 -0.525 0  -0.175 -0.525 0  -0.15 -0.525 0  -0.125 -0.525 0  -0.1 -0.525 0  -0.07500000000000001 -0.525 0  -0.04999999999999999 -0.525 0  -0.02499999999999999 -0.525 0  0 -0.525 0  0.02500000000000002 -0.525 0  0.04999999999999999 -0.525 0  0.07500000000000001 -0.525 0  0.09999999999999998 -0.525 0  0.125 -0.525 0  0.15 -0.525 0  0.175 -0.525 0  0.2 -0.525 0  0.225 -0.525 0  0.25 -0.525 0  -0.25 -0.5 0  -0.225 -0.5 0  -0.2 -0.5 0  -0.175 -0.5 0  -0.15 -0.5 0  -0.125 -0.5 0  -0.1 -0.5 0  -0.07500000000000001 -0.5 0  -0.04999999999999999 -0.5 0  -0.02499999999999999 -0.5 0  0 -0.5 0  0.02500000000000002 -0.5 0  0.04999999999999999 -0.5 0  0.07500000000000001 -0.5 0  0.09999999999999998 -0.5 0  0.125 -0.5 0  0.15 -0.5 0  0.175 -0.5 0  0.2 -0.5 0  0.225 -0.5 0  0.25 -0.5 0  -0.25 -0.475 0  -0.225 -0.475 0  -0.2 -0.475 0  -0.175 -0.475 0  -0.15 -0.475 0  -0.125 -0.475 0  -0.1 -0.475 0  -0.07500000000000001 -0.475 0  -0.04999999999999999 -0.475 0  -0.02499999999999999 -0.475 0  0 -0.475 0  0.02500000000000002 -0.475 0  0.04999999999999999 -0.475 0  0.07500000000000001 -0.475 0  0.09999999999999998 -0.475 0  0.125 -0.475 0  0.15 -0.475 0  0.175 -0.475 0  0.2 -0.475 0  0.225 -0.475 0  0.25 -0.475 0  -0.25 -0.45 0  -0.225 -0.45 0  -0.2 -0.45 0  -0.175 -0.45 0  -0.15 -0.45 0  -0.125 -0.45 0  -0.1 -0.45 0  -0.07500000000000001 -0.45 0  -0.04999999999999999 -0.45 0  -0.02499999999999999 -0.45 0  0 -0.45 0  0.02500000000000002 -0.45 0  0.04999999999999999 -0.45 0  0.07500000000000001 -0.45 0  0.09999999999999998 -0.45 0  0.125 -0.45 0  0.15 -0.45 0  0.175 -0.45 0  0.2 -0.45 0  0.225 -0.45 0  0.25 -0.45 0  -0.25 -0.425 0  -0.225 -0.425 0  -0.2 -0.425 0  -0.175 -0.425 0  -0.15 -0.425 0  -0.125 -0.425 0  -0.1 -0.425 0  -0.07500000000000001 -0.425 0  -0.04999999999999999 -0.425 0  -0.02499999999999999 -0.425 0  0 -0.425 0  0.02500000000000002 -0.425 0  0.04999999999999999 -0.425 0  0.07500000000000001 -0.425 0  0.
[...]
<PointData  Scalars="pressure"> 
<DataArray  type="Float64"  Name="pressure"  format="ascii">8.1790830072170228e+05  8.1790830072170147e+05  8.1790830072170217e+05  8.1790830072170252e+05  8.1790830072170182e+05  8.1790830072170054e+05  8.1790830072169553e+05  8.1790830072170252e+05  8.1790830072170729e+05  8.1790830072171066e+05  8.1790830072171253e+05  8.1790830072171392e+05  8.1790830072171520e+05  8.1790830072171602e+05  8.1790830072172056e+05  8.1790830072171893e+05  8.1790830072171916e+05  8.1790830072171811e+05  8.1790830072171858e+05  8.1790830072171846e+05  8.1790830072171835e+05  8.1727772306343308e+05  8.1727772306343284e+05  8.1727772306343319e+05  8.1727772306343494e+05  8.1727772306343378e+05  8.1727772306343331e+05  8.1727772306342970e+05  8.1727772306343599e+05  8.1727772306343832e+05  8.1727772306344204e+05  8.1727772306344518e+05  8.1727772306344681e+05  8.1727772306344507e+05  8.1727772306344751e+05  8.1727772306344938e+05  8.1727772306344868e+05  8.1727772306344938e+05  8.1727772306344972e+05  8.1727772306344879e+05  8.1727772306344961e+05  8.1727772306345077e+05  8.1538696239367151e+05  8.1538696239367197e+05  8.1538696239367174e+05  8.1538696239367547e+05  8.1538696239367442e+05  8.1538696239367255e+05  8.1538696239367931e+05  8.1538696239367547e+05  8.1538696239367838e+05  8.1538696239368082e+05  8.1538696239368862e+05  8.1538696239368513e+05  8.1538696239368548e+05  8.1538696239368711e+05  8.1538696239368105e+05  8.1538696239368862e+05  8.1538696239368874e+05  8.1538696239368757e+05  8.1538696239368583e+05  8.1538696239368734e+05  8.1538696239368699e+05  8.1223893412832776e+05  8.1223893412832753e+05  8.1223893412832660e+05  8.1223893412832520e+05  8.1223893412832695e+05  8.1223893412832695e+05  8.1223893412832066e+05  8.1223893412832997e+05  8.1223893412833242e+05  8.1223893412833614e+05  8.1223893412833801e+05  8.1223893412834185e+05  8.1223893412834511e+05  8.1223893412834569e+05  8.1223893412834988e+05  8.1223893412834755e+05  8.1223893412834592e+05  8.1223893412834336e+05  8.1223893412833929e+05  8.1223893412833894e+05  8.1223893412833964e+05  8.0783849229880970e+05  8.0783849229880865e+05  8.0783849229880772e+05  8.0783849229880422e+05  8.0783849229880492e+05  8.0783849229880609e+05  8.0783849229881307e+05  8.0783849229881377e+05  8.0783849229881505e+05  8.0783849229881784e+05  8.0783849229882145e+05  8.0783849229882669e+05  8.0783849229883077e+05  8.0783849229883321e+05  8.0783849229883740e+05  8.0783849229883205e+05  8.0783849229882855e+05  8.0783849229882518e+05  8.0783849229882006e+05  8.0783849229881994e+05  8.0783849229882029e+05  8.0219242206746317e+05  8.0219242206746468e+05  8.0219242206746619e+05  8.0219242206746398e+05  8.0219242206746538e+05  8.0219242206747120e+05  8.0219242206747527e+05  8.0219242206747388e+05  8.0219242206747353e+05  8.0219242206747760e+05  8.0219242206748296e+05  8.0219242206749041e+05  8.0219242206749460e+05  8.0219242206749425e+05  8.0219242206749099e+05  8.0219242206749099e+05  8.0219242206749099e+05  8.0219242206748296e+05  8.0219242206748016e+05  8.0219242206747888e+05  8.0219242206748005e+05  7.9530942926535860e+05  7.9530942926536244e+05  7.9530942926536594e+05  7.9530942926536233e+05  7.9530942926536524e+05  7.9530942926537257e+05  7.9530942926538491e+05  7.9530942926537176e+05  7.9530942926536931e+05  7.9530942926537583e+05  7.9530942926538188e+05  7.9530942926539527e+05  7.9530942926539760e+05  7.9530942926539574e+05  7.9530942926539073e+05  7.9530942926538945e+05  7.9530942926538852e+05  7.9530942926538293e+05  7.9530942926538095e+05  7.9530942926537886e+05  7.9530942926537932e+05  7.8720012696850603e+05  7.8720012696850777e+05  7.8720012696851220e+05  7.8720012696851534e+05  7.8720012696851580e+05  7.8720012696852221e+05  7.8720012696852325e+05  7.8720012696852128e+05  7.8720012696852337e+05  7.8720012696852430e+05  7.8720012696853094e+05  7.8720012696853885e+05  7.8720012696854316e+05  7.8720012696854654e+05  7.8720012696854246e+05  7.8720012696854060e+05  7.8720012696853653e+05  7.8720012696853606e+05  7.8720012696853257e+05  7.8720012696852849e+05  7.8720012696852779e+05  7.7787701913326513e+05  7.7787701913326746e+05  7.7787701913328108e+05  7.7787701913328236e+05  7.7787701913328760e+05  7.7787701913328678e+05  7.7787701913328620e+05  7.7787701913328597e+05  7.7787701913328574e+05  7.7787701913329202e+05  7.7787701913329726e+05  7.7787701913330366e+05  7.7787701913330948e+05  7.7787701913331437e+05  7.7787701913332054e+05  7.7787701913331309e+05  7.7787701913330657e+05  7.7787701913330262e+05  7.7787701913330040e+05  7.7787701913329738e+05  7.7787701913329796e+05  7.6735448131618171e+05  7.6735448131618171e+05  7.6735448131618882e+05  7.6735448131619010e+05  7.6735448131618719e+05  7.6735448131618730e+05  7.6735448131618812e+05  7.6735448131619510e+05  7.6735448131620162e+05  7.6735448131620721e+05  7.6735448131621431e+05  7.6735448131621827e+05  7.6735448131622386e+05  7.6735448131623259e+05  7.6735448131623946e+05  7.6735448131622304e+05  7.6735448131621664e+05  7.6735448131621210e+05  7.6735448131621513e+05  7.6735448131622118e+05  7.6735448131621606e+05  7.5564873850786407e+05  7.5564873850786546e+05  7.5564873850786535e+05  7.5564873850786826e+05  7.5564873850787291e+05  7.5564873850786570e+05  7.5564873850786546e+05  7.5564873850787990e+05  7.5564873850788455e+05  7.5564873850789573e+05  7.5564873850789957e+05  7.5564873850790306e+05  7.5564873850791261e+05  7.5564873850791343e+05  7.5564873850791866e+05  7.5564873850790877e+05  7.5564873850789655e+05  7.5564873850789911e+05  7.5564873850790039e+05  7.5564873850790574e+05  7.5564873850790807e+05  7.4277784011528012e+05  7.4277784011527814e+05  7.4277784011527931e+05  7.4277784011527745e+05  7.4277784011527465e+05  7.4277784011527849e+05  7.4277784011528175e+05  7.4277784011529223e+05  7.4277784011529735e+05  7.4277784011530795e+05  7.4277784011531423e+05  7.4277784011532145e+05  7.4277784011532669e+05  7.4277784011533263e+05  7.4277784011533193e+05  7.4277784011533065e+05  7.4277784011533170e+05  7.4277784011532308e+05  7.4277784011532611e+05  7.4277784011532739e+05  7.4277784011532937e+05  7.2876163213085406e+05  7.2876163213084557e+05  7.2876163213085406e+05  7.2876163213084848e+05  7.2876163213084266e+05  7.2876163213084592e+05  7.2876163213084743e+05  7.2876163213085907e+05  7.2876163213086757e+05  7.2876163213087618e+05  7.2876163213087898e+05  7.2876163213089190e+05  7.2876163213089993e+05  7.2876163213091076e+05  7.2876163213091251e+05  7.2876163213090680e+05  7.2876163213090389e+05  7.2876163213090168e+05  7.2876163213089912e+05  7.2876163213089749e+05  7.2876163213090040e+05  7.1362172653137241e+05  7.1362172653137194e+05  7.1362172653137136e+05  7.1362172653136391e+05  7.1362172653136100e+05  7.1362172653136321e+05  7.1362172653136682e+05  7.1362172653136961e+05  7.1362172653138125e+05  7.1362172653138998e+05  7.1362172653139569e+05  7.1362172653140267e+05  7.1362172653141338e+05  7.1362172653142770e+05  7.1362172653144284e+05  7.1362172653143923e+05  7.1362172653143411e+05  7.1362172653142852e+05  7.1362172653142805e+05  7.1362172653141979e+05  7.1362172653142503e+05  6.9738146795390977e+05  6.9738146795390849e+05  6.9738146795390872e+05  6.9738146795390185e+05  6.9738146795389522e+05  6.9738146795389580e+05  6.9738146795389277e+05  6.9738146795389883e+05  6.9738146795390837e+05  6.9738146795391722e+05  6.9738146795392002e+05  6.9738146795392141e+05  6.9738146795393527e+05  6.9738146795395913e+05  6.9738146795398276e+05  6.9738146795397962e+05  6.9738146795397962e+05  6.9738146795397368e+05  6.9738146795397042e+05  6.9738146795397031e+05  6.9738146795397275e+05  6.8006589770006202e+05  6.8006589770006668e+05  6.8006589770006936e+05  6.8006589770006912e+05  6.8006589770006423e+05  6.8006589770006516e+05  6.8006589770007040e+05  6.8006589770006586e+05  6.8006589770006912e+05  6.8006589770008135e+05  6.8006589770008693e+05  6.8006589770009590e+05  6.8006589770010964e+05  6.8006589770012686e+05  6.8006589770015294e+05  6.8006589770015213e+05  6.8006589770015585e+05  6.8006589770015061e+05  6.8006589770015143e+05  6.8006589770015213e+05  6.8006589770015364e+05  6.6170171512411896e+05  6.6170171512412792e+05  6.6170171512413805e+05  6.6170171512413619e+05  6.6170171512414166e+05  6.6170171512413886e+05  6.6170171512414364e+05  6.6170171512415470e+05  6.6170171512416098e+05  6.6170171512416552e+05  6.6170171512416855e+05  6.6170171512418345e+05  6.6170171512419672e+05  6.6170171512421069e+05  6.6170171512422338e+05  6.6170171512422781e+05  6.6170171512424096e+05  6.6170171512423444e+05  6.6170171512423526e+05  6.6170171512423793e+05  6.6170171512424329e+05  6.4231723646459600e+05  6.4231723646459496e+05  6.4231723646459205e+05  6.4231723646459274e+05  6.4231723646459274e+05  6.4231723646459426e+05  6.4231723646460008e+05  6.4231723646461079e+05  6.4231723646462103e+05  6.4231723646463163e+05  6.4231723646464990e+05  6.4231723646465084e+05  6.4231723646466294e+05  6.4231723646467784e+05  6.4231723646468366e+05  6.4231723646469472e+05  6.4231723646470497e+05  6.4231723646470846e+05  6.4231723646470590e+05  6.4231723646470334e+05  6.4231723646471219e+05  6.2194235118250747e+05  6.2194235118251469e+05  6.2194235118251690e+05  6.2194235118250432e+05  6.2194235118249571e+05  6.2194235118249618e+05  6.2194235118249431e+05  6.2194235118251806e+05  6.2194235118253762e+05  6.2194235118255101e+05  6.2194235118256055e+05  6.2194235118257173e+05  6.2194235118258430e+05  6.2194235118259478e+05  6.2194235118261608e+05  6.2194235118262761e+05  6.2194235118262889e+05  6.2194235118262051e+05  6.2194235118260921e+05  6.2194235118259559e+05  6.2194235118259781e+05  6.0060847587417206e+05  6.0060847587418184e+05  6.0060847587418184e+05  6.0060847587417730e+05  6.0060847587416403e+05  6.0060847587417287e+05  6.0060847587417590e+05  6.0060847587419441e+05  6.0060847587421292e+05  6.0060847587422410e+05  6.0060847587424074e+05  6.0060847587425064e+05  6.0060847587426403e+05  6.0060847587427462e+05  6.0060847587427683e+05  6.0060847587428708e+05  6.0060847587428219e+05  6.0060847587427741e+05  6.0060847587426577e+05  6.0060847587426391e+05  6.0060847587426298e+05  5.7834850582900271e+05  5.7834850582900876e+05  5.7834850582901121e+05  5.7834850582901109e+05  5.7834850582901004e+05  5.7834850582901342e+05  5.7834850582901936e+05  5.7834850582903693e+05  5.7834850582905184e+05  5.7834850582906441e+05  5.7834850582907675e+05  5.7834850582909165e+05  5.7834850582910702e+05  5.7834850582911621e+05  5.7834850582913007e+05  5.7834850582911912e+05  5.7834850582911656e+05  5.7834850582910969e+05  5.7834850582910120e+05  5.7834850582909642e+05  5.7834850582910224e+05  5.5519676430738124e+05  5.5519676430737996e+05  5.5519676430737530e+05  5.5519676430737716e+05  5.5519676430738671e+05  5.5519676430739032e+05  5.5519676430739101e+05  5.5519676430742280e+05  5.5519676430743234e+05  5.5519676430744899e+05  5.5519676430745807e+05  5.5519676430747716e+05  5.5519676430749428e+05  5.5519676430750825e+05  5.5519676430751593e+05  5.5519676430750114e+05  5.5519676430749241e+05  5.5519676430749008e+05  5.5519676430749008e+05  5.5519676430748787e+05  5.5519676430748496e+05  5.3118894961665187e+05  5.3118894961664779e+05  5.3118894961664965e+05  5.3118894961665652e+05  5.3118894961665955e+05  5.3118894961666712e+05  5.3118894961666653e+05  5.3118894961670320e+05  5.3118894961672311e+05  5.3118894961672975e+05  5.3118894961675024e+05  5.3118894961676688e+05  5.3118894961679145e+05  5.3118894961680542e+05  5.3118894961680379e+05  5.3118894961679529e+05  5.3118894961678563e+05  5.3118894961678667e+05  5.3118894961679017e+05  5.3118894961678365e+05  5.3118894961678749e+05  5.0636208006695221e+05  5.0636208006695646e+05  5.0636208006696816e+05  5.0636208006696776e+05  5.0636208006697928e+05  5.0636208006698772e+05  5.0636208006700239e+05  5.0636208006702189e+05  5.0636208006704669e+05  5.0636208006706421e+05  5.0636208006707922e+05  5.0636208006709442e+05  5.0636208006711170e+05  5.0636208006712230e+05  5.0636208006712591e+05  5.0636208006713405e+05  5.0636208006713964e+05  5.0636208006713464e+05  5.0636208006712724e+05  5.0636208006712067e+05  5.0636208006711787e+05  4.8075443689164770e+05  4.8075443689165835e+05  4.8075443689165829e+05  4.8075443689167791e+05  4.8075443689167983e+05  4.8075443689169094e+05  4.8075443689171964e+05  4.8075443689174007e+05  4.8075443689176213e+05  4.8075443689177092e+05  4.8075443689178902e+05  4.8075443689181033e+05  4.8075443689182709e+05  4.8075443689183891e+05  4.8075443689184170e+05  4.8075443689185288e+05  4.8075443689186120e+05  4.8075443689185748e+05  4.8075443689186068e+05  4.8075443689184601e+05  4.8075443689184875e+05  4.5440550522047863e+05  4.5440550522048579e+05  4.5440550522049237e+05  4.5440550522049953e+05  4.5440550522049743e+05  4.5440550522050995e+05  4.5440550522051816e+05  4.5440550522054278e+05  4.5440550522056269e+05  4.5440550522057712e+05  4.5440550522058830e+05  4.5440550522060908e+05  4.5440550522062590e+05  4.5440550522064039e+05  4.5440550522065029e+05  4.5440550522066606e+05  4.5440550522067066e+05  4.5440550522066769e+05  4.5440550522067078e+05  4.5440550522066071e+05  4.5440550522065797e+05  4.2735591319621645e+05  4.2735591319622094e+05  4.2735591319622879e+05  4.2735591319622926e+05  4.2735591319623671e+05  4.2735591319623770e+05  4.2735591319623997e+05  4.2735591319626215e+05  4.2735591319627705e+05  4.2735591319629672e+05  4.2735591319631936e+05  4.2735591319632478e+05  4.2735591319633235e+05  4.2735591319635935e+05  4.2735591319638066e+05  4.2735591319639067e+05  4.2735591319638636e+05  4.2735591319637856e+05  4.2735591319637717e+05  4.2735591319638072e+05  4.2735591319638485e+05  3.9964736932918156e+05  3.9964736932918569e+05  3.9964736932918080e+05  3.9964736932917906e+05  3.9964736932917632e+05  3.9964736932917591e+05  3.9964736932915944e+05  3.9964736932919134e+05  3.9964736932921421e+05  3.9964736932922894e+05  3.9964736932925635e+05  3.9964736932927812e+05  3.9964736932929006e+05  3.9964736932931416e+05  3.9964736932934308e+05  3.9964736932934087e+05  3.9964736932934250e+05  3.9964736932932766e+05  3.9964736932932568e+05  3.9964736932932766e+05  3.9964736932932882e+05  3.7132259818564693e+05  3.7132259818565211e+05  3.7132259818565793e+05  3.7132259818564920e+05  3.7132259818563896e+05  3.7132259818563680e+05  3.7132259818561457e+05  3.7132259818564303e+05  3.7132259818566439e+05  3.7132259818568715e+05  3.7132259818570828e+05  3.7132259818573599e+05  3.7132259818574879e+05  3.7132259818578779e+05  3.7132259818583902e+05  3.7132259818581259e+05  3.7132259818580677e+05  3.7132259818579128e+05  3.7132259818577970e+05  3.7132259818578087e+05  3.7132259818577731e+05  3.4242527450971788e+05  3.4242527450971899e+05  3.4242527450972679e+05  3.4242527450971253e+05  3.4242527450969437e+05  3.4242527450968535e+05  3.4242527450967138e+05  3.4242527450969012e+05  3.4242527450972138e+05  3.4242527450973890e+05  3.4242527450976864e+05  3.4242527450978447e+05  3.4242527450981288e+05  3.4242527450984460e+05  3.4242527450988948e+05  3.4242527450987179e+05  3.4242527450983995e+05  3.4242527450983535e+05  3.4242527450982097e+05  3.4242527450981352e+05  3.4242527450981771e+05  3.1299995587997127e+05  3.1299995587997697e+05  3.1299995587997016e+05  3.1299995587996457e+05  3.1299995587994851e+05  3.1299995587994409e+05  3.1299995587992331e+05  3.1299995587994071e+05  3.1299995587995229e+05  3.1299995587997354e+05  3.1299995587999246e+05  3.1299995588002191e+05  3.1299995588005875e+05  3.1299995588007529e+05  3.1299995588012401e+05  3.1299995588009548e+05  3.1299995588007662e+05  3.1299995588005637e+05  3.1299995588006487e+05  3.1299995588004985e+05  3.1299995588005398e+05  2.8309201400496322e+05  2.8309201400496095e+05  2.8309201400495216e+05  2.8309201400494488e+05  2.8309201400493435e+05  2.8309201400492812e+05  2.8309201400491537e+05  2.8309201400494558e+05  2.8309201400494028e+05  2.8309201400495658e+05  2.8309201400497573e+05  2.8309201400499605e+05  2.8309201400503231e+05  2.8309201400504843e+05  2.8309201400506427e+05  2.8309201400505751e+05  2.8309201400503819e+05  2.8309201400503225e+05  2.8309201400502468e+05  2.8309201400502142e+05  2.8309201400503423e+05  2.5274756476326380e+05  2.5274756476325641e+05  2.5274756476326170e+05  2.5274756476325958e+05  2.5274756476323740e+05  2.5274756476323688e+05  2.5274756476322326e+05  2.5274756476324549e+05  2.5274756476324421e+05  2.5274756476325655e+05  2.5274756476327230e+05  2.5274756476329156e+05  2.5274756476330489e+05  2.5274756476332579e+05  2.5274756476334058e+05  2.5274756476333452e+05  2.5274756476332745e+05  2.5274756476331980e+05  2.5274756476332861e+05  2.5274756476333278e+05  2.5274756476332314e+05  2.2201339709620673e+05  2.2201339709621060e+05  2.2201339709620626e+05  2.2201339709620352e+05  2.2201339709620184e+05  2.2201339709619837e+05  2.2201339709618420e+05  2.2201339709619558e+05  2.2201339709618679e+05  2.2201339709620873e+05  2.2201339709622873e+05  2.2201339709623589e+05  2.2201339709624904e+05  2.2201339709625510e+05  2.2201339709625841e+05  2.2201339709626726e+05  2.2201339709626054e+05  2.2201339709626569e+05  2.2201339709625221e+05  2.2201339709625830e+05  2.2201339709625868e+05  1.9093690086267592e+05  1.9093690086267079e+05  1.9093690086265682e+05  1.9093690086266203e+05  1.9093690086267036e+05  1.9093690086266384e+05  1.9093690086267231e+05  1.9093690086268130e+05  1.9093690086267795e+05  1.9093690086269975e+05  1.9093690086270895e+05  1.9093690086272280e+05  1.9093690086272793e+05  1.9093690086272013e+05  1.9093690086270895e+05  1.9093690086271154e+05  1.9093690086271110e+05  1.9093690086271235e+05  1.9093690086270595e+05  1.9093690086271416e+05  1.9093690086271946e+05  1.5956599376740085e+05  1.5956599376739396e+05  1.5956599376739105e+05  1.5956599376737248e+05  1.5956599376738493e+05  1.5956599376737955e+05  1.5956599376739183e+05  1.5956599376739946e+05  1.5956599376740825e+05  1.5956599376742300e+05  1.5956599376743313e+05  1.5956599376744748e+05  1.5956599376745117e+05  1.5956599376744745e+05  1.5956599376743197e+05  1.5956599376742792e+05  1.5956599376742580e+05  1.5956599376741180e+05  1.5956599376742195e+05  1.5956599376742169e+05  1.5956599376742536e+05  1.2794904747532366e+05  1.2794904747532008e+05  1.2794904747530288e+05  1.2794904747527797e+05  1.2794904747527141e+05  1.2794904747528561e+05  1.2794904747529104e+05  1.2794904747531112e+05  1.2794904747531813e+05  1.2794904747532922e+05  1.2794904747533596e+05  1.2794904747534340e+05  1.2794904747534660e+05  1.2794904747534414e+05  1.2794904747533711e+05  1.2794904747533107e+05  1.2794904747532324e+05  1.2794904747531166e+05  1.2794904747530623e+05  1.2794904747532267e+05  1.2794904747532470e+05  9.6134813025945114e+04  9.6134813025941054e+04  9.6134813025934433e+04  9.6134813025931493e+04  9.6134813025919924e+04  9.6134813025935466e+04  9.6134813025939948e+04  9.6134813025950294e+04  9.6134813025964948e+04  9.6134813025954893e+04  9.6134813025962489e+04  9.6134813025967829e+04  9.6134813025967873e+04  9.6134813025974232e+04  9.6134813025957847e+04  9.6134813025972908e+04  9.6134813025976197e+04  9.6134813025954165e+04  9.6134813025955489e+04  9.6134813025951371e+04  9.6134813025950294e+04  6.4172345662893626e+04  6.4172345662895146e+04  6.4172345662893647e+04  6.4172345662878179e+04  6.4172345662874694e+04  6.4172345662888139e+04  6.4172345662907319e+04  6.4172345662899847e+04  6.4172345662902386e+04  6.4172345662897300e+04  6.4172345662905776e+04  6.4172345662899810e+04  6.4172345662903906e+04  6.4172345662903055e+04  6.4172345662901353e+04  6.4172345662921391e+04  6.4172345662916305e+04  6.4172345662902662e+04  6.4172345662889573e+04  6.4172345662893626e+04  6.4172345662898813e+04  3.2110929194137170e+04  3.2110929194137778e+04  3.2110929194135275e+04  3.2110929194124885e+04  3.2110929194120767e+04  3.2110929194132481e+04  3.2110929194130520e+04  3.2110929194137167e+04  3.2110929194147313e+04  3.2110929194133980e+04  3.211092919