<?xml version="1.0"?>
<VTKFile type="UnstructuredGrid"  version="0.1"  >
<UnstructuredGrid>
<Piece  NumberOfPoints="431" NumberOfCells="800">
<Points>
<DataArray  type="Float64"  NumberOfComponents="3"  format="ascii">-0.25 -1 0  -0.2 -1 0  -0.15 -1 0  -0.1 -1 0  -0.04999999999999999 -1 0  0 -1 0  0.04999999999999999 -1 0  0.09999999999999998 -1 0  0.15 -1 0  0.2 -1 0  0.25 -1 0  -0.25 -0.95 0  -0.2 -0.95 0  -0.15 -0.95 0  -0.1 -0.95 0  -0.04999999999999999 -0.95 0  0 -0.95 0  0.04999999999999999 -0.95 0  0.09999999999999998 -0.95 0  0.15 -0.95 0  0.2 -0.95 0  0.25 -0.95 0  -0.25 -0.9 0  -0.2 -0.9 0  -0.15 -0.9 0  -0.1 -0.9 0  -0.04999999999999999 -0.9 0  0 -0.9 0  0.04999999999999999 -0.9 0  0.09999999999999998 -0.9 0  0.15 -0.9 0  0.2 -0.9 0  0.25 -0.9 0  -0.25 -0.85 0  -0.2 -0.85 0  -0.15 -0.85 0  -0.1 -0.85 0  -0.04999999999999999 -0.85 0  0 -0.85 0  0.04999999999999999 -0.85 0  0.09999999999999998 -0.85 0  0.15 -0.85 0  0.2 -0.85 0  0.25 -0.85 0  -0.25 -0.8 0  -0.2 -0.8 0  -0.15 -0.8 0  -0.1 -0.8 0  -0.04999999999999999 -0.8 0  0 -0.8 0  0.04999999999999999 -0.8 0  0.09999999999999998 -0.8 0  0.15 -0.8 0  0.2 -0.8 0  0.25 -0.8 0  -0.25 -0.75 0  -0.2 -0.75 0  -0.15 -0.75 0  -0.1 -0.75 0  -0.04999999999999999 -0.75 0  0 -0.75 0  0.04999999999999999 -0.75 0  0.09999999999999998 -0.75 0  0.15 -0.75 0  0.2 -0.75 0  0.25 -0.75 0  -0.25 -0.7 0  -0.2 -0.7 0  -0.15 -0.7 0  -0.1 -0.7 0  -0.04999999999999999 -0.7 0  0 -0.7 0  0.04999999999999999 -0.7 0  0.09999999999999998 -0.7 0  0.15 -0.7 0  0.2 -0.7 0  0.25 -0.7 0  -0.25 -0.65 0  -0.2 -0.65 0  -0.15 -0.65 0  -0.1 -0.65 0  -0.04999999999999999 -0.65 0  0 -0.65 0  0.04999999999999999 -0.65 0  0.09999999999999998 -0.65 0  0.15 -0.65 0  0.2 -0.65 0  0.25 -0.65 0  -0.25 -0.6 0  -0.2 -0.6 0  -0.15 -0.6 0  -0.1 -0.6 0  -0.04999999999999999 -0.6 0  0 -0.6 0  0.04999999999999999 -0.6 0  0.09999999999999998 -0.6 0  0.15 -0.6 0  0.2 -0.6 0  0.25 -0.6 0  -0.25 -0.55 0  -0.2 -0.55 0  -0.15 -0.55 0  -0.1 -0.55 0  -0.04999999999999999 -0.55 0  0 -0.55 0  0.04999999999999999 -0.55 0  0.09999999999999998 -0.55 0  0.15 -0.55 0  0.2 -0.55 0  0.25 -0.55 0  -0.25 -0.5 0  -0.2 -0.5 0  -0.15 -0.5 0  -0.1 -0.5 0  -0.04999999999999999 -0.5 0  0 -0.5 0  0.04999999999999999 -0.5 0  0.09999999999999998 -0.5 0  0.15 -0.5 0  0.2 -0.5 0  0.25 -0.5 0  -0.25 -0.45 0  -0.2 -0.45 0  -0.15 -0.45 0  -0.1 -0.45 0  -0.04999999999999999 -0.45 0  0 -0.45 0  0.04999999999999999 -0.45 0  0.09999999999999998 -0.45 0  0.15 -0.45 0  0.2 -0.45 0  0.25 -0.45 0  -0.25 -0.4 0  -0.2 -0.4 0  -0.15 -0.4 0  -0.1 -0.4 0  -0.04999999999999999 -0.4 0  0 -0.4 0  0.04999999999999999 -0.4 0  0.09999999999999998 -0.4 0  0.15 -0.4 0  0.2 -0.4 0  0.25 -0.4 0  -0.25 -0.35 0  -0.2 -0.35 0  -0.15 -0.35 0  -0.1 -0.35 0  -0.04999999999999999 -0.35 0  0 -0.35 0  0.04999999999999999 -0.35 0  0.09999999999999998 -0.35 0  0.15 -0.35 0  0.2 -0.35 0  0.25 -0.35 0  -0.25 -0.3 0  -0.2 -0.3 0  -0.15 -0.3 0  -0.1 -0.3 0  -0.04999999999999999 -0.3 0  0 -0.3 0  0.04999999999999999 -0.3 0  0.09999999999999998 -0.3 0  0.15 -0.3 0  0.2 -0.3 0  0.25 -0.3 0  -0.25 -0.25 0  -0.2 -0.25 0  -0.15 -0.25 0  -0.1 -0.25 0  -0.04999999999999999 -0.25 0  0 -0.25 0  0.04999999999999999 -0.25 0  0.09999999999999998 -0.25 0  0.15 -0.25 0  0.2 -0.25 0  0.25 -0.25 0  -0.25 -0.2 0  -0.2 -0.2 0  -0.15 -0.2 0  -0.1 -0.2 0  -0.04999999999999999 -0.2 0  0 -0.2 0  0.04999999999999999 -0.2 0  0.09999999999999998 -0.2 0  0.15 -0.2 0  0.2 -0.2 0  0.25 -0.2 0  -0.25 -0.15 0  -0.2 -0.15 0  -0.15 -0.15 0  -0.1 -0.15 0  -0.04999999999999999 -0.15 0  0 -0.15 0  0.04999999999999999 -0.15 0  0.09999999999999998 -0.15 0  0.15 -0.15 0  0.2 -0.15 0  0.25 -0.15 0  -0.25 -0.09999999999999998 0  -0.2 -0.09999999999999998 0  -0.15 -0.09999999999999998 0  -0.1 -0.09999999999999998 0  -0.04999999999999999 -0.09999999999999998 0  0 -0.09999999999999998 0  0.04999999999999999 -0.09999999999999998 0  0.09999999999999998 -0.09999999999999998 0  0.15 -0.09999999999999998 0  0.2 -0.09999999999999998 0  0.25 -0.09999999999999998 0  -0.25 -0.05000000000000004 0  -0.2 -0.05000000000000004 0  -0.15 -0.05000000000000004 0  -0.1 -0.05000000000000004 0  -0.04999999999999999 -0.05000000000000004 0  0 -0.05000000000000004 0  0.04999999999999999 -0.05000000000000004 0  0.09999999999999998 -0.05000000000000004 0  0.15 -0.05000000000000004 0  0.2 -0.05000000000000004 0  0.25 -0.05000000000000004 0  -0.25 0 0  -0.2 0 0  -0.15 0 0  -0.1 0 0  -0.04999999999999999 0 0  0 0 0  0.04999999999999999 0 0  0.09999999999999998 0 0  0.15 0 0  0.2 0 0  0.25 0 0  -0.225 -0.975 0  -0.175 -0.975 0  -0.125 -0.975 0  -0.07500000000000001 -0.975 0  -0.02499999999999999 -0.975 0  0.02500000000000002 -0.975 0  0.07500000000000001 -0.975 0  0.125 -0.975 0  0.175 -0.975 0  0.225 -0.975 0  -0.225 -0.925 0  -0.175 -0.925 0  -0.125 -0.925 0  -0.07500000000000001 -0.925 0  -0.02499999999999999 -0.925 0  0.02500000000000002 -0.925 0  0.07500000000000001 -0.925 0  0.125 -0.925 0  0.175 -0.925 0  0.225 -0.925 0  -0.225 -0.875 0  -0.175 -0.875 0  -0.125 -0.875 0  -0.07500000000000001 -0.875 0  -0.02499999999999999 -0.875 0  0.02500000000000002 -0.875 0  0.07500000000000001 -0.875 0  0.125 -0.875 0  0.175 -0.875 0  0.225 -0.875 0  -0.225 -0.825 0  -0.175 -0.825 0  -0.125 -0.825 0  -0.07500000000000001 -0.825 0  -0.02499999999999999 -0.825 0  0.02500000000000002 -0.825 0  0.07500000000000001 -0.825 0  0.125 -0.825 0  0.175 -0.825 0  0.225 -0.825 0  -0.225 -0.775 0  -0.175 -0.775 0  -0.125 -0.775 0  -0.07500000000000001 -0.775 0  -0.02499999999999999 -0.775 0  0.02500000000000002 -0.775 0  0.07500000000000001 -0.775 0  0.125 -0.775 0  0.175 -0.775 0  0.225 -0.775 0  -0.225 -0.725 0  -0.175 -0.725 0  -0.125 -0.725 0  -0.07500000000000001 -0.725 0  -0.02499999999999999 -0.725 0  0.02500000000000002 -0.725 0  0.07500000000000001 -0.725 0  0.125 -0.725 0  0.175 -0.725 0  0.225 -0.725 0  -0.225 -0.675 0  -0.175 -0.675 0  -0.125 -0.675 0  -0.07500000000000001 -0.675 0  -0.02499999999999999 -0.675 0  0.02500000000000002 -0.675 0  0.07500000000000001 -0.675 0  0.125 -0.675 0  0.175 -0.675 0  0.225 -0.675 0  -0.225 -0.625 0  -0.175 -0.625 0  -0.125 -0.625 0  -0.07500000000000001 -0.625 0  -0.02499999999999999 -0.625 0  0.02500000000000002 -0.625 0  0.07500000000000001 -0.625 0  0.125 -0.625 0  0.175 -0.625 0  0.225 -0.625 0  -0.225 -0.575 0  -0.175 -0.575 0  -0.125 -0.575 0  -0.07500000000000001 -0.575 0  -0.02499999999999999 -0.575 0  0.02500000000000002 -0.575 0  0.07500000000000001 -0.575 0  0.125 -0.575 0  0.175 -0.575 0  0.225 -0.575 0  -0.225 -0.525 0  -0.175 -0.525 0  -0.125 -0.525 0  -0.07500000000000001 -0.525 0  -0.02499999999999999 -0.525 0  0.02500000000000002 -0.525 0  0.07500000000000001 -0.525 0  0.125 -0.525 0  0.175 -0.525 0  0.225 -0.525 0  -0.225 -0.475 0  -0.175 -0.475 0  -0.125 -0.475 0  -0.07500000000000001 -0.475 0  -0.02499999999999999 -0.475 0  0.02500000000000002 -0.475 0  0.07500000000000001 -0.475 0  0.125 -0.475 0  0.175 -0.475 0  0.225 -0.475 0  -0.225 -0.425 0  -0.175 -0.425 0  -0.125 -0.425 0  -0.07500000000000001 -0.425 0  -0.02499999999999999 -0.425 0  0.02500000000000002 -0.425 0  0.07500000000000001 -0.425 0  0.125 -0.425 0  0.175 -0.425 0  0.225 -0.425 0  -0.225 -0.375 0  -0.175 -0.375 0  -0.125 -0.375 0  -0.07500000000000001 -0.375 0  -0.02499999999999999 -0.375 0  0.02500000000000002 -0.375 0  0.07500000000000001 -0.375 0  0.125 -0.375 0  0.175 -0.375 0  0.225 -0.375 0  -0.225 -0.325 0  -0.175 -0.325 0  -0.125 -0.325 0  -0.07500000000000001 -0.325 0  -0.02499999999999999 -0.325 0  0.02500000000000002 -0.325 0  0.07500000000000001 -0.325 0  0.125 -0.325 0  0.175 -0.325 0  0.225 -0.325 0  -0.225 -0.275 0  -0.175 -0.275 0  -0.125 -0.275 0  -0.07500000000000001 -0.275 0  -0.02499999999999999 -0.275 0  0.02500000000000002 -0.275 0  0.07500000000000001 -0.275 0  0.125 -0.275 0  0.175 -0.275 0  0.225 -0.275 0  -0.225 -0.225 0  -0.175 -0.225 0  -0.125 -0.225 0  -0.07500000000000001 -0.225 0  -0.02499999999999999 -0.225 0  0.02500000000000002 -0.225 0  0.07500000000000001 -0.225 0  0.125 -0.225 0  0.175 -0.225 0  0.225 -0.225 0  -0.225 -0.175 0  -0.175 -0.175 0  -0.125 -0.175 0  -0.07500000000000001 -0.175 0  -0.02499999999999999 -0.175 0  0.02500000000000002 -0.175 0  0.07500000000000001 -0.175 0  0.125 -0.175 0  0.175 -0.175 0  0.225 -0.175 0  -0.225 -0.125 0  -0.175 -0.125 0  -0.125 -0.125 0  -0.07500000000000001 -0.125 0  -0.02499999999999999 -0.125 0  0.02500000000000002 -0.125 0  0.07500000000000001 -0.125 0  0.125 -0.125 0  0.175 -0.125 0  0.225 -0.125 0  -0.225 -0.07499999999999996 0  -0.175 -0.07499999999999996 0  -0.125 -0.07499999999999996 0  -0.07500000000000001 -0.07499999999999996 0  -0.02499999999999999 -0.07499999999999996 0  0.02500000000000002 -0.07499999999999996 0  0.07500000000000001 -0.07499999999999996 0  0.125 -0.07499999999999996 0  0.175 -0.07499999999999996 0  0.225 -0.07499999999999996 0  -0.225 -0.02500000000000002 0  -0.175 -0.02500000000000002 0  -0.125 -0.02500000000000002 0  -0.07500000000000001 -0.02500000000000002 0  -0.02499999999999999 -0.02500000000000002 0  0.02500000000000002 -0.02500000000000002 0  0.07500000000000001 -0.02500000000000002 0  0.125 -0.02500000000000002 0  0.175 -0.02500000000000002 0  0.225 -0.02500000000000002 0  </DataArray>
</Points>
<Cells>
[...]
<PointData  Scalars="pressure"> 
<DataArray  type="Float64"  Name="pressure"  format="ascii">5.3061392856931891e+06  5.3061392856932227e+06  5.3061392856932068e+06  5.3061392856932674e+06  5.3061392856933028e+06  5.3061392856933493e+06  5.3061392856935011e+06  5.3061392856934909e+06  5.3061392856934899e+06  5.3061392856934769e+06  5.3061392856934890e+06  5.2897822292285403e+06  5.2897822292285366e+06  5.2897822292285506e+06  5.2897822292285822e+06  5.2897822292285888e+06  5.2897822292286688e+06  5.2897822292287396e+06  5.2897822292288067e+06  5.2897822292288272e+06  5.2897822292288290e+06  5.2897822292287871e+06  5.2408119065203471e+06  5.2408119065203900e+06  5.2408119065203788e+06  5.2408119065203667e+06  5.2408119065203350e+06  5.2408119065205129e+06  5.2408119065205595e+06  5.2408119065206395e+06  5.2408119065206405e+06  5.2408119065206544e+06  5.2408119065206395e+06  5.1595302358731376e+06  5.1595302358731357e+06  5.1595302358731264e+06  5.1595302358731171e+06  5.1595302358731823e+06  5.1595302358732354e+06  5.1595302358733360e+06  5.1595302358734133e+06  5.1595302358734710e+06  5.1595302358734338e+06  5.1595302358733993e+06  5.0464383457843969e+06  5.0464383457843727e+06  5.0464383457843233e+06  5.0464383457843522e+06  5.0464383457843577e+06  5.0464383457844406e+06  5.0464383457845366e+06  5.0464383457846213e+06  5.0464383457846697e+06  5.0464383457847079e+06  5.0464383457847731e+06  4.9022334853221728e+06  4.9022334853221653e+06  4.9022334853221206e+06  4.9022334853222268e+06  4.9022334853222240e+06  4.9022334853222929e+06  4.9022334853224531e+06  4.9022334853226133e+06  4.9022334853228051e+06  4.9022334853227688e+06  4.9022334853226822e+06  4.7278047253558235e+06  4.7278047253557676e+06  4.7278047253558738e+06  4.7278047253558291e+06  4.7278047253558738e+06  4.7278047253559502e+06  4.7278047253561039e+06  4.7278047253562817e+06  4.7278047253563358e+06  4.7278047253564214e+06  4.7278047253563972e+06  4.5242274771400830e+06  4.5242274771400709e+06  4.5242274771401510e+06  4.5242274771400504e+06  4.5242274771400671e+06  4.5242274771402646e+06  4.5242274771404201e+06  4.5242274771405179e+06  4.5242274771405170e+06  4.5242274771407312e+06  4.5242274771407135e+06  4.2927568620509868e+06  4.2927568620508909e+06  4.2927568620508304e+06  4.2927568620507484e+06  4.2927568620507773e+06  4.2927568620509086e+06  4.2927568620510381e+06  4.2927568620513063e+06  4.2927568620514069e+06  4.2927568620514497e+06  4.2927568620514581e+06  4.0348199733475018e+06  4.0348199733474967e+06  4.0348199733474064e+06  4.0348199733472532e+06  4.0348199733472597e+06  4.0348199733473947e+06  4.0348199733475801e+06  4.0348199733477370e+06  4.0348199733479205e+06  4.0348199733479633e+06  4.0348199733480159e+06  3.7520070776703665e+06  3.7520070776703116e+06  3.7520070776704573e+06  3.7520070776703139e+06  3.7520070776704312e+06  3.7520070776705253e+06  3.7520070776707847e+06  3.7520070776710892e+06  3.7520070776711283e+06  3.7520070776711013e+06  3.7520070776710580e+06  3.4460618105226834e+06  3.4460618105226806e+06  3.4460618105228106e+06  3.4460618105226955e+06  3.4460618105228581e+06  3.4460618105229633e+06  3.4460618105232255e+06  3.4460618105234229e+06  3.4460618105234383e+06  3.4460618105235272e+06  3.4460618105235528e+06  3.1188704261790337e+06  3.1188704261790696e+06  3.1188704261790686e+06  3.1188704261789881e+06  3.1188704261792349e+06  3.1188704261791781e+06  3.1188704261795133e+06  3.1188704261795525e+06  3.1188704261796363e+06  3.1188704261798291e+06  3.1188704261796791e+06  2.7724501683023828e+06  2.7724501683023185e+06  2.7724501683022594e+06  2.7724501683023605e+06  2.7724501683024904e+06  2.7724501683025057e+06  2.7724501683027535e+06  2.7724501683027861e+06  2.7724501683030408e+06  2.7724501683032019e+06  2.7724501683033127e+06  2.4089368329684888e+06  2.4089368329683668e+06  2.4089368329685321e+06  2.4089368329685465e+06  2.4089368329684748e+06  2.4089368329685889e+06  2.4089368329688078e+06  2.4089368329687431e+06  2.4089368329689144e+06  2.4089368329691603e+06  2.4089368329692101e+06  2.0305716007720728e+06  2.0305716007720919e+06  2.0305716007721862e+06  2.0305716007723212e+06  2.0305716007722442e+06  2.0305716007722479e+06  2.0305716007724348e+06  2.0305716007727659e+06  2.0305716007728074e+06  2.0305716007728921e+06  2.0305716007729205e+06  1.6396872192042838e+06  1.6396872192040812e+06  1.6396872192042510e+06  1.6396872192042382e+06  1.6396872192043983e+06  1.6396872192045131e+06  1.6396872192047867e+06  1.6396872192049241e+06  1.6396872192048256e+06  1.6396872192048165e+06  1.6396872192047699e+06  1.2386936204862585e+06  1.2386936204862124e+06  1.2386936204863463e+06  1.2386936204865698e+06  1.2386936204867128e+06  1.2386936204867957e+06  1.2386936204869640e+06  1.2386936204868213e+06  1.2386936204866457e+06  1.2386936204868511e+06  1.2386936204867752e+06  8.3006306353679404e+05  8.3006306353673141e+05  8.3006306353683199e+05  8.3006306353671849e+05  8.3006306353666738e+05  8.3006306353698717e+05  8.3006306353696063e+05  8.3006306353713095e+05  8.3006306353704189e+05  8.3006306353708194e+05  8.3006306353719288e+05  4.1631489166894957e+05  4.1631489166897006e+05  4.1631489166879666e+05  4.1631489166909433e+05  4.1631489166887436e+05  4.1631489166880382e+05  4.1631489166921237e+05  4.1631489166934247e+05  4.1631489166927559e+05  4.1631489166920737e+05  4.1631489166924747e+05  1.7053025658242392e-11  -3.7284769528978680e-11  4.3748338285354268e-11  3.6542197839090862e-12  6.8212102632969566e-11  -3.3040237212844633e-11  -1.4921397450962097e-11  2.9233758271272677e-11  8.5265128291211958e-12  -9.4939440924253357e-11  -3.4106051316484783e-11  5.3006861554874675e+06  5.3006861554874852e+06  5.3006861554875122e+06  5.3006861554875383e+06  5.3006861554875821e+06  5.3006861554876594e+06  5.3006861554877395e+06  5.3006861554877600e+06  5.3006861554877562e+06  5.3006861554877488e+06  5.2680056629170198e+06  5.2680056629170403e+06  5.2680056629170552e+06  5.2680056629170403e+06  5.2680056629170962e+06  5.2680056629171865e+06  5.2680056629172554e+06  5.2680056629172964e+06  5.2680056629173001e+06  5.2680056629172964e+06  5.2028461638671765e+06  5.2028461638671886e+06  5.2028461638671858e+06  5.2028461638671868e+06  5.2028461638672613e+06  5.2028461638673358e+06  5.2028461638674103e+06  5.2028461638674801e+06  5.2028461638674578e+06  5.2028461638674568e+06  5.1056093882920863e+06  5.1056093882920751e+06  5.1056093882920546e+06  5.1056093882920966e+06  5.1056093882921226e+06  5.1056093882922381e+06  5.1056093882923210e+06  5.1056093882923853e+06  5.1056093882923890e+06  5.1056093882924076e+06  4.9768948332114629e+06  4.9768948332114490e+06  4.9768948332114369e+06  4.9768948332114564e+06  4.9768948332115030e+06  4.9768948332116185e+06  4.9768948332117256e+06  4.9768948332118448e+06  4.9768948332118979e+06  4.9768948332119249e+06  4.8174960666142702e+06  4.8174960666142553e+06  4.8174960666142786e+06  4.8174960666143429e+06  4.8174960666143419e+06  4.8174960666144742e+06  4.8174960666146595e+06  4.8174960666148150e+06  4.8174960666148933e+06  4.8174960666148439e+06  4.6283958348507052e+06  4.6283958348507201e+06  4.6283958348507462e+06  4.6283958348507192e+06  4.6283958348508002e+06  4.6283958348509474e+06  4.6283958348510796e+06  4.6283958348511728e+06  4.6283958348512761e+06  4.6283958348513255e+06  4.4107600036767488e+06  4.4107600036767349e+06  4.4107600036766799e+06  4.4107600036766510e+06  4.4107600036767591e+06  4.4107600036769547e+06  4.4107600036771139e+06  4.4107600036772052e+06  4.4107600036773095e+06  4.4107600036773570e+06  4.1659303703075470e+06  4.1659303703074567e+06  4.1659303703073477e+06  4.1659303703073319e+06  4.1659303703073803e+06  4.1659303703075512e+06  4.1659303703077058e+06  4.1659303703078586e+06  4.1659303703079382e+06  4.1659303703079787e+06  3.8954163907937226e+06  3.8954163907937226e+06  3.8954163907936942e+06  3.8954163907936015e+06  3.8954163907937100e+06  3.8954163907938194e+06  3.8954163907940825e+06  3.8954163907942181e+06  3.8954163907943293e+06  3.8954163907943424e+06  3.6008858737266087e+06  3.6008858737266981e+06  3.6008858737266352e+06  3.6008858737266343e+06  3.6008858737268061e+06  3.6008858737270087e+06  3.6008858737272746e+06  3.6008858737273640e+06  3.6008858737273635e+06  3.6008858737273728e+06  3.2841546976460419e+06  3.2841546976460502e+06  3.2841546976460833e+06  3.2841546976461723e+06  3.2841546976462528e+06  3.2841546976463767e+06  3.2841546976466719e+06  3.2841546976467180e+06  3.2841546976468582e+06  3.2841546976468693e+06  2.9471756155471574e+06  2.9471756155471741e+06  2.9471756155471262e+06  2.9471756155472500e+06  2.9471756155473278e+06  2.9471756155474237e+06  2.9471756155475928e+06  2.9471756155477003e+06  2.9471756155479196e+06  2.9471756155479848e+06  2.5920262155107264e+06  2.5920262155107483e+06  2.5920262155108103e+06  2.5920262155108596e+06  2.5920262155108280e+06  2.5920262155110282e+06  2.5920262155111381e+06  2.5920262155112922e+06  2.5920262155114482e+06  2.5920262155115739e+06  2.2208961116830828e+06  2.2208961116831047e+06  2.2208961116832444e+06  2.2208961116832620e+06  2.2208961116832304e+06  2.2208961116833077e+06  2.2208961116834474e+06  2.2208961116835377e+06  2.2208961116837570e+06  2.2208961116838888e+06  1.8360734445760760e+06  1.8360734445761356e+06  1.8360734445761661e+06  1.8360734445761198e+06  1.8360734445761966e+06  1.8360734445764304e+06  1.8360734445767573e+06  1.8360734445768169e+06  1.8360734445768029e+06  1.8360734445767184e+06  1.4399307739202364e+06  1.4399307739202103e+06  1.4399307739203984e+06  1.4399307739205833e+06  1.4399307739208322e+06  1.4399307739208320e+06  1.4399307739209251e+06  1.4399307739207689e+06  1.4399307739207386e+06  1.4399307739208571e+06  1.0349104510436385e+06  1.0349104510437333e+06  1.0349104510437645e+06  1.0349104510437647e+06  1.0349104510438887e+06  1.0349104510440434e+06  1.0349104510440434e+06  1.0349104510439811e+06  1.0349104510440128e+06  1.0349104510440320e+06  6.2350956096242717e+05  6.2350956096234592e+05  6.2350956096231495e+05  6.2350956096243917e+05  6.2350956096240808e+05  6.2350956096256350e+05  6.2350956096284289e+05  6.2350956096278026e+05  6.2350956096271845e+05  6.2350956096274336e+05  2.0826452701813477e+05  2.0826452701806297e+05  2.0826452701815605e+05  2.0826452701796961e+05  2.0826452701793864e+05  2.0826452701812488e+05  2.0826452701821804e+05  2.0826452701828021e+05  2.0826452701825503e+05  2.0826452701818917e+05  </DataArray> 
</PointData> 
</Piece>
</UnstructuredGrid>
</VTKFile>