<?xml version="1.0"?>
<VTKFile type="UnstructuredGrid"  version="0.1"  >
<UnstructuredGrid>
<Piece  NumberOfPoints="431" NumberOfCells="800">
<Points>
<DataArray  type="Float64"  NumberOfComponents="3"  format="ascii">-0.25 -1 0  -0.2 -1 0  -0.15 -1 0  -0.1 -1 0  -0.04999999999999999 -1 0  0 -1 0  0.04999999999999999 -1 0  0.09999999999999998 -1 0  0.15 -1 0  0.2 -1 0  0.25 -1 0  -0.25 -0.95 0  -0.2 -0.95 0  -0.15 -0.95 0  -0.1 -0.95 0  -0.04999999999999999 -0.95 0  0 -0.95 0  0.04999999999999999 -0.95 0  0.09999999999999998 -0.95 0  0.15 -0.95 0  0.2 -0.95 0  0.25 -0.95 0  -0.25 -0.9 0  -0.2 -0.9 0  -0.15 -0.9 0  -0.1 -0.9 0  -0.04999999999999999 -0.9 0  0 -0.9 0  0.04999999999999999 -0.9 0  0.09999999999999998 -0.9 0  0.15 -0.9 0  0.2 -0.9 0  0.25 -0.9 0  -0.25 -0.85 0  -0.2 -0.85 0  -0.15 -0.85 0  -0.1 -0.85 0  -0.04999999999999999 -0.85 0  0 -0.85 0  0.04999999999999999 -0.85 0  0.09999999999999998 -0.85 0  0.15 -0.85 0  0.2 -0.85 0  0.25 -0.85 0  -0.25 -0.8 0  -0.2 -0.8 0  -0.15 -0.8 0  -0.1 -0.8 0  -0.04999999999999999 -0.8 0  0 -0.8 0  0.04999999999999999 -0.8 0  0.09999999999999998 -0.8 0  0.15 -0.8 0  0.2 -0.8 0  0.25 -0.8 0  -0.25 -0.75 0  -0.2 -0.75 0  -0.15 -0.75 0  -0.1 -0.75 0  -0.04999999999999999 -0.75 0  0 -0.75 0  0.04999999999999999 -0.75 0  0.09999999999999998 -0.75 0  0.15 -0.75 0  0.2 -0.75 0  0.25 -0.75 0  -0.25 -0.7 0  -0.2 -0.7 0  -0.15 -0.7 0  -0.1 -0.7 0  -0.04999999999999999 -0.7 0  0 -0.7 0  0.04999999999999999 -0.7 0  0.09999999999999998 -0.7 0  0.15 -0.7 0  0.2 -0.7 0  0.25 -0.7 0  -0.25 -0.65 0  -0.2 -0.65 0  -0.15 -0.65 0  -0.1 -0.65 0  -0.04999999999999999 -0.65 0  0 -0.65 0  0.04999999999999999 -0.65 0  0.09999999999999998 -0.65 0  0.15 -0.65 0  0.2 -0.65 0  0.25 -0.65 0  -0.25 -0.6 0  -0.2 -0.6 0  -0.15 -0.6 0  -0.1 -0.6 0  -0.04999999999999999 -0.6 0  0 -0.6 0  0.04999999999999999 -0.6 0  0.09999999999999998 -0.6 0  0.15 -0.6 0  0.2 -0.6 0  0.25 -0.6 0  -0.25 -0.55 0  -0.2 -0.55 0  -0.15 -0.55 0  -0.1 -0.55 0  -0.04999999999999999 -0.55 0  0 -0.55 0  0.04999999999999999 -0.55 0  0.09999999999999998 -0.55 0  0.15 -0.55 0  0.2 -0.55 0  0.25 -0.55 0  -0.25 -0.5 0  -0.2 -0.5 0  -0.15 -0.5 0  -0.1 -0.5 0  -0.04999999999999999 -0.5 0  0 -0.5 0  0.04999999999999999 -0.5 0  0.09999999999999998 -0.5 0  0.15 -0.5 0  0.2 -0.5 0  0.25 -0.5 0  -0.25 -0.45 0  -0.2 -0.45 0  -0.15 -0.45 0  -0.1 -0.45 0  -0.04999999999999999 -0.45 0  0 -0.45 0  0.04999999999999999 -0.45 0  0.09999999999999998 -0.45 0  0.15 -0.45 0  0.2 -0.45 0  0.25 -0.45 0  -0.25 -0.4 0  -0.2 -0.4 0  -0.15 -0.4 0  -0.1 -0.4 0  -0.04999999999999999 -0.4 0  0 -0.4 0  0.04999999999999999 -0.4 0  0.09999999999999998 -0.4 0  0.15 -0.4 0  0.2 -0.4 0  0.25 -0.4 0  -0.25 -0.35 0  -0.2 -0.35 0  -0.15 -0.35 0  -0.1 -0.35 0  -0.04999999999999999 -0.35 0  0 -0.35 0  0.04999999999999999 -0.35 0  0.09999999999999998 -0.35 0  0.15 -0.35 0  0.2 -0.35 0  0.25 -0.35 0  -0.25 -0.3 0  -0.2 -0.3 0  -0.15 -0.3 0  -0.1 -0.3 0  -0.04999999999999999 -0.3 0  0 -0.3 0  0.04999999999999999 -0.3 0  0.09999999999999998 -0.3 0  0.15 -0.3 0  0.2 -0.3 0  0.25 -0.3 0  -0.25 -0.25 0  -0.2 -0.25 0  -0.15 -0.25 0  -0.1 -0.25 0  -0.04999999999999999 -0.25 0  0 -0.25 0  0.04999999999999999 -0.25 0  0.09999999999999998 -0.25 0  0.15 -0.25 0  0.2 -0.25 0  0.25 -0.25 0  -0.25 -0.2 0  -0.2 -0.2 0  -0.15 -0.2 0  -0.1 -0.2 0  -0.04999999999999999 -0.2 0  0 -0.2 0  0.04999999999999999 -0.2 0  0.09999999999999998 -0.2 0  0.15 -0.2 0  0.2 -0.2 0  0.25 -0.2 0  -0.25 -0.15 0  -0.2 -0.15 0  -0.15 -0.15 0  -0.1 -0.15 0  -0.04999999999999999 -0.15 0  0 -0.15 0  0.04999999999999999 -0.15 0  0.09999999999999998 -0.15 0  0.15 -0.15 0  0.2 -0.15 0  0.25 -0.15 0  -0.25 -0.09999999999999998 0  -0.2 -0.09999999999999998 0  -0.15 -0.09999999999999998 0  -0.1 -0.09999999999999998 0  -0.04999999999999999 -0.09999999999999998 0  0 -0.09999999999999998 0  0.04999999999999999 -0.09999999999999998 0  0.09999999999999998 -0.09999999999999998 0  0.15 -0.09999999999999998 0  0.2 -0.09999999999999998 0  0.25 -0.09999999999999998 0  -0.25 -0.05000000000000004 0  -0.2 -0.05000000000000004 0  -0.15 -0.05000000000000004 0  -0.1 -0.05000000000000004 0  -0.04999999999999999 -0.05000000000000004 0  0 -0.05000000000000004 0  0.04999999999999999 -0.05000000000000004 0  0.09999999999999998 -0.05000000000000004 0  0.15 -0.05000000000000004 0  0.2 -0.05000000000000004 0  0.25 -0.05000000000000004 0  -0.25 0 0  -0.2 0 0  -0.15 0 0  -0.1 0 0  -0.04999999999999999 0 0  0 0 0  0.04999999999999999 0 0  0.09999999999999998 0 0  0.15 0 0  0.2 0 0  0.25 0 0  -0.225 -0.975 0  -0.175 -0.975 0  -0.125 -0.975 0  -0.07500000000000001 -0.975 0  -0.02499999999999999 -0.975 0  0.02500000000000002 -0.975 0  0.07500000000000001 -0.975 0  0.125 -0.975 0  0.175 -0.975 0  0.225 -0.975 0  -0.225 -0.925 0  -0.175 -0.925 0  -0.125 -0.925 0  -0.07500000000000001 -0.925 0  -0.02499999999999999 -0.925 0  0.02500000000000002 -0.925 0  0.07500000000000001 -0.925 0  0.125 -0.925 0  0.175 -0.925 0  0.225 -0.925 0  -0.225 -0.875 0  -0.175 -0.875 0  -0.125 -0.875 0  -0.07500000000000001 -0.875 0  -0.02499999999999999 -0.875 0  0.02500000000000002 -0.875 0  0.07500000000000001 -0.875 0  0.125 -0.875 0  0.175 -0.875 0  0.225 -0.875 0  -0.225 -0.825 0  -0.175 -0.825 0  -0.125 -0.825 0  -0.07500000000000001 -0.825 0  -0.02499999999999999 -0.825 0  0.02500000000000002 -0.825 0  0.07500000000000001 -0.825 0  0.125 -0.825 0  0.175 -0.825 0  0.225 -0.825 0  -0.225 -0.775 0  -0.175 -0.775 0  -0.125 -0.775 0  -0.07500000000000001 -0.775 0  -0.02499999999999999 -0.775 0  0.02500000000000002 -0.775 0  0.07500000000000001 -0.775 0  0.125 -0.775 0  0.175 -0.775 0  0.225 -0.775 0  -0.225 -0.725 0  -0.175 -0.725 0  -0.125 -0.725 0  -0.07500000000000001 -0.725 0  -0.02499999999999999 -0.725 0  0.02500000000000002 -0.725 0  0.07500000000000001 -0.725 0  0.125 -0.725 0  0.175 -0.725 0  0.225 -0.725 0  -0.225 -0.675 0  -0.175 -0.675 0  -0.125 -0.675 0  -0.07500000000000001 -0.675 0  -0.02499999999999999 -0.675 0  0.02500000000000002 -0.675 0  0.07500000000000001 -0.675 0  0.125 -0.675 0  0.175 -0.675 0  0.225 -0.675 0  -0.225 -0.625 0  -0.175 -0.625 0  -0.125 -0.625 0  -0.07500000000000001 -0.625 0  -0.02499999999999999 -0.625 0  0.02500000000000002 -0.625 0  0.07500000000000001 -0.625 0  0.125 -0.625 0  0.175 -0.625 0  0.225 -0.625 0  -0.225 -0.575 0  -0.175 -0.575 0  -0.125 -0.575 0  -0.07500000000000001 -0.575 0  -0.02499999999999999 -0.575 0  0.02500000000000002 -0.575 0  0.07500000000000001 -0.575 0  0.125 -0.575 0  0.175 -0.575 0  0.225 -0.575 0  -0.225 -0.525 0  -0.175 -0.525 0  -0.125 -0.525 0  -0.07500000000000001 -0.525 0  -0.02499999999999999 -0.525 0  0.02500000000000002 -0.525 0  0.07500000000000001 -0.525 0  0.125 -0.525 0  0.175 -0.525 0  0.225 -0.525 0  -0.225 -0.475 0  -0.175 -0.475 0  -0.125 -0.475 0  -0.07500000000000001 -0.475 0  -0.02499999999999999 -0.475 0  0.02500000000000002 -0.475 0  0.07500000000000001 -0.475 0  0.125 -0.475 0  0.175 -0.475 0  0.225 -0.475 0  -0.225 -0.425 0  -0.175 -0.425 0  -0.125 -0.425 0  -0.07500000000000001 -0.425 0  -0.02499999999999999 -0.425 0  0.02500000000000002 -0.425 0  0.07500000000000001 -0.425 0  0.125 -0.425 0  0.175 -0.425 0  0.225 -0.425 0  -0.225 -0.375 0  -0.175 -0.375 0  -0.125 -0.375 0  -0.07500000000000001 -0.375 0  -0.02499999999999999 -0.375 0  0.02500000000000002 -0.375 0  0.07500000000000001 -0.375 0  0.125 -0.375 0  0.175 -0.375 0  0.225 -0.375 0  -0.225 -0.325 0  -0.175 -0.325 0  -0.125 -0.325 0  -0.07500000000000001 -0.325 0  -0.02499999999999999 -0.325 0  0.02500000000000002 -0.325 0  0.07500000000000001 -0.325 0  0.125 -0.325 0  0.175 -0.325 0  0.225 -0.325 0  -0.225 -0.275 0  -0.175 -0.275 0  -0.125 -0.275 0  -0.07500000000000001 -0.275 0  -0.02499999999999999 -0.275 0  0.02500000000000002 -0.275 0  0.07500000000000001 -0.275 0  0.125 -0.275 0  0.175 -0.275 0  0.225 -0.275 0  -0.225 -0.225 0  -0.175 -0.225 0  -0.125 -0.225 0  -0.07500000000000001 -0.225 0  -0.02499999999999999 -0.225 0  0.02500000000000002 -0.225 0  0.07500000000000001 -0.225 0  0.125 -0.225 0  0.175 -0.225 0  0.225 -0.225 0  -0.225 -0.175 0  -0.175 -0.175 0  -0.125 -0.175 0  -0.07500000000000001 -0.175 0  -0.02499999999999999 -0.175 0  0.02500000000000002 -0.175 0  0.07500000000000001 -0.175 0  0.125 -0.175 0  0.175 -0.175 0  0.225 -0.175 0  -0.225 -0.125 0  -0.175 -0.125 0  -0.125 -0.125 0  -0.07500000000000001 -0.125 0  -0.02499999999999999 -0.125 0  0.02500000000000002 -0.125 0  0.07500000000000001 -0.125 0  0.125 -0.125 0  0.175 -0.125 0  0.225 -0.125 0  -0.225 -0.07499999999999996 0  -0.175 -0.07499999999999996 0  -0.125 -0.07499999999999996 0  -0.07500000000000001 -0.07499999999999996 0  -0.02499999999999999 -0.07499999999999996 0  0.02500000000000002 -0.07499999999999996 0  0.07500000000000001 -0.07499999999999996 0  0.125 -0.07499999999999996 0  0.175 -0.07499999999999996 0  0.225 -0.07499999999999996 0  -0.225 -0.02500000000000002 0  -0.175 -0.02500000000000002 0  -0.125 -0.02500000000000002 0  -0.07500000000000001 -0.02500000000000002 0  -0.02499999999999999 -0.02500000000000002 0  0.02500000000000002 -0.02500000000000002 0  0.07500000000000001 -0.02500000000000002 0  0.125 -0.02500000000000002 0  0.175 -0.02500000000000002 0  0.225 -0.02500000000000002 0  </DataArray>
</Points>
<Cells>
[...]
<PointData  Scalars="pressure"> 
<DataArray  type="Float64"  Name="pressure"  format="ascii">3.6342071620048577e+05  3.6342071620048647e+05  3.6342071620048885e+05  3.6342071620048734e+05  3.6342071620048670e+05  3.6342071620048559e+05  3.6342071620048216e+05  3.6342071620048373e+05  3.6342071620048286e+05  3.6342071620048187e+05  3.6342071620048152e+05  3.6230041141797829e+05  3.6230041141797835e+05  3.6230041141798056e+05  3.6230041141797981e+05  3.6230041141797981e+05  3.6230041141797876e+05  3.6230041141797876e+05  3.6230041141797724e+05  3.6230041141797585e+05  3.6230041141797445e+05  3.6230041141797393e+05  3.5894640412197949e+05  3.5894640412198001e+05  3.5894640412197943e+05  3.5894640412198193e+05  3.5894640412198164e+05  3.5894640412198217e+05  3.5894640412198158e+05  3.5894640412197949e+05  3.5894640412197739e+05  3.5894640412197664e+05  3.5894640412197699e+05  3.5337937288278836e+05  3.5337937288278836e+05  3.5337937288278877e+05  3.5337937288279028e+05  3.5337937288279104e+05  3.5337937288279168e+05  3.5337937288279104e+05  3.5337937288278941e+05  3.5337937288278894e+05  3.5337937288278801e+05  3.5337937288278813e+05  3.4563364029921778e+05  3.4563364029921859e+05  3.4563364029921754e+05  3.4563364029921941e+05  3.4563364029922459e+05  3.4563364029922517e+05  3.4563364029922598e+05  3.4563364029922331e+05  3.4563364029922179e+05  3.4563364029922150e+05  3.4563364029922179e+05  3.3575696138836443e+05  3.3575696138836403e+05  3.3575696138836484e+05  3.3575696138836606e+05  3.3575696138836816e+05  3.3575696138837002e+05  3.3575696138837031e+05  3.3575696138837188e+05  3.3575696138837159e+05  3.3575696138836996e+05  3.3575696138836909e+05  3.2381022916003544e+05  3.2381022916003596e+05  3.2381022916003555e+05  3.2381022916003835e+05  3.2381022916003887e+05  3.2381022916004050e+05  3.2381022916004260e+05  3.2381022916004399e+05  3.2381022916004335e+05  3.2381022916004254e+05  3.2381022916004236e+05  3.0986709919111122e+05  3.0986709919111128e+05  3.0986709919111338e+05  3.0986709919111454e+05  3.0986709919111372e+05  3.0986709919111565e+05  3.0986709919111826e+05  3.0986709919111972e+05  3.0986709919112053e+05  3.0986709919112094e+05  3.0986709919112024e+05  2.9401353551440767e+05  2.9401353551440599e+05  2.9401353551440896e+05  2.9401353551440942e+05  2.9401353551440965e+05  2.9401353551441146e+05  2.9401353551441099e+05  2.9401353551441495e+05  2.9401353551441740e+05  2.9401353551441658e+05  2.9401353551441483e+05  2.7634728062183055e+05  2.7634728062183014e+05  2.7634728062183067e+05  2.7634728062183241e+05  2.7634728062183311e+05  2.7634728062183439e+05  2.7634728062183451e+05  2.7634728062183585e+05  2.7634728062183707e+05  2.7634728062183619e+05  2.7634728062183608e+05  2.5697725284941425e+05  2.5697725284941425e+05  2.5697725284941623e+05  2.5697725284941957e+05  2.5697725284942167e+05  2.5697725284942487e+05  2.5697725284942385e+05  2.5697725284942298e+05  2.5697725284942193e+05  2.5697725284942263e+05  2.5697725284942263e+05  2.3602287485956505e+05  2.3602287485956535e+05  2.3602287485956712e+05  2.3602287485957119e+05  2.3602287485957507e+05  2.3602287485957399e+05  2.3602287485957643e+05  2.3602287485957268e+05  2.3602287485957195e+05  2.3602287485957239e+05  2.3602287485957140e+05  2.1361333736062472e+05  2.1361333736062524e+05  2.1361333736062705e+05  2.1361333736063103e+05  2.1361333736063368e+05  2.1361333736063409e+05  2.1361333736063354e+05  2.1361333736063188e+05  2.1361333736063249e+05  2.1361333736063124e+05  2.1361333736063211e+05  1.8988680260320156e+05  1.8988680260320147e+05  1.8988680260320127e+05  1.8988680260320671e+05  1.8988680260321035e+05  1.8988680260320698e+05  1.8988680260320773e+05  1.8988680260321006e+05  1.8988680260320895e+05  1.8988680260320852e+05  1.8988680260320898e+05  1.6498955256394495e+05  1.6498955256394463e+05  1.6498955256394713e+05  1.6498955256394969e+05  1.6498955256394946e+05  1.6498955256395275e+05  1.6498955256395339e+05  1.6498955256395281e+05  1.6498955256395100e+05  1.6498955256395103e+05  1.6498955256395016e+05  1.3907508706852462e+05  1.3907508706852514e+05  1.3907508706852901e+05  1.3907508706853227e+05  1.3907508706853111e+05  1.3907508706853690e+05  1.3907508706853713e+05  1.3907508706853434e+05  1.3907508706852945e+05  1.3907508706853021e+05  1.3907508706853050e+05  1.1230317741416297e+05  1.1230317741416328e+05  1.1230317741416411e+05  1.1230317741416623e+05  1.1230317741416728e+05  1.1230317741416677e+05  1.1230317741416747e+05  1.1230317741416849e+05  1.1230317741416390e+05  1.1230317741416130e+05  1.1230317741416056e+05  8.4838881326440576e+04  8.4838881326440969e+04  8.4838881326440314e+04  8.4838881326440969e+04  8.4838881326439834e+04  8.4838881326436618e+04  8.4838881326433067e+04  8.4838881326432718e+04  8.4838881326432413e+04  8.4838881326427378e+04  8.4838881326425675e+04  5.6851525323534581e+04  5.6851525323535228e+04  5.6851525323536334e+04  5.6851525323535163e+04  5.6851525323531241e+04  5.6851525323524453e+04  5.6851525323523150e+04  5.6851525323521280e+04  5.6851525323519585e+04  5.6851525323514492e+04  5.6851525323515787e+04  2.8513660761947333e+04  2.8513660761946147e+04  2.8513660761946925e+04  2.8513660761945070e+04  2.8513660761942308e+04  2.8513660761939253e+04  2.8513660761937736e+04  2.8513660761936324e+04  2.8513660761934807e+04  2.8513660761934872e+04  2.8513660761937295e+04  1.0658141036401495e-12  -6.2335592368300553e-13  1.2448375663609560e-12  -2.7406648379318138e-12  1.0658141036401495e-12  1.2513799520417825e-12  -2.5979218776228655e-12  4.5868071245942161e-12  2.9309887850104108e-12  -6.7894408044384543e-12  1.0658141036401495e-12  3.6304722583715356e+05  3.6304722583715478e+05  3.6304722583715525e+05  3.6304722583715472e+05  3.6304722583715391e+05  3.6304722583715239e+05  3.6304722583715146e+05  3.6304722583715129e+05  3.6304722583714983e+05  3.6304722583714919e+05  3.6080891896442691e+05  3.6080891896442749e+05  3.6080891896442842e+05  3.6080891896442848e+05  3.6080891896442842e+05  3.6080891896442801e+05  3.6080891896442708e+05  3.6080891896442533e+05  3.6080891896442370e+05  3.6080891896442289e+05  3.5634610512515582e+05  3.5634610512515594e+05  3.5634610512515693e+05  3.5634610512515827e+05  3.5634610512515844e+05  3.5634610512515804e+05  3.5634610512515722e+05  3.5634610512515565e+05  3.5634610512515448e+05  3.5634610512515408e+05  3.4968629905069427e+05  3.4968629905069422e+05  3.4968629905069486e+05  3.4968629905069707e+05  3.4968629905069870e+05  3.4968629905069916e+05  3.4968629905069817e+05  3.4968629905069654e+05  3.4968629905069561e+05  3.4968629905069550e+05  3.4087056066010013e+05  3.4087056066010019e+05  3.4087056066010101e+05  3.4087056066010322e+05  3.4087056066010596e+05  3.4087056066010712e+05  3.4087056066010654e+05  3.4087056066010578e+05  3.4087056066010485e+05  3.4087056066010450e+05  3.2995324191207951e+05  3.2995324191207986e+05  3.2995324191208079e+05  3.2995324191208254e+05  3.2995324191208417e+05  3.2995324191208510e+05  3.2995324191208661e+05  3.2995324191208743e+05  3.2995324191208632e+05  3.2995324191208545e+05  3.1700165170708811e+05  3.1700165170708840e+05  3.1700165170709026e+05  3.1700165170709050e+05  3.1700165170709149e+05  3.1700165170709346e+05  3.1700165170709550e+05  3.1700165170709637e+05  3.1700165170709643e+05  3.1700165170709591e+05  3.0209564090557781e+05  3.0209564090557897e+05  3.0209564090558066e+05  3.0209564090558054e+05  3.0209564090558107e+05  3.0209564090558264e+05  3.0209564090558497e+05  3.0209564090558706e+05  3.0209564090558793e+05  3.0209564090558718e+05  2.8532711002088850e+05  2.8532711002088885e+05  2.8532711002088967e+05  2.8532711002089072e+05  2.8532711002089194e+05  2.8532711002089264e+05  2.8532711002089374e+05  2.8532711002089601e+05  2.8532711002089677e+05  2.8532711002089560e+05  2.6679944262202102e+05  2.6679944262202166e+05  2.6679944262202352e+05  2.6679944262202497e+05  2.6679944262202736e+05  2.6679944262202829e+05  2.6679944262202736e+05  2.6679944262202841e+05  2.6679944262202817e+05  2.6679944262202771e+05  2.4662686793956117e+05  2.4662686793956178e+05  2.4662686793956469e+05  2.4662686793956847e+05  2.4662686793957104e+05  2.4662686793957208e+05  2.4662686793957104e+05  2.4662686793956839e+05  2.4662686793956801e+05  2.4662686793956882e+05  2.2493375660448830e+05  2.2493375660448972e+05  2.2493375660449362e+05  2.2493375660449636e+05  2.2493375660449764e+05  2.2493375660449811e+05  2.2493375660449703e+05  2.2493375660449613e+05  2.2493375660449584e+05  2.2493375660449537e+05  2.0185385386187400e+05  2.0185385386187368e+05  2.0185385386187633e+05  2.0185385386188075e+05  2.0185385386188133e+05  2.0185385386188002e+05  2.0185385386188052e+05  2.0185385386188087e+05  2.0185385386188011e+05  2.0185385386188058e+05  1.7752945498696811e+05  1.7752945498696933e+05  1.7752945498697157e+05  1.7752945498697355e+05  1.7752945498697454e+05  1.7752945498697524e+05  1.7752945498697562e+05  1.7752945498697605e+05  1.7752945498697524e+05  1.7752945498697448e+05  1.5211052798751969e+05  1.5211052798752082e+05  1.5211052798752469e+05  1.5211052798752545e+05  1.5211052798752842e+05  1.5211052798753075e+05  1.5211052798752961e+05  1.5211052798752676e+05  1.5211052798752495e+05  1.5211052798752574e+05  1.2575378900113590e+05  1.2575378900113756e+05  1.2575378900113994e+05  1.2575378900114160e+05  1.2575378900114262e+05  1.2575378900114399e+05  1.2575378900114456e+05  1.2575378900114031e+05  1.2575378900113850e+05  1.2575378900113823e+05  9.8621736088177233e+04  9.8621736088177466e+04  9.8621736088178237e+04  9.8621736088178892e+04  9.8621736088177728e+04  9.8621736088175297e+04  9.8621736088175065e+04  9.8621736088174541e+04  9.8621736088170699e+04  9.8621736088167760e+04  7.0881647377168309e+04  7.0881647377168279e+04  7.0881647377168512e+04  7.0881647377167057e+04  7.0881647377162968e+04  7.0881647377159024e+04  7.0881647377156638e+04  7.0881647377155823e+04  7.0881647377153480e+04  7.0881647377151196e+04  4.2704549739525261e+04  4.2704549739526658e+04  4.2704549739526155e+04  4.2704549739522270e+04  4.2704549739518174e+04  4.2704549739514776e+04  4.2704549739512804e+04  4.2704549739511356e+04  4.2704549739509443e+04  4.2704549739509574e+04  1.4264164352024392e+04  1.4264164352024975e+04  1.4264164352024485e+04  1.4264164352023752e+04  1.4264164352022544e+04  1.4264164352020352e+04  1.4264164352019148e+04  1.4264164352019143e+04  1.4264164352019592e+04  1.4264164352019365e+04  </DataArray> 
</PointData> 
</Piece>
</UnstructuredGrid>
</VTKFile>