<?xml version="1.0"?>
<VTKFile type="UnstructuredGrid"  version="0.1"  >
<UnstructuredGrid>
<Piece  NumberOfPoints="1661" NumberOfCells="3200">
<Points>
<DataArray  type="Float64"  NumberOfComponents="3"  format="ascii">-0.25 -1 0  -0.225 -1 0  -0.2 -1 0  -0.175 -1 0  -0.15 -1 0  -0.125 -1 0  -0.1 -1 0  -0.07500000000000001 -1 0  -0.04999999999999999 -1 0  -0.02499999999999999 -1 0  0 -1 0  0.02500000000000002 -1 0  0.04999999999999999 -1 0  0.07500000000000001 -1 0  0.09999999999999998 -1 0  0.125 -1 0  0.15 -1 0  0.175 -1 0  0.2 -1 0  0.225 -1 0  0.25 -1 0  -0.25 -0.975 0  -0.225 -0.975 0  -0.2 -0.975 0  -0.175 -0.975 0  -0.15 -0.975 0  -0.125 -0.975 0  -0.1 -0.975 0  -0.07500000000000001 -0.975 0  -0.04999999999999999 -0.975 0  -0.02499999999999999 -0.975 0  0 -0.975 0  0.02500000000000002 -0.975 0  0.04999999999999999 -0.975 0  0.07500000000000001 -0.975 0  0.09999999999999998 -0.975 0  0.125 -0.975 0  0.15 -0.975 0  0.175 -0.975 0  0.2 -0.975 0  0.225 -0.975 0  0.25 -0.975 0  -0.25 -0.95 0  -0.225 -0.95 0  -0.2 -0.95 0  -0.175 -0.95 0  -0.15 -0.95 0  -0.125 -0.95 0  -0.1 -0.95 0  -0.07500000000000001 -0.95 0  -0.04999999999999999 -0.95 0  -0.02499999999999999 -0.95 0  0 -0.95 0  0.02500000000000002 -0.95 0  0.04999999999999999 -0.95 0  0.07500000000000001 -0.95 0  0.09999999999999998 -0.95 0  0.125 -0.95 0  0.15 -0.95 0  0.175 -0.95 0  0.2 -0.95 0  0.225 -0.95 0  0.25 -0.95 0  -0.25 -0.925 0  -0.225 -0.925 0  -0.2 -0.925 0  -0.175 -0.925 0  -0.15 -0.925 0  -0.125 -0.925 0  -0.1 -0.925 0  -0.07500000000000001 -0.925 0  -0.04999999999999999 -0.925 0  -0.02499999999999999 -0.925 0  0 -0.925 0  0.02500000000000002 -0.925 0  0.04999999999999999 -0.925 0  0.07500000000000001 -0.925 0  0.09999999999999998 -0.925 0  0.125 -0.925 0  0.15 -0.925 0  0.175 -0.925 0  0.2 -0.925 0  0.225 -0.925 0  0.25 -0.925 0  -0.25 -0.9 0  -0.225 -0.9 0  -0.2 -0.9 0  -0.175 -0.9 0  -0.15 -0.9 0  -0.125 -0.9 0  -0.1 -0.9 0  -0.07500000000000001 -0.9 0  -0.04999999999999999 -0.9 0  -0.02499999999999999 -0.9 0  0 -0.9 0  0.02500000000000002 -0.9 0  0.04999999999999999 -0.9 0  0.07500000000000001 -0.9 0  0.09999999999999998 -0.9 0  0.125 -0.9 0  0.15 -0.9 0  0.175 -0.9 0  0.2 -0.9 0  0.225 -0.9 0  0.25 -0.9 0  -0.25 -0.875 0  -0.225 -0.875 0  -0.2 -0.875 0  -0.175 -0.875 0  -0.15 -0.875 0  -0.125 -0.875 0  -0.1 -0.875 0  -0.07500000000000001 -0.875 0  -0.04999999999999999 -0.875 0  -0.02499999999999999 -0.875 0  0 -0.875 0  0.02500000000000002 -0.875 0  0.04999999999999999 -0.875 0  0.07500000000000001 -0.875 0  0.09999999999999998 -0.875 0  0.125 -0.875 0  0.15 -0.875 0  0.175 -0.875 0  0.2 -0.875 0  0.225 -0.875 0  0.25 -0.875 0  -0.25 -0.85 0  -0.225 -0.85 0  -0.2 -0.85 0  -0.175 -0.85 0  -0.15 -0.85 0  -0.125 -0.85 0  -0.1 -0.85 0  -0.07500000000000001 -0.85 0  -0.04999999999999999 -0.85 0  -0.02499999999999999 -0.85 0  0 -0.85 0  0.02500000000000002 -0.85 0  0.04999999999999999 -0.85 0  0.07500000000000001 -0.85 0  0.09999999999999998 -0.85 0  0.125 -0.85 0  0.15 -0.85 0  0.175 -0.85 0  0.2 -0.85 0  0.225 -0.85 0  0.25 -0.85 0  -0.25 -0.825 0  -0.225 -0.825 0  -0.2 -0.825 0  -0.175 -0.825 0  -0.15 -0.825 0  -0.125 -0.825 0  -0.1 -0.825 0  -0.07500000000000001 -0.825 0  -0.04999999999999999 -0.825 0  -0.02499999999999999 -0.825 0  0 -0.825 0  0.02500000000000002 -0.825 0  0.04999999999999999 -0.825 0  0.07500000000000001 -0.825 0  0.09999999999999998 -0.825 0  0.125 -0.825 0  0.15 -0.825 0  0.175 -0.825 0  0.2 -0.825 0  0.225 -0.825 0  0.25 -0.825 0  -0.25 -0.8 0  -0.225 -0.8 0  -0.2 -0.8 0  -0.175 -0.8 0  -0.15 -0.8 0  -0.125 -0.8 0  -0.1 -0.8 0  -0.07500000000000001 -0.8 0  -0.04999999999999999 -0.8 0  -0.02499999999999999 -0.8 0  0 -0.8 0  0.02500000000000002 -0.8 0  0.04999999999999999 -0.8 0  0.07500000000000001 -0.8 0  0.09999999999999998 -0.8 0  0.125 -0.8 0  0.15 -0.8 0  0.175 -0.8 0  0.2 -0.8 0  0.225 -0.8 0  0.25 -0.8 0  -0.25 -0.775 0  -0.225 -0.775 0  -0.2 -0.775 0  -0.175 -0.775 0  -0.15 -0.775 0  -0.125 -0.775 0  -0.1 -0.775 0  -0.07500000000000001 -0.775 0  -0.04999999999999999 -0.775 0  -0.02499999999999999 -0.775 0  0 -0.775 0  0.02500000000000002 -0.775 0  0.04999999999999999 -0.775 0  0.07500000000000001 -0.775 0  0.09999999999999998 -0.775 0  0.125 -0.775 0  0.15 -0.775 0  0.175 -0.775 0  0.2 -0.775 0  0.225 -0.775 0  0.25 -0.775 0  -0.25 -0.75 0  -0.225 -0.75 0  -0.2 -0.75 0  -0.175 -0.75 0  -0.15 -0.75 0  -0.125 -0.75 0  -0.1 -0.75 0  -0.07500000000000001 -0.75 0  -0.04999999999999999 -0.75 0  -0.02499999999999999 -0.75 0  0 -0.75 0  0.02500000000000002 -0.75 0  0.04999999999999999 -0.75 0  0.07500000000000001 -0.75 0  0.09999999999999998 -0.75 0  0.125 -0.75 0  0.15 -0.75 0  0.175 -0.75 0  0.2 -0.75 0  0.225 -0.75 0  0.25 -0.75 0  -0.25 -0.725 0  -0.225 -0.725 0  -0.2 -0.725 0  -0.175 -0.725 0  -0.15 -0.725 0  -0.125 -0.725 0  -0.1 -0.725 0  -0.07500000000000001 -0.725 0  -0.04999999999999999 -0.725 0  -0.02499999999999999 -0.725 0  0 -0.725 0  0.02500000000000002 -0.725 0  0.04999999999999999 -0.725 0  0.07500000000000001 -0.725 0  0.09999999999999998 -0.725 0  0.125 -0.725 0  0.15 -0.725 0  0.175 -0.725 0  0.2 -0.725 0  0.225 -0.725 0  0.25 -0.725 0  -0.25 -0.7 0  -0.225 -0.7 0  -0.2 -0.7 0  -0.175 -0.7 0  -0.15 -0.7 0  -0.125 -0.7 0  -0.1 -0.7 0  -0.07500000000000001 -0.7 0  -0.04999999999999999 -0.7 0  -0.02499999999999999 -0.7 0  0 -0.7 0  0.02500000000000002 -0.7 0  0.04999999999999999 -0.7 0  0.07500000000000001 -0.7 0  0.09999999999999998 -0.7 0  0.125 -0.7 0  0.15 -0.7 0  0.175 -0.7 0  0.2 -0.7 0  0.225 -0.7 0  0.25 -0.7 0  -0.25 -0.675 0  -0.225 -0.675 0  -0.2 -0.675 0  -0.175 -0.675 0  -0.15 -0.675 0  -0.125 -0.675 0  -0.1 -0.675 0  -0.07500000000000001 -0.675 0  -0.04999999999999999 -0.675 0  -0.02499999999999999 -0.675 0  0 -0.675 0  0.02500000000000002 -0.675 0  0.04999999999999999 -0.675 0  0.07500000000000001 -0.675 0  0.09999999999999998 -0.675 0  0.125 -0.675 0  0.15 -0.675 0  0.175 -0.675 0  0.2 -0.675 0  0.225 -0.675 0  0.25 -0.675 0  -0.25 -0.65 0  -0.225 -0.65 0  -0.2 -0.65 0  -0.175 -0.65 0  -0.15 -0.65 0  -0.125 -0.65 0  -0.1 -0.65 0  -0.07500000000000001 -0.65 0  -0.04999999999999999 -0.65 0  -0.02499999999999999 -0.65 0  0 -0.65 0  0.02500000000000002 -0.65 0  0.04999999999999999 -0.65 0  0.07500000000000001 -0.65 0  0.09999999999999998 -0.65 0  0.125 -0.65 0  0.15 -0.65 0  0.175 -0.65 0  0.2 -0.65 0  0.225 -0.65 0  0.25 -0.65 0  -0.25 -0.625 0  -0.225 -0.625 0  -0.2 -0.625 0  -0.175 -0.625 0  -0.15 -0.625 0  -0.125 -0.625 0  -0.1 -0.625 0  -0.07500000000000001 -0.625 0  -0.04999999999999999 -0.625 0  -0.02499999999999999 -0.625 0  0 -0.625 0  0.02500000000000002 -0.625 0  0.04999999999999999 -0.625 0  0.07500000000000001 -0.625 0  0.09999999999999998 -0.625 0  0.125 -0.625 0  0.15 -0.625 0  0.175 -0.625 0  0.2 -0.625 0  0.225 -0.625 0  0.25 -0.625 0  -0.25 -0.6 0  -0.225 -0.6 0  -0.2 -0.6 0  -0.175 -0.6 0  -0.15 -0.6 0  -0.125 -0.6 0  -0.1 -0.6 0  -0.07500000000000001 -0.6 0  -0.04999999999999999 -0.6 0  -0.02499999999999999 -0.6 0  0 -0.6 0  0.02500000000000002 -0.6 0  0.04999999999999999 -0.6 0  0.07500000000000001 -0.6 0  0.09999999999999998 -0.6 0  0.125 -0.6 0  0.15 -0.6 0  0.175 -0.6 0  0.2 -0.6 0  0.225 -0.6 0  0.25 -0.6 0  -0.25 -0.575 0  -0.225 -0.575 0  -0.2 -0.575 0  -0.175 -0.575 0  -0.15 -0.575 0  -0.125 -0.575 0  -0.1 -0.575 0  -0.07500000000000001 -0.575 0  -0.04999999999999999 -0.575 0  -0.02499999999999999 -0.575 0  0 -0.575 0  0.02500000000000002 -0.575 0  0.04999999999999999 -0.575 0  0.07500000000000001 -0.575 0  0.09999999999999998 -0.575 0  0.125 -0.575 0  0.15 -0.575 0  0.175 -0.575 0  0.2 -0.575 0  0.225 -0.575 0  0.25 -0.575 0  -0.25 -0.55 0  -0.225 -0.55 0  -0.2 -0.55 0  -0.175 -0.55 0  -0.15 -0.55 0  -0.125 -0.55 0  -0.1 -0.55 0  -0.07500000000000001 -0.55 0  -0.04999999999999999 -0.55 0  -0.02499999999999999 -0.55 0  0 -0.55 0  0.02500000000000002 -0.55 0  0.04999999999999999 -0.55 0  0.07500000000000001 -0.55 0  0.09999999999999998 -0.55 0  0.125 -0.55 0  0.15 -0.55 0  0.175 -0.55 0  0.2 -0.55 0  0.225 -0.55 0  0.25 -0.55 0  -0.25 -0.525 0  -0.225 -0.525 0  -0.2 -0.525 0  -0.175 -0.525 0  -0.15 -0.525 0  -0.125 -0.525 0  -0.1 -0.525 0  -0.07500000000000001 -0.525 0  -0.04999999999999999 -0.525 0  -0.02499999999999999 -0.525 0  0 -0.525 0  0.02500000000000002 -0.525 0  0.04999999999999999 -0.525 0  0.07500000000000001 -0.525 0  0.09999999999999998 -0.525 0  0.125 -0.525 0  0.15 -0.525 0  0.175 -0.525 0  0.2 -0.525 0  0.225 -0.525 0  0.25 -0.525 0  -0.25 -0.5 0  -0.225 -0.5 0  -0.2 -0.5 0  -0.175 -0.5 0  -0.15 -0.5 0  -0.125 -0.5 0  -0.1 -0.5 0  -0.07500000000000001 -0.5 0  -0.04999999999999999 -0.5 0  -0.02499999999999999 -0.5 0  0 -0.5 0  0.02500000000000002 -0.5 0  0.04999999999999999 -0.5 0  0.07500000000000001 -0.5 0  0.09999999999999998 -0.5 0  0.125 -0.5 0  0.15 -0.5 0  0.175 -0.5 0  0.2 -0.5 0  0.225 -0.5 0  0.25 -0.5 0  -0.25 -0.475 0  -0.225 -0.475 0  -0.2 -0.475 0  -0.175 -0.475 0  -0.15 -0.475 0  -0.125 -0.475 0  -0.1 -0.475 0  -0.07500000000000001 -0.475 0  -0.04999999999999999 -0.475 0  -0.02499999999999999 -0.475 0  0 -0.475 0  0.02500000000000002 -0.475 0  0.04999999999999999 -0.475 0  0.07500000000000001 -0.475 0  0.09999999999999998 -0.475 0  0.125 -0.475 0  0.15 -0.475 0  0.175 -0.475 0  0.2 -0.475 0  0.225 -0.475 0  0.25 -0.475 0  -0.25 -0.45 0  -0.225 -0.45 0  -0.2 -0.45 0  -0.175 -0.45 0  -0.15 -0.45 0  -0.125 -0.45 0  -0.1 -0.45 0  -0.07500000000000001 -0.45 0  -0.04999999999999999 -0.45 0  -0.02499999999999999 -0.45 0  0 -0.45 0  0.02500000000000002 -0.45 0  0.04999999999999999 -0.45 0  0.07500000000000001 -0.45 0  0.09999999999999998 -0.45 0  0.125 -0.45 0  0.15 -0.45 0  0.175 -0.45 0  0.2 -0.45 0  0.225 -0.45 0  0.25 -0.45 0  -0.25 -0.425 0  -0.225 -0.425 0  -0.2 -0.425 0  -0.175 -0.425 0  -0.15 -0.425 0  -0.125 -0.425 0  -0.1 -0.425 0  -0.07500000000000001 -0.425 0  -0.04999999999999999 -0.425 0  -0.02499999999999999 -0.425 0  0 -0.425 0  0.02500000000000002 -0.425 0  0.04999999999999999 -0.425 0  0.07500000000000001 -0.425 0  0.
[...]
<PointData  Scalars="pressure"> 
<DataArray  type="Float64"  Name="pressure"  format="ascii">2.6266300578186385e+07  2.6266300578186378e+07  2.6266300578186385e+07  2.6266300578186426e+07  2.6266300578186449e+07  2.6266300578186475e+07  2.6266300578186516e+07  2.6266300578186538e+07  2.6266300578186616e+07  2.6266300578186698e+07  2.6266300578186754e+07  2.6266300578186821e+07  2.6266300578186885e+07  2.6266300578186918e+07  2.6266300578187000e+07  2.6266300578187030e+07  2.6266300578187060e+07  2.6266300578187078e+07  2.6266300578187104e+07  2.6266300578187097e+07  2.6266300578187104e+07  2.6246141695296347e+07  2.6246141695296336e+07  2.6246141695296351e+07  2.6246141695296381e+07  2.6246141695296399e+07  2.6246141695296440e+07  2.6246141695296429e+07  2.6246141695296530e+07  2.6246141695296586e+07  2.6246141695296612e+07  2.6246141695296708e+07  2.6246141695296779e+07  2.6246141695296835e+07  2.6246141695296887e+07  2.6246141695296925e+07  2.6246141695296988e+07  2.6246141695297021e+07  2.6246141695297018e+07  2.6246141695297021e+07  2.6246141695297044e+07  2.6246141695297044e+07  2.6185694862037316e+07  2.6185694862037305e+07  2.6185694862037327e+07  2.6185694862037368e+07  2.6185694862037383e+07  2.6185694862037405e+07  2.6185694862037420e+07  2.6185694862037487e+07  2.6185694862037547e+07  2.6185694862037595e+07  2.6185694862037666e+07  2.6185694862037748e+07  2.6185694862037823e+07  2.6185694862037860e+07  2.6185694862037897e+07  2.6185694862037916e+07  2.6185694862037972e+07  2.6185694862037994e+07  2.6185694862038016e+07  2.6185694862038005e+07  2.6185694862038013e+07  2.6085049496245250e+07  2.6085049496245231e+07  2.6085049496245239e+07  2.6085049496245276e+07  2.6085049496245299e+07  2.6085049496245321e+07  2.6085049496245336e+07  2.6085049496245392e+07  2.6085049496245462e+07  2.6085049496245511e+07  2.6085049496245585e+07  2.6085049496245641e+07  2.6085049496245738e+07  2.6085049496245764e+07  2.6085049496245813e+07  2.6085049496245876e+07  2.6085049496245869e+07  2.6085049496245909e+07  2.6085049496245913e+07  2.6085049496245928e+07  2.6085049496245924e+07  2.5944354532789219e+07  2.5944354532789219e+07  2.5944354532789219e+07  2.5944354532789223e+07  2.5944354532789245e+07  2.5944354532789279e+07  2.5944354532789353e+07  2.5944354532789357e+07  2.5944354532789424e+07  2.5944354532789461e+07  2.5944354532789536e+07  2.5944354532789622e+07  2.5944354532789670e+07  2.5944354532789741e+07  2.5944354532789778e+07  2.5944354532789808e+07  2.5944354532789864e+07  2.5944354532789893e+07  2.5944354532789886e+07  2.5944354532789897e+07  2.5944354532789893e+07  2.5763818280589923e+07  2.5763818280589931e+07  2.5763818280589912e+07  2.5763818280589957e+07  2.5763818280589990e+07  2.5763818280590024e+07  2.5763818280590031e+07  2.5763818280590102e+07  2.5763818280590136e+07  2.5763818280590214e+07  2.5763818280590270e+07  2.5763818280590337e+07  2.5763818280590419e+07  2.5763818280590467e+07  2.5763818280590475e+07  2.5763818280590545e+07  2.5763818280590586e+07  2.5763818280590583e+07  2.5763818280590620e+07  2.5763818280590616e+07  2.5763818280590594e+07  2.5543708221068252e+07  2.5543708221068244e+07  2.5543708221068252e+07  2.5543708221068278e+07  2.5543708221068289e+07  2.5543708221068334e+07  2.5543708221068338e+07  2.5543708221068405e+07  2.5543708221068498e+07  2.5543708221068528e+07  2.5543708221068561e+07  2.5543708221068677e+07  2.5543708221068740e+07  2.5543708221068788e+07  2.5543708221068818e+07  2.5543708221068863e+07  2.5543708221068919e+07  2.5543708221068934e+07  2.5543708221068904e+07  2.5543708221068926e+07  2.5543708221068941e+07  2.5284350746676791e+07  2.5284350746676814e+07  2.5284350746676814e+07  2.5284350746676832e+07  2.5284350746676855e+07  2.5284350746676873e+07  2.5284350746676914e+07  2.5284350746676963e+07  2.5284350746677037e+07  2.5284350746677086e+07  2.5284350746677145e+07  2.5284350746677227e+07  2.5284350746677272e+07  2.5284350746677347e+07  2.5284350746677384e+07  2.5284350746677428e+07  2.5284350746677481e+07  2.5284350746677469e+07  2.5284350746677477e+07  2.5284350746677499e+07  2.5284350746677466e+07  2.4986130837826502e+07  2.4986130837826472e+07  2.4986130837826479e+07  2.4986130837826487e+07  2.4986130837826524e+07  2.4986130837826554e+07  2.4986130837826595e+07  2.4986130837826613e+07  2.4986130837826692e+07  2.4986130837826759e+07  2.4986130837826815e+07  2.4986130837826878e+07  2.4986130837826937e+07  2.4986130837826986e+07  2.4986130837827057e+07  2.4986130837827090e+07  2.4986130837827135e+07  2.4986130837827142e+07  2.4986130837827146e+07  2.4986130837827176e+07  2.4986130837827154e+07  2.4649491676208995e+07  2.4649491676208965e+07  2.4649491676209006e+07  2.4649491676208995e+07  2.4649491676208988e+07  2.4649491676209055e+07  2.4649491676209077e+07  2.4649491676209137e+07  2.4649491676209196e+07  2.4649491676209249e+07  2.4649491676209319e+07  2.4649491676209405e+07  2.4649491676209442e+07  2.4649491676209517e+07  2.4649491676209588e+07  2.4649491676209591e+07  2.4649491676209610e+07  2.4649491676209658e+07  2.4649491676209670e+07  2.4649491676209651e+07  2.4649491676209647e+07  2.4274934192244850e+07  2.4274934192244843e+07  2.4274934192244858e+07  2.4274934192244850e+07  2.4274934192244850e+07  2.4274934192244913e+07  2.4274934192244947e+07  2.4274934192244984e+07  2.4274934192245077e+07  2.4274934192245118e+07  2.4274934192245215e+07  2.4274934192245238e+07  2.4274934192245319e+07  2.4274934192245372e+07  2.4274934192245416e+07  2.4274934192245439e+07  2.4274934192245509e+07  2.4274934192245495e+07  2.4274934192245521e+07  2.4274934192245498e+07  2.4274934192245502e+07  2.3863016544156499e+07  2.3863016544156499e+07  2.3863016544156503e+07  2.3863016544156510e+07  2.3863016544156518e+07  2.3863016544156581e+07  2.3863016544156574e+07  2.3863016544156659e+07  2.3863016544156704e+07  2.3863016544156771e+07  2.3863016544156853e+07  2.3863016544156924e+07  2.3863016544156980e+07  2.3863016544157017e+07  2.3863016544157039e+07  2.3863016544157110e+07  2.3863016544157140e+07  2.3863016544157173e+07  2.3863016544157166e+07  2.3863016544157162e+07  2.3863016544157166e+07  2.3414353525985327e+07  2.3414353525985323e+07  2.3414353525985342e+07  2.3414353525985360e+07  2.3414353525985345e+07  2.3414353525985394e+07  2.3414353525985442e+07  2.3414353525985487e+07  2.3414353525985543e+07  2.3414353525985595e+07  2.3414353525985651e+07  2.3414353525985751e+07  2.3414353525985796e+07  2.3414353525985848e+07  2.3414353525985904e+07  2.3414353525985923e+07  2.3414353525985975e+07  2.3414353525985960e+07  2.3414353525985982e+07  2.3414353525985993e+07  2.3414353525985971e+07  2.2929615901742481e+07  2.2929615901742466e+07  2.2929615901742477e+07  2.2929615901742496e+07  2.2929615901742503e+07  2.2929615901742537e+07  2.2929615901742578e+07  2.2929615901742615e+07  2.2929615901742667e+07  2.2929615901742760e+07  2.2929615901742809e+07  2.2929615901742864e+07  2.2929615901742946e+07  2.2929615901742991e+07  2.2929615901743054e+07  2.2929615901743088e+07  2.2929615901743099e+07  2.2929615901743140e+07  2.2929615901743110e+07  2.2929615901743140e+07  2.2929615901743118e+07  2.2409529662810657e+07  2.2409529662810646e+07  2.2409529662810639e+07  2.2409529662810657e+07  2.2409529662810665e+07  2.2409529662810691e+07  2.2409529662810728e+07  2.2409529662810791e+07  2.2409529662810873e+07  2.2409529662810870e+07  2.2409529662810996e+07  2.2409529662811045e+07  2.2409529662811100e+07  2.2409529662811171e+07  2.2409529662811216e+07  2.2409529662811257e+07  2.2409529662811283e+07  2.2409529662811287e+07  2.2409529662811294e+07  2.2409529662811294e+07  2.2409529662811294e+07  2.1854875205699790e+07  2.1854875205699794e+07  2.1854875205699794e+07  2.1854875205699801e+07  2.1854875205699805e+07  2.1854875205699854e+07  2.1854875205699891e+07  2.1854875205699921e+07  2.1854875205699984e+07  2.1854875205700047e+07  2.1854875205700114e+07  2.1854875205700189e+07  2.1854875205700252e+07  2.1854875205700316e+07  2.1854875205700360e+07  2.1854875205700383e+07  2.1854875205700431e+07  2.1854875205700412e+07  2.1854875205700431e+07  2.1854875205700416e+07  2.1854875205700416e+07  2.1266486427305628e+07  2.1266486427305654e+07  2.1266486427305631e+07  2.1266486427305646e+07  2.1266486427305669e+07  2.1266486427305683e+07  2.1266486427305698e+07  2.1266486427305777e+07  2.1266486427305833e+07  2.1266486427305855e+07  2.1266486427305944e+07  2.1266486427306019e+07  2.1266486427306082e+07  2.1266486427306134e+07  2.1266486427306160e+07  2.1266486427306216e+07  2.1266486427306224e+07  2.1266486427306250e+07  2.1266486427306257e+07  2.1266486427306242e+07  2.1266486427306280e+07  2.0645249734927833e+07  2.0645249734927826e+07  2.0645249734927826e+07  2.0645249734927841e+07  2.0645249734927867e+07  2.0645249734927870e+07  2.0645249734927926e+07  2.0645249734927952e+07  2.0645249734927997e+07  2.0645249734928045e+07  2.0645249734928094e+07  2.0645249734928194e+07  2.0645249734928258e+07  2.0645249734928325e+07  2.0645249734928340e+07  2.0645249734928347e+07  2.0645249734928448e+07  2.0645249734928396e+07  2.0645249734928437e+07  2.0645249734928492e+07  2.0645249734928418e+07  1.9992102968473494e+07  1.9992102968473483e+07  1.9992102968473502e+07  1.9992102968473513e+07  1.9992102968473524e+07  1.9992102968473554e+07  1.9992102968473561e+07  1.9992102968473628e+07  1.9992102968473691e+07  1.9992102968473718e+07  1.9992102968473773e+07  1.9992102968473859e+07  1.9992102968473941e+07  1.9992102968473971e+07  1.9992102968474012e+07  1.9992102968474049e+07  1.9992102968474060e+07  1.9992102968474075e+07  1.9992102968474083e+07  1.9992102968474094e+07  1.9992102968474090e+07  1.9308034232502226e+07  1.9308034232502230e+07  1.9308034232502218e+07  1.9308034232502237e+07  1.9308034232502259e+07  1.9308034232502259e+07  1.9308034232502300e+07  1.9308034232502360e+07  1.9308034232502393e+07  1.9308034232502446e+07  1.9308034232502516e+07  1.9308034232502587e+07  1.9308034232502639e+07  1.9308034232502699e+07  1.9308034232502755e+07  1.9308034232502777e+07  1.9308034232502781e+07  1.9308034232502785e+07  1.9308034232502785e+07  1.9308034232502796e+07  1.9308034232502799e+07  1.8594080636057377e+07  1.8594080636057343e+07  1.8594080636057351e+07  1.8594080636057377e+07  1.8594080636057403e+07  1.8594080636057422e+07  1.8594080636057425e+07  1.8594080636057481e+07  1.8594080636057530e+07  1.8594080636057567e+07  1.8594080636057626e+07  1.8594080636057701e+07  1.8594080636057753e+07  1.8594080636057802e+07  1.8594080636057850e+07  1.8594080636057872e+07  1.8594080636057910e+07  1.8594080636057906e+07  1.8594080636057910e+07  1.8594080636057898e+07  1.8594080636057906e+07  1.7851326938574608e+07  1.7851326938574608e+07  1.7851326938574616e+07  1.7851326938574634e+07  1.7851326938574657e+07  1.7851326938574679e+07  1.7851326938574698e+07  1.7851326938574750e+07  1.7851326938574795e+07  1.7851326938574836e+07  1.7851326938574899e+07  1.7851326938574959e+07  1.7851326938575014e+07  1.7851326938575059e+07  1.7851326938575119e+07  1.7851326938575126e+07  1.7851326938575141e+07  1.7851326938575160e+07  1.7851326938575160e+07  1.7851326938575167e+07  1.7851326938575167e+07  1.7080904100557931e+07  1.7080904100557920e+07  1.7080904100557923e+07  1.7080904100557964e+07  1.7080904100557975e+07  1.7080904100557990e+07  1.7080904100558024e+07  1.7080904100558057e+07  1.7080904100558102e+07  1.7080904100558158e+07  1.7080904100558184e+07  1.7080904100558259e+07  1.7080904100558307e+07  1.7080904100558355e+07  1.7080904100558419e+07  1.7080904100558434e+07  1.7080904100558475e+07  1.7080904100558460e+07  1.7080904100558486e+07  1.7080904100558482e+07  1.7080904100558478e+07  1.6283987738160387e+07  1.6283987738160389e+07  1.6283987738160398e+07  1.6283987738160407e+07  1.6283987738160422e+07  1.6283987738160437e+07  1.6283987738160474e+07  1.6283987738160508e+07  1.6283987738160562e+07  1.6283987738160603e+07  1.6283987738160651e+07  1.6283987738160701e+07  1.6283987738160765e+07  1.6283987738160815e+07  1.6283987738160854e+07  1.6283987738160886e+07  1.6283987738160899e+07  1.6283987738160914e+07  1.6283987738160910e+07  1.6283987738160927e+07  1.6283987738160927e+07  1.5461796481301179e+07  1.5461796481301175e+07  1.5461796481301188e+07  1.5461796481301166e+07  1.5461796481301181e+07  1.5461796481301224e+07  1.5461796481301265e+07  1.5461796481301285e+07  1.5461796481301319e+07  1.5461796481301369e+07  1.5461796481301442e+07  1.5461796481301470e+07  1.5461796481301533e+07  1.5461796481301568e+07  1.5461796481301626e+07  1.5461796481301647e+07  1.5461796481301649e+07  1.5461796481301671e+07  1.5461796481301676e+07  1.5461796481301678e+07  1.5461796481301678e+07  1.4615590235480309e+07  1.4615590235480314e+07  1.4615590235480305e+07  1.4615590235480327e+07  1.4615590235480357e+07  1.4615590235480363e+07  1.4615590235480381e+07  1.4615590235480413e+07  1.4615590235480472e+07  1.4615590235480504e+07  1.4615590235480558e+07  1.4615590235480620e+07  1.4615590235480649e+07  1.4615590235480703e+07  1.4615590235480739e+07  1.4615590235480763e+07  1.4615590235480774e+07  1.4615590235480787e+07  1.4615590235480787e+07  1.4615590235480797e+07  1.4615590235480810e+07  1.3746668348017253e+07  1.3746668348017242e+07  1.3746668348017255e+07  1.3746668348017262e+07  1.3746668348017260e+07  1.3746668348017290e+07  1.3746668348017296e+07  1.3746668348017359e+07  1.3746668348017408e+07  1.3746668348017443e+07  1.3746668348017482e+07  1.3746668348017549e+07  1.3746668348017590e+07  1.3746668348017611e+07  1.3746668348017661e+07  1.3746668348017672e+07  1.3746668348017683e+07  1.3746668348017700e+07  1.3746668348017713e+07  1.3746668348017709e+07  1.3746668348017719e+07  1.2856367680028893e+07  1.2856367680028901e+07  1.2856367680028901e+07  1.2856367680028904e+07  1.2856367680028910e+07  1.2856367680028914e+07  1.2856367680028953e+07  1.2856367680028988e+07  1.2856367680029040e+07  1.2856367680029087e+07  1.2856367680029124e+07  1.2856367680029182e+07  1.2856367680029206e+07  1.2856367680029251e+07  1.2856367680029307e+07  1.2856367680029290e+07  1.2856367680029303e+07  1.2856367680029321e+07  1.2856367680029333e+07  1.2856367680029342e+07  1.2856367680029335e+07  1.1946060586072292e+07  1.1946060586072259e+07  1.1946060586072275e+07  1.1946060586072288e+07  1.1946060586072285e+07  1.1946060586072316e+07  1.1946060586072311e+07  1.1946060586072365e+07  1.1946060586072406e+07  1.1946060586072449e+07  1.1946060586072501e+07  1.1946060586072545e+07  1.1946060586072579e+07  1.1946060586072627e+07  1.1946060586072655e+07  1.1946060586072676e+07  1.1946060586072685e+07  1.1946060586072683e+07  1.1946060586072693e+07  1.1946060586072691e+07  1.1946060586072693e+07  1.1017152803997029e+07  1.1017152803997021e+07  1.1017152803997019e+07  1.1017152803997017e+07  1.1017152803997008e+07  1.1017152803997027e+07  1.1017152803997051e+07  1.1017152803997086e+07  1.1017152803997111e+07  1.1017152803997150e+07  1.1017152803997193e+07  1.1017152803997247e+07  1.1017152803997288e+07  1.1017152803997332e+07  1.1017152803997373e+07  1.1017152803997369e+07  1.1017152803997381e+07  1.1017152803997379e+07  1.1017152803997384e+07  1.1017152803997386e+07  1.1017152803997394e+07  1.0071081258177873e+07  1.0071081258177869e+07  1.0071081258177865e+07  1.0071081258177865e+07  1.0071081258177862e+07  1.0071081258177875e+07  1.0071081258177886e+07  1.0071081258177912e+07  1.0071081258177949e+07  1.0071081258177999e+07  1.0071081258178022e+07  1.0071081258178063e+07  1.0071081258178104e+07  1.0071081258178148e+07  1.0071081258178186e+07  1.0071081258178188e+07  1.0071081258178186e+07  1.0071081258178186e+07  1.0071081258178186e+07  1.0071081258178180e+07  1.0071081258178189e+07  9.1093117799184062e+06  9.1093117799184080e+06  9.1093117799184080e+06  9.1093117799184080e+06  9.1093117799184006e+06  9.1093117799184248e+06  9.1093117799184304e+06  9.1093117799184583e+06  9.1093117799184807e+06  9.1093117799185067e+06  9.1093117799185477e+06  9.1093117799185812e+06  9.1093117799186148e+06  9.1093117799186520e+06  9.1093117799186762e+06  9.1093117799186762e+06  9.1093117799186800e+06  9.1093117799186762e+06  9.1093117799186874e+06  9.1093117799186800e+06  9.1093117799186856e+06  8.1333367494264198e+06  8.1333367494264161e+06  8.1333367494264077e+06  8.1333367494264254e+06  8.1333367494264245e+06  8.1333367494264338e+06  8.1333367494264534e+06  8.1333367494264608e+06  8.1333367494264813e+06  8.1333367494265046e+06  8.1333367494265344e+06  8.1333367494265754e+06  8.1333367494265931e+06  8.1333367494266275e+06  8.1333367494266536e+06  8.1333367494266471e+06  8.1333367494266490e+06  8.1333367494266452e+06  8.1333367494266545e+06  8.1333367494266545e+06  8.1333367494266639e+06  7.1446726643522084e+06  7.1446726643522074e+06  7.1446726643522168e+06  7.1446726643522102e+06  7.1446726643522233e+06  7.1446726643522279e+06  7.1446726643522223e+06  7.1446726643522512e+06  7.1446726643522717e+06  7.1446726643522922e+06  7.1446726643523155e+06  7.1446726643523332e+06  7.1446726643523583e+06  7.1446726643523844e+06  7.1446726643524077e+06  7.1446726643524002e+06  7.1446726643524077e+06  7.1446726643523937e+06  7.1446726643523956e+06  7.1446726643524235e+06  7.1446726643524049e+06  6.1448576404451327e+06  6.1448576404451318e+06  6.1448576404451262e+06  6.1448576404451272e+06  6.1448576404451337e+06  6.1448576404451374e+06  6.1448576404451458e+06  6.1448576404451653e+06  6.1448576404451858e+06  6.1448576404452091e+06  6.1448576404452268e+06  6.1448576404452510e+06  6.1448576404452603e+06  6.1448576404452799e+06  6.1448576404452911e+06  6.1448576404452873e+06  6.1448576404452845e+06  6.1448576404452911e+06  6.1448576404452836e+06  6.1448576404452911e+06  6.1448576404452883e+06  5.1354488504141252e+06  5.1354488504141234e+06  5.1354488504141169e+06  5.1354488504141113e+06  5.1354488504141252e+06  5.1354488504141308e+06  5.1354488504141401e+06  5.1354488504141532e+06  5.1354488504141634e+06  5.1354488504141849e+06  5.1354488504142044e+06  5.1354488504142221e+06  5.1354488504142314e+06  5.1354488504142510e+06  5.1354488504142584e+06  5.1354488504142603e+06  5.1354488504142594e+06  5.1354488504142584e+06  5.1354488504142491e+06  5.1354488504142398e+06  5.1354488504142463e+06  4.1180199075682699e+06  4.1180199075682596e+06  4.1180199075682517e+06  4.1180199075682485e+06  4.1180199075682415e+06  4.1180199075682596e+06  4.1180199075682624e+06  4.1180199075682773e+06  4.1180199075682890e+06  4.1180199075683034e+06  4.1180199075683160e+06  4.1180199075683323e+06  4.1180199075683476e+06  4.1180199075683644e+06  4.1180199075683686e+06  4.1180199075683691e+06  4.1180199075683658e+06  4.1180199075683635e+06  4.1180199075683625e+06  4.1180199075683565e+06  4.1180199075683607e+06  3.0941582012568549e+06  3.0941582012568554e+06  3.0941582012568521e+06  3.0941582012568442e+06  3.0941582012568465e+06  3.0941582012568582e+06  3.0941582012568573e+06  3.0941582012568675e+06  3.0941582012568847e+06  3.0941582012568875e+06  3.0941582012568973e+06  3.0941582012569122e+06  3.0941582012569178e+06  3.0941582012569336e+06  3.0941582012569383e+06  3.0941582012569406e+06  3.0941582012569448e+06  3.0941582012569420e+06  3.0941582012569364e+06  3.0941582012569373e+06  3.0941582012569322e+06  2.0654621915202218e+06  2.0654621915202190e+06  2.0654621915202185e+06  2.0654621915202097e+06  2.0654621915202078e+06  2.0654621915202222e+06  2.0654621915202290e+06  2.0654621915202362e+06  2.0654621915202425e+06  2.0654621915202397e+06  2.0654621915202527e+06  2.0654621915202469e+06  2.0654621915202546e+06  2.0654621915202613e+06  2.0654621915202683e+06  2.0654621915202786e+06  2.0654621915202716e+06  2.0654621915202674e+06  2.0654621915202606e+06  2.0654621915202579e+06  2.0654621915202623e+06  1.0335386706961391e+06  1.0335386706961438e+06  1.0335386706961391e+06  1.0335386706961377e+06  1.0335386706961292e+06  1.0335386706961450e+06  1.0335386706961443e+06  1.0335386706961507e+06  1.0335386706961417e+06  1.0335386706961330e+06  1.033538670