<?xml version="1.0"?>
<VTKFile type="UnstructuredGrid"  version="0.1"  >
<UnstructuredGrid>
<Piece  NumberOfPoints="1661" NumberOfCells="3200">
<Points>
<DataArray  type="Float64"  NumberOfComponents="3"  format="ascii">-0.25 -1 0  -0.225 -1 0  -0.2 -1 0  -0.175 -1 0  -0.15 -1 0  -0.125 -1 0  -0.1 -1 0  -0.07500000000000001 -1 0  -0.04999999999999999 -1 0  -0.02499999999999999 -1 0  0 -1 0  0.02500000000000002 -1 0  0.04999999999999999 -1 0  0.07500000000000001 -1 0  0.09999999999999998 -1 0  0.125 -1 0  0.15 -1 0  0.175 -1 0  0.2 -1 0  0.225 -1 0  0.25 -1 0  -0.25 -0.975 0  -0.225 -0.975 0  -0.2 -0.975 0  -0.175 -0.975 0  -0.15 -0.975 0  -0.125 -0.975 0  -0.1 -0.975 0  -0.07500000000000001 -0.975 0  -0.04999999999999999 -0.975 0  -0.02499999999999999 -0.975 0  0 -0.975 0  0.02500000000000002 -0.975 0  0.04999999999999999 -0.975 0  0.07500000000000001 -0.975 0  0.09999999999999998 -0.975 0  0.125 -0.975 0  0.15 -0.975 0  0.175 -0.975 0  0.2 -0.975 0  0.225 -0.975 0  0.25 -0.975 0  -0.25 -0.95 0  -0.225 -0.95 0  -0.2 -0.95 0  -0.175 -0.95 0  -0.15 -0.95 0  -0.125 -0.95 0  -0.1 -0.95 0  -0.07500000000000001 -0.95 0  -0.04999999999999999 -0.95 0  -0.02499999999999999 -0.95 0  0 -0.95 0  0.02500000000000002 -0.95 0  0.04999999999999999 -0.95 0  0.07500000000000001 -0.95 0  0.09999999999999998 -0.95 0  0.125 -0.95 0  0.15 -0.95 0  0.175 -0.95 0  0.2 -0.95 0  0.225 -0.95 0  0.25 -0.95 0  -0.25 -0.925 0  -0.225 -0.925 0  -0.2 -0.925 0  -0.175 -0.925 0  -0.15 -0.925 0  -0.125 -0.925 0  -0.1 -0.925 0  -0.07500000000000001 -0.925 0  -0.04999999999999999 -0.925 0  -0.02499999999999999 -0.925 0  0 -0.925 0  0.02500000000000002 -0.925 0  0.04999999999999999 -0.925 0  0.07500000000000001 -0.925 0  0.09999999999999998 -0.925 0  0.125 -0.925 0  0.15 -0.925 0  0.175 -0.925 0  0.2 -0.925 0  0.225 -0.925 0  0.25 -0.925 0  -0.25 -0.9 0  -0.225 -0.9 0  -0.2 -0.9 0  -0.175 -0.9 0  -0.15 -0.9 0  -0.125 -0.9 0  -0.1 -0.9 0  -0.07500000000000001 -0.9 0  -0.04999999999999999 -0.9 0  -0.02499999999999999 -0.9 0  0 -0.9 0  0.02500000000000002 -0.9 0  0.04999999999999999 -0.9 0  0.07500000000000001 -0.9 0  0.09999999999999998 -0.9 0  0.125 -0.9 0  0.15 -0.9 0  0.175 -0.9 0  0.2 -0.9 0  0.225 -0.9 0  0.25 -0.9 0  -0.25 -0.875 0  -0.225 -0.875 0  -0.2 -0.875 0  -0.175 -0.875 0  -0.15 -0.875 0  -0.125 -0.875 0  -0.1 -0.875 0  -0.07500000000000001 -0.875 0  -0.04999999999999999 -0.875 0  -0.02499999999999999 -0.875 0  0 -0.875 0  0.02500000000000002 -0.875 0  0.04999999999999999 -0.875 0  0.07500000000000001 -0.875 0  0.09999999999999998 -0.875 0  0.125 -0.875 0  0.15 -0.875 0  0.175 -0.875 0  0.2 -0.875 0  0.225 -0.875 0  0.25 -0.875 0  -0.25 -0.85 0  -0.225 -0.85 0  -0.2 -0.85 0  -0.175 -0.85 0  -0.15 -0.85 0  -0.125 -0.85 0  -0.1 -0.85 0  -0.07500000000000001 -0.85 0  -0.04999999999999999 -0.85 0  -0.02499999999999999 -0.85 0  0 -0.85 0  0.02500000000000002 -0.85 0  0.04999999999999999 -0.85 0  0.07500000000000001 -0.85 0  0.09999999999999998 -0.85 0  0.125 -0.85 0  0.15 -0.85 0  0.175 -0.85 0  0.2 -0.85 0  0.225 -0.85 0  0.25 -0.85 0  -0.25 -0.825 0  -0.225 -0.825 0  -0.2 -0.825 0  -0.175 -0.825 0  -0.15 -0.825 0  -0.125 -0.825 0  -0.1 -0.825 0  -0.07500000000000001 -0.825 0  -0.04999999999999999 -0.825 0  -0.02499999999999999 -0.825 0  0 -0.825 0  0.02500000000000002 -0.825 0  0.04999999999999999 -0.825 0  0.07500000000000001 -0.825 0  0.09999999999999998 -0.825 0  0.125 -0.825 0  0.15 -0.825 0  0.175 -0.825 0  0.2 -0.825 0  0.225 -0.825 0  0.25 -0.825 0  -0.25 -0.8 0  -0.225 -0.8 0  -0.2 -0.8 0  -0.175 -0.8 0  -0.15 -0.8 0  -0.125 -0.8 0  -0.1 -0.8 0  -0.07500000000000001 -0.8 0  -0.04999999999999999 -0.8 0  -0.02499999999999999 -0.8 0  0 -0.8 0  0.02500000000000002 -0.8 0  0.04999999999999999 -0.8 0  0.07500000000000001 -0.8 0  0.09999999999999998 -0.8 0  0.125 -0.8 0  0.15 -0.8 0  0.175 -0.8 0  0.2 -0.8 0  0.225 -0.8 0  0.25 -0.8 0  -0.25 -0.775 0  -0.225 -0.775 0  -0.2 -0.775 0  -0.175 -0.775 0  -0.15 -0.775 0  -0.125 -0.775 0  -0.1 -0.775 0  -0.07500000000000001 -0.775 0  -0.04999999999999999 -0.775 0  -0.02499999999999999 -0.775 0  0 -0.775 0  0.02500000000000002 -0.775 0  0.04999999999999999 -0.775 0  0.07500000000000001 -0.775 0  0.09999999999999998 -0.775 0  0.125 -0.775 0  0.15 -0.775 0  0.175 -0.775 0  0.2 -0.775 0  0.225 -0.775 0  0.25 -0.775 0  -0.25 -0.75 0  -0.225 -0.75 0  -0.2 -0.75 0  -0.175 -0.75 0  -0.15 -0.75 0  -0.125 -0.75 0  -0.1 -0.75 0  -0.07500000000000001 -0.75 0  -0.04999999999999999 -0.75 0  -0.02499999999999999 -0.75 0  0 -0.75 0  0.02500000000000002 -0.75 0  0.04999999999999999 -0.75 0  0.07500000000000001 -0.75 0  0.09999999999999998 -0.75 0  0.125 -0.75 0  0.15 -0.75 0  0.175 -0.75 0  0.2 -0.75 0  0.225 -0.75 0  0.25 -0.75 0  -0.25 -0.725 0  -0.225 -0.725 0  -0.2 -0.725 0  -0.175 -0.725 0  -0.15 -0.725 0  -0.125 -0.725 0  -0.1 -0.725 0  -0.07500000000000001 -0.725 0  -0.04999999999999999 -0.725 0  -0.02499999999999999 -0.725 0  0 -0.725 0  0.02500000000000002 -0.725 0  0.04999999999999999 -0.725 0  0.07500000000000001 -0.725 0  0.09999999999999998 -0.725 0  0.125 -0.725 0  0.15 -0.725 0  0.175 -0.725 0  0.2 -0.725 0  0.225 -0.725 0  0.25 -0.725 0  -0.25 -0.7 0  -0.225 -0.7 0  -0.2 -0.7 0  -0.175 -0.7 0  -0.15 -0.7 0  -0.125 -0.7 0  -0.1 -0.7 0  -0.07500000000000001 -0.7 0  -0.04999999999999999 -0.7 0  -0.02499999999999999 -0.7 0  0 -0.7 0  0.02500000000000002 -0.7 0  0.04999999999999999 -0.7 0  0.07500000000000001 -0.7 0  0.09999999999999998 -0.7 0  0.125 -0.7 0  0.15 -0.7 0  0.175 -0.7 0  0.2 -0.7 0  0.225 -0.7 0  0.25 -0.7 0  -0.25 -0.675 0  -0.225 -0.675 0  -0.2 -0.675 0  -0.175 -0.675 0  -0.15 -0.675 0  -0.125 -0.675 0  -0.1 -0.675 0  -0.07500000000000001 -0.675 0  -0.04999999999999999 -0.675 0  -0.02499999999999999 -0.675 0  0 -0.675 0  0.02500000000000002 -0.675 0  0.04999999999999999 -0.675 0  0.07500000000000001 -0.675 0  0.09999999999999998 -0.675 0  0.125 -0.675 0  0.15 -0.675 0  0.175 -0.675 0  0.2 -0.675 0  0.225 -0.675 0  0.25 -0.675 0  -0.25 -0.65 0  -0.225 -0.65 0  -0.2 -0.65 0  -0.175 -0.65 0  -0.15 -0.65 0  -0.125 -0.65 0  -0.1 -0.65 0  -0.07500000000000001 -0.65 0  -0.04999999999999999 -0.65 0  -0.02499999999999999 -0.65 0  0 -0.65 0  0.02500000000000002 -0.65 0  0.04999999999999999 -0.65 0  0.07500000000000001 -0.65 0  0.09999999999999998 -0.65 0  0.125 -0.65 0  0.15 -0.65 0  0.175 -0.65 0  0.2 -0.65 0  0.225 -0.65 0  0.25 -0.65 0  -0.25 -0.625 0  -0.225 -0.625 0  -0.2 -0.625 0  -0.175 -0.625 0  -0.15 -0.625 0  -0.125 -0.625 0  -0.1 -0.625 0  -0.07500000000000001 -0.625 0  -0.04999999999999999 -0.625 0  -0.02499999999999999 -0.625 0  0 -0.625 0  0.02500000000000002 -0.625 0  0.04999999999999999 -0.625 0  0.07500000000000001 -0.625 0  0.09999999999999998 -0.625 0  0.125 -0.625 0  0.15 -0.625 0  0.175 -0.625 0  0.2 -0.625 0  0.225 -0.625 0  0.25 -0.625 0  -0.25 -0.6 0  -0.225 -0.6 0  -0.2 -0.6 0  -0.175 -0.6 0  -0.15 -0.6 0  -0.125 -0.6 0  -0.1 -0.6 0  -0.07500000000000001 -0.6 0  -0.04999999999999999 -0.6 0  -0.02499999999999999 -0.6 0  0 -0.6 0  0.02500000000000002 -0.6 0  0.04999999999999999 -0.6 0  0.07500000000000001 -0.6 0  0.09999999999999998 -0.6 0  0.125 -0.6 0  0.15 -0.6 0  0.175 -0.6 0  0.2 -0.6 0  0.225 -0.6 0  0.25 -0.6 0  -0.25 -0.575 0  -0.225 -0.575 0  -0.2 -0.575 0  -0.175 -0.575 0  -0.15 -0.575 0  -0.125 -0.575 0  -0.1 -0.575 0  -0.07500000000000001 -0.575 0  -0.04999999999999999 -0.575 0  -0.02499999999999999 -0.575 0  0 -0.575 0  0.02500000000000002 -0.575 0  0.04999999999999999 -0.575 0  0.07500000000000001 -0.575 0  0.09999999999999998 -0.575 0  0.125 -0.575 0  0.15 -0.575 0  0.175 -0.575 0  0.2 -0.575 0  0.225 -0.575 0  0.25 -0.575 0  -0.25 -0.55 0  -0.225 -0.55 0  -0.2 -0.55 0  -0.175 -0.55 0  -0.15 -0.55 0  -0.125 -0.55 0  -0.1 -0.55 0  -0.07500000000000001 -0.55 0  -0.04999999999999999 -0.55 0  -0.02499999999999999 -0.55 0  0 -0.55 0  0.02500000000000002 -0.55 0  0.04999999999999999 -0.55 0  0.07500000000000001 -0.55 0  0.09999999999999998 -0.55 0  0.125 -0.55 0  0.15 -0.55 0  0.175 -0.55 0  0.2 -0.55 0  0.225 -0.55 0  0.25 -0.55 0  -0.25 -0.525 0  -0.225 -0.525 0  -0.2 -0.525 0  -0.175 -0.525 0  -0.15 -0.525 0  -0.125 -0.525 0  -0.1 -0.525 0  -0.07500000000000001 -0.525 0  -0.04999999999999999 -0.525 0  -0.02499999999999999 -0.525 0  0 -0.525 0  0.02500000000000002 -0.525 0  0.04999999999999999 -0.525 0  0.07500000000000001 -0.525 0  0.09999999999999998 -0.525 0  0.125 -0.525 0  0.15 -0.525 0  0.175 -0.525 0  0.2 -0.525 0  0.225 -0.525 0  0.25 -0.525 0  -0.25 -0.5 0  -0.225 -0.5 0  -0.2 -0.5 0  -0.175 -0.5 0  -0.15 -0.5 0  -0.125 -0.5 0  -0.1 -0.5 0  -0.07500000000000001 -0.5 0  -0.04999999999999999 -0.5 0  -0.02499999999999999 -0.5 0  0 -0.5 0  0.02500000000000002 -0.5 0  0.04999999999999999 -0.5 0  0.07500000000000001 -0.5 0  0.09999999999999998 -0.5 0  0.125 -0.5 0  0.15 -0.5 0  0.175 -0.5 0  0.2 -0.5 0  0.225 -0.5 0  0.25 -0.5 0  -0.25 -0.475 0  -0.225 -0.475 0  -0.2 -0.475 0  -0.175 -0.475 0  -0.15 -0.475 0  -0.125 -0.475 0  -0.1 -0.475 0  -0.07500000000000001 -0.475 0  -0.04999999999999999 -0.475 0  -0.02499999999999999 -0.475 0  0 -0.475 0  0.02500000000000002 -0.475 0  0.04999999999999999 -0.475 0  0.07500000000000001 -0.475 0  0.09999999999999998 -0.475 0  0.125 -0.475 0  0.15 -0.475 0  0.175 -0.475 0  0.2 -0.475 0  0.225 -0.475 0  0.25 -0.475 0  -0.25 -0.45 0  -0.225 -0.45 0  -0.2 -0.45 0  -0.175 -0.45 0  -0.15 -0.45 0  -0.125 -0.45 0  -0.1 -0.45 0  -0.07500000000000001 -0.45 0  -0.04999999999999999 -0.45 0  -0.02499999999999999 -0.45 0  0 -0.45 0  0.02500000000000002 -0.45 0  0.04999999999999999 -0.45 0  0.07500000000000001 -0.45 0  0.09999999999999998 -0.45 0  0.125 -0.45 0  0.15 -0.45 0  0.175 -0.45 0  0.2 -0.45 0  0.225 -0.45 0  0.25 -0.45 0  -0.25 -0.425 0  -0.225 -0.425 0  -0.2 -0.425 0  -0.175 -0.425 0  -0.15 -0.425 0  -0.125 -0.425 0  -0.1 -0.425 0  -0.07500000000000001 -0.425 0  -0.04999999999999999 -0.425 0  -0.02499999999999999 -0.425 0  0 -0.425 0  0.02500000000000002 -0.425 0  0.04999999999999999 -0.425 0  0.07500000000000001 -0.425 0  0.
[...]
<PointData  Scalars="pressure"> 
<DataArray  type="Float64"  Name="pressure"  format="ascii">2.6354739124876037e+06  2.6354739124876047e+06  2.6354739124876074e+06  2.6354739124876047e+06  2.6354739124876070e+06  2.6354739124876023e+06  2.6354739124876009e+06  2.6354739124876098e+06  2.6354739124876196e+06  2.6354739124876289e+06  2.6354739124876359e+06  2.6354739124876400e+06  2.6354739124876452e+06  2.6354739124876484e+06  2.6354739124876605e+06  2.6354739124876526e+06  2.6354739124876498e+06  2.6354739124876484e+06  2.6354739124876438e+06  2.6354739124876433e+06  2.6354739124876424e+06  2.6334420576129677e+06  2.6334420576129653e+06  2.6334420576129672e+06  2.6334420576129695e+06  2.6334420576129672e+06  2.6334420576129691e+06  2.6334420576129607e+06  2.6334420576129737e+06  2.6334420576129849e+06  2.6334420576129910e+06  2.6334420576129965e+06  2.6334420576130059e+06  2.6334420576130054e+06  2.6334420576130110e+06  2.6334420576130138e+06  2.6334420576130166e+06  2.6334420576130138e+06  2.6334420576130077e+06  2.6334420576130096e+06  2.6334420576130059e+06  2.6334420576130073e+06  2.6273496259619980e+06  2.6273496259619985e+06  2.6273496259619999e+06  2.6273496259619957e+06  2.6273496259620036e+06  2.6273496259619999e+06  2.6273496259620087e+06  2.6273496259620083e+06  2.6273496259620176e+06  2.6273496259620278e+06  2.6273496259620325e+06  2.6273496259620381e+06  2.6273496259620404e+06  2.6273496259620464e+06  2.6273496259620427e+06  2.6273496259620436e+06  2.6273496259620427e+06  2.6273496259620436e+06  2.6273496259620409e+06  2.6273496259620418e+06  2.6273496259620395e+06  2.6172060116226985e+06  2.6172060116226971e+06  2.6172060116226994e+06  2.6172060116226994e+06  2.6172060116227027e+06  2.6172060116227069e+06  2.6172060116227027e+06  2.6172060116227139e+06  2.6172060116227218e+06  2.6172060116227292e+06  2.6172060116227362e+06  2.6172060116227404e+06  2.6172060116227437e+06  2.6172060116227469e+06  2.6172060116227497e+06  2.6172060116227474e+06  2.6172060116227451e+06  2.6172060116227479e+06  2.6172060116227465e+06  2.6172060116227432e+06  2.6172060116227432e+06  2.6030268553131241e+06  2.6030268553131274e+06  2.6030268553131330e+06  2.6030268553131334e+06  2.6030268553131344e+06  2.6030268553131395e+06  2.6030268553131386e+06  2.6030268553131497e+06  2.6030268553131516e+06  2.6030268553131619e+06  2.6030268553131651e+06  2.6030268553131712e+06  2.6030268553131749e+06  2.6030268553131809e+06  2.6030268553131861e+06  2.6030268553131805e+06  2.6030268553131814e+06  2.6030268553131758e+06  2.6030268553131735e+06  2.6030268553131730e+06  2.6030268553131735e+06  2.5848340202645492e+06  2.5848340202645492e+06  2.5848340202645496e+06  2.5848340202645557e+06  2.5848340202645627e+06  2.5848340202645627e+06  2.5848340202645706e+06  2.5848340202645715e+06  2.5848340202645808e+06  2.5848340202645846e+06  2.5848340202645892e+06  2.5848340202645957e+06  2.5848340202645981e+06  2.5848340202646060e+06  2.5848340202646172e+06  2.5848340202646060e+06  2.5848340202646055e+06  2.5848340202645981e+06  2.5848340202645888e+06  2.5848340202645953e+06  2.5848340202645967e+06  2.5626555585099119e+06  2.5626555585099142e+06  2.5626555585099184e+06  2.5626555585099226e+06  2.5626555585099235e+06  2.5626555585099342e+06  2.5626555585099417e+06  2.5626555585099468e+06  2.5626555585099556e+06  2.5626555585099603e+06  2.5626555585099608e+06  2.5626555585099608e+06  2.5626555585099664e+06  2.5626555585099813e+06  2.5626555585099855e+06  2.5626555585099780e+06  2.5626555585099766e+06  2.5626555585099664e+06  2.5626555585099654e+06  2.5626555585099650e+06  2.5626555585099678e+06  2.5365256676296615e+06  2.5365256676296615e+06  2.5365256676296610e+06  2.5365256676296722e+06  2.5365256676296769e+06  2.5365256676296843e+06  2.5365256676296908e+06  2.5365256676296950e+06  2.5365256676297011e+06  2.5365256676297071e+06  2.5365256676297085e+06  2.5365256676297165e+06  2.5365256676297206e+06  2.5365256676297318e+06  2.5365256676297365e+06  2.5365256676297300e+06  2.5365256676297216e+06  2.5365256676297216e+06  2.5365256676297211e+06  2.5365256676297230e+06  2.5365256676297206e+06  2.5064846380215357e+06  2.5064846380215259e+06  2.5064846380215450e+06  2.5064846380215352e+06  2.5064846380215562e+06  2.5064846380215581e+06  2.5064846380215646e+06  2.5064846380215683e+06  2.5064846380215753e+06  2.5064846380215818e+06  2.5064846380215837e+06  2.5064846380215907e+06  2.5064846380215981e+06  2.5064846380216065e+06  2.5064846380216032e+06  2.5064846380216074e+06  2.5064846380216023e+06  2.5064846380216004e+06  2.5064846380215986e+06  2.5064846380215986e+06  2.5064846380216028e+06  2.4725787907757014e+06  2.4725787907757000e+06  2.4725787907757028e+06  2.4725787907757051e+06  2.4725787907757093e+06  2.4725787907757154e+06  2.4725787907757186e+06  2.4725787907757279e+06  2.4725787907757363e+06  2.4725787907757382e+06  2.4725787907757517e+06  2.4725787907757577e+06  2.4725787907757657e+06  2.4725787907757699e+06  2.4725787907757708e+06  2.4725787907757629e+06  2.4725787907757666e+06  2.4725787907757643e+06  2.4725787907757685e+06  2.4725787907757638e+06  2.4725787907757699e+06  2.4348604062509821e+06  2.4348604062509807e+06  2.4348604062509788e+06  2.4348604062509788e+06  2.4348604062509821e+06  2.4348604062509839e+06  2.4348604062509798e+06  2.4348604062509984e+06  2.4348604062510044e+06  2.4348604062510193e+06  2.4348604062510282e+06  2.4348604062510356e+06  2.4348604062510408e+06  2.4348604062510505e+06  2.4348604062510640e+06  2.4348604062510501e+06  2.4348604062510533e+06  2.4348604062510482e+06  2.4348604062510477e+06  2.4348604062510459e+06  2.4348604062510473e+06  2.3933876434623394e+06  2.3933876434623366e+06  2.3933876434623343e+06  2.3933876434623324e+06  2.3933876434623296e+06  2.3933876434623324e+06  2.3933876434623334e+06  2.3933876434623422e+06  2.3933876434623529e+06  2.3933876434623613e+06  2.3933876434623757e+06  2.3933876434623832e+06  2.3933876434623930e+06  2.3933876434624055e+06  2.3933876434624167e+06  2.3933876434624116e+06  2.3933876434624074e+06  2.3933876434624079e+06  2.3933876434624060e+06  2.3933876434624023e+06  2.3933876434624069e+06  2.3482244504038943e+06  2.3482244504038971e+06  2.3482244504038943e+06  2.3482244504038929e+06  2.3482244504038882e+06  2.3482244504038799e+06  2.3482244504038794e+06  2.3482244504038882e+06  2.3482244504038952e+06  2.3482244504039134e+06  2.3482244504039222e+06  2.3482244504039399e+06  2.3482244504039497e+06  2.3482244504039674e+06  2.3482244504039781e+06  2.3482244504039739e+06  2.3482244504039725e+06  2.3482244504039669e+06  2.3482244504039669e+06  2.3482244504039665e+06  2.3482244504039641e+06  2.2994404654457597e+06  2.2994404654457578e+06  2.2994404654457569e+06  2.2994404654457499e+06  2.2994404654457448e+06  2.2994404654457439e+06  2.2994404654457355e+06  2.2994404654457471e+06  2.2994404654457597e+06  2.2994404654457755e+06  2.2994404654457928e+06  2.2994404654458063e+06  2.2994404654458226e+06  2.2994404654458337e+06  2.2994404654458486e+06  2.2994404654458486e+06  2.2994404654458379e+06  2.2994404654458379e+06  2.2994404654458291e+06  2.2994404654458305e+06  2.2994404654458310e+06  2.2471109099567048e+06  2.2471109099567030e+06  2.2471109099566941e+06  2.2471109099566918e+06  2.2471109099566820e+06  2.2471109099566797e+06  2.2471109099566783e+06  2.2471109099566964e+06  2.2471109099567095e+06  2.2471109099567248e+06  2.2471109099567467e+06  2.2471109099567560e+06  2.2471109099567682e+06  2.2471109099567877e+06  2.2471109099568035e+06  2.2471109099568035e+06  2.2471109099567970e+06  2.2471109099567840e+06  2.2471109099567728e+06  2.2471109099567765e+06  2.2471109099567793e+06  2.1913164723182791e+06  2.1913164723182749e+06  2.1913164723182661e+06  2.1913164723182600e+06  2.1913164723182563e+06  2.1913164723182558e+06  2.1913164723182619e+06  2.1913164723182712e+06  2.1913164723182805e+06  2.1913164723183028e+06  2.1913164723183261e+06  2.1913164723183359e+06  2.1913164723183555e+06  2.1913164723183755e+06  2.1913164723183908e+06  2.1913164723183829e+06  2.1913164723183778e+06  2.1913164723183671e+06  2.1913164723183620e+06  2.1913164723183606e+06  2.1913164723183638e+06  2.1321431835091677e+06  2.1321431835091547e+06  2.1321431835091473e+06  2.1321431835091417e+06  2.1321431835091477e+06  2.1321431835091482e+06  2.1321431835091477e+06  2.1321431835091636e+06  2.1321431835091780e+06  2.1321431835091929e+06  2.1321431835091994e+06  2.1321431835092297e+06  2.1321431835092520e+06  2.1321431835092711e+06  2.1321431835092809e+06  2.1321431835092744e+06  2.1321431835092716e+06  2.1321431835092665e+06  2.1321431835092623e+06  2.1321431835092707e+06  2.1321431835092716e+06  2.0696822844516430e+06  2.0696822844516400e+06  2.0696822844516416e+06  2.0696822844516407e+06  2.0696822844516416e+06  2.0696822844516360e+06  2.0696822844516297e+06  2.0696822844516474e+06  2.0696822844516668e+06  2.0696822844516868e+06  2.0696822844517024e+06  2.0696822844517152e+06  2.0696822844517294e+06  2.0696822844517536e+06  2.0696822844517569e+06  2.0696822844517715e+06  2.0696822844517725e+06  2.0696822844517720e+06  2.0696822844517652e+06  2.0696822844517750e+06  2.0696822844517790e+06  2.0040300853247277e+06  2.0040300853247242e+06  2.0040300853247249e+06  2.0040300853247168e+06  2.0040300853247156e+06  2.0040300853247191e+06  2.0040300853247102e+06  2.0040300853247235e+06  2.0040300853247484e+06  2.0040300853247696e+06  2.0040300853247799e+06  2.0040300853247957e+06  2.0040300853248038e+06  2.0040300853248292e+06  2.0040300853248585e+06  2.0040300853248525e+06  2.0040300853248606e+06  2.0040300853248590e+06  2.0040300853248567e+06  2.0040300853248546e+06  2.0040300853248574e+06  1.9352878170608091e+06  1.9352878170608098e+06  1.9352878170607963e+06  1.9352878170607942e+06  1.9352878170607877e+06  1.9352878170607984e+06  1.9352878170607998e+06  1.9352878170608154e+06  1.9352878170608273e+06  1.9352878170608366e+06  1.9352878170608527e+06  1.9352878170608708e+06  1.9352878170608876e+06  1.9352878170609127e+06  1.9352878170609397e+06  1.9352878170609409e+06  1.9352878170609416e+06  1.9352878170609379e+06  1.9352878170609327e+06  1.9352878170609272e+06  1.9352878170609314e+06  1.8635614752549238e+06  1.8635614752549117e+06  1.8635614752549119e+06  1.8635614752549026e+06  1.8635614752549001e+06  1.8635614752549061e+06  1.8635614752549047e+06  1.8635614752549275e+06  1.8635614752549387e+06  1.8635614752549520e+06  1.8635614752549587e+06  1.8635614752549776e+06  1.8635614752549988e+06  1.8635614752550246e+06  1.8635614752550558e+06  1.8635614752550621e+06  1.8635614752550672e+06  1.8635614752550549e+06  1.8635614752550530e+06  1.8635614752550437e+06  1.8635614752550446e+06  1.7889616567272288e+06  1.7889616567272234e+06  1.7889616567272244e+06  1.7889616567272274e+06  1.7889616567272271e+06  1.7889616567272251e+06  1.7889616567272153e+06  1.7889616567272467e+06  1.7889616567272518e+06  1.7889616567272677e+06  1.7889616567272823e+06  1.7889616567272933e+06  1.7889616567273142e+06  1.7889616567273459e+06  1.7889616567273727e+06  1.7889616567273811e+06  1.7889616567273790e+06  1.7889616567273720e+06  1.7889616567273713e+06  1.7889616567273648e+06  1.7889616567273648e+06  1.7116033889907489e+06  1.7116033889907508e+06  1.7116033889907484e+06  1.7116033889907533e+06  1.7116033889907540e+06  1.7116033889907582e+06  1.7116033889907452e+06  1.7116033889907678e+06  1.7116033889907817e+06  1.7116033889907873e+06  1.7116033889908011e+06  1.7116033889908204e+06  1.7116033889908474e+06  1.7116033889908721e+06  1.7116033889908916e+06  1.7116033889908972e+06  1.7116033889908993e+06  1.7116033889909012e+06  1.7116033889909021e+06  1.7116033889908914e+06  1.7116033889908958e+06  1.6316059528872233e+06  1.6316059528872261e+06  1.6316059528872324e+06  1.6316059528872343e+06  1.6316059528872438e+06  1.6316059528872513e+06  1.6316059528872592e+06  1.6316059528872564e+06  1.6316059528872594e+06  1.6316059528872771e+06  1.6316059528872978e+06  1.6316059528873325e+06  1.6316059528873491e+06  1.6316059528873670e+06  1.6316059528873705e+06  1.6316059528873849e+06  1.6316059528873898e+06  1.6316059528873898e+06  1.6316059528873819e+06  1.6316059528873821e+06  1.6316059528873782e+06  1.5490926986647577e+06  1.5490926986647621e+06  1.5490926986647726e+06  1.5490926986647851e+06  1.5490926986647756e+06  1.5490926986647842e+06  1.5490926986647979e+06  1.5490926986648066e+06  1.5490926986648047e+06  1.5490926986648242e+06  1.5490926986648510e+06  1.5490926986648759e+06  1.5490926986648985e+06  1.5490926986649127e+06  1.5490926986649199e+06  1.5490926986649253e+06  1.5490926986649258e+06  1.5490926986649213e+06  1.5490926986649169e+06  1.5490926986649111e+06  1.5490926986649113e+06  1.4641908557806718e+06  1.4641908557806686e+06  1.4641908557806774e+06  1.4641908557806732e+06  1.4641908557806679e+06  1.4641908557806588e+06  1.4641908557806667e+06  1.4641908557806788e+06  1.4641908557807021e+06  1.4641908557807161e+06  1.4641908557807337e+06  1.4641908557807596e+06  1.4641908557807766e+06  1.4641908557807910e+06  1.4641908557808192e+06  1.4641908557808148e+06  1.4641908557808113e+06  1.4641908557807950e+06  1.4641908557807838e+06  1.4641908557807906e+06  1.4641908557807971e+06  1.3770313367228140e+06  1.3770313367228156e+06  1.3770313367228047e+06  1.3770313367228028e+06  1.3770313367227972e+06  1.3770313367227933e+06  1.3770313367227935e+06  1.3770313367228128e+06  1.3770313367228266e+06  1.3770313367228487e+06  1.3770313367228741e+06  1.3770313367228957e+06  1.3770313367229111e+06  1.3770313367229360e+06  1.3770313367229705e+06  1.3770313367229535e+06  1.3770313367229432e+06  1.3770313367229225e+06  1.3770313367229169e+06  1.3770313367229158e+06  1.3770313367229220e+06  1.2877485351521221e+06  1.2877485351521217e+06  1.2877485351521145e+06  1.2877485351521068e+06  1.2877485351520993e+06  1.2877485351520954e+06  1.2877485351520835e+06  1.2877485351521070e+06  1.2877485351521363e+06  1.2877485351521501e+06  1.2877485351521741e+06  1.2877485351521987e+06  1.2877485351522274e+06  1.2877485351522584e+06  1.2877485351522926e+06  1.2877485351522700e+06  1.2877485351522595e+06  1.2877485351522351e+06  1.2877485351522251e+06  1.2877485351522155e+06  1.2877485351522097e+06  1.1964801186772655e+06  1.1964801186772862e+06  1.1964801186772755e+06  1.1964801186772638e+06  1.1964801186772457e+06  1.1964801186772517e+06  1.1964801186772245e+06  1.1964801186772727e+06  1.1964801186773023e+06  1.1964801186773137e+06  1.1964801186773260e+06  1.1964801186773570e+06  1.1964801186773952e+06  1.1964801186774292e+06  1.1964801186774822e+06  1.1964801186774494e+06  1.1964801186774236e+06  1.1964801186773984e+06  1.1964801186773856e+06  1.1964801186773719e+06  1.1964801186773663e+06  1.1033668165812488e+06  1.1033668165812509e+06  1.1033668165812553e+06  1.1033668165812271e+06  1.1033668165812064e+06  1.1033668165811936e+06  1.1033668165811896e+06  1.1033668165812385e+06  1.1033668165812523e+06  1.1033668165812637e+06  1.1033668165812781e+06  1.1033668165813081e+06  1.1033668165813352e+06  1.1033668165813808e+06  1.1033668165814283e+06  1.1033668165813985e+06  1.1033668165813624e+06  1.1033668165813463e+06  1.1033668165813289e+06  1.1033668165813063e+06  1.1033668165813112e+06  1.0085522028268770e+06  1.0085522028268734e+06  1.0085522028268594e+06  1.0085522028268429e+06  1.0085522028268244e+06  1.0085522028268316e+06  1.0085522028268286e+06  1.0085522028268483e+06  1.0085522028268670e+06  1.0085522028268866e+06  1.0085522028269038e+06  1.0085522028269079e+06  1.0085522028269446e+06  1.0085522028269607e+06  1.0085522028270219e+06  1.0085522028269859e+06  1.0085522028269577e+06  1.0085522028269410e+06  1.0085522028269266e+06  1.0085522028269148e+06  1.0085522028269159e+06  9.1218247467630287e+05  9.1218247467629577e+05  9.1218247467628599e+05  9.1218247467626887e+05  9.1218247467625968e+05  9.1218247467626852e+05  9.1218247467624757e+05  9.1218247467626759e+05  9.1218247467629076e+05  9.1218247467630683e+05  9.1218247467632149e+05  9.1218247467633325e+05  9.1218247467635141e+05  9.1218247467637446e+05  9.1218247467640461e+05  9.1218247467637062e+05  9.1218247467635502e+05  9.1218247467634443e+05  9.1218247467633383e+05  9.1218247467633290e+05  9.1218247467633942e+05  8.1440622726536402e+05  8.1440622726535099e+05  8.1440622726534982e+05  8.1440622726533783e+05  8.1440622726532805e+05  8.1440622726533317e+05  8.1440622726531257e+05  8.1440622726533702e+05  8.1440622726534703e+05  8.1440622726536170e+05  8.1440622726535855e+05  8.1440622726536950e+05  8.1440622726539406e+05  8.1440622726540780e+05  8.1440622726543748e+05  8.1440622726540267e+05  8.1440622726539138e+05  8.1440622726538451e+05  8.1440622726538091e+05  8.1440622726538335e+05  8.1440622726538219e+05  7.1537422448064561e+05  7.1537422448064073e+05  7.1537422448063176e+05  7.1537422448063851e+05  7.1537422448064212e+05  7.1537422448063781e+05  7.1537422448062326e+05  7.1537422448063619e+05  7.1537422448063863e+05  7.1537422448063467e+05  7.1537422448063886e+05  7.1537422448065213e+05  7.1537422448066517e+05  7.1537422448067379e+05  7.1537422448069172e+05  7.1537422448069812e+05  7.1537422448067332e+05  7.1537422448066226e+05  7.1537422448065819e+05  7.1537422448066436e+05  7.1537422448064690e+05  6.1523916649254365e+05  6.1523916649253969e+05  6.1523916649252747e+05  6.1523916649253445e+05  6.1523916649253352e+05  6.1523916649253224e+05  6.1523916649253259e+05  6.1523916649253061e+05  6.1523916649251548e+05  6.1523916649251594e+05  6.1523916649253049e+05  6.1523916649253573e+05  6.1523916649253445e+05  6.1523916649254621e+05  6.1523916649255983e+05  6.1523916649256716e+05  6.1523916649255506e+05  6.1523916649253818e+05  6.1523916649253457e+05  6.1523916649253352e+05  6.1523916649253259e+05  5.1415545430259837e+05  5.1415545430259692e+05  5.1415545430259331e+05  5.1415545430258650e+05  5.1415545430259104e+05  5.1415545430257299e+05  5.1415545430256124e+05  5.1415545430254401e+05  5.1415545430253143e+05  5.1415545430254901e+05  5.1415545430256880e+05  5.1415545430256368e+05  5.1415545430255949e+05  5.1415545430257666e+05  5.1415545430256688e+05  5.1415545430257538e+05  5.1415545430257113e+05  5.1415545430259028e+05  5.1415545430258277e+05  5.1415545430257817e+05  5.1415545430258132e+05  4.1227895166839613e+05  4.1227895166837634e+05  4.1227895166836359e+05  4.1227895166834787e+05  4.1227895166834514e+05  4.1227895166833652e+05  4.1227895166830829e+05  4.1227895166830969e+05  4.1227895166830969e+05  4.1227895166831731e+05  4.1227895166832890e+05  4.1227895166832843e+05  4.1227895166833018e+05  4.1227895166833617e+05  4.1227895166832762e+05  4.1227895166833606e+05  4.1227895166832965e+05  4.1227895166833716e+05  4.1227895166834746e+05  4.1227895166836429e+05  4.1227895166835870e+05  3.0976674477288243e+05  3.0976674477288465e+05  3.0976674477288127e+05  3.0976674477286072e+05  3.0976674477285804e+05  3.0976674477285933e+05  3.0976674477282853e+05  3.0976674477282981e+05  3.0976674477282347e+05  3.0976674477282778e+05  3.0976674477283529e+05  3.0976674477283953e+05  3.0976674477283232e+05  3.0976674477284506e+05  3.0976674477284413e+05  3.0976674477285391e+05  3.0976674477286049e+05  3.0976674477286043e+05  3.0976674477286765e+05  3.0976674477287399e+05  3.0976674477285851e+05  2.0677690000900230e+05  2.0677690000900364e+05  2.0677690000901226e+05  2.0677690000900038e+05  2.0677690000898895e+05  2.0677690000899314e+05  2.0677690000898007e+05  2.0677690000897145e+05  2.0677690000896974e+05  2.0677690000896694e+05  2.0677690000898295e+05  2.0677690000898001e+05  2.0677690000897396e+05  2.0677690000896927e+05  2.0677690000896741e+05  2.0677690000898403e+05  2.0677690000899462e+05  2.0677690000899398e+05  2.0677690000898720e+05  2.0677690000898589e+05  2.0677690000899072e+05  1.0346822025261141e+05  1.0346822025260847e+05  1.0346822025261552e+05  1.0346822025260687e+05  1.0346822025260195e+05  1.0346822025260207e+05  1.0346822025258327e+05  1.0346822025259330e+05  1.0346822025260115e+05  1.0346822025259509e+05  1.034682202