<?xml version="1.0"?>
<VTKFile type="UnstructuredGrid"  version="0.1"  >
<UnstructuredGrid>
<Piece  NumberOfPoints="1661" NumberOfCells="3200">
<Points>
<DataArray  type="Float64"  NumberOfComponents="3"  format="ascii">-0.25 -1 0  -0.225 -1 0  -0.2 -1 0  -0.175 -1 0  -0.15 -1 0  -0.125 -1 0  -0.1 -1 0  -0.07500000000000001 -1 0  -0.04999999999999999 -1 0  -0.02499999999999999 -1 0  0 -1 0  0.02500000000000002 -1 0  0.04999999999999999 -1 0  0.07500000000000001 -1 0  0.09999999999999998 -1 0  0.125 -1 0  0.15 -1 0  0.175 -1 0  0.2 -1 0  0.225 -1 0  0.25 -1 0  -0.25 -0.975 0  -0.225 -0.975 0  -0.2 -0.975 0  -0.175 -0.975 0  -0.15 -0.975 0  -0.125 -0.975 0  -0.1 -0.975 0  -0.07500000000000001 -0.975 0  -0.04999999999999999 -0.975 0  -0.02499999999999999 -0.975 0  0 -0.975 0  0.02500000000000002 -0.975 0  0.04999999999999999 -0.975 0  0.07500000000000001 -0.975 0  0.09999999999999998 -0.975 0  0.125 -0.975 0  0.15 -0.975 0  0.175 -0.975 0  0.2 -0.975 0  0.225 -0.975 0  0.25 -0.975 0  -0.25 -0.95 0  -0.225 -0.95 0  -0.2 -0.95 0  -0.175 -0.95 0  -0.15 -0.95 0  -0.125 -0.95 0  -0.1 -0.95 0  -0.07500000000000001 -0.95 0  -0.04999999999999999 -0.95 0  -0.02499999999999999 -0.95 0  0 -0.95 0  0.02500000000000002 -0.95 0  0.04999999999999999 -0.95 0  0.07500000000000001 -0.95 0  0.09999999999999998 -0.95 0  0.125 -0.95 0  0.15 -0.95 0  0.175 -0.95 0  0.2 -0.95 0  0.225 -0.95 0  0.25 -0.95 0  -0.25 -0.925 0  -0.225 -0.925 0  -0.2 -0.925 0  -0.175 -0.925 0  -0.15 -0.925 0  -0.125 -0.925 0  -0.1 -0.925 0  -0.07500000000000001 -0.925 0  -0.04999999999999999 -0.925 0  -0.02499999999999999 -0.925 0  0 -0.925 0  0.02500000000000002 -0.925 0  0.04999999999999999 -0.925 0  0.07500000000000001 -0.925 0  0.09999999999999998 -0.925 0  0.125 -0.925 0  0.15 -0.925 0  0.175 -0.925 0  0.2 -0.925 0  0.225 -0.925 0  0.25 -0.925 0  -0.25 -0.9 0  -0.225 -0.9 0  -0.2 -0.9 0  -0.175 -0.9 0  -0.15 -0.9 0  -0.125 -0.9 0  -0.1 -0.9 0  -0.07500000000000001 -0.9 0  -0.04999999999999999 -0.9 0  -0.02499999999999999 -0.9 0  0 -0.9 0  0.02500000000000002 -0.9 0  0.04999999999999999 -0.9 0  0.07500000000000001 -0.9 0  0.09999999999999998 -0.9 0  0.125 -0.9 0  0.15 -0.9 0  0.175 -0.9 0  0.2 -0.9 0  0.225 -0.9 0  0.25 -0.9 0  -0.25 -0.875 0  -0.225 -0.875 0  -0.2 -0.875 0  -0.175 -0.875 0  -0.15 -0.875 0  -0.125 -0.875 0  -0.1 -0.875 0  -0.07500000000000001 -0.875 0  -0.04999999999999999 -0.875 0  -0.02499999999999999 -0.875 0  0 -0.875 0  0.02500000000000002 -0.875 0  0.04999999999999999 -0.875 0  0.07500000000000001 -0.875 0  0.09999999999999998 -0.875 0  0.125 -0.875 0  0.15 -0.875 0  0.175 -0.875 0  0.2 -0.875 0  0.225 -0.875 0  0.25 -0.875 0  -0.25 -0.85 0  -0.225 -0.85 0  -0.2 -0.85 0  -0.175 -0.85 0  -0.15 -0.85 0  -0.125 -0.85 0  -0.1 -0.85 0  -0.07500000000000001 -0.85 0  -0.04999999999999999 -0.85 0  -0.02499999999999999 -0.85 0  0 -0.85 0  0.02500000000000002 -0.85 0  0.04999999999999999 -0.85 0  0.07500000000000001 -0.85 0  0.09999999999999998 -0.85 0  0.125 -0.85 0  0.15 -0.85 0  0.175 -0.85 0  0.2 -0.85 0  0.225 -0.85 0  0.25 -0.85 0  -0.25 -0.825 0  -0.225 -0.825 0  -0.2 -0.825 0  -0.175 -0.825 0  -0.15 -0.825 0  -0.125 -0.825 0  -0.1 -0.825 0  -0.07500000000000001 -0.825 0  -0.04999999999999999 -0.825 0  -0.02499999999999999 -0.825 0  0 -0.825 0  0.02500000000000002 -0.825 0  0.04999999999999999 -0.825 0  0.07500000000000001 -0.825 0  0.09999999999999998 -0.825 0  0.125 -0.825 0  0.15 -0.825 0  0.175 -0.825 0  0.2 -0.825 0  0.225 -0.825 0  0.25 -0.825 0  -0.25 -0.8 0  -0.225 -0.8 0  -0.2 -0.8 0  -0.175 -0.8 0  -0.15 -0.8 0  -0.125 -0.8 0  -0.1 -0.8 0  -0.07500000000000001 -0.8 0  -0.04999999999999999 -0.8 0  -0.02499999999999999 -0.8 0  0 -0.8 0  0.02500000000000002 -0.8 0  0.04999999999999999 -0.8 0  0.07500000000000001 -0.8 0  0.09999999999999998 -0.8 0  0.125 -0.8 0  0.15 -0.8 0  0.175 -0.8 0  0.2 -0.8 0  0.225 -0.8 0  0.25 -0.8 0  -0.25 -0.775 0  -0.225 -0.775 0  -0.2 -0.775 0  -0.175 -0.775 0  -0.15 -0.775 0  -0.125 -0.775 0  -0.1 -0.775 0  -0.07500000000000001 -0.775 0  -0.04999999999999999 -0.775 0  -0.02499999999999999 -0.775 0  0 -0.775 0  0.02500000000000002 -0.775 0  0.04999999999999999 -0.775 0  0.07500000000000001 -0.775 0  0.09999999999999998 -0.775 0  0.125 -0.775 0  0.15 -0.775 0  0.175 -0.775 0  0.2 -0.775 0  0.225 -0.775 0  0.25 -0.775 0  -0.25 -0.75 0  -0.225 -0.75 0  -0.2 -0.75 0  -0.175 -0.75 0  -0.15 -0.75 0  -0.125 -0.75 0  -0.1 -0.75 0  -0.07500000000000001 -0.75 0  -0.04999999999999999 -0.75 0  -0.02499999999999999 -0.75 0  0 -0.75 0  0.02500000000000002 -0.75 0  0.04999999999999999 -0.75 0  0.07500000000000001 -0.75 0  0.09999999999999998 -0.75 0  0.125 -0.75 0  0.15 -0.75 0  0.175 -0.75 0  0.2 -0.75 0  0.225 -0.75 0  0.25 -0.75 0  -0.25 -0.725 0  -0.225 -0.725 0  -0.2 -0.725 0  -0.175 -0.725 0  -0.15 -0.725 0  -0.125 -0.725 0  -0.1 -0.725 0  -0.07500000000000001 -0.725 0  -0.04999999999999999 -0.725 0  -0.02499999999999999 -0.725 0  0 -0.725 0  0.02500000000000002 -0.725 0  0.04999999999999999 -0.725 0  0.07500000000000001 -0.725 0  0.09999999999999998 -0.725 0  0.125 -0.725 0  0.15 -0.725 0  0.175 -0.725 0  0.2 -0.725 0  0.225 -0.725 0  0.25 -0.725 0  -0.25 -0.7 0  -0.225 -0.7 0  -0.2 -0.7 0  -0.175 -0.7 0  -0.15 -0.7 0  -0.125 -0.7 0  -0.1 -0.7 0  -0.07500000000000001 -0.7 0  -0.04999999999999999 -0.7 0  -0.02499999999999999 -0.7 0  0 -0.7 0  0.02500000000000002 -0.7 0  0.04999999999999999 -0.7 0  0.07500000000000001 -0.7 0  0.09999999999999998 -0.7 0  0.125 -0.7 0  0.15 -0.7 0  0.175 -0.7 0  0.2 -0.7 0  0.225 -0.7 0  0.25 -0.7 0  -0.25 -0.675 0  -0.225 -0.675 0  -0.2 -0.675 0  -0.175 -0.675 0  -0.15 -0.675 0  -0.125 -0.675 0  -0.1 -0.675 0  -0.07500000000000001 -0.675 0  -0.04999999999999999 -0.675 0  -0.02499999999999999 -0.675 0  0 -0.675 0  0.02500000000000002 -0.675 0  0.04999999999999999 -0.675 0  0.07500000000000001 -0.675 0  0.09999999999999998 -0.675 0  0.125 -0.675 0  0.15 -0.675 0  0.175 -0.675 0  0.2 -0.675 0  0.225 -0.675 0  0.25 -0.675 0  -0.25 -0.65 0  -0.225 -0.65 0  -0.2 -0.65 0  -0.175 -0.65 0  -0.15 -0.65 0  -0.125 -0.65 0  -0.1 -0.65 0  -0.07500000000000001 -0.65 0  -0.04999999999999999 -0.65 0  -0.02499999999999999 -0.65 0  0 -0.65 0  0.02500000000000002 -0.65 0  0.04999999999999999 -0.65 0  0.07500000000000001 -0.65 0  0.09999999999999998 -0.65 0  0.125 -0.65 0  0.15 -0.65 0  0.175 -0.65 0  0.2 -0.65 0  0.225 -0.65 0  0.25 -0.65 0  -0.25 -0.625 0  -0.225 -0.625 0  -0.2 -0.625 0  -0.175 -0.625 0  -0.15 -0.625 0  -0.125 -0.625 0  -0.1 -0.625 0  -0.07500000000000001 -0.625 0  -0.04999999999999999 -0.625 0  -0.02499999999999999 -0.625 0  0 -0.625 0  0.02500000000000002 -0.625 0  0.04999999999999999 -0.625 0  0.07500000000000001 -0.625 0  0.09999999999999998 -0.625 0  0.125 -0.625 0  0.15 -0.625 0  0.175 -0.625 0  0.2 -0.625 0  0.225 -0.625 0  0.25 -0.625 0  -0.25 -0.6 0  -0.225 -0.6 0  -0.2 -0.6 0  -0.175 -0.6 0  -0.15 -0.6 0  -0.125 -0.6 0  -0.1 -0.6 0  -0.07500000000000001 -0.6 0  -0.04999999999999999 -0.6 0  -0.02499999999999999 -0.6 0  0 -0.6 0  0.02500000000000002 -0.6 0  0.04999999999999999 -0.6 0  0.07500000000000001 -0.6 0  0.09999999999999998 -0.6 0  0.125 -0.6 0  0.15 -0.6 0  0.175 -0.6 0  0.2 -0.6 0  0.225 -0.6 0  0.25 -0.6 0  -0.25 -0.575 0  -0.225 -0.575 0  -0.2 -0.575 0  -0.175 -0.575 0  -0.15 -0.575 0  -0.125 -0.575 0  -0.1 -0.575 0  -0.07500000000000001 -0.575 0  -0.04999999999999999 -0.575 0  -0.02499999999999999 -0.575 0  0 -0.575 0  0.02500000000000002 -0.575 0  0.04999999999999999 -0.575 0  0.07500000000000001 -0.575 0  0.09999999999999998 -0.575 0  0.125 -0.575 0  0.15 -0.575 0  0.175 -0.575 0  0.2 -0.575 0  0.225 -0.575 0  0.25 -0.575 0  -0.25 -0.55 0  -0.225 -0.55 0  -0.2 -0.55 0  -0.175 -0.55 0  -0.15 -0.55 0  -0.125 -0.55 0  -0.1 -0.55 0  -0.07500000000000001 -0.55 0  -0.04999999999999999 -0.55 0  -0.02499999999999999 -0.55 0  0 -0.55 0  0.02500000000000002 -0.55 0  0.04999999999999999 -0.55 0  0.07500000000000001 -0.55 0  0.09999999999999998 -0.55 0  0.125 -0.55 0  0.15 -0.55 0  0.175 -0.55 0  0.2 -0.55 0  0.225 -0.55 0  0.25 -0.55 0  -0.25 -0.525 0  -0.225 -0.525 0  -0.2 -0.525 0  -0.175 -0.525 0  -0.15 -0.525 0  -0.125 -0.525 0  -0.1 -0.525 0  -0.07500000000000001 -0.525 0  -0.04999999999999999 -0.525 0  -0.02499999999999999 -0.525 0  0 -0.525 0  0.02500000000000002 -0.525 0  0.04999999999999999 -0.525 0  0.07500000000000001 -0.525 0  0.09999999999999998 -0.525 0  0.125 -0.525 0  0.15 -0.525 0  0.175 -0.525 0  0.2 -0.525 0  0.225 -0.525 0  0.25 -0.525 0  -0.25 -0.5 0  -0.225 -0.5 0  -0.2 -0.5 0  -0.175 -0.5 0  -0.15 -0.5 0  -0.125 -0.5 0  -0.1 -0.5 0  -0.07500000000000001 -0.5 0  -0.04999999999999999 -0.5 0  -0.02499999999999999 -0.5 0  0 -0.5 0  0.02500000000000002 -0.5 0  0.04999999999999999 -0.5 0  0.07500000000000001 -0.5 0  0.09999999999999998 -0.5 0  0.125 -0.5 0  0.15 -0.5 0  0.175 -0.5 0  0.2 -0.5 0  0.225 -0.5 0  0.25 -0.5 0  -0.25 -0.475 0  -0.225 -0.475 0  -0.2 -0.475 0  -0.175 -0.475 0  -0.15 -0.475 0  -0.125 -0.475 0  -0.1 -0.475 0  -0.07500000000000001 -0.475 0  -0.04999999999999999 -0.475 0  -0.02499999999999999 -0.475 0  0 -0.475 0  0.02500000000000002 -0.475 0  0.04999999999999999 -0.475 0  0.07500000000000001 -0.475 0  0.09999999999999998 -0.475 0  0.125 -0.475 0  0.15 -0.475 0  0.175 -0.475 0  0.2 -0.475 0  0.225 -0.475 0  0.25 -0.475 0  -0.25 -0.45 0  -0.225 -0.45 0  -0.2 -0.45 0  -0.175 -0.45 0  -0.15 -0.45 0  -0.125 -0.45 0  -0.1 -0.45 0  -0.07500000000000001 -0.45 0  -0.04999999999999999 -0.45 0  -0.02499999999999999 -0.45 0  0 -0.45 0  0.02500000000000002 -0.45 0  0.04999999999999999 -0.45 0  0.07500000000000001 -0.45 0  0.09999999999999998 -0.45 0  0.125 -0.45 0  0.15 -0.45 0  0.175 -0.45 0  0.2 -0.45 0  0.225 -0.45 0  0.25 -0.45 0  -0.25 -0.425 0  -0.225 -0.425 0  -0.2 -0.425 0  -0.175 -0.425 0  -0.15 -0.425 0  -0.125 -0.425 0  -0.1 -0.425 0  -0.07500000000000001 -0.425 0  -0.04999999999999999 -0.425 0  -0.02499999999999999 -0.425 0  0 -0.425 0  0.02500000000000002 -0.425 0  0.04999999999999999 -0.425 0  0.07500000000000001 -0.425 0  0.
[...]
<PointData  Scalars="pressure"> 
<DataArray  type="Float64"  Name="pressure"  format="ascii">3.0970551794825057e+06  3.0970551794825066e+06  3.0970551794825052e+06  3.0970551794825098e+06  3.0970551794825131e+06  3.0970551794825140e+06  3.0970551794825126e+06  3.0970551794825271e+06  3.0970551794825369e+06  3.0970551794825504e+06  3.0970551794825625e+06  3.0970551794825764e+06  3.0970551794825909e+06  3.0970551794826034e+06  3.0970551794826230e+06  3.0970551794826225e+06  3.0970551794826244e+06  3.0970551794826253e+06  3.0970551794826239e+06  3.0970551794826239e+06  3.0970551794826221e+06  3.0946674621802326e+06  3.0946674621802298e+06  3.0946674621802340e+06  3.0946674621802364e+06  3.0946674621802378e+06  3.0946674621802401e+06  3.0946674621802382e+06  3.0946674621802531e+06  3.0946674621802648e+06  3.0946674621802731e+06  3.0946674621802857e+06  3.0946674621803029e+06  3.0946674621803132e+06  3.0946674621803267e+06  3.0946674621803383e+06  3.0946674621803490e+06  3.0946674621803495e+06  3.0946674621803490e+06  3.0946674621803481e+06  3.0946674621803476e+06  3.0946674621803458e+06  3.0875079919604030e+06  3.0875079919604035e+06  3.0875079919604044e+06  3.0875079919604100e+06  3.0875079919604152e+06  3.0875079919604119e+06  3.0875079919604152e+06  3.0875079919604226e+06  3.0875079919604296e+06  3.0875079919604464e+06  3.0875079919604524e+06  3.0875079919604706e+06  3.0875079919604831e+06  3.0875079919605018e+06  3.0875079919605143e+06  3.0875079919605218e+06  3.0875079919605227e+06  3.0875079919605223e+06  3.0875079919605195e+06  3.0875079919605176e+06  3.0875079919605190e+06  3.0755878082071082e+06  3.0755878082071077e+06  3.0755878082071091e+06  3.0755878082071105e+06  3.0755878082071138e+06  3.0755878082071184e+06  3.0755878082071156e+06  3.0755878082071249e+06  3.0755878082071356e+06  3.0755878082071454e+06  3.0755878082071552e+06  3.0755878082071706e+06  3.0755878082071869e+06  3.0755878082072041e+06  3.0755878082072297e+06  3.0755878082072246e+06  3.0755878082072232e+06  3.0755878082072218e+06  3.0755878082072237e+06  3.0755878082072237e+06  3.0755878082072218e+06  3.0589252909795903e+06  3.0589252909795884e+06  3.0589252909795940e+06  3.0589252909795940e+06  3.0589252909795893e+06  3.0589252909795977e+06  3.0589252909796061e+06  3.0589252909796112e+06  3.0589252909796191e+06  3.0589252909796266e+06  3.0589252909796406e+06  3.0589252909796527e+06  3.0589252909796690e+06  3.0589252909796825e+06  3.0589252909796978e+06  3.0589252909797039e+06  3.0589252909797085e+06  3.0589252909797067e+06  3.0589252909797044e+06  3.0589252909797034e+06  3.0589252909797039e+06  3.0375461326715378e+06  3.0375461326715406e+06  3.0375461326715392e+06  3.0375461326715453e+06  3.0375461326715485e+06  3.0375461326715522e+06  3.0375461326715616e+06  3.0375461326715644e+06  3.0375461326715704e+06  3.0375461326715816e+06  3.0375461326715918e+06  3.0375461326716053e+06  3.0375461326716156e+06  3.0375461326716328e+06  3.0375461326716449e+06  3.0375461326716528e+06  3.0375461326716598e+06  3.0375461326716552e+06  3.0375461326716612e+06  3.0375461326716575e+06  3.0375461326716524e+06  3.0114832983952872e+06  3.0114832983952886e+06  3.0114832983952933e+06  3.0114832983952924e+06  3.0114832983952938e+06  3.0114832983953007e+06  3.0114832983953068e+06  3.0114832983953231e+06  3.0114832983953161e+06  3.0114832983953212e+06  3.0114832983953394e+06  3.0114832983953487e+06  3.0114832983953636e+06  3.0114832983953739e+06  3.0114832983953957e+06  3.0114832983953990e+06  3.0114832983954083e+06  3.0114832983954023e+06  3.0114832983954013e+06  3.0114832983954018e+06  3.0114832983954069e+06  2.9807769751519845e+06  2.9807769751519887e+06  2.9807769751519896e+06  2.9807769751519924e+06  2.9807769751519985e+06  2.9807769751519989e+06  2.9807769751520180e+06  2.9807769751520129e+06  2.9807769751520222e+06  2.9807769751520311e+06  2.9807769751520366e+06  2.9807769751520515e+06  2.9807769751520636e+06  2.9807769751520809e+06  2.9807769751520930e+06  2.9807769751520967e+06  2.9807769751520972e+06  2.9807769751521014e+06  2.9807769751521009e+06  2.9807769751521032e+06  2.9807769751521018e+06  2.9454745098661776e+06  2.9454745098661827e+06  2.9454745098661901e+06  2.9454745098661841e+06  2.9454745098661953e+06  2.9454745098661967e+06  2.9454745098662046e+06  2.9454745098662190e+06  2.9454745098662223e+06  2.9454745098662288e+06  2.9454745098662404e+06  2.9454745098662525e+06  2.9454745098662656e+06  2.9454745098662786e+06  2.9454745098662856e+06  2.9454745098662958e+06  2.9454745098662977e+06  2.9454745098662968e+06  2.9454745098662996e+06  2.9454745098663000e+06  2.9454745098662996e+06  2.9056303363802857e+06  2.9056303363802843e+06  2.9056303363802885e+06  2.9056303363802866e+06  2.9056303363802899e+06  2.9056303363803006e+06  2.9056303363803159e+06  2.9056303363803225e+06  2.9056303363803294e+06  2.9056303363803336e+06  2.9056303363803392e+06  2.9056303363803579e+06  2.9056303363803737e+06  2.9056303363803839e+06  2.9056303363804040e+06  2.9056303363804012e+06  2.9056303363804072e+06  2.9056303363803923e+06  2.9056303363804119e+06  2.9056303363804016e+06  2.9056303363804030e+06  2.8613058915215284e+06  2.8613058915215279e+06  2.8613058915215302e+06  2.8613058915215344e+06  2.8613058915215391e+06  2.8613058915215461e+06  2.8613058915215614e+06  2.8613058915215642e+06  2.8613058915215768e+06  2.8613058915215847e+06  2.8613058915215903e+06  2.8613058915216052e+06  2.8613058915216201e+06  2.8613058915216359e+06  2.8613058915216560e+06  2.8613058915216569e+06  2.8613058915216550e+06  2.8613058915216508e+06  2.8613058915216536e+06  2.8613058915216560e+06  2.8613058915216592e+06  2.8125695203708480e+06  2.8125695203708508e+06  2.8125695203708522e+06  2.8125695203708545e+06  2.8125695203708536e+06  2.8125695203708629e+06  2.8125695203708666e+06  2.8125695203708801e+06  2.8125695203708922e+06  2.8125695203709034e+06  2.8125695203709123e+06  2.8125695203709253e+06  2.8125695203709397e+06  2.8125695203709574e+06  2.8125695203709775e+06  2.8125695203709812e+06  2.8125695203709807e+06  2.8125695203709840e+06  2.8125695203709868e+06  2.8125695203709858e+06  2.8125695203709900e+06  2.7594963708797302e+06  2.7594963708797200e+06  2.7594963708797283e+06  2.7594963708797260e+06  2.7594963708797265e+06  2.7594963708797274e+06  2.7594963708797302e+06  2.7594963708797428e+06  2.7594963708797558e+06  2.7594963708797758e+06  2.7594963708797880e+06  2.7594963708798070e+06  2.7594963708798205e+06  2.7594963708798443e+06  2.7594963708798690e+06  2.7594963708798680e+06  2.7594963708798722e+06  2.7594963708798680e+06  2.7594963708798746e+06  2.7594963708798746e+06  2.7594963708798727e+06  2.7021682779974942e+06  2.7021682779974909e+06  2.7021682779974886e+06  2.7021682779974877e+06  2.7021682779974858e+06  2.7021682779974886e+06  2.7021682779974877e+06  2.7021682779975040e+06  2.7021682779975147e+06  2.7021682779975347e+06  2.7021682779975482e+06  2.7021682779975650e+06  2.7021682779975841e+06  2.7021682779976097e+06  2.7021682779976432e+06  2.7021682779976479e+06  2.7021682779976423e+06  2.7021682779976483e+06  2.7021682779976442e+06  2.7021682779976493e+06  2.7021682779976479e+06  2.6406736374877775e+06  2.6406736374877766e+06  2.6406736374877687e+06  2.6406736374877682e+06  2.6406736374877612e+06  2.6406736374877682e+06  2.6406736374877742e+06  2.6406736374877761e+06  2.6406736374877929e+06  2.6406736374877999e+06  2.6406736374878241e+06  2.6406736374878348e+06  2.6406736374878562e+06  2.6406736374878827e+06  2.6406736374879209e+06  2.6406736374879298e+06  2.6406736374879368e+06  2.6406736374879372e+06  2.6406736374879349e+06  2.6406736374879377e+06  2.6406736374879372e+06  2.5751072696286435e+06  2.5751072696286463e+06  2.5751072696286449e+06  2.5751072696286407e+06  2.5751072696286421e+06  2.5751072696286440e+06  2.5751072696286472e+06  2.5751072696286510e+06  2.5751072696286561e+06  2.5751072696286738e+06  2.5751072696286868e+06  2.5751072696287106e+06  2.5751072696287320e+06  2.5751072696287539e+06  2.5751072696287809e+06  2.5751072696288014e+06  2.5751072696288135e+06  2.5751072696288149e+06  2.5751072696288107e+06  2.5751072696288093e+06  2.5751072696288130e+06  2.5055702730066180e+06  2.5055702730066241e+06  2.5055702730066301e+06  2.5055702730066273e+06  2.5055702730066199e+06  2.5055702730066278e+06  2.5055702730066227e+06  2.5055702730066334e+06  2.5055702730066422e+06  2.5055702730066529e+06  2.5055702730066692e+06  2.5055702730066874e+06  2.5055702730067051e+06  2.5055702730067307e+06  2.5055702730067521e+06  2.5055702730067675e+06  2.5055702730067871e+06  2.5055702730067885e+06  2.5055702730067880e+06  2.5055702730067945e+06  2.5055702730068062e+06  2.4321698686300125e+06  2.4321698686300097e+06  2.4321698686300041e+06  2.4321698686300060e+06  2.4321698686299976e+06  2.4321698686299985e+06  2.4321698686299976e+06  2.4321698686300120e+06  2.4321698686300297e+06  2.4321698686300390e+06  2.4321698686300558e+06  2.4321698686300730e+06  2.4321698686300912e+06  2.4321698686301149e+06  2.4321698686301117e+06  2.4321698686301322e+06  2.4321698686301475e+06  2.4321698686301648e+06  2.4321698686301638e+06  2.4321698686301811e+06  2.4321698686301806e+06  2.3550192346018311e+06  2.3550192346018306e+06  2.3550192346018287e+06  2.3550192346018171e+06  2.3550192346018059e+06  2.3550192346018092e+06  2.3550192346017947e+06  2.3550192346018152e+06  2.3550192346018390e+06  2.3550192346018553e+06  2.3550192346018632e+06  2.3550192346018809e+06  2.3550192346019009e+06  2.3550192346019219e+06  2.3550192346019498e+06  2.3550192346019549e+06  2.3550192346019535e+06  2.3550192346019591e+06  2.3550192346019689e+06  2.3550192346019703e+06  2.3550192346019722e+06  2.2742373316074349e+06  2.2742373316074349e+06  2.2742373316074316e+06  2.2742373316074163e+06  2.2742373316073976e+06  2.2742373316074000e+06  2.2742373316074032e+06  2.2742373316074209e+06  2.2742373316074358e+06  2.2742373316074428e+06  2.2742373316074568e+06  2.2742373316074731e+06  2.2742373316075010e+06  2.2742373316075234e+06  2.2742373316075443e+06  2.2742373316075513e+06  2.2742373316075462e+06  2.2742373316075513e+06  2.2742373316075508e+06  2.2742373316075555e+06  2.2742373316075588e+06  2.1899487194857281e+06  2.1899487194857262e+06  2.1899487194857229e+06  2.1899487194857113e+06  2.1899487194857034e+06  2.1899487194857006e+06  2.1899487194857001e+06  2.1899487194857178e+06  2.1899487194857332e+06  2.1899487194857518e+06  2.1899487194857541e+06  2.1899487194857709e+06  2.1899487194857975e+06  2.1899487194858287e+06  2.1899487194858496e+06  2.1899487194858454e+06  2.1899487194858524e+06  2.1899487194858389e+06  2.1899487194858375e+06  2.1899487194858426e+06  2.1899487194858473e+06  2.1022833651669645e+06  2.1022833651669673e+06  2.1022833651669645e+06  2.1022833651669649e+06  2.1022833651669621e+06  2.1022833651669635e+06  2.1022833651669524e+06  2.1022833651669840e+06  2.1022833651669938e+06  2.1022833651670157e+06  2.1022833651670283e+06  2.1022833651670408e+06  2.1022833651670553e+06  2.1022833651670781e+06  2.1022833651670944e+06  2.1022833651670860e+06  2.1022833651670874e+06  2.1022833651670851e+06  2.1022833651670897e+06  2.1022833651670837e+06  2.1022833651670897e+06  2.0113764422731730e+06  2.0113764422731709e+06  2.0113764422731674e+06  2.0113764422731798e+06  2.0113764422731835e+06  2.0113764422731809e+06  2.0113764422731760e+06  2.0113764422731991e+06  2.0113764422732012e+06  2.0113764422732319e+06  2.0113764422732519e+06  2.0113764422732692e+06  2.0113764422732720e+06  2.0113764422732929e+06  2.0113764422732948e+06  2.0113764422732978e+06  2.0113764422732911e+06  2.0113764422732883e+06  2.0113764422732855e+06  2.0113764422732876e+06  2.0113764422732934e+06  1.9173681226901636e+06  1.9173681226901643e+06  1.9173681226901622e+06  1.9173681226901570e+06  1.9173681226901703e+06  1.9173681226901789e+06  1.9173681226901899e+06  1.9173681226901901e+06  1.9173681226901982e+06  1.9173681226902099e+06  1.9173681226902248e+06  1.9173681226902546e+06  1.9173681226902730e+06  1.9173681226902797e+06  1.9173681226902893e+06  1.9173681226902867e+06  1.9173681226902867e+06  1.9173681226902725e+06  1.9173681226902755e+06  1.9173681226902686e+06  1.9173681226902709e+06  1.8204033604326639e+06  1.8204033604326798e+06  1.8204033604326874e+06  1.8204033604326907e+06  1.8204033604326956e+06  1.8204033604327065e+06  1.8204033604327105e+06  1.8204033604327242e+06  1.8204033604327217e+06  1.8204033604327347e+06  1.8204033604327580e+06  1.8204033604327778e+06  1.8204033604327983e+06  1.8204033604328129e+06  1.8204033604328122e+06  1.8204033604328155e+06  1.8204033604328069e+06  1.8204033604327985e+06  1.8204033604327892e+06  1.8204033604327822e+06  1.8204033604327792e+06  1.7206316681358791e+06  1.7206316681358791e+06  1.7206316681358798e+06  1.7206316681358863e+06  1.7206316681358896e+06  1.7206316681358956e+06  1.7206316681358884e+06  1.7206316681358952e+06  1.7206316681358966e+06  1.7206316681359143e+06  1.7206316681359273e+06  1.7206316681359517e+06  1.7206316681359641e+06  1.7206316681359808e+06  1.7206316681360023e+06  1.7206316681360069e+06  1.7206316681359923e+06  1.7206316681359767e+06  1.7206316681359676e+06  1.7206316681359569e+06  1.7206316681359676e+06  1.6182068865175557e+06  1.6182068865175545e+06  1.6182068865175482e+06  1.6182068865175606e+06  1.6182068865175699e+06  1.6182068865175536e+06  1.6182068865175366e+06  1.6182068865175534e+06  1.6182068865175676e+06  1.6182068865175832e+06  1.6182068865176053e+06  1.6182068865176116e+06  1.6182068865176335e+06  1.6182068865176502e+06  1.6182068865176679e+06  1.6182068865176598e+06  1.6182068865176514e+06  1.6182068865176358e+06  1.6182068865176328e+06  1.6182068865176272e+06  1.6182068865176314e+06  1.5132869471670259e+06  1.5132869471670303e+06  1.5132869471670287e+06  1.5132869471670242e+06  1.5132869471670212e+06  1.5132869471670080e+06  1.5132869471669903e+06  1.5132869471670068e+06  1.5132869471670343e+06  1.5132869471670431e+06  1.5132869471670645e+06  1.5132869471670780e+06  1.5132869471670934e+06  1.5132869471671232e+06  1.5132869471671430e+06  1.5132869471671267e+06  1.5132869471671111e+06  1.5132869471670932e+06  1.5132869471670899e+06  1.5132869471670934e+06  1.5132869471670897e+06  1.4060336290260104e+06  1.4060336290260225e+06  1.4060336290260334e+06  1.4060336290260160e+06  1.4060336290260039e+06  1.4060336290260053e+06  1.4060336290259662e+06  1.4060336290259974e+06  1.4060336290260067e+06  1.4060336290260269e+06  1.4060336290260407e+06  1.4060336290260621e+06  1.4060336290260816e+06  1.4060336290261231e+06  1.4060336290261529e+06  1.4060336290261261e+06  1.4060336290261117e+06  1.4060336290260907e+06  1.4060336290260833e+06  1.4060336290260828e+06  1.4060336290260809e+06  1.2966123089372849e+06  1.2966123089372797e+06  1.2966123089372907e+06  1.2966123089372744e+06  1.2966123089372516e+06  1.2966123089372376e+06  1.2966123089372050e+06  1.2966123089372269e+06  1.2966123089372450e+06  1.2966123089372611e+06  1.2966123089372767e+06  1.2966123089373000e+06  1.2966123089373286e+06  1.2966123089373608e+06  1.2966123089373996e+06  1.2966123089373715e+06  1.2966123089373370e+06  1.2966123089373382e+06  1.2966123089373284e+06  1.2966123089373172e+06  1.2966123089373240e+06  1.1851917066454401e+06  1.1851917066454403e+06  1.1851917066454235e+06  1.1851917066454177e+06  1.1851917066454038e+06  1.1851917066453791e+06  1.1851917066453488e+06  1.1851917066453625e+06  1.1851917066453763e+06  1.1851917066454005e+06  1.1851917066454175e+06  1.1851917066454408e+06  1.1851917066454885e+06  1.1851917066454971e+06  1.1851917066455367e+06  1.1851917066455097e+06  1.1851917066454981e+06  1.1851917066454855e+06  1.1851917066454764e+06  1.1851917066454554e+06  1.1851917066454557e+06  1.0719436246434243e+06  1.0719436246434175e+06  1.0719436246434040e+06  1.0719436246433887e+06  1.0719436246433628e+06  1.0719436246433544e+06  1.0719436246433379e+06  1.0719436246433610e+06  1.0719436246433714e+06  1.0719436246433835e+06  1.0719436246433929e+06  1.0719436246434266e+06  1.0719436246434439e+06  1.0719436246434601e+06  1.0719436246434776e+06  1.0719436246434625e+06  1.0719436246434432e+06  1.0719436246434308e+06  1.0719436246434222e+06  1.0719436246434215e+06  1.0719436246434334e+06  9.5704268326544424e+05  9.5704268326543807e+05  9.5704268326541909e+05  9.5704268326540058e+05  9.5704268326538382e+05  9.5704268326537730e+05  9.5704268326536648e+05  9.5704268326538440e+05  9.5704268326539302e+05  9.5704268326540687e+05  9.5704268326541909e+05  9.5704268326543423e+05  9.5704268326544843e+05  9.5704268326546135e+05  9.5704268326547730e+05  9.5704268326546869e+05  9.5704268326545751e+05  9.5704268326544331e+05  9.5704268326544878e+05  9.5704268326545204e+05  9.5704268326546019e+05  8.4066605143513333e+05  8.4066605143513507e+05  8.4066605143511854e+05  8.4066605143509933e+05  8.4066605143508175e+05  8.4066605143508420e+05  8.4066605143507745e+05  8.4066605143507337e+05  8.4066605143507279e+05  8.4066605143509049e+05  8.4066605143510655e+05  8.4066605143510143e+05  8.4066605143511412e+05  8.4066605143513100e+05  8.4066605143515032e+05  8.4066605143516522e+05  8.4066605143515870e+05  8.4066605143515486e+05  8.4066605143516406e+05  8.4066605143516825e+05  8.4066605143516080e+05  7.2299317348387139e+05  7.2299317348386312e+05  7.2299317348384368e+05  7.2299317348383472e+05  7.2299317348381632e+05  7.2299317348381726e+05  7.2299317348382901e+05  7.2299317348381726e+05  7.2299317348381912e+05  7.2299317348382610e+05  7.2299317348383518e+05  7.2299317348383460e+05  7.2299317348383658e+05  7.2299317348384426e+05  7.2299317348384857e+05  7.2299317348386883e+05  7.2299317348388094e+05  7.2299317348388431e+05  7.2299317348389130e+05  7.2299317348388245e+05  7.2299317348387372e+05  6.0420549246060278e+05  6.0420549246060080e+05  6.0420549246059963e+05  6.0420549246057903e+05  6.0420549246057554e+05  6.0420549246056215e+05  6.0420549246056506e+05  6.0420549246056704e+05  6.0420549246056797e+05  6.0420549246057344e+05  6.0420549246058275e+05  6.0420549246058648e+05  6.0420549246058648e+05  6.0420549246058904e+05  6.0420549246059416e+05  6.0420549246061139e+05  6.0420549246060860e+05  6.0420549246060639e+05  6.0420549246058846e+05  6.0420549246058776e+05  6.0420549246059882e+05  4.8448617035988491e+05  4.8448617035988841e+05  4.8448617035987740e+05  4.8448617035986180e+05  4.8448617035985127e+05  4.8448617035985860e+05  4.8448617035985115e+05  4.8448617035985825e+05  4.8448617035985726e+05  4.8448617035987356e+05  4.8448617035987106e+05  4.8448617035986850e+05  4.8448617035987013e+05  4.8448617035987502e+05  4.8448617035986733e+05  4.8448617035987839e+05  4.8448617035988055e+05  4.8448617035985395e+05  4.8448617035984521e+05  4.8448617035986454e+05  4.8448617035986629e+05  3.6401980569927680e+05  3.6401980569927458e+05  3.6401980569927383e+05  3.6401980569926940e+05  3.6401980569926987e+05  3.6401980569928524e+05  3.6401980569929065e+05  3.6401980569930130e+05  3.6401980569928791e+05  3.6401980569928710e+05  3.6401980569928250e+05  3.6401980569928023e+05  3.6401980569926964e+05  3.6401980569927912e+05  3.6401980569926469e+05  3.6401980569927156e+05  3.6401980569928058e+05  3.6401980569926888e+05  3.6401980569926521e+05  3.6401980569927121e+05  3.6401980569926498e+05  2.4299214888187853e+05  2.4299214888187838e+05  2.4299214888188799e+05  2.4299214888188717e+05  2.4299214888188583e+05  2.4299214888189724e+05  2.4299214888191406e+05  2.4299214888190728e+05  2.4299214888190964e+05  2.4299214888189474e+05  2.4299214888189713e+05  2.4299214888188589e+05  2.4299214888187443e+05  2.4299214888187533e+05  2.4299214888186872e+05  2.4299214888187769e+05  2.4299214888188228e+05  2.4299214888188153e+05  2.4299214888187335e+05  2.4299214888187332e+05  2.4299214888187306e+05  1.2158981578259917e+05  1.2158981578260462e+05  1.2158981578260928e+05  1.2158981578259780e+05  1.2158981578259161e+05  1.2158981578261792e+05  1.2158981578262171e+05  1.2158981578261855e+05  1.2158981578260509e+05  1.2158981578261223e+05  1.215898157