<?xml version="1.0"?>
<VTKFile type="UnstructuredGrid"  version="0.1"  >
<UnstructuredGrid>
<Piece  NumberOfPoints="854" NumberOfCells="1585">
<Points>
<DataArray  type="Float64"  NumberOfComponents="3"  format="ascii">-0.04301769881032727 -0.07789766764724927 0  -0.04189181960277685 -0.07611574955633513 0  -0.04113485614380685 -0.0778406702871829 0  0.00624679979509361 -0.0777776748102709 0  0.007568916227461957 -0.07713354619579388 0  0.007382729841747624 -0.07843031623139499 0  -0.02649300547176505 -0.08702975760517451 0  -0.0263406063065554 -0.08511740888024559 0  -0.02550850615665724 -0.08614596759352909 0  -0.02084933550610458 -0.06779624883491528 0  -0.01911675057012764 -0.06710909061847127 0  -0.02127151809726676 -0.06627988887730912 0  -0.02355932395340094 -0.07300565754440523 0  -0.02424120674399909 -0.07083644762466612 0  -0.02528234839396254 -0.07235550507120665 0  0.003414444410662295 -0.06667387755197443 0  0.004779010705117206 -0.06723343326758101 0  0.004898532170245292 -0.06588470706159105 0  -0.04508450624939216 -0.07289877322312201 0  -0.04334072568701926 -0.07281119722011131 0  -0.04498843852561831 -0.07457396944552638 0  -0.01233019290593089 -0.08678347112328397 0  -0.0112338405684588 -0.08880426352507724 0  -0.01273075515225664 -0.08916786604196794 0  -0.02487731781150031 -0.08912078797260026 0  -0.02308076237772397 -0.08987146331792781 0  -0.02363550833345763 -0.08867396749658046 0  -0.04364710778737727 -0.08947610695391849 0  -0.04301418522453009 -0.09191095606957841 0  -0.04235961703442911 -0.0904411189668541 0  -0.04202545149712906 -0.0795481471424079 0  -0.04353098224731951 -0.07984041100116517 0  -0.0001289479518082485 -0.09093484953796985 0  -0.001537361812977841 -0.09183103635621589 0  -0.0001024440023580193 -0.09250311526682992 0  -0.02717633928571428 -0.0671875 0  -0.02547575840129358 -0.06789917861829771 0  -0.02660892302130463 -0.0686732810860967 0  -0.02804244587606518 -0.08423194559419436 0  -0.02986151651701308 -0.08345542126252224 0  -0.02944273228431295 -0.08497307522931515 0  0.002378144654088049 -0.07627751572327045 0  0.001485836510060817 -0.07417176389937385 0  0.003438601733579284 -0.07409333596484037 0  -0.01416772838726675 -0.08358641717367554 0  -0.01438092441757664 -0.08541614012962434 0  -0.01595884200481777 -0.08511847584202997 0  -0.0262424283318852 -0.08092416785272258 0  -0.02665141823057518 -0.07860444913168425 0  -0.02515036422374465 -0.07979337743849195 0  0.002005314181027703 -0.07160953721069377 0  0.0005042659000463546 -0.0706442070080241 0  0.001542585041404355 -0.06977073503056669 0  -0.009584768711776409 -0.07507825100308022 0  -0.01157990020702555 -0.0737556443498108 0  -0.01030858530652727 -0.07292718465895769 0  -0.01253972891058217 -0.09069641732879728 0  -0.01384411344556504 -0.0922333898441426 0  -0.01239315970166911 -0.09214278956462488 0  -0.0257700475618113 -0.09648057567556882 0  -0.0263560920378603 -0.09429152410769577 0  -0.02703095132911369 -0.09564516741633013 0  -0.02134487277949115 -0.09413554396678402 0  -0.01968877658969745 -0.09485076374227272 0  -0.02091719731974153 -0.09542021937800599 0  -0.04010064634197606 -0.07057924971757969 0  -0.04164168012530915 -0.06976888025874925 0  -0.04132738058798338 -0.07207961939964694 0  -0.04488879840437942 -0.07631145991727138 0  -0.04340011400537071 -0.07606345743554926 0  -0.001826518818718755 -0.09549248911561954 0  -0.003437109196252027 -0.09614075558673832 0  -0.002233023995066442 -0.09680739911547753 0  -0.007255992924199247 -0.09568128265964732 0  -0.005724784492378706 -0.09504408502530426 0  -0.007780810481280456 -0.09395812364190835 0  -0.0137118687932259 -0.08158202687391057 0  -0.01248023965029664 -0.08291617032045073 0  -0.0108014823312422 -0.07149204022071302 0  -0.009032588102341152 -0.06986902027922305 0  -0.01095681711124807 -0.06954729451736746 0  -0.002931194584325539 -0.06897337298686135 0  -0.002446866923003689 -0.06726113607087911 0  -0.001229707650287227 -0.0686706673061121 0  0.002880492093639446 -0.06466240859797964 0  0.008907581557938372 -0.07010677444136433 0  0.008194986331135287 -0.07203719082326678 0  0.01024567414151233 -0.07100052562916147 0  0.01066098305406274 -0.05999515557027461 0  0.01199697692997241 -0.058984518130708 0  0.01209909079558958 -0.06050787089223954 0  -0.01454856551814738 -0.07721315778584886 0  -0.0152166235939798 -0.07557541333693718 0  -0.0165260688143757 -0.07591326249582545 0  -0.01285352492073821 -0.07211050370584039 0  -0.01748218666510975 -0.06813878302001214 0  -0.01762923752875039 -0.06598599581991983 0  -0.01789083831616858 -0.0715804492939822 0  -0.01780358103167474 -0.07332099473903625 0  -0.01632599156523281 -0.07243771640431323 0  -0.007183493015576356 -0.06924166753497944 0  -0.00855263833068491 -0.06824491119945986 0  -0.03564751029865867 -0.07439774731271727 0  -0.03395211491563267 -0.07495322214508 0  -0.03366797019368069 -0.0734877242641562 0  -0.03455208564641323 -0.08194382303888702 0  -0.03255269639564686 -0.08229603199409749 0  -0.03339906579048692 -0.08124954414524603 0  -0.02704324561419352 -0.07289471972323462 0  -0.02481643742317179 -0.07372899787113088 0  -0.03738360545745725 -0.08168537983806289 0  -0.03599322360724295 -0.08337896242457203 0  -0.03806191498716771 -0.08365977489794321 0  -0.03365282590339484 -0.08692313372691331 0  -0.03558005079508717 -0.08742320875628713 0  -0.03453986567279773 -0.08544024026264552 0  -0.03438518618490685 -0.09242829621017326 0  -0.03487102961521734 -0.09394739526994358 0  -0.03284347077283539 -0.0928402886718603 0  -0.03695888676976247 -0.07756467740738612 0  -0.03501579601208976 -0.07651430571098827 0  -0.03642910979197705 -0.07622226076359578 0  -0.03014613125358451 -0.07424633768158163 0  -0.03047893372488195 -0.07206737163976487 0  -0.03121734171721906 -0.07329504990619225 0  -0.03834687844188856 -0.07228526864991387 0  -0.03836933328569094 -0.07055391585998522 0  -0.03697141779064224 -0.07127734686192946 0  -0.007450830811539287 -0.08780052063043026 0  -0.009320310705092061 -0.08838540211273728 0  -0.008068072222769229 -0.08621390726582412 0  -0.04531250000000001 -0.09690794883681851 0  -0.04493199712142847 -0.09520323073982323 0  -0.04325023819755165 -0.0968739896865731 0  0.009375 -0.09682257628260371 0  0.007808664082198944 -0.09597107339876711 0  0.008444268623215768 -0.09461046788110308 0  0.0007125495420706774 -0.09384324413309353 0  -0.001324185801125433 -0.09348673451877551 0  4.55158174537929e-05 -0.09559543642801521 0  -0.002638588467448458 -0.08480290334513936 0  -0.0009523537286110506 -0.08539467671252784 0  -0.002123245304167003 -0.08646438588906058 0  0.00707564389875579 -0.08712042819884332 0  0.006175460256179339 -0.08529300011325083 0  0.00579688305402835 -0.08777872249611265 0  -0.01551784317154422 -0.09006879589254792 0  -0.01402328543009905 -0.08832981739043477 0  -0.01558909581522321 -0.08849582318267966 0  -0.034375 -0.1 0  -0.03423696779068536 -0.09746140864191191 0  -0.03619635067639472 -0.09830927380456798 0  -0.0171875 -0.09842209667188512 0  -0.01907578470877056 -0.09811482038481674 0  -0.01794864954210933 -0.09714392486344528 0  -0.0203125 -0.09665517208936659 0  -0.01807747440893156 -0.09566187359880164 0  -0.04636382294280632 -0.08303782715171144 0  -0.04457664116340198 -0.08227588074917039 0  -0.04479628068135219 -0.08441144033909778 0  -0.04665725025786571 -0.07474883737689871 0  -0.04839656261803055 -0.07397023150741729 0  -0.04715929032803928 -0.07353832403414237 0  -0.006496208247169712 -0.07958930721574266 0  -0.007818588748072135 -0.078515126908775 0  -0.008658337353509663 -0.07992113794005237 0  -0.0005048909647391475 -0.07529755637084348 0  0.0009893486840984126 -0.07561681737863528 0  -0.0003488571704173114 -0.07659863563213469 0  -0.002439376396341518 -0.08212944253333339 0  -0.002444152277402757 -0.08018925365413369 0  -0.00381630162417183 -0.0820268413935732 0  -0.02264613483542079 -0.0820413651645792 0  -0.02433746493959434 -0.08113892035160643 0  -0.02322485160458113 -0.08039154261165993 0  -0.01754533292962527 -0.08487053535373217 0  -0.01612535708344472 -0.08352138452691246 0  -0.01860487144251813 -0.08356851163246476 0  -0.03140806455272695 -0.06619583248002962 0  -0.03353512095382387 -0.06678277612275996 0  -0.03286485146038919 -0.06502660822956426 0  -0.01924800164333928 -0.07429606467324316 0  -0.01784284706265305 -0.07560523021790183 0  -0.01627524721575662 -0.07415843609645587 0  -0.02247505510150612 -0.07631841748069951 0  -0.02103221323394636 -0.07503488050239412 0  -0.02265507431745275 -0.07446773357752805 0  -0.02426505803403166 -0.07507046582579038 0  -0.02758628374191479 -0.08598038504817176 0  -0.03146202181458926 -0.07916958962906337 0  -0.03201932651192579 -0.08072863592367834 0  -0.03268498819409774 -0.07961155343193971 0  0.004333204611837944 -0.09457186870462708 0  0.004719118187944253 -0.09325290342309187 0  0.003210521597263091 -0.09393581815995514 0  -0.02699880677727343 -0.06528383311259306 0  -0.02816272306545877 -0.06613540002135666 0  -0.02796267299524422 -0.07502143545925727 0  -0.02864174901762227 -0.07347143860603883 0  0.01172901776142153 -0.07037684730407788 0  0.01149171032184903 -0.07201869888808959 0  0.008329705248451892 -0.07582893826919467 0  0.006579345813181347 -0.07604559218577921 0  0.007340105850365504 -0.07377496925579345 0  0.005649608925003106 -0.07293541457290909 0  0.006920603710509551 -0.07248150249158494 0  -0.03293339707392893 -0.06890569867093572 0  -0.03497293050757541 -0.06853622981877409 0  -0.03955829636164478 -0.06618721975980241 0  -0.03996948399416095 -0.06794165841102252 0  -0.04136249049824998 -0.0662651475401172 0  0.005332838990544739 -0.06042849285714701 0  0.005783754170669378 -0.06253278840008002 0  0.006730960667624127 -0.06048731509119946 0  0.006082007269868802 -0.06654253260679399 0  -0.01384023034695557 -0.06772003352402545 0  -0.01561760000785632 -0.06830868095647734 0  -0.01463379778004665 -0.06978387898440573 0  -0.009770499137943315 -0.08620544990365804 0
[...]
<PointData  Scalars="pressure"> 
<DataArray  type="Float64"  Name="pressure"  format="ascii">-2.7758620690322884e+10  -2.7758620692190922e+10  -2.7758620689833313e+10  -2.7758620690498978e+10  -2.7758620693225075e+10  -2.7758620671305107e+10  -2.7758620691714008e+10  -2.7758620678877274e+10  -2.7758620689030396e+10  -2.7758620677741066e+10  -2.7758620690464111e+10  -2.7758620689482071e+10  -2.7758620697791092e+10  -2.7758620688746960e+10  -2.7758620687564846e+10  -2.7758620689956825e+10  -2.7758620683986290e+10  -2.7758620685364281e+10  -2.7758620688367928e+10  -2.7758620689783596e+10  -2.7758620691282478e+10  -2.7758620675166161e+10  -2.7758620705942417e+10  -2.7758620693165642e+10  -2.7758620709334587e+10  -2.7758620704170063e+10  -2.7758620684273178e+10  -2.7758620688479065e+10  -2.7758620689789429e+10  -2.7758620691974796e+10  -2.7758620689393681e+10  -2.7758620689418030e+10  -2.7758620673932632e+10  -2.7758620704363678e+10  -2.7758620707437191e+10  -2.7758620686977970e+10  -2.7758620689370731e+10  -2.7758620691951866e+10  -2.7758620681755386e+10  -2.7758620694367699e+10  -2.7758620694430046e+10  -2.7758620693037663e+10  -2.7758620686190479e+10  -2.7758620690250252e+10  -2.7758620683693275e+10  -2.7758620717428322e+10  -2.7758620684019676e+10  -2.7758620687530533e+10  -2.7758620718216297e+10  -2.7758620690267178e+10  -2.7758620688565746e+10  -2.7758620694461288e+10  -2.7758620701820408e+10  -2.7758620688021252e+10  -2.7758620699734676e+10  -2.7758620684092110e+10  -2.7758620712071239e+10  -2.7758620701003696e+10  -2.7758620679620609e+10  -2.7758620681647884e+10  -2.7758620700056286e+10  -2.7758620695607746e+10  -2.7758620699997200e+10  -2.7758620674473347e+10  -2.7758620701314617e+10  -2.7758620689307430e+10  -2.7758620688509537e+10  -2.7758620690931934e+10  -2.7758620689328926e+10  -2.7758620688825821e+10  -2.7758620657858032e+10  -2.7758620681664062e+10  -2.7758620720397961e+10  -2.7758620683807465e+10  -2.7758620701624691e+10  -2.7758620694012596e+10  -2.7758620702819206e+10  -2.7758620663549789e+10  -2.7758620691479275e+10  -2.7758620688530952e+10  -2.7758620685335804e+10  -2.7758620687123138e+10  -2.7758620692703918e+10  -2.7758620689503666e+10  -2.7758620696380054e+10  -2.7758620685182575e+10  -2.7758620691018421e+10  -2.7758620698860977e+10  -2.7758620720615467e+10  -2.7758620671770370e+10  -2.7758620718576614e+10  -2.7758620693940865e+10  -2.7758620696349686e+10  -2.7758620690434502e+10  -2.7758620700505257e+10  -2.7758620698303871e+10  -2.7758620684849064e+10  -2.7758620696168789e+10  -2.7758620681273987e+10  -2.7758620694582943e+10  -2.7758620684072678e+10  -2.7758620690681931e+10  -2.7758620689908146e+10  -2.7758620690929554e+10  -2.7758620688378223e+10  -2.7758620691438564e+10  -2.7758620692397923e+10  -2.7758620687127117e+10  -2.7758620688219646e+10  -2.7758620678472626e+10  -2.7758620689568428e+10  -2.7758620691394779e+10  -2.7758620691526718e+10  -2.7758620688952221e+10  -2.7758620691671635e+10  -2.7758620691086239e+10  -2.7758620693534199e+10  -2.7758620692519695e+10  -2.7758620696166447e+10  -2.7758620690714748e+10  -2.7758620689065807e+10  -2.7758620691368206e+10  -2.7758620690721886e+10  -2.7758620690444038e+10  -2.7758620686408848e+10  -2.7758620689211266e+10  -2.7758620691479591e+10  -2.7758620689455048e+10  -2.7758620704548176e+10  -2.7758620694142132e+10  -2.7758620685925377e+10  -2.7758620690196545e+10  -2.7758620690127369e+10  -2.7758620690344048e+10  -2.7758620680761303e+10  -2.7758620724953922e+10  -2.7758620650835140e+10  -2.7758620705981361e+10  -2.7758620675928108e+10  -2.7758620682420647e+10  -2.7758620698352577e+10  -2.7758620691622627e+10  -2.7758620725409748e+10  -2.7758620693408646e+10  -2.7758620687346336e+10  -2.7758620683882328e+10  -2.7758620689036770e+10  -2.7758620676238708e+10  -2.7758620696995071e+10  -2.7758620694966454e+10  -2.7758620692440990e+10  -2.7758620684291523e+10  -2.7758620701415138e+10  -2.7758620688411789e+10  -2.7758620679404190e+10  -2.7758620692651913e+10  -2.7758620690087616e+10  -2.7758620691229359e+10  -2.7758620687160442e+10  -2.7758620689706486e+10  -2.7758620690923752e+10  -2.7758620691496754e+10  -2.7758620688859772e+10  -2.7758620684953442e+10  -2.7758620684400692e+10  -2.7758620712018764e+10  -2.7758620692111843e+10  -2.7758620688533115e+10  -2.7758620695608982e+10  -2.7758620683937840e+10  -2.7758620691757114e+10  -2.7758620703946369e+10  -2.7758620699790352e+10  -2.7758620690561371e+10  -2.7758620691168175e+10  -2.7758620696241089e+10  -2.7758620679806564e+10  -2.7758620698428482e+10  -2.7758620688659576e+10  -2.7758620686851749e+10  -2.7758620694345963e+10  -2.7758620699208141e+10  -2.7758620691676609e+10  -2.7758620689749073e+10  -2.7758620708880474e+10  -2.7758620679422417e+10  -2.7758620685252960e+10  -2.7758620688926414e+10  -2.7758620693735798e+10  -2.7758620694317535e+10  -2.7758620686921009e+10  -2.7758620692713970e+10  -2.7758620680368862e+10  -2.7758620683246021e+10  -2.7758620697947922e+10  -2.7758620696901642e+10  -2.7758620689627689e+10  -2.7758620690446854e+10  -2.7758620687279060e+10  -2.7758620672682823e+10  -2.7758620683036900e+10  -2.7758620693784775e+10  -2.7758620695751179e+10  -2.7758620681134563e+10  -2.7758620689924774e+10  -2.7758620697661148e+10  -2.7758620689159431e+10  -2.7758620691960785e+10  -2.7758620690440826e+10  -2.7758620689119778e+10  -2.7758620688355282e+10  -2.7758620696482208e+10  -2.7758620692326942e+10  -2.7758620692239231e+10  -2.7758620714908508e+10  -2.7758620694627979e+10  -2.7758620690972553e+10  -2.7758620687456161e+10  -2.7758620635489914e+10  -2.7758620701188988e+10  -2.7758620708094429e+10  -2.7758620683852055e+10  -2.7758620694316978e+10  -2.7758620700087452e+10  -2.7758620674815899e+10  -2.7758620712740471e+10  -2.7758620674801952e+10  -2.7758620655632698e+10  -2.7758620687056442e+10  -2.7758620722472206e+10  -2.7758620686799854e+10  -2.7758620685785675e+10  -2.7758620694662460e+10  -2.7758620674675640e+10  -2.7758620666490288e+10  -2.7758620688552654e+10  -2.7758620690029305e+10  -2.7758620690268456e+10  -2.7758620690883835e+10  -2.7758620685045853e+10  -2.7758620694737942e+10  -2.7758620686251316e+10  -2.7758620691166481e+10  -2.7758620693239460e+10  -2.7758620690257160e+10  -2.7758620686650715e+10  -2.7758620689650753e+10  -2.7758620689959557e+10  -2.7758620692942284e+10  -2.7758620690259872e+10  -2.7758620678956173e+10  -2.7758620686081196e+10  -2.7758620690717709e+10  -2.7758620687879021e+10  -2.7758620696740883e+10  -2.7758620689941231e+10  -2.7758620690471382e+10  -2.7758620687043903e+10  -2.7758620688696880e+10  -2.7758620691759361e+10  -2.7758620696216137e+10  -2.7758620677786930e+10  -2.7758620705420609e+10  -2.7758620694301128e+10  -2.7758620717057442e+10  -2.7758620677423737e+10  -2.7758620677332310e+10  -2.7758620680183903e+10  -2.7758620698836533e+10  -2.7758620684246376e+10  -2.7758620690251354e+10  -2.7758620690934067e+10  -2.7758620687593739e+10  -2.7758620696721706e+10  -2.7758620676218113e+10  -2.7758620704423988e+10  -2.7758620682423153e+10  -2.7758620696114502e+10  -2.7758620716801453e+10  -2.7758620692247929e+10  -2.7758620683617420e+10  -2.7758620693955544e+10  -2.7758620695215557e+10  -2.7758620690326412e+10  -2.7758620687629684e+10  -2.7758620687859257e+10  -2.7758620688950241e+10  -2.7758620683597538e+10  -2.7758620708329731e+10  -2.7758620696756130e+10  -2.7758620713540394e+10  -2.7758620685636127e+10  -2.7758620690457569e+10  -2.7758620686396152e+10  -2.7758620690107925e+10  -2.7758620690620014e+10  -2.7758620687796997e+10  -2.7758620690103817e+10  -2.7758620744360958e+10  -2.7758620671711487e+10  -2.7758620696803280e+10  -2.7758620684227367e+10  -2.7758620656351433e+10  -2.7758620699373302e+10  -2.7758620701864143e+10  -2.7758620690838146e+10  -2.7758620701919781e+10  -2.7758620698080666e+10  -2.7758620687137665e+10  -2.7758620682349949e+10  -2.7758620676189083e+10  -2.7758620671566586e+10  -2.7758620722473080e+10  -2.7758620691491367e+10  -2.7758620692941723e+10  -2.7758620677769951e+10  -2.7758620714571148e+10  -2.7758620692494892e+10  -2.7758620688923801e+10  -2.7758620689696583e+10  -2.7758620690270199e+10  -2.7758620690232014e+10  -2.7758620729068451e+10  -2.7758620675282440e+10  -2.7758620693365841e+10  -2.7758620686369816e+10  -2.7758620692161907e+10  -2.7758620705127090e+10  -2.7758620682096680e+10  -2.7758620688060246e+10  -2.7758620692725563e+10  -2.7758620694156811e+10  -2.7758620686073414e+10  -2.7758620694240013e+10  -2.7758620681430603e+10  -2.7758620686881569e+10  -2.7758620695225632e+10  -2.7758620690333752e+10  -2.7758620688960178e+10  -2.7758620689528679e+10  -2.7758620689663517e+10  -2.7758620690520271e+10  -2.7758620690116886e+10  -2.7758620689459755e+10  -2.7758620674862267e+10  -2.7758620687660488e+10  -2.7758620687371815e+10  -2.7758620682302074e+10  -2.7758620664477581e+10  -2.7758620672163361e+10  -2.7758620689271545e+10  -2.7758620689840714e+10  -2.7758620686879395e+10  -2.7758620690505352e+10  -2.7758620673198597e+10  -2.7758620675672573e+10  -2.7758620685440830e+10  -2.7758620699584179e+10  -2.7758620693861267e+10  -2.7758620700401554e+10  -2.7758620694382404e+10  -2.7758620683378910e+10  -2.7758620683175983e+10  -2.7758620691442234e+10  -2.7758620690685009e+10  -2.7758620689230083e+10  -2.7758620689248478e+10  -2.7758620690260010e+10  -2.7758620688201813e+10  -2.7758620689893860e+10  -2.7758620689996262e+10  -2.7758620690452690e+10  -2.7758620689178371e+10  -2.7758620695739704e+10  -2.7758620695880653e+10  -2.7758620680337109e+10  -2.7758620687093925e+10  -2.7758620692596664e+10  -2.7758620691399342e+10  -2.7758620689017414e+10  -2.7758620701821899e+10  -2.7758620675119770e+10  -2.7758620679855289e+10  -2.7758620682557480e+10  -2.7758620693053570e+10  -2.7758620697412418e+10  -2.7758620689413612e+10  -2.7758620694523895e+10  -2.7758620690128819e+10  -2.7758620693856201e+10  -2.7758620689578896e+10  -2.7758620692571789e+10  -2.7758620693815037e+10  -2.7758620684669914e+10  -2.7758620690642124e+10  -2.7758620690209503e+10  -2.7758620687133522e+10  -2.7758620691236275e+10  -2.7758620691241623e+10  -2.7758620686244881e+10  -2.7758620692953129e+10  -2.7758620689568283e+10  -2.7758620702845039e+10  -2.7758620675910587e+10  -2.7758620698763775e+10  -2.7758620690053051e+10  -2.7758620691991257e+10  -2.7758620705194824e+10  -2.7758620689586407e+10  -2.7758620695948170e+10  -2.7758620690602604e+10  -2.7758620688344788e+10  -2.7758620689577549e+10  -2.7758620689406475e+10  -2.7758620690700916e+10  -2.7758620690394295e+10  -2.7758620689985107e+10  -2.7758620690125072e+10  -2.7758620699455185e+10  -2.7758620676984863e+10  -2.7758620698224682e+10  -2.7758620690158646e+10  -2.7758620688389603e+10  -2.7758620688225609e+10  -2.7758620693954636e+10  -2.7758620691087955e+10  -2.7758620693034081e+10  -2.7758620689124783e+10  -2.7758620681165840e+10  -2.7758620693552879e+10  -2.7758620688254711e+10  -2.7758620692901691e+10  -2.7758620690639580e+10  -2.7758620689582016e+10  -2.7758620690321590e+10  -2.7758620691805557e+10  -2.7758620689686905e+10  -2.7758620690449131e+10  -2.7758620684696983e+10  -2.7758620688697212e+10  -2.7758620691347385e+10  -2.7758620670834232e+10  -2.7758620689171230e+10  -2.7758620678580418e+10  -2.7758620673232132e+10  -2.7758620671737350e+10  -2.7758620664122402e+10  -2.7758620668164604e+10  -2.7758620691598736e+10  -2.7758620691226055e+10  -2.7758620685466316e+10  -2.7758620672983746e+10  -2.7758620678658592e+10  -2.7758620715298676e+10  -2.7758620687738029e+10  -2.7758620695196209e+10  -2.7758620681706238e+10  -2.7758620682669029e+10  -2.7758620700067936e+10  -2.7758620711428047e+10  -2.7758620664508255e+10  -2.7758620683246567e+10  -2.7758620687066193e+10  -2.7758620693284111e+10  -2.7758620671770493e+10  -2.7758620695046131e+10  -2.7758620694566299e+10  -2.7758620695501972e+10  -2.7758620693621292e+10  -2.7758620690393703e+10  -2.7758620685051857e+10  -2.7758620692035103e+10  -2.7758620693646286e+10  -2.7758620679186592e+10  -2.7758620683806320e+10  -2.7758620718036949e+10  -2.7758620699614056e+10  -2.7758620675255684e+10  -2.7758620677895931e+10  -2.7758620651567574e+10  -2.7758620704461586e+10  -2.7758620691826515e+10  -2.7758620690909718e+10  -2.7758620689694004e+10  -2.7758620689292034e+10  -2.7758620691001842e+10  -2.7758620689705536e+10  -2.7758620653965778e+10  -2.7758620673103542e+10  -2.7758620729936172e+10  -2.7758620706419216e+10  -2.7758620706982559e+10  -2.7758620692848976e+10  -2.7758620593845940e+10  -2.7758620670197502e+10  -2.7758620701474388e+10  -2.7758620693153034e+10  -2.7758620685221832e+10  -2.7758620689883732e+10  -2.7758620690650471e+10  -2.7758620691558578e+10  -2.7758620690755692e+10  -2.7758620690587528e+10  -2.7758620691434261e+10  -2.7758620683341633e+10  -2.7758620674824104e+10  -2.7758620705564991e+10  -2.7758620695593060e+10  -2.7758620689915527e+10  -2.7758620691138733e+10  -2.7758620694024773e+10  -2.7758620693127235e+10  -2.7758620691516479e+10  -2.7758620692948196e+10  -2.7758620680912502e+10  -2.7758620696679260e+10  -2.7758620685041077e+10  -2.7758620672126137e+10  -2.7758620703957397e+10  -2.7758620692980312e+10  -2.7758620678646412e+10  -2.7758620678195435e+10  -2.7758620725038692e+10  -2.7758620674562096e+10  -2.7758620668989235e+10  -2.7758620690547600e+10  -2.7758620672097446e+10  -2.7758620686013847e+10  -2.7758620697532825e+10  -2.7758620689084190e+10  -2.7758620676607853e+10  -2.7758620691543659e+10  -2.7758620684414383e+10  -2.7758620690014423e+10  -2.7758620687783672e+10  -2.7758620689433144e+10  -2.7758620688063126e+10  -2.7758620691195496e+10  -2.7758620689523067e+10  -2.7758620684131611e+10  -2.7758620688945782e+10  -2.7758620689703423e+10  -2.7758620689645466e+10  -2.7758620690152142e+10  -2.7758620684019585e+10  -2.7758620691459839e+10  -2.7758620702141457e+10  -2.7758620686612091e+10  -2.7758620687948059e+10  -2.7758620685580666e+10  -2.7758620684102154e+10  -2.7758620634046253e+10  -2.7758620719392002e+10  -2.7758620697339157e+10  -2.7758620689286217e+10  -2.7758620688963337e+10  -2.7758620687214626e+10  -2.7758620695971149e+10  -2.7758620690991219e+10  -2.7758620685695061e+10  -2.7758620678070168e+10  -2.7758620689632149e+10  -2.7758620692264668e+10  -2.7758620689764984e+10  -2.7758620690214539e+10  -2.7758620690298363e+10  -2.7758620685605873e+10  -2.7758620685096622e+10  -2.7758620653989338e+10  -2.7758620705652512e+10  -2.7758620721579777e+10  -2.7758620689398132e+10  -2.7758620689661201e+10  -2.7758620690140469e+10  -2.7758620690017319e+10  -2.7758620690323811e+10  -2.7758620691237789e+10  -2.7758620688399082e+10  -2.7758620689990192e+10  -2.7758620691087463e+10  -2.7758620707496395e+10  -2.7758620684038681e+10  -2.7758620686381252e+10  -2.7758620688213799e+10  -2.7758620689740715e+10  -2.7758620691934185e+10  -2.7758620688649776e+10  -2.7758620692763252e+10  -2.7758620684872753e+10  -2.7758620684992912e+10  -2.7758620701012146e+10  -2.7758620656525921e+10  -2.7758620684224976e+10  -2.7758620697720688e+10  -2.7758620678427853e+10  -2.7758620661584652e+10  -2.7758620669167980e+10  -2.7758620675440189e+10  -2.7758620718436111e+10  -2.7758620690433922e+10  -2.7758620690336899e+10  -2.7758620689302658e+10  -2.7758620649412498e+10  -2.7758620694718304e+10  -2.7758620687187420e+10  -2.7758620690280735e+10  -2.7758620695019760e+10  -2.7758620693603626e+10  -2.7758620681804832e+10  -2.7758620696881123e+10  -2.7758620690462524e+10  -2.7758620690346783e+10  -2.7758620689489380e+10  -2.7758620685460205e+10  -2.7758620692213444e+10  -2.7758620712204674e+10  -2.7758620694492310e+10  -2.7758620690254951e+10  -2.7758620686127670e+10  -2.7758620685874142e+10  -2.7758620686244080e+10  -2.7758620691983978e+10  -2.7758620705131573e+10  -2.7758620642490158e+10  -2.7758620658207573e+10  -2.7758620690166855e+10  -2.7758620688807938e+10  -2.7758620691459263e+10  -2.7758620671209194e+10  -2.7758620701948727e+10  -2.7758620712466228e+10  -2.7758620691938435e+10  -2.7758620689208851e+10  -2.7758620692395039e+10  -2.7758620688530029e+10  -2.7758620688698032e+10  -2.7758620662475040e+10  -2.7758620668510220e+10  -2.7758620691514893e+10  -2.7758620689036015e+10  -2.7758620685610096e+10  -2.7758620690923672e+10  -2.7758620714548412e+10  -2.7758620705082455e+10  -2.7758620615509609e+10  -2.7758620692629787e+10  -2.7758620705498520e+10  -2.7758620689623234e+10  -2.7758620689698174e+10  -2.7758620690217262e+10  -2.7758620689966854e+10  -2.7758620684810734e+10  -2.7758620687362183e+10  -2.7758620690752796e+10  -2.7758620663091667e+10  -2.7758620702819424e+10  -2.7758620739142738e+10  -2.7758620650126087e+10  -2.7758620628564228e+10  -2.7758620706736244e+10  -2.7758620695273285e+10  -2.7758620677690216e+10  -2.7758620681018574e+10  -2.7758620703126842e+10  -2.7758620685905735e+10  -2.7758620665981804e+10  -2.7758620696583469e+10  -2.7758620679672173e+10  -2.7758620706699886e+10  -2.7758620690397911e+10  -2.7758620676170361e+10  -2.7758620697094582e+10  -2.7758620694821865e+10  -2.7758620679346672e+10  -2.7758620686614719e+10  -2.7758620720737061e+10  -2.7758620794724739e+10  -2.7758620612833820e+10  -2.7758620650002087e+10  -2.7758620677312065e+10  -2.7758620698130173e+10  -2.7758620690638874e+10  -2.7758620683788971e+10  -2.7758620691585445e+10  -2.7758620689880035e+10  -2.7758620669681789e+10  -2.7758620693087349e+10  -2.7758620695219673e+10  -2.7758620709676098e+10  -2.7758620675343102e+10  -2.7758620687618195e+10  -2.7758620694779160e+10  -2.7758620685667786e+10  -2.7758620688062462e+10  -2.7758620688355919e+10  -2.7758620689909370e+10  -2.7758620691168736e+10  -2.7758620699629475e+10  -2.7758620691929436e+10  -2.7758620685834724e+10  -2.7758620679706261e+10  -2.7758620691563255e+10  -2.7758620691553669e+10  -2.7758620686288540e+10  -2.7758620690870453e+10  -2.7758620636047962e+10  -2.7758620680674583e+10  -2.7758620690473473e+10  -2.7758620697199867e+10  -2.7758620686861469e+10  -2.7758620691023396e+10  -2.7758620689649323e+10  -2.7758620691910210e+10  -2.7758620689143799e+10  -2.7758620715669071e+10  -2.7758620707960526e+10  -2.7758620683880566e+10  -2.7758620691311012e+10  -2.7758620684196358e+10  -2.7758620686246773e+10  -2.7758620691129284e+10  -2.7758620688568634e+10  -2.7758620677849907e+10  -2.7758620693245338e+10  -2.7758620691744797e+10  -2.7758620690941071e+10  -2.7758620695863663e+10  -2.7758620688888363e+10  -2.7758620683977108e+10  -2.7758620687306438e+10  -2.7758620687821487e+10  -2.7758620693616982e+10  -2.7758620687791691e+10  -2.7758620695992100e+10  -2.7758620696387871e+10  -2.7758620685568214e+10  -2.7758620681426914e+10  -2.7758620688295937e+10  -2.7758620678382404e+10  -2.7758620658463074e+10  -2.7758620671354126e+10  -2.7758620690281193e+10  -2.7758620759788277e+10  -2.7758620687845436e+10  -2.7758620696378845e+10  -2.7758620666598755e+10  -2.7758620697276604e+10  -2.7758620690987289e+10  -2.7758620689661209e+10  -2.7758620691834011e+10  -2.7758620678861465e+10  -2.7758620687574223e+10  -2.7758620691111607e+10  -2.7758620687124878e+10  -2.7758620691001225e+10  -2.7758620687096489e+10  -2.7758620675716286e+10  -2.7758620668294079e+10  -2.7758620673704384e+10  -2.7758620696052872e+10  -2.7758620694243942e+10  -2.7758620685465282e+10  -2.7758620710465973e+10  -2.7758620690697914e+10  -2.7758620689042377e+10  -2.7758620685234325e+10  -2.7758620692335682e+10  -2.7758620688845783e+10  -2.7758620690440830e+10  -2.7758620703575874e+10  -2.7758620695024494e+10  -2.7758620791752552e+10  -2.7758620676579086e+10  -2.7758620690647842e+10  -2.7758620691279118e+10  -2.7758620678167587e+10  -2.7758620696961445e+10  -2.7758620689699646e+10  -2.7758620692226498e+10  -2.7758620662938496e+10  -2.7758620700978065e+10  -2.7758620689255314e+10  -2.7758620634836319e+10  -2.7758620670887550e+10  -2.7758620684166386e+10  -2.7758620727237598e+10  -2.7758620705397297e+10  -2.7758620686706902e+10  -2.7758620685168488e+10  -2.7758620687535374e+10  -2.7758620691777016e+10  -2.7758620682054436e+10  -2.7758620685164158e+10  -2.7758620691297840e+10  -2.7758620704739765e+10  -2.7758620720816498e+10  -2.7758