<?xml version="1.0"?>
<VTKFile type="UnstructuredGrid"  version="0.1"  >
<UnstructuredGrid>
<Piece  NumberOfPoints="1661" NumberOfCells="3200">
<Points>
<DataArray  type="Float64"  NumberOfComponents="3"  format="ascii">-0.25 -1 0  -0.225 -1 0  -0.2 -1 0  -0.175 -1 0  -0.15 -1 0  -0.125 -1 0  -0.1 -1 0  -0.07500000000000001 -1 0  -0.04999999999999999 -1 0  -0.02499999999999999 -1 0  0 -1 0  0.02500000000000002 -1 0  0.04999999999999999 -1 0  0.07500000000000001 -1 0  0.09999999999999998 -1 0  0.125 -1 0  0.15 -1 0  0.175 -1 0  0.2 -1 0  0.225 -1 0  0.25 -1 0  -0.25 -0.975 0  -0.225 -0.975 0  -0.2 -0.975 0  -0.175 -0.975 0  -0.15 -0.975 0  -0.125 -0.975 0  -0.1 -0.975 0  -0.07500000000000001 -0.975 0  -0.04999999999999999 -0.975 0  -0.02499999999999999 -0.975 0  0 -0.975 0  0.02500000000000002 -0.975 0  0.04999999999999999 -0.975 0  0.07500000000000001 -0.975 0  0.09999999999999998 -0.975 0  0.125 -0.975 0  0.15 -0.975 0  0.175 -0.975 0  0.2 -0.975 0  0.225 -0.975 0  0.25 -0.975 0  -0.25 -0.95 0  -0.225 -0.95 0  -0.2 -0.95 0  -0.175 -0.95 0  -0.15 -0.95 0  -0.125 -0.95 0  -0.1 -0.95 0  -0.07500000000000001 -0.95 0  -0.04999999999999999 -0.95 0  -0.02499999999999999 -0.95 0  0 -0.95 0  0.02500000000000002 -0.95 0  0.04999999999999999 -0.95 0  0.07500000000000001 -0.95 0  0.09999999999999998 -0.95 0  0.125 -0.95 0  0.15 -0.95 0  0.175 -0.95 0  0.2 -0.95 0  0.225 -0.95 0  0.25 -0.95 0  -0.25 -0.925 0  -0.225 -0.925 0  -0.2 -0.925 0  -0.175 -0.925 0  -0.15 -0.925 0  -0.125 -0.925 0  -0.1 -0.925 0  -0.07500000000000001 -0.925 0  -0.04999999999999999 -0.925 0  -0.02499999999999999 -0.925 0  0 -0.925 0  0.02500000000000002 -0.925 0  0.04999999999999999 -0.925 0  0.07500000000000001 -0.925 0  0.09999999999999998 -0.925 0  0.125 -0.925 0  0.15 -0.925 0  0.175 -0.925 0  0.2 -0.925 0  0.225 -0.925 0  0.25 -0.925 0  -0.25 -0.9 0  -0.225 -0.9 0  -0.2 -0.9 0  -0.175 -0.9 0  -0.15 -0.9 0  -0.125 -0.9 0  -0.1 -0.9 0  -0.07500000000000001 -0.9 0  -0.04999999999999999 -0.9 0  -0.02499999999999999 -0.9 0  0 -0.9 0  0.02500000000000002 -0.9 0  0.04999999999999999 -0.9 0  0.07500000000000001 -0.9 0  0.09999999999999998 -0.9 0  0.125 -0.9 0  0.15 -0.9 0  0.175 -0.9 0  0.2 -0.9 0  0.225 -0.9 0  0.25 -0.9 0  -0.25 -0.875 0  -0.225 -0.875 0  -0.2 -0.875 0  -0.175 -0.875 0  -0.15 -0.875 0  -0.125 -0.875 0  -0.1 -0.875 0  -0.07500000000000001 -0.875 0  -0.04999999999999999 -0.875 0  -0.02499999999999999 -0.875 0  0 -0.875 0  0.02500000000000002 -0.875 0  0.04999999999999999 -0.875 0  0.07500000000000001 -0.875 0  0.09999999999999998 -0.875 0  0.125 -0.875 0  0.15 -0.875 0  0.175 -0.875 0  0.2 -0.875 0  0.225 -0.875 0  0.25 -0.875 0  -0.25 -0.85 0  -0.225 -0.85 0  -0.2 -0.85 0  -0.175 -0.85 0  -0.15 -0.85 0  -0.125 -0.85 0  -0.1 -0.85 0  -0.07500000000000001 -0.85 0  -0.04999999999999999 -0.85 0  -0.02499999999999999 -0.85 0  0 -0.85 0  0.02500000000000002 -0.85 0  0.04999999999999999 -0.85 0  0.07500000000000001 -0.85 0  0.09999999999999998 -0.85 0  0.125 -0.85 0  0.15 -0.85 0  0.175 -0.85 0  0.2 -0.85 0  0.225 -0.85 0  0.25 -0.85 0  -0.25 -0.825 0  -0.225 -0.825 0  -0.2 -0.825 0  -0.175 -0.825 0  -0.15 -0.825 0  -0.125 -0.825 0  -0.1 -0.825 0  -0.07500000000000001 -0.825 0  -0.04999999999999999 -0.825 0  -0.02499999999999999 -0.825 0  0 -0.825 0  0.02500000000000002 -0.825 0  0.04999999999999999 -0.825 0  0.07500000000000001 -0.825 0  0.09999999999999998 -0.825 0  0.125 -0.825 0  0.15 -0.825 0  0.175 -0.825 0  0.2 -0.825 0  0.225 -0.825 0  0.25 -0.825 0  -0.25 -0.8 0  -0.225 -0.8 0  -0.2 -0.8 0  -0.175 -0.8 0  -0.15 -0.8 0  -0.125 -0.8 0  -0.1 -0.8 0  -0.07500000000000001 -0.8 0  -0.04999999999999999 -0.8 0  -0.02499999999999999 -0.8 0  0 -0.8 0  0.02500000000000002 -0.8 0  0.04999999999999999 -0.8 0  0.07500000000000001 -0.8 0  0.09999999999999998 -0.8 0  0.125 -0.8 0  0.15 -0.8 0  0.175 -0.8 0  0.2 -0.8 0  0.225 -0.8 0  0.25 -0.8 0  -0.25 -0.775 0  -0.225 -0.775 0  -0.2 -0.775 0  -0.175 -0.775 0  -0.15 -0.775 0  -0.125 -0.775 0  -0.1 -0.775 0  -0.07500000000000001 -0.775 0  -0.04999999999999999 -0.775 0  -0.02499999999999999 -0.775 0  0 -0.775 0  0.02500000000000002 -0.775 0  0.04999999999999999 -0.775 0  0.07500000000000001 -0.775 0  0.09999999999999998 -0.775 0  0.125 -0.775 0  0.15 -0.775 0  0.175 -0.775 0  0.2 -0.775 0  0.225 -0.775 0  0.25 -0.775 0  -0.25 -0.75 0  -0.225 -0.75 0  -0.2 -0.75 0  -0.175 -0.75 0  -0.15 -0.75 0  -0.125 -0.75 0  -0.1 -0.75 0  -0.07500000000000001 -0.75 0  -0.04999999999999999 -0.75 0  -0.02499999999999999 -0.75 0  0 -0.75 0  0.02500000000000002 -0.75 0  0.04999999999999999 -0.75 0  0.07500000000000001 -0.75 0  0.09999999999999998 -0.75 0  0.125 -0.75 0  0.15 -0.75 0  0.175 -0.75 0  0.2 -0.75 0  0.225 -0.75 0  0.25 -0.75 0  -0.25 -0.725 0  -0.225 -0.725 0  -0.2 -0.725 0  -0.175 -0.725 0  -0.15 -0.725 0  -0.125 -0.725 0  -0.1 -0.725 0  -0.07500000000000001 -0.725 0  -0.04999999999999999 -0.725 0  -0.02499999999999999 -0.725 0  0 -0.725 0  0.02500000000000002 -0.725 0  0.04999999999999999 -0.725 0  0.07500000000000001 -0.725 0  0.09999999999999998 -0.725 0  0.125 -0.725 0  0.15 -0.725 0  0.175 -0.725 0  0.2 -0.725 0  0.225 -0.725 0  0.25 -0.725 0  -0.25 -0.7 0  -0.225 -0.7 0  -0.2 -0.7 0  -0.175 -0.7 0  -0.15 -0.7 0  -0.125 -0.7 0  -0.1 -0.7 0  -0.07500000000000001 -0.7 0  -0.04999999999999999 -0.7 0  -0.02499999999999999 -0.7 0  0 -0.7 0  0.02500000000000002 -0.7 0  0.04999999999999999 -0.7 0  0.07500000000000001 -0.7 0  0.09999999999999998 -0.7 0  0.125 -0.7 0  0.15 -0.7 0  0.175 -0.7 0  0.2 -0.7 0  0.225 -0.7 0  0.25 -0.7 0  -0.25 -0.675 0  -0.225 -0.675 0  -0.2 -0.675 0  -0.175 -0.675 0  -0.15 -0.675 0  -0.125 -0.675 0  -0.1 -0.675 0  -0.07500000000000001 -0.675 0  -0.04999999999999999 -0.675 0  -0.02499999999999999 -0.675 0  0 -0.675 0  0.02500000000000002 -0.675 0  0.04999999999999999 -0.675 0  0.07500000000000001 -0.675 0  0.09999999999999998 -0.675 0  0.125 -0.675 0  0.15 -0.675 0  0.175 -0.675 0  0.2 -0.675 0  0.225 -0.675 0  0.25 -0.675 0  -0.25 -0.65 0  -0.225 -0.65 0  -0.2 -0.65 0  -0.175 -0.65 0  -0.15 -0.65 0  -0.125 -0.65 0  -0.1 -0.65 0  -0.07500000000000001 -0.65 0  -0.04999999999999999 -0.65 0  -0.02499999999999999 -0.65 0  0 -0.65 0  0.02500000000000002 -0.65 0  0.04999999999999999 -0.65 0  0.07500000000000001 -0.65 0  0.09999999999999998 -0.65 0  0.125 -0.65 0  0.15 -0.65 0  0.175 -0.65 0  0.2 -0.65 0  0.225 -0.65 0  0.25 -0.65 0  -0.25 -0.625 0  -0.225 -0.625 0  -0.2 -0.625 0  -0.175 -0.625 0  -0.15 -0.625 0  -0.125 -0.625 0  -0.1 -0.625 0  -0.07500000000000001 -0.625 0  -0.04999999999999999 -0.625 0  -0.02499999999999999 -0.625 0  0 -0.625 0  0.02500000000000002 -0.625 0  0.04999999999999999 -0.625 0  0.07500000000000001 -0.625 0  0.09999999999999998 -0.625 0  0.125 -0.625 0  0.15 -0.625 0  0.175 -0.625 0  0.2 -0.625 0  0.225 -0.625 0  0.25 -0.625 0  -0.25 -0.6 0  -0.225 -0.6 0  -0.2 -0.6 0  -0.175 -0.6 0  -0.15 -0.6 0  -0.125 -0.6 0  -0.1 -0.6 0  -0.07500000000000001 -0.6 0  -0.04999999999999999 -0.6 0  -0.02499999999999999 -0.6 0  0 -0.6 0  0.02500000000000002 -0.6 0  0.04999999999999999 -0.6 0  0.07500000000000001 -0.6 0  0.09999999999999998 -0.6 0  0.125 -0.6 0  0.15 -0.6 0  0.175 -0.6 0  0.2 -0.6 0  0.225 -0.6 0  0.25 -0.6 0  -0.25 -0.575 0  -0.225 -0.575 0  -0.2 -0.575 0  -0.175 -0.575 0  -0.15 -0.575 0  -0.125 -0.575 0  -0.1 -0.575 0  -0.07500000000000001 -0.575 0  -0.04999999999999999 -0.575 0  -0.02499999999999999 -0.575 0  0 -0.575 0  0.02500000000000002 -0.575 0  0.04999999999999999 -0.575 0  0.07500000000000001 -0.575 0  0.09999999999999998 -0.575 0  0.125 -0.575 0  0.15 -0.575 0  0.175 -0.575 0  0.2 -0.575 0  0.225 -0.575 0  0.25 -0.575 0  -0.25 -0.55 0  -0.225 -0.55 0  -0.2 -0.55 0  -0.175 -0.55 0  -0.15 -0.55 0  -0.125 -0.55 0  -0.1 -0.55 0  -0.07500000000000001 -0.55 0  -0.04999999999999999 -0.55 0  -0.02499999999999999 -0.55 0  0 -0.55 0  0.02500000000000002 -0.55 0  0.04999999999999999 -0.55 0  0.07500000000000001 -0.55 0  0.09999999999999998 -0.55 0  0.125 -0.55 0  0.15 -0.55 0  0.175 -0.55 0  0.2 -0.55 0  0.225 -0.55 0  0.25 -0.55 0  -0.25 -0.525 0  -0.225 -0.525 0  -0.2 -0.525 0  -0.175 -0.525 0  -0.15 -0.525 0  -0.125 -0.525 0  -0.1 -0.525 0  -0.07500000000000001 -0.525 0  -0.04999999999999999 -0.525 0  -0.02499999999999999 -0.525 0  0 -0.525 0  0.02500000000000002 -0.525 0  0.04999999999999999 -0.525 0  0.07500000000000001 -0.525 0  0.09999999999999998 -0.525 0  0.125 -0.525 0  0.15 -0.525 0  0.175 -0.525 0  0.2 -0.525 0  0.225 -0.525 0  0.25 -0.525 0  -0.25 -0.5 0  -0.225 -0.5 0  -0.2 -0.5 0  -0.175 -0.5 0  -0.15 -0.5 0  -0.125 -0.5 0  -0.1 -0.5 0  -0.07500000000000001 -0.5 0  -0.04999999999999999 -0.5 0  -0.02499999999999999 -0.5 0  0 -0.5 0  0.02500000000000002 -0.5 0  0.04999999999999999 -0.5 0  0.07500000000000001 -0.5 0  0.09999999999999998 -0.5 0  0.125 -0.5 0  0.15 -0.5 0  0.175 -0.5 0  0.2 -0.5 0  0.225 -0.5 0  0.25 -0.5 0  -0.25 -0.475 0  -0.225 -0.475 0  -0.2 -0.475 0  -0.175 -0.475 0  -0.15 -0.475 0  -0.125 -0.475 0  -0.1 -0.475 0  -0.07500000000000001 -0.475 0  -0.04999999999999999 -0.475 0  -0.02499999999999999 -0.475 0  0 -0.475 0  0.02500000000000002 -0.475 0  0.04999999999999999 -0.475 0  0.07500000000000001 -0.475 0  0.09999999999999998 -0.475 0  0.125 -0.475 0  0.15 -0.475 0  0.175 -0.475 0  0.2 -0.475 0  0.225 -0.475 0  0.25 -0.475 0  -0.25 -0.45 0  -0.225 -0.45 0  -0.2 -0.45 0  -0.175 -0.45 0  -0.15 -0.45 0  -0.125 -0.45 0  -0.1 -0.45 0  -0.07500000000000001 -0.45 0  -0.04999999999999999 -0.45 0  -0.02499999999999999 -0.45 0  0 -0.45 0  0.02500000000000002 -0.45 0  0.04999999999999999 -0.45 0  0.07500000000000001 -0.45 0  0.09999999999999998 -0.45 0  0.125 -0.45 0  0.15 -0.45 0  0.175 -0.45 0  0.2 -0.45 0  0.225 -0.45 0  0.25 -0.45 0  -0.25 -0.425 0  -0.225 -0.425 0  -0.2 -0.425 0  -0.175 -0.425 0  -0.15 -0.425 0  -0.125 -0.425 0  -0.1 -0.425 0  -0.07500000000000001 -0.425 0  -0.04999999999999999 -0.425 0  -0.02499999999999999 -0.425 0  0 -0.425 0  0.02500000000000002 -0.425 0  0.04999999999999999 -0.425 0  0.07500000000000001 -0.425 0  0.
[...]
<PointData  Scalars="pressure"> 
<DataArray  type="Float64"  Name="pressure"  format="ascii">1.4981073901694219e+06  1.4981073901694217e+06  1.4981073901694233e+06  1.4981073901694235e+06  1.4981073901694254e+06  1.4981073901694280e+06  1.4981073901694326e+06  1.4981073901694275e+06  1.4981073901694252e+06  1.4981073901694238e+06  1.4981073901694235e+06  1.4981073901694233e+06  1.4981073901694221e+06  1.4981073901694180e+06  1.4981073901694159e+06  1.4981073901694242e+06  1.4981073901694326e+06  1.4981073901694375e+06  1.4981073901694410e+06  1.4981073901694422e+06  1.4981073901694426e+06  1.4969524036641000e+06  1.4969524036640986e+06  1.4969524036641000e+06  1.4969524036640993e+06  1.4969524036641011e+06  1.4969524036641030e+06  1.4969524036641053e+06  1.4969524036641021e+06  1.4969524036641018e+06  1.4969524036641000e+06  1.4969524036641023e+06  1.4969524036641007e+06  1.4969524036640979e+06  1.4969524036640967e+06  1.4969524036640874e+06  1.4969524036641028e+06  1.4969524036641093e+06  1.4969524036641147e+06  1.4969524036641172e+06  1.4969524036641193e+06  1.4969524036641202e+06  1.4934892250536080e+06  1.4934892250536084e+06  1.4934892250536084e+06  1.4934892250536110e+06  1.4934892250536077e+06  1.4934892250536100e+06  1.4934892250536131e+06  1.4934892250536087e+06  1.4934892250536089e+06  1.4934892250536096e+06  1.4934892250536096e+06  1.4934892250536105e+06  1.4934892250536117e+06  1.4934892250536063e+06  1.4934892250536042e+06  1.4934892250536124e+06  1.4934892250536201e+06  1.4934892250536226e+06  1.4934892250536252e+06  1.4934892250536273e+06  1.4934892250536280e+06  1.4877231943083494e+06  1.4877231943083487e+06  1.4877231943083494e+06  1.4877231943083459e+06  1.4877231943083492e+06  1.4877231943083482e+06  1.4877231943083436e+06  1.4877231943083461e+06  1.4877231943083506e+06  1.4877231943083499e+06  1.4877231943083522e+06  1.4877231943083534e+06  1.4877231943083568e+06  1.4877231943083545e+06  1.4877231943083527e+06  1.4877231943083582e+06  1.4877231943083641e+06  1.4877231943083669e+06  1.4877231943083697e+06  1.4877231943083694e+06  1.4877231943083706e+06  1.4796632022298004e+06  1.4796632022298030e+06  1.4796632022298030e+06  1.4796632022297990e+06  1.4796632022297983e+06  1.4796632022297969e+06  1.4796632022297964e+06  1.4796632022297999e+06  1.4796632022298020e+06  1.4796632022298044e+06  1.4796632022298055e+06  1.4796632022298099e+06  1.4796632022298109e+06  1.4796632022298127e+06  1.4796632022298144e+06  1.4796632022298193e+06  1.4796632022298188e+06  1.4796632022298207e+06  1.4796632022298230e+06  1.4796632022298253e+06  1.4796632022298260e+06  1.4693216767415481e+06  1.4693216767415472e+06  1.4693216767415497e+06  1.4693216767415479e+06  1.4693216767415476e+06  1.4693216767415458e+06  1.4693216767415460e+06  1.4693216767415474e+06  1.4693216767415502e+06  1.4693216767415532e+06  1.4693216767415567e+06  1.4693216767415616e+06  1.4693216767415656e+06  1.4693216767415679e+06  1.4693216767415712e+06  1.4693216767415744e+06  1.4693216767415733e+06  1.4693216767415714e+06  1.4693216767415768e+06  1.4693216767415795e+06  1.4693216767415768e+06  1.4567145637263234e+06  1.4567145637263234e+06  1.4567145637263244e+06  1.4567145637263232e+06  1.4567145637263234e+06  1.4567145637263253e+06  1.4567145637263237e+06  1.4567145637263267e+06  1.4567145637263285e+06  1.4567145637263260e+06  1.4567145637263320e+06  1.4567145637263474e+06  1.4567145637263490e+06  1.4567145637263465e+06  1.4567145637263621e+06  1.4567145637263553e+06  1.4567145637263553e+06  1.4567145637263535e+06  1.4567145637263523e+06  1.4567145637263558e+06  1.4567145637263574e+06  1.4418613024386179e+06  1.4418613024386186e+06  1.4418613024386179e+06  1.4418613024386168e+06  1.4418613024386179e+06  1.4418613024386205e+06  1.4418613024386230e+06  1.4418613024386212e+06  1.4418613024386237e+06  1.4418613024386249e+06  1.4418613024386284e+06  1.4418613024386349e+06  1.4418613024386407e+06  1.4418613024386477e+06  1.4418613024386619e+06  1.4418613024386531e+06  1.4418613024386493e+06  1.4418613024386493e+06  1.4418613024386540e+06  1.4418613024386517e+06  1.4418613024386514e+06  1.4247847955307453e+06  1.4247847955307462e+06  1.4247847955307495e+06  1.4247847955307367e+06  1.4247847955307402e+06  1.4247847955307558e+06  1.4247847955307569e+06  1.4247847955307546e+06  1.4247847955307532e+06  1.4247847955307565e+06  1.4247847955307614e+06  1.4247847955307630e+06  1.4247847955307679e+06  1.4247847955307753e+06  1.4247847955307860e+06  1.4247847955307821e+06  1.4247847955307802e+06  1.4247847955307786e+06  1.4247847955307818e+06  1.4247847955307828e+06  1.4247847955307816e+06  1.4055113737386421e+06  1.4055113737386407e+06  1.4055113737386419e+06  1.4055113737386358e+06  1.4055113737386337e+06  1.4055113737386365e+06  1.4055113737386430e+06  1.4055113737386421e+06  1.4055113737386458e+06  1.4055113737386437e+06  1.4055113737386507e+06  1.4055113737386540e+06  1.4055113737386635e+06  1.4055113737386691e+06  1.4055113737386693e+06  1.4055113737386705e+06  1.4055113737386714e+06  1.4055113737386626e+06  1.4055113737386721e+06  1.4055113737386749e+06  1.4055113737386726e+06  1.3840707552817327e+06  1.3840707552817310e+06  1.3840707552817231e+06  1.3840707552817166e+06  1.3840707552817115e+06  1.3840707552817103e+06  1.3840707552817136e+06  1.3840707552817198e+06  1.3840707552817240e+06  1.3840707552817322e+06  1.3840707552817364e+06  1.3840707552817403e+06  1.3840707552817506e+06  1.3840707552817538e+06  1.3840707552817597e+06  1.3840707552817641e+06  1.3840707552817594e+06  1.3840707552817618e+06  1.3840707552817641e+06  1.3840707552817671e+06  1.3840707552817715e+06  1.3604960000396234e+06  1.3604960000396210e+06  1.3604960000396131e+06  1.3604960000396066e+06  1.3604960000396017e+06  1.3604960000395998e+06  1.3604960000395994e+06  1.3604960000396068e+06  1.3604960000396115e+06  1.3604960000396206e+06  1.3604960000396224e+06  1.3604960000396343e+06  1.3604960000396415e+06  1.3604960000396513e+06  1.3604960000396599e+06  1.3604960000396660e+06  1.3604960000396725e+06  1.3604960000396683e+06  1.3604960000396715e+06  1.3604960000396699e+06  1.3604960000396713e+06  1.3348234585761791e+06  1.3348234585761642e+06  1.3348234585761616e+06  1.3348234585761542e+06  1.3348234585761495e+06  1.3348234585761435e+06  1.3348234585761351e+06  1.3348234585761465e+06  1.3348234585761528e+06  1.3348234585761609e+06  1.3348234585761682e+06  1.3348234585761789e+06  1.3348234585761917e+06  1.3348234585762080e+06  1.3348234585762231e+06  1.3348234585762271e+06  1.3348234585762226e+06  1.3348234585762271e+06  1.3348234585762254e+06  1.3348234585762247e+06  1.3348234585762254e+06  1.3070927160895227e+06  1.3070927160895204e+06  1.3070927160895159e+06  1.3070927160895083e+06  1.3070927160894973e+06  1.3070927160894948e+06  1.3070927160894899e+06  1.3070927160894934e+06  1.3070927160895027e+06  1.3070927160895104e+06  1.3070927160895215e+06  1.3070927160895325e+06  1.3070927160895474e+06  1.3070927160895646e+06  1.3070927160895849e+06  1.3070927160895912e+06  1.3070927160895944e+06  1.3070927160895949e+06  1.3070927160895921e+06  1.3070927160895853e+06  1.3070927160895881e+06  1.2773465313746349e+06  1.2773465313746331e+06  1.2773465313746205e+06  1.2773465313746212e+06  1.2773465313746103e+06  1.2773465313746065e+06  1.2773465313745965e+06  1.2773465313746093e+06  1.2773465313746075e+06  1.2773465313746352e+06  1.2773465313746354e+06  1.2773465313746454e+06  1.2773465313746606e+06  1.2773465313746792e+06  1.2773465313746971e+06  1.2773465313747094e+06  1.2773465313747206e+06  1.2773465313747185e+06  1.2773465313747118e+06  1.2773465313747136e+06  1.2773465313747155e+06  1.2456307708922788e+06  1.2456307708922783e+06  1.2456307708922725e+06  1.2456307708922669e+06  1.2456307708922660e+06  1.2456307708922653e+06  1.2456307708922643e+06  1.2456307708922666e+06  1.2456307708922792e+06  1.2456307708922878e+06  1.2456307708922962e+06  1.2456307708923037e+06  1.2456307708923218e+06  1.2456307708923372e+06  1.2456307708923549e+06  1.2456307708923698e+06  1.2456307708923838e+06  1.2456307708923796e+06  1.2456307708923826e+06  1.2456307708923863e+06  1.2456307708923845e+06  1.2119943380463282e+06  1.2119943380463298e+06  1.2119943380463256e+06  1.2119943380463212e+06  1.2119943380463247e+06  1.2119943380463235e+06  1.2119943380463144e+06  1.2119943380463272e+06  1.2119943380463456e+06  1.2119943380463561e+06  1.2119943380463538e+06  1.2119943380463794e+06  1.2119943380463924e+06  1.2119943380464078e+06  1.2119943380464201e+06  1.2119943380464362e+06  1.2119943380464488e+06  1.2119943380464483e+06  1.2119943380464572e+06  1.2119943380464583e+06  1.2119943380464592e+06  1.1764890977782304e+06  1.1764890977782297e+06  1.1764890977782262e+06  1.1764890977782246e+06  1.1764890977782190e+06  1.1764890977782102e+06  1.1764890977782013e+06  1.1764890977782230e+06  1.1764890977782458e+06  1.1764890977782600e+06  1.1764890977782854e+06  1.1764890977782898e+06  1.1764890977782989e+06  1.1764890977783164e+06  1.1764890977783112e+06  1.1764890977783278e+06  1.1764890977783280e+06  1.1764890977783459e+06  1.1764890977783592e+06  1.1764890977783692e+06  1.1764890977783585e+06  1.1391697965949769e+06  1.1391697965949802e+06  1.1391697965949862e+06  1.1391697965949804e+06  1.1391697965949669e+06  1.1391697965949674e+06  1.1391697965949578e+06  1.1391697965949744e+06  1.1391697965950002e+06  1.1391697965950195e+06  1.1391697965950288e+06  1.1391697965950444e+06  1.1391697965950472e+06  1.1391697965950642e+06  1.1391697965950761e+06  1.1391697965950808e+06  1.1391697965950861e+06  1.1391697965950901e+06  1.1391697965950973e+06  1.1391697965950985e+06  1.1391697965950957e+06  1.1000939781540488e+06  1.1000939781540497e+06  1.1000939781540493e+06  1.1000939781540474e+06  1.1000939781540458e+06  1.1000939781540369e+06  1.1000939781540337e+06  1.1000939781540553e+06  1.1000939781540730e+06  1.1000939781540884e+06  1.1000939781541107e+06  1.1000939781541168e+06  1.1000939781541275e+06  1.1000939781541426e+06  1.1000939781541522e+06  1.1000939781541529e+06  1.1000939781541571e+06  1.1000939781541633e+06  1.1000939781541594e+06  1.1000939781541592e+06  1.1000939781541666e+06  1.0593218945351911e+06  1.0593218945351876e+06  1.0593218945352002e+06  1.0593218945352021e+06  1.0593218945351944e+06  1.0593218945351935e+06  1.0593218945351865e+06  1.0593218945352137e+06  1.0593218945352323e+06  1.0593218945352507e+06  1.0593218945352593e+06  1.0593218945352768e+06  1.0593218945352908e+06  1.0593218945353003e+06  1.0593218945353106e+06  1.0593218945353136e+06  1.0593218945353215e+06  1.0593218945353213e+06  1.0593218945353217e+06  1.0593218945353210e+06  1.0593218945353264e+06  1.0169164133361519e+06  1.0169164133361535e+06  1.0169164133361538e+06  1.0169164133361556e+06  1.0169164133361618e+06  1.0169164133361571e+06  1.0169164133361496e+06  1.0169164133361744e+06  1.0169164133361881e+06  1.0169164133362018e+06  1.0169164133362191e+06  1.0169164133362322e+06  1.0169164133362479e+06  1.0169164133362611e+06  1.0169164133362758e+06  1.0169164133362828e+06  1.0169164133362846e+06  1.0169164133362836e+06  1.0169164133362831e+06  1.0169164133362802e+06  1.0169164133362799e+06  9.7294292073530634e+05  9.7294292073530820e+05  9.7294292073530634e+05  9.7294292073532077e+05  9.7294292073532625e+05  9.7294292073533149e+05  9.7294292073531612e+05  9.7294292073533603e+05  9.7294292073534394e+05  9.7294292073534813e+05  9.7294292073536303e+05  9.7294292073538073e+05  9.7294292073539319e+05  9.7294292073541810e+05  9.7294292073542555e+05  9.7294292073544930e+05  9.7294292073544953e+05  9.7294292073545093e+05  9.7294292073546140e+05  9.7294292073543963e+05  9.7294292073544324e+05  9.2746922067098517e+05  9.2746922067099216e+05  9.2746922067099926e+05  9.2746922067100450e+05  9.2746922067101276e+05  9.2746922067102441e+05  9.2746922067103093e+05  9.2746922067103081e+05  9.2746922067103570e+05  9.2746922067104408e+05  9.2746922067106038e+05  9.2746922067107877e+05  9.2746922067109926e+05  9.2746922067111777e+05  9.2746922067113000e+05  9.2746922067114385e+05  9.2746922067115258e+05  9.2746922067115293e+05  9.2746922067114688e+05  9.2746922067113954e+05  9.2746922067113617e+05  8.8056543029266852e+05  8.8056543029269425e+05  8.8056543029269774e+05  8.8056543029269634e+05  8.8056543029270147e+05  8.8056543029271963e+05  8.8056543029274093e+05  8.8056543029275502e+05  8.8056543029276398e+05  8.8056543029277795e+05  8.8056543029280438e+05  8.8056543029281916e+05  8.8056543029283732e+05  8.8056543029284908e+05  8.8056543029285886e+05  8.8056543029286468e+05  8.8056543029287003e+05  8.8056543029286864e+05  8.8056543029286794e+05  8.8056543029286538e+05  8.8056543029286363e+05  8.3230387184555433e+05  8.3230387184555153e+05  8.3230387184555689e+05  8.3230387184554781e+05  8.3230387184555572e+05  8.3230387184556248e+05  8.3230387184557016e+05  8.3230387184559496e+05  8.3230387184562476e+05  8.3230387184564653e+05  8.3230387184566294e+05  8.3230387184568122e+05  8.3230387184569798e+05  8.3230387184571452e+05  8.3230387184572953e+05  8.3230387184573174e+05  8.3230387184573943e+05  8.3230387184573710e+05  8.3230387184571917e+05  8.3230387184571754e+05  8.3230387184572639e+05  7.8275896115460352e+05  7.8275896115460864e+05  7.8275896115460363e+05  7.8275896115460328e+05  7.8275896115460945e+05  7.8275896115461108e+05  7.8275896115461225e+05  7.8275896115465008e+05  7.8275896115467465e+05  7.8275896115469688e+05  7.8275896115472110e+05  7.8275896115473390e+05  7.8275896115474706e+05  7.8275896115477185e+05  7.8275896115479525e+05  7.8275896115479525e+05  7.8275896115478734e+05  7.8275896115479374e+05  7.8275896115479886e+05  7.8275896115478605e+05  7.8275896115479153e+05  7.3200709288105264e+05  7.3200709288105369e+05  7.3200709288106114e+05  7.3200709288106149e+05  7.3200709288105241e+05  7.3200709288105927e+05  7.3200709288105683e+05  7.3200709288109816e+05  7.3200709288113413e+05  7.3200709288114659e+05  7.3200709288116964e+05  7.3200709288119001e+05  7.3200709288120852e+05  7.3200709288123134e+05  7.3200709288125683e+05  7.3200709288125078e+05  7.3200709288124263e+05  7.3200709288124845e+05  7.3200709288125404e+05  7.3200709288123786e+05  7.3200709288123564e+05  6.8012652272720600e+05  6.8012652272721985e+05  6.8012652272721683e+05  6.8012652272721624e+05  6.8012652272720693e+05  6.8012652272721217e+05  6.8012652272719308e+05  6.8012652272724849e+05  6.8012652272727864e+05  6.8012652272729576e+05  6.8012652272730530e+05  6.8012652272732824e+05  6.8012652272735594e+05  6.8012652272739017e+05  6.8012652272741043e+05  6.8012652272740589e+05  6.8012652272740984e+05  6.8012652272739366e+05  6.8012652272739413e+05  6.8012652272738924e+05  6.8012652272737969e+05  6.2719724677187752e+05  6.2719724677187996e+05  6.2719724677189358e+05  6.2719724677187577e+05  6.2719724677185598e+05  6.2719724677185109e+05  6.2719724677185051e+05  6.2719724677188345e+05  6.2719724677191558e+05  6.2719724677194166e+05  6.2719724677196669e+05  6.2719724677197763e+05  6.2719724677200196e+05  6.2719724677203991e+05  6.2719724677206529e+05  6.2719724677205167e+05  6.2719724677204783e+05  6.2719724677204154e+05  6.2719724677203596e+05  6.2719724677203340e+05  6.2719724677204492e+05  5.7330087812217325e+05  5.7330087812217593e+05  5.7330087812217698e+05  5.7330087812216545e+05  5.7330087812215544e+05  5.7330087812214380e+05  5.7330087812214298e+05  5.7330087812216557e+05  5.7330087812218035e+05  5.7330087812221760e+05  5.7330087812224205e+05  5.7330087812223844e+05  5.7330087812228303e+05  5.7330087812231795e+05  5.7330087812235218e+05  5.7330087812233774e+05  5.7330087812233483e+05  5.7330087812232494e+05  5.7330087812231248e+05  5.7330087812232925e+05  5.7330087812233821e+05  5.1852052107207366e+05  5.1852052107207413e+05  5.1852052107207105e+05  5.1852052107206173e+05  5.1852052107205405e+05  5.1852052107205283e+05  5.1852052107202919e+05  5.1852052107204683e+05  5.1852052107205748e+05  5.1852052107208723e+05  5.1852052107212372e+05  5.1852052107214666e+05  5.1852052107217285e+05  5.1852052107220172e+05  5.1852052107223525e+05  5.1852052107222716e+05  5.1852052107221744e+05  5.1852052107220853e+05  5.1852052107221773e+05  5.1852052107222436e+05  5.1852052107224136e+05  4.6294064296161383e+05  4.6294064296160132e+05  4.6294064296160673e+05  4.6294064296159154e+05  4.6294064296158339e+05  4.6294064296156942e+05  4.6294064296155353e+05  4.6294064296157018e+05  4.6294064296157629e+05  4.6294064296160464e+05  4.6294064296163316e+05  4.6294064296165406e+05  4.6294064296169061e+05  4.6294064296171465e+05  4.6294064296175743e+05  4.6294064296174014e+05  4.6294064296172635e+05  4.6294064296171378e+05  4.6294064296171925e+05  4.6294064296172798e+05  4.6294064296173106e+05  4.0664694393429119e+05  4.0664694393429614e+05  4.0664694393428887e+05  4.0664694393427268e+05  4.0664694393425662e+05  4.0664694393425586e+05  4.0664694393424236e+05  4.0664694393426384e+05  4.0664694393426599e+05  4.0664694393428636e+05  4.0664694393430016e+05  4.0664694393432268e+05  4.0664694393434812e+05  4.0664694393437338e+05  4.0664694393439323e+05  4.0664694393440231e+05  4.0664694393440010e+05  4.0664694393439585e+05  4.0664694393437996e+05  4.0664694393438875e+05  4.0664694393439195e+05  3.4972622479377716e+05  3.4972622479377687e+05  3.4972622479376703e+05  3.4972622479374445e+05  3.4972622479373845e+05  3.4972622479374043e+05  3.4972622479374259e+05  3.4972622479374369e+05  3.4972622479374806e+05  3.4972622479376732e+05  3.4972622479377378e+05  3.4972622479379328e+05  3.4972622479379730e+05  3.4972622479381901e+05  3.4972622479383851e+05  3.4972622479384847e+05  3.4972622479385283e+05  3.4972622479385423e+05  3.4972622479385481e+05  3.4972622479384375e+05  3.4972622479383921e+05  2.9226625316328509e+05  2.9226625316327176e+05  2.9226625316325546e+05  2.9226625316324364e+05  2.9226625316324964e+05  2.9226625316324184e+05  2.9226625316324818e+05  2.9226625316323788e+05  2.9226625316323660e+05  2.9226625316325360e+05  2.9226625316327543e+05  2.9226625316327426e+05  2.9226625316327013e+05  2.9226625316328957e+05  2.9226625316329347e+05  2.9226625316330954e+05  2.9226625316331757e+05  2.9226625316331815e+05  2.9226625316332199e+05  2.9226625316331035e+05  2.9226625316331617e+05  2.3435562815429052e+05  2.3435562815429069e+05  2.3435562815427239e+05  2.3435562815425705e+05  2.3435562815425865e+05  2.3435562815425594e+05  2.3435562815424733e+05  2.3435562815424948e+05  2.3435562815425088e+05  2.3435562815425621e+05  2.3435562815425030e+05  2.3435562815425298e+05  2.3435562815426357e+05  2.3435562815426404e+05  2.3435562815427341e+05  2.3435562815428901e+05  2.3435562815428406e+05  2.3435562815428313e+05  2.3435562815428237e+05  2.3435562815429148e+05  2.3435562815430251e+05  1.7608364375310577e+05  1.7608364375311485e+05  1.7608364375311049e+05  1.7608364375308732e+05  1.7608364375307484e+05  1.7608364375307673e+05  1.7608364375307990e+05  1.7608364375308561e+05  1.7608364375308400e+05  1.7608364375307213e+05  1.7608364375306288e+05  1.7608364375306378e+05  1.7608364375307041e+05  1.7608364375307912e+05  1.7608364375307350e+05  1.7608364375309204e+05  1.7608364375310045e+05  1.7608364375308744e+05  1.7608364375309410e+05  1.7608364375310537e+05  1.7608364375310589e+05  1.1754015113605284e+05  1.1754015113605464e+05  1.1754015113606105e+05  1.1754015113603893e+05  1.1754015113602811e+05  1.1754015113603909e+05  1.1754015113605329e+05  1.1754015113604136e+05  1.1754015113603965e+05  1.1754015113602734e+05  1.1754015113602670e+05  1.1754015113601783e+05  1.1754015113601746e+05  1.1754015113602714e+05  1.1754015113602598e+05  1.1754015113604075e+05  1.1754015113604075e+05  1.1754015113603487e+05  1.1754015113603725e+05  1.1754015113603625e+05  1.1754015113603685e+05  5.8815420125433455e+04  5.8815420125438155e+04  5.8815420125437689e+04  5.8815420125430894e+04  5.8815420125415316e+04  5.8815420125425218e+04  5.8815420125424629e+04  5.8815420125436023e+04  5.8815420125437748e+04  5.8815420125431054e+04  5.881542012