<?xml version="1.0"?>
<VTKFile type="UnstructuredGrid"  version="0.1"  >
<UnstructuredGrid>
<Piece  NumberOfPoints="1091" NumberOfCells="2050">
<Points>
<DataArray  type="Float64"  NumberOfComponents="3"  format="ascii">-0.5 -1 0  -0.4 -1 0  -0.3 -1 0  -0.2 -1 0  -0.09999999999999998 -1 0  0 -1 0  0.09999999999999998 -1 0  0.2 -1 0  0.3 -1 0  0.4 -1 0  0.5 -1 0  -0.5 -0.98 0  -0.4 -0.98 0  -0.3 -0.98 0  -0.2 -0.98 0  -0.09999999999999998 -0.98 0  0 -0.98 0  0.09999999999999998 -0.98 0  0.2 -0.98 0  0.3 -0.98 0  0.4 -0.98 0  0.5 -0.98 0  -0.5 -0.96 0  -0.4 -0.96 0  -0.3 -0.96 0  -0.2 -0.96 0  -0.09999999999999998 -0.96 0  0 -0.96 0  0.09999999999999998 -0.96 0  0.2 -0.96 0  0.3 -0.96 0  0.4 -0.96 0  0.5 -0.96 0  -0.5 -0.9399999999999999 0  -0.4 -0.9399999999999999 0  -0.3 -0.9399999999999999 0  -0.2 -0.9399999999999999 0  -0.09999999999999998 -0.9399999999999999 0  0 -0.9399999999999999 0  0.09999999999999998 -0.9399999999999999 0  0.2 -0.9399999999999999 0  0.3 -0.9399999999999999 0  0.4 -0.9399999999999999 0  0.5 -0.9399999999999999 0  -0.5 -0.92 0  -0.4 -0.92 0  -0.3 -0.92 0  -0.2 -0.92 0  -0.09999999999999998 -0.92 0  0 -0.92 0  0.09999999999999998 -0.92 0  0.2 -0.92 0  0.3 -0.92 0  0.4 -0.92 0  0.5 -0.92 0  -0.5 -0.9 0  -0.4 -0.9 0  -0.3 -0.9 0  -0.2 -0.9 0  -0.09999999999999998 -0.9 0  0 -0.9 0  0.09999999999999998 -0.9 0  0.2 -0.9 0  0.3 -0.9 0  0.4 -0.9 0  0.5 -0.9 0  -0.5 -0.88 0  -0.4 -0.88 0  -0.3 -0.88 0  -0.2 -0.88 0  -0.09999999999999998 -0.88 0  0 -0.88 0  0.09999999999999998 -0.88 0  0.2 -0.88 0  0.3 -0.88 0  0.4 -0.88 0  0.5 -0.88 0  -0.5 -0.86 0  -0.4 -0.86 0  -0.3 -0.86 0  -0.2 -0.86 0  -0.09999999999999998 -0.86 0  0 -0.86 0  0.09999999999999998 -0.86 0  0.2 -0.86 0  0.3 -0.86 0  0.4 -0.86 0  0.5 -0.86 0  -0.5 -0.84 0  -0.4 -0.84 0  -0.3 -0.84 0  -0.2 -0.84 0  -0.09999999999999998 -0.84 0  0 -0.84 0  0.09999999999999998 -0.84 0  0.2 -0.84 0  0.3 -0.84 0  0.4 -0.84 0  0.5 -0.84 0  -0.5 -0.8200000000000001 0  -0.4 -0.8200000000000001 0  -0.3 -0.8200000000000001 0  -0.2 -0.8200000000000001 0  -0.09999999999999998 -0.8200000000000001 0  0 -0.8200000000000001 0  0.09999999999999998 -0.8200000000000001 0  0.2 -0.8200000000000001 0  0.3 -0.8200000000000001 0  0.4 -0.8200000000000001 0  0.5 -0.8200000000000001 0  -0.5 -0.8 0  -0.4 -0.8 0  -0.3 -0.8 0  -0.2 -0.8 0  -0.09999999999999998 -0.8 0  0 -0.8 0  0.09999999999999998 -0.8 0  0.2 -0.8 0  0.3 -0.8 0  0.4 -0.8 0  0.5 -0.8 0  -0.5 -0.78 0  -0.4 -0.78 0  -0.3 -0.78 0  -0.2 -0.78 0  -0.09999999999999998 -0.78 0  0 -0.78 0  0.09999999999999998 -0.78 0  0.2 -0.78 0  0.3 -0.78 0  0.4 -0.78 0  0.5 -0.78 0  -0.5 -0.76 0  -0.4 -0.76 0  -0.3 -0.76 0  -0.2 -0.76 0  -0.09999999999999998 -0.76 0  0 -0.76 0  0.09999999999999998 -0.76 0  0.2 -0.76 0  0.3 -0.76 0  0.4 -0.76 0  0.5 -0.76 0  -0.5 -0.74 0  -0.4 -0.74 0  -0.3 -0.74 0  -0.2 -0.74 0  -0.09999999999999998 -0.74 0  0 -0.74 0  0.09999999999999998 -0.74 0  0.2 -0.74 0  0.3 -0.74 0  0.4 -0.74 0  0.5 -0.74 0  -0.5 -0.72 0  -0.4 -0.72 0  -0.3 -0.72 0  -0.2 -0.72 0  -0.09999999999999998 -0.72 0  0 -0.72 0  0.09999999999999998 -0.72 0  0.2 -0.72 0  0.3 -0.72 0  0.4 -0.72 0  0.5 -0.72 0  -0.5 -0.7 0  -0.4 -0.7 0  -0.3 -0.7 0  -0.2 -0.7 0  -0.09999999999999998 -0.7 0  0 -0.7 0  0.09999999999999998 -0.7 0  0.2 -0.7 0  0.3 -0.7 0  0.4 -0.7 0  0.5 -0.7 0  -0.5 -0.6799999999999999 0  -0.4 -0.6799999999999999 0  -0.3 -0.6799999999999999 0  -0.2 -0.6799999999999999 0  -0.09999999999999998 -0.6799999999999999 0  0 -0.6799999999999999 0  0.09999999999999998 -0.6799999999999999 0  0.2 -0.6799999999999999 0  0.3 -0.6799999999999999 0  0.4 -0.6799999999999999 0  0.5 -0.6799999999999999 0  -0.5 -0.6599999999999999 0  -0.4 -0.6599999999999999 0  -0.3 -0.6599999999999999 0  -0.2 -0.6599999999999999 0  -0.09999999999999998 -0.6599999999999999 0  0 -0.6599999999999999 0  0.09999999999999998 -0.6599999999999999 0  0.2 -0.6599999999999999 0  0.3 -0.6599999999999999 0  0.4 -0.6599999999999999 0  0.5 -0.6599999999999999 0  -0.5 -0.64 0  -0.4 -0.64 0  -0.3 -0.64 0  -0.2 -0.64 0  -0.09999999999999998 -0.64 0  0 -0.64 0  0.09999999999999998 -0.64 0  0.2 -0.64 0  0.3 -0.64 0  0.4 -0.64 0  0.5 -0.64 0  -0.5 -0.62 0  -0.4 -0.62 0  -0.3 -0.62 0  -0.2 -0.62 0  -0.09999999999999998 -0.62 0  0 -0.62 0  0.09999999999999998 -0.62 0  0.2 -0.62 0  0.3 -0.62 0  0.4 -0.62 0  0.5 -0.62 0  -0.5 -0.6 0  -0.4 -0.6 0  -0.3 -0.6 0  -0.2 -0.6 0  -0.09999999999999998 -0.6 0  0 -0.6 0  0.09999999999999998 -0.6 0  0.2 -0.6 0  0.3 -0.6 0  0.4 -0.6 0  0.5 -0.6 0  -0.5 -0.5800000000000001 0  -0.4 -0.5800000000000001 0  -0.3 -0.5800000000000001 0  -0.2 -0.5800000000000001 0  -0.09999999999999998 -0.5800000000000001 0  0 -0.5800000000000001 0  0.09999999999999998 -0.5800000000000001 0  0.2 -0.5800000000000001 0  0.3 -0.5800000000000001 0  0.4 -0.5800000000000001 0  0.5 -0.5800000000000001 0  -0.5 -0.5600000000000001 0  -0.4 -0.5600000000000001 0  -0.3 -0.5600000000000001 0  -0.2 -0.5600000000000001 0  -0.09999999999999998 -0.5600000000000001 0  0 -0.5600000000000001 0  0.09999999999999998 -0.5600000000000001 0  0.2 -0.5600000000000001 0  0.3 -0.5600000000000001 0  0.4 -0.5600000000000001 0  0.5 -0.5600000000000001 0  -0.5 -0.54 0  -0.4 -0.54 0  -0.3 -0.54 0  -0.2 -0.54 0  -0.09999999999999998 -0.54 0  0 -0.54 0  0.09999999999999998 -0.54 0  0.2 -0.54 0  0.3 -0.54 0  0.4 -0.54 0  0.5 -0.54 0  -0.5 -0.52 0  -0.4 -0.52 0  -0.3 -0.52 0  -0.2 -0.52 0  -0.09999999999999998 -0.52 0  0 -0.52 0  0.09999999999999998 -0.52 0  0.2 -0.52 0  0.3 -0.52 0  0.4 -0.52 0  0.5 -0.52 0  -0.5 -0.5 0  -0.4 -0.5 0  -0.3 -0.5 0  -0.2 -0.5 0  -0.09999999999999998 -0.5 0  0 -0.5 0  0.09999999999999998 -0.5 0  0.2 -0.5 0  0.3 -0.5 0  0.4 -0.5 0  0.5 -0.5 0  -0.5 -0.48 0  -0.4 -0.48 0  -0.3 -0.48 0  -0.2 -0.48 0  -0.09999999999999998 -0.48 0  0 -0.48 0  0.09999999999999998 -0.48 0  0.2 -0.48 0  0.3 -0.48 0  0.4 -0.48 0  0.5 -0.48 0  -0.5 -0.46 0  -0.4 -0.46 0  -0.3 -0.46 0  -0.2 -0.46 0  -0.09999999999999998 -0.46 0  0 -0.46 0  0.09999999999999998 -0.46 0  0.2 -0.46 0  0.3 -0.46 0  0.4 -0.46 0  0.5 -0.46 0  -0.5 -0.4399999999999999 0  -0.4 -0.4399999999999999 0  -0.3 -0.4399999999999999 0  -0.2 -0.4399999999999999 0  -0.09999999999999998 -0.4399999999999999 0  0 -0.4399999999999999 0  0.09999999999999998 -0.4399999999999999 0  0.2 -0.4399999999999999 0  0.3 -0.4399999999999999 0  0.4 -0.4399999999999999 0  0.5 -0.4399999999999999 0  -0.5 -0.42 0  -0.4 -0.42 0  -0.3 -0.42 0  -0.2 -0.42 0  -0.09999999999999998 -0.42 0  0 -0.42 0  0.09999999999999998 -0.42 0  0.2 -0.42 0  0.3 -0.42 0  0.4 -0.42 0  0.5 -0.42 0  -0.5 -0.4 0  -0.4 -0.4 0  -0.3 -0.4 0  -0.2 -0.4 0  -0.09999999999999998 -0.4 0  0 -0.4 0  0.09999999999999998 -0.4 0  0.2 -0.4 0  0.3 -0.4 0  0.4 -0.4 0  0.5 -0.4 0  -0.5 -0.38 0  -0.4 -0.38 0  -0.3 -0.38 0  -0.2 -0.38 0  -0.09999999999999998 -0.38 0  0 -0.38 0  0.09999999999999998 -0.38 0  0.2 -0.38 0  0.3 -0.38 0  0.4 -0.38 0  0.5 -0.38 0  -0.5 -0.36 0  -0.4 -0.36 0  -0.3 -0.36 0  -0.2 -0.36 0  -0.09999999999999998 -0.36 0  0 -0.36 0  0.09999999999999998 -0.36 0  0.2 -0.36 0  0.3 -0.36 0  0.4 -0.36 0  0.5 -0.36 0  -0.5 -0.34 0  -0.4 -0.34 0  -0.3 -0.34 0  -0.2 -0.34 0  -0.09999999999999998 -0.34 0  0 -0.34 0  0.09999999999999998 -0.34 0  0.2 -0.34 0  0.3 -0.34 0  0.4 -0.34 0  0.5 -0.34 0  -0.5 -0.32 0  -0.4 -0.32 0  -0.3 -0.32 0  -0.2 -0.32 0  -0.09999999999999998 -0.32 0  0 -0.32 0  0.09999999999999998 -0.32 0  0.2 -0.32 0  0.3 -0.32 0  0.4 -0.32 0  0.5 -0.32 0  -0.5 -0.3 0  -0.4 -0.3 0  -0.3 -0.3 0  -0.2 -0.3 0  -0.09999999999999998 -0.3 0  0 -0.3 0  0.09999999999999998 -0.3 0  0.2 -0.3 0  0.3 -0.3 0  0.4 -0.3 0  0.5 -0.3 0  -0.5 -0.28 0  -0.4 -0.28 0  -0.3 -0.28 0  -0.2 -0.28 0  -0.09999999999999998 -0.28 0  0 -0.28 0  0.09999999999999998 -0.28 0  0.2 -0.28 0  0.3 -0.28 0  0.4 -0.28 0  0.5 -0.28 0  -0.5 -0.26 0  -0.4 -0.26 0  -0.3 -0.26 0  -0.2 -0.26 0  -0.09999999999999998 -0.26 0  0 -0.26 0  0.09999999999999998 -0.26 0  0.2 -0.26 0  0.3 -0.26 0  0.4 -0.26 0  0.5 -0.26 0  -0.5 -0.24 0  -0.4 -0.24 0  -0.3 -0.24 0  -0.2 -0.24 0  -0.09999999999999998 -0.24 0  0 -0.24 0  0.09999999999999998 -0.24 0  0.2 -0.24 0  0.3 -0.24 0  0.4 -0.24 0  0.5 -0.24 0  -0.5 -0.22 0  -0.4 -0.22 0  -0.3 -0.22 0  -0.2 -0.22 0  -0.09999999999999998 -0.22 0  0 -0.22 0  0.09999999999999998 -0.22 0  0.2 -0.22 0  0.3 -0.22 0  0.4 -0.22 0  0.5 -0.22 0  -0.5 -0.2 0  -0.4 -0.2 0  -0.3 -0.2 0  -0.2 -0.2 0  -0.09999999999999998 -0.2 0  0 -0.2 0  0.09999999999999998 -0.2 0  0.2 -0.2 0  0.3 -0.2 0  0.4 -0.2 0  0.5 -0.2 0  -0.5 -0.18 0  -0.4 -0.18 0  -0.3 -0.18 0  -0.2 -0.18 0  -0.09999999999999998 -0.18 0  0 -0.18 0  0.09999999999999998 -0.18 0  0.2 -0.18 0  0.3 -0.18 0  0.4 -0.18 0  0.5 -0.18 0  -0.5 -0.16 0  -0.4 -0.16 0  -0.3 -0.16 0  -0.2 -0.16 0  -0.09999999999999998 -0.16 0  0 -0.16 0  0.09999999999999998 -0.16 0  0.2 -0.16 0  0.3 -0.16 0  0.4 -0.16 0  0.5 -0.16 0  -0.5 -0.14 0  -0.4 -0.14 0  -0.3 -0.14 0  -0.2 -0.14 0  -0.09999999999999998 -0.14 0  0 -0.14 0  0.09999999999999998 -0.14 0  0.2 -0.14 0  0.3 -0.14 0  0.4 -0.14 0  0.5 -0.14 0  -0.5 -0.12 0  -0.4 -0.12 0  -0.3 -0.12 0  -0.2 -0.12 0  -0.09999999999999998 -0.12 0  0 -0.12 0  0.09999999999999998 -0.12 0  0.2 -0.12 0  0.3 -0.12 0  0.4 -0.12 0  0.5 -0.12 0  -0.5 -0.09999999999999998 0  -0.4 -0.09999999999999998 0  -0.3 -0.09999999999999998 0  -0.2 -0.09999999999999998 0  -0.09999999999999998 -0.09999999999999998 0  0 -0.09999999999999998 0  0.09999999999999998 -0.09999999999999998 0  0.2 -0.09999999999999998 0  0.3 -0.09999999999999998 0  0.4 -0.09999999999999998 0  0.5 -0.09999999999999998 0  -0.5 -0.07999999999999996 0  -0.4 -0.07999999999999996 0  -0.3 -0.07999999999999996 0  -0.2 -0.07999999999999996 0  -0.09999999999999998 -0.07999999999999996 0  0 -0.07999999999999996 0  0.09999999999999998 -0.07999999999999996 0  0.2 -0.07999999999999996 0  0.3 -0.07999999999999996 0  0.4 -0.07999999999999996 0  0.5 -0.07999999999999996 0  -0.5 -0.06000000000000005 0  -0.4 -0.06000000000000005 0  -0.3 -0.06000000000000005 0  -0.2 -0.06000000000000005 0  -0.09999999
[...]
<PointData  Scalars="pressure"> 
<DataArray  type="Float64"  Name="pressure"  format="ascii">2.5617464933838554e+07  2.5617464933838569e+07  2.5617464933838729e+07  2.5617464933838718e+07  2.5617464933838751e+07  2.5617464933838561e+07  2.5617464933838680e+07  2.5617464933838993e+07  2.5617464933839262e+07  2.5617464933839526e+07  2.5617464933839656e+07  2.5604876637055885e+07  2.5604876637055900e+07  2.5604876637056075e+07  2.5604876637056027e+07  2.5604876637056064e+07  2.5604876637055907e+07  2.5604876637055960e+07  2.5604876637056366e+07  2.5604876637056578e+07  2.5604876637056824e+07  2.5604876637057040e+07  2.5567123704963271e+07  2.5567123704963293e+07  2.5567123704963457e+07  2.5567123704963446e+07  2.5567123704963502e+07  2.5567123704963267e+07  2.5567123704963394e+07  2.5567123704963773e+07  2.5567123704963971e+07  2.5567123704964295e+07  2.5567123704964388e+07  2.5504242004651703e+07  2.5504242004651766e+07  2.5504242004651893e+07  2.5504242004651934e+07  2.5504242004651941e+07  2.5504242004651714e+07  2.5504242004651878e+07  2.5504242004652280e+07  2.5504242004652493e+07  2.5504242004652772e+07  2.5504242004652899e+07  2.5416291288993102e+07  2.5416291288993191e+07  2.5416291288993321e+07  2.5416291288993411e+07  2.5416291288993344e+07  2.5416291288993105e+07  2.5416291288993292e+07  2.5416291288993765e+07  2.5416291288993984e+07  2.5416291288994227e+07  2.5416291288994376e+07  2.5303355158119380e+07  2.5303355158119500e+07  2.5303355158119708e+07  2.5303355158119705e+07  2.5303355158119645e+07  2.5303355158119392e+07  2.5303355158119582e+07  2.5303355158120155e+07  2.5303355158120334e+07  2.5303355158120591e+07  2.5303355158120774e+07  2.5165541005291808e+07  2.5165541005291920e+07  2.5165541005292192e+07  2.5165541005292248e+07  2.5165541005292062e+07  2.5165541005291853e+07  2.5165541005292106e+07  2.5165541005292617e+07  2.5165541005292825e+07  2.5165541005293116e+07  2.5165541005293317e+07  2.5002979946962204e+07  2.5002979946962290e+07  2.5002979946962595e+07  2.5002979946962696e+07  2.5002979946962409e+07  2.5002979946962312e+07  2.5002979946962502e+07  2.5002979946963046e+07  2.5002979946963254e+07  2.5002979946963526e+07  2.5002979946963795e+07  2.4815826736775100e+07  2.4815826736775208e+07  2.4815826736775551e+07  2.4815826736775599e+07  2.4815826736775283e+07  2.4815826736775234e+07  2.4815826736775398e+07  2.4815826736775924e+07  2.4815826736776251e+07  2.4815826736776527e+07  2.4815826736776762e+07  2.4604259663210768e+07  2.4604259663210895e+07  2.4604259663211219e+07  2.4604259663211215e+07  2.4604259663210906e+07  2.4604259663210779e+07  2.4604259663211048e+07  2.4604259663211592e+07  2.4604259663211901e+07  2.4604259663212135e+07  2.4604259663212508e+07  2.4368480430522349e+07  2.4368480430522498e+07  2.4368480430522811e+07  2.4368480430522740e+07  2.4368480430522487e+07  2.4368480430522289e+07  2.4368480430522662e+07  2.4368480430523198e+07  2.4368480430523477e+07  2.4368480430523809e+07  2.4368480430524163e+07  2.4108714022581048e+07  2.4108714022581190e+07  2.4108714022581447e+07  2.4108714022581387e+07  2.4108714022581235e+07  2.4108714022581045e+07  2.4108714022581395e+07  2.4108714022581898e+07  2.4108714022582185e+07  2.4108714022582468e+07  2.4108714022582967e+07  2.3825208549203817e+07  2.3825208549203996e+07  2.3825208549204096e+07  2.3825208549204133e+07  2.3825208549203988e+07  2.3825208549203821e+07  2.3825208549204163e+07  2.3825208549204763e+07  2.3825208549205054e+07  2.3825208549205307e+07  2.3825208549205832e+07  2.3518235074509956e+07  2.3518235074510057e+07  2.3518235074510086e+07  2.3518235074510161e+07  2.3518235074510019e+07  2.3518235074509896e+07  2.3518235074510273e+07  2.3518235074510783e+07  2.3518235074511312e+07  2.3518235074511558e+07  2.3518235074511938e+07  2.3188087426824760e+07  2.3188087426824890e+07  2.3188087426824961e+07  2.3188087426824827e+07  2.3188087426824804e+07  2.3188087426824655e+07  2.3188087426825210e+07  2.3188087426825725e+07  2.3188087426826086e+07  2.3188087426826391e+07  2.3188087426826753e+07  2.2835081989632491e+07  2.2835081989632525e+07  2.2835081989632670e+07  2.2835081989632431e+07  2.2835081989632361e+07  2.2835081989632305e+07  2.2835081989632871e+07  2.2835081989633538e+07  2.2835081989633840e+07  2.2835081989634044e+07  2.2835081989634443e+07  2.2459557473064687e+07  2.2459557473064754e+07  2.2459557473064933e+07  2.2459557473064478e+07  2.2459557473064430e+07  2.2459557473064430e+07  2.2459557473065056e+07  2.2459557473065667e+07  2.2459557473066144e+07  2.2459557473066222e+07  2.2459557473066695e+07  2.2061874665408134e+07  2.2061874665408093e+07  2.2061874665408332e+07  2.2061874665407944e+07  2.2061874665407687e+07  2.2061874665407822e+07  2.2061874665408537e+07  2.2061874665409181e+07  2.2061874665409606e+07  2.2061874665409788e+07  2.2061874665410150e+07  2.1642416164114960e+07  2.1642416164114974e+07  2.1642416164115306e+07  2.1642416164114993e+07  2.1642416164114520e+07  2.1642416164114740e+07  2.1642416164115451e+07  2.1642416164116208e+07  2.1642416164116610e+07  2.1642416164116833e+07  2.1642416164117053e+07  2.1201586085808646e+07  2.1201586085808754e+07  2.1201586085809171e+07  2.1201586085808810e+07  2.1201586085808326e+07  2.1201586085808575e+07  2.1201586085809313e+07  2.1201586085810032e+07  2.1201586085810747e+07  2.1201586085810635e+07  2.1201586085810941e+07  2.0739809754793867e+07  2.0739809754794072e+07  2.0739809754794646e+07  2.0739809754794281e+07  2.0739809754793733e+07  2.0739809754793782e+07  2.0739809754794575e+07  2.0739809754795264e+07  2.0739809754796166e+07  2.0739809754795842e+07  2.0739809754796501e+07  2.0257533369602755e+07  2.0257533369602993e+07  2.0257533369603623e+07  2.0257533369603261e+07  2.0257533369602825e+07  2.0257533369602621e+07  2.0257533369603388e+07  2.0257533369604211e+07  2.0257533369605064e+07  2.0257533369604826e+07  2.0257533369605415e+07  1.9755223647141259e+07  1.9755223647141460e+07  1.9755223647141874e+07  1.9755223647141892e+07  1.9755223647141270e+07  1.9755223647141267e+07  1.9755223647142008e+07  1.9755223647142664e+07  1.9755223647143420e+07  1.9755223647143453e+07  1.9755223647143856e+07  1.9233367444036484e+07  1.9233367444036502e+07  1.9233367444037117e+07  1.9233367444037009e+07  1.9233367444036454e+07  1.9233367444036342e+07  1.9233367444037028e+07  1.9233367444037553e+07  1.9233367444038562e+07  1.9233367444038447e+07  1.9233367444038924e+07  1.8692471354830295e+07  1.8692471354830440e+07  1.8692471354831234e+07  1.8692471354830965e+07  1.8692471354830485e+07  1.8692471354830276e+07  1.8692471354830932e+07  1.8692471354831569e+07  1.8692471354832523e+07  1.8692471354832370e+07  1.8692471354833011e+07  1.8133061286721066e+07  1.8133061286721114e+07  1.8133061286722038e+07  1.8133061286721554e+07  1.8133061286721297e+07  1.8133061286720876e+07  1.8133061286721624e+07  1.8133061286722247e+07  1.8133061286723182e+07  1.8133061286722939e+07  1.8133061286723733e+07  1.7555682010604423e+07  1.7555682010604393e+07  1.7555682010605283e+07  1.7555682010604877e+07  1.7555682010604493e+07  1.7555682010604158e+07  1.7555682010604735e+07  1.7555682010605577e+07  1.7555682010606293e+07  1.7555682010606289e+07  1.7555682010606963e+07  1.6960896688240070e+07  1.6960896688240085e+07  1.6960896688241046e+07  1.6960896688240595e+07  1.6960896688240293e+07  1.6960896688239757e+07  1.6960896688240558e+07  1.6960896688241195e+07  1.6960896688242070e+07  1.6960896688242141e+07  1.6960896688242488e+07  1.6349286375433564e+07  1.6349286375433838e+07  1.6349286375434579e+07  1.6349286375434104e+07  1.6349286375433959e+07  1.6349286375433277e+07  1.6349286375434216e+07  1.6349286375434836e+07  1.6349286375435593e+07  1.6349286375435799e+07  1.6349286375435963e+07  1.5721449501198992e+07  1.5721449501199430e+07  1.5721449501199964e+07  1.5721449501199663e+07  1.5721449501199527e+07  1.5721449501198743e+07  1.5721449501199612e+07  1.5721449501200527e+07  1.5721449501201250e+07  1.5721449501201602e+07  1.5721449501201477e+07  1.5078001322952462e+07  1.5078001322953060e+07  1.5078001322953483e+07  1.5078001322953293e+07  1.5078001322953284e+07  1.5078001322952438e+07  1.5078001322953412e+07  1.5078001322954156e+07  1.5078001322954670e+07  1.5078001322955316e+07  1.5078001322955349e+07  1.4419573357865905e+07  1.4419573357866062e+07  1.4419573357866565e+07  1.4419573357866516e+07  1.4419573357866470e+07  1.4419573357865920e+07  1.4419573357866606e+07  1.4419573357867248e+07  1.4419573357867870e+07  1.4419573357868388e+07  1.4419573357868716e+07  1.3746812790598828e+07  1.3746812790599030e+07  1.3746812790599495e+07  1.3746812790599525e+07  1.3746812790599452e+07  1.3746812790598931e+07  1.3746812790599525e+07  1.3746812790599868e+07  1.3746812790600756e+07  1.3746812790601222e+07  1.3746812790601868e+07  1.3060381857723301e+07  1.3060381857723601e+07  1.3060381857724059e+07  1.3060381857723966e+07  1.3060381857723823e+07  1.3060381857723491e+07  1.3060381857723802e+07  1.3060381857724085e+07  1.3060381857725088e+07  1.3060381857725600e+07  1.3060381857726462e+07  1.2360957209237089e+07  1.2360957209237458e+07  1.2360957209238039e+07  1.2360957209237790e+07  1.2360957209237706e+07  1.2360957209237428e+07  1.2360957209237736e+07  1.2360957209237866e+07  1.2360957209238729e+07  1.2360957209239198e+07  1.2360957209240297e+07  1.1649229247666776e+07  1.1649229247667238e+07  1.1649229247667976e+07  1.1649229247667396e+07  1.1649229247667741e+07  1.1649229247667314e+07  1.1649229247667259e+07  1.1649229247667540e+07  1.1649229247668460e+07  1.1649229247669028e+07  1.1649229247669592e+07  1.0925901445349768e+07  1.0925901445350308e+07  1.0925901445350694e+07  1.0925901445350904e+07  1.0925901445351046e+07  1.0925901445350397e+07  1.0925901445349917e+07  1.0925901445350461e+07  1.0925901445351241e+07  1.0925901445351968e+07  1.0925901445352521e+07  1.0191689640581284e+07  1.0191689640581701e+07  1.0191689640581992e+07  1.0191689640582798e+07  1.0191689640582837e+07  1.0191689640581600e+07  1.0191689640581241e+07  1.0191689640581861e+07  1.0191689640582362e+07  1.0191689640583349e+07  1.0191689640583912e+07  9.4473213134065177e+06  9.4473213134071473e+06  9.4473213134072851e+06  9.4473213134080600e+06  9.4473213134080824e+06  9.4473213134067375e+06  9.4473213134063203e+06  9.4473213134069797e+06  9.4473213134075813e+06  9.4473213134083655e+06  9.4473213134088889e+06  8.6935348419308383e+06  8.6935348419312071e+06  8.6935348419317771e+06  8.6935348419321552e+06  8.6935348419324234e+06  8.6935348419310767e+06  8.6935348419306148e+06  8.6935348419309948e+06  8.6935348419317976e+06  8.6935348419323079e+06  8.6935348419330120e+06  7.9310787401090153e+06  7.9310787401094595e+06  7.9310787401101002e+06  7.9310787401102055e+06  7.9310787401106153e+06  7.9310787401091522e+06  7.9310787401088709e+06  7.9310787401092714e+06  7.9310787401097864e+06  7.9310787401103908e+06  7.9310787401110614e+06  7.1607108780653253e+06  7.1607108780658906e+06  7.1607108780665509e+06  7.1607108780666152e+06  7.1607108780670883e+06  7.1607108780654958e+06  7.1607108780650822e+06  7.1607108780655311e+06  7.1607108780661793e+06  7.1607108780665351e+06  7.1607108780673444e+06  6.3831976860757917e+06  6.3831976860765908e+06  6.3831976860769112e+06  6.3831976860771263e+06  6.3831976860776208e+06  6.3831976860760218e+06  6.3831976860760236e+06  6.3831976860757573e+06  6.3831976860767184e+06  6.3831976860772036e+06  6.3831976860781275e+06  5.5993133434261838e+06  5.5993133434267091e+06  5.5993133434272958e+06  5.5993133434271552e+06  5.5993133434273042e+06  5.5993133434266122e+06  5.5993133434265228e+06  5.5993133434257694e+06  5.5993133434266904e+06  5.5993133434271989e+06  5.5993133434280707e+06  4.8098389534308920e+06  4.8098389534313278e+06  4.8098389534319593e+06  4.8098389534320505e+06  4.8098389534314862e+06  4.8098389534312943e+06  4.8098389534314526e+06  4.8098389534307076e+06  4.8098389534309153e+06  4.8098389534316733e+06  4.8098389534325367e+06  4.0155617059721127e+06  4.0155617059724834e+06  4.0155617059727367e+06  4.0155617059733481e+06  4.0155617059723218e+06  4.0155617059719833e+06  4.0155617059724401e+06  4.0155617059715916e+06  4.0155617059719567e+06  4.0155617059726347e+06  4.0155617059734566e+06  3.2172740289697140e+06  3.2172740289701736e+06  3.2172740289706253e+06  3.2172740289709279e+06  3.2172740289699412e+06  3.2172740289695677e+06  3.2172740289700148e+06  3.2172740289694620e+06  3.2172740289695296e+06  3.2172740289700548e+06  3.2172740289706523e+06  2.4157727302639568e+06  2.4157727302642949e+06  2.4157727302649226e+06  2.4157727302651643e+06  2.4157727302642837e+06  2.4157727302639754e+06  2.4157727302639531e+06  2.4157727302638902e+06  2.4157727302639112e+06  2.4157727302643796e+06  2.4157727302644951e+06  1.6118581314261272e+06  1.6118581314261421e+06  1.6118581314267693e+06  1.6118581314268755e+06  1.6118581314262564e+06  1.6118581314257954e+06  1.6118581314259898e+06  1.6118581314255705e+06  1.6118581314259451e+06  1.6118581314266571e+06  1.6118581314262787e+06  8.0633319506301463e+05  8.0633319506312918e+05  8.0633319506373757e+05  8.0633319506358239e+05  8.0633319506306795e+05  8.0633319506268238e+05  8.0633319506295607e+05  8.0633319506282324e+05  8.0633319506302709e+05  8.0633319506303163e+05  8.0633319506353128e+05  -4.7444878349339819e-11  2.3223183027757448e-11  4.2632564145606031e-11  5.8390142610901248e-11  2.2712417172422273e-10  4.6237896140035894e-11  7.7265842424262402e-12  1.6079149163064393e-10  1.3500311979441893e-10  9.5345047747724043e-12  -2.8421709430403969e-11  2.5615205284196284e+07  2.5615205284196384e+07  2.5615205284196451e+07  2.5615205284196436e+07  2.5615205284196392e+07  2.5615205284196340e+07  2.5615205284196544e+07  2.5615205284196839e+07  2.5615205284197107e+07  2.5615205284197316e+07  2.5590030837120302e+07  2.5590030837120403e+07  2.5590030837120481e+07  2.5590030837120481e+07  2.5590030837120406e+07  2.5590030837120377e+07  2.5590030837120600e+07  2.5590030837120898e+07  2.5590030837121159e+07  2.5590030837121356e+07  2.5539705858102068e+07  2.5539705858102143e+07  2.5539705858102247e+07  2.5539705858102258e+07  2.5539705858102165e+07  2.5539705858102139e+07  2.5539705858102404e+07  2.5539705858102694e+07  2.5539705858102959e+07  2.5539705858103160e+07  2.5464278162053328e+07  2.5464278162053458e+07  2.5464278162053559e+07  2.5464278162053563e+07  2.5464278162053466e+07  2.5464278162053429e+07  2.5464278162053749e+07  2.5464278162054054e+07  2.5464278162054282e+07  2.5464278162054494e+07  2.5363819432894733e+07  2.5363819432894867e+07  2.5363819432894979e+07  2.5363819432894956e+07  2.5363819432894852e+07  2.5363819432894792e+07  2.5363819432895165e+07  2.5363819432895511e+07  2.5363819432895742e+07  2.5363819432895951e+07  2.5238425177257221e+07  2.5238425177257426e+07  2.5238425177257560e+07  2.5238425177257504e+07  2.5238425177257318e+07  2.5238425177257337e+07  2.5238425177257709e+07  2.5238425177258059e+07  2.5238425177258339e+07  2.5238425177258547e+07  2.5088214662483647e+07  2.5088214662483864e+07  2.5088214662484057e+07  2.5088214662483945e+07  2.5088214662483778e+07  2.5088214662483793e+07  2.5088214662484184e+07  2.5088214662484549e+07  2.5088214662484817e+07  2.5088214662485044e+07  2.4913330838704683e+07  2.4913330838704892e+07  2.4913330838705108e+07  2.4913330838704966e+07  2.4913330838704780e+07  2.4913330838704869e+07  2.4913330838705212e+07  2.4913330838705610e+07  2.4913330838705879e+07  2.4913330838706136e+07  2.4713940244713176e+07  2.4713940244713411e+07  2.4713940244713571e+07  2.4713940244713381e+07  2.4713940244713191e+07  2.4713940244713299e+07  2.4713940244713664e+07  2.4713940244714070e+07  2.4713940244714350e+07  2.4713940244714651e+07  2.4490232897313215e+07  2.4490232897313438e+07  2.4490232897313587e+07  2.4490232897313423e+07  2.4490232897313200e+07  2.4490232897313263e+07  2.4490232897313684e+07  2.4490232897314146e+07  2.4490232897314463e+07  2.4490232897314738e+07  2.4242422163776636e+07  2.4242422163776860e+07  2.4242422163776994e+07  2.4242422163776834e+07  2.4242422163776632e+07  2.4242422163776722e+07  2.4242422163777161e+07  2.4242422163777575e+07  2.4242422163777854e+07  2.4242422163778238e+07  2.3970744616999839e+07  2.3970744617000028e+07  2.3970744617000129e+07  2.3970744617000025e+07  2.3970744616999857e+07  2.3970744616999917e+07  2.3970744617000379e+07  2.3970744617000807e+07  2.3970744617001098e+07  2.3970744617001466e+07  2.3675459872921113e+07  2.3675459872921202e+07  2.3675459872921258e+07  2.3675459872921225e+07  2.3675459872921105e+07  2.3675459872921176e+07  2.3675459872921627e+07  2.3675459872922149e+07  2.3675459872922480e+07  2.3675459872922827e+07  2.3356850409729615e+07  2.3356850409729686e+07  2.3356850409729715e+07  2.3356850409729652e+07  2.3356850409729537e+07  2.3356850409729693e+07  2.3356850409730196e+07  2.3356850409730695e+07  2.3356850409731030e+07  2.3356850409731358e+07  2.3015221368374780e+07  2.3015221368374910e+07  2.3015221368374847e+07  2.3015221368374724e+07  2.3015221368374635e+07  2.3015221368374866e+07  2.3015221368375476e+07  2.3015221368375897e+07  2.3015221368376214e+07  2.3015221368376523e+07  2.2650900333869748e+07  2.2650900333869889e+07  2.2650900333869815e+07  2.2650900333869584e+07  2.2650900333869580e+07  2.2650900333869793e+07  2.2650900333870422e+07  2.2650900333870985e+07  2.2650900333871223e+07  2.2650900333871502e+07  2.2264237096872706e+07  2.2264237096872784e+07  2.2264237096872699e+07  2.2264237096872404e+07  2.2264237096872367e+07  2.2264237096872717e+07  2.2264237096873373e+07  2.2264237096873935e+07  2.2264237096874222e+07  2.2264237096874464e+07  2.1855603395027731e+07  2.1855603395027846e+07  2.1855603395027820e+07  2.1855603395027433e+07  2.1855603395027339e+07  2.1855603395027801e+07  2.1855603395028550e+07  2.1855603395029068e+07  2.1855603395029351e+07  2.1855603395029612e+07  2.1425392633553501e+07  2.1425392633553725e+07  2.1425392633553762e+07  2.1425392633553334e+07  2.1425392633553229e+07  2.1425392633553721e+07  2.1425392633554459e+07  2.1425392633555084e+07  2.1425392633555416e+07  2.1425392633555550e+07  2.0974019584578186e+07  2.0974019584578525e+07  2.0974019584578607e+07  2.0974019584578112e+07  2.0974019584577981e+07  2.0974019584578406e+07  2.0974019584579144e+07  2.0974019584579926e+07  2.0974019584580176e+07  2.0974019584580317e+07  2.0501920064739935e+07  2.0501920064740408e+07  2.0501920064740527e+07  2.0501920064740133e+07  2.0501920064739823e+07  2.0501920064740140e+07  2.0501920064740930e+07  2.0501920064741701e+07  2.0501920064742010e+07  2.0501920064742178e+07  2.0009550590600759e+07  2.0009550590601146e+07  2.0009550590601329e+07  2.0009550590600956e+07  2.0009550590600673e+07  2.0009550590600956e+07  2.0009550590601705e+07  2.0009550590602469e+07  2.0009550590602793e+07  2.0009550590603027e+07  1.9497388011453539e+07  1.9497388011453792e+07  1.9497388011454046e+07  1.9497388011453781e+07  1.9497388011453465e+07  1.9497388011453781e+07  1.9497388011454482e+07  1.9497388011455204e+07  1.9497388011455607e+07  1.9497388011455785e+07  1.8965929119145699e+07  1.8965929119146060e+07  1.8965929119146328e+07  1.8965929119145989e+07  1.8965929119145676e+07  1.8965929119145907e+07  1.8965929119146459e+07  1.8965929119147278e+07  1.8965929119147800e+07  1.8965929119147930e+07  1.8415690234590016e+07  1.8415690234590549e+07  1.8415690234590799e+07  1.8415690234590400e+07  1.8415690234590057e+07  1.8415690234590221e+07  1.8415690234590918e+07  1.8415690234591734e+07  1.8415690234592065e+07  1.8415690234592348e+07  1.7847206770690650e+07  1.7847206770691074e+07  1.7847206770691309e+07  1.7847206770690896e+07  1.7847206770690545e+07  1.7847206770690676e+07  1.7847206770691380e+07  1.7847206770692144e+07  1.7847206770692475e+07  1.7847206770692825e+07  1.7261032771469321e+07  1.7261032771469764e+07  1.7261032771470055e+07  1.7261032771469668e+07  1.7261032771469265e+07  1.7261032771469347e+07  1.7261032771470096e+07  1.7261032771470867e+07  1.7261032