<?xml version="1.0"?>
<VTKFile type="UnstructuredGrid"  version="0.1"  >
<UnstructuredGrid>
<Piece  NumberOfPoints="654" NumberOfCells="1220">
<Points>
<DataArray  type="Float64"  NumberOfComponents="3"  format="ascii">-0.05 0 0  -0.05 -0.1 0  0.05 -0.1 0  0.05 0 0  0 -0.1 0  0.05 -0.05 0  0 0 0  -0.05 -0.05 0  0 -0.05 0  -0.025 -0.1 0  -0.025 0 0  -0.05 -0.025 0  0.025 -0.1 0  0.05 -0.025 0  0.025 0 0  0.025 -0.06875000000000001 0  0.025 -0.03750000000000001 0  -0.02083333333333333 -0.02916666666666667 0  -0.05 -0.07500000000000001 0  -0.02083333333333333 -0.07083333333333333 0  0.05 -0.07500000000000001 0  0.003472222222222224 -0.02569444444444444 0  0.002378144654088049 -0.07627751572327045 0  -0.02083333333333333 -0.05 0  0.03125 -0.01875 0  -0.01233019290593089 -0.08678347112328397 0  -0.0125 -0.0130952380952381 0  -0.03690476190476191 -0.03750000000000001 0  -0.03541666666666667 -0.06041666666666666 0  -0.03385416666666667 -0.01614583333333334 0  0.05 -0.08750000000000001 0  0.03750000000000001 -0.1 0  -0.03385416666666666 -0.08385416666666666 0  0.03348214285714286 -0.08348214285714287 0  0.0125 0 0  0.0125 -0.1 0  0.01719551374627341 -0.0830513925183794 0  0.01029527261028368 -0.06231463651962176 0  0.0328125 -0.05312500000000001 0  -0.01041666666666666 -0.03958333333333333 0  -0.01041666666666667 -0.06041666666666667 0  0.01470753125203114 -0.04816506250406229 0  0.01799242424242424 -0.02474747474747475 0  0.03750000000000001 -0.03125 0  0.05 -0.0625 0  0.00625 -0.01223723723723724 0  0.05 -0.0125 0  0.03750000000000001 0 0  0.03765012642225032 -0.07127449431099875 0  0.02021617032392894 -0.01201127655869035 0  0.006028532990060553 -0.03846042534778643 0  -0.05 -0.0625 0  -0.03750000000000001 0 0  -0.05 -0.03750000000000001 0  -0.0125 -0.1 0  -0.0125 0 0  -0.05 -0.0125 0  -0.03750000000000001 -0.1 0  0.05 -0.03750000000000001 0  -0.05 -0.08750000000000001 0  -0.008680555555555554 -0.02743055555555555 0  0.006250000000000001 -0.08914373740925415 0  -0.009584768711776409 -0.07507825100308022 0  -0.03268229166666667 -0.07200520833333332 0  0.03939012096774194 -0.04309475806451613 0  0.02190003906503893 -0.05743439453251947 0  -0.03834537706133037 -0.04910019455252918 0  0.01284084887861751 -0.07298400536762802 0  -0.02264613483542079 -0.0820413651645792 0  -0.02366071428571428 -0.01123511904761905 0  -0.03199404761904762 -0.02730654761904763 0  -0.0244047619047619 -0.06041666666666667 0  -0.01041666666666666 -0.05 0  -0.02083333333333332 -0.03958333333333333 0  2.405987640392848e-05 -0.0604407265430706 0  -0.002910133850527605 -0.01736173448892657 0  -0.02961483445283294 -0.04429487938443922 0  0.0390625 -0.0109375 0  0.040625 -0.021875 0  0.028125 -0.028125 0  -0.04176917540113871 -0.06803243885869564 0  0.03965658412817928 -0.06102022076500465 0  0.01533845899304755 -0.03450745320159019 0  0.02948377458963575 -0.008744075527611174 0  0.02448333984417315 -0.04800472330961902 0  -0.002638588467448458 -0.08480290334513936 0  0.01875 -0.09260679016400503 0  0.02801599660666901 -0.09111197895245939 0  0.0427726833976834 -0.08125000000000002 0  0.04010991573299855 -0.09061756875992701 0  -0.03125000000000001 -0.09292674731182796 0  -0.04078102849914793 -0.09075246902758297 0  -0.04292674731182795 -0.08125000000000002 0  -0.04292674731182796 -0.01875 0  -0.04075246902758298 -0.009218971500852071 0  -0.002501899107215252 -0.03451361758785813 0  -0.01875 -0.09331034417873318 0  -0.04137052725919914 -0.02906901041666667 0  -0.02515071191829004 -0.02065873579545455 0  -0.004560476962080258 -0.008160345583815167 0  -0.01571003401360544 -0.02162698412698413 0  -0.006250000000000001 -0.09347094524847423 0  -0.03184688459542486 -0.007177652942204195 0  -0.043423574176247 -0.05645164743293771 0  -0.002931194584325539 -0.06897337298686135 0  0.04141166808534667 -0.05159229946940671 0  0.03072628767995273 -0.06184751883997637 0  0.01331794183364191 -0.01736907532119644 0  -0.02991071428571428 -0.05329326110353833 0  0.0302193738423544 -0.07555280640245397 0  -0.02844810693838604 -0.03529440998727736 0  -0.05 -0.04375 0  0.009435764744425919 -0.08043238240966273 0  0.02057363836381549 -0.07561467685960577 0  0.025334823172674 -0.08341820123348352 0  0.005194622404326759 -0.06864849887959712 0  0.01732194592699554 -0.06627651681808928 0  0.006285662925187238 -0.05520590615175079 0  -0.01875 0 0  0.03186492887377232 -0.04533174938342453 0  -0.0008783629089698517 -0.04219661564043644 0  0.05 -0.00625 0  0.03375689409777979 -0.03792049068961304 0  0.05 -0.06875000000000001 0  0.01439721346977286 -0.05583102001882564 0  0.007184194424042271 -0.04772337119454249 0  0.01846824474048517 -0.04149541481145257 0  -0.01682300313953808 -0.07723258764373991 0  0.01091777409106017 -0.0280645394299259 0  -0.01562499999999999 -0.034375 0  -0.005184328773648671 -0.055232337893018 0  -0.015625 -0.05520833333333333 0  -0.01562499999999999 -0.04479166666666667 0  -0.01741071428571429 -0.06383928571428571 0  -0.01017446891572471 -0.06775731747543173 0  0.02462121212121212 -0.02174873737373738 0  -0.01727537722908093 -0.007335299088771311 0  -0.04246234479210493 -0.04269936147867359 0  0.02155204304257197 -0.03095624460965786 0  0.01316725552433098 -0.00805546078058521 0  0.01875 0 0  -0.02717633928571428 -0.0671875 0  -0.02899339936689958 -0.07835247286481212 0  0.034375 -0.025 0  0.04269000268040276 -0.03649499463919448 0  0.04375 0 0  0.04375 -0.02812499999999999 0  -0.03761497647442349 -0.02322577938762476 0  0.05 -0.05625 0  -0.02487731781150031 -0.08912078797260026 0  -0.03695888676976247 -0.07756467740738612 0  0.002206599034779407 -0.006587679234291101 0  0.003888413565608712 -0.01876506087328944 0  0.04375 -0.1 0  0.05 -0.09375 0  -0.008944539808483216 -0.02059134745263918 0  -0.04331057662916364 -0.07455691519284439 0  0.0439453125 -0.0158203125 0  -0.0001289479518082485 -0.09093484953796985 0  -0.04345238095238095 -0.03556995462159739 0  -0.01996941165388946 -0.01664836497274012 0  -0.04375 -0.1 0  -0.05 -0.09375 0  -0.04375 0 0  -0.05 -0.00625 0  0.005594154517873918 -0.03190847365283561 0  0.01173248358540133 -0.04209249512146222 0  0.03419217537052396 -0.09402564429600242 0  0.01187454317038147 -0.09313287027544383 0  0.00625 -0.1 0  0.02629142191479375 -0.01446643061282435 0  0.021875 -0.005713666436405997 0  0.04321758283034931 -0.06704044172466167 0  0.03164035608931087 -0.06843232885197728 0  0.04337196116786825 -0.07463925880684733 0  0.03637679552963742 -0.07765509762578199 0  0.003626010873625676 -0.08324593924595615 0  -0.01086143623908221 -0.006877234301934964 0  0.05 -0.04375 0  0.01179919481827354 -0.08623489346281316 0  -0.01250448524457812 -0.09373974299368953 0  -0.05 -0.06875000000000001 0  -0.03125 0 0  -0.03125 -0.1 0  0.03125 0 0  0.05 -0.03125 0  -0.05 -0.03125 0  0.03125 -0.1 0  -0.00625 -0.1 0  -0.01875 -0.1 0  -0.05 -0.01875 0  0.01875 -0.1 0  -0.00625 0 0  0.00625 0 0  0.05 -0.01875 0  -0.05 -0.05625 0  -0.05 -0.08125000000000002 0  0.05 -0.08125000000000002 0  -0.005208333333333331 -0.04663513209089385 0  -0.008645094114120339 -0.03363601830115741 0  -0.01475694444444444 -0.0282986111111111 0  -0.002375017943413014 -0.02816654106277556 0  0.01949511126133643 -0.01820257885343882 0  -0.01184447766846871 -0.08072281861600734 0  -0.003534735552586339 -0.07499381884380991 0  -7.74643124966494e-05 -0.01210497681433211 0  -0.0189894669743643 -0.08708512345290294 0  -0.03573478741405032 -0.06660859450219164 0  0.04359375 -0.006406250000000002 0  0.03517259397916334 -0.00591284371726238 0  0.01965556274601837 -0.05175082112889391 0  0.0278582381998454 -0.05655080703154879 0  0.02250150625287546 -0.06335204673888746 0  -0.04398521510889171 -0.06244044890584508 0  -0.04409485128436456 -0.05055827494263457 0  -0.03770557434490081 -0.05497182533168162 0  -0.03656642640981419 -0.04343156897269072 0  0.009194419875177533 -0.02206075900562258 0  0.04451331908599852 -0.04636519166703897 0  -0.01485520520633521 -0.0715431557666749 0  0.03646473132841593 -0.0487266977067035 0  0.04405668594067944 -0.05696201317865261 0  -0.005203169869815907 -0.063408387077611 0  -0.02247505510150612 -0.07631841748069951 0  -0.02804244587606518 -0.08423194559419436 0  -0.02935822174816368 -0.01244339991380455 0  -0.03106530920251624 -0.021416390819467 0  -0.02607827560230913 -0.005825920664671352 0  -0.03361300586943999 -0.03280621050224407 0  -0.02666093500983432 -0.02972007434472025 0  0.02285652838955744 -0.08859591663874328 0  0.03188089108105607 -0.03248232675683183 0  0.004333204611837944 -0.09457186870462708 0  -0.02704324561419352 -0.07289471972323462 0  0.007922643115429704 -0.005561362357538799 0  0.0335055138043014 -0.01319301380430141 0  0.03678783220616013 -0.0177615033815196 0  -0.02428736139211932 -0.05463634003970875 0  -0.02991071428571428 -0.06211553281168236 0  0.01197199101441062 -0.06755294829741498 0  0.007340105850365504 -0.07377496925579345 0  0.0155154430127655 -0.07780260757679426 0  0.03658895737846099 -0.06574341599602251 0  -0.02410709817404581 -0.09456977129140082 0  0.01071697988857716 -0.05184278466318995 0  0.01728938824664831 -0.06065342293474459 0  -0.001242172060814776 -0.02269478175693585 0  -0.03834687844188856 -0.07228526864991387 0  0.03504935696459177 -0.08867226036471411 0  0.03924608506562968 -0.08530978616477196 0  0.04446421559415197 -0.08718473081338503 0  0.02679267124047066 -0.0428532372923227 0  -0.007808666799817795 -0.01546134924060014 0  -0.02636641232583814 -0.04890574755055194 0  -0.02267804660897878 -0.04479166666666666 0  0.03489498531895979 -0.05823382415106163 0  3.608994237358591e-05 -0.05522030782704834 0  0.005332838990544739 -0.06042849285714701 0  -0.04436969017718883 -0.02424446436705185 0  -0.01009042364871584 -0.04479166666666667 0  -0.01041666666666667 -0.05520833333333333 0  -0.015625 -0.05 0  -0.01562499999999999 -0.03958333333333334 0  -0.02083333333333332 -0.034375 0  0.04436432681906392 -0.09436432681906393 0  -0.02240513392857143 -0.06518787202380952 0  0.045371774633
[...]
<PointData  Scalars="pressure"> 
<DataArray  type="Float64"  Name="pressure"  format="ascii">1.0954856014275705e+06  4.9983728901449413e+09  4.9983410065454340e+09  8.1418099052460655e+05  4.9983786794563913e+09  4.7079425505329094e+09  3.9843064172211540e+05  4.7088593031529636e+09  4.7074575652363863e+09  4.9984201909527836e+09  8.4516952508980525e+05  3.2812531303496366e+09  4.9984226396790152e+09  3.2811666444780202e+09  3.0414236231610860e+05  4.9534287792290277e+09  4.2206903071535177e+09  3.6525232658280120e+09  4.9774581655544338e+09  4.9630546905252790e+09  4.9775134436862383e+09  3.3434176938998809e+09  4.9801987495391474e+09  4.7073515846086731e+09  2.6108063497543778e+09  4.9946328366317530e+09  1.8979944399124379e+09  4.2224091776189637e+09  4.8886620749411736e+09  2.2949609082080402e+09  4.9952147039590759e+09  4.9983827844555836e+09  4.9922621973592978e+09  4.9918838648146162e+09  1.4582533762358344e+04  4.9983806943566666e+09  4.9914809956560497e+09  4.9077001497000675e+09  4.7781837669403858e+09  4.3261656208981009e+09  4.8883382265789394e+09  4.6563200127948360e+09  3.2547783491246185e+09  3.8144481993891339e+09  4.9093503050387173e+09  1.7837543717352843e+09  1.8214293174063370e+09  1.4758636846329242e+06  4.9648094799164057e+09  1.7514806321644871e+09  4.2716134292869582e+09  4.9093022333560162e+09  3.3913850968539389e+05  4.2235871285381989e+09  4.9984411123449020e+09  -2.7008644479127121e+04  1.8200319275058231e+09  4.9984070471926899e+09  4.2249618843016849e+09  4.9951324130301886e+09  3.5030158623701711e+09  4.9960311872535076e+09  4.9772839862348318e+09  4.9680603250293207e+09  4.4846220940660782e+09  4.8513933893604965e+09  4.6841037117737284e+09  4.9711212406709061e+09  4.9903314516141548e+09  1.6461258145025356e+09  3.4948548734268842e+09  4.8885960350730515e+09  4.7075266475293760e+09  4.3288390139509068e+09  4.8892723456444407e+09  2.4443345214531455e+09  4.5322460872321491e+09  1.6054186268904467e+09  2.9600920080986195e+09  3.5652096432249446e+09  4.9497260674642715e+09  4.8949120724712362e+09  4.0411991955611949e+09  1.2960345510078547e+09  4.6544484360760956e+09  4.9931116015382795e+09  4.9974077367017365e+09  4.9968962418208399e+09  4.9893009948061056e+09  4.9967258878577557e+09  4.9974698173405504e+09  4.9967915861005125e+09  4.9892630006816797e+09  2.6108160022733970e+09  1.3654186932080264e+09  4.0412543750867305e+09  4.9976187242773504e+09  3.6432504988468890e+09  2.8300220617184958e+09  1.2139536180815675e+09  2.9329403159001718e+09  4.9975963707187510e+09  1.0715592876464838e+09  4.8357972495486145e+09  4.9544981864206657e+09  4.7454979962415180e+09  4.9027105102453403e+09  2.4474589957548938e+09  4.7817088483012362e+09  4.9784440901709375e+09  4.0887844272331696e+09  4.5141507936389790e+09  4.9881764332681828e+09  4.9786654103100576e+09  4.9918855525148258e+09  4.9525180871954918e+09  4.9389654038143358e+09  4.8161015918978596e+09  6.9998617432476094e+04  4.5680259337425995e+09  4.4470121897659712e+09  9.3666549632807219e+08  4.2434434817858081e+09  4.9531465900522442e+09  4.8261651602508259e+09  4.6444789556095686e+09  4.4197391825796471e+09  4.9823745102806587e+09  3.5565653903692470e+09  4.0324374053558440e+09  4.8155116045843782e+09  4.8166250599368811e+09  4.5498315375530605e+09  4.9211535428272190e+09  4.9477218326784201e+09  2.9461964664827528e+09  1.0930161193895109e+09  4.4676583806636934e+09  3.7931324689631677e+09  1.1976326564718451e+09  5.4332905555574968e+05  4.9447056517751665e+09  4.9845751946086292e+09  3.2766310379763279e+09  4.1621155784106870e+09  2.2907210337343375e+05  3.5630564563431001e+09  3.1032032330834212e+09  4.8334192749078350e+09  4.9960193256093645e+09  4.9830181200185452e+09  9.8568227939687383e+08  2.6112954682473874e+09  4.9984366974402180e+09  4.9977132196584435e+09  2.8216978323130813e+09  4.9757411569780016e+09  2.2531580256194925e+09  4.9968455775567722e+09  4.1070960403186221e+09  2.3552692337392640e+09  4.9983816107730265e+09  4.9977495035049314e+09  3.3251224264163105e+05  9.3682181706197488e+08  3.8612291578538275e+09  4.4422448972704716e+09  4.9977629074046793e+09  4.9975258103179007e+09  4.9984020730624905e+09  2.0800014211169195e+09  8.5538724938235772e+08  4.9437447825675764e+09  4.9512595308475828e+09  4.9759592037693949e+09  4.9832304149960222e+09  4.9915603093498430e+09  1.0266881805256816e+09  4.5117029256409655e+09  4.9943944927126999e+09  4.9976911173754063e+09  4.9535616016151743e+09  1.2516070508677335e+05  4.9983698424344921e+09  4.9479463639040763e+05  3.8164609342065969e+09  3.8200535147468085e+09  4.9983907580807981e+09  4.9983874289386387e+09  4.9983606794036961e+09  2.6081773382584491e+09  4.9983867953597126e+09  4.2564102346348768e+05  9.9440848350606626e+05  2.6157341900961938e+09  4.8339347886891460e+09  4.9893942718297968e+09  4.9893902285166082e+09  4.6115823830101690e+09  3.9815106066506510e+09  3.5776507845575328e+09  3.5682549800270472e+09  2.5445453034188232e+09  4.9887408270853014e+09  4.9772901675077982e+09  1.7672214042218175e+09  4.9949567261962395e+09  4.9413546197420349e+09  9.5768267830623507e+08  8.8527354131726599e+08  4.7499840508445721e+09  4.8373310985469494e+09  4.9177356102686110e+09  4.9099780106101379e+09  4.7193166131876307e+09  4.8129751748477373e+09  4.4992164564861822e+09  2.9811968033930340e+09  4.6031728829356737e+09  4.9654802978343534e+09  4.6731929090804358e+09  4.8444828199929380e+09  4.9179298356869421e+09  4.9804835545358744e+09  4.9925977300156574e+09  1.8114756790930855e+09  2.9152508061183910e+09  8.7347813879500186e+08  3.9300601870695462e+09  3.6938741700707688e+09  4.9958030365743465e+09  3.9059913208932624e+09  4.9978869701729164e+09  4.9709950245981579e+09  8.3359213874990404e+08  1.9144036097367446e+09  2.4944245960935969e+09  4.8073485079219332e+09  4.9059079523968048e+09  4.9468353966992807e+09  4.9732767724353008e+09  4.9835979836274605e+09  4.9356495617666168e+09  4.9978864597411480e+09  4.7511929816562119e+09  4.8909846014620571e+09  3.0505001025738330e+09  4.9687784578478222e+09  4.9958437932952604e+09  4.9936080256773214e+09  4.9949837654733829e+09  4.4764425681709566e+09  2.2090763227888532e+09  4.6797836016486368e+09  4.5510871403847408e+09  4.8618397154024220e+09  4.8168370155420189e+09  4.8884380701722383e+09  3.2057168569313364e+09  4.5490454111384878e+09  4.8165673269494028e+09  4.7069882262353687e+09  4.3289452834078569e+09  4.0339767254755483e+09  4.9978372638862247e+09  4.9314248327130356e+09  4.4004909591663790e+09  4.8706715285170631e+09  4.0656376696524358e+09  3.6721713294509001e+09  4.1245147173703866e+09  4.9058630787028828e+09  4.9868550139944639e+09  4.9904697395755157e+09  4.3825635012605762e+09  4.6724569458444834e+09  4.3596473989906654e+09  4.9880977936699686e+09  4.9929666561468220e+09  4.3040247464043159e+09  4.9615204184446678e+09  2.9597526971424084e+09  3.9189146400930185e+09  3.1264106419114056e+09  3.4271368697641144e+09  6.9832586394867229e+08  4.9981206615989809e+09  4.9980047674039316e+09  1.9382493683058441e+09  2.1179334362664502e+09  1.6285806798685083e+09  1.4485740907703948e+09  7.0668545774168456e+08  4.7440754448908682e+09  4.6121379851413536e+09  4.9936923792809095e+09  4.9944855353292704e+09  4.9962245943374882e+09  6.1377483622677302e+08  4.5816998091536303e+09  4.9980658676238909e+09  1.2741329456603634e+09  3.3925551541834636e+09  4.9339870105786285e+09  1.7426890864110503e+09  4.9975824293668261e+09  4.9981387481413479e+09  4.9981447341127605e+09  4.9953242806129646e+09  4.9841158696894169e+09  4.9886699497269659e+09  4.9880285064449940e+09  3.5474297219623852e+09  3.3266148226605868e+09  3.9359265823186479e+09  2.2443453965644317e+09  2.4375118028310394e+09  2.9059563626992865e+09  4.9980533762023611e+09  4.9841029547491999e+09  1.6216898521973648e+09  4.1011981079791946e+09  4.9960613130561571e+09  4.9943969335465450e+09  5.4002015632952547e+08  4.9843590024344664e+09  5.4274134461667073e+08  4.4832575549921608e+09  1.8434928467906475e+09  9.7121842966865361e+08  4.8291679345651894e+09  4.9721145678769999e+09  4.9955599126414795e+09  4.9163403307120829e+09  2.9862577650100307e+09  4.3257385011329269e+09  4.9964486324511232e+09  4.7769284260589361e+09  3.3176374622695498e+09  3.2350899572949762e+09  2.3943296398393254e+09  1.5903749738502421e+09  4.9980597277940960e+09  4.8838874033285751e+09  4.2727214217061071e+09  4.9963983334100752e+09  4.9642863982654800e+09  4.9685741076724272e+09  4.6180260202072592e+09  4.8340317373560448e+09  4.8539866264016867e+09  4.0314071753350582e+09  3.6084920211860118e+09  4.9981746868776007e+09  4.9266448266204834e+09  1.7372636777566769e+09  4.9982044337366581e+09  4.9672536237785168e+09  4.9614770296516848e+09  4.9982110868844919e+09  4.9981758778943119e+09  6.3092949601703954e+08  6.0188442374198866e+08  4.9325461734827119e+08  3.1694886051261120e+09  3.7958699952919140e+09  4.1553769287024164e+09  6.1154318020204163e+08  4.9338278937988968e+09  4.9933446612282619e+09  4.8062999586305456e+09  4.8839010042044954e+09  4.8748327855059853e+09  2.6414100246502771e+09  4.7299356592483578e+09  4.9967425073877020e+09  4.9384765989651785e+09  4.9736742356239748e+09  7.0725041665670288e+08  4.9950136308772554e+09  4.3738378052182016e+09  4.7822615187005148e+09  4.8708354475501919e+09  3.8815499680654454e+09  4.4940903943082170e+09  1.9257850140305188e+09  6.2928223867763484e+08  4.2970798622958059e+09  4.6278564771301270e+09  5.1286193636387324e+08  4.9929510518934021e+09  3.8147562415511389e+09  4.9388558053684320e+09  4.9983878441493549e+09  4.9234929913378153e+09  4.9260243541451464e+09  4.7905902331491537e+09  4.9895092347543192e+09  4.9834006629000387e+09  4.9805325871993055e+09  2.3463911677312284e+09  4.8759450539611835e+09  4.9890933074729328e+09  4.9962361150042801e+09  4.9738712401353970e+09  4.9337678480779552e+09  4.8552424692227764e+09  4.7659425231933336e+09  4.9897114312433004e+09  4.9498951750762386e+09  4.9918559927469015e+09  3.7632278605302353e+09  4.1896217819252191e+09  4.9832169337549982e+09  6.0435450348152137e+08  1.3219625446279869e+09  3.3702900713001337e+09  4.9226740578071690e+09  4.9580888356313076e+09  4.4218593594117737e+09  4.9978761397708311e+09  4.6197534640341206e+09  4.9802418362550449e+09  4.9981921381366920e+09  2.7550345555163255e+09  4.7477531839938660e+09  3.5902083055338187e+09  4.8753541695007744e+09  2.9584599688665299e+09  4.6002365862812567e+09  4.2549108298366776e+09  4.6890916077561045e+09  4.5479879494480505e+09  4.6078356489027710e+09  1.1138267987321630e+09  3.9149244535278673e+09  3.3544984811353006e+09  3.8424499940514207e+09  5.6420419728238893e+08  4.7624370554384460e+09  4.9963540363553286e+09  4.7785500192762794e+09  4.9594969163064728e+09  2.2002862353983932e+09  2.1166470339108837e+09  4.9225912646031961e+09  2.8439766059319377e+09  3.1187645993060863e+05  3.9442061957308583e+09  4.8782932803628550e+09  2.2248742593901601e+09  2.3919063546453123e+09  4.9064415275419188e+09  4.9975348935224781e+09  4.8434667634411964e+09  4.7536224672546768e+09  4.3179757760542860e+09  4.5453347913852100e+09  4.0753838177772293e+09  2.8670183896857705e+09  4.9984260378614578e+09  4.9851433763611984e+09  4.3774041810559969e+09  3.8503042230081439e+09  4.9390806844999447e+09  4.9626452359993649e+09  4.9873648883037052e+09  2.3711714130417404e+09  4.9775760238585787e+09  4.9862894328643055e+09  4.9748232262299471e+09  4.4743297393888054e+09  4.7408123408680820e+09  4.6555932749694662e+09  3.3633831625133405e+09  4.9925696179759960e+09  4.9914049436170759e+09  4.9418494086195803e+09  4.1630770583326955e+09  5.5142896251798952e+08  1.5570801090294712e+09  2.5803956447361531e+09  1.4436927834426193e+09  4.9968220529440794e+09  4.9662385202000513e+09  4.8495953854991999e+09  4.9970248849580660e+09  4.9972530649476137e+09  4.9935614519405918e+09  4.3521319374685755e+09  2.1466521283703542e+09  4.7650493556354942e+09  4.4874889109742661e+09  4.2699055385582185e+09  1.3020280317539256e+09  4.9982000462734156e+09  4.8559095257376890e+09  4.4473829417981157e+09  4.6338626515228252e+09  4.1888126090683885e+09  3.7965227693386593e+09  4.1288860773833613e+09  4.4464776671976309e+09  4.6351915809874716e+09  4.7672624782686148e+09  5.3665732069970608e+08  4.9456628185024824e+09  4.9654416278041286e+09  4.9680821669870081e+09  4.9888808690644932e+09  2.1538499041460347e+09  4.9475652165344019e+09  4.9595762889996462e+09  4.9524897006861143e+09  4.9200266876563168e+09  3.0669780127222958e+09  3.2718478757800684e+09  4.9895567362873135e+09  4.8609827012709961e+09  1.1272045627148587e+06  4.8561706674812393e+09  4.4220862642149353e+09  4.9972950095576153e+09  4.9748628051258917e+09  3.5514174896853609e+09  3.9219859041601181e+09  3.6694304675756760e+09  2.7781908519209876e+09  1.6481685900217569e+06  4.9868403136282187e+09  4.7059003436638470e+09  4.9981567128076782e+09  4.9149756980057840e+09  4.9782815375629387e+09  4.9862252431049509e+09  3.8060775666110988e+09  4.5082448852167358e+09  4.9449722150897169e+09  4.9209429561620007e+09  4.9543696196223402e+09  2.1334798286559589e+09  3.7733561773658104e+09  4.9981903181807470e+09  3.3292036164263320e+09  3.1246054279983478e+09  3.5729483242903852e+09  4.9984496536105671e+09  3.2753839148437581e+09  4.9918259056050129e+09  4.9061161534137039e+09  4.5263568809866505e+09  5.2916390108212644e+08  9.9753554243267596e+08  1.2612684797801964e+09  2.9513507601601672e+09  3.3207447328769183e+09  3.2893147776711411e+09  4.9982362283663998e+09  2.9879342084783754e+09  2.6605887151065326e+09  1.2680258260037680e+09  4.9291132025510845e+09  4.9954516041378279e+09  2.5722478702555490e+09  2.0300558547555170e+09  4.9962964109745445e+09  4.9972394554329767e+09  4.2355159883717813e+09  4.6830137924840784e+09  4.9747941700360842e+09  4.7393594631830740e+08  2.7728979241247320e+09  4.9983802482114944e+09  4.9981894869778929e+09  4.9974263659407053e+09  4.9802151036280422e+09  4.1366893157066150e+09  3.9037497637075109e+09  4.1329265819789157e+09  4.9537426914554806e+09  4.9981943187871065e+09  4.2971935592401323e+09  3.0584882988553748e+09  3.5616850212026668e+09  4.5644812379814568e+09  2.6854226548000102e+09  4.0410948441366358e+09  1.1366407216647010e+09  9.1270689149621701e+08  1.1705163101348064e+09  2.5777169085687699e+09  4.9974271270193510e+09  2.5617727842705302e+09  4.9968675940766296e+09  4.3103865821236258e+09  4.8717011417114811e+09  4.9746342957936382e+09  4.9645532186773777e+09  4.9738894235790958e+09  4.9835608782872858e+09  1.8098309666231163e+09  4.9946410027737627e+09  4.9982053189630804e+09  4.4413634448065481e+09  4.9474542755936718e+09  4.9614439734952202e+09  1.6024697903646402e+09  2.0749344003252506e+09  4.9966563485160980e+09  4.9972789159916162e+09  4.9952938280898247e+09  4.9984162585386486e+09  2.7087275587793508e+09  4.8482009575252590e+09  4.6166245156125441e+09  4.8806449612479866e+08  4.9965860163714790e+09  4.9337590652544699e+09  3.6375549686539454e+09  4.0825596259992709e+09  1.7508576744725349e+09  2.6117381430767293e+09  2.0755557547895203e+09  2.6421567368565764e+09  4.8447775463528366e+09  4.9707586662849865e+09  4.9981770743534222e+09  4.6454364054420786e+09  3.1656032159333344e+09  4.6151031946446550e+08  4.6912678999037516e+08  1.2953002756340435e+09  4.9706503888085690e+09  4.9882478169581919e+09  4.9921474785829668e+09  7.1551467345653847e+05  4.9984418674294615e+09  4.9906968471900024e+09  2.2692248313824873e+09  4.9944391356609516e+09  4.1953029515693612e+09  5.2121288079695497e+05  4.9928786997553930e+09  4.9890649129305382e+09  3.2493508185783935e+09  4.9106927629022474e+09  1.4547724233676968e+09  1.1005864243923154e+09  4.5978303431976109e+09  4.5375011301112738e+09  4.8734086501884317e+09  4.8127170000738043e+08  4.8158603688321314e+09  4.0575461572612233e+09  </DataArray> 
</PointData> 
</Piece>
</UnstructuredGrid>
</VTKFile>