<?xml version="1.0"?>
<VTKFile type="UnstructuredGrid"  version="0.1"  >
<UnstructuredGrid>
<Piece  NumberOfPoints="15776" NumberOfCells="31038">
<Points>
<DataArray  type="Float64"  NumberOfComponents="3"  format="ascii">-0.05 0 0  -0.05 -0.1 0  0.05 -0.1 0  0.05 0 0  0 -0.1 0  0.05 -0.05 0  0 0 0  -0.05 -0.05 0  0 -0.05 0  -0.025 -0.1 0  -0.025 0 0  -0.05 -0.025 0  0.025 -0.1 0  0.05 -0.025 0  0.025 0 0  0.025 -0.06875000000000001 0  0.025 -0.03750000000000001 0  -0.02083333333333333 -0.02916666666666667 0  -0.05 -0.07500000000000001 0  -0.02083333333333333 -0.07083333333333333 0  0.05 -0.07500000000000001 0  0.003472222222222224 -0.02569444444444444 0  0.002378144654088049 -0.07627751572327045 0  -0.02083333333333333 -0.05 0  0.03125 -0.01875 0  -0.01233019290593089 -0.08678347112328397 0  -0.0125 -0.0130952380952381 0  -0.03690476190476191 -0.03750000000000001 0  -0.03541666666666667 -0.06041666666666666 0  -0.03385416666666667 -0.01614583333333334 0  0.05 -0.08750000000000001 0  0.03750000000000001 -0.1 0  -0.03385416666666666 -0.08385416666666666 0  0.03348214285714286 -0.08348214285714287 0  0.0125 0 0  0.0125 -0.1 0  0.01719551374627341 -0.0830513925183794 0  0.01029527261028368 -0.06231463651962176 0  0.0328125 -0.05312500000000001 0  -0.01041666666666666 -0.03958333333333333 0  -0.01041666666666667 -0.06041666666666667 0  0.01470753125203114 -0.04816506250406229 0  0.01799242424242424 -0.02474747474747475 0  0.03750000000000001 -0.03125 0  0.05 -0.0625 0  0.00625 -0.01223723723723724 0  0.05 -0.0125 0  0.03750000000000001 0 0  0.03765012642225032 -0.07127449431099875 0  0.02021617032392894 -0.01201127655869035 0  0.006028532990060553 -0.03846042534778643 0  -0.05 -0.0625 0  -0.03750000000000001 0 0  -0.05 -0.03750000000000001 0  -0.0125 -0.1 0  -0.0125 0 0  -0.05 -0.0125 0  -0.03750000000000001 -0.1 0  0.05 -0.03750000000000001 0  -0.05 -0.08750000000000001 0  -0.008680555555555554 -0.02743055555555555 0  0.006250000000000001 -0.08914373740925415 0  -0.009584768711776409 -0.07507825100308022 0  -0.03268229166666667 -0.07200520833333332 0  0.03939012096774194 -0.04309475806451613 0  0.02190003906503893 -0.05743439453251947 0  -0.03834537706133037 -0.04910019455252918 0  0.01284084887861751 -0.07298400536762802 0  -0.02264613483542079 -0.0820413651645792 0  -0.02366071428571428 -0.01123511904761905 0  -0.03199404761904762 -0.02730654761904763 0  -0.0244047619047619 -0.06041666666666667 0  -0.01041666666666666 -0.05 0  -0.02083333333333332 -0.03958333333333333 0  2.405987640392848e-05 -0.0604407265430706 0  -0.002910133850527605 -0.01736173448892657 0  -0.02961483445283294 -0.04429487938443922 0  0.0390625 -0.0109375 0  0.040625 -0.021875 0  0.028125 -0.028125 0  -0.04176917540113871 -0.06803243885869564 0  0.03965658412817928 -0.06102022076500465 0  0.01533845899304755 -0.03450745320159019 0  0.02948377458963575 -0.008744075527611174 0  0.02448333984417315 -0.04800472330961902 0  -0.002638588467448458 -0.08480290334513936 0  0.01875 -0.09260679016400503 0  0.02801599660666901 -0.09111197895245939 0  0.0427726833976834 -0.08125000000000002 0  0.04010991573299855 -0.09061756875992701 0  -0.03125000000000001 -0.09292674731182796 0  -0.04078102849914793 -0.09075246902758297 0  -0.04292674731182795 -0.08125000000000002 0  -0.04292674731182796 -0.01875 0  -0.04075246902758298 -0.009218971500852071 0  -0.002501899107215252 -0.03451361758785813 0  -0.01875 -0.09331034417873318 0  -0.04137052725919914 -0.02906901041666667 0  -0.02515071191829004 -0.02065873579545455 0  -0.004560476962080258 -0.008160345583815167 0  -0.01571003401360544 -0.02162698412698413 0  -0.006250000000000001 -0.09347094524847423 0  -0.03184688459542486 -0.007177652942204195 0  -0.043423574176247 -0.05645164743293771 0  -0.002931194584325539 -0.06897337298686135 0  0.04141166808534667 -0.05159229946940671 0  0.03072628767995273 -0.06184751883997637 0  0.01331794183364191 -0.01736907532119644 0  -0.02991071428571428 -0.05329326110353833 0  0.0302193738423544 -0.07555280640245397 0  -0.02844810693838604 -0.03529440998727736 0  -0.05 -0.04375 0  0.009435764744425919 -0.08043238240966273 0  0.02057363836381549 -0.07561467685960577 0  0.025334823172674 -0.08341820123348352 0  0.005194622404326759 -0.06864849887959712 0  0.01732194592699554 -0.06627651681808928 0  0.006285662925187238 -0.05520590615175079 0  -0.01875 0 0  0.03186492887377232 -0.04533174938342453 0  -0.0008783629089698517 -0.04219661564043644 0  0.05 -0.00625 0  0.03375689409777979 -0.03792049068961304 0  0.05 -0.06875000000000001 0  0.01439721346977286 -0.05583102001882564 0  0.007184194424042271 -0.04772337119454249 0  0.01846824474048517 -0.04149541481145257 0  -0.01682300313953808 -0.07723258764373991 0  0.01091777409106017 -0.0280645394299259 0  -0.005208333333333333 -0.05520833333333334 0  -0.01562499999999999 -0.034375 0  -0.015625 -0.05520833333333333 0  -0.01562499999999999 -0.04479166666666667 0  -0.01741071428571429 -0.06383928571428571 0  -0.01017446891572471 -0.06775731747543173 0  0.02462121212121212 -0.02174873737373738 0  -0.01727537722908093 -0.007335299088771311 0  -0.04246234479210493 -0.04269936147867359 0  0.02155204304257197 -0.03095624460965786 0  0.01316725552433098 -0.00805546078058521 0  0.01875 0 0  -0.02717633928571428 -0.0671875 0  -0.02899339936689958 -0.07835247286481212 0  0.034375 -0.025 0  0.04269000268040276 -0.03649499463919448 0  0.04375 0 0  0.04375 -0.02812499999999999 0  -0.03761497647442349 -0.02322577938762476 0  0.05 -0.05625 0  -0.02487731781150031 -0.08912078797260026 0  -0.03695888676976247 -0.07756467740738612 0  0.002206599034779407 -0.006587679234291101 0  0.003888413565608712 -0.01876506087328944 0  0.04375 -0.1 0  0.05 -0.09375 0  -0.008944539808483216 -0.02059134745263918 0  -0.04331057662916364 -0.07455691519284439 0  0.0439453125 -0.0158203125 0  -0.0001289479518082485 -0.09093484953796985 0  -0.04345238095238095 -0.03556995462159739 0  -0.01996941165388946 -0.01664836497274012 0  -0.04375 -0.1 0  -0.05 -0.09375 0  -0.04375 0 0  -0.05 -0.00625 0  0.005594154517873918 -0.03190847365283561 0  0.01173248358540133 -0.04209249512146222 0  0.03419217537052396 -0.09402564429600242 0  0.01187454317038147 -0.09313287027544383 0  0.00625 -0.1 0  0.02629142191479375 -0.01446643061282435 0  0.021875 -0.005713666436405997 0  0.04321758283034931 -0.06704044172466167 0  0.03164035608931087 -0.06843232885197728 0  0.04337196116786825 -0.07463925880684733 0  0.03637679552963742 -0.07765509762578199 0  0.003626010873625676 -0.08324593924595615 0  -0.01086143623908221 -0.006877234301934964 0  0.05 -0.04375 0  0.01179919481827354 -0.08623489346281316 0  -0.01250448524457812 -0.09373974299368953 0  -0.05 -0.06875000000000001 0  -0.03125 0 0  -0.03125 -0.1 0  0.03125 0 0  0.05 -0.03125 0  -0.05 -0.03125 0  0.03125 -0.1 0  -0.00625 -0.1 0  -0.01875 -0.1 0  -0.05 -0.01875 0  0.01875 -0.1 0  -0.00625 0 0  0.00625 0 0  0.05 -0.01875 0  -0.05 -0.05625 0  -0.05 -0.08125000000000002 0  0.05 -0.08125000000000002 0  -0.005208333333333331 -0.04663513209089385 0  -0.008645094114120339 -0.03363601830115741 0  -0.01475694444444444 -0.0282986111111111 0  -0.002375017943413014 -0.02816654106277556 0  0.01949511126133643 -0.01820257885343882 0  -0.01184447766846871 -0.08072281861600734 0  -0.003534735552586339 -0.07499381884380991 0  -7.74643124966494e-05 -0.01210497681433211 0  -0.0189894669743643 -0.08708512345290294 0  -0.03573478741405032 -0.06660859450219164 0  0.04359375 -0.006406250000000002 0  0.03517259397916334 -0.00591284371726238 0  0.01965556274601837 -0.05175082112889391 0  0.0278582381998454 -0.05655080703154879 0  0.02250150625287546 -0.06335204673888746 0  -0.04398521510889171 -0.06244044890584508 0  -0.04409485128436456 -0.05055827494263457 0  -0.03770557434490081 -0.05497182533168162 0  -0.03656642640981419 -0.04343156897269072 0  0.009194419875177533 -0.02206075900562258 0  0.04451331908599852 -0.04636519166703897 0  -0.01485520520633521 -0.0715431557666749 0  0.03646473132841593 -0.0487266977067035 0  0.04405668594067944 -0.05696201317865261 0  -0.005203169869815907 -0.063408387077611 0  -0.02247505510150612 -0.07631841748069951 0  -0.02804244587606518 -0.08423194559419436 0  -0.02935822174816368 -0.01244339991380455 0  -0.03106530920251624 -0.021416390819467 0  -0.02607827560230913 -0.005825920664671352 0  -0.03361300586943999 -0.03280621050224407 0  -0.02666093500983432 -0.02972007434472025 0  0.02285652838955744 -0.08859591663874328 0  0.03188089108105607 -0.03248232675683183 0  0.004333204611837944 -0.09457186870462708 0  -0.02704324561419352 -0.07289471972323462 0  0.007922643115429704 -0.005561362357538799 0  0.0335055138043014 -0.01319301380430141 0  0.03678783220616013 -0.0177615033815196 0  -0.02428736139211932 -0.05463634003970875 0  -0.02991071428571428 -0.06211553281168236 0  0.01197199101441062 -0.06755294829741498 0  0.007340105850365504 -0.07377496925579345 0  0.0155154430127655 -0.07780260757679426 0  0.03658895737846099 -0.06574341599602251 0  -0.02410709817404581 -0.09456977129140082 0  0.01071697988857716 -0.05184278466318995 0  0.01728938824664831 -0.06065342293474459 0  -0.001242172060814776 -0.02269478175693585 0  -0.03834687844188856 -0.07228526864991387 0  0.03504935696459177 -0.08867226036471411 0  0.03924608506562968 -0.08530978616477196 0  0.04446421559415197 -0.08718473081338503 0  0.02679267124047066 -0.0428532372923227 0  -0.007808666799817795 -0.01546134924060014 0  -0.02636641232583814 -0.04890574755055194 0  -0.02267804660897878 -0.04479166666666666 0  0.03489498531895979 -0.05823382415106163 0  1.202993820196636e-05 -0.0552203632715353 0  0.005332838990544739 -0.06042849285714701 0  -0.04436969017718883 -0.02424446436705185 0  -0.01009042364871584 -0.04479166666666667 0  -0.01041666666666667 -0.05520833333333333 0  -0.015625 -0.05 0  -0.01562499999999999 -0.03958333333333334 0  -0.02083333333333332 -0.034375 0  0.04436432681906392 -0.09436432681906393 0  -0.02240513392857143 -0.06518787202380952 0  0.04537177
[...]
<PointData  Scalars="pressure"> 
<DataArray  type="Float64"  Name="pressure"  format="ascii">5.2875989021459326e+07  5.1888176350230799e+09  5.1888314122657309e+09  5.2657569227101736e+07  5.1894406677772408e+09  4.2859904373959813e+09  -5.6472296835278318e-09  4.2860016573952489e+09  4.2873296996587057e+09  5.1891463181939440e+09  3.2074490509910993e-08  2.5856419263507700e+09  5.1891698107786884e+09  2.5856359512766538e+09  -7.8299248558175129e-09  4.9049704260521698e+09  3.5725109201100869e+09  2.9443850466833348e+09  5.0179947072725964e+09  4.9471335757885008e+09  5.0179934232889585e+09  2.6480970640621676e+09  5.0376977782631626e+09  4.2868262541975574e+09  1.9990680935251205e+09  5.1458347747014990e+09  1.4251708815927274e+09  3.5720182848247132e+09  4.6879734784939909e+09  1.7391467379157431e+09  5.1499795974511223e+09  5.1889155624042740e+09  5.1227749271961250e+09  5.1194908659571772e+09  -3.9062402599169652e-08  5.1893811225249853e+09  5.1159445391299639e+09  4.7454871904994955e+09  4.4239258653378878e+09  3.7109216528670778e+09  4.6887996782752733e+09  4.1989195832380042e+09  2.5635988734003344e+09  3.1122040785640731e+09  4.7498185926510267e+09  1.3351815138007159e+09  1.3630458797115955e+09  3.1609147939225581e-08  4.9549877488021526e+09  1.3111788445566051e+09  3.6376144742632904e+09  4.7498171451688042e+09  9.5031693716544231e-09  3.5718175327696395e+09  5.1893503883756466e+09  6.2235092576886589e-08  1.3630708673389614e+09  5.1889458017832479e+09  3.5718061217600107e+09  5.1499837551969357e+09  2.7989151425675912e+09  5.1604137757273102e+09  5.0199887440330935e+09  4.9685117448096285e+09  3.9250776357205434e+09  4.5896496839517422e+09  4.2437195002348833e+09  4.9861865909105730e+09  5.1062243886543779e+09  1.2289337879037712e+09  2.7876103678588018e+09  4.6883984679163027e+09  4.2871005179362946e+09  3.7106137997188506e+09  4.6896539032887735e+09  1.8619824067382603e+09  3.9939236589978113e+09  1.1974733106559203e+09  2.2993479834617457e+09  2.8572520092934484e+09  4.8890231825293007e+09  4.7064879393269215e+09  3.3611590494912157e+09  9.6192684297096026e+08  4.1905548644246464e+09  5.1312065484299879e+09  5.1759830832770834e+09  5.1697826098415098e+09  5.0978144496489229e+09  5.1673220030377398e+09  5.1768782563214645e+09  5.1679558183439875e+09  5.0978030833855553e+09  1.9990572973403509e+09  1.0134963581625273e+09  3.3618446868247170e+09  5.1784110134487257e+09  2.9357076469812794e+09  2.1842017547425880e+09  8.9891373031367886e+08  2.2763738688353300e+09  5.1791031759377308e+09  7.9190363868002212e+08  4.5537115634020119e+09  4.9101990386614513e+09  4.3581644987161798e+09  4.7313831203568621e+09  1.8625536500531504e+09  4.4310747458291912e+09  5.0266674175988302e+09  3.4179354329609632e+09  3.9627241756528487e+09  5.0897401467376137e+09  5.0277805520276051e+09  5.1191016494176855e+09  4.9032605939288826e+09  4.8494244378614159e+09  4.5080908490586233e+09  -3.0235620761771315e-09  4.0511546886675940e+09  3.8732535891465139e+09  6.9234386161620283e+08  3.6005565349084835e+09  4.9044542183878803e+09  4.5316523290004740e+09  4.1770486832031245e+09  3.8304696119871716e+09  5.0506605500664854e+09  2.8526383412078300e+09  4.5081688971951742e+09  3.3514455694713616e+09  4.5079248898234777e+09  4.0221367718765993e+09  4.7875743744200268e+09  4.8837243121034164e+09  2.2877550269261131e+09  8.0916103535702813e+08  3.9019138119918566e+09  3.0894045847162118e+09  8.8747014686113942e+08  4.1218996012472036e-08  4.8704344881075191e+09  5.0648789264012833e+09  2.5858157481474767e+09  3.5025803176741295e+09  6.2043849351990720e-09  2.8569863902429128e+09  2.4249844240847220e+09  4.5461580728430281e+09  5.1599835077725945e+09  5.0545621406273003e+09  7.2763732541290200e+08  2.0010528927563851e+09  5.1888832468748503e+09  5.1793766535011654e+09  2.1781216811711793e+09  5.0112148360190992e+09  1.7062498477667372e+09  5.1693862691539907e+09  3.4372259794381514e+09  1.7900807779152067e+09  5.1888878011473866e+09  5.1793767163291130e+09  5.1720539199480454e-08  6.9236884551267898e+08  3.1647594559079394e+09  3.8668889262874007e+09  5.1803422804014168e+09  5.1779342992260408e+09  5.1894218765889597e+09  1.5674385087793705e+09  6.3176778732511735e+08  4.8666303642414007e+09  4.8979564313649931e+09  5.0124866428952770e+09  5.0557632701586046e+09  5.1179327267622366e+09  7.5922328532242393e+08  3.9626054057062926e+09  5.1419874772715988e+09  5.1798807656402264e+09  4.9044569843576698e+09  2.3223952945356150e-09  5.1890222413808708e+09  2.1245137713736583e-08  3.1120263506461916e+09  3.1120364816021304e+09  5.1890515745530119e+09  5.1894275152340174e+09  5.1892906916556692e+09  1.9990798095718334e+09  5.1892722465879059e+09  8.8593762006525951e-09  -2.6191294965488649e-08  1.9991282985821247e+09  4.5462281843658199e+09  5.0977625946250505e+09  5.0977493649487209e+09  4.1213530206655664e+09  3.2967964127318001e+09  2.8722478392411933e+09  2.8614350223496189e+09  1.9453571448791938e+09  5.0928625295691414e+09  5.0187829943870392e+09  1.3212846130839324e+09  5.1477513271774187e+09  4.8566657384029684e+09  7.0836545080066276e+08  6.5367358022022998e+08  4.3658476258615322e+09  4.5577280436312075e+09  4.7742964564288177e+09  4.7481906130910063e+09  4.3117805444777365e+09  4.4980341444721642e+09  3.9446881469007368e+09  2.3173604095291872e+09  4.1060886800255117e+09  4.9605814984009590e+09  4.2256601722164693e+09  4.5722084072735720e+09  4.7762357911004944e+09  5.0378737693240662e+09  5.1261095730990677e+09  1.3566444902224908e+09  2.2561718295915666e+09  6.4406221942627788e+08  3.2332043630828404e+09  2.9896111449781461e+09  5.1570755002590103e+09  3.2083756457915301e+09  5.1823029279137440e+09  4.9842989177923203e+09  6.1515125534235811e+08  1.4351679437403283e+09  1.9013820691895008e+09  4.4854115572751226e+09  4.7391960307190266e+09  4.8791500567886934e+09  4.9994642941234989e+09  5.0581876915905495e+09  4.8358374633971596e+09  5.1820360291513958e+09  4.3701262538955450e+09  4.6959677975507078e+09  2.3765799249691091e+09  4.9733522408475018e+09  5.1572754980483913e+09  5.1345812022770576e+09  5.1479766195014620e+09  3.9113817998424621e+09  1.6698008329037032e+09  4.2347082329623528e+09  4.0218399434447193e+09  4.6168805266810541e+09  4.5086471007406034e+09  4.6893175463710423e+09  2.5178167576859031e+09  4.0223274717144613e+09  4.5080468639846201e+09  4.2869785738960686e+09  3.7107572245639648e+09  3.3512631073561039e+09  5.1811871046135349e+09  4.8224812133371782e+09  3.8055819995025392e+09  4.6411054256297026e+09  3.3904282552239380e+09  2.9645405556710510e+09  3.4570994060122695e+09  4.7381674467175083e+09  5.0802618398847027e+09  5.1081541285493393e+09  3.7829580964770322e+09  4.2241171402090168e+09  3.7515440045776730e+09  5.0891430319950352e+09  5.1290593134612951e+09  3.6787937373733454e+09  4.9409268320504913e+09  2.2993210699105449e+09  3.2245526801862717e+09  2.4444854400993958e+09  2.7233342034208412e+09  5.1432451185779428e+08  5.1848414390025864e+09  5.1837209583347902e+09  1.4552191712498157e+09  1.5967896163899145e+09  1.2144730414343116e+09  1.0758495018601871e+09  5.2080942995667422e+08  4.3560462448147697e+09  4.1222436194976912e+09  5.1353059132565374e+09  5.1432021738712673e+09  5.1613488937088003e+09  4.5236100800632548e+08  4.0749851395096388e+09  5.1840658215790920e+09  9.4550528773257387e+08  2.6925685943157077e+09  4.8321653965129776e+09  1.3020034453767853e+09  5.1784823311129169e+09  5.1859430157642279e+09  5.1859125520246582e+09  5.1524545783973675e+09  5.0607044276355934e+09  5.0930370070275097e+09  5.0890576393099022e+09  2.8397999371057076e+09  2.6293024022185221e+09  3.2416247839194374e+09  1.6985045539722483e+09  1.8537974886919575e+09  2.2524327786247721e+09  5.1842386220539331e+09  5.0613078771630831e+09  1.2105330763082259e+09  3.4276301535374427e+09  5.1603349609952412e+09  5.1422597587002468e+09  3.9798620271781272e+08  5.0617138878730736e+09  3.9992426567036688e+08  3.9221743858851280e+09  1.3817045849537172e+09  7.1817663780015659e+08  4.5367893505020990e+09  4.9919151596052580e+09  5.1541953818393059e+09  4.7729250400088997e+09  2.3223726173135238e+09  3.7067677318261757e+09  5.1651172103926220e+09  4.4236046990277309e+09  2.6215294021403151e+09  2.5440717776391096e+09  1.8182683940185211e+09  1.1861572632053876e+09  5.1845426123340788e+09  4.6765751094201384e+09  3.6384116054568825e+09  5.1665252679487791e+09  4.9541189413420029e+09  4.9747970124785976e+09  4.1326113531678319e+09  4.5497386561666527e+09  4.5988526102821608e+09  3.3505862591312251e+09  2.9004556952765207e+09  5.1860795647250652e+09  4.8063046558467655e+09  1.2974228172533963e+09  5.1869691817793217e+09  4.9659046350434303e+09  4.9410447260601978e+09  5.1870432259001818e+09  5.1866197341607447e+09  4.6554503683599955e+08  4.4519597479078639e+08  3.6512122860384494e+08  2.4865530705657077e+09  3.0951850366536717e+09  3.4939674639554963e+09  4.4972737666053069e+08  4.8327571701910353e+09  5.1327609446747589e+09  4.4852063410264359e+09  4.6776278712660046e+09  4.6546153894646387e+09  2.0265579967793996e+09  5.1681862351044588e+09  4.8469984804174547e+09  5.0010088916199055e+09  4.3295463224797630e+09  5.2152038365132040e+08  5.1498046875127869e+09  3.7705278803857150e+09  4.4340582419158859e+09  4.6408301052403135e+09  3.1815028828433547e+09  3.9403596691329360e+09  1.4467147869678526e+09  4.6387002265364283e+08  3.6678825352565413e+09  4.1487323387188964e+09  3.7796370484313148e+08  5.1296925749075384e+09  3.1159881197982225e+09  4.8498475954442539e+09  5.1888679742993021e+09  4.7966279170513430e+09  4.8062311407554646e+09  4.4526991941708078e+09  4.6536176231759520e+09  5.0995282595763016e+09  5.0580472137991486e+09  5.0397296829286051e+09  1.7814678915978265e+09  5.0972228873542032e+09  5.1630622346851397e+09  5.0016039285649500e+09  4.8327735823648596e+09  4.5992125674098377e+09  4.4029582904170609e+09  5.1023806128788624e+09  4.8920331618443012e+09  5.1188222206177950e+09  3.0571531647412562e+09  3.5368522756845899e+09  5.0567278334415321e+09  4.4517708118417180e+08  9.8145473077581668e+08  2.6693122354255061e+09  4.7927808721191559e+09  4.9269917274665470e+09  3.8341995972777071e+09  5.1819568956400785e+09  4.1340671653045440e+09  5.0377689194110537e+09  5.1864839086730995e+09  2.1213761071226869e+09  4.3652440788160677e+09  2.8823637533655810e+09  4.6546159898998775e+09  2.2993128557776833e+09  4.1030090248893647e+09  3.6171243365482254e+09  4.2553147200469651e+09  4.0222946138760781e+09  4.1159626662184615e+09  8.2422413663457036e+08  3.3504917423858190e+09  3.2220722208496103e+09  2.6560241687424550e+09  3.1444233038216972e+09  4.1556801798662007e+08  4.3955943580512915e+09  5.1635881957572737e+09  4.4275290800982971e+09  4.9332615527925148e+09  1.6634697575155876e+09  1.5984436101612689e+09  4.7933412283425941e+09  2.1991378211623955e+09  4.5775209955952148e-08  3.2527725632294574e+09  4.6635458552348614e+09  1.6864458845295410e+09  1.8196684058046877e+09  4.7421682458403578e+09  5.1781438494447842e+09  4.5705136108005981e+09  4.3767641542427473e+09  3.6978185318230333e+09  4.0149223335338397e+09  3.4007722778701677e+09  2.2189945607993159e+09  5.1892066902596254e+09  5.0677055649473133e+09  3.7748595560225577e+09  3.1516006997483277e+09  4.8508849850517874e+09  4.9466887916296721e+09  5.0844787970597248e+09  1.8036854630364912e+09  5.0217888865247660e+09  5.0760842173472099e+09  5.0076391596365366e+09  3.9128215650236621e+09  4.3536765957191105e+09  4.1947833825902176e+09  2.6666430655490713e+09  5.1269826589514446e+09  5.1152854341033115e+09  4.8668970329428349e+09  3.5059380333095832e+09  4.0913358564418262e+08  1.1587796207710204e+09  1.9739522091910877e+09  1.0742918673981974e+09  4.6037751810776939e+09  5.1688145273271637e+09  4.9635335727770309e+09  5.1715674489005117e+09  5.1744916719337959e+09  5.1353077791195793e+09  3.7433788661497836e+09  1.6225497073371384e+09  4.6041779019476137e+09  3.9309460145558114e+09  3.6353737432279196e+09  9.6612015752461326e+08  5.1865419968640709e+09  3.8722781589677362e+09  4.4029683287419615e+09  4.1602507559966908e+09  3.5370132233215637e+09  3.0939360347507529e+09  3.4611854695800257e+09  3.8724836202103505e+09  4.1603520489745569e+09  4.4028210843709354e+09  3.9521940205492258e+08  4.8770185988924055e+09  4.9597454140921125e+09  4.9726204795494766e+09  5.0946816673219299e+09  1.6277674813358293e+09  4.8828940641618538e+09  4.9324949797034998e+09  4.9020346065285349e+09  4.7863490584636497e+09  2.3923585195976200e+09  2.5803704673103671e+09  5.1019700396337404e+09  4.6149005447468195e+09  2.3226878474742509e-08  4.6021313848882389e+09  3.8043366044482203e+09  5.1750906050343370e+09  5.0061491339535646e+09  2.8460997263522496e+09  3.2280624156341157e+09  2.9634883229852576e+09  2.1422763165333841e+09  4.4326369175174233e-08  5.0817281587506285e+09  4.2619695791309929e+09  5.1860026960508661e+09  4.7698067188033323e+09  5.0257458152516308e+09  5.0765865652656345e+09  3.1025429361278057e+09  4.0339866951952682e+09  4.8700158315505762e+09  4.7879730854116497e+09  4.9081147662526455e+09  1.6118780940559378e+09  3.0694571706015978e+09  5.1864902260410089e+09  2.6319219379331212e+09  2.4443400084543691e+09  2.8677687893219419e+09  5.1888685736792107e+09  2.5857456676976085e+09  5.1208222814227047e+09  4.7430421158301840e+09  3.9895534310817995e+09  3.9044416126512361e+08  9.3891822967966247e+08  9.3592063522006822e+08  2.2933451813585935e+09  2.6259611046464691e+09  2.5952444385694675e+09  5.1869258823799334e+09  2.3261004110681896e+09  2.0434957478805561e+09  9.4131220323348272e+08  4.8165479907255354e+09  5.1536695379560604e+09  1.9692519665412529e+09  1.6864461106822138e+09  5.1633457863128281e+09  5.1745817940320311e+09  4.2447654002568970e+09  3.5949383788560100e+09  5.0088407019414701e+09  3.4937690442246437e+08  2.2274763781712055e+09  5.1889565205815010e+09  5.1863984367664547e+09  5.1763510282900314e+09  5.0379176886584187e+09  3.4853783805026312e+09  3.2088194083066649e+09  3.4677402453556552e+09  4.9092512289891500e+09  5.1865294620133448e+09  3.6692480928589997e+09  2.3853106046855626e+09  4.1326025248192172e+09  2.8568379424621930e+09  4.0480976655816016e+09  2.0613750265986788e+09  3.3630628307277460e+09  8.4196401085760331e+08  6.7565938709355009e+08  8.6782507344526136e+08  2.0037044737101810e+09  5.1769912140123234e+09  1.9607169892857060e+09  5.1695192870874596e+09  3.6682322236286392e+09  4.6447442087745514e+09  5.0065336193460712e+09  4.9557638758342648e+09  5.0141776618393784e+09  5.0588131697830219e+09  1.3977778908192222e+09  5.1454363178196650e+09  5.1868548275230141e+09  3.8640978230740142e+09  4.8827776100759802e+09  4.9404213030877295e+09  1.1960774892916520e+09  1.4667647535755944e+09  5.1678638601168909e+09  5.1755147188245945e+09  5.1530269274500122e+09  5.1889709454462204e+09  2.1006285877457066e+09  4.5850944065357733e+09  1.5259918030338199e+09  3.5982659415995485e+08  4.8316930051036615e+09  2.9337837145271440e+09  3.4120137132428188e+09  1.2474460036680028e+09  2.0022328655273573e+09  1.5649016946432726e+09  2.0475368710322683e+09  4.5941887790888710e+09  4.9862574545469933e+09  4.1236211390045223e+09  5.1868613990632057e+09  4.2804311352085958e+09  2.4843606830875387e+09  3.4024208633866560e+08  3.4588079301585752e+08  9.6204730174589324e+08  4.9843600539681568e+09  5.0928846476172762e+09  5.1231636404888039e+09  1.3960624390645076e-08  5.1890844265777111e+09  5.1117345803149757e+09  1.6656622514449446e+09  5.1393426361430588e+09  3.5432497469685793e+09  -1.6969953370804727e-08  5.1292030834709501e+09  5.0979964991876974e+09  2.5207328297147913e+09  4.7550251449088516e+09  8.0211194594532478e+08  1.1007612678064845e+09  8.1575391883014166e+08  4.0052526309498720e+09  4.6021795478198748e+09  3.5529809028530169e+08  4.4992335874005365e+09  3.3810647589480896e+09  8.7872438242246211e+08  3.1048517532339150e+08  1.4944415519296789e+09  2.6593943498447642e+09  2.7728800080834703e+09  5.1750297373268270e+09  3.1181478132381792e+09  4.0529629660830135e+09  4.3722649573648605e+09  3.9418649604828987e+09  5.1867990906135559e+09  5.1175757624728575e+09  5.0836436484053326e+09  5.1781532667440157e+09  5.1798990294462252e+09  5.1869748307539015e+09  5.0181841776395302e+09  6.5262181330081024e-08  4.9658976962653389e+09  4.9658867953644762e+09  3.3505291651763954e+09  5.0616821672990227e+09  5.0617106365278244e+09  1.2912350038128229e-08  5.1893136893996305e+09  5.1893185311049194e+09  3.5062970881778270e+08  5.1894076454525423e+09  5.1893815011540794e+09  -2.2931008189591925e-08  1.0309488751005373e+09  1.0309371976970097e+09  3.5066564636460334e+08  5.1894324111486216e+09  5.1894552586243382e+09  9.3671302052391773e-09  -2.1360442383708184e-08  -5.8367168147828147e-09  5.1890885641970911e+09  2.8569235126239424e+09  4.4236054408105850e+09  4.1326190169495525e+09  3.7758531711344762e+09  1.4035827520722736e-08  5.1891950290991125e+09  5.1888981405403070e+09  -1.9186987783316069e-08  5.1888816171560192e+09  2.2993003236684756e+09  3.7758557725960259e+09  1.1910588977102805e-08  4.4236208600263996e+09  2.1894210832309829e-08  2.4728099139153570e-08  5.1672805597636576e+09  5.1269915725565023e+09  5.1673052495576267e+09  4.9061851820692682e+09  4.9405066779323511e+09  2.1239997280294104e+09  2.9728314864205475e+09  5.1252380669648275e+09  5.1557560815782442e+09  5.1657510545751553e+09  1.3056489255091732e+09  5.1858918583844347e+09  5.0663054378834162e+09  3.6431768558140869e+09  3.3514142886926064e+09  3.0551204863116336e+09  4.2542914878764033e+09  3.5358068118201098e+09  3.7945720790442157e+09  3.0526269991818523e+08  3.6684422698227992e+09  5.1261779239689054e+09  5.1862479490949364e+09  1.1515675457972803e+09  4.6630579900191641e+09  3.1258283023649750e+09  2.0788476036351478e+09  2.3814246421026540e+09  4.7064753699719372e+09  5.1015030139604063e+09  5.0651974490377188e+09  2.6082859126994190e+09  5.1522546348180313e+09  5.1870820263144531e+09  3.7773025290043001e+09  2.1161930905812080e+09  4.2509295406517849e+09  4.4796578186718025e+09  4.3100150445001841e+09  4.3447059093148623e+09  4.3760048403439589e+09  2.8085653482123995e+09  5.0854979977113142e+09  4.4034553451051483e+09  4.2352420756778622e+09  4.0497100281348152e+09  5.1525237639916267e+09  1.5565162483074884e+09  5.1802975911048660e+09  5.0233575138370247e+09  5.0075336050339851e+09  4.9694143374001579e+09  2.2799741446669588e+09  5.1207638723999491e+09  5.1616000857056608e+09  1.3605084433542631e+09  1.0727682528003771e+09  4.4527456074475679e+09  5.1605472174185839e+09  4.5067514928688240e+09  4.5494307670209026e+09  5.1515578088179283e+09  4.9612076035163612e+09  4.7766634421573248e+09  4.8227443139267931e+09  4.6556054661618624e+09  4.9080553182263651e+09  1.6565721911838009e+09  5.1681821831856632e+09  1.7450974868314252e+09  4.7721962713037815e+09  4.4542042237031164e+09  4.6210028728458748e+09  5.1871467543398380e+09  1.9791740561048667e+09  2.5382700627636619e+09  1.5320536866078684e+09  5.0747028743177128e+09  4.7771994213219442e+09  4.6924549263748646e+09  4.6989186084240570e+09  3.7641829758730226e+09  5.1586625759809408e+09  4.2757955901401873e+09  4.3249499718980932e+09  9.6485684860176539e+08  3.8492609701898026e+09  1.4386467090684984e+09  1.5203451371460953e+09  4.5407640134883375e+09  4.3791415808369179e+09  4.6019333863490105e+09  5.1778117752634792e+09  4.4872541410405750e+09  4.8397177343648624e+09  5.1876268284580708e+09  4.8843183573377876e+09  1.5823262515418940e+09  3.0265738894324579e+09  2.8978389130854230e+09  1.1979390434298682e+09  2.5313245515683131e+09  4.4951699340343504e+09  5.0054914210242615e+09  1.3892046053440483e+09  5.1327760315092535e+09  5.0293167508829136e+09  5.1396624013813591e+09  2.8421234874109977e+08  5.1392372035659904e+09  4.6032169029829092e+09  3.0876344517428002e+09  5.1463518501764841e+09  6.4984015538719785e+08  5.0541664092889328e+09  2.7011965151221710e+08  1.1852751973824058e+09  4.5988495616855001e+09  4.8128966040906782e+09  4