<?xml version="1.0"?>
<VTKFile type="UnstructuredGrid"  version="0.1"  >
<UnstructuredGrid>
<Piece  NumberOfPoints="1661" NumberOfCells="3200">
<Points>
<DataArray  type="Float64"  NumberOfComponents="3"  format="ascii">-0.25 -1 0  -0.225 -1 0  -0.2 -1 0  -0.175 -1 0  -0.15 -1 0  -0.125 -1 0  -0.1 -1 0  -0.07500000000000001 -1 0  -0.04999999999999999 -1 0  -0.02499999999999999 -1 0  0 -1 0  0.02500000000000002 -1 0  0.04999999999999999 -1 0  0.07500000000000001 -1 0  0.09999999999999998 -1 0  0.125 -1 0  0.15 -1 0  0.175 -1 0  0.2 -1 0  0.225 -1 0  0.25 -1 0  -0.25 -0.975 0  -0.225 -0.975 0  -0.2 -0.975 0  -0.175 -0.975 0  -0.15 -0.975 0  -0.125 -0.975 0  -0.1 -0.975 0  -0.07500000000000001 -0.975 0  -0.04999999999999999 -0.975 0  -0.02499999999999999 -0.975 0  0 -0.975 0  0.02500000000000002 -0.975 0  0.04999999999999999 -0.975 0  0.07500000000000001 -0.975 0  0.09999999999999998 -0.975 0  0.125 -0.975 0  0.15 -0.975 0  0.175 -0.975 0  0.2 -0.975 0  0.225 -0.975 0  0.25 -0.975 0  -0.25 -0.95 0  -0.225 -0.95 0  -0.2 -0.95 0  -0.175 -0.95 0  -0.15 -0.95 0  -0.125 -0.95 0  -0.1 -0.95 0  -0.07500000000000001 -0.95 0  -0.04999999999999999 -0.95 0  -0.02499999999999999 -0.95 0  0 -0.95 0  0.02500000000000002 -0.95 0  0.04999999999999999 -0.95 0  0.07500000000000001 -0.95 0  0.09999999999999998 -0.95 0  0.125 -0.95 0  0.15 -0.95 0  0.175 -0.95 0  0.2 -0.95 0  0.225 -0.95 0  0.25 -0.95 0  -0.25 -0.925 0  -0.225 -0.925 0  -0.2 -0.925 0  -0.175 -0.925 0  -0.15 -0.925 0  -0.125 -0.925 0  -0.1 -0.925 0  -0.07500000000000001 -0.925 0  -0.04999999999999999 -0.925 0  -0.02499999999999999 -0.925 0  0 -0.925 0  0.02500000000000002 -0.925 0  0.04999999999999999 -0.925 0  0.07500000000000001 -0.925 0  0.09999999999999998 -0.925 0  0.125 -0.925 0  0.15 -0.925 0  0.175 -0.925 0  0.2 -0.925 0  0.225 -0.925 0  0.25 -0.925 0  -0.25 -0.9 0  -0.225 -0.9 0  -0.2 -0.9 0  -0.175 -0.9 0  -0.15 -0.9 0  -0.125 -0.9 0  -0.1 -0.9 0  -0.07500000000000001 -0.9 0  -0.04999999999999999 -0.9 0  -0.02499999999999999 -0.9 0  0 -0.9 0  0.02500000000000002 -0.9 0  0.04999999999999999 -0.9 0  0.07500000000000001 -0.9 0  0.09999999999999998 -0.9 0  0.125 -0.9 0  0.15 -0.9 0  0.175 -0.9 0  0.2 -0.9 0  0.225 -0.9 0  0.25 -0.9 0  -0.25 -0.875 0  -0.225 -0.875 0  -0.2 -0.875 0  -0.175 -0.875 0  -0.15 -0.875 0  -0.125 -0.875 0  -0.1 -0.875 0  -0.07500000000000001 -0.875 0  -0.04999999999999999 -0.875 0  -0.02499999999999999 -0.875 0  0 -0.875 0  0.02500000000000002 -0.875 0  0.04999999999999999 -0.875 0  0.07500000000000001 -0.875 0  0.09999999999999998 -0.875 0  0.125 -0.875 0  0.15 -0.875 0  0.175 -0.875 0  0.2 -0.875 0  0.225 -0.875 0  0.25 -0.875 0  -0.25 -0.85 0  -0.225 -0.85 0  -0.2 -0.85 0  -0.175 -0.85 0  -0.15 -0.85 0  -0.125 -0.85 0  -0.1 -0.85 0  -0.07500000000000001 -0.85 0  -0.04999999999999999 -0.85 0  -0.02499999999999999 -0.85 0  0 -0.85 0  0.02500000000000002 -0.85 0  0.04999999999999999 -0.85 0  0.07500000000000001 -0.85 0  0.09999999999999998 -0.85 0  0.125 -0.85 0  0.15 -0.85 0  0.175 -0.85 0  0.2 -0.85 0  0.225 -0.85 0  0.25 -0.85 0  -0.25 -0.825 0  -0.225 -0.825 0  -0.2 -0.825 0  -0.175 -0.825 0  -0.15 -0.825 0  -0.125 -0.825 0  -0.1 -0.825 0  -0.07500000000000001 -0.825 0  -0.04999999999999999 -0.825 0  -0.02499999999999999 -0.825 0  0 -0.825 0  0.02500000000000002 -0.825 0  0.04999999999999999 -0.825 0  0.07500000000000001 -0.825 0  0.09999999999999998 -0.825 0  0.125 -0.825 0  0.15 -0.825 0  0.175 -0.825 0  0.2 -0.825 0  0.225 -0.825 0  0.25 -0.825 0  -0.25 -0.8 0  -0.225 -0.8 0  -0.2 -0.8 0  -0.175 -0.8 0  -0.15 -0.8 0  -0.125 -0.8 0  -0.1 -0.8 0  -0.07500000000000001 -0.8 0  -0.04999999999999999 -0.8 0  -0.02499999999999999 -0.8 0  0 -0.8 0  0.02500000000000002 -0.8 0  0.04999999999999999 -0.8 0  0.07500000000000001 -0.8 0  0.09999999999999998 -0.8 0  0.125 -0.8 0  0.15 -0.8 0  0.175 -0.8 0  0.2 -0.8 0  0.225 -0.8 0  0.25 -0.8 0  -0.25 -0.775 0  -0.225 -0.775 0  -0.2 -0.775 0  -0.175 -0.775 0  -0.15 -0.775 0  -0.125 -0.775 0  -0.1 -0.775 0  -0.07500000000000001 -0.775 0  -0.04999999999999999 -0.775 0  -0.02499999999999999 -0.775 0  0 -0.775 0  0.02500000000000002 -0.775 0  0.04999999999999999 -0.775 0  0.07500000000000001 -0.775 0  0.09999999999999998 -0.775 0  0.125 -0.775 0  0.15 -0.775 0  0.175 -0.775 0  0.2 -0.775 0  0.225 -0.775 0  0.25 -0.775 0  -0.25 -0.75 0  -0.225 -0.75 0  -0.2 -0.75 0  -0.175 -0.75 0  -0.15 -0.75 0  -0.125 -0.75 0  -0.1 -0.75 0  -0.07500000000000001 -0.75 0  -0.04999999999999999 -0.75 0  -0.02499999999999999 -0.75 0  0 -0.75 0  0.02500000000000002 -0.75 0  0.04999999999999999 -0.75 0  0.07500000000000001 -0.75 0  0.09999999999999998 -0.75 0  0.125 -0.75 0  0.15 -0.75 0  0.175 -0.75 0  0.2 -0.75 0  0.225 -0.75 0  0.25 -0.75 0  -0.25 -0.725 0  -0.225 -0.725 0  -0.2 -0.725 0  -0.175 -0.725 0  -0.15 -0.725 0  -0.125 -0.725 0  -0.1 -0.725 0  -0.07500000000000001 -0.725 0  -0.04999999999999999 -0.725 0  -0.02499999999999999 -0.725 0  0 -0.725 0  0.02500000000000002 -0.725 0  0.04999999999999999 -0.725 0  0.07500000000000001 -0.725 0  0.09999999999999998 -0.725 0  0.125 -0.725 0  0.15 -0.725 0  0.175 -0.725 0  0.2 -0.725 0  0.225 -0.725 0  0.25 -0.725 0  -0.25 -0.7 0  -0.225 -0.7 0  -0.2 -0.7 0  -0.175 -0.7 0  -0.15 -0.7 0  -0.125 -0.7 0  -0.1 -0.7 0  -0.07500000000000001 -0.7 0  -0.04999999999999999 -0.7 0  -0.02499999999999999 -0.7 0  0 -0.7 0  0.02500000000000002 -0.7 0  0.04999999999999999 -0.7 0  0.07500000000000001 -0.7 0  0.09999999999999998 -0.7 0  0.125 -0.7 0  0.15 -0.7 0  0.175 -0.7 0  0.2 -0.7 0  0.225 -0.7 0  0.25 -0.7 0  -0.25 -0.675 0  -0.225 -0.675 0  -0.2 -0.675 0  -0.175 -0.675 0  -0.15 -0.675 0  -0.125 -0.675 0  -0.1 -0.675 0  -0.07500000000000001 -0.675 0  -0.04999999999999999 -0.675 0  -0.02499999999999999 -0.675 0  0 -0.675 0  0.02500000000000002 -0.675 0  0.04999999999999999 -0.675 0  0.07500000000000001 -0.675 0  0.09999999999999998 -0.675 0  0.125 -0.675 0  0.15 -0.675 0  0.175 -0.675 0  0.2 -0.675 0  0.225 -0.675 0  0.25 -0.675 0  -0.25 -0.65 0  -0.225 -0.65 0  -0.2 -0.65 0  -0.175 -0.65 0  -0.15 -0.65 0  -0.125 -0.65 0  -0.1 -0.65 0  -0.07500000000000001 -0.65 0  -0.04999999999999999 -0.65 0  -0.02499999999999999 -0.65 0  0 -0.65 0  0.02500000000000002 -0.65 0  0.04999999999999999 -0.65 0  0.07500000000000001 -0.65 0  0.09999999999999998 -0.65 0  0.125 -0.65 0  0.15 -0.65 0  0.175 -0.65 0  0.2 -0.65 0  0.225 -0.65 0  0.25 -0.65 0  -0.25 -0.625 0  -0.225 -0.625 0  -0.2 -0.625 0  -0.175 -0.625 0  -0.15 -0.625 0  -0.125 -0.625 0  -0.1 -0.625 0  -0.07500000000000001 -0.625 0  -0.04999999999999999 -0.625 0  -0.02499999999999999 -0.625 0  0 -0.625 0  0.02500000000000002 -0.625 0  0.04999999999999999 -0.625 0  0.07500000000000001 -0.625 0  0.09999999999999998 -0.625 0  0.125 -0.625 0  0.15 -0.625 0  0.175 -0.625 0  0.2 -0.625 0  0.225 -0.625 0  0.25 -0.625 0  -0.25 -0.6 0  -0.225 -0.6 0  -0.2 -0.6 0  -0.175 -0.6 0  -0.15 -0.6 0  -0.125 -0.6 0  -0.1 -0.6 0  -0.07500000000000001 -0.6 0  -0.04999999999999999 -0.6 0  -0.02499999999999999 -0.6 0  0 -0.6 0  0.02500000000000002 -0.6 0  0.04999999999999999 -0.6 0  0.07500000000000001 -0.6 0  0.09999999999999998 -0.6 0  0.125 -0.6 0  0.15 -0.6 0  0.175 -0.6 0  0.2 -0.6 0  0.225 -0.6 0  0.25 -0.6 0  -0.25 -0.575 0  -0.225 -0.575 0  -0.2 -0.575 0  -0.175 -0.575 0  -0.15 -0.575 0  -0.125 -0.575 0  -0.1 -0.575 0  -0.07500000000000001 -0.575 0  -0.04999999999999999 -0.575 0  -0.02499999999999999 -0.575 0  0 -0.575 0  0.02500000000000002 -0.575 0  0.04999999999999999 -0.575 0  0.07500000000000001 -0.575 0  0.09999999999999998 -0.575 0  0.125 -0.575 0  0.15 -0.575 0  0.175 -0.575 0  0.2 -0.575 0  0.225 -0.575 0  0.25 -0.575 0  -0.25 -0.55 0  -0.225 -0.55 0  -0.2 -0.55 0  -0.175 -0.55 0  -0.15 -0.55 0  -0.125 -0.55 0  -0.1 -0.55 0  -0.07500000000000001 -0.55 0  -0.04999999999999999 -0.55 0  -0.02499999999999999 -0.55 0  0 -0.55 0  0.02500000000000002 -0.55 0  0.04999999999999999 -0.55 0  0.07500000000000001 -0.55 0  0.09999999999999998 -0.55 0  0.125 -0.55 0  0.15 -0.55 0  0.175 -0.55 0  0.2 -0.55 0  0.225 -0.55 0  0.25 -0.55 0  -0.25 -0.525 0  -0.225 -0.525 0  -0.2 -0.525 0  -0.175 -0.525 0  -0.15 -0.525 0  -0.125 -0.525 0  -0.1 -0.525 0  -0.07500000000000001 -0.525 0  -0.04999999999999999 -0.525 0  -0.02499999999999999 -0.525 0  0 -0.525 0  0.02500000000000002 -0.525 0  0.04999999999999999 -0.525 0  0.07500000000000001 -0.525 0  0.09999999999999998 -0.525 0  0.125 -0.525 0  0.15 -0.525 0  0.175 -0.525 0  0.2 -0.525 0  0.225 -0.525 0  0.25 -0.525 0  -0.25 -0.5 0  -0.225 -0.5 0  -0.2 -0.5 0  -0.175 -0.5 0  -0.15 -0.5 0  -0.125 -0.5 0  -0.1 -0.5 0  -0.07500000000000001 -0.5 0  -0.04999999999999999 -0.5 0  -0.02499999999999999 -0.5 0  0 -0.5 0  0.02500000000000002 -0.5 0  0.04999999999999999 -0.5 0  0.07500000000000001 -0.5 0  0.09999999999999998 -0.5 0  0.125 -0.5 0  0.15 -0.5 0  0.175 -0.5 0  0.2 -0.5 0  0.225 -0.5 0  0.25 -0.5 0  -0.25 -0.475 0  -0.225 -0.475 0  -0.2 -0.475 0  -0.175 -0.475 0  -0.15 -0.475 0  -0.125 -0.475 0  -0.1 -0.475 0  -0.07500000000000001 -0.475 0  -0.04999999999999999 -0.475 0  -0.02499999999999999 -0.475 0  0 -0.475 0  0.02500000000000002 -0.475 0  0.04999999999999999 -0.475 0  0.07500000000000001 -0.475 0  0.09999999999999998 -0.475 0  0.125 -0.475 0  0.15 -0.475 0  0.175 -0.475 0  0.2 -0.475 0  0.225 -0.475 0  0.25 -0.475 0  -0.25 -0.45 0  -0.225 -0.45 0  -0.2 -0.45 0  -0.175 -0.45 0  -0.15 -0.45 0  -0.125 -0.45 0  -0.1 -0.45 0  -0.07500000000000001 -0.45 0  -0.04999999999999999 -0.45 0  -0.02499999999999999 -0.45 0  0 -0.45 0  0.02500000000000002 -0.45 0  0.04999999999999999 -0.45 0  0.07500000000000001 -0.45 0  0.09999999999999998 -0.45 0  0.125 -0.45 0  0.15 -0.45 0  0.175 -0.45 0  0.2 -0.45 0  0.225 -0.45 0  0.25 -0.45 0  -0.25 -0.425 0  -0.225 -0.425 0  -0.2 -0.425 0  -0.175 -0.425 0  -0.15 -0.425 0  -0.125 -0.425 0  -0.1 -0.425 0  -0.07500000000000001 -0.425 0  -0.04999999999999999 -0.425 0  -0.02499999999999999 -0.425 0  0 -0.425 0  0.02500000000000002 -0.425 0  0.04999999999999999 -0.425 0  0.07500000000000001 -0.425 0  0.
[...]
<PointData  Scalars="pressure"> 
<DataArray  type="Float64"  Name="pressure"  format="ascii">1.0848320399744783e+06  1.0848320399744771e+06  1.0848320399744781e+06  1.0848320399744781e+06  1.0848320399744760e+06  1.0848320399744718e+06  1.0848320399744681e+06  1.0848320399744706e+06  1.0848320399744743e+06  1.0848320399744781e+06  1.0848320399744825e+06  1.0848320399744844e+06  1.0848320399744869e+06  1.0848320399744911e+06  1.0848320399745011e+06  1.0848320399744895e+06  1.0848320399744844e+06  1.0848320399744816e+06  1.0848320399744795e+06  1.0848320399744781e+06  1.0848320399744774e+06  1.0839956737867543e+06  1.0839956737867543e+06  1.0839956737867550e+06  1.0839956737867547e+06  1.0839956737867522e+06  1.0839956737867489e+06  1.0839956737867426e+06  1.0839956737867487e+06  1.0839956737867519e+06  1.0839956737867547e+06  1.0839956737867582e+06  1.0839956737867624e+06  1.0839956737867638e+06  1.0839956737867666e+06  1.0839956737867668e+06  1.0839956737867647e+06  1.0839956737867610e+06  1.0839956737867573e+06  1.0839956737867573e+06  1.0839956737867561e+06  1.0839956737867547e+06  1.0814878648396265e+06  1.0814878648396262e+06  1.0814878648396267e+06  1.0814878648396283e+06  1.0814878648396239e+06  1.0814878648396211e+06  1.0814878648396179e+06  1.0814878648396209e+06  1.0814878648396251e+06  1.0814878648396276e+06  1.0814878648396300e+06  1.0814878648396358e+06  1.0814878648396351e+06  1.0814878648396374e+06  1.0814878648396388e+06  1.0814878648396346e+06  1.0814878648396335e+06  1.0814878648396304e+06  1.0814878648396293e+06  1.0814878648396302e+06  1.0814878648396290e+06  1.0773124799927175e+06  1.0773124799927177e+06  1.0773124799927177e+06  1.0773124799927175e+06  1.0773124799927149e+06  1.0773124799927135e+06  1.0773124799927103e+06  1.0773124799927159e+06  1.0773124799927196e+06  1.0773124799927219e+06  1.0773124799927264e+06  1.0773124799927287e+06  1.0773124799927303e+06  1.0773124799927324e+06  1.0773124799927315e+06  1.0773124799927310e+06  1.0773124799927289e+06  1.0773124799927287e+06  1.0773124799927284e+06  1.0773124799927271e+06  1.0773124799927275e+06  1.0714759573868248e+06  1.0714759573868269e+06  1.0714759573868185e+06  1.0714759573868224e+06  1.0714759573868192e+06  1.0714759573868206e+06  1.0714759573868287e+06  1.0714759573868297e+06  1.0714759573868315e+06  1.0714759573868345e+06  1.0714759573868401e+06  1.0714759573868427e+06  1.0714759573868439e+06  1.0714759573868464e+06  1.0714759573868483e+06  1.0714759573868483e+06  1.0714759573868457e+06  1.0714759573868443e+06  1.0714759573868434e+06  1.0714759573868420e+06  1.0714759573868439e+06  1.0639872965167679e+06  1.0639872965167665e+06  1.0639872965167665e+06  1.0639872965167649e+06  1.0639872965167675e+06  1.0639872965167684e+06  1.0639872965167707e+06  1.0639872965167770e+06  1.0639872965167803e+06  1.0639872965167835e+06  1.0639872965167856e+06  1.0639872965167877e+06  1.0639872965167926e+06  1.0639872965167966e+06  1.0639872965168003e+06  1.0639872965167987e+06  1.0639872965167987e+06  1.0639872965167952e+06  1.0639872965167940e+06  1.0639872965167987e+06  1.0639872965167984e+06  1.0548580443548192e+06  1.0548580443548204e+06  1.0548580443548262e+06  1.0548580443548230e+06  1.0548580443548230e+06  1.0548580443548262e+06  1.0548580443548183e+06  1.0548580443548425e+06  1.0548580443548427e+06  1.0548580443548448e+06  1.0548580443548341e+06  1.0548580443548481e+06  1.0548580443548495e+06  1.0548580443548569e+06  1.0548580443548653e+06  1.0548580443548595e+06  1.0548580443548625e+06  1.0548580443548560e+06  1.0548580443548539e+06  1.0548580443548542e+06  1.0548580443548551e+06  1.0441022775461157e+06  1.0441022775461172e+06  1.0441022775461166e+06  1.0441022775461187e+06  1.0441022775461213e+06  1.0441022775461250e+06  1.0441022775461279e+06  1.0441022775461375e+06  1.0441022775461482e+06  1.0441022775461480e+06  1.0441022775461492e+06  1.0441022775461520e+06  1.0441022775461560e+06  1.0441022775461609e+06  1.0441022775461589e+06  1.0441022775461639e+06  1.0441022775461640e+06  1.0441022775461614e+06  1.0441022775461561e+06  1.0441022775461548e+06  1.0441022775461545e+06  1.0317365807034697e+06  1.0317365807034813e+06  1.0317365807034664e+06  1.0317365807034818e+06  1.0317365807034879e+06  1.0317365807034947e+06  1.0317365807035017e+06  1.0317365807035069e+06  1.0317365807035122e+06  1.0317365807035196e+06  1.0317365807035211e+06  1.0317365807035248e+06  1.0317365807035267e+06  1.0317365807035329e+06  1.0317365807035343e+06  1.0317365807035347e+06  1.0317365807035323e+06  1.0317365807035300e+06  1.0317365807035282e+06  1.0317365807035262e+06  1.0317365807035225e+06  1.0177800208351531e+06  1.0177800208351508e+06  1.0177800208351517e+06  1.0177800208351550e+06  1.0177800208351635e+06  1.0177800208351718e+06  1.0177800208351813e+06  1.0177800208351881e+06  1.0177800208351917e+06  1.0177800208351973e+06  1.0177800208352060e+06  1.0177800208352085e+06  1.0177800208352134e+06  1.0177800208352200e+06  1.0177800208352284e+06  1.0177800208352228e+06  1.0177800208352171e+06  1.0177800208352098e+06  1.0177800208352195e+06  1.0177800208352079e+06  1.0177800208352155e+06  1.0022541179448710e+06  1.0022541179448696e+06  1.0022541179448720e+06  1.0022541179448719e+06  1.0022541179448770e+06  1.0022541179448848e+06  1.0022541179448989e+06  1.0022541179449057e+06  1.0022541179449129e+06  1.0022541179449150e+06  1.0022541179449225e+06  1.0022541179449264e+06  1.0022541179449363e+06  1.0022541179449448e+06  1.0022541179449578e+06  1.0022541179449535e+06  1.0022541179449419e+06  1.0022541179449428e+06  1.0022541179449349e+06  1.0022541179449382e+06  1.0022541179449415e+06  9.8518281184954359e+05  9.8518281184954417e+05  9.8518281184954534e+05  9.8518281184954627e+05  9.8518281184955023e+05  9.8518281184955488e+05  9.8518281184956082e+05  9.8518281184956699e+05  9.8518281184957456e+05  9.8518281184957991e+05  9.8518281184958329e+05  9.8518281184960040e+05  9.8518281184961367e+05  9.8518281184962858e+05  9.8518281184964080e+05  9.8518281184963766e+05  9.8518281184964068e+05  9.8518281184962613e+05  9.8518281184962392e+05  9.8518281184962264e+05  9.8518281184962392e+05  9.6659242526582512e+05  9.6659242526582011e+05  9.6659242526582035e+05  9.6659242526582291e+05  9.6659242526581942e+05  9.6659242526582675e+05  9.6659242526582815e+05  9.6659242526583653e+05  9.6659242526584200e+05  9.6659242526585108e+05  9.6659242526585807e+05  9.6659242526587320e+05  9.6659242526589218e+05  9.6659242526590778e+05  9.6659242526592163e+05  9.6659242526592209e+05  9.6659242526591732e+05  9.6659242526591162e+05  9.6659242526590929e+05  9.6659242526590661e+05  9.6659242526590812e+05  9.4651162322235177e+05  9.4651162322235177e+05  9.4651162322235387e+05  9.4651162322234723e+05  9.4651162322234316e+05  9.4651162322235422e+05  9.4651162322235608e+05  9.4651162322236469e+05  9.4651162322236586e+05  9.4651162322237459e+05  9.4651162322238600e+05  9.4651162322239520e+05  9.4651162322241743e+05  9.4651162322243513e+05  9.4651162322245701e+05  9.4651162322245480e+05  9.4651162322245340e+05  9.4651162322244933e+05  9.4651162322245073e+05  9.4651162322244677e+05  9.4651162322244863e+05  9.2497136886040517e+05  9.2497136886040331e+05  9.2497136886039877e+05  9.2497136886039772e+05  9.2497136886039423e+05  9.2497136886040273e+05  9.2497136886041332e+05  9.2497136886041833e+05  9.2497136886041646e+05  9.2497136886042182e+05  9.2497136886043265e+05  9.2497136886044440e+05  9.2497136886045383e+05  9.2497136886047816e+05  9.2497136886050180e+05  9.2497136886050296e+05  9.2497136886050785e+05  9.2497136886050878e+05  9.2497136886050692e+05  9.2497136886050971e+05  9.2497136886050983e+05  9.0200487569093565e+05  9.0200487569093343e+05  9.0200487569092959e+05  9.0200487569092307e+05  9.0200487569092598e+05  9.0200487569092750e+05  9.0200487569094019e+05  9.0200487569094263e+05  9.0200487569094554e+05  9.0200487569095870e+05  9.0200487569096230e+05  9.0200487569096428e+05  9.0200487569097336e+05  9.0200487569099583e+05  9.0200487569102168e+05  9.0200487569103204e+05  9.0200487569104112e+05  9.0200487569104321e+05  9.0200487569104775e+05  9.0200487569104810e+05  9.0200487569105031e+05  8.7764755638178042e+05  8.7764755638177390e+05  8.7764755638176342e+05  8.7764755638176820e+05  8.7764755638176552e+05  8.7764755638176680e+05  8.7764755638177670e+05  8.7764755638177868e+05  8.7764755638178228e+05  8.7764755638179393e+05  8.7764755638179858e+05  8.7764755638180452e+05  8.7764755638180999e+05  8.7764755638182687e+05  8.7764755638185132e+05  8.7764755638186180e+05  8.7764755638187297e+05  8.7764755638187809e+05  8.7764755638188415e+05  8.7764755638188275e+05  8.7764755638188554e+05  8.5193696815385250e+05  8.5193696815385064e+05  8.5193696815384785e+05  8.5193696815384470e+05  8.5193696815384110e+05  8.5193696815383667e+05  8.5193696815384261e+05  8.5193696815384750e+05  8.5193696815385402e+05  8.5193696815385961e+05  8.5193696815387229e+05  8.5193696815387264e+05  8.5193696815387928e+05  8.5193696815389302e+05  8.5193696815390280e+05  8.5193696815392631e+05  8.5193696815393784e+05  8.5193696815394785e+05  8.5193696815394599e+05  8.5193696815394121e+05  8.5193696815395367e+05  8.2491275487065897e+05  8.2491275487065979e+05  8.2491275487065199e+05  8.2491275487064512e+05  8.2491275487064535e+05  8.2491275487064174e+05  8.2491275487062405e+05  8.2491275487062754e+05  8.2491275487064465e+05  8.2491275487064838e+05  8.2491275487065630e+05  8.2491275487066631e+05  8.2491275487067190e+05  8.2491275487068691e+05  8.2491275487071474e+05  8.2491275487071846e+05  8.2491275487072300e+05  8.2491275487072428e+05  8.2491275487073080e+05  8.2491275487071893e+05  8.2491275487072172e+05  7.9661658591032808e+05  7.9661658591032785e+05  7.9661658591032028e+05  7.9661658591031446e+05  7.9661658591029746e+05  7.9661658591029665e+05  7.9661658591027895e+05  7.9661658591028291e+05  7.9661658591029223e+05  7.9661658591029642e+05  7.9661658591030852e+05  7.9661658591032249e+05  7.9661658591033809e+05  7.9661658591034985e+05  7.9661658591036778e+05  7.9661658591037337e+05  7.9661658591036883e+05  7.9661658591037197e+05  7.9661658591037185e+05  7.9661658591037069e+05  7.9661658591037220e+05  7.6709209191443620e+05  7.6709209191443434e+05  7.6709209191442491e+05  7.6709209191441385e+05  7.6709209191439941e+05  7.6709209191439324e+05  7.6709209191438102e+05  7.6709209191438300e+05  7.6709209191438905e+05  7.6709209191440535e+05  7.6709209191442048e+05  7.6709209191443527e+05  7.6709209191445308e+05  7.6709209191446647e+05  7.6709209191448579e+05  7.6709209191447624e+05  7.6709209191447299e+05  7.6709209191446763e+05  7.6709209191446227e+05  7.6709209191446460e+05  7.6709209191446390e+05  7.3638479751273815e+05  7.3638479751273338e+05  7.3638479751272860e+05  7.3638479751272674e+05  7.3638479751272115e+05  7.3638479751271207e+05  7.3638479751268902e+05  7.3638479751270346e+05  7.3638479751271196e+05  7.3638479751272220e+05  7.3638479751273687e+05  7.3638479751275165e+05  7.3638479751276819e+05  7.3638479751278367e+05  7.3638479751279706e+05  7.3638479751278437e+05  7.3638479751277296e+05  7.3638479751276388e+05  7.3638479751276586e+05  7.3638479751276039e+05  7.3638479751275945e+05  7.0454205112751282e+05  7.0454205112750526e+05  7.0454205112749897e+05  7.0454205112750910e+05  7.0454205112750502e+05  7.0454205112749105e+05  7.0454205112747522e+05  7.0454205112748267e+05  7.0454205112749245e+05  7.0454205112750013e+05  7.0454205112751748e+05  7.0454205112753599e+05  7.0454205112754460e+05  7.0454205112755985e+05  7.0454205112757289e+05  7.0454205112756952e+05  7.0454205112755299e+05  7.0454205112754880e+05  7.0454205112754856e+05  7.0454205112754391e+05  7.0454205112754705e+05  6.7161295196565916e+05  6.7161295196566067e+05  6.7161295196566288e+05  6.7161295196566253e+05  6.7161295196565916e+05  6.7161295196565683e+05  6.7161295196566277e+05  6.7161295196565893e+05  6.7161295196565706e+05  6.7161295196567278e+05  6.7161295196568291e+05  6.7161295196569967e+05  6.7161295196572051e+05  6.7161295196573227e+05  6.7161295196573180e+05  6.7161295196573599e+05  6.7161295196573157e+05  6.7161295196572202e+05  6.7161295196571876e+05  6.7161295196571108e+05  6.7161295196571015e+05  6.3764827431133960e+05  6.3764827431136172e+05  6.3764827431135648e+05  6.3764827431136183e+05  6.3764827431135543e+05  6.3764827431137441e+05  6.3764827431138174e+05  6.3764827431138337e+05  6.3764827431138419e+05  6.3764827431139082e+05  6.3764827431140281e+05  6.3764827431141504e+05  6.3764827431144158e+05  6.3764827431145788e+05  6.3764827431146067e+05  6.3764827431145974e+05  6.3764827431144845e+05  6.3764827431144775e+05  6.3764827431144170e+05  6.3764827431143448e+05  6.3764827431143657e+05  6.0270038923574425e+05  6.0270038923574635e+05  6.0270038923574251e+05  6.0270038923574332e+05  6.0270038923574705e+05  6.0270038923576334e+05  6.0270038923577021e+05  6.0270038923577685e+05  6.0270038923579000e+05  6.0270038923579000e+05  6.0270038923578861e+05  6.0270038923581736e+05  6.0270038923583995e+05  6.0270038923586346e+05  6.0270038923588197e+05  6.0270038923587080e+05  6.0270038923587324e+05  6.0270038923585636e+05  6.0270038923585927e+05  6.0270038923584111e+05  6.0270038923584705e+05  5.6682318384451757e+05  5.6682318384451757e+05  5.6682318384451978e+05  5.6682318384451699e+05  5.6682318384453328e+05  5.6682318384453934e+05  5.6682318384454830e+05  5.6682318384456285e+05  5.6682318384457566e+05  5.6682318384458090e+05  5.6682318384458870e+05  5.6682318384460511e+05  5.6682318384462059e+05  5.6682318384464702e+05  5.6682318384467775e+05  5.6682318384466600e+05  5.6682318384465855e+05  5.6682318384463887e+05  5.6682318384464225e+05  5.6682318384464749e+05  5.6682318384465110e+05  5.3007197818796872e+05  5.3007197818797175e+05  5.3007197818796826e+05  5.3007197818797268e+05  5.3007197818796907e+05  5.3007197818798106e+05  5.3007197818800132e+05  5.3007197818801331e+05  5.3007197818802588e+05  5.3007197818803263e+05  5.3007197818805650e+05  5.3007197818806081e+05  5.3007197818807757e+05  5.3007197818810598e+05  5.3007197818814393e+05  5.3007197818813578e+05  5.3007197818811086e+05  5.3007197818811424e+05  5.3007197818810982e+05  5.3007197818811110e+05  5.3007197818810889e+05  4.9250343996146432e+05  4.9250343996145338e+05  4.9250343996145518e+05  4.9250343996144395e+05  4.9250343996144109e+05  4.9250343996147136e+05  4.9250343996147538e+05  4.9250343996148638e+05  4.9250343996148795e+05  4.9250343996150588e+05  4.9250343996152526e+05  4.9250343996153102e+05  4.9250343996155245e+05  4.9250343996160192e+05  4.9250343996164971e+05  4.9250343996163312e+05  4.9250343996163184e+05  4.9250343996160931e+05  4.9250343996159767e+05  4.9250343996159505e+05  4.9250343996158434e+05  4.5417549712787615e+05  4.5417549712788092e+05  4.5417549712787679e+05  4.5417549712786957e+05  4.5417549712787697e+05  4.5417549712788756e+05  4.5417549712790066e+05  4.5417549712790252e+05  4.5417549712791672e+05  4.5417549712793686e+05  4.5417549712795968e+05  4.5417549712796771e+05  4.5417549712798768e+05  4.5417549712802976e+05  4.5417549712807965e+05  4.5417549712806428e+05  4.5417549712804827e+05  4.5417549712803139e+05  4.5417549712801265e+05  4.5417549712800613e+05  4.5417549712800980e+05  4.1514724859703070e+05  4.1514724859703629e+05  4.1514724859702436e+05  4.1514724859703518e+05  4.1514724859703006e+05  4.1514724859703938e+05  4.1514724859704968e+05  4.1514724859705905e+05  4.1514724859708193e+05  4.1514724859710212e+05  4.1514724859711330e+05  4.1514724859713152e+05  4.1514724859716045e+05  4.1514724859718379e+05  4.1514724859721877e+05  4.1514724859721016e+05  4.1514724859718519e+05  4.1514724859717023e+05  4.1514724859716231e+05  4.1514724859715748e+05  4.1514724859715591e+05  3.7547887309933925e+05  3.7547887309933582e+05  3.7547887309933291e+05  3.7547887309933809e+05  3.7547887309932878e+05  3.7547887309933640e+05  3.7547887309933332e+05  3.7547887309935031e+05  3.7547887309936067e+05  3.7547887309937592e+05  3.7547887309938698e+05  3.7547887309941009e+05  3.7547887309943454e+05  3.7547887309946131e+05  3.7547887309948372e+05  3.7547887309946201e+05  3.7547887309944996e+05  3.7547887309942942e+05  3.7547887309942208e+05  3.7547887309941131e+05  3.7547887309941527e+05  3.3523153639456659e+05  3.3523153639456711e+05  3.3523153639456822e+05  3.3523153639457480e+05  3.3523153639457596e+05  3.3523153639457480e+05  3.3523153639456717e+05  3.3523153639456950e+05  3.3523153639458079e+05  3.3523153639458836e+05  3.3523153639459045e+05  3.3523153639462031e+05  3.3523153639463987e+05  3.3523153639466997e+05  3.3523153639469366e+05  3.3523153639465803e+05  3.3523153639463813e+05  3.3523153639462579e+05  3.3523153639461647e+05  3.3523153639460605e+05  3.3523153639460745e+05  2.9446729695873387e+05  2.9446729695874086e+05  2.9446729695874063e+05  2.9446729695873772e+05  2.9446729695874290e+05  2.9446729695873958e+05  2.9446729695873999e+05  2.9446729695873446e+05  2.9446729695873469e+05  2.9446729695874295e+05  2.9446729695875489e+05  2.9446729695875914e+05  2.9446729695877968e+05  2.9446729695879895e+05  2.9446729695881117e+05  2.9446729695880570e+05  2.9446729695877736e+05  2.9446729695876461e+05  2.9446729695874715e+05  2.9446729695874895e+05  2.9446729695875506e+05  2.5324901029441765e+05  2.5324901029441861e+05  2.5324901029441098e+05  2.5324901029440825e+05  2.5324901029440804e+05  2.5324901029440243e+05  2.5324901029441840e+05  2.5324901029440059e+05  2.5324901029439582e+05  2.5324901029440109e+05  2.5324901029442338e+05  2.5324901029443115e+05  2.5324901029442810e+05  2.5324901029443723e+05  2.5324901029443456e+05  2.5324901029442620e+05  2.5324901029441293e+05  2.5324901029440310e+05  2.5324901029440732e+05  2.5324901029440100e+05  2.5324901029439789e+05  2.1164023201206810e+05  2.1164023201206845e+05  2.1164023201207977e+05  2.1164023201206082e+05  2.1164023201204778e+05  2.1164023201205200e+05  2.1164023201204930e+05  2.1164023201203893e+05  2.1164023201202936e+05  2.1164023201205072e+05  2.1164023201206370e+05  2.1164023201205136e+05  2.1164023201203890e+05  2.1164023201204150e+05  2.1164023201204545e+05  2.1164023201204665e+05  2.1164023201203346e+05  2.1164023201204219e+05  2.1164023201204586e+05  2.1164023201203576e+05  2.1164023201204467e+05  1.6970511983194842e+05  1.6970511983194450e+05  1.6970511983194316e+05  1.6970511983192831e+05  1.6970511983191787e+05  1.6970511983192043e+05  1.6970511983191897e+05  1.6970511983191676e+05  1.6970511983190835e+05  1.6970511983191548e+05  1.6970511983190800e+05  1.6970511983189607e+05  1.6970511983188751e+05  1.6970511983188312e+05  1.6970511983190151e+05  1.6970511983189397e+05  1.6970511983188280e+05  1.6970511983188690e+05  1.6970511983189519e+05  1.6970511983189726e+05  1.6970511983190454e+05  1.2750833465750983e+05  1.2750833465751004e+05  1.2750833465749926e+05  1.2750833465749009e+05  1.2750833465747624e+05  1.2750833465748398e+05  1.2750833465749169e+05  1.2750833465748008e+05  1.2750833465747315e+05  1.2750833465746080e+05  1.2750833465745680e+05  1.2750833465745233e+05  1.2750833465743123e+05  1.2750833465743356e+05  1.2750833465744428e+05  1.2750833465744155e+05  1.2750833465744107e+05  1.2750833465744126e+05  1.2750833465744970e+05  1.2750833465743938e+05  1.2750833465744220e+05  8.5114940873012674e+04  8.5114940873016705e+04  8.5114940873028187e+04  8.5114940873001658e+04  8.5114940872982232e+04  8.5114940873002677e+04  8.5114940873009400e+04  8.5114940873001673e+04  8.5114940872994703e+04  8.5114940872981853e+04  8.5114940872984123e+04  8.5114940872970838e+04  8.5114940872964231e+04  8.5114940872961000e+04  8.5114940872958614e+04  8.5114940872972598e+04  8.5114940872967491e+04  8.5114940872953171e+04  8.5114940872943233e+04  8.5114940872941515e+04  8.5114940872960389e+04  4.2590306018952753e+04  4.2590306018949552e+04  4.2590306018951494e+04  4.2590306018931413e+04  4.2590306018924501e+04  4.2590306018945143e+04  4.2590306018950774e+04  4.2590306018948264e+04  4.2590306018934163e+04  4.2590306018939111e+04  4.259030601