<?xml version="1.0"?>
<VTKFile type="UnstructuredGrid"  version="0.1"  >
<UnstructuredGrid>
<Piece  NumberOfPoints="431" NumberOfCells="800">
<Points>
<DataArray  type="Float64"  NumberOfComponents="3"  format="ascii">-0.25 -1 0  -0.2 -1 0  -0.15 -1 0  -0.1 -1 0  -0.04999999999999999 -1 0  0 -1 0  0.04999999999999999 -1 0  0.09999999999999998 -1 0  0.15 -1 0  0.2 -1 0  0.25 -1 0  -0.25 -0.95 0  -0.2 -0.95 0  -0.15 -0.95 0  -0.1 -0.95 0  -0.04999999999999999 -0.95 0  0 -0.95 0  0.04999999999999999 -0.95 0  0.09999999999999998 -0.95 0  0.15 -0.95 0  0.2 -0.95 0  0.25 -0.95 0  -0.25 -0.9 0  -0.2 -0.9 0  -0.15 -0.9 0  -0.1 -0.9 0  -0.04999999999999999 -0.9 0  0 -0.9 0  0.04999999999999999 -0.9 0  0.09999999999999998 -0.9 0  0.15 -0.9 0  0.2 -0.9 0  0.25 -0.9 0  -0.25 -0.85 0  -0.2 -0.85 0  -0.15 -0.85 0  -0.1 -0.85 0  -0.04999999999999999 -0.85 0  0 -0.85 0  0.04999999999999999 -0.85 0  0.09999999999999998 -0.85 0  0.15 -0.85 0  0.2 -0.85 0  0.25 -0.85 0  -0.25 -0.8 0  -0.2 -0.8 0  -0.15 -0.8 0  -0.1 -0.8 0  -0.04999999999999999 -0.8 0  0 -0.8 0  0.04999999999999999 -0.8 0  0.09999999999999998 -0.8 0  0.15 -0.8 0  0.2 -0.8 0  0.25 -0.8 0  -0.25 -0.75 0  -0.2 -0.75 0  -0.15 -0.75 0  -0.1 -0.75 0  -0.04999999999999999 -0.75 0  0 -0.75 0  0.04999999999999999 -0.75 0  0.09999999999999998 -0.75 0  0.15 -0.75 0  0.2 -0.75 0  0.25 -0.75 0  -0.25 -0.7 0  -0.2 -0.7 0  -0.15 -0.7 0  -0.1 -0.7 0  -0.04999999999999999 -0.7 0  0 -0.7 0  0.04999999999999999 -0.7 0  0.09999999999999998 -0.7 0  0.15 -0.7 0  0.2 -0.7 0  0.25 -0.7 0  -0.25 -0.65 0  -0.2 -0.65 0  -0.15 -0.65 0  -0.1 -0.65 0  -0.04999999999999999 -0.65 0  0 -0.65 0  0.04999999999999999 -0.65 0  0.09999999999999998 -0.65 0  0.15 -0.65 0  0.2 -0.65 0  0.25 -0.65 0  -0.25 -0.6 0  -0.2 -0.6 0  -0.15 -0.6 0  -0.1 -0.6 0  -0.04999999999999999 -0.6 0  0 -0.6 0  0.04999999999999999 -0.6 0  0.09999999999999998 -0.6 0  0.15 -0.6 0  0.2 -0.6 0  0.25 -0.6 0  -0.25 -0.55 0  -0.2 -0.55 0  -0.15 -0.55 0  -0.1 -0.55 0  -0.04999999999999999 -0.55 0  0 -0.55 0  0.04999999999999999 -0.55 0  0.09999999999999998 -0.55 0  0.15 -0.55 0  0.2 -0.55 0  0.25 -0.55 0  -0.25 -0.5 0  -0.2 -0.5 0  -0.15 -0.5 0  -0.1 -0.5 0  -0.04999999999999999 -0.5 0  0 -0.5 0  0.04999999999999999 -0.5 0  0.09999999999999998 -0.5 0  0.15 -0.5 0  0.2 -0.5 0  0.25 -0.5 0  -0.25 -0.45 0  -0.2 -0.45 0  -0.15 -0.45 0  -0.1 -0.45 0  -0.04999999999999999 -0.45 0  0 -0.45 0  0.04999999999999999 -0.45 0  0.09999999999999998 -0.45 0  0.15 -0.45 0  0.2 -0.45 0  0.25 -0.45 0  -0.25 -0.4 0  -0.2 -0.4 0  -0.15 -0.4 0  -0.1 -0.4 0  -0.04999999999999999 -0.4 0  0 -0.4 0  0.04999999999999999 -0.4 0  0.09999999999999998 -0.4 0  0.15 -0.4 0  0.2 -0.4 0  0.25 -0.4 0  -0.25 -0.35 0  -0.2 -0.35 0  -0.15 -0.35 0  -0.1 -0.35 0  -0.04999999999999999 -0.35 0  0 -0.35 0  0.04999999999999999 -0.35 0  0.09999999999999998 -0.35 0  0.15 -0.35 0  0.2 -0.35 0  0.25 -0.35 0  -0.25 -0.3 0  -0.2 -0.3 0  -0.15 -0.3 0  -0.1 -0.3 0  -0.04999999999999999 -0.3 0  0 -0.3 0  0.04999999999999999 -0.3 0  0.09999999999999998 -0.3 0  0.15 -0.3 0  0.2 -0.3 0  0.25 -0.3 0  -0.25 -0.25 0  -0.2 -0.25 0  -0.15 -0.25 0  -0.1 -0.25 0  -0.04999999999999999 -0.25 0  0 -0.25 0  0.04999999999999999 -0.25 0  0.09999999999999998 -0.25 0  0.15 -0.25 0  0.2 -0.25 0  0.25 -0.25 0  -0.25 -0.2 0  -0.2 -0.2 0  -0.15 -0.2 0  -0.1 -0.2 0  -0.04999999999999999 -0.2 0  0 -0.2 0  0.04999999999999999 -0.2 0  0.09999999999999998 -0.2 0  0.15 -0.2 0  0.2 -0.2 0  0.25 -0.2 0  -0.25 -0.15 0  -0.2 -0.15 0  -0.15 -0.15 0  -0.1 -0.15 0  -0.04999999999999999 -0.15 0  0 -0.15 0  0.04999999999999999 -0.15 0  0.09999999999999998 -0.15 0  0.15 -0.15 0  0.2 -0.15 0  0.25 -0.15 0  -0.25 -0.09999999999999998 0  -0.2 -0.09999999999999998 0  -0.15 -0.09999999999999998 0  -0.1 -0.09999999999999998 0  -0.04999999999999999 -0.09999999999999998 0  0 -0.09999999999999998 0  0.04999999999999999 -0.09999999999999998 0  0.09999999999999998 -0.09999999999999998 0  0.15 -0.09999999999999998 0  0.2 -0.09999999999999998 0  0.25 -0.09999999999999998 0  -0.25 -0.05000000000000004 0  -0.2 -0.05000000000000004 0  -0.15 -0.05000000000000004 0  -0.1 -0.05000000000000004 0  -0.04999999999999999 -0.05000000000000004 0  0 -0.05000000000000004 0  0.04999999999999999 -0.05000000000000004 0  0.09999999999999998 -0.05000000000000004 0  0.15 -0.05000000000000004 0  0.2 -0.05000000000000004 0  0.25 -0.05000000000000004 0  -0.25 0 0  -0.2 0 0  -0.15 0 0  -0.1 0 0  -0.04999999999999999 0 0  0 0 0  0.04999999999999999 0 0  0.09999999999999998 0 0  0.15 0 0  0.2 0 0  0.25 0 0  -0.225 -0.975 0  -0.175 -0.975 0  -0.125 -0.975 0  -0.07500000000000001 -0.975 0  -0.02499999999999999 -0.975 0  0.02500000000000002 -0.975 0  0.07500000000000001 -0.975 0  0.125 -0.975 0  0.175 -0.975 0  0.225 -0.975 0  -0.225 -0.925 0  -0.175 -0.925 0  -0.125 -0.925 0  -0.07500000000000001 -0.925 0  -0.02499999999999999 -0.925 0  0.02500000000000002 -0.925 0  0.07500000000000001 -0.925 0  0.125 -0.925 0  0.175 -0.925 0  0.225 -0.925 0  -0.225 -0.875 0  -0.175 -0.875 0  -0.125 -0.875 0  -0.07500000000000001 -0.875 0  -0.02499999999999999 -0.875 0  0.02500000000000002 -0.875 0  0.07500000000000001 -0.875 0  0.125 -0.875 0  0.175 -0.875 0  0.225 -0.875 0  -0.225 -0.825 0  -0.175 -0.825 0  -0.125 -0.825 0  -0.07500000000000001 -0.825 0  -0.02499999999999999 -0.825 0  0.02500000000000002 -0.825 0  0.07500000000000001 -0.825 0  0.125 -0.825 0  0.175 -0.825 0  0.225 -0.825 0  -0.225 -0.775 0  -0.175 -0.775 0  -0.125 -0.775 0  -0.07500000000000001 -0.775 0  -0.02499999999999999 -0.775 0  0.02500000000000002 -0.775 0  0.07500000000000001 -0.775 0  0.125 -0.775 0  0.175 -0.775 0  0.225 -0.775 0  -0.225 -0.725 0  -0.175 -0.725 0  -0.125 -0.725 0  -0.07500000000000001 -0.725 0  -0.02499999999999999 -0.725 0  0.02500000000000002 -0.725 0  0.07500000000000001 -0.725 0  0.125 -0.725 0  0.175 -0.725 0  0.225 -0.725 0  -0.225 -0.675 0  -0.175 -0.675 0  -0.125 -0.675 0  -0.07500000000000001 -0.675 0  -0.02499999999999999 -0.675 0  0.02500000000000002 -0.675 0  0.07500000000000001 -0.675 0  0.125 -0.675 0  0.175 -0.675 0  0.225 -0.675 0  -0.225 -0.625 0  -0.175 -0.625 0  -0.125 -0.625 0  -0.07500000000000001 -0.625 0  -0.02499999999999999 -0.625 0  0.02500000000000002 -0.625 0  0.07500000000000001 -0.625 0  0.125 -0.625 0  0.175 -0.625 0  0.225 -0.625 0  -0.225 -0.575 0  -0.175 -0.575 0  -0.125 -0.575 0  -0.07500000000000001 -0.575 0  -0.02499999999999999 -0.575 0  0.02500000000000002 -0.575 0  0.07500000000000001 -0.575 0  0.125 -0.575 0  0.175 -0.575 0  0.225 -0.575 0  -0.225 -0.525 0  -0.175 -0.525 0  -0.125 -0.525 0  -0.07500000000000001 -0.525 0  -0.02499999999999999 -0.525 0  0.02500000000000002 -0.525 0  0.07500000000000001 -0.525 0  0.125 -0.525 0  0.175 -0.525 0  0.225 -0.525 0  -0.225 -0.475 0  -0.175 -0.475 0  -0.125 -0.475 0  -0.07500000000000001 -0.475 0  -0.02499999999999999 -0.475 0  0.02500000000000002 -0.475 0  0.07500000000000001 -0.475 0  0.125 -0.475 0  0.175 -0.475 0  0.225 -0.475 0  -0.225 -0.425 0  -0.175 -0.425 0  -0.125 -0.425 0  -0.07500000000000001 -0.425 0  -0.02499999999999999 -0.425 0  0.02500000000000002 -0.425 0  0.07500000000000001 -0.425 0  0.125 -0.425 0  0.175 -0.425 0  0.225 -0.425 0  -0.225 -0.375 0  -0.175 -0.375 0  -0.125 -0.375 0  -0.07500000000000001 -0.375 0  -0.02499999999999999 -0.375 0  0.02500000000000002 -0.375 0  0.07500000000000001 -0.375 0  0.125 -0.375 0  0.175 -0.375 0  0.225 -0.375 0  -0.225 -0.325 0  -0.175 -0.325 0  -0.125 -0.325 0  -0.07500000000000001 -0.325 0  -0.02499999999999999 -0.325 0  0.02500000000000002 -0.325 0  0.07500000000000001 -0.325 0  0.125 -0.325 0  0.175 -0.325 0  0.225 -0.325 0  -0.225 -0.275 0  -0.175 -0.275 0  -0.125 -0.275 0  -0.07500000000000001 -0.275 0  -0.02499999999999999 -0.275 0  0.02500000000000002 -0.275 0  0.07500000000000001 -0.275 0  0.125 -0.275 0  0.175 -0.275 0  0.225 -0.275 0  -0.225 -0.225 0  -0.175 -0.225 0  -0.125 -0.225 0  -0.07500000000000001 -0.225 0  -0.02499999999999999 -0.225 0  0.02500000000000002 -0.225 0  0.07500000000000001 -0.225 0  0.125 -0.225 0  0.175 -0.225 0  0.225 -0.225 0  -0.225 -0.175 0  -0.175 -0.175 0  -0.125 -0.175 0  -0.07500000000000001 -0.175 0  -0.02499999999999999 -0.175 0  0.02500000000000002 -0.175 0  0.07500000000000001 -0.175 0  0.125 -0.175 0  0.175 -0.175 0  0.225 -0.175 0  -0.225 -0.125 0  -0.175 -0.125 0  -0.125 -0.125 0  -0.07500000000000001 -0.125 0  -0.02499999999999999 -0.125 0  0.02500000000000002 -0.125 0  0.07500000000000001 -0.125 0  0.125 -0.125 0  0.175 -0.125 0  0.225 -0.125 0  -0.225 -0.07499999999999996 0  -0.175 -0.07499999999999996 0  -0.125 -0.07499999999999996 0  -0.07500000000000001 -0.07499999999999996 0  -0.02499999999999999 -0.07499999999999996 0  0.02500000000000002 -0.07499999999999996 0  0.07500000000000001 -0.07499999999999996 0  0.125 -0.07499999999999996 0  0.175 -0.07499999999999996 0  0.225 -0.07499999999999996 0  -0.225 -0.02500000000000002 0  -0.175 -0.02500000000000002 0  -0.125 -0.02500000000000002 0  -0.07500000000000001 -0.02500000000000002 0  -0.02499999999999999 -0.02500000000000002 0  0.02500000000000002 -0.02500000000000002 0  0.07500000000000001 -0.02500000000000002 0  0.125 -0.02500000000000002 0  0.175 -0.02500000000000002 0  0.225 -0.02500000000000002 0  </DataArray>
</Points>
<Cells>
[...]
<PointData  Scalars="pressure"> 
<DataArray  type="Float64"  Name="pressure"  format="ascii">4.5740900193708455e+06  4.5740900193708427e+06  4.5740900193708492e+06  4.5740900193708446e+06  4.5740900193708418e+06  4.5740900193708381e+06  4.5740900193708306e+06  4.5740900193708288e+06  4.5740900193708269e+06  4.5740900193708222e+06  4.5740900193708260e+06  4.5599896821912611e+06  4.5599896821912630e+06  4.5599896821912602e+06  4.5599896821912639e+06  4.5599896821912630e+06  4.5599896821912583e+06  4.5599896821912536e+06  4.5599896821912471e+06  4.5599896821912425e+06  4.5599896821912499e+06  4.5599896821912415e+06  4.5177756008351939e+06  4.5177756008351976e+06  4.5177756008352032e+06  4.5177756008351948e+06  4.5177756008351957e+06  4.5177756008351911e+06  4.5177756008351864e+06  4.5177756008351818e+06  4.5177756008351799e+06  4.5177756008351771e+06  4.5177756008351818e+06  4.4477080300676543e+06  4.4477080300676534e+06  4.4477080300676525e+06  4.4477080300676534e+06  4.4477080300676478e+06  4.4477080300676478e+06  4.4477080300676441e+06  4.4477080300676413e+06  4.4477080300676385e+06  4.4477080300676357e+06  4.4477080300676348e+06  4.3502189451807924e+06  4.3502189451807942e+06  4.3502189451807952e+06  4.3502189451807886e+06  4.3502189451807942e+06  4.3502189451807858e+06  4.3502189451807886e+06  4.3502189451807849e+06  4.3502189451807803e+06  4.3502189451807821e+06  4.3502189451807784e+06  4.2259093795283781e+06  4.2259093795283791e+06  4.2259093795283772e+06  4.2259093795283800e+06  4.2259093795283763e+06  4.2259093795283772e+06  4.2259093795283763e+06  4.2259093795283716e+06  4.2259093795283763e+06  4.2259093795283688e+06  4.2259093795283707e+06  4.0755457200202923e+06  4.0755457200202942e+06  4.0755457200202951e+06  4.0755457200202956e+06  4.0755457200202965e+06  4.0755457200202928e+06  4.0755457200202905e+06  4.0755457200202886e+06  4.0755457200202877e+06  4.0755457200202877e+06  4.0755457200202835e+06  3.9000549833578253e+06  3.9000549833578262e+06  3.9000549833578290e+06  3.9000549833578309e+06  3.9000549833578258e+06  3.9000549833578239e+06  3.9000549833578249e+06  3.9000549833578202e+06  3.9000549833578202e+06  3.9000549833578174e+06  3.9000549833578183e+06  3.7005191020633285e+06  3.7005191020633243e+06  3.7005191020633280e+06  3.7005191020633276e+06  3.7005191020633308e+06  3.7005191020633276e+06  3.7005191020633257e+06  3.7005191020633280e+06  3.7005191020633262e+06  3.7005191020633224e+06  3.7005191020633201e+06  3.4781682554556760e+06  3.4781682554556793e+06  3.4781682554556793e+06  3.4781682554556821e+06  3.4781682554556788e+06  3.4781682554556797e+06  3.4781682554556807e+06  3.4781682554556844e+06  3.4781682554556765e+06  3.4781682554556779e+06  3.4781682554556769e+06  3.2343732866081898e+06  3.2343732866081903e+06  3.2343732866081954e+06  3.2343732866081949e+06  3.2343732866081949e+06  3.2343732866081940e+06  3.2343732866082001e+06  3.2343732866082001e+06  3.2343732866082005e+06  3.2343732866081987e+06  3.2343732866081954e+06  2.9706372519623614e+06  2.9706372519623623e+06  2.9706372519623595e+06  2.9706372519623623e+06  2.9706372519623642e+06  2.9706372519623665e+06  2.9706372519623688e+06  2.9706372519623684e+06  2.9706372519623721e+06  2.9706372519623721e+06  2.9706372519623688e+06  2.6885861556240702e+06  2.6885861556240730e+06  2.6885861556240763e+06  2.6885861556240753e+06  2.6885861556240749e+06  2.6885861556240791e+06  2.6885861556240804e+06  2.6885861556240814e+06  2.6885861556240856e+06  2.6885861556240814e+06  2.6885861556240842e+06  2.3899589254055186e+06  2.3899589254055177e+06  2.3899589254055191e+06  2.3899589254055209e+06  2.3899589254055209e+06  2.3899589254055214e+06  2.3899589254055256e+06  2.3899589254055293e+06  2.3899589254055256e+06  2.3899589254055284e+06  2.3899589254055303e+06  2.0765966923641984e+06  2.0765966923641996e+06  2.0765966923641949e+06  2.0765966923642000e+06  2.0765966923641998e+06  2.0765966923642009e+06  2.0765966923642003e+06  2.0765966923642009e+06  2.0765966923642007e+06  2.0765966923642000e+06  2.0765966923642016e+06  1.7504314399006765e+06  1.7504314399006737e+06  1.7504314399006746e+06  1.7504314399006751e+06  1.7504314399006739e+06  1.7504314399006732e+06  1.7504314399006721e+06  1.7504314399006737e+06  1.7504314399006693e+06  1.7504314399006695e+06  1.7504314399006693e+06  1.4134740923815290e+06  1.4134740923815288e+06  1.4134740923815272e+06  1.4134740923815249e+06  1.4134740923815237e+06  1.4134740923815202e+06  1.4134740923815221e+06  1.4134740923815204e+06  1.4134740923815237e+06  1.4134740923815165e+06  1.4134740923815160e+06  1.0678021167282565e+06  1.0678021167282544e+06  1.0678021167282555e+06  1.0678021167282569e+06  1.0678021167282523e+06  1.0678021167282509e+06  1.0678021167282469e+06  1.0678021167282471e+06  1.0678021167282478e+06  1.0678021167282476e+06  1.0678021167282483e+06  7.1554671343420981e+05  7.1554671343421028e+05  7.1554671343421342e+05  7.1554671343421331e+05  7.1554671343420853e+05  7.1554671343419934e+05  7.1554671343419887e+05  7.1554671343420085e+05  7.1554671343420399e+05  7.1554671343420260e+05  7.1554671343420260e+05  3.5887967602033913e+05  3.5887967602033750e+05  3.5887967602033878e+05  3.5887967602033762e+05  3.5887967602033471e+05  3.5887967602033122e+05  3.5887967602033110e+05  3.5887967602033471e+05  3.5887967602033447e+05  3.5887967602033680e+05  3.5887967602033826e+05  -1.7053025658242392e-11  -1.8139622138950242e-11  1.4954704141700849e-11  -3.7760271100393879e-11  5.1159076974727175e-11  -6.3749006073976437e-11  5.6887827781793002e-11  -3.9130603519359782e-11  1.0658141036401495e-11  1.5618275903342197e-11  -3.4106051316484783e-11  4.5693892092783283e+06  4.5693892092783302e+06  4.5693892092783349e+06  4.5693892092783321e+06  4.5693892092783246e+06  4.5693892092783209e+06  4.5693892092783181e+06  4.5693892092783125e+06  4.5693892092783088e+06  4.5693892092783079e+06  4.5412175159468958e+06  4.5412175159468986e+06  4.5412175159468995e+06  4.5412175159468958e+06  4.5412175159468921e+06  4.5412175159468874e+06  4.5412175159468846e+06  4.5412175159468809e+06  4.5412175159468763e+06  4.5412175159468725e+06  4.4850478110286016e+06  4.4850478110286025e+06  4.4850478110286016e+06  4.4850478110286035e+06  4.4850478110285979e+06  4.4850478110285923e+06  4.4850478110285923e+06  4.4850478110285858e+06  4.4850478110285820e+06  4.4850478110285811e+06  4.4012263875446850e+06  4.4012263875446860e+06  4.4012263875446869e+06  4.4012263875446841e+06  4.4012263875446841e+06  4.4012263875446813e+06  4.4012263875446767e+06  4.4012263875446720e+06  4.4012263875446683e+06  4.4012263875446711e+06  4.2902700154383257e+06  4.2902700154383257e+06  4.2902700154383285e+06  4.2902700154383285e+06  4.2902700154383285e+06  4.2902700154383220e+06  4.2902700154383210e+06  4.2902700154383173e+06  4.2902700154383155e+06  4.2902700154383164e+06  4.1528627564558713e+06  4.1528627564558731e+06  4.1528627564558741e+06  4.1528627564558745e+06  4.1528627564558736e+06  4.1528627564558694e+06  4.1528627564558648e+06  4.1528627564558680e+06  4.1528627564558629e+06  4.1528627564558620e+06  3.9898517478493340e+06  3.9898517478493354e+06  3.9898517478493340e+06  3.9898517478493331e+06  3.9898517478493331e+06  3.9898517478493312e+06  3.9898517478493284e+06  3.9898517478493243e+06  3.9898517478493219e+06  3.9898517478493224e+06  3.8022419808303751e+06  3.8022419808303760e+06  3.8022419808303742e+06  3.8022419808303732e+06  3.8022419808303709e+06  3.8022419808303691e+06  3.8022419808303681e+06  3.8022419808303658e+06  3.8022419808303644e+06  3.8022419808303644e+06  3.5911901058944967e+06  3.5911901058944995e+06  3.5911901058944999e+06  3.5911901058945023e+06  3.5911901058945023e+06  3.5911901058944995e+06  3.5911901058945004e+06  3.5911901058944971e+06  3.5911901058944967e+06  3.5911901058944957e+06  3.3579973031286704e+06  3.3579973031286695e+06  3.3579973031286700e+06  3.3579973031286765e+06  3.3579973031286774e+06  3.3579973031286770e+06  3.3579973031286797e+06  3.3579973031286788e+06  3.3579973031286751e+06  3.3579973031286765e+06  3.1041012613795847e+06  3.1041012613795833e+06  3.1041012613795847e+06  3.1041012613795879e+06  3.1041012613795889e+06  3.1041012613795889e+06  3.1041012613795889e+06  3.1041012613795931e+06  3.1041012613795907e+06  3.1041012613795921e+06  2.8310673156576171e+06  2.8310673156576180e+06  2.8310673156576194e+06  2.8310673156576212e+06  2.8310673156576208e+06  2.8310673156576217e+06  2.8310673156576240e+06  2.8310673156576264e+06  2.8310673156576264e+06  2.8310673156576287e+06  2.5405787973491857e+06  2.5405787973491843e+06  2.5405787973491871e+06  2.5405787973491917e+06  2.5405787973491889e+06  2.5405787973491913e+06  2.5405787973491945e+06  2.5405787973491973e+06  2.5405787973491955e+06  2.5405787973491978e+06  2.2344266566750561e+06  2.2344266566750556e+06  2.2344266566750580e+06  2.2344266566750593e+06  2.2344266566750570e+06  2.2344266566750580e+06  2.2344266566750617e+06  2.2344266566750617e+06  2.2344266566750617e+06  2.2344266566750631e+06  1.9144984213338338e+06  1.9144984213338317e+06  1.9144984213338329e+06  1.9144984213338331e+06  1.9144984213338329e+06  1.9144984213338327e+06  1.9144984213338315e+06  1.9144984213338303e+06  1.9144984213338296e+06  1.9144984213338296e+06  1.5827665593795832e+06  1.5827665593795818e+06  1.5827665593795818e+06  1.5827665593795800e+06  1.5827665593795788e+06  1.5827665593795786e+06  1.5827665593795788e+06  1.5827665593795774e+06  1.5827665593795753e+06  1.5827665593795730e+06  1.2412763180740166e+06  1.2412763180740157e+06  1.2412763180740159e+06  1.2412763180740143e+06  1.2412763180740124e+06  1.2412763180740110e+06  1.2412763180740091e+06  1.2412763180740096e+06  1.2412763180740082e+06  1.2412763180740066e+06  8.9213311370325834e+05  8.9213311370325892e+05  8.9213311370326101e+05  8.9213311370325985e+05  8.9213311370325321e+05  8.9213311370324844e+05  8.9213311370324879e+05  8.9213311370325089e+05  8.9213311370325135e+05  8.9213311370325170e+05  5.3748955013579456e+05  5.3748955013579561e+05  5.3748955013579596e+05  5.3748955013579386e+05  5.3748955013578862e+05  5.3748955013578525e+05  5.3748955013578665e+05  5.3748955013578967e+05  5.3748955013579049e+05  5.3748955013579095e+05  1.7953214620347595e+05  1.7953214620347560e+05  1.7953214620347595e+05  1.7953214620347551e+05  1.7953214620347403e+05  1.7953214620347178e+05  1.7953214620347333e+05  1.7953214620347344e+05  1.7953214620347472e+05  1.7953214620347624e+05  </DataArray> 
</PointData> 
</Piece>
</UnstructuredGrid>
</VTKFile>