<?xml version="1.0"?>
<VTKFile type="UnstructuredGrid"  version="0.1"  >
<UnstructuredGrid>
<Piece  NumberOfPoints="431" NumberOfCells="800">
<Points>
<DataArray  type="Float64"  NumberOfComponents="3"  format="ascii">-0.25 -1 0  -0.2 -1 0  -0.15 -1 0  -0.1 -1 0  -0.04999999999999999 -1 0  0 -1 0  0.04999999999999999 -1 0  0.09999999999999998 -1 0  0.15 -1 0  0.2 -1 0  0.25 -1 0  -0.25 -0.95 0  -0.2 -0.95 0  -0.15 -0.95 0  -0.1 -0.95 0  -0.04999999999999999 -0.95 0  0 -0.95 0  0.04999999999999999 -0.95 0  0.09999999999999998 -0.95 0  0.15 -0.95 0  0.2 -0.95 0  0.25 -0.95 0  -0.25 -0.9 0  -0.2 -0.9 0  -0.15 -0.9 0  -0.1 -0.9 0  -0.04999999999999999 -0.9 0  0 -0.9 0  0.04999999999999999 -0.9 0  0.09999999999999998 -0.9 0  0.15 -0.9 0  0.2 -0.9 0  0.25 -0.9 0  -0.25 -0.85 0  -0.2 -0.85 0  -0.15 -0.85 0  -0.1 -0.85 0  -0.04999999999999999 -0.85 0  0 -0.85 0  0.04999999999999999 -0.85 0  0.09999999999999998 -0.85 0  0.15 -0.85 0  0.2 -0.85 0  0.25 -0.85 0  -0.25 -0.8 0  -0.2 -0.8 0  -0.15 -0.8 0  -0.1 -0.8 0  -0.04999999999999999 -0.8 0  0 -0.8 0  0.04999999999999999 -0.8 0  0.09999999999999998 -0.8 0  0.15 -0.8 0  0.2 -0.8 0  0.25 -0.8 0  -0.25 -0.75 0  -0.2 -0.75 0  -0.15 -0.75 0  -0.1 -0.75 0  -0.04999999999999999 -0.75 0  0 -0.75 0  0.04999999999999999 -0.75 0  0.09999999999999998 -0.75 0  0.15 -0.75 0  0.2 -0.75 0  0.25 -0.75 0  -0.25 -0.7 0  -0.2 -0.7 0  -0.15 -0.7 0  -0.1 -0.7 0  -0.04999999999999999 -0.7 0  0 -0.7 0  0.04999999999999999 -0.7 0  0.09999999999999998 -0.7 0  0.15 -0.7 0  0.2 -0.7 0  0.25 -0.7 0  -0.25 -0.65 0  -0.2 -0.65 0  -0.15 -0.65 0  -0.1 -0.65 0  -0.04999999999999999 -0.65 0  0 -0.65 0  0.04999999999999999 -0.65 0  0.09999999999999998 -0.65 0  0.15 -0.65 0  0.2 -0.65 0  0.25 -0.65 0  -0.25 -0.6 0  -0.2 -0.6 0  -0.15 -0.6 0  -0.1 -0.6 0  -0.04999999999999999 -0.6 0  0 -0.6 0  0.04999999999999999 -0.6 0  0.09999999999999998 -0.6 0  0.15 -0.6 0  0.2 -0.6 0  0.25 -0.6 0  -0.25 -0.55 0  -0.2 -0.55 0  -0.15 -0.55 0  -0.1 -0.55 0  -0.04999999999999999 -0.55 0  0 -0.55 0  0.04999999999999999 -0.55 0  0.09999999999999998 -0.55 0  0.15 -0.55 0  0.2 -0.55 0  0.25 -0.55 0  -0.25 -0.5 0  -0.2 -0.5 0  -0.15 -0.5 0  -0.1 -0.5 0  -0.04999999999999999 -0.5 0  0 -0.5 0  0.04999999999999999 -0.5 0  0.09999999999999998 -0.5 0  0.15 -0.5 0  0.2 -0.5 0  0.25 -0.5 0  -0.25 -0.45 0  -0.2 -0.45 0  -0.15 -0.45 0  -0.1 -0.45 0  -0.04999999999999999 -0.45 0  0 -0.45 0  0.04999999999999999 -0.45 0  0.09999999999999998 -0.45 0  0.15 -0.45 0  0.2 -0.45 0  0.25 -0.45 0  -0.25 -0.4 0  -0.2 -0.4 0  -0.15 -0.4 0  -0.1 -0.4 0  -0.04999999999999999 -0.4 0  0 -0.4 0  0.04999999999999999 -0.4 0  0.09999999999999998 -0.4 0  0.15 -0.4 0  0.2 -0.4 0  0.25 -0.4 0  -0.25 -0.35 0  -0.2 -0.35 0  -0.15 -0.35 0  -0.1 -0.35 0  -0.04999999999999999 -0.35 0  0 -0.35 0  0.04999999999999999 -0.35 0  0.09999999999999998 -0.35 0  0.15 -0.35 0  0.2 -0.35 0  0.25 -0.35 0  -0.25 -0.3 0  -0.2 -0.3 0  -0.15 -0.3 0  -0.1 -0.3 0  -0.04999999999999999 -0.3 0  0 -0.3 0  0.04999999999999999 -0.3 0  0.09999999999999998 -0.3 0  0.15 -0.3 0  0.2 -0.3 0  0.25 -0.3 0  -0.25 -0.25 0  -0.2 -0.25 0  -0.15 -0.25 0  -0.1 -0.25 0  -0.04999999999999999 -0.25 0  0 -0.25 0  0.04999999999999999 -0.25 0  0.09999999999999998 -0.25 0  0.15 -0.25 0  0.2 -0.25 0  0.25 -0.25 0  -0.25 -0.2 0  -0.2 -0.2 0  -0.15 -0.2 0  -0.1 -0.2 0  -0.04999999999999999 -0.2 0  0 -0.2 0  0.04999999999999999 -0.2 0  0.09999999999999998 -0.2 0  0.15 -0.2 0  0.2 -0.2 0  0.25 -0.2 0  -0.25 -0.15 0  -0.2 -0.15 0  -0.15 -0.15 0  -0.1 -0.15 0  -0.04999999999999999 -0.15 0  0 -0.15 0  0.04999999999999999 -0.15 0  0.09999999999999998 -0.15 0  0.15 -0.15 0  0.2 -0.15 0  0.25 -0.15 0  -0.25 -0.09999999999999998 0  -0.2 -0.09999999999999998 0  -0.15 -0.09999999999999998 0  -0.1 -0.09999999999999998 0  -0.04999999999999999 -0.09999999999999998 0  0 -0.09999999999999998 0  0.04999999999999999 -0.09999999999999998 0  0.09999999999999998 -0.09999999999999998 0  0.15 -0.09999999999999998 0  0.2 -0.09999999999999998 0  0.25 -0.09999999999999998 0  -0.25 -0.05000000000000004 0  -0.2 -0.05000000000000004 0  -0.15 -0.05000000000000004 0  -0.1 -0.05000000000000004 0  -0.04999999999999999 -0.05000000000000004 0  0 -0.05000000000000004 0  0.04999999999999999 -0.05000000000000004 0  0.09999999999999998 -0.05000000000000004 0  0.15 -0.05000000000000004 0  0.2 -0.05000000000000004 0  0.25 -0.05000000000000004 0  -0.25 0 0  -0.2 0 0  -0.15 0 0  -0.1 0 0  -0.04999999999999999 0 0  0 0 0  0.04999999999999999 0 0  0.09999999999999998 0 0  0.15 0 0  0.2 0 0  0.25 0 0  -0.225 -0.975 0  -0.175 -0.975 0  -0.125 -0.975 0  -0.07500000000000001 -0.975 0  -0.02499999999999999 -0.975 0  0.02500000000000002 -0.975 0  0.07500000000000001 -0.975 0  0.125 -0.975 0  0.175 -0.975 0  0.225 -0.975 0  -0.225 -0.925 0  -0.175 -0.925 0  -0.125 -0.925 0  -0.07500000000000001 -0.925 0  -0.02499999999999999 -0.925 0  0.02500000000000002 -0.925 0  0.07500000000000001 -0.925 0  0.125 -0.925 0  0.175 -0.925 0  0.225 -0.925 0  -0.225 -0.875 0  -0.175 -0.875 0  -0.125 -0.875 0  -0.07500000000000001 -0.875 0  -0.02499999999999999 -0.875 0  0.02500000000000002 -0.875 0  0.07500000000000001 -0.875 0  0.125 -0.875 0  0.175 -0.875 0  0.225 -0.875 0  -0.225 -0.825 0  -0.175 -0.825 0  -0.125 -0.825 0  -0.07500000000000001 -0.825 0  -0.02499999999999999 -0.825 0  0.02500000000000002 -0.825 0  0.07500000000000001 -0.825 0  0.125 -0.825 0  0.175 -0.825 0  0.225 -0.825 0  -0.225 -0.775 0  -0.175 -0.775 0  -0.125 -0.775 0  -0.07500000000000001 -0.775 0  -0.02499999999999999 -0.775 0  0.02500000000000002 -0.775 0  0.07500000000000001 -0.775 0  0.125 -0.775 0  0.175 -0.775 0  0.225 -0.775 0  -0.225 -0.725 0  -0.175 -0.725 0  -0.125 -0.725 0  -0.07500000000000001 -0.725 0  -0.02499999999999999 -0.725 0  0.02500000000000002 -0.725 0  0.07500000000000001 -0.725 0  0.125 -0.725 0  0.175 -0.725 0  0.225 -0.725 0  -0.225 -0.675 0  -0.175 -0.675 0  -0.125 -0.675 0  -0.07500000000000001 -0.675 0  -0.02499999999999999 -0.675 0  0.02500000000000002 -0.675 0  0.07500000000000001 -0.675 0  0.125 -0.675 0  0.175 -0.675 0  0.225 -0.675 0  -0.225 -0.625 0  -0.175 -0.625 0  -0.125 -0.625 0  -0.07500000000000001 -0.625 0  -0.02499999999999999 -0.625 0  0.02500000000000002 -0.625 0  0.07500000000000001 -0.625 0  0.125 -0.625 0  0.175 -0.625 0  0.225 -0.625 0  -0.225 -0.575 0  -0.175 -0.575 0  -0.125 -0.575 0  -0.07500000000000001 -0.575 0  -0.02499999999999999 -0.575 0  0.02500000000000002 -0.575 0  0.07500000000000001 -0.575 0  0.125 -0.575 0  0.175 -0.575 0  0.225 -0.575 0  -0.225 -0.525 0  -0.175 -0.525 0  -0.125 -0.525 0  -0.07500000000000001 -0.525 0  -0.02499999999999999 -0.525 0  0.02500000000000002 -0.525 0  0.07500000000000001 -0.525 0  0.125 -0.525 0  0.175 -0.525 0  0.225 -0.525 0  -0.225 -0.475 0  -0.175 -0.475 0  -0.125 -0.475 0  -0.07500000000000001 -0.475 0  -0.02499999999999999 -0.475 0  0.02500000000000002 -0.475 0  0.07500000000000001 -0.475 0  0.125 -0.475 0  0.175 -0.475 0  0.225 -0.475 0  -0.225 -0.425 0  -0.175 -0.425 0  -0.125 -0.425 0  -0.07500000000000001 -0.425 0  -0.02499999999999999 -0.425 0  0.02500000000000002 -0.425 0  0.07500000000000001 -0.425 0  0.125 -0.425 0  0.175 -0.425 0  0.225 -0.425 0  -0.225 -0.375 0  -0.175 -0.375 0  -0.125 -0.375 0  -0.07500000000000001 -0.375 0  -0.02499999999999999 -0.375 0  0.02500000000000002 -0.375 0  0.07500000000000001 -0.375 0  0.125 -0.375 0  0.175 -0.375 0  0.225 -0.375 0  -0.225 -0.325 0  -0.175 -0.325 0  -0.125 -0.325 0  -0.07500000000000001 -0.325 0  -0.02499999999999999 -0.325 0  0.02500000000000002 -0.325 0  0.07500000000000001 -0.325 0  0.125 -0.325 0  0.175 -0.325 0  0.225 -0.325 0  -0.225 -0.275 0  -0.175 -0.275 0  -0.125 -0.275 0  -0.07500000000000001 -0.275 0  -0.02499999999999999 -0.275 0  0.02500000000000002 -0.275 0  0.07500000000000001 -0.275 0  0.125 -0.275 0  0.175 -0.275 0  0.225 -0.275 0  -0.225 -0.225 0  -0.175 -0.225 0  -0.125 -0.225 0  -0.07500000000000001 -0.225 0  -0.02499999999999999 -0.225 0  0.02500000000000002 -0.225 0  0.07500000000000001 -0.225 0  0.125 -0.225 0  0.175 -0.225 0  0.225 -0.225 0  -0.225 -0.175 0  -0.175 -0.175 0  -0.125 -0.175 0  -0.07500000000000001 -0.175 0  -0.02499999999999999 -0.175 0  0.02500000000000002 -0.175 0  0.07500000000000001 -0.175 0  0.125 -0.175 0  0.175 -0.175 0  0.225 -0.175 0  -0.225 -0.125 0  -0.175 -0.125 0  -0.125 -0.125 0  -0.07500000000000001 -0.125 0  -0.02499999999999999 -0.125 0  0.02500000000000002 -0.125 0  0.07500000000000001 -0.125 0  0.125 -0.125 0  0.175 -0.125 0  0.225 -0.125 0  -0.225 -0.07499999999999996 0  -0.175 -0.07499999999999996 0  -0.125 -0.07499999999999996 0  -0.07500000000000001 -0.07499999999999996 0  -0.02499999999999999 -0.07499999999999996 0  0.02500000000000002 -0.07499999999999996 0  0.07500000000000001 -0.07499999999999996 0  0.125 -0.07499999999999996 0  0.175 -0.07499999999999996 0  0.225 -0.07499999999999996 0  -0.225 -0.02500000000000002 0  -0.175 -0.02500000000000002 0  -0.125 -0.02500000000000002 0  -0.07500000000000001 -0.02500000000000002 0  -0.02499999999999999 -0.02500000000000002 0  0.02500000000000002 -0.02500000000000002 0  0.07500000000000001 -0.02500000000000002 0  0.125 -0.02500000000000002 0  0.175 -0.02500000000000002 0  0.225 -0.02500000000000002 0  </DataArray>
</Points>
<Cells>
[...]
<PointData  Scalars="pressure"> 
<DataArray  type="Float64"  Name="pressure"  format="ascii">-6.9896014433316949e-14  -6.9918946196582428e-14  -7.0033025761297850e-14  -7.0996739070062070e-14  -7.1989513173028900e-14  -7.3450437739473134e-14  -7.5857037523228594e-14  -7.3656823608862798e-14  -7.2785416604772921e-14  -7.2533167208852148e-14  -7.2326781339462497e-14  -6.9433009796502918e-14  -6.9560478145544292e-14  -7.0017181753925358e-14  -7.0500794954979246e-14  -7.2074898429925588e-14  -7.2604228993939355e-14  -7.3605666635235039e-14  -7.3355307224911181e-14  -7.2609123172993567e-14  -7.1938611726299602e-14  -7.2016777856178090e-14  -6.7802447150652257e-14  -6.7775379170192911e-14  -6.8579525243155014e-14  -6.8424466326272698e-14  -6.9946064891224591e-14  -7.1880484123263562e-14  -7.3057968035445950e-14  -7.1518244080217658e-14  -7.0701196760509828e-14  -7.1320495171816466e-14  -7.1036879035903111e-14  -6.5142655236587876e-14  -6.6058499773215960e-14  -6.7554398362120973e-14  -6.9429363454271593e-14  -6.8510783121910824e-14  -6.9965201981482150e-14  -6.9735556898391875e-14  -7.0041750342512195e-14  -6.9234849428135529e-14  -6.9433009796502905e-14  -6.9429363454271669e-14  -6.1238688824054410e-14  -6.2056380888189788e-14  -6.7668751150580074e-14  -6.6673622457189247e-14  -6.6750170818219229e-14  -6.7821847872640228e-14  -6.7532942674370219e-14  -6.8435322812693611e-14  -6.8582011829146915e-14  -6.7763947061010082e-14  -6.7056364262339574e-14  -6.0013915047573270e-14  -6.0920206888947470e-14  -6.2629655450151712e-14  -6.3420317113411259e-14  -6.4913010153497576e-14  -6.3382042932896218e-14  -6.2734801203174233e-14  -6.2925481443237645e-14  -6.8566235264408765e-14  -6.5425796401075317e-14  -6.2422630541440899e-14  -5.7852549576626426e-14  -5.7756931892331677e-14  -5.9990747686376542e-14  -5.8406399465941904e-14  -5.8535753975167066e-14  -5.8865689632122339e-14  -5.7832286758216395e-14  -5.9478076520362815e-14  -6.0353469856876533e-14  -6.0670430435165419e-14  -6.0320108491693577e-14  -5.3890046165167881e-14  -5.3882310981728177e-14  -5.4043142887228003e-14  -5.3124562554867151e-14  -5.5929894335164268e-14  -5.4425884692378342e-14  -5.5346710111812089e-14  -5.4808626497528688e-14  -5.4845805375222522e-14  -5.5992867974126181e-14  -5.5267916663709092e-14  -5.1440498612205696e-14  -4.9411584931771742e-14  -4.5913762282302459e-14  -4.6656226047826426e-14  -4.8998342264748651e-14  -4.9105773600788592e-14  -5.0201372018031457e-14  -4.8914402698213447e-14  -5.1746692056325959e-14  -5.0489147748658973e-14  -5.0215724835724588e-14  -4.3785662509198911e-14  -4.3911266098690499e-14  -4.3845804159419634e-14  -4.2637437093747873e-14  -4.4592771989588376e-14  -4.3326372343018456e-14  -4.3249200706704965e-14  -4.3432132512681787e-14  -4.6062304723158854e-14  -4.4664779043722452e-14  -4.5354903910315291e-14  -3.5297800132218499e-14  -3.6531142518252098e-14  -3.8488014207734200e-14  -3.8197632154003882e-14  -3.8366587022524611e-14  -3.7125955099582940e-14  -3.7738341987823503e-14  -3.6283923128252203e-14  -3.8432003592697249e-14  -3.7053192727941434e-14  -3.5212246073831242e-14  -2.9088377191425840e-14  -2.9621798734088105e-14  -2.7940151775974796e-14  -2.9241473913485987e-14  -3.0715547113913996e-14  -3.0772441134087346e-14  -3.1199399590080784e-14  -2.8322893581125142e-14  -2.8835543608401710e-14  -2.7806257439594117e-14  -2.6332636194343396e-14  -2.3729991919321102e-14  -2.0362565373012860e-14  -2.2267458545022803e-14  -2.1571676180747182e-14  -2.3801433044932941e-14  -2.3806540280351156e-14  -2.3988342637797556e-14  -2.2199024698719724e-14  -2.1203896005328818e-14  -1.7858971269773587e-14  -1.9290186979577133e-14  -1.6228252538374416e-14  -1.7187533515449809e-14  -1.6947170520972758e-14  -1.7146832870735214e-14  -1.6991735536102515e-14  -1.8830896813396713e-14  -1.7598585248227375e-14  -1.3816979165927263e-14  -1.1258398556769298e-14  -9.6346531441446633e-15  -1.2324286125840940e-14  -1.1743419152177223e-14  -1.0638471186596722e-14  -1.1201965828306555e-14  -1.1788447598630471e-14  -1.1506388031948018e-14  -1.3931801707472371e-14  -1.1008254314303975e-14  -9.3389000456682878e-15  -7.9895655797662733e-15  -8.5122199510135815e-15  -7.9610295471270735e-15  -7.3486426588865210e-15  -6.2589169946956449e-15  -6.1238688824054342e-15  -4.5929016618040774e-15  -6.0725217492805210e-15  -5.0521918279844819e-15  -3.2528885468563599e-16  -2.9088377191425825e-15  -9.3101190105482971e-15  -7.7708334947735830e-15  -5.8176754382851658e-15  -3.6743213294432652e-15  -4.6902216082744477e-15  1.1697466736767045e-15  -5.3583852721047593e-16  -1.2247737764810874e-15  2.3729991919321068e-15  2.6026442750223118e-15  -1.0716770544209517e-15  -2.6791926360523795e-15  -3.6719380180842882e-15  -5.5114819941648959e-15  2.1433541088419045e-15  1.1969907844620957e-15  -2.4122088645789058e-16  -1.4736679804105772e-15  -1.3778704985412232e-15  -4.5929016618040776e-16  1.4173593748091017e-15  3.6743213294432621e-15  -9.1858033236081493e-16  -3.3779394060407315e-15  -3.1974508903629318e-15  3.4700107564607673e-15  2.8131681134548663e-15  1.1864995959660534e-15  -1.6210500779599021e-15  -2.8296117475570318e-15  -1.2056086292489913e-15  7.1025173985690826e-16  6.1238688824054381e-16  -9.5872302038155780e-16  -1.9088029259856171e-15  -3.6743213294432629e-15  1.2247737764814765e-15  4.1650008795670949e-16  9.1858033236110779e-16  3.0619344412036913e-16  -1.2839495121768070e-15  -1.4257085468975364e-15  -1.3778704985416608e-15  9.1858033236110700e-16  9.0934768115760536e-16  -5.0071882064803069e-16  -2.5115695318099960e-15  -1.1555579666323406e-31  -1.3074641694571282e-31  1.0269118648783498e-32  6.2936639254082841e-32  -2.7444501707518089e-31  6.7611748215067467e-32  6.4548745792353430e-32  1.1761929303222040e-31  -2.8888949165808516e-32  -1.0555577579814655e-32  -5.7777898331617032e-32  -6.9772075382730119e-14  -6.9933027590802067e-14  -7.0470756252973371e-14  -7.1475459805977602e-14  -7.2621670901658472e-14  -7.3923540294283698e-14  -7.4149952362566317e-14  -7.3145248809562124e-14  -7.2503508754397762e-14  -7.2264175526270894e-14  -6.8688387010143807e-14  -6.9020307086548057e-14  -6.9392152918344634e-14  -7.0278862209551819e-14  -7.1680434960169688e-14  -7.2910386557650654e-14  -7.3053404185264685e-14  -7.2166694894057462e-14  -7.1823452587783707e-14  -7.1635377331573199e-14  -6.6847017891903028e-14  -6.7504320233838878e-14  -6.8591254203705762e-14  -6.9106117663116370e-14  -7.0078637530892044e-14  -7.1222778551804533e-14  -7.1165571500758941e-14  -7.0536293939257010e-14  -7.0250258684028922e-14  -7.0343280339916134e-14  -6.3616775412760530e-14  -6.5902522804561410e-14  -6.8019183693249599e-14  -6.7904769591158389e-14  -6.8362425999523380e-14  -6.8820082407888345e-14  -6.9106117663116534e-14  -6.9163324714162101e-14  -6.8934496509979618e-14  -6.8481140557822263e-14  -6.0956575724054812e-14  -6.3328205507508105e-14  -6.5101624089922576e-14  -6.5444866396196306e-14  -6.5845315753515730e-14  -6.5330452294105084e-14  -6.5387659345150701e-14  -6.7275492029656306e-14  -6.7618734335930113e-14  -6.5592923752941808e-14  -5.9208444500048285e-14  -6.0296231802089922e-14  -6.1211544618820017e-14  -6.1554786925093735e-14  -6.1440372823002487e-14  -6.0868302312546224e-14  -6.0868302312546224e-14  -6.3042170252279967e-14  -6.4071897171101309e-14  -6.2400684126495065e-14  -5.5636176346643642e-14  -5.6291738228896217e-14  -5.6177324126804956e-14  -5.6634980535169960e-14  -5.6749394637261213e-14  -5.6749394637261201e-14  -5.6863808739352480e-14  -5.7550293351899941e-14  -5.8122363862356255e-14  -5.8144364624566096e-14  -5.2291925309413655e-14  -5.0571033124333512e-14  -4.9884548511785995e-14  -5.1028689532698534e-14  -5.1944002349428547e-14  -5.2172830553611061e-14  -5.2630486961976071e-14  -5.2630486961975989e-14  -5.3202557472432347e-14  -5.2595948130979993e-14  -4.7427560164351897e-14  -4.5765640836500959e-14  -4.4850328019770978e-14  -4.5651226734409724e-14  -4.6452125449048515e-14  -4.6223297244866001e-14  -4.6566539551139731e-14  -4.7596266469960985e-14  -4.8511579286691036e-14  -4.7427560164351941e-14  -3.9979001035976084e-14  -4.0731420344485792e-14  -4.0960248548668331e-14  -4.0960248548668331e-14  -4.1074662650759585e-14  -4.0388178038212061e-14  -3.9930521629847052e-14  -4.1303490854942049e-14  -4.1417904957033334e-14  -4.0587046679108848e-14  -3.2530441907600328e-14  -3.3294503708554404e-14  -3.3523331912736956e-14  -3.4438644729466944e-14  -3.4324230627375702e-14  -3.4781887035740705e-14  -3.3408917810645671e-14  -3.3065675504371902e-14  -3.3294503708554429e-14  -3.1770384853684440e-14  -2.5841939833140480e-14  -2.5171102460075546e-14  -2.4713446051710546e-14  -2.6315243480988073e-14  -2.7001728093535572e-14  -2.7459384501900585e-14  -2.6315243480988073e-14  -2.5399930664258042e-14  -2.4026961439163010e-14  -2.2801711617476894e-14  -1.9153437758680569e-14  -1.9221569151330381e-14  -1.9450397355512892e-14  -2.0365710172242918e-14  -2.1281022988972934e-14  -2.1281022988972927e-14  -1.9221569151330378e-14  -1.6933287109505337e-14  -1.4873833271862797e-14  -1.4593095435185193e-14  -1.4289072613618855e-14  -1.3958520455132799e-14  -1.4416176863497816e-14  -1.4416176863497816e-14  -1.5102661476045337e-14  -1.5789146088592835e-14  -1.2585551230037776e-14  -1.0297269188212714e-14  -9.8396127798477081e-15  -9.5767188793402923e-15  -8.6646504146412111e-15  -8.6954717589351748e-15  -8.4666435547526684e-15  -8.6954717589351779e-15  -9.1531281673001906e-15  -7.7801589422051573e-15  -5.2630486961976088e-15  -7.3225025338401430e-15  -8.2378153505701668e-15  -6.9925248960262388e-15  -5.7764336097608056e-15  -4.3477358794675874e-15  -2.9747666543725592e-15  -3.2035948585550628e-15  -2.7459384501900544e-15  -4.5765640836500894e-16  -2.2882820418250383e-16  -4.1189076752850803e-15  -6.1783615129276255e-15  -6.0804564313271678e-15  -6.0804564313271919e-16  -9.1531281673002064e-16  2.2388935603501665e-31  -1.6017974292775340e-15  -4.5765640836500973e-16  1.6017974292775349e-15  1.8306256334600397e-15  -4.5765640836500983e-16  -2.9747666543725647e-15  -4.2563195019290211e-15  2.4321825725308665e-15  1.1441410209125230e-15  -6.8648461254751380e-16  -1.8306256334600369e-15  -1.8306256334600369e-15  2.2882820418250462e-16  1.6017974292775326e-15  6.8648461254751331e-16  -2.2882820418250461e-15  -3.0402282156635827e-15  1.6892989357297135e-15  1.6017974292775341e-15  -4.5765640836501002e-16  -1.6017974292775347e-15  -1.8306256334600405e-15  -1.3729692250950296e-15  2.2882820418250496e-16  4.5765640836500953e-16  -4.5765640836500983e-16  -2.1281597509645102e-15  5.8903121940449433e-16  4.5888063415600842e-16  9.1776126831201685e-16  -4.5888063415600842e-16  -6.8832095123401269e-16  -1.1472015853900216e-15  -2.2944031707800451e-16  6.8832095123401259e-16  -3.4626387291455082e-16  -5.1902391743126535e-16  </DataArray> 
</PointData> 
</Piece>
</UnstructuredGrid>
</VTKFile>