<?xml version="1.0"?>
<VTKFile type="UnstructuredGrid"  version="0.1"  >
<UnstructuredGrid>
<Piece  NumberOfPoints="1661" NumberOfCells="3200">
<Points>
<DataArray  type="Float64"  NumberOfComponents="3"  format="ascii">-0.25 -1 0  -0.225 -1 0  -0.2 -1 0  -0.175 -1 0  -0.15 -1 0  -0.125 -1 0  -0.1 -1 0  -0.07500000000000001 -1 0  -0.04999999999999999 -1 0  -0.02499999999999999 -1 0  0 -1 0  0.02500000000000002 -1 0  0.04999999999999999 -1 0  0.07500000000000001 -1 0  0.09999999999999998 -1 0  0.125 -1 0  0.15 -1 0  0.175 -1 0  0.2 -1 0  0.225 -1 0  0.25 -1 0  -0.25 -0.975 0  -0.225 -0.975 0  -0.2 -0.975 0  -0.175 -0.975 0  -0.15 -0.975 0  -0.125 -0.975 0  -0.1 -0.975 0  -0.07500000000000001 -0.975 0  -0.04999999999999999 -0.975 0  -0.02499999999999999 -0.975 0  0 -0.975 0  0.02500000000000002 -0.975 0  0.04999999999999999 -0.975 0  0.07500000000000001 -0.975 0  0.09999999999999998 -0.975 0  0.125 -0.975 0  0.15 -0.975 0  0.175 -0.975 0  0.2 -0.975 0  0.225 -0.975 0  0.25 -0.975 0  -0.25 -0.95 0  -0.225 -0.95 0  -0.2 -0.95 0  -0.175 -0.95 0  -0.15 -0.95 0  -0.125 -0.95 0  -0.1 -0.95 0  -0.07500000000000001 -0.95 0  -0.04999999999999999 -0.95 0  -0.02499999999999999 -0.95 0  0 -0.95 0  0.02500000000000002 -0.95 0  0.04999999999999999 -0.95 0  0.07500000000000001 -0.95 0  0.09999999999999998 -0.95 0  0.125 -0.95 0  0.15 -0.95 0  0.175 -0.95 0  0.2 -0.95 0  0.225 -0.95 0  0.25 -0.95 0  -0.25 -0.925 0  -0.225 -0.925 0  -0.2 -0.925 0  -0.175 -0.925 0  -0.15 -0.925 0  -0.125 -0.925 0  -0.1 -0.925 0  -0.07500000000000001 -0.925 0  -0.04999999999999999 -0.925 0  -0.02499999999999999 -0.925 0  0 -0.925 0  0.02500000000000002 -0.925 0  0.04999999999999999 -0.925 0  0.07500000000000001 -0.925 0  0.09999999999999998 -0.925 0  0.125 -0.925 0  0.15 -0.925 0  0.175 -0.925 0  0.2 -0.925 0  0.225 -0.925 0  0.25 -0.925 0  -0.25 -0.9 0  -0.225 -0.9 0  -0.2 -0.9 0  -0.175 -0.9 0  -0.15 -0.9 0  -0.125 -0.9 0  -0.1 -0.9 0  -0.07500000000000001 -0.9 0  -0.04999999999999999 -0.9 0  -0.02499999999999999 -0.9 0  0 -0.9 0  0.02500000000000002 -0.9 0  0.04999999999999999 -0.9 0  0.07500000000000001 -0.9 0  0.09999999999999998 -0.9 0  0.125 -0.9 0  0.15 -0.9 0  0.175 -0.9 0  0.2 -0.9 0  0.225 -0.9 0  0.25 -0.9 0  -0.25 -0.875 0  -0.225 -0.875 0  -0.2 -0.875 0  -0.175 -0.875 0  -0.15 -0.875 0  -0.125 -0.875 0  -0.1 -0.875 0  -0.07500000000000001 -0.875 0  -0.04999999999999999 -0.875 0  -0.02499999999999999 -0.875 0  0 -0.875 0  0.02500000000000002 -0.875 0  0.04999999999999999 -0.875 0  0.07500000000000001 -0.875 0  0.09999999999999998 -0.875 0  0.125 -0.875 0  0.15 -0.875 0  0.175 -0.875 0  0.2 -0.875 0  0.225 -0.875 0  0.25 -0.875 0  -0.25 -0.85 0  -0.225 -0.85 0  -0.2 -0.85 0  -0.175 -0.85 0  -0.15 -0.85 0  -0.125 -0.85 0  -0.1 -0.85 0  -0.07500000000000001 -0.85 0  -0.04999999999999999 -0.85 0  -0.02499999999999999 -0.85 0  0 -0.85 0  0.02500000000000002 -0.85 0  0.04999999999999999 -0.85 0  0.07500000000000001 -0.85 0  0.09999999999999998 -0.85 0  0.125 -0.85 0  0.15 -0.85 0  0.175 -0.85 0  0.2 -0.85 0  0.225 -0.85 0  0.25 -0.85 0  -0.25 -0.825 0  -0.225 -0.825 0  -0.2 -0.825 0  -0.175 -0.825 0  -0.15 -0.825 0  -0.125 -0.825 0  -0.1 -0.825 0  -0.07500000000000001 -0.825 0  -0.04999999999999999 -0.825 0  -0.02499999999999999 -0.825 0  0 -0.825 0  0.02500000000000002 -0.825 0  0.04999999999999999 -0.825 0  0.07500000000000001 -0.825 0  0.09999999999999998 -0.825 0  0.125 -0.825 0  0.15 -0.825 0  0.175 -0.825 0  0.2 -0.825 0  0.225 -0.825 0  0.25 -0.825 0  -0.25 -0.8 0  -0.225 -0.8 0  -0.2 -0.8 0  -0.175 -0.8 0  -0.15 -0.8 0  -0.125 -0.8 0  -0.1 -0.8 0  -0.07500000000000001 -0.8 0  -0.04999999999999999 -0.8 0  -0.02499999999999999 -0.8 0  0 -0.8 0  0.02500000000000002 -0.8 0  0.04999999999999999 -0.8 0  0.07500000000000001 -0.8 0  0.09999999999999998 -0.8 0  0.125 -0.8 0  0.15 -0.8 0  0.175 -0.8 0  0.2 -0.8 0  0.225 -0.8 0  0.25 -0.8 0  -0.25 -0.775 0  -0.225 -0.775 0  -0.2 -0.775 0  -0.175 -0.775 0  -0.15 -0.775 0  -0.125 -0.775 0  -0.1 -0.775 0  -0.07500000000000001 -0.775 0  -0.04999999999999999 -0.775 0  -0.02499999999999999 -0.775 0  0 -0.775 0  0.02500000000000002 -0.775 0  0.04999999999999999 -0.775 0  0.07500000000000001 -0.775 0  0.09999999999999998 -0.775 0  0.125 -0.775 0  0.15 -0.775 0  0.175 -0.775 0  0.2 -0.775 0  0.225 -0.775 0  0.25 -0.775 0  -0.25 -0.75 0  -0.225 -0.75 0  -0.2 -0.75 0  -0.175 -0.75 0  -0.15 -0.75 0  -0.125 -0.75 0  -0.1 -0.75 0  -0.07500000000000001 -0.75 0  -0.04999999999999999 -0.75 0  -0.02499999999999999 -0.75 0  0 -0.75 0  0.02500000000000002 -0.75 0  0.04999999999999999 -0.75 0  0.07500000000000001 -0.75 0  0.09999999999999998 -0.75 0  0.125 -0.75 0  0.15 -0.75 0  0.175 -0.75 0  0.2 -0.75 0  0.225 -0.75 0  0.25 -0.75 0  -0.25 -0.725 0  -0.225 -0.725 0  -0.2 -0.725 0  -0.175 -0.725 0  -0.15 -0.725 0  -0.125 -0.725 0  -0.1 -0.725 0  -0.07500000000000001 -0.725 0  -0.04999999999999999 -0.725 0  -0.02499999999999999 -0.725 0  0 -0.725 0  0.02500000000000002 -0.725 0  0.04999999999999999 -0.725 0  0.07500000000000001 -0.725 0  0.09999999999999998 -0.725 0  0.125 -0.725 0  0.15 -0.725 0  0.175 -0.725 0  0.2 -0.725 0  0.225 -0.725 0  0.25 -0.725 0  -0.25 -0.7 0  -0.225 -0.7 0  -0.2 -0.7 0  -0.175 -0.7 0  -0.15 -0.7 0  -0.125 -0.7 0  -0.1 -0.7 0  -0.07500000000000001 -0.7 0  -0.04999999999999999 -0.7 0  -0.02499999999999999 -0.7 0  0 -0.7 0  0.02500000000000002 -0.7 0  0.04999999999999999 -0.7 0  0.07500000000000001 -0.7 0  0.09999999999999998 -0.7 0  0.125 -0.7 0  0.15 -0.7 0  0.175 -0.7 0  0.2 -0.7 0  0.225 -0.7 0  0.25 -0.7 0  -0.25 -0.675 0  -0.225 -0.675 0  -0.2 -0.675 0  -0.175 -0.675 0  -0.15 -0.675 0  -0.125 -0.675 0  -0.1 -0.675 0  -0.07500000000000001 -0.675 0  -0.04999999999999999 -0.675 0  -0.02499999999999999 -0.675 0  0 -0.675 0  0.02500000000000002 -0.675 0  0.04999999999999999 -0.675 0  0.07500000000000001 -0.675 0  0.09999999999999998 -0.675 0  0.125 -0.675 0  0.15 -0.675 0  0.175 -0.675 0  0.2 -0.675 0  0.225 -0.675 0  0.25 -0.675 0  -0.25 -0.65 0  -0.225 -0.65 0  -0.2 -0.65 0  -0.175 -0.65 0  -0.15 -0.65 0  -0.125 -0.65 0  -0.1 -0.65 0  -0.07500000000000001 -0.65 0  -0.04999999999999999 -0.65 0  -0.02499999999999999 -0.65 0  0 -0.65 0  0.02500000000000002 -0.65 0  0.04999999999999999 -0.65 0  0.07500000000000001 -0.65 0  0.09999999999999998 -0.65 0  0.125 -0.65 0  0.15 -0.65 0  0.175 -0.65 0  0.2 -0.65 0  0.225 -0.65 0  0.25 -0.65 0  -0.25 -0.625 0  -0.225 -0.625 0  -0.2 -0.625 0  -0.175 -0.625 0  -0.15 -0.625 0  -0.125 -0.625 0  -0.1 -0.625 0  -0.07500000000000001 -0.625 0  -0.04999999999999999 -0.625 0  -0.02499999999999999 -0.625 0  0 -0.625 0  0.02500000000000002 -0.625 0  0.04999999999999999 -0.625 0  0.07500000000000001 -0.625 0  0.09999999999999998 -0.625 0  0.125 -0.625 0  0.15 -0.625 0  0.175 -0.625 0  0.2 -0.625 0  0.225 -0.625 0  0.25 -0.625 0  -0.25 -0.6 0  -0.225 -0.6 0  -0.2 -0.6 0  -0.175 -0.6 0  -0.15 -0.6 0  -0.125 -0.6 0  -0.1 -0.6 0  -0.07500000000000001 -0.6 0  -0.04999999999999999 -0.6 0  -0.02499999999999999 -0.6 0  0 -0.6 0  0.02500000000000002 -0.6 0  0.04999999999999999 -0.6 0  0.07500000000000001 -0.6 0  0.09999999999999998 -0.6 0  0.125 -0.6 0  0.15 -0.6 0  0.175 -0.6 0  0.2 -0.6 0  0.225 -0.6 0  0.25 -0.6 0  -0.25 -0.575 0  -0.225 -0.575 0  -0.2 -0.575 0  -0.175 -0.575 0  -0.15 -0.575 0  -0.125 -0.575 0  -0.1 -0.575 0  -0.07500000000000001 -0.575 0  -0.04999999999999999 -0.575 0  -0.02499999999999999 -0.575 0  0 -0.575 0  0.02500000000000002 -0.575 0  0.04999999999999999 -0.575 0  0.07500000000000001 -0.575 0  0.09999999999999998 -0.575 0  0.125 -0.575 0  0.15 -0.575 0  0.175 -0.575 0  0.2 -0.575 0  0.225 -0.575 0  0.25 -0.575 0  -0.25 -0.55 0  -0.225 -0.55 0  -0.2 -0.55 0  -0.175 -0.55 0  -0.15 -0.55 0  -0.125 -0.55 0  -0.1 -0.55 0  -0.07500000000000001 -0.55 0  -0.04999999999999999 -0.55 0  -0.02499999999999999 -0.55 0  0 -0.55 0  0.02500000000000002 -0.55 0  0.04999999999999999 -0.55 0  0.07500000000000001 -0.55 0  0.09999999999999998 -0.55 0  0.125 -0.55 0  0.15 -0.55 0  0.175 -0.55 0  0.2 -0.55 0  0.225 -0.55 0  0.25 -0.55 0  -0.25 -0.525 0  -0.225 -0.525 0  -0.2 -0.525 0  -0.175 -0.525 0  -0.15 -0.525 0  -0.125 -0.525 0  -0.1 -0.525 0  -0.07500000000000001 -0.525 0  -0.04999999999999999 -0.525 0  -0.02499999999999999 -0.525 0  0 -0.525 0  0.02500000000000002 -0.525 0  0.04999999999999999 -0.525 0  0.07500000000000001 -0.525 0  0.09999999999999998 -0.525 0  0.125 -0.525 0  0.15 -0.525 0  0.175 -0.525 0  0.2 -0.525 0  0.225 -0.525 0  0.25 -0.525 0  -0.25 -0.5 0  -0.225 -0.5 0  -0.2 -0.5 0  -0.175 -0.5 0  -0.15 -0.5 0  -0.125 -0.5 0  -0.1 -0.5 0  -0.07500000000000001 -0.5 0  -0.04999999999999999 -0.5 0  -0.02499999999999999 -0.5 0  0 -0.5 0  0.02500000000000002 -0.5 0  0.04999999999999999 -0.5 0  0.07500000000000001 -0.5 0  0.09999999999999998 -0.5 0  0.125 -0.5 0  0.15 -0.5 0  0.175 -0.5 0  0.2 -0.5 0  0.225 -0.5 0  0.25 -0.5 0  -0.25 -0.475 0  -0.225 -0.475 0  -0.2 -0.475 0  -0.175 -0.475 0  -0.15 -0.475 0  -0.125 -0.475 0  -0.1 -0.475 0  -0.07500000000000001 -0.475 0  -0.04999999999999999 -0.475 0  -0.02499999999999999 -0.475 0  0 -0.475 0  0.02500000000000002 -0.475 0  0.04999999999999999 -0.475 0  0.07500000000000001 -0.475 0  0.09999999999999998 -0.475 0  0.125 -0.475 0  0.15 -0.475 0  0.175 -0.475 0  0.2 -0.475 0  0.225 -0.475 0  0.25 -0.475 0  -0.25 -0.45 0  -0.225 -0.45 0  -0.2 -0.45 0  -0.175 -0.45 0  -0.15 -0.45 0  -0.125 -0.45 0  -0.1 -0.45 0  -0.07500000000000001 -0.45 0  -0.04999999999999999 -0.45 0  -0.02499999999999999 -0.45 0  0 -0.45 0  0.02500000000000002 -0.45 0  0.04999999999999999 -0.45 0  0.07500000000000001 -0.45 0  0.09999999999999998 -0.45 0  0.125 -0.45 0  0.15 -0.45 0  0.175 -0.45 0  0.2 -0.45 0  0.225 -0.45 0  0.25 -0.45 0  -0.25 -0.425 0  -0.225 -0.425 0  -0.2 -0.425 0  -0.175 -0.425 0  -0.15 -0.425 0  -0.125 -0.425 0  -0.1 -0.425 0  -0.07500000000000001 -0.425 0  -0.04999999999999999 -0.425 0  -0.02499999999999999 -0.425 0  0 -0.425 0  0.02500000000000002 -0.425 0  0.04999999999999999 -0.425 0  0.07500000000000001 -0.425 0  0.
[...]
<PointData  Vectors="displacement"> 
<DataArray  type="Float64"  Name="displacement"  NumberOfComponents="3" format="ascii">1.8055593228630360e-33 1.5246593050577423e-18 0.0000000000000000e+00  -1.4444474582904291e-32 -6.3527471044072622e-19 0.0000000000000000e+00  3.1230533912646578e-32 -3.8513529320469022e-19 0.0000000000000000e+00  0.0000000000000000e+00 4.5739779151732280e-18 0.0000000000000000e+00  -2.8445305851503911e-32 -2.0406856158409880e-18 0.0000000000000000e+00  -1.4444474582904288e-32 5.0821976835258088e-19 0.0000000000000000e+00  8.6066802975107195e-32 -1.5144692315487852e-18 0.0000000000000000e+00  -5.7777898331617152e-32 6.3527471044072612e-19 0.0000000000000000e+00  8.6652988775473253e-32 1.7817151455325618e-18 0.0000000000000000e+00  -7.9444610205973610e-32 -1.7787691892340338e-18 0.0000000000000000e+00  -2.6885920587799670e-33 5.7151552191461107e-19 0.0000000000000000e+00  -1.4444474582904299e-32 3.8116482626443592e-19 0.0000000000000000e+00  -4.9998255238706199e-32 -3.8770562516977993e-19 0.0000000000000000e+00  -1.1555579666323426e-31 2.2869889575866132e-18 0.0000000000000000e+00  1.0813672548300756e-31 -1.2689149876368188e-18 0.0000000000000000e+00  -1.0833355937178206e-32 2.2869889575866117e-18 0.0000000000000000e+00  -6.6648166783705332e-33 6.2873373773050599e-19 0.0000000000000000e+00  4.1527864425849822e-32 -1.9058241313221781e-18 0.0000000000000000e+00  1.0974145389712367e-32 1.5723049083407965e-18 0.0000000000000000e+00  -3.6111186457260748e-33 2.0328790734103251e-18 0.0000000000000000e+00  1.6250033905767311e-32 -5.0821976835258049e-19 0.0000000000000000e+00  -7.2222372914521262e-33 -1.1677976124569212e-02 0.0000000000000000e+00  -8.5258529992404882e-17 -1.1677976124569200e-02 0.0000000000000000e+00  -1.7017961661762045e-16 -1.1677976124569190e-02 0.0000000000000000e+00  -2.5638630172775259e-16 -1.1677976124569224e-02 0.0000000000000000e+00  -3.3902368932470209e-16 -1.1677976124569219e-02 0.0000000000000000e+00  -4.1431501215716978e-16 -1.1677976124569247e-02 0.0000000000000000e+00  -4.8589108013014430e-16 -1.1677976124569266e-02 0.0000000000000000e+00  -5.4960613674514815e-16 -1.1677976124569294e-02 0.0000000000000000e+00  -6.0295123245328330e-16 -1.1677976124569337e-02 0.0000000000000000e+00  -6.4338645981915170e-16 -1.1677976124569380e-02 0.0000000000000000e+00  -6.6521673277592499e-16 -1.1677976124569450e-02 0.0000000000000000e+00  -6.5819898434654886e-16 -1.1677976124569507e-02 0.0000000000000000e+00  -6.2579936880347949e-16 -1.1677976124569557e-02 0.0000000000000000e+00  -5.7550128819076778e-16 -1.1677976124569606e-02 0.0000000000000000e+00  -5.1421626843003731e-16 -1.1677976124569635e-02 0.0000000000000000e+00  -4.4563015544710553e-16 -1.1677976124569674e-02 0.0000000000000000e+00  -3.7122126144830944e-16 -1.1677976124569694e-02 0.0000000000000000e+00  -2.8695180036056207e-16 -1.1677976124569714e-02 0.0000000000000000e+00  -1.9712455310555887e-16 -1.1677976124569748e-02 0.0000000000000000e+00  -1.0065310097787256e-16 -1.1677976124569753e-02 0.0000000000000000e+00  -2.3653885074421439e-32 -1.1677976124569762e-02 0.0000000000000000e+00  6.9884058973971564e-33 -2.3366573387225628e-02 0.0000000000000000e+00  -1.5750666644396820e-16 -2.3366573387225646e-02 0.0000000000000000e+00  -3.1421189961084568e-16 -2.3366573387225649e-02 0.0000000000000000e+00  -4.6655934834233813e-16 -2.3366573387225642e-02 0.0000000000000000e+00  -6.1938871204235608e-16 -2.3366573387225694e-02 0.0000000000000000e+00  -7.5882366260329848e-16 -2.3366573387225718e-02 0.0000000000000000e+00  -8.8698188446754721e-16 -2.3366573387225812e-02 0.0000000000000000e+00  -1.0028476304247885e-15 -2.3366573387225836e-02 0.0000000000000000e+00  -1.0952381112328093e-15 -2.3366573387225930e-02 0.0000000000000000e+00  -1.1653645564254042e-15 -2.3366573387226048e-02 0.0000000000000000e+00  -1.1961799047919690e-15 -2.3366573387226121e-02 0.0000000000000000e+00  -1.1797520654536651e-15 -2.3366573387226294e-02 0.0000000000000000e+00  -1.1276445417592911e-15 -2.3366573387226412e-02 0.0000000000000000e+00  -1.0364078250484660e-15 -2.3366573387226541e-02 0.0000000000000000e+00  -9.3278673048025843e-16 -2.3366573387226565e-02 0.0000000000000000e+00  -8.1257817595111472e-16 -2.3366573387226631e-02 0.0000000000000000e+00  -6.7201256063079387e-16 -2.3366573387226721e-02 0.0000000000000000e+00  -5.1676314441442812e-16 -2.3366573387226759e-02 0.0000000000000000e+00  -3.4775751242291533e-16 -2.3366573387226832e-02 0.0000000000000000e+00  -1.7515124899737649e-16 -2.3366573387226856e-02 0.0000000000000000e+00  4.3075486702589515e-32 -2.3366573387226870e-02 0.0000000000000000e+00  1.8055593228630336e-32 -3.5076396660849697e-02 0.0000000000000000e+00  -2.2300147604135349e-16 -3.5076396660849683e-02 0.0000000000000000e+00  -4.3692531137130160e-16 -3.5076396660849683e-02 0.0000000000000000e+00  -6.4778890058884672e-16 -3.5076396660849711e-02 0.0000000000000000e+00  -8.5242701887521478e-16 -3.5076396660849773e-02 0.0000000000000000e+00  -1.0461428489272734e-15 -3.5076396660849850e-02 0.0000000000000000e+00  -1.2193673422848869e-15 -3.5076396660849912e-02 0.0000000000000000e+00  -1.3714644439019385e-15 -3.5076396660850058e-02 0.0000000000000000e+00  -1.4939411941823711e-15 -3.5076396660850183e-02 0.0000000000000000e+00  -1.5824905480178824e-15 -3.5076396660850342e-02 0.0000000000000000e+00  -1.6280054169740122e-15 -3.5076396660850544e-02 0.0000000000000000e+00  -1.6056611004479927e-15 -3.5076396660850787e-02 0.0000000000000000e+00  -1.5328571731914624e-15 -3.5076396660850995e-02 0.0000000000000000e+00  -1.4178516855027640e-15 -3.5076396660851140e-02 0.0000000000000000e+00  -1.2804642423094752e-15 -3.5076396660851279e-02 0.0000000000000000e+00  -1.1102111134724187e-15 -3.5076396660851362e-02 0.0000000000000000e+00  -9.0879620980399231e-16 -3.5076396660851439e-02 0.0000000000000000e+00  -6.9689667722558029e-16 -3.5076396660851550e-02 0.0000000000000000e+00  -4.7780174227829811e-16 -3.5076396660851619e-02 0.0000000000000000e+00  -2.4166372063957932e-16 -3.5076396660851668e-02 0.0000000000000000e+00  5.4166779685890986e-32 -3.5076396660851709e-02 0.0000000000000000e+00  -4.5194525179652144e-32 -4.6818018311437948e-02 0.0000000000000000e+00  -2.7146421058360917e-16 -4.6818018311437955e-02 0.0000000000000000e+00  -5.3581328269150094e-16 -4.6818018311438031e-02 0.0000000000000000e+00  -7.9661549531319764e-16 -4.6818018311438003e-02 0.0000000000000000e+00  -1.0486234843824931e-15 -4.6818018311438024e-02 0.0000000000000000e+00  -1.2773089110317554e-15 -4.6818018311438218e-02 0.0000000000000000e+00  -1.4839959995467105e-15 -4.6818018311438281e-02 0.0000000000000000e+00  -1.6559484661227996e-15 -4.6818018311438510e-02 0.0000000000000000e+00  -1.8069986253221742e-15 -4.6818018311438662e-02 0.0000000000000000e+00  -1.9231985920310632e-15 -4.6818018311438878e-02 0.0000000000000000e+00  -1.9713036006165272e-15 -4.6818018311439225e-02 0.0000000000000000e+00  -1.9480573508158554e-15 -4.6818018311439530e-02 0.0000000000000000e+00  -1.8651563939524302e-15 -4.6818018311439814e-02 0.0000000000000000e+00  -1.7386671426155855e-15 -4.6818018311440078e-02 0.0000000000000000e+00  -1.5651623452318570e-15 -4.6818018311440203e-02 0.0000000000000000e+00  -1.3398026402563113e-15 -4.6818018311440349e-02 0.0000000000000000e+00  -1.1054075498988262e-15 -4.6818018311440515e-02 0.0000000000000000e+00  -8.5160083721276058e-16 -4.6818018311440633e-02 0.0000000000000000e+00  -5.7749072666139403e-16 -4.6818018311440689e-02 0.0000000000000000e+00  -2.9488001370915847e-16 -4.6818018311440758e-02 0.0000000000000000e+00  8.9579628039395626e-32 -4.6818018311440772e-02 0.0000000000000000e+00  2.8888949165808571e-32 -5.8601962003470197e-02 0.0000000000000000e+00  -3.0178652303821717e-16 -5.8601962003470252e-02 0.0000000000000000e+00  -6.1595346776057273e-16 -5.8601962003470148e-02 0.0000000000000000e+00  -9.2117650137553395e-16 -5.8601962003470308e-02 0.0000000000000000e+00  -1.1940314184508384e-15 -5.8601962003470419e-02 0.0000000000000000e+00  -1.4565021766277509e-15 -5.8601962003470523e-02 0.0000000000000000e+00  -1.6942876615148151e-15 -5.8601962003470731e-02 0.0000000000000000e+00  -1.8943212153853879e-15 -5.8601962003470870e-02 0.0000000000000000e+00  -2.0562923801239246e-15 -5.8601962003471113e-02 0.0000000000000000e+00  -2.1727836764592975e-15 -5.8601962003471453e-02 0.0000000000000000e+00  -2.2322494294339277e-15 -5.8601962003471855e-02 0.0000000000000000e+00  -2.2175371484096575e-15 -5.8601962003472251e-02 0.0000000000000000e+00  -2.1264638728695264e-15 -5.8601962003472653e-02 0.0000000000000000e+00  -1.9843407865028945e-15 -5.8601962003472959e-02 0.0000000000000000e+00  -1.7795796010654108e-15 -5.8601962003473208e-02 0.0000000000000000e+00  -1.5376564541148678e-15 -5.8601962003473396e-02 0.0000000000000000e+00  -1.2770008150463175e-15 -5.8601962003473583e-02 0.0000000000000000e+00  -9.7149598458480223e-16 -5.8601962003473680e-02 0.0000000000000000e+00  -6.5926100690090008e-16 -5.8601962003473819e-02 0.0000000000000000e+00  -3.3433171434858705e-16 -5.8601962003473909e-02 0.0000000000000000e+00  -4.0778927587582145e-32 -5.8601962003473958e-02 0.0000000000000000e+00  -2.9020774421852264e-32 -7.0438686575806431e-02 0.0000000000000000e+00  -3.4464600496682235e-16 -7.0438686575806389e-02 0.0000000000000000e+00  -6.7411123639082823e-16 -7.0438686575806361e-02 0.0000000000000000e+00  -9.9424156662783191e-16 -7.0438686575806486e-02 0.0000000000000000e+00  -1.3077930945888766e-15 -7.0438686575806625e-02 0.0000000000000000e+00  -1.5997944999800027e-15 -7.0438686575806805e-02 0.0000000000000000e+00  -1.8770473875385422e-15 -7.0438686575806916e-02 0.0000000000000000e+00  -2.0913014719719302e-15 -7.0438686575807277e-02 0.0000000000000000e+00  -2.2582077819442590e-15 -7.0438686575807569e-02 0.0000000000000000e+00  -2.3712803209540074e-15 -7.0438686575807957e-02 0.0000000000000000e+00  -2.4209501386996109e-15 -7.0438686575808360e-02 0.0000000000000000e+00  -2.4114306241402352e-15 -7.0438686575808984e-02 0.0000000000000000e+00  -2.3254327884065624e-15 -7.0438686575809525e-02 0.0000000000000000e+00  -2.1678902806606570e-15 -7.0438686575809761e-02 0.0000000000000000e+00  -1.9526193811507251e-15 -7.0438686575810081e-02 0.0000000000000000e+00  -1.6991830410192246e-15 -7.0438686575810358e-02 0.0000000000000000e+00  -1.3985102225522073e-15 -7.0438686575810608e-02 0.0000000000000000e+00  -1.0732364637471724e-15 -7.0438686575810844e-02 0.0000000000000000e+00  -7.2432668341226506e-16 -7.0438686575810941e-02 0.0000000000000000e+00  -3.5871388639834683e-16 -7.0438686575810996e-02 0.0000000000000000e+00  3.1984193719287966e-32 -7.0438686575811080e-02 0.0000000000000000e+00  9.7500203434603815e-32 -8.2338570011552453e-02 0.0000000000000000e+00  -3.6725602159110193e-16 -8.2338570011552537e-02 0.0000000000000000e+00  -7.2431364801336057e-16 -8.2338570011552495e-02 0.0000000000000000e+00  -1.0756804719964193e-15 -8.2338570011552550e-02 0.0000000000000000e+00  -1.4226794773500580e-15 -8.2338570011552786e-02 0.0000000000000000e+00  -1.7377773618529929e-15 -8.2338570011552925e-02 0.0000000000000000e+00  -2.0132533140703660e-15 -8.2338570011553147e-02 0.0000000000000000e+00  -2.2578035136327612e-15 -8.2338570011553480e-02 0.0000000000000000e+00  -2.4326810878350258e-15 -8.2338570011553813e-02 0.0000000000000000e+00  -2.5465074523506391e-15 -8.2338570011554313e-02 0.0000000000000000e+00  -2.5927362729592921e-15 -8.2338570011555021e-02 0.0000000000000000e+00  -2.5604488682897529e-15 -8.2338570011555506e-02 0.0000000000000000e+00  -2.4811098617130085e-15 -8.2338570011556117e-02 0.0000000000000000e+00  -2.3084994297130357e-15 -8.2338570011556603e-02 0.0000000000000000e+00  -2.0850857253246459e-15 -8.2338570011557033e-02 0.0000000000000000e+00  -1.7990251839410304e-15 -8.2338570011557269e-02 0.0000000000000000e+00  -1.4874551976808550e-15 -8.2338570011557560e-02 0.0000000000000000e+00  -1.1518823056615881e-15 -8.2338570011557768e-02 0.0000000000000000e+00  -7.7226598344709591e-16 -8.2338570011558004e-02 0.0000000000000000e+00  -3.7746949356286345e-16 -8.2338570011558074e-02 0.0000000000000000e+00  5.7777898331617054e-32 -8.2338570011558074e-02 0.0000000000000000e+00  -2.5574099672489040e-32 -9.4311893525272722e-02 0.0000000000000000e+00  -3.9512448219995422e-16 -9.4311893525272764e-02 0.0000000000000000e+00  -7.8367052729559310e-16 -9.4311893525272736e-02 0.0000000000000000e+00  -1.1560207764534205e-15 -9.4311893525272722e-02 0.0000000000000000e+00  -1.5192365805382799e-15 -9.4311893525273013e-02 0.0000000000000000e+00  -1.8519669035128494e-15 -9.4311893525273194e-02 0.0000000000000000e+00  -2.1334604492317829e-15 -9.4311893525273457e-02 0.0000000000000000e+00  -2.3929979859285926e-15 -9.4311893525273874e-02 0.0000000000000000e+00  -2.5619686180985655e-15 -9.4311893525274332e-02 0.0000000000000000e+00  -2.6625214925821439e-15 -9.4311893525274970e-02 0.0000000000000000e+00  -2.7344806746595896e-15 -9.4311893525275595e-02 0.0000000000000000e+00  -2.7079387364810029e-15 -9.4311893525276302e-02 0.0000000000000000e+00  -2.5987225982738206e-15 -9.4311893525276969e-02 0.0000000000000000e+00  -2.4286486497083013e-15 -9.4311893525277524e-02 0.0000000000000000e+00  -2.1816730232263788e-15 -9.4311893525277954e-02 0.0000000000000000e+00  -1.8942955163888891e-15 -9.4311893525278315e-02 0.0000000000000000e+00  -1.5696111533667152e-15 -9.4311893525278551e-02 0.0000000000000000e+00  -1.1893054787740165e-15 -9.4311893525278898e-02 0.0000000000000000e+00  -8.0085841802460912e-16 -9.4311893525279106e-02 0.0000000000000000e+00  -4.1579522253027189e-16 -9.4311893525279300e-02 0.0000000000000000e+00  1.0543935583874893e-31 -9.4311893525279300e-02 0.0000000000000000e+00  -7.2222372914521262e-33 -1.0636882579084736e-01 0.0000000000000000e+00  -4.2798246581023184e-16 -1.0636882579084724e-01 0.0000000000000000e+00  -8.3647734881209570e-16 -1.0636882579084728e-01 0.0000000000000000e+00  -1.2092746597804280e-15 -1.0636882579084746e-01 0.0000000000000000e+00  -1.5917175914427110e-15 -1.0636882579084755e-01 0.0000000000000000e+00  -1.9348615443340607e-15 -1.0636882579084785e-01 0.0000000000000000e+00  -2.2379328951001754e-15 -1.0636882579084807e-01 0.0000000000000000e+00  -2.4764864421316505e-15 -1.0636882579084861e-01 0.0000000000000000e+00  -2.6613403252664365e-15 -1.0636882579084922e-01 0.0000000000000000e+00  -2.7980526115551061e-15 -1.0636882579084975e-01 0.0000000000000000e+00  -2.8395692683634168e-15 -1.0636882579085057e-01 0.0000000000000000e+00  -2.8123396799416238e-15 -1.0636882579085134e-01 0.0000000000000000e+00  -2.6959408536173067e-15 -1.0636882579085212e-01 0.0000000000000000e+00  -2.5135504838384141e-15 -1.0636882579085277e-01 0.0000000000000000e+00  -2.2823410939269789e-15 -1.0636882579085331e-01 0.0000000000000000e+00  -1.9819399031839953e-15 -1.0636882579085358e-01 0.0000000000000000e+00  -1.6373627918221247e-15 -1.0636882579085391e-01 0.0000000000000000e+00  -1.2338730032106681e-15 -1.0636882579085444e-01 0.0000000000000000e+00  -8.3176441294275876e-16 -1.0636882579085452e-01 0.0000000000000000e+00  -4.2286600859152463e-16 -1.0636882579085478e-01 0.0000000000000000e+00  1.4163017154279233e-31 -1.0636882579085481e-01 0.0000000000000000e+00  1.4647483669141139e-32 -1.1851940733317426e-01 0.0000000000000000e+00  -4.5784544203889006e-16 -1.1851940733317436e-01 0.0000000000000000e+00  -8.8728432140729729e-16 -1.1851940733317434e-01 0.0000000000000000e+00  -1.2765066920853216e-15 -1.1851940733317452e-01 0.0000000000000000e+00  -1.6508482595481891e-15 -1.1851940733317459e-01 0.0000000000000000e+00  -2.0027038116404671e-15 -1.1851940733317502e-01 0.0000000000000000e+00  -2.3079337551225398e-15 -1.1851940733317542e-01 0.0000000000000000e+00  -2.5437335091843996e-15 -1.1851940733317584e-01 0.0000000000000000e+00  -2.7446490742499612e-15 -1.1851940733317641e-01 0.0000000000000000e+00  -2.8566490591507354e-15 -1.1851940733317720e-01 0.0000000000000000e+00  -2.9165364268480657e-15 -1.1851940733317802e-01 0.0000000000000000e+00  -2.8940415046066054e-15 -1.1851940733317907e-01 0.0000000000000000e+00  -2.7693836921583453e-15 -1.1851940733317975e-01 0.0000000000000000e+00  -2.5798861834339948e-15 -1.1851940733318056e-01 0.0000000000000000e+00  -2.3397151379799633e-15 -1.1851940733318117e-01 0.0000000000000000e+00  -2.0437722211702594e-15 -1.1851940733318149e-01 0.0000000000000000e+00  -1.6800822854246050e-15 -1.1851940733318213e-01 0.0000000000000000e+00  -1.2807020919684713e-15 -1.1851940733318235e-01 0.0000000000000000e+00  -8.6895246284856421e-16 -1.1851940733318263e-01 0.0000000000000000e+00  -4.4353125280161007e-16 -1.1851940733318270e-01 0.0000000000000000e+00  1.1865104121671373e-32 -1.1851940733318279e-01 0.0000000000000000e+00  1.4444474582904252e-32 -1.3077353510679920e-01 0.0000000000000000e+00  -4.8255007465080530e-16 -1.3077353510679915e-01 0.0000000000000000e+00  -9.1445876335663875e-16 -1.3077353510679926e-01 0.0000000000000000e+00  -1.3372506505068765e-15 -1.3077353510679948e-01 0.0000000000000000e+00  -1.7148956994148777e-15 -1.3077353510679979e-01 0.0000000000000000e+00  -2.0521413031660656e-15 -1.3077353510680007e-01 0.0000000000000000e+00  -2.3553114370415524e-15 -1.3077353510680043e-01 0.0000000000000000e+00  -2.5802795982338709e-15 -1.3077353510680098e-01 0.0000000000000000e+00  -2.7863840970509916e-15 -1.3077353510680181e-01 0.0000000000000000e+00  -2.9399290221801802e-15 -1.3077353510680248e-01 0.0000000000000000e+00  -2.9738293959447869e-15 -1.3077353510680340e-01 0.0000000000000000e+00  -2.9545589884990358e-15 -1.3077353510680442e-01 0.0000000000000000e+00  -2.8460552648649324e-15 -1.3077353510680545e-01 0.0000000000000000e+00  -2.6441927194306475e-15 -1.3077353510680623e-01 0.0000000000000000e+00  -2.3991971308959469e-15 -1.3077353510680673e-01 0.0000000000000000e+00  -2.0802048878418845e-15 -1.3077353510680742e-01 0.0000000000000000e+00  -1.7144650752338879e-15 -1.3077353510680784e-01 0.0000000000000000e+00  -1.3305868265842441e-15 -1.3077353510680828e-01 0.0000000000000000e+00  -9.0458031207800689e-16 -1.3077353510680856e-01 0.0000000000000000e+00  -4.5655369941788092e-16 -1.3077353510680867e-01 0.0000000000000000e+00  3.6111186457260612e-32 -1.3077353510680884e-01 0.0000000000000000e+00  3.9383762729949921e-32 -1.4314094728441204e-01 0.0000000000000000e+00  -4.7218054530939619e-16 -1.4314094728441215e-01 0.0000000000000000e+00  -9.4273959149525595e-16 -1.4314094728441223e-01 0.0000000000000000e+00  -1.4110285389046659e-15 -1.4314094728441248e-01 0.0000000000000000e+00  -1.7820602084136827e-15 -1.4314094728441276e-01 0.0000000000000000e+00  -2.1070101495562889e-15 -1.4314094728441304e-01 0.0000000000000000e+00  -2.4064668519747378e-15 -1.4314094728441382e-01 0.0000000000000000e+00  -2.6333598723920857e-15 -1.4314094728441409e-01 0.0000000000000000e+00  -2.8296240737277666e-15 -1.4314094728441470e-01 0.0000000000000000e+00  -3.0028945559514784e-15 -1.4314094728441593e-01 0.0000000000000000e+00  -3.0762608469442478e-15 -1.4314094728441690e-01 0.0000000000000000e+00  -3.0204807406953249e-15 -1.4314094728441792e-01 0.0000000000000000e+00  -2.9065912322124160e-15 -1.4314094728441895e-01 0.0000000000000000e+00  -2.7100216830161378e-15 -1.4314094728441984e-01 0.0000000000000000e+00  -2.4369920266078549e-15 -1.4314094728442073e-01 0.0000000000000000e+00  -2.1218528872602031e-15 -1.4314094728442101e-01 0.0000000000000000e+00  -1.7605156503946534e-15 -1.4314094728442178e-01 0.0000000000000000e+00  -1.3658821618078740e-15 -1.4314094728442206e-01 0.0000000000000000e+00  -9.2857849913361662e-16 -1.4314094728442237e-01 0.0000000000000000e+00  -4.6046886830559439e-16 -1.4314094728442264e-01 0.0000000000000000e+00  6.5220904406236214e-32 -1.4314094728442278e-01 0.0000000000000000e+00  7.2222372914521344e-33 -1.5563120827799037e-01 0.0000000000000000e+00  -4.7150853684789002e-16 -1.5563120827799043e-01 0.0000000000000000e+00  -9.5560348455659583e-16 -1.5563120827799054e-01 0.0000000000000000e+00  -1.3927833919252826e-15 -1.5563120827799071