<?xml version="1.0"?>
<VTKFile type="UnstructuredGrid"  version="0.1"  >
<UnstructuredGrid>
<Piece  NumberOfPoints="1091" NumberOfCells="2050">
<Points>
<DataArray  type="Float64"  NumberOfComponents="3"  format="ascii">-0.5 -1 0  -0.4 -1 0  -0.3 -1 0  -0.2 -1 0  -0.09999999999999998 -1 0  0 -1 0  0.09999999999999998 -1 0  0.2 -1 0  0.3 -1 0  0.4 -1 0  0.5 -1 0  -0.5 -0.98 0  -0.4 -0.98 0  -0.3 -0.98 0  -0.2 -0.98 0  -0.09999999999999998 -0.98 0  0 -0.98 0  0.09999999999999998 -0.98 0  0.2 -0.98 0  0.3 -0.98 0  0.4 -0.98 0  0.5 -0.98 0  -0.5 -0.96 0  -0.4 -0.96 0  -0.3 -0.96 0  -0.2 -0.96 0  -0.09999999999999998 -0.96 0  0 -0.96 0  0.09999999999999998 -0.96 0  0.2 -0.96 0  0.3 -0.96 0  0.4 -0.96 0  0.5 -0.96 0  -0.5 -0.9399999999999999 0  -0.4 -0.9399999999999999 0  -0.3 -0.9399999999999999 0  -0.2 -0.9399999999999999 0  -0.09999999999999998 -0.9399999999999999 0  0 -0.9399999999999999 0  0.09999999999999998 -0.9399999999999999 0  0.2 -0.9399999999999999 0  0.3 -0.9399999999999999 0  0.4 -0.9399999999999999 0  0.5 -0.9399999999999999 0  -0.5 -0.92 0  -0.4 -0.92 0  -0.3 -0.92 0  -0.2 -0.92 0  -0.09999999999999998 -0.92 0  0 -0.92 0  0.09999999999999998 -0.92 0  0.2 -0.92 0  0.3 -0.92 0  0.4 -0.92 0  0.5 -0.92 0  -0.5 -0.9 0  -0.4 -0.9 0  -0.3 -0.9 0  -0.2 -0.9 0  -0.09999999999999998 -0.9 0  0 -0.9 0  0.09999999999999998 -0.9 0  0.2 -0.9 0  0.3 -0.9 0  0.4 -0.9 0  0.5 -0.9 0  -0.5 -0.88 0  -0.4 -0.88 0  -0.3 -0.88 0  -0.2 -0.88 0  -0.09999999999999998 -0.88 0  0 -0.88 0  0.09999999999999998 -0.88 0  0.2 -0.88 0  0.3 -0.88 0  0.4 -0.88 0  0.5 -0.88 0  -0.5 -0.86 0  -0.4 -0.86 0  -0.3 -0.86 0  -0.2 -0.86 0  -0.09999999999999998 -0.86 0  0 -0.86 0  0.09999999999999998 -0.86 0  0.2 -0.86 0  0.3 -0.86 0  0.4 -0.86 0  0.5 -0.86 0  -0.5 -0.84 0  -0.4 -0.84 0  -0.3 -0.84 0  -0.2 -0.84 0  -0.09999999999999998 -0.84 0  0 -0.84 0  0.09999999999999998 -0.84 0  0.2 -0.84 0  0.3 -0.84 0  0.4 -0.84 0  0.5 -0.84 0  -0.5 -0.8200000000000001 0  -0.4 -0.8200000000000001 0  -0.3 -0.8200000000000001 0  -0.2 -0.8200000000000001 0  -0.09999999999999998 -0.8200000000000001 0  0 -0.8200000000000001 0  0.09999999999999998 -0.8200000000000001 0  0.2 -0.8200000000000001 0  0.3 -0.8200000000000001 0  0.4 -0.8200000000000001 0  0.5 -0.8200000000000001 0  -0.5 -0.8 0  -0.4 -0.8 0  -0.3 -0.8 0  -0.2 -0.8 0  -0.09999999999999998 -0.8 0  0 -0.8 0  0.09999999999999998 -0.8 0  0.2 -0.8 0  0.3 -0.8 0  0.4 -0.8 0  0.5 -0.8 0  -0.5 -0.78 0  -0.4 -0.78 0  -0.3 -0.78 0  -0.2 -0.78 0  -0.09999999999999998 -0.78 0  0 -0.78 0  0.09999999999999998 -0.78 0  0.2 -0.78 0  0.3 -0.78 0  0.4 -0.78 0  0.5 -0.78 0  -0.5 -0.76 0  -0.4 -0.76 0  -0.3 -0.76 0  -0.2 -0.76 0  -0.09999999999999998 -0.76 0  0 -0.76 0  0.09999999999999998 -0.76 0  0.2 -0.76 0  0.3 -0.76 0  0.4 -0.76 0  0.5 -0.76 0  -0.5 -0.74 0  -0.4 -0.74 0  -0.3 -0.74 0  -0.2 -0.74 0  -0.09999999999999998 -0.74 0  0 -0.74 0  0.09999999999999998 -0.74 0  0.2 -0.74 0  0.3 -0.74 0  0.4 -0.74 0  0.5 -0.74 0  -0.5 -0.72 0  -0.4 -0.72 0  -0.3 -0.72 0  -0.2 -0.72 0  -0.09999999999999998 -0.72 0  0 -0.72 0  0.09999999999999998 -0.72 0  0.2 -0.72 0  0.3 -0.72 0  0.4 -0.72 0  0.5 -0.72 0  -0.5 -0.7 0  -0.4 -0.7 0  -0.3 -0.7 0  -0.2 -0.7 0  -0.09999999999999998 -0.7 0  0 -0.7 0  0.09999999999999998 -0.7 0  0.2 -0.7 0  0.3 -0.7 0  0.4 -0.7 0  0.5 -0.7 0  -0.5 -0.6799999999999999 0  -0.4 -0.6799999999999999 0  -0.3 -0.6799999999999999 0  -0.2 -0.6799999999999999 0  -0.09999999999999998 -0.6799999999999999 0  0 -0.6799999999999999 0  0.09999999999999998 -0.6799999999999999 0  0.2 -0.6799999999999999 0  0.3 -0.6799999999999999 0  0.4 -0.6799999999999999 0  0.5 -0.6799999999999999 0  -0.5 -0.6599999999999999 0  -0.4 -0.6599999999999999 0  -0.3 -0.6599999999999999 0  -0.2 -0.6599999999999999 0  -0.09999999999999998 -0.6599999999999999 0  0 -0.6599999999999999 0  0.09999999999999998 -0.6599999999999999 0  0.2 -0.6599999999999999 0  0.3 -0.6599999999999999 0  0.4 -0.6599999999999999 0  0.5 -0.6599999999999999 0  -0.5 -0.64 0  -0.4 -0.64 0  -0.3 -0.64 0  -0.2 -0.64 0  -0.09999999999999998 -0.64 0  0 -0.64 0  0.09999999999999998 -0.64 0  0.2 -0.64 0  0.3 -0.64 0  0.4 -0.64 0  0.5 -0.64 0  -0.5 -0.62 0  -0.4 -0.62 0  -0.3 -0.62 0  -0.2 -0.62 0  -0.09999999999999998 -0.62 0  0 -0.62 0  0.09999999999999998 -0.62 0  0.2 -0.62 0  0.3 -0.62 0  0.4 -0.62 0  0.5 -0.62 0  -0.5 -0.6 0  -0.4 -0.6 0  -0.3 -0.6 0  -0.2 -0.6 0  -0.09999999999999998 -0.6 0  0 -0.6 0  0.09999999999999998 -0.6 0  0.2 -0.6 0  0.3 -0.6 0  0.4 -0.6 0  0.5 -0.6 0  -0.5 -0.5800000000000001 0  -0.4 -0.5800000000000001 0  -0.3 -0.5800000000000001 0  -0.2 -0.5800000000000001 0  -0.09999999999999998 -0.5800000000000001 0  0 -0.5800000000000001 0  0.09999999999999998 -0.5800000000000001 0  0.2 -0.5800000000000001 0  0.3 -0.5800000000000001 0  0.4 -0.5800000000000001 0  0.5 -0.5800000000000001 0  -0.5 -0.5600000000000001 0  -0.4 -0.5600000000000001 0  -0.3 -0.5600000000000001 0  -0.2 -0.5600000000000001 0  -0.09999999999999998 -0.5600000000000001 0  0 -0.5600000000000001 0  0.09999999999999998 -0.5600000000000001 0  0.2 -0.5600000000000001 0  0.3 -0.5600000000000001 0  0.4 -0.5600000000000001 0  0.5 -0.5600000000000001 0  -0.5 -0.54 0  -0.4 -0.54 0  -0.3 -0.54 0  -0.2 -0.54 0  -0.09999999999999998 -0.54 0  0 -0.54 0  0.09999999999999998 -0.54 0  0.2 -0.54 0  0.3 -0.54 0  0.4 -0.54 0  0.5 -0.54 0  -0.5 -0.52 0  -0.4 -0.52 0  -0.3 -0.52 0  -0.2 -0.52 0  -0.09999999999999998 -0.52 0  0 -0.52 0  0.09999999999999998 -0.52 0  0.2 -0.52 0  0.3 -0.52 0  0.4 -0.52 0  0.5 -0.52 0  -0.5 -0.5 0  -0.4 -0.5 0  -0.3 -0.5 0  -0.2 -0.5 0  -0.09999999999999998 -0.5 0  0 -0.5 0  0.09999999999999998 -0.5 0  0.2 -0.5 0  0.3 -0.5 0  0.4 -0.5 0  0.5 -0.5 0  -0.5 -0.48 0  -0.4 -0.48 0  -0.3 -0.48 0  -0.2 -0.48 0  -0.09999999999999998 -0.48 0  0 -0.48 0  0.09999999999999998 -0.48 0  0.2 -0.48 0  0.3 -0.48 0  0.4 -0.48 0  0.5 -0.48 0  -0.5 -0.46 0  -0.4 -0.46 0  -0.3 -0.46 0  -0.2 -0.46 0  -0.09999999999999998 -0.46 0  0 -0.46 0  0.09999999999999998 -0.46 0  0.2 -0.46 0  0.3 -0.46 0  0.4 -0.46 0  0.5 -0.46 0  -0.5 -0.4399999999999999 0  -0.4 -0.4399999999999999 0  -0.3 -0.4399999999999999 0  -0.2 -0.4399999999999999 0  -0.09999999999999998 -0.4399999999999999 0  0 -0.4399999999999999 0  0.09999999999999998 -0.4399999999999999 0  0.2 -0.4399999999999999 0  0.3 -0.4399999999999999 0  0.4 -0.4399999999999999 0  0.5 -0.4399999999999999 0  -0.5 -0.42 0  -0.4 -0.42 0  -0.3 -0.42 0  -0.2 -0.42 0  -0.09999999999999998 -0.42 0  0 -0.42 0  0.09999999999999998 -0.42 0  0.2 -0.42 0  0.3 -0.42 0  0.4 -0.42 0  0.5 -0.42 0  -0.5 -0.4 0  -0.4 -0.4 0  -0.3 -0.4 0  -0.2 -0.4 0  -0.09999999999999998 -0.4 0  0 -0.4 0  0.09999999999999998 -0.4 0  0.2 -0.4 0  0.3 -0.4 0  0.4 -0.4 0  0.5 -0.4 0  -0.5 -0.38 0  -0.4 -0.38 0  -0.3 -0.38 0  -0.2 -0.38 0  -0.09999999999999998 -0.38 0  0 -0.38 0  0.09999999999999998 -0.38 0  0.2 -0.38 0  0.3 -0.38 0  0.4 -0.38 0  0.5 -0.38 0  -0.5 -0.36 0  -0.4 -0.36 0  -0.3 -0.36 0  -0.2 -0.36 0  -0.09999999999999998 -0.36 0  0 -0.36 0  0.09999999999999998 -0.36 0  0.2 -0.36 0  0.3 -0.36 0  0.4 -0.36 0  0.5 -0.36 0  -0.5 -0.34 0  -0.4 -0.34 0  -0.3 -0.34 0  -0.2 -0.34 0  -0.09999999999999998 -0.34 0  0 -0.34 0  0.09999999999999998 -0.34 0  0.2 -0.34 0  0.3 -0.34 0  0.4 -0.34 0  0.5 -0.34 0  -0.5 -0.32 0  -0.4 -0.32 0  -0.3 -0.32 0  -0.2 -0.32 0  -0.09999999999999998 -0.32 0  0 -0.32 0  0.09999999999999998 -0.32 0  0.2 -0.32 0  0.3 -0.32 0  0.4 -0.32 0  0.5 -0.32 0  -0.5 -0.3 0  -0.4 -0.3 0  -0.3 -0.3 0  -0.2 -0.3 0  -0.09999999999999998 -0.3 0  0 -0.3 0  0.09999999999999998 -0.3 0  0.2 -0.3 0  0.3 -0.3 0  0.4 -0.3 0  0.5 -0.3 0  -0.5 -0.28 0  -0.4 -0.28 0  -0.3 -0.28 0  -0.2 -0.28 0  -0.09999999999999998 -0.28 0  0 -0.28 0  0.09999999999999998 -0.28 0  0.2 -0.28 0  0.3 -0.28 0  0.4 -0.28 0  0.5 -0.28 0  -0.5 -0.26 0  -0.4 -0.26 0  -0.3 -0.26 0  -0.2 -0.26 0  -0.09999999999999998 -0.26 0  0 -0.26 0  0.09999999999999998 -0.26 0  0.2 -0.26 0  0.3 -0.26 0  0.4 -0.26 0  0.5 -0.26 0  -0.5 -0.24 0  -0.4 -0.24 0  -0.3 -0.24 0  -0.2 -0.24 0  -0.09999999999999998 -0.24 0  0 -0.24 0  0.09999999999999998 -0.24 0  0.2 -0.24 0  0.3 -0.24 0  0.4 -0.24 0  0.5 -0.24 0  -0.5 -0.22 0  -0.4 -0.22 0  -0.3 -0.22 0  -0.2 -0.22 0  -0.09999999999999998 -0.22 0  0 -0.22 0  0.09999999999999998 -0.22 0  0.2 -0.22 0  0.3 -0.22 0  0.4 -0.22 0  0.5 -0.22 0  -0.5 -0.2 0  -0.4 -0.2 0  -0.3 -0.2 0  -0.2 -0.2 0  -0.09999999999999998 -0.2 0  0 -0.2 0  0.09999999999999998 -0.2 0  0.2 -0.2 0  0.3 -0.2 0  0.4 -0.2 0  0.5 -0.2 0  -0.5 -0.18 0  -0.4 -0.18 0  -0.3 -0.18 0  -0.2 -0.18 0  -0.09999999999999998 -0.18 0  0 -0.18 0  0.09999999999999998 -0.18 0  0.2 -0.18 0  0.3 -0.18 0  0.4 -0.18 0  0.5 -0.18 0  -0.5 -0.16 0  -0.4 -0.16 0  -0.3 -0.16 0  -0.2 -0.16 0  -0.09999999999999998 -0.16 0  0 -0.16 0  0.09999999999999998 -0.16 0  0.2 -0.16 0  0.3 -0.16 0  0.4 -0.16 0  0.5 -0.16 0  -0.5 -0.14 0  -0.4 -0.14 0  -0.3 -0.14 0  -0.2 -0.14 0  -0.09999999999999998 -0.14 0  0 -0.14 0  0.09999999999999998 -0.14 0  0.2 -0.14 0  0.3 -0.14 0  0.4 -0.14 0  0.5 -0.14 0  -0.5 -0.12 0  -0.4 -0.12 0  -0.3 -0.12 0  -0.2 -0.12 0  -0.09999999999999998 -0.12 0  0 -0.12 0  0.09999999999999998 -0.12 0  0.2 -0.12 0  0.3 -0.12 0  0.4 -0.12 0  0.5 -0.12 0  -0.5 -0.09999999999999998 0  -0.4 -0.09999999999999998 0  -0.3 -0.09999999999999998 0  -0.2 -0.09999999999999998 0  -0.09999999999999998 -0.09999999999999998 0  0 -0.09999999999999998 0  0.09999999999999998 -0.09999999999999998 0  0.2 -0.09999999999999998 0  0.3 -0.09999999999999998 0  0.4 -0.09999999999999998 0  0.5 -0.09999999999999998 0  -0.5 -0.07999999999999996 0  -0.4 -0.07999999999999996 0  -0.3 -0.07999999999999996 0  -0.2 -0.07999999999999996 0  -0.09999999999999998 -0.07999999999999996 0  0 -0.07999999999999996 0  0.09999999999999998 -0.07999999999999996 0  0.2 -0.07999999999999996 0  0.3 -0.07999999999999996 0  0.4 -0.07999999999999996 0  0.5 -0.07999999999999996 0  -0.5 -0.06000000000000005 0  -0.4 -0.06000000000000005 0  -0.3 -0.06000000000000005 0  -0.2 -0.06000000000000005 0  -0.09999999
[...]
<PointData  Vectors="displacement"> 
<DataArray  type="Float64"  Name="displacement"  NumberOfComponents="3" format="ascii">-7.0529661049337432e-35 -1.9852334701272646e-20 0.0000000000000000e+00  -7.7582627154270890e-34 2.4815418376590803e-20 0.0000000000000000e+00  8.7941671120892299e-34 -3.6098678919696943e-20 0.0000000000000000e+00  1.6927118651840926e-33 7.4446255129772431e-21 0.0000000000000000e+00  3.9573752004401525e-33 5.1715443822026848e-24 0.0000000000000000e+00  -1.1284745767893948e-33 -2.2333876538931723e-20 0.0000000000000000e+00  1.4965512453906236e-33 1.0032796101473238e-21 0.0000000000000000e+00  5.0781355955522766e-33 -3.2260043889568043e-20 0.0000000000000000e+00  -2.8266423645058615e-33 -8.3752037020993962e-21 0.0000000000000000e+00  1.6927118651840926e-33 -1.4889251025954486e-20 0.0000000000000000e+00  -2.5390677977761379e-33 1.9852334701272640e-20 0.0000000000000000e+00  -1.4105932209867440e-33 -2.7717265353417291e-04 0.0000000000000000e+00  -6.7778831823342657e-18 -2.7717265353417524e-04 0.0000000000000000e+00  3.6056459384965352e-18 -2.7717265353417893e-04 0.0000000000000000e+00  2.4050760190927718e-17 -2.7717265353418050e-04 0.0000000000000000e+00  3.1165909948287869e-17 -2.7717265353417741e-04 0.0000000000000000e+00  3.8056632584758647e-17 -2.7717265353417215e-04 0.0000000000000000e+00  4.3177168245121253e-17 -2.7717265353417356e-04 0.0000000000000000e+00  3.2537399743945421e-17 -2.7717265353416917e-04 0.0000000000000000e+00  3.0003483281251506e-17 -2.7717265353416955e-04 0.0000000000000000e+00  1.8707688352318830e-17 -2.7717265353416142e-04 0.0000000000000000e+00  9.1664369903290822e-34 -2.7717265353416890e-04 0.0000000000000000e+00  1.2695784706774600e-33 -5.5434530706834507e-04 0.0000000000000000e+00  -1.0428093645651751e-17 -5.5434530706835168e-04 0.0000000000000000e+00  8.5132773838374139e-18 -5.5434530706835960e-04 0.0000000000000000e+00  4.4572312934383810e-17 -5.5434530706836426e-04 0.0000000000000000e+00  6.0494390449120351e-17 -5.5434530706835699e-04 0.0000000000000000e+00  7.4046967976942820e-17 -5.5434530706834550e-04 0.0000000000000000e+00  8.1815025103628195e-17 -5.5434530706834724e-04 0.0000000000000000e+00  6.2729444010735995e-17 -5.5434530706833867e-04 0.0000000000000000e+00  5.6731166424743697e-17 -5.5434530706833986e-04 0.0000000000000000e+00  3.5066674225378068e-17 -5.5434530706832024e-04 0.0000000000000000e+00  -5.2393462493793334e-33 -5.5434530706833466e-04 0.0000000000000000e+00  -1.1284745767893970e-33 -8.3151796060251652e-04 0.0000000000000000e+00  -1.2373328417253817e-17 -8.3151796060252877e-04 0.0000000000000000e+00  1.3952151769815451e-17 -8.3151796060254091e-04 0.0000000000000000e+00  6.2573235481736175e-17 -8.3151796060255165e-04 0.0000000000000000e+00  8.7442492532514336e-17 -8.3151796060253799e-04 0.0000000000000000e+00  1.0791087321576105e-16 -8.3151796060252248e-04 0.0000000000000000e+00  1.1714707527796660e-16 -8.3151796060252248e-04 0.0000000000000000e+00  8.9493207698207628e-17 -8.3151796060250904e-04 0.0000000000000000e+00  8.0426356621840728e-17 -8.3151796060250915e-04 0.0000000000000000e+00  4.9864788355404915e-17 -8.3151796060247716e-04 0.0000000000000000e+00  -5.6423728839469828e-33 -8.3151796060249939e-04 0.0000000000000000e+00  8.6147579372507529e-36 -1.1086906141366891e-03 0.0000000000000000e+00  -1.3244849073075569e-17 -1.1086906141367012e-03 0.0000000000000000e+00  1.9571956052175177e-17 -1.1086906141367220e-03 0.0000000000000000e+00  7.7904736571269795e-17 -1.1086906141367378e-03 0.0000000000000000e+00  1.1280748627238071e-16 -1.1086906141367183e-03 0.0000000000000000e+00  1.3904685350172645e-16 -1.1086906141367010e-03 0.0000000000000000e+00  1.4953394768395612e-16 -1.1086906141367014e-03 0.0000000000000000e+00  1.1376271556486765e-16 -1.1086906141366806e-03 0.0000000000000000e+00  1.0190446613566422e-16 -1.1086906141366711e-03 0.0000000000000000e+00  6.2646327906546728e-17 -1.1086906141366342e-03 0.0000000000000000e+00  5.1563487903801008e-33 -1.1086906141366635e-03 0.0000000000000000e+00  -5.6423728839469758e-34 -1.3858632676708648e-03 0.0000000000000000e+00  -1.2896995186385936e-17 -1.3858632676708802e-03 0.0000000000000000e+00  2.4688363607345471e-17 -1.3858632676709058e-03 0.0000000000000000e+00  9.0853928070086007e-17 -1.3858632676709269e-03 0.0000000000000000e+00  1.3617266501646662e-16 -1.3858632676709032e-03 0.0000000000000000e+00  1.6761935382484633e-16 -1.3858632676708852e-03 0.0000000000000000e+00  1.7798135688991962e-16 -1.3858632676708846e-03 0.0000000000000000e+00  1.3785237180282019e-16 -1.3858632676708581e-03 0.0000000000000000e+00  1.2175132724176694e-16 -1.3858632676708286e-03 0.0000000000000000e+00  7.2907390944895546e-17 -1.3858632676707924e-03 0.0000000000000000e+00  -8.9943067651149991e-33 -1.3858632676708275e-03 0.0000000000000000e+00  7.0014718642916264e-34 -1.6630359212050402e-03 0.0000000000000000e+00  -1.1104449242230318e-17 -1.6630359212050558e-03 0.0000000000000000e+00  2.9983851706837195e-17 -1.6630359212050870e-03 0.0000000000000000e+00  1.0208512868990482e-16 -1.6630359212051124e-03 0.0000000000000000e+00  1.5611294656931753e-16 -1.6630359212050875e-03 0.0000000000000000e+00  1.9478748230093126e-16 -1.6630359212050653e-03 0.0000000000000000e+00  2.0322789038852256e-16 -1.6630359212050673e-03 0.0000000000000000e+00  1.6008554573934550e-16 -1.6630359212050346e-03 0.0000000000000000e+00  1.4053019355912463e-16 -1.6630359212049921e-03 0.0000000000000000e+00  8.1378420731090887e-17 -1.6630359212049493e-03 0.0000000000000000e+00  9.2696125950557441e-33 -1.6630359212049825e-03 0.0000000000000000e+00  -2.1158898314801158e-33 -1.9402085747392116e-03 0.0000000000000000e+00  -9.6592426734723298e-18 -1.9402085747392301e-03 0.0000000000000000e+00  3.4649501079618398e-17 -1.9402085747392674e-03 0.0000000000000000e+00  1.1212458567916694e-16 -1.9402085747393034e-03 0.0000000000000000e+00  1.7335904495989850e-16 -1.9402085747392680e-03 0.0000000000000000e+00  2.1966624939520217e-16 -1.9402085747392444e-03 0.0000000000000000e+00  2.2620470271421986e-16 -1.9402085747392418e-03 0.0000000000000000e+00  1.8018648697989712e-16 -1.9402085747392077e-03 0.0000000000000000e+00  1.5852440680715183e-16 -1.9402085747391505e-03 0.0000000000000000e+00  8.7764486541741311e-17 -1.9402085747390998e-03 0.0000000000000000e+00  -3.3854237303681853e-33 -1.9402085747391403e-03 0.0000000000000000e+00  -9.9898826845660359e-34 -2.2173812282733772e-03 0.0000000000000000e+00  -9.4294711185681461e-18 -2.2173812282734046e-03 0.0000000000000000e+00  3.7735195032042328e-17 -2.2173812282734553e-03 0.0000000000000000e+00  1.2120189403063752e-16 -2.2173812282734974e-03 0.0000000000000000e+00  1.8858450597877675e-16 -2.2173812282734488e-03 0.0000000000000000e+00  2.4158738016613467e-16 -2.2173812282734262e-03 0.0000000000000000e+00  2.4912878870867990e-16 -2.2173812282734254e-03 0.0000000000000000e+00  1.9800314466583686e-16 -2.2173812282733764e-03 0.0000000000000000e+00  1.7554910820175898e-16 -2.2173812282733104e-03 0.0000000000000000e+00  9.3289039088142906e-17 -2.2173812282732476e-03 0.0000000000000000e+00  -6.7717695723489974e-33 -2.2173812282732914e-03 0.0000000000000000e+00  -1.4105932209867500e-33 -2.4945538818075441e-03 0.0000000000000000e+00  -1.2110412471694676e-17 -2.4945538818075736e-03 0.0000000000000000e+00  3.8999132811872610e-17 -2.4945538818076395e-03 0.0000000000000000e+00  1.3002097032874340e-16 -2.4945538818076855e-03 0.0000000000000000e+00  2.0297842898460764e-16 -2.4945538818076352e-03 0.0000000000000000e+00  2.6026827981595086e-16 -2.4945538818075992e-03 0.0000000000000000e+00  2.7016670043875094e-16 -2.4945538818076187e-03 0.0000000000000000e+00  2.1612376331914198e-16 -2.4945538818075545e-03 0.0000000000000000e+00  1.9218922326533159e-16 -2.4945538818074674e-03 0.0000000000000000e+00  9.6857547759612418e-17 -2.4945538818074010e-03 0.0000000000000000e+00  1.2909562576654529e-35 -2.4945538818074448e-03 0.0000000000000000e+00  -8.6416842878894079e-34 -2.7717265353417227e-03 0.0000000000000000e+00  -1.6556287433815964e-17 -2.7717265353417505e-03 0.0000000000000000e+00  3.8051179476999950e-17 -2.7717265353418346e-03 0.0000000000000000e+00  1.3796766624251904e-16 -2.7717265353418815e-03 0.0000000000000000e+00  2.1864954240735385e-16 -2.7717265353418208e-03 0.0000000000000000e+00  2.7460863801796157e-16 -2.7717265353417813e-03 0.0000000000000000e+00  2.8600911258318045e-16 -2.7717265353418190e-03 0.0000000000000000e+00  2.3662687639778430e-16 -2.7717265353417314e-03 0.0000000000000000e+00  2.0962673979387948e-16 -2.7717265353416208e-03 0.0000000000000000e+00  9.8564192393306836e-17 -2.7717265353415553e-03 0.0000000000000000e+00  -6.6902421338228411e-33 -2.7717265353416013e-03 0.0000000000000000e+00  -5.6423728839469758e-34 -3.0488991888759005e-03 0.0000000000000000e+00  -2.2146442945765502e-17 -3.0488991888759352e-03 0.0000000000000000e+00  3.3860227891246461e-17 -3.0488991888760484e-03 0.0000000000000000e+00  1.4623261016448128e-16 -3.0488991888760761e-03 0.0000000000000000e+00  2.3489285792532682e-16 -3.0488991888760098e-03 0.0000000000000000e+00  2.8678391550237959e-16 -3.0488991888759590e-03 0.0000000000000000e+00  2.9729978580445364e-16 -3.0488991888760106e-03 0.0000000000000000e+00  2.5736725157779772e-16 -3.0488991888759135e-03 0.0000000000000000e+00  2.2617833954860088e-16 -3.0488991888757821e-03 0.0000000000000000e+00  9.8734102369540666e-17 -3.0488991888757118e-03 0.0000000000000000e+00  -3.2725762726892457e-32 -3.0488991888757539e-03 0.0000000000000000e+00  -3.4556242621975242e-33 -3.3260718424100786e-03 0.0000000000000000e+00  -3.0824737827146859e-17 -3.3260718424101246e-03 0.0000000000000000e+00  2.8804476771924780e-17 -3.3260718424102573e-03 0.0000000000000000e+00  1.5690543407041482e-16 -3.3260718424102673e-03 0.0000000000000000e+00  2.5119100298103462e-16 -3.3260718424101931e-03 0.0000000000000000e+00  2.9557150920276175e-16 -3.3260718424101411e-03 0.0000000000000000e+00  3.0464835080138879e-16 -3.3260718424101996e-03 0.0000000000000000e+00  2.7832595463749496e-16 -3.3260718424100912e-03 0.0000000000000000e+00  2.4062007599018303e-16 -3.3260718424099472e-03 0.0000000000000000e+00  1.0041329706182182e-16 -3.3260718424098713e-03 0.0000000000000000e+00  1.5926270268311861e-32 -3.3260718424099034e-03 0.0000000000000000e+00  5.6423728839469758e-34 -3.6032444959442555e-03 0.0000000000000000e+00  -4.4529422294152243e-17 -3.6032444959443201e-03 0.0000000000000000e+00  2.4314171501474650e-17 -3.6032444959444580e-03 0.0000000000000000e+00  1.6994740177903175e-16 -3.6032444959444537e-03 0.0000000000000000e+00  2.6635197644791728e-16 -3.6032444959443813e-03 0.0000000000000000e+00  3.0159883733190323e-16 -3.6032444959443392e-03 0.0000000000000000e+00  3.1052435847943897e-16 -3.6032444959443826e-03 0.0000000000000000e+00  2.9770217224607932e-16 -3.6032444959442620e-03 0.0000000000000000e+00  2.5373337564262682e-16 -3.6032444959441172e-03 0.0000000000000000e+00  1.0309048091702360e-16 -3.6032444959440231e-03 0.0000000000000000e+00  -1.7867667056446487e-33 -3.6032444959440552e-03 0.0000000000000000e+00  -7.8900315514437029e-33 -3.8804171494784328e-03 0.0000000000000000e+00  -5.8942938133448679e-17 -3.8804171494785131e-03 0.0000000000000000e+00  1.9626122563990048e-17 -3.8804171494786514e-03 0.0000000000000000e+00  1.8502262517183076e-16 -3.8804171494786384e-03 0.0000000000000000e+00  2.7605155915120448e-16 -3.8804171494785651e-03 0.0000000000000000e+00  3.0399010903449683e-16 -3.8804171494785334e-03 0.0000000000000000e+00  3.1877841268144029e-16 -3.8804171494785521e-03 0.0000000000000000e+00  3.1387936341424340e-16 -3.8804171494784328e-03 0.0000000000000000e+00  2.6622719653700628e-16 -3.8804171494782867e-03 0.0000000000000000e+00  1.0843362953067658e-16 -3.8804171494781761e-03 0.0000000000000000e+00  -2.0957384997517336e-32 -3.8804171494781991e-03 0.0000000000000000e+00  -3.3854237303681853e-33 -4.1575898030126110e-03 0.0000000000000000e+00  -7.3146890766999593e-17 -4.1575898030127107e-03 0.0000000000000000e+00  1.4824243927583440e-17 -4.1575898030128365e-03 0.0000000000000000e+00  1.9828092454730509e-16 -4.1575898030128122e-03 0.0000000000000000e+00  2.8209350288275982e-16 -4.1575898030127584e-03 0.0000000000000000e+00  3.0583222467174529e-16 -4.1575898030127298e-03 0.0000000000000000e+00  3.2716863123307780e-16 -4.1575898030127151e-03 0.0000000000000000e+00  3.2599829308541825e-16 -4.1575898030126110e-03 0.0000000000000000e+00  2.8006200279400313e-16 -4.1575898030124583e-03 0.0000000000000000e+00  1.1389398649672333e-16 -4.1575898030123308e-03 0.0000000000000000e+00  9.0277966143151599e-33 -4.1575898030123595e-03 0.0000000000000000e+00  1.8023542999203590e-33 -4.4347624565467970e-03 0.0000000000000000e+00  -8.4971288477069120e-17 -4.4347624565469071e-03 0.0000000000000000e+00  1.1678951393235672e-17 -4.4347624565470182e-03 0.0000000000000000e+00  2.0682624969585111e-16 -4.4347624565469921e-03 0.0000000000000000e+00  2.8286157697027565e-16 -4.4347624565469644e-03 0.0000000000000000e+00  3.1048575555906530e-16 -4.4347624565469236e-03 0.0000000000000000e+00  3.3383440715406782e-16 -4.4347624565468828e-03 0.0000000000000000e+00  3.3642829586890651e-16 -4.4347624565467701e-03 0.0000000000000000e+00  2.9231055772617555e-16 -4.4347624565466278e-03 0.0000000000000000e+00  1.1960890204637058e-16 -4.4347624565465003e-03 0.0000000000000000e+00  1.0576969685889934e-32 -4.4347624565465281e-03 0.0000000000000000e+00  -1.0156271191104600e-32 -4.7119351100809812e-03 0.0000000000000000e+00  -9.6268245663938758e-17 -4.7119351100811148e-03 0.0000000000000000e+00  1.1071928643711835e-17 -4.7119351100812093e-03 0.0000000000000000e+00  2.1235744916592926e-16 -4.7119351100811876e-03 0.0000000000000000e+00  2.8046185564324427e-16 -4.7119351100811642e-03 0.0000000000000000e+00  3.1778056706578340e-16 -4.7119351100811105e-03 0.0000000000000000e+00  3.4467250640770141e-16 -4.7119351100810272e-03 0.0000000000000000e+00  3.3992850617060022e-16 -4.7119351100809188e-03 0.0000000000000000e+00  3.0235137923370862e-16 -4.7119351100807887e-03 0.0000000000000000e+00  1.2471293010799745e-16 -4.7119351100806655e-03 0.0000000000000000e+00  -2.1688423002046814e-32 -4.7119351100807037e-03 0.0000000000000000e+00  -7.9411077510204405e-33 -4.9891077636151707e-03 0.0000000000000000e+00  -1.0638393374103457e-16 -4.9891077636153138e-03 0.0000000000000000e+00  1.5100730316921300e-17 -4.9891077636154057e-03 0.0000000000000000e+00  2.1560872525121539e-16 -4.9891077636153797e-03 0.0000000000000000e+00  2.7580452816720582e-16 -4.9891077636153641e-03 0.0000000000000000e+00  3.2879339474821009e-16 -4.9891077636152921e-03 0.0000000000000000e+00  3.5936688909199973e-16 -4.9891077636151681e-03 0.0000000000000000e+00  3.3762719464538502e-16 -4.9891077636150458e-03 0.0000000000000000e+00  3.0958353770289670e-16 -4.9891077636149365e-03 0.0000000000000000e+00  1.2485106164085803e-16 -4.9891077636148246e-03 0.0000000000000000e+00  1.0801113806412793e-32 -4.9891077636148853e-03 0.0000000000000000e+00  -1.4670169498262137e-32 -5.2662804171493636e-03 0.0000000000000000e+00  -1.1591091208166808e-16 -5.2662804171495050e-03 0.0000000000000000e+00  2.1686511380248248e-17 -5.2662804171496099e-03 0.0000000000000000e+00  2.1428472079901228e-16 -5.2662804171495665e-03 0.0000000000000000e+00  2.6941831622701013e-16 -5.2662804171495596e-03 0.0000000000000000e+00  3.4669954145686238e-16 -5.2662804171494616e-03 0.0000000000000000e+00  3.7401526375727490e-16 -5.2662804171493219e-03 0.0000000000000000e+00  3.3385884714100348e-16 -5.2662804171491745e-03 0.0000000000000000e+00  3.1212610857706923e-16 -5.2662804171490748e-03 0.0000000000000000e+00  1.1781050203761549e-16 -5.2662804171489845e-03 0.0000000000000000e+00  6.7708474607363706e-33 -5.2662804171490661e-03 0.0000000000000000e+00  -8.1064284179643537e-33 -5.5434530706835712e-03 0.0000000000000000e+00  -1.2188497250917661e-16 -5.5434530706836909e-03 0.0000000000000000e+00  2.7074877704788360e-17 -5.5434530706838054e-03 0.0000000000000000e+00  2.0907503084936409e-16 -5.5434530706837725e-03 0.0000000000000000e+00  2.6477521584666184e-16 -5.5434530706837456e-03 0.0000000000000000e+00  3.6419642343785985e-16 -5.5434530706836207e-03 0.0000000000000000e+00  3.8994822852516792e-16 -5.5434530706834854e-03 0.0000000000000000e+00  3.3061535401056000e-16 -5.5434530706833197e-03 0.0000000000000000e+00  3.0576380335474767e-16 -5.5434530706832182e-03 0.0000000000000000e+00  1.0776065899317038e-16 -5.5434530706831514e-03 0.0000000000000000e+00  6.9947686236161901e-33 -5.5434530706832295e-03 0.0000000000000000e+00  -1.2413220344683367e-32 -5.8206257242177789e-03 0.0000000000000000e+00  -1.2760149513366858e-16 -5.8206257242178674e-03 0.0000000000000000e+00  3.0068414551755197e-17 -5.8206257242180027e-03 0.0000000000000000e+00  2.0670042886590059e-16 -5.8206257242179784e-03 0.0000000000000000e+00  2.5943154469032351e-16 -5.8206257242179186e-03 0.0000000000000000e+00  3.8043421208305130e-16 -5.8206257242177876e-03 0.0000000000000000e+00  4.0946179069420719e-16 -5.8206257242176644e-03 0.0000000000000000e+00  3.2408758800301908e-16 -5.8206257242174762e-03 0.0000000000000000e+00  2.9564447296527937e-16 -5.8206257242173782e-03 0.0000000000000000e+00  9.5657806080054449e-17 -5.8206257242173322e-03 0.0000000000000000e+00  -3.1348962803171015e-33 -5.8206257242174025e-03 0.0000000000000000e+00  1.5925176620790927e-32 -6.0977983777519909e-03 0.0000000000000000e+00  -1.3232796531069930e-16 -6.0977983777520534e-03 0.0000000000000000e+00  2.8411822093935033e-17 -6.0977983777521930e-03 0.0000000000000000e+00  2.0977685655973795e-16 -6.0977983777521895e-03 0.0000000000000000e+00  2.5631557845937353e-16 -6.0977983777520837e-03 0.0000000000000000e+00  3.9760919763530065e-16 -6.0977983777519536e-03 0.0000000000000000e+00  4.2248783366857859e-16 -6.0977983777518261e-03 0.0000000000000000e+00  3.1775574497022552e-16 -6.0977983777516856e-03 0.0000000000000000e+00  2.8617139888347395e-16 -6.0977983777515277e-03 0.0000000000000000e+00  7.9502778026565914e-17 -6.0977983777514922e-03 0.0000000000000000e+00  -5.1990435859225701e-33 -6.0977983777515746e-03 0.0000000000000000e+00  -1.0156271191104556e-32 -6.3749710312861994e-03 0.0000000000000000e+00  -1.3817224080488568e-16 -6.3749710312862445e-03 0.0000000000000000e+00  2.4081340857821638e-17 -6.3749710312864024e-03 0.0000000000000000e+00  2.1523668037901754e-16 -6.3749710312863998e-03 0.0000000000000000e+00  2.5866779392904073e-16 -6.3749710312862515e-03 0.0000000000000000e+00  4.1425795546346877e-16 -6.3749710312861222e-03 0.0000000000000000e+00  4.2729490295087315e-16 -6.3749710312860121e-03 0.0000000000000000e+00  3.0851281392970611e-16 -6.3749710312858898e-03 0.0000000000000000e+00  2.7992895671191566e-16 -6.3749710312856981e-03 0.0000000000000000e+00  6.2049263085977198e-17 -6.3749710312856556e-03 0.0000000000000000e+00  9.5920339027098579e-33 -6.3749710312857371e-03 0.0000000000000000e+00  2.4547313873442616e-32 -6.6521436848204184e-03 0.0000000000000000e+00  -1.4214268172551289e-16 -6.6521436848204487e-03 0.0000000000000000e+00  1.5967608695522110e-17 -6.6521436848206161e-03 0.0000000000000000e+00  2.2125859078653320e-16 -6.6521436848206161e-03 0.0000000000000000e+00  2.6449561118977605e-16 -6.6521436848203889e-03 0.0000000000000000e+00  4.3108745295178457e-16 -6.6521436848203039e-03 0.0000000000000000e+00  4.2671295164575692e-16 -6.6521436848202007e-03 0.0000000000000000e+00  2.9990481937735709e-16 -6.6521436848200957e-03 0.0000000000000000e+00  2.7155744776557154e-16 -6.6521436848198763e-03 0.0000000000000000e+00  4.6926971913576576e-17 -6.6521436848198164e-03 0.0000000000000000e+00  -5.0308003221077593e-33 -6.6521436848198980e-03 0.0000000000000000e+00  -1.3541694921472741e-32 -6.9293163383546139e-03 0.0000000000000000e+00  -1.4367418940943335e-16 -6.9293163383546538e-03 0.0000000000000000e+00  7.0128397868580733e-18 -6.9293163383547986e-03 0.0000000000000000e+00  2.2699418311077226e-16 -6.9293163383548177e-03 0.0000000000000000e+00  2.727008125