<?xml version="1.0"?>
<VTKFile type="UnstructuredGrid"  version="0.1"  >
<UnstructuredGrid>
<Piece  NumberOfPoints="1091" NumberOfCells="2050">
<Points>
<DataArray  type="Float64"  NumberOfComponents="3"  format="ascii">-0.5 -1 0  -0.4 -1 0  -0.3 -1 0  -0.2 -1 0  -0.09999999999999998 -1 0  0 -1 0  0.09999999999999998 -1 0  0.2 -1 0  0.3 -1 0  0.4 -1 0  0.5 -1 0  -0.5 -0.98 0  -0.4 -0.98 0  -0.3 -0.98 0  -0.2 -0.98 0  -0.09999999999999998 -0.98 0  0 -0.98 0  0.09999999999999998 -0.98 0  0.2 -0.98 0  0.3 -0.98 0  0.4 -0.98 0  0.5 -0.98 0  -0.5 -0.96 0  -0.4 -0.96 0  -0.3 -0.96 0  -0.2 -0.96 0  -0.09999999999999998 -0.96 0  0 -0.96 0  0.09999999999999998 -0.96 0  0.2 -0.96 0  0.3 -0.96 0  0.4 -0.96 0  0.5 -0.96 0  -0.5 -0.9399999999999999 0  -0.4 -0.9399999999999999 0  -0.3 -0.9399999999999999 0  -0.2 -0.9399999999999999 0  -0.09999999999999998 -0.9399999999999999 0  0 -0.9399999999999999 0  0.09999999999999998 -0.9399999999999999 0  0.2 -0.9399999999999999 0  0.3 -0.9399999999999999 0  0.4 -0.9399999999999999 0  0.5 -0.9399999999999999 0  -0.5 -0.92 0  -0.4 -0.92 0  -0.3 -0.92 0  -0.2 -0.92 0  -0.09999999999999998 -0.92 0  0 -0.92 0  0.09999999999999998 -0.92 0  0.2 -0.92 0  0.3 -0.92 0  0.4 -0.92 0  0.5 -0.92 0  -0.5 -0.9 0  -0.4 -0.9 0  -0.3 -0.9 0  -0.2 -0.9 0  -0.09999999999999998 -0.9 0  0 -0.9 0  0.09999999999999998 -0.9 0  0.2 -0.9 0  0.3 -0.9 0  0.4 -0.9 0  0.5 -0.9 0  -0.5 -0.88 0  -0.4 -0.88 0  -0.3 -0.88 0  -0.2 -0.88 0  -0.09999999999999998 -0.88 0  0 -0.88 0  0.09999999999999998 -0.88 0  0.2 -0.88 0  0.3 -0.88 0  0.4 -0.88 0  0.5 -0.88 0  -0.5 -0.86 0  -0.4 -0.86 0  -0.3 -0.86 0  -0.2 -0.86 0  -0.09999999999999998 -0.86 0  0 -0.86 0  0.09999999999999998 -0.86 0  0.2 -0.86 0  0.3 -0.86 0  0.4 -0.86 0  0.5 -0.86 0  -0.5 -0.84 0  -0.4 -0.84 0  -0.3 -0.84 0  -0.2 -0.84 0  -0.09999999999999998 -0.84 0  0 -0.84 0  0.09999999999999998 -0.84 0  0.2 -0.84 0  0.3 -0.84 0  0.4 -0.84 0  0.5 -0.84 0  -0.5 -0.8200000000000001 0  -0.4 -0.8200000000000001 0  -0.3 -0.8200000000000001 0  -0.2 -0.8200000000000001 0  -0.09999999999999998 -0.8200000000000001 0  0 -0.8200000000000001 0  0.09999999999999998 -0.8200000000000001 0  0.2 -0.8200000000000001 0  0.3 -0.8200000000000001 0  0.4 -0.8200000000000001 0  0.5 -0.8200000000000001 0  -0.5 -0.8 0  -0.4 -0.8 0  -0.3 -0.8 0  -0.2 -0.8 0  -0.09999999999999998 -0.8 0  0 -0.8 0  0.09999999999999998 -0.8 0  0.2 -0.8 0  0.3 -0.8 0  0.4 -0.8 0  0.5 -0.8 0  -0.5 -0.78 0  -0.4 -0.78 0  -0.3 -0.78 0  -0.2 -0.78 0  -0.09999999999999998 -0.78 0  0 -0.78 0  0.09999999999999998 -0.78 0  0.2 -0.78 0  0.3 -0.78 0  0.4 -0.78 0  0.5 -0.78 0  -0.5 -0.76 0  -0.4 -0.76 0  -0.3 -0.76 0  -0.2 -0.76 0  -0.09999999999999998 -0.76 0  0 -0.76 0  0.09999999999999998 -0.76 0  0.2 -0.76 0  0.3 -0.76 0  0.4 -0.76 0  0.5 -0.76 0  -0.5 -0.74 0  -0.4 -0.74 0  -0.3 -0.74 0  -0.2 -0.74 0  -0.09999999999999998 -0.74 0  0 -0.74 0  0.09999999999999998 -0.74 0  0.2 -0.74 0  0.3 -0.74 0  0.4 -0.74 0  0.5 -0.74 0  -0.5 -0.72 0  -0.4 -0.72 0  -0.3 -0.72 0  -0.2 -0.72 0  -0.09999999999999998 -0.72 0  0 -0.72 0  0.09999999999999998 -0.72 0  0.2 -0.72 0  0.3 -0.72 0  0.4 -0.72 0  0.5 -0.72 0  -0.5 -0.7 0  -0.4 -0.7 0  -0.3 -0.7 0  -0.2 -0.7 0  -0.09999999999999998 -0.7 0  0 -0.7 0  0.09999999999999998 -0.7 0  0.2 -0.7 0  0.3 -0.7 0  0.4 -0.7 0  0.5 -0.7 0  -0.5 -0.6799999999999999 0  -0.4 -0.6799999999999999 0  -0.3 -0.6799999999999999 0  -0.2 -0.6799999999999999 0  -0.09999999999999998 -0.6799999999999999 0  0 -0.6799999999999999 0  0.09999999999999998 -0.6799999999999999 0  0.2 -0.6799999999999999 0  0.3 -0.6799999999999999 0  0.4 -0.6799999999999999 0  0.5 -0.6799999999999999 0  -0.5 -0.6599999999999999 0  -0.4 -0.6599999999999999 0  -0.3 -0.6599999999999999 0  -0.2 -0.6599999999999999 0  -0.09999999999999998 -0.6599999999999999 0  0 -0.6599999999999999 0  0.09999999999999998 -0.6599999999999999 0  0.2 -0.6599999999999999 0  0.3 -0.6599999999999999 0  0.4 -0.6599999999999999 0  0.5 -0.6599999999999999 0  -0.5 -0.64 0  -0.4 -0.64 0  -0.3 -0.64 0  -0.2 -0.64 0  -0.09999999999999998 -0.64 0  0 -0.64 0  0.09999999999999998 -0.64 0  0.2 -0.64 0  0.3 -0.64 0  0.4 -0.64 0  0.5 -0.64 0  -0.5 -0.62 0  -0.4 -0.62 0  -0.3 -0.62 0  -0.2 -0.62 0  -0.09999999999999998 -0.62 0  0 -0.62 0  0.09999999999999998 -0.62 0  0.2 -0.62 0  0.3 -0.62 0  0.4 -0.62 0  0.5 -0.62 0  -0.5 -0.6 0  -0.4 -0.6 0  -0.3 -0.6 0  -0.2 -0.6 0  -0.09999999999999998 -0.6 0  0 -0.6 0  0.09999999999999998 -0.6 0  0.2 -0.6 0  0.3 -0.6 0  0.4 -0.6 0  0.5 -0.6 0  -0.5 -0.5800000000000001 0  -0.4 -0.5800000000000001 0  -0.3 -0.5800000000000001 0  -0.2 -0.5800000000000001 0  -0.09999999999999998 -0.5800000000000001 0  0 -0.5800000000000001 0  0.09999999999999998 -0.5800000000000001 0  0.2 -0.5800000000000001 0  0.3 -0.5800000000000001 0  0.4 -0.5800000000000001 0  0.5 -0.5800000000000001 0  -0.5 -0.5600000000000001 0  -0.4 -0.5600000000000001 0  -0.3 -0.5600000000000001 0  -0.2 -0.5600000000000001 0  -0.09999999999999998 -0.5600000000000001 0  0 -0.5600000000000001 0  0.09999999999999998 -0.5600000000000001 0  0.2 -0.5600000000000001 0  0.3 -0.5600000000000001 0  0.4 -0.5600000000000001 0  0.5 -0.5600000000000001 0  -0.5 -0.54 0  -0.4 -0.54 0  -0.3 -0.54 0  -0.2 -0.54 0  -0.09999999999999998 -0.54 0  0 -0.54 0  0.09999999999999998 -0.54 0  0.2 -0.54 0  0.3 -0.54 0  0.4 -0.54 0  0.5 -0.54 0  -0.5 -0.52 0  -0.4 -0.52 0  -0.3 -0.52 0  -0.2 -0.52 0  -0.09999999999999998 -0.52 0  0 -0.52 0  0.09999999999999998 -0.52 0  0.2 -0.52 0  0.3 -0.52 0  0.4 -0.52 0  0.5 -0.52 0  -0.5 -0.5 0  -0.4 -0.5 0  -0.3 -0.5 0  -0.2 -0.5 0  -0.09999999999999998 -0.5 0  0 -0.5 0  0.09999999999999998 -0.5 0  0.2 -0.5 0  0.3 -0.5 0  0.4 -0.5 0  0.5 -0.5 0  -0.5 -0.48 0  -0.4 -0.48 0  -0.3 -0.48 0  -0.2 -0.48 0  -0.09999999999999998 -0.48 0  0 -0.48 0  0.09999999999999998 -0.48 0  0.2 -0.48 0  0.3 -0.48 0  0.4 -0.48 0  0.5 -0.48 0  -0.5 -0.46 0  -0.4 -0.46 0  -0.3 -0.46 0  -0.2 -0.46 0  -0.09999999999999998 -0.46 0  0 -0.46 0  0.09999999999999998 -0.46 0  0.2 -0.46 0  0.3 -0.46 0  0.4 -0.46 0  0.5 -0.46 0  -0.5 -0.4399999999999999 0  -0.4 -0.4399999999999999 0  -0.3 -0.4399999999999999 0  -0.2 -0.4399999999999999 0  -0.09999999999999998 -0.4399999999999999 0  0 -0.4399999999999999 0  0.09999999999999998 -0.4399999999999999 0  0.2 -0.4399999999999999 0  0.3 -0.4399999999999999 0  0.4 -0.4399999999999999 0  0.5 -0.4399999999999999 0  -0.5 -0.42 0  -0.4 -0.42 0  -0.3 -0.42 0  -0.2 -0.42 0  -0.09999999999999998 -0.42 0  0 -0.42 0  0.09999999999999998 -0.42 0  0.2 -0.42 0  0.3 -0.42 0  0.4 -0.42 0  0.5 -0.42 0  -0.5 -0.4 0  -0.4 -0.4 0  -0.3 -0.4 0  -0.2 -0.4 0  -0.09999999999999998 -0.4 0  0 -0.4 0  0.09999999999999998 -0.4 0  0.2 -0.4 0  0.3 -0.4 0  0.4 -0.4 0  0.5 -0.4 0  -0.5 -0.38 0  -0.4 -0.38 0  -0.3 -0.38 0  -0.2 -0.38 0  -0.09999999999999998 -0.38 0  0 -0.38 0  0.09999999999999998 -0.38 0  0.2 -0.38 0  0.3 -0.38 0  0.4 -0.38 0  0.5 -0.38 0  -0.5 -0.36 0  -0.4 -0.36 0  -0.3 -0.36 0  -0.2 -0.36 0  -0.09999999999999998 -0.36 0  0 -0.36 0  0.09999999999999998 -0.36 0  0.2 -0.36 0  0.3 -0.36 0  0.4 -0.36 0  0.5 -0.36 0  -0.5 -0.34 0  -0.4 -0.34 0  -0.3 -0.34 0  -0.2 -0.34 0  -0.09999999999999998 -0.34 0  0 -0.34 0  0.09999999999999998 -0.34 0  0.2 -0.34 0  0.3 -0.34 0  0.4 -0.34 0  0.5 -0.34 0  -0.5 -0.32 0  -0.4 -0.32 0  -0.3 -0.32 0  -0.2 -0.32 0  -0.09999999999999998 -0.32 0  0 -0.32 0  0.09999999999999998 -0.32 0  0.2 -0.32 0  0.3 -0.32 0  0.4 -0.32 0  0.5 -0.32 0  -0.5 -0.3 0  -0.4 -0.3 0  -0.3 -0.3 0  -0.2 -0.3 0  -0.09999999999999998 -0.3 0  0 -0.3 0  0.09999999999999998 -0.3 0  0.2 -0.3 0  0.3 -0.3 0  0.4 -0.3 0  0.5 -0.3 0  -0.5 -0.28 0  -0.4 -0.28 0  -0.3 -0.28 0  -0.2 -0.28 0  -0.09999999999999998 -0.28 0  0 -0.28 0  0.09999999999999998 -0.28 0  0.2 -0.28 0  0.3 -0.28 0  0.4 -0.28 0  0.5 -0.28 0  -0.5 -0.26 0  -0.4 -0.26 0  -0.3 -0.26 0  -0.2 -0.26 0  -0.09999999999999998 -0.26 0  0 -0.26 0  0.09999999999999998 -0.26 0  0.2 -0.26 0  0.3 -0.26 0  0.4 -0.26 0  0.5 -0.26 0  -0.5 -0.24 0  -0.4 -0.24 0  -0.3 -0.24 0  -0.2 -0.24 0  -0.09999999999999998 -0.24 0  0 -0.24 0  0.09999999999999998 -0.24 0  0.2 -0.24 0  0.3 -0.24 0  0.4 -0.24 0  0.5 -0.24 0  -0.5 -0.22 0  -0.4 -0.22 0  -0.3 -0.22 0  -0.2 -0.22 0  -0.09999999999999998 -0.22 0  0 -0.22 0  0.09999999999999998 -0.22 0  0.2 -0.22 0  0.3 -0.22 0  0.4 -0.22 0  0.5 -0.22 0  -0.5 -0.2 0  -0.4 -0.2 0  -0.3 -0.2 0  -0.2 -0.2 0  -0.09999999999999998 -0.2 0  0 -0.2 0  0.09999999999999998 -0.2 0  0.2 -0.2 0  0.3 -0.2 0  0.4 -0.2 0  0.5 -0.2 0  -0.5 -0.18 0  -0.4 -0.18 0  -0.3 -0.18 0  -0.2 -0.18 0  -0.09999999999999998 -0.18 0  0 -0.18 0  0.09999999999999998 -0.18 0  0.2 -0.18 0  0.3 -0.18 0  0.4 -0.18 0  0.5 -0.18 0  -0.5 -0.16 0  -0.4 -0.16 0  -0.3 -0.16 0  -0.2 -0.16 0  -0.09999999999999998 -0.16 0  0 -0.16 0  0.09999999999999998 -0.16 0  0.2 -0.16 0  0.3 -0.16 0  0.4 -0.16 0  0.5 -0.16 0  -0.5 -0.14 0  -0.4 -0.14 0  -0.3 -0.14 0  -0.2 -0.14 0  -0.09999999999999998 -0.14 0  0 -0.14 0  0.09999999999999998 -0.14 0  0.2 -0.14 0  0.3 -0.14 0  0.4 -0.14 0  0.5 -0.14 0  -0.5 -0.12 0  -0.4 -0.12 0  -0.3 -0.12 0  -0.2 -0.12 0  -0.09999999999999998 -0.12 0  0 -0.12 0  0.09999999999999998 -0.12 0  0.2 -0.12 0  0.3 -0.12 0  0.4 -0.12 0  0.5 -0.12 0  -0.5 -0.09999999999999998 0  -0.4 -0.09999999999999998 0  -0.3 -0.09999999999999998 0  -0.2 -0.09999999999999998 0  -0.09999999999999998 -0.09999999999999998 0  0 -0.09999999999999998 0  0.09999999999999998 -0.09999999999999998 0  0.2 -0.09999999999999998 0  0.3 -0.09999999999999998 0  0.4 -0.09999999999999998 0  0.5 -0.09999999999999998 0  -0.5 -0.07999999999999996 0  -0.4 -0.07999999999999996 0  -0.3 -0.07999999999999996 0  -0.2 -0.07999999999999996 0  -0.09999999999999998 -0.07999999999999996 0  0 -0.07999999999999996 0  0.09999999999999998 -0.07999999999999996 0  0.2 -0.07999999999999996 0  0.3 -0.07999999999999996 0  0.4 -0.07999999999999996 0  0.5 -0.07999999999999996 0  -0.5 -0.06000000000000005 0  -0.4 -0.06000000000000005 0  -0.3 -0.06000000000000005 0  -0.2 -0.06000000000000005 0  -0.09999999
[...]
<PointData  Vectors="displacement"> 
<DataArray  type="Float64"  Name="displacement"  NumberOfComponents="3" format="ascii">4.2317796629602299e-34 -4.9630836753181612e-20 0.0000000000000000e+00  -1.1990042378387321e-33 -9.9261673506363216e-21 0.0000000000000000e+00  2.4283141894096016e-33 -2.1209427893742457e-20 0.0000000000000000e+00  -2.2569491535787903e-33 3.9704669402545298e-20 0.0000000000000000e+00  6.0299281453106177e-34 -3.5236854789221253e-20 0.0000000000000000e+00  -2.8211864419734869e-33 5.2112378590840689e-20 0.0000000000000000e+00  7.5185720704547350e-33 -9.6082198026862549e-20 0.0000000000000000e+00  5.3602542397496256e-33 0.0000000000000000e+00 0.0000000000000000e+00  1.2380704653018044e-35 -1.7680985593320948e-20 0.0000000000000000e+00  0.0000000000000000e+00 -1.9852334701272649e-20 0.0000000000000000e+00  2.8211864419734866e-34 9.9261673506363201e-21 0.0000000000000000e+00  -5.6423728839469758e-34 -2.7717265353417281e-04 0.0000000000000000e+00  -7.7359862676033684e-18 -2.7717265353417552e-04 0.0000000000000000e+00  2.4037639589976908e-18 -2.7717265353417833e-04 0.0000000000000000e+00  2.3069033014276435e-17 -2.7717265353418191e-04 0.0000000000000000e+00  3.1047513995279330e-17 -2.7717265353417747e-04 0.0000000000000000e+00  3.8502153054173040e-17 -2.7717265353417270e-04 0.0000000000000000e+00  4.2467969503541913e-17 -2.7717265353417264e-04 0.0000000000000000e+00  3.0733721724602156e-17 -2.7717265353416977e-04 0.0000000000000000e+00  2.8445927832005299e-17 -2.7717265353417004e-04 0.0000000000000000e+00  1.7651609171139546e-17 -2.7717265353416072e-04 0.0000000000000000e+00  -2.0800689237128669e-33 -2.7717265353416901e-04 0.0000000000000000e+00  1.3920569869781222e-34 -5.5434530706834431e-04 0.0000000000000000e+00  -1.2301615554870539e-17 -5.5434530706835136e-04 0.0000000000000000e+00  6.0042645217164711e-18 -5.5434530706835819e-04 0.0000000000000000e+00  4.2840179242381218e-17 -5.5434530706836632e-04 0.0000000000000000e+00  6.0598332700751165e-17 -5.5434530706835656e-04 0.0000000000000000e+00  7.4786155851466588e-17 -5.5434530706834572e-04 0.0000000000000000e+00  8.0376464341058096e-17 -5.5434530706834724e-04 0.0000000000000000e+00  5.9542941402333653e-17 -5.5434530706833954e-04 0.0000000000000000e+00  5.3763516678309026e-17 -5.5434530706833997e-04 0.0000000000000000e+00  3.3396411768574538e-17 -5.5434530706831959e-04 0.0000000000000000e+00  4.8363196148116937e-33 -5.5434530706833574e-04 0.0000000000000000e+00  -1.5516525430854209e-33 -8.3151796060251500e-04 0.0000000000000000e+00  -1.5068485634125428e-17 -8.3151796060252747e-04 0.0000000000000000e+00  1.0187003570339855e-17 -8.3151796060253983e-04 0.0000000000000000e+00  6.0569228870294528e-17 -8.3151796060255501e-04 0.0000000000000000e+00  8.7875121048207200e-17 -8.3151796060253766e-04 0.0000000000000000e+00  1.0851709341049950e-16 -8.3151796060252378e-04 0.0000000000000000e+00  1.1515138404665539e-16 -8.3151796060252291e-04 0.0000000000000000e+00  8.5072140704298681e-17 -8.3151796060251045e-04 0.0000000000000000e+00  7.6701066323393190e-17 -8.3151796060250828e-04 0.0000000000000000e+00  4.7938116401425995e-17 -8.3151796060247738e-04 0.0000000000000000e+00  -4.5138983071575861e-33 -8.3151796060250188e-04 0.0000000000000000e+00  -3.5826510722576967e-34 -1.1086906141366845e-03 0.0000000000000000e+00  -1.7066271865464273e-17 -1.1086906141367008e-03 0.0000000000000000e+00  1.4824976440987780e-17 -1.1086906141367196e-03 0.0000000000000000e+00  7.5682824647406478e-17 -1.1086906141367428e-03 0.0000000000000000e+00  1.1339475999409470e-16 -1.1086906141367162e-03 0.0000000000000000e+00  1.3970628336430136e-16 -1.1086906141367031e-03 0.0000000000000000e+00  1.4746489870170780e-16 -1.1086906141367036e-03 0.0000000000000000e+00  1.0854065684293662e-16 -1.1086906141366836e-03 0.0000000000000000e+00  9.7661867656838468e-17 -1.1086906141366711e-03 0.0000000000000000e+00  6.0634829140202249e-17 -1.1086906141366351e-03 0.0000000000000000e+00  6.4224305290443633e-33 -1.1086906141366663e-03 0.0000000000000000e+00  4.6549576292562551e-33 -1.3858632676708577e-03 0.0000000000000000e+00  -1.8253531075580160e-17 -1.3858632676708763e-03 0.0000000000000000e+00  1.9449674125153611e-17 -1.3858632676709017e-03 0.0000000000000000e+00  8.8900807574346408e-17 -1.3858632676709316e-03 0.0000000000000000e+00  1.3717051063212226e-16 -1.3858632676709015e-03 0.0000000000000000e+00  1.6817440544855454e-16 -1.3858632676708863e-03 0.0000000000000000e+00  1.7613742134598961e-16 -1.3858632676708878e-03 0.0000000000000000e+00  1.3170002992879364e-16 -1.3858632676708603e-03 0.0000000000000000e+00  1.1733871880441090e-16 -1.3858632676708299e-03 0.0000000000000000e+00  7.1944825616808429e-17 -1.3858632676707913e-03 0.0000000000000000e+00  2.0676481118739974e-32 -1.3858632676708291e-03 0.0000000000000000e+00  -2.0057270537666973e-33 -1.6630359212050346e-03 0.0000000000000000e+00  -1.7475139975895156e-17 -1.6630359212050502e-03 0.0000000000000000e+00  2.2884187251202967e-17 -1.6630359212050814e-03 0.0000000000000000e+00  1.0031685299604725e-16 -1.6630359212051211e-03 0.0000000000000000e+00  1.5797559171854128e-16 -1.6630359212050853e-03 0.0000000000000000e+00  1.9498150139873286e-16 -1.6630359212050679e-03 0.0000000000000000e+00  2.0223004477286703e-16 -1.6630359212050721e-03 0.0000000000000000e+00  1.5464287888687231e-16 -1.6630359212050389e-03 0.0000000000000000e+00  1.3679583141899011e-16 -1.6630359212049916e-03 0.0000000000000000e+00  8.0636383912176650e-17 -1.6630359212049465e-03 0.0000000000000000e+00  -6.4484261530822592e-34 -1.6630359212049855e-03 0.0000000000000000e+00  8.4635593259204632e-34 -1.9402085747392043e-03 0.0000000000000000e+00  -1.6923558755443300e-17 -1.9402085747392253e-03 0.0000000000000000e+00  2.4822413549191012e-17 -1.9402085747392632e-03 0.0000000000000000e+00  1.1144272450846885e-16 -1.9402085747393136e-03 0.0000000000000000e+00  1.7691802765573671e-16 -1.9402085747392669e-03 0.0000000000000000e+00  2.1927614544192692e-16 -1.9402085747392479e-03 0.0000000000000000e+00  2.2575978521455383e-16 -1.9402085747392487e-03 0.0000000000000000e+00  1.7610544929409048e-16 -1.9402085747392164e-03 0.0000000000000000e+00  1.5573043908331608e-16 -1.9402085747391492e-03 0.0000000000000000e+00  8.6810468590264099e-17 -1.9402085747390950e-03 0.0000000000000000e+00  9.0277966143151599e-33 -1.9402085747391449e-03 0.0000000000000000e+00  -5.9939296107396219e-33 -2.2173812282733703e-03 0.0000000000000000e+00  -1.7966368120008467e-17 -2.2173812282733963e-03 0.0000000000000000e+00  2.6199683946057142e-17 -2.2173812282734514e-03 0.0000000000000000e+00  1.2038374930065983e-16 -2.2173812282735095e-03 0.0000000000000000e+00  1.9438864130984004e-16 -2.2173812282734488e-03 0.0000000000000000e+00  2.4199939119897012e-16 -2.2173812282734275e-03 0.0000000000000000e+00  2.4803115853145856e-16 -2.2173812282734340e-03 0.0000000000000000e+00  1.9533493379509458e-16 -2.2173812282733907e-03 0.0000000000000000e+00  1.7368126593995374e-16 -2.2173812282733074e-03 0.0000000000000000e+00  9.0746262742090654e-17 -2.2173812282732458e-03 0.0000000000000000e+00  -6.7535380718778398e-33 -2.2173812282732983e-03 0.0000000000000000e+00  -3.1033050861708500e-33 -2.4945538818075355e-03 0.0000000000000000e+00  -2.1590123373376760e-17 -2.4945538818075645e-03 0.0000000000000000e+00  2.5004348052302966e-17 -2.4945538818076365e-03 0.0000000000000000e+00  1.2821240441003585e-16 -2.4945538818077029e-03 0.0000000000000000e+00  2.1073667864633010e-16 -2.4945538818076348e-03 0.0000000000000000e+00  2.6091532033235244e-16 -2.4945538818076057e-03 0.0000000000000000e+00  2.6882792423774604e-16 -2.4945538818076326e-03 0.0000000000000000e+00  2.1435652037746398e-16 -2.4945538818075671e-03 0.0000000000000000e+00  1.9097933545634925e-16 -2.4945538818074652e-03 0.0000000000000000e+00  9.3463998641027459e-17 -2.4945538818074010e-03 0.0000000000000000e+00  -2.4233144401954120e-34 -2.4945538818074535e-03 0.0000000000000000e+00  -2.8368295432994656e-33 -2.7717265353417102e-03 0.0000000000000000e+00  -2.6972861671073586e-17 -2.7717265353417453e-03 0.0000000000000000e+00  2.1486942257117090e-17 -2.7717265353418333e-03 0.0000000000000000e+00  1.3588704835283581e-16 -2.7717265353418962e-03 0.0000000000000000e+00  2.2737835284367850e-16 -2.7717265353418268e-03 0.0000000000000000e+00  2.7540350837346965e-16 -2.7717265353417917e-03 0.0000000000000000e+00  2.8525898167315452e-16 -2.7717265353418325e-03 0.0000000000000000e+00  2.3567322369348596e-16 -2.7717265353417496e-03 0.0000000000000000e+00  2.0772914000980202e-16 -2.7717265353416239e-03 0.0000000000000000e+00  9.4814026865785928e-17 -2.7717265353415597e-03 0.0000000000000000e+00  -4.2720823264169950e-33 -2.7717265353416095e-03 0.0000000000000000e+00  2.2569491535787903e-33 -3.0488991888758862e-03 0.0000000000000000e+00  -3.5305283147778605e-17 -3.0488991888759282e-03 0.0000000000000000e+00  1.6431191137795424e-17 -3.0488991888760497e-03 0.0000000000000000e+00  1.4431377543583853e-16 -3.0488991888760935e-03 0.0000000000000000e+00  2.4359282438682386e-16 -3.0488991888760176e-03 0.0000000000000000e+00  2.8782669957015210e-16 -3.0488991888759733e-03 0.0000000000000000e+00  2.9778207785202045e-16 -3.0488991888760267e-03 0.0000000000000000e+00  2.5650698527415954e-16 -3.0488991888759343e-03 0.0000000000000000e+00  2.2564615522025142e-16 -3.0488991888757873e-03 0.0000000000000000e+00  9.4824454942076524e-17 -3.0488991888757153e-03 0.0000000000000000e+00  -3.3854237303681853e-33 -3.0488991888757630e-03 0.0000000000000000e+00  -3.0347616572397120e-33 -3.3260718424100600e-03 0.0000000000000000e+00  -4.6095708860779258e-17 -3.3260718424101185e-03 0.0000000000000000e+00  9.8454100744685170e-18 -3.3260718424102669e-03 0.0000000000000000e+00  1.5653859868947416e-16 -3.3260718424102859e-03 0.0000000000000000e+00  2.5960616767306335e-16 -3.3260718424102053e-03 0.0000000000000000e+00  2.9752106597672720e-16 -3.3260718424101602e-03 0.0000000000000000e+00  3.0623210218624010e-16 -3.3260718424102200e-03 0.0000000000000000e+00  2.7819191610131963e-16 -3.3260718424101172e-03 0.0000000000000000e+00  2.4169379944952911e-16 -3.3260718424099598e-03 0.0000000000000000e+00  9.6520411381022278e-17 -3.3260718424098718e-03 0.0000000000000000e+00  -6.8171806337913373e-33 -3.3260718424099121e-03 0.0000000000000000e+00  0.0000000000000000e+00 -3.6032444959442390e-03 0.0000000000000000e+00  -6.1144486257004419e-17 -3.6032444959443132e-03 0.0000000000000000e+00  4.2574746267972079e-18 -3.6032444959444732e-03 0.0000000000000000e+00  1.7043668532348927e-16 -3.6032444959444741e-03 0.0000000000000000e+00  2.7493208493952127e-16 -3.6032444959443939e-03 0.0000000000000000e+00  3.0422649745312978e-16 -3.6032444959443570e-03 0.0000000000000000e+00  3.1318943781125244e-16 -3.6032444959444017e-03 0.0000000000000000e+00  2.9834645179642182e-16 -3.6032444959442850e-03 0.0000000000000000e+00  2.5680978004368171e-16 -3.6032444959441328e-03 0.0000000000000000e+00  9.9470439735378753e-17 -3.6032444959440287e-03 0.0000000000000000e+00  6.4866442276954779e-34 -3.6032444959440651e-03 0.0000000000000000e+00  3.2671426022943640e-33 -3.8804171494784168e-03 0.0000000000000000e+00  -7.6821200300481016e-17 -3.8804171494785061e-03 0.0000000000000000e+00  -1.7689073534042717e-18 -3.8804171494786666e-03 0.0000000000000000e+00  1.8584818692493071e-16 -3.8804171494786570e-03 0.0000000000000000e+00  2.8460756782152008e-16 -3.8804171494785824e-03 0.0000000000000000e+00  3.0691838992169230e-16 -3.8804171494785530e-03 0.0000000000000000e+00  3.2177194952840711e-16 -3.8804171494785729e-03 0.0000000000000000e+00  3.1419247840653423e-16 -3.8804171494784575e-03 0.0000000000000000e+00  2.7239924981288652e-16 -3.8804171494783097e-03 0.0000000000000000e+00  1.0560879195003443e-16 -3.8804171494781839e-03 0.0000000000000000e+00  -1.5234406786656832e-32 -3.8804171494782138e-03 0.0000000000000000e+00  -1.1284745767893952e-32 -4.1575898030125980e-03 0.0000000000000000e+00  -9.2553749788907402e-17 -4.1575898030127021e-03 0.0000000000000000e+00  -7.2655633889922771e-18 -4.1575898030128504e-03 0.0000000000000000e+00  2.0059755486083001e-16 -4.1575898030128270e-03 0.0000000000000000e+00  2.8992585586759821e-16 -4.1575898030127723e-03 0.0000000000000000e+00  3.0926627871042943e-16 -4.1575898030127506e-03 0.0000000000000000e+00  3.3140947509961414e-16 -4.1575898030127324e-03 0.0000000000000000e+00  3.2783471346826674e-16 -4.1575898030126318e-03 0.0000000000000000e+00  2.8644821473419882e-16 -4.1575898030124878e-03 0.0000000000000000e+00  1.1154206320002317e-16 -4.1575898030123447e-03 0.0000000000000000e+00  -7.8993220375257652e-33 -4.1575898030123785e-03 0.0000000000000000e+00  -2.2946538846321456e-32 -4.4347624565467883e-03 0.0000000000000000e+00  -1.0762808939574687e-16 -4.4347624565469123e-03 0.0000000000000000e+00  -1.0123975308839031e-17 -4.4347624565470225e-03 0.0000000000000000e+00  2.0951443017481827e-16 -4.4347624565470069e-03 0.0000000000000000e+00  2.8882696309769009e-16 -4.4347624565469765e-03 0.0000000000000000e+00  3.1470774291431936e-16 -4.4347624565469453e-03 0.0000000000000000e+00  3.4097147954964343e-16 -4.4347624565468950e-03 0.0000000000000000e+00  3.3859388877175085e-16 -4.4347624565467900e-03 0.0000000000000000e+00  2.9820616223867382e-16 -4.4347624565466478e-03 0.0000000000000000e+00  1.1771616623613616e-16 -4.4347624565465177e-03 0.0000000000000000e+00  7.6969433935068599e-33 -4.4347624565465498e-03 0.0000000000000000e+00  -1.8055593228630399e-32 -4.7119351100809795e-03 0.0000000000000000e+00  -1.1719253197846101e-16 -4.7119351100811191e-03 0.0000000000000000e+00  -8.5232646337248221e-18 -4.7119351100812102e-03 0.0000000000000000e+00  2.1374926485828193e-16 -4.7119351100811972e-03 0.0000000000000000e+00  2.8462129973397218e-16 -4.7119351100811798e-03 0.0000000000000000e+00  3.2489853245745997e-16 -4.7119351100811365e-03 0.0000000000000000e+00  3.5421024741734241e-16 -4.7119351100810393e-03 0.0000000000000000e+00  3.4059495495332169e-16 -4.7119351100809396e-03 0.0000000000000000e+00  3.0776053400857504e-16 -4.7119351100808173e-03 0.0000000000000000e+00  1.2245056402894077e-16 -4.7119351100806846e-03 0.0000000000000000e+00  -1.2965343058786862e-32 -4.7119351100807427e-03 0.0000000000000000e+00  4.4739630794222966e-33 -4.9891077636151681e-03 0.0000000000000000e+00  -1.2830599434527623e-16 -4.9891077636153285e-03 0.0000000000000000e+00  -2.4613525186171158e-18 -4.9891077636154075e-03 0.0000000000000000e+00  2.1454970670335315e-16 -4.9891077636153944e-03 0.0000000000000000e+00  2.7946329542460986e-16 -4.9891077636153806e-03 0.0000000000000000e+00  3.3891813615145070e-16 -4.9891077636153146e-03 0.0000000000000000e+00  3.7114767977558781e-16 -4.9891077636151845e-03 0.0000000000000000e+00  3.3725185114893422e-16 -4.9891077636150648e-03 0.0000000000000000e+00  3.1377890413251593e-16 -4.9891077636149651e-03 0.0000000000000000e+00  1.2243711086522082e-16 -4.9891077636148445e-03 0.0000000000000000e+00  -1.3058062959991586e-32 -4.9891077636149261e-03 0.0000000000000000e+00  1.5798644075051533e-32 -5.2662804171493714e-03 0.0000000000000000e+00  -1.3834015078731567e-16 -5.2662804171495180e-03 0.0000000000000000e+00  4.3905207088846144e-18 -5.2662804171496160e-03 0.0000000000000000e+00  2.1292980782220282e-16 -5.2662804171495839e-03 0.0000000000000000e+00  2.7440754430528802e-16 -5.2662804171495709e-03 0.0000000000000000e+00  3.5879942934050216e-16 -5.2662804171494815e-03 0.0000000000000000e+00  3.8762822520251068e-16 -5.2662804171493350e-03 0.0000000000000000e+00  3.3301731178846208e-16 -5.2662804171491962e-03 0.0000000000000000e+00  3.1531921454716727e-16 -5.2662804171491086e-03 0.0000000000000000e+00  1.1464996122395665e-16 -5.2662804171490097e-03 0.0000000000000000e+00  -6.7708474607363706e-33 -5.2662804171491068e-03 0.0000000000000000e+00  -7.7474341806465506e-33 -5.5434530706835791e-03 0.0000000000000000e+00  -1.4648820361891756e-16 -5.5434530706837057e-03 0.0000000000000000e+00  9.6458409513373647e-18 -5.5434530706838202e-03 0.0000000000000000e+00  2.0930573210241161e-16 -5.5434530706837968e-03 0.0000000000000000e+00  2.7080698470879664e-16 -5.5434530706837586e-03 0.0000000000000000e+00  3.8079482704319998e-16 -5.5434530706836450e-03 0.0000000000000000e+00  4.0527168832583301e-16 -5.5434530706834975e-03 0.0000000000000000e+00  3.2735752203388044e-16 -5.5434530706833414e-03 0.0000000000000000e+00  3.0912529577248732e-16 -5.5434530706832564e-03 0.0000000000000000e+00  1.0345485844663242e-16 -5.5434530706831749e-03 0.0000000000000000e+00  -6.3208648170025056e-33 -5.5434530706832841e-03 0.0000000000000000e+00  2.2569491535787941e-33 -5.8206257242177928e-03 0.0000000000000000e+00  -1.5265348171663451e-16 -5.8206257242178856e-03 0.0000000000000000e+00  9.5793179102937038e-18 -5.8206257242180270e-03 0.0000000000000000e+00  2.1127621590608736e-16 -5.8206257242180062e-03 0.0000000000000000e+00  2.6721058280237211e-16 -5.8206257242179333e-03 0.0000000000000000e+00  4.0019166990920280e-16 -5.8206257242178067e-03 0.0000000000000000e+00  4.2736480411509491e-16 -5.8206257242176705e-03 0.0000000000000000e+00  3.1856689019937146e-16 -5.8206257242175066e-03 0.0000000000000000e+00  2.9928053533709215e-16 -5.8206257242174129e-03 0.0000000000000000e+00  9.0896380913197087e-17 -5.8206257242173565e-03 0.0000000000000000e+00  -6.2997570122744885e-33 -5.8206257242174502e-03 0.0000000000000000e+00  -1.3484892011739560e-32 -6.0977983777520057e-03 0.0000000000000000e+00  -1.5831906851214031e-16 -6.0977983777520724e-03 0.0000000000000000e+00  6.8817470074530796e-18 -6.0977983777522242e-03 0.0000000000000000e+00  2.1547343159653013e-16 -6.0977983777522095e-03 0.0000000000000000e+00  2.6665229369554704e-16 -6.0977983777521028e-03 0.0000000000000000e+00  4.1857226627166188e-16 -6.0977983777519762e-03 0.0000000000000000e+00  4.4404129896673941e-16 -6.0977983777518409e-03 0.0000000000000000e+00  3.1196110418509751e-16 -6.0977983777517099e-03 0.0000000000000000e+00  2.9044010766038595e-16 -6.0977983777515737e-03 0.0000000000000000e+00  7.3874690407010318e-17 -6.0977983777515277e-03 0.0000000000000000e+00  1.1405653758264243e-32 -6.0977983777516223e-03 0.0000000000000000e+00  -1.5798644075051533e-32 -6.3749710312862185e-03 0.0000000000000000e+00  -1.6463131908885284e-16 -6.3749710312862671e-03 0.0000000000000000e+00  3.4591981342727399e-18 -6.3749710312864380e-03 0.0000000000000000e+00  2.2176710593656195e-16 -6.3749710312864276e-03 0.0000000000000000e+00  2.7125387295338830e-16 -6.3749710312862706e-03 0.0000000000000000e+00  4.3827658738574599e-16 -6.3749710312861457e-03 0.0000000000000000e+00  4.5228976627271480e-16 -6.3749710312860442e-03 0.0000000000000000e+00  3.0219042325230219e-16 -6.3749710312859123e-03 0.0000000000000000e+00  2.8258987835366395e-16 -6.3749710312857475e-03 0.0000000000000000e+00  5.6635373350997767e-17 -6.3749710312856903e-03 0.0000000000000000e+00  -1.6927118651840926e-33 -6.3749710312857909e-03 0.0000000000000000e+00  1.1019764488237461e-32 -6.6521436848204340e-03 0.0000000000000000e+00  -1.7147088875187642e-16 -6.6521436848204748e-03 0.0000000000000000e+00  -5.6211969681931658e-18 -6.6521436848206482e-03 0.0000000000000000e+00  2.3046680651167888e-16 -6.6521436848206482e-03 0.0000000000000000e+00  2.7873154197312899e-16 -6.6521436848204262e-03 0.0000000000000000e+00  4.5596184328150693e-16 -6.6521436848203264e-03 0.0000000000000000e+00  4.5581635987012208e-16 -6.6521436848202406e-03 0.0000000000000000e+00  2.9156529768687645e-16 -6.6521436848201287e-03 0.0000000000000000e+00  2.7575463588642298e-16 -6.6521436848199248e-03 0.0000000000000000e+00  4.0673347545935486e-17 -6.6521436848198485e-03 0.0000000000000000e+00  3.7399051514323440e-35 -6.6521436848199630e-03 0.0000000000000000e+00  -3.1597288150103066e-32 -6.9293163383546364e-03 0.0000000000000000e+00  -1.7687373278725305e-16 -6.9293163383546737e-03 0.0000000000000000e+00  -1.5675075309827126e-17 -6.9293163383548533e-03 0.0000000000000000e+00  2.3989025562441338e-16 -6.9293163383548498e-03 0.0000000000000000e+00  2.898