<?xml version="1.0"?>
<VTKFile type="UnstructuredGrid"  version="0.1"  >
<UnstructuredGrid>
<Piece  NumberOfPoints="1091" NumberOfCells="2050">
<Points>
<DataArray  type="Float64"  NumberOfComponents="3"  format="ascii">-0.5 -1 0  -0.4 -1 0  -0.3 -1 0  -0.2 -1 0  -0.09999999999999998 -1 0  0 -1 0  0.09999999999999998 -1 0  0.2 -1 0  0.3 -1 0  0.4 -1 0  0.5 -1 0  -0.5 -0.98 0  -0.4 -0.98 0  -0.3 -0.98 0  -0.2 -0.98 0  -0.09999999999999998 -0.98 0  0 -0.98 0  0.09999999999999998 -0.98 0  0.2 -0.98 0  0.3 -0.98 0  0.4 -0.98 0  0.5 -0.98 0  -0.5 -0.96 0  -0.4 -0.96 0  -0.3 -0.96 0  -0.2 -0.96 0  -0.09999999999999998 -0.96 0  0 -0.96 0  0.09999999999999998 -0.96 0  0.2 -0.96 0  0.3 -0.96 0  0.4 -0.96 0  0.5 -0.96 0  -0.5 -0.9399999999999999 0  -0.4 -0.9399999999999999 0  -0.3 -0.9399999999999999 0  -0.2 -0.9399999999999999 0  -0.09999999999999998 -0.9399999999999999 0  0 -0.9399999999999999 0  0.09999999999999998 -0.9399999999999999 0  0.2 -0.9399999999999999 0  0.3 -0.9399999999999999 0  0.4 -0.9399999999999999 0  0.5 -0.9399999999999999 0  -0.5 -0.92 0  -0.4 -0.92 0  -0.3 -0.92 0  -0.2 -0.92 0  -0.09999999999999998 -0.92 0  0 -0.92 0  0.09999999999999998 -0.92 0  0.2 -0.92 0  0.3 -0.92 0  0.4 -0.92 0  0.5 -0.92 0  -0.5 -0.9 0  -0.4 -0.9 0  -0.3 -0.9 0  -0.2 -0.9 0  -0.09999999999999998 -0.9 0  0 -0.9 0  0.09999999999999998 -0.9 0  0.2 -0.9 0  0.3 -0.9 0  0.4 -0.9 0  0.5 -0.9 0  -0.5 -0.88 0  -0.4 -0.88 0  -0.3 -0.88 0  -0.2 -0.88 0  -0.09999999999999998 -0.88 0  0 -0.88 0  0.09999999999999998 -0.88 0  0.2 -0.88 0  0.3 -0.88 0  0.4 -0.88 0  0.5 -0.88 0  -0.5 -0.86 0  -0.4 -0.86 0  -0.3 -0.86 0  -0.2 -0.86 0  -0.09999999999999998 -0.86 0  0 -0.86 0  0.09999999999999998 -0.86 0  0.2 -0.86 0  0.3 -0.86 0  0.4 -0.86 0  0.5 -0.86 0  -0.5 -0.84 0  -0.4 -0.84 0  -0.3 -0.84 0  -0.2 -0.84 0  -0.09999999999999998 -0.84 0  0 -0.84 0  0.09999999999999998 -0.84 0  0.2 -0.84 0  0.3 -0.84 0  0.4 -0.84 0  0.5 -0.84 0  -0.5 -0.8200000000000001 0  -0.4 -0.8200000000000001 0  -0.3 -0.8200000000000001 0  -0.2 -0.8200000000000001 0  -0.09999999999999998 -0.8200000000000001 0  0 -0.8200000000000001 0  0.09999999999999998 -0.8200000000000001 0  0.2 -0.8200000000000001 0  0.3 -0.8200000000000001 0  0.4 -0.8200000000000001 0  0.5 -0.8200000000000001 0  -0.5 -0.8 0  -0.4 -0.8 0  -0.3 -0.8 0  -0.2 -0.8 0  -0.09999999999999998 -0.8 0  0 -0.8 0  0.09999999999999998 -0.8 0  0.2 -0.8 0  0.3 -0.8 0  0.4 -0.8 0  0.5 -0.8 0  -0.5 -0.78 0  -0.4 -0.78 0  -0.3 -0.78 0  -0.2 -0.78 0  -0.09999999999999998 -0.78 0  0 -0.78 0  0.09999999999999998 -0.78 0  0.2 -0.78 0  0.3 -0.78 0  0.4 -0.78 0  0.5 -0.78 0  -0.5 -0.76 0  -0.4 -0.76 0  -0.3 -0.76 0  -0.2 -0.76 0  -0.09999999999999998 -0.76 0  0 -0.76 0  0.09999999999999998 -0.76 0  0.2 -0.76 0  0.3 -0.76 0  0.4 -0.76 0  0.5 -0.76 0  -0.5 -0.74 0  -0.4 -0.74 0  -0.3 -0.74 0  -0.2 -0.74 0  -0.09999999999999998 -0.74 0  0 -0.74 0  0.09999999999999998 -0.74 0  0.2 -0.74 0  0.3 -0.74 0  0.4 -0.74 0  0.5 -0.74 0  -0.5 -0.72 0  -0.4 -0.72 0  -0.3 -0.72 0  -0.2 -0.72 0  -0.09999999999999998 -0.72 0  0 -0.72 0  0.09999999999999998 -0.72 0  0.2 -0.72 0  0.3 -0.72 0  0.4 -0.72 0  0.5 -0.72 0  -0.5 -0.7 0  -0.4 -0.7 0  -0.3 -0.7 0  -0.2 -0.7 0  -0.09999999999999998 -0.7 0  0 -0.7 0  0.09999999999999998 -0.7 0  0.2 -0.7 0  0.3 -0.7 0  0.4 -0.7 0  0.5 -0.7 0  -0.5 -0.6799999999999999 0  -0.4 -0.6799999999999999 0  -0.3 -0.6799999999999999 0  -0.2 -0.6799999999999999 0  -0.09999999999999998 -0.6799999999999999 0  0 -0.6799999999999999 0  0.09999999999999998 -0.6799999999999999 0  0.2 -0.6799999999999999 0  0.3 -0.6799999999999999 0  0.4 -0.6799999999999999 0  0.5 -0.6799999999999999 0  -0.5 -0.6599999999999999 0  -0.4 -0.6599999999999999 0  -0.3 -0.6599999999999999 0  -0.2 -0.6599999999999999 0  -0.09999999999999998 -0.6599999999999999 0  0 -0.6599999999999999 0  0.09999999999999998 -0.6599999999999999 0  0.2 -0.6599999999999999 0  0.3 -0.6599999999999999 0  0.4 -0.6599999999999999 0  0.5 -0.6599999999999999 0  -0.5 -0.64 0  -0.4 -0.64 0  -0.3 -0.64 0  -0.2 -0.64 0  -0.09999999999999998 -0.64 0  0 -0.64 0  0.09999999999999998 -0.64 0  0.2 -0.64 0  0.3 -0.64 0  0.4 -0.64 0  0.5 -0.64 0  -0.5 -0.62 0  -0.4 -0.62 0  -0.3 -0.62 0  -0.2 -0.62 0  -0.09999999999999998 -0.62 0  0 -0.62 0  0.09999999999999998 -0.62 0  0.2 -0.62 0  0.3 -0.62 0  0.4 -0.62 0  0.5 -0.62 0  -0.5 -0.6 0  -0.4 -0.6 0  -0.3 -0.6 0  -0.2 -0.6 0  -0.09999999999999998 -0.6 0  0 -0.6 0  0.09999999999999998 -0.6 0  0.2 -0.6 0  0.3 -0.6 0  0.4 -0.6 0  0.5 -0.6 0  -0.5 -0.5800000000000001 0  -0.4 -0.5800000000000001 0  -0.3 -0.5800000000000001 0  -0.2 -0.5800000000000001 0  -0.09999999999999998 -0.5800000000000001 0  0 -0.5800000000000001 0  0.09999999999999998 -0.5800000000000001 0  0.2 -0.5800000000000001 0  0.3 -0.5800000000000001 0  0.4 -0.5800000000000001 0  0.5 -0.5800000000000001 0  -0.5 -0.5600000000000001 0  -0.4 -0.5600000000000001 0  -0.3 -0.5600000000000001 0  -0.2 -0.5600000000000001 0  -0.09999999999999998 -0.5600000000000001 0  0 -0.5600000000000001 0  0.09999999999999998 -0.5600000000000001 0  0.2 -0.5600000000000001 0  0.3 -0.5600000000000001 0  0.4 -0.5600000000000001 0  0.5 -0.5600000000000001 0  -0.5 -0.54 0  -0.4 -0.54 0  -0.3 -0.54 0  -0.2 -0.54 0  -0.09999999999999998 -0.54 0  0 -0.54 0  0.09999999999999998 -0.54 0  0.2 -0.54 0  0.3 -0.54 0  0.4 -0.54 0  0.5 -0.54 0  -0.5 -0.52 0  -0.4 -0.52 0  -0.3 -0.52 0  -0.2 -0.52 0  -0.09999999999999998 -0.52 0  0 -0.52 0  0.09999999999999998 -0.52 0  0.2 -0.52 0  0.3 -0.52 0  0.4 -0.52 0  0.5 -0.52 0  -0.5 -0.5 0  -0.4 -0.5 0  -0.3 -0.5 0  -0.2 -0.5 0  -0.09999999999999998 -0.5 0  0 -0.5 0  0.09999999999999998 -0.5 0  0.2 -0.5 0  0.3 -0.5 0  0.4 -0.5 0  0.5 -0.5 0  -0.5 -0.48 0  -0.4 -0.48 0  -0.3 -0.48 0  -0.2 -0.48 0  -0.09999999999999998 -0.48 0  0 -0.48 0  0.09999999999999998 -0.48 0  0.2 -0.48 0  0.3 -0.48 0  0.4 -0.48 0  0.5 -0.48 0  -0.5 -0.46 0  -0.4 -0.46 0  -0.3 -0.46 0  -0.2 -0.46 0  -0.09999999999999998 -0.46 0  0 -0.46 0  0.09999999999999998 -0.46 0  0.2 -0.46 0  0.3 -0.46 0  0.4 -0.46 0  0.5 -0.46 0  -0.5 -0.4399999999999999 0  -0.4 -0.4399999999999999 0  -0.3 -0.4399999999999999 0  -0.2 -0.4399999999999999 0  -0.09999999999999998 -0.4399999999999999 0  0 -0.4399999999999999 0  0.09999999999999998 -0.4399999999999999 0  0.2 -0.4399999999999999 0  0.3 -0.4399999999999999 0  0.4 -0.4399999999999999 0  0.5 -0.4399999999999999 0  -0.5 -0.42 0  -0.4 -0.42 0  -0.3 -0.42 0  -0.2 -0.42 0  -0.09999999999999998 -0.42 0  0 -0.42 0  0.09999999999999998 -0.42 0  0.2 -0.42 0  0.3 -0.42 0  0.4 -0.42 0  0.5 -0.42 0  -0.5 -0.4 0  -0.4 -0.4 0  -0.3 -0.4 0  -0.2 -0.4 0  -0.09999999999999998 -0.4 0  0 -0.4 0  0.09999999999999998 -0.4 0  0.2 -0.4 0  0.3 -0.4 0  0.4 -0.4 0  0.5 -0.4 0  -0.5 -0.38 0  -0.4 -0.38 0  -0.3 -0.38 0  -0.2 -0.38 0  -0.09999999999999998 -0.38 0  0 -0.38 0  0.09999999999999998 -0.38 0  0.2 -0.38 0  0.3 -0.38 0  0.4 -0.38 0  0.5 -0.38 0  -0.5 -0.36 0  -0.4 -0.36 0  -0.3 -0.36 0  -0.2 -0.36 0  -0.09999999999999998 -0.36 0  0 -0.36 0  0.09999999999999998 -0.36 0  0.2 -0.36 0  0.3 -0.36 0  0.4 -0.36 0  0.5 -0.36 0  -0.5 -0.34 0  -0.4 -0.34 0  -0.3 -0.34 0  -0.2 -0.34 0  -0.09999999999999998 -0.34 0  0 -0.34 0  0.09999999999999998 -0.34 0  0.2 -0.34 0  0.3 -0.34 0  0.4 -0.34 0  0.5 -0.34 0  -0.5 -0.32 0  -0.4 -0.32 0  -0.3 -0.32 0  -0.2 -0.32 0  -0.09999999999999998 -0.32 0  0 -0.32 0  0.09999999999999998 -0.32 0  0.2 -0.32 0  0.3 -0.32 0  0.4 -0.32 0  0.5 -0.32 0  -0.5 -0.3 0  -0.4 -0.3 0  -0.3 -0.3 0  -0.2 -0.3 0  -0.09999999999999998 -0.3 0  0 -0.3 0  0.09999999999999998 -0.3 0  0.2 -0.3 0  0.3 -0.3 0  0.4 -0.3 0  0.5 -0.3 0  -0.5 -0.28 0  -0.4 -0.28 0  -0.3 -0.28 0  -0.2 -0.28 0  -0.09999999999999998 -0.28 0  0 -0.28 0  0.09999999999999998 -0.28 0  0.2 -0.28 0  0.3 -0.28 0  0.4 -0.28 0  0.5 -0.28 0  -0.5 -0.26 0  -0.4 -0.26 0  -0.3 -0.26 0  -0.2 -0.26 0  -0.09999999999999998 -0.26 0  0 -0.26 0  0.09999999999999998 -0.26 0  0.2 -0.26 0  0.3 -0.26 0  0.4 -0.26 0  0.5 -0.26 0  -0.5 -0.24 0  -0.4 -0.24 0  -0.3 -0.24 0  -0.2 -0.24 0  -0.09999999999999998 -0.24 0  0 -0.24 0  0.09999999999999998 -0.24 0  0.2 -0.24 0  0.3 -0.24 0  0.4 -0.24 0  0.5 -0.24 0  -0.5 -0.22 0  -0.4 -0.22 0  -0.3 -0.22 0  -0.2 -0.22 0  -0.09999999999999998 -0.22 0  0 -0.22 0  0.09999999999999998 -0.22 0  0.2 -0.22 0  0.3 -0.22 0  0.4 -0.22 0  0.5 -0.22 0  -0.5 -0.2 0  -0.4 -0.2 0  -0.3 -0.2 0  -0.2 -0.2 0  -0.09999999999999998 -0.2 0  0 -0.2 0  0.09999999999999998 -0.2 0  0.2 -0.2 0  0.3 -0.2 0  0.4 -0.2 0  0.5 -0.2 0  -0.5 -0.18 0  -0.4 -0.18 0  -0.3 -0.18 0  -0.2 -0.18 0  -0.09999999999999998 -0.18 0  0 -0.18 0  0.09999999999999998 -0.18 0  0.2 -0.18 0  0.3 -0.18 0  0.4 -0.18 0  0.5 -0.18 0  -0.5 -0.16 0  -0.4 -0.16 0  -0.3 -0.16 0  -0.2 -0.16 0  -0.09999999999999998 -0.16 0  0 -0.16 0  0.09999999999999998 -0.16 0  0.2 -0.16 0  0.3 -0.16 0  0.4 -0.16 0  0.5 -0.16 0  -0.5 -0.14 0  -0.4 -0.14 0  -0.3 -0.14 0  -0.2 -0.14 0  -0.09999999999999998 -0.14 0  0 -0.14 0  0.09999999999999998 -0.14 0  0.2 -0.14 0  0.3 -0.14 0  0.4 -0.14 0  0.5 -0.14 0  -0.5 -0.12 0  -0.4 -0.12 0  -0.3 -0.12 0  -0.2 -0.12 0  -0.09999999999999998 -0.12 0  0 -0.12 0  0.09999999999999998 -0.12 0  0.2 -0.12 0  0.3 -0.12 0  0.4 -0.12 0  0.5 -0.12 0  -0.5 -0.09999999999999998 0  -0.4 -0.09999999999999998 0  -0.3 -0.09999999999999998 0  -0.2 -0.09999999999999998 0  -0.09999999999999998 -0.09999999999999998 0  0 -0.09999999999999998 0  0.09999999999999998 -0.09999999999999998 0  0.2 -0.09999999999999998 0  0.3 -0.09999999999999998 0  0.4 -0.09999999999999998 0  0.5 -0.09999999999999998 0  -0.5 -0.07999999999999996 0  -0.4 -0.07999999999999996 0  -0.3 -0.07999999999999996 0  -0.2 -0.07999999999999996 0  -0.09999999999999998 -0.07999999999999996 0  0 -0.07999999999999996 0  0.09999999999999998 -0.07999999999999996 0  0.2 -0.07999999999999996 0  0.3 -0.07999999999999996 0  0.4 -0.07999999999999996 0  0.5 -0.07999999999999996 0  -0.5 -0.06000000000000005 0  -0.4 -0.06000000000000005 0  -0.3 -0.06000000000000005 0  -0.2 -0.06000000000000005 0  -0.09999999
[...]
<PointData  Vectors="displacement"> 
<DataArray  type="Float64"  Name="displacement"  NumberOfComponents="3" format="ascii">-3.5264830524668600e-34 0.0000000000000000e+00 0.0000000000000000e+00  -2.8211864419734870e-34 -1.9852334701272643e-20 0.0000000000000000e+00  2.6889433275059801e-34 -4.2457629878698336e-21 0.0000000000000000e+00  -2.8211864419734879e-34 -4.9630836753181623e-21 0.0000000000000000e+00  5.7668336501833588e-34 -1.9786803489125214e-20 0.0000000000000000e+00  2.8211864419734869e-33 3.7223127564886203e-20 0.0000000000000000e+00  2.4145388649859032e-33 1.2713055156601114e-20 0.0000000000000000e+00  5.3602542397496256e-33 -4.4667753077863446e-20 0.0000000000000000e+00  4.5208274496138946e-33 6.1418160482062245e-20 0.0000000000000000e+00  -5.0781355955522779e-33 -1.4889251025954486e-20 0.0000000000000000e+00  5.6423728839469732e-34 9.9261673506363201e-21 0.0000000000000000e+00  -2.8211864419734879e-34 -2.7717265353417362e-04 0.0000000000000000e+00  -5.2512240758359684e-18 -2.7717265353417497e-04 0.0000000000000000e+00  4.8075279179953785e-18 -2.7717265353417882e-04 0.0000000000000000e+00  2.5220501132994593e-17 -2.7717265353417931e-04 0.0000000000000000e+00  3.4065084159710382e-17 -2.7717265353417687e-04 0.0000000000000000e+00  3.8902326234530870e-17 -2.7717265353417156e-04 0.0000000000000000e+00  4.2434829375430761e-17 -2.7717265353417335e-04 0.0000000000000000e+00  3.4066065659005825e-17 -2.7717265353416852e-04 0.0000000000000000e+00  3.1512775195845905e-17 -2.7717265353416950e-04 0.0000000000000000e+00  1.8707688352318840e-17 -2.7717265353416148e-04 0.0000000000000000e+00  -1.1641578000042230e-33 -2.7717265353416896e-04 0.0000000000000000e+00  -7.0620958669475848e-34 -5.5434530706834583e-04 0.0000000000000000e+00  -7.6001360468309336e-18 -5.5434530706835081e-04 0.0000000000000000e+00  1.0963766965188008e-17 -5.5434530706835884e-04 0.0000000000000000e+00  4.6519889202253480e-17 -5.5434530706836176e-04 0.0000000000000000e+00  6.5296522474462890e-17 -5.5434530706835710e-04 0.0000000000000000e+00  7.5963570608385410e-17 -5.5434530706834301e-04 0.0000000000000000e+00  8.1058325511756057e-17 -5.5434530706834680e-04 0.0000000000000000e+00  6.5519400775145498e-17 -5.5434530706833813e-04 0.0000000000000000e+00  5.9284119482186448e-17 -5.5434530706833845e-04 0.0000000000000000e+00  3.5296445780282284e-17 -5.5434530706832089e-04 0.0000000000000000e+00  -4.7557142878981649e-33 -5.5434530706833531e-04 0.0000000000000000e+00  3.5264830524668659e-34 -8.3151796060251923e-04 0.0000000000000000e+00  -8.2045013006921366e-18 -8.3151796060252671e-04 0.0000000000000000e+00  1.7877964741440596e-17 -8.3151796060254113e-04 0.0000000000000000e+00  6.5001326479831412e-17 -8.3151796060254861e-04 0.0000000000000000e+00  9.3788850813837377e-17 -8.3151796060253788e-04 0.0000000000000000e+00  1.1076256944329215e-16 -8.3151796060251684e-04 0.0000000000000000e+00  1.1634879878544209e-16 -8.3151796060252226e-04 0.0000000000000000e+00  9.3794193540369965e-17 -8.3151796060250774e-04 0.0000000000000000e+00  8.3752508674026085e-17 -8.3151796060250676e-04 0.0000000000000000e+00  5.0587512077120306e-17 -8.3151796060247760e-04 0.0000000000000000e+00  3.3854237303681894e-33 -8.3151796060249906e-04 0.0000000000000000e+00  -1.7645845241928801e-34 -1.1086906141366917e-03 0.0000000000000000e+00  -7.8618058610393576e-18 -1.1086906141367001e-03 0.0000000000000000e+00  2.4812418518719709e-17 -1.1086906141367222e-03 0.0000000000000000e+00  8.1378568903750940e-17 -1.1086906141367352e-03 0.0000000000000000e+00  1.1999925066271503e-16 -1.1086906141367157e-03 0.0000000000000000e+00  1.4233409766219287e-16 -1.1086906141366932e-03 0.0000000000000000e+00  1.4923205304272840e-16 -1.1086906141366992e-03 0.0000000000000000e+00  1.1964168931710513e-16 -1.1086906141366778e-03 0.0000000000000000e+00  1.0602346639823042e-16 -1.1086906141366691e-03 0.0000000000000000e+00  6.4060128819085851e-17 -1.1086906141366331e-03 0.0000000000000000e+00  1.1267484821139993e-32 -1.1086906141366622e-03 0.0000000000000000e+00  4.2317796629602316e-34 -1.3858632676708692e-03 0.0000000000000000e+00  -6.3131786062566058e-18 -1.3858632676708800e-03 0.0000000000000000e+00  3.1398875372629334e-17 -1.3858632676709071e-03 0.0000000000000000e+00  9.5741980172111323e-17 -1.3858632676709210e-03 0.0000000000000000e+00  1.4368976865440543e-16 -1.3858632676709004e-03 0.0000000000000000e+00  1.7103073852336890e-16 -1.3858632676708746e-03 0.0000000000000000e+00  1.7904052843403747e-16 -1.3858632676708800e-03 0.0000000000000000e+00  1.4460134220120752e-16 -1.3858632676708533e-03 0.0000000000000000e+00  1.2704250756103233e-16 -1.3858632676708271e-03 0.0000000000000000e+00  7.5328186312401735e-17 -1.3858632676707905e-03 0.0000000000000000e+00  -1.5556990820495486e-32 -1.3858632676708254e-03 0.0000000000000000e+00  -5.3240540724616846e-34 -1.6630359212050450e-03 0.0000000000000000e+00  -3.9872121356246008e-18 -1.6630359212050588e-03 0.0000000000000000e+00  3.7880332577478560e-17 -1.6630359212050883e-03 0.0000000000000000e+00  1.0791055839257356e-16 -1.6630359212051083e-03 0.0000000000000000e+00  1.6462789582291195e-16 -1.6630359212050840e-03 0.0000000000000000e+00  1.9835618715895275e-16 -1.6630359212050534e-03 0.0000000000000000e+00  2.0535662770192126e-16 -1.6630359212050604e-03 0.0000000000000000e+00  1.6858206244930116e-16 -1.6630359212050300e-03 0.0000000000000000e+00  1.4603458361979327e-16 -1.6630359212049873e-03 0.0000000000000000e+00  8.3616077232374187e-17 -1.6630359212049472e-03 0.0000000000000000e+00  -6.6096368069093130e-33 -1.6630359212049812e-03 0.0000000000000000e+00  3.7028072050902027e-34 -1.9402085747392171e-03 0.0000000000000000e+00  -2.0414318916487779e-18 -1.9402085747392318e-03 0.0000000000000000e+00  4.4236709116388148e-17 -1.9402085747392721e-03 0.0000000000000000e+00  1.1876025902327656e-16 -1.9402085747392986e-03 0.0000000000000000e+00  1.8277205526758301e-16 -1.9402085747392626e-03 0.0000000000000000e+00  2.2432455060364754e-16 -1.9402085747392305e-03 0.0000000000000000e+00  2.2894673991468218e-16 -1.9402085747392325e-03 0.0000000000000000e+00  1.9060085275824128e-16 -1.9402085747392019e-03 0.0000000000000000e+00  1.6451148050108547e-16 -1.9402085747391451e-03 0.0000000000000000e+00  8.9643111975051051e-17 -1.9402085747390982e-03 0.0000000000000000e+00  -2.2569491535787900e-33 -1.9402085747391366e-03 0.0000000000000000e+00  -6.6599217897106912e-34 -2.2173812282733868e-03 0.0000000000000000e+00  -1.7453800805222174e-18 -2.2173812282734050e-03 0.0000000000000000e+00  4.9351781074299510e-17 -2.2173812282734609e-03 0.0000000000000000e+00  1.2859363110426322e-16 -2.2173812282734883e-03 0.0000000000000000e+00  1.9805988163743955e-16 -2.2173812282734419e-03 0.0000000000000000e+00  2.4814556988337861e-16 -2.2173812282734111e-03 0.0000000000000000e+00  2.5232189467877769e-16 -2.2173812282734128e-03 0.0000000000000000e+00  2.0925878255574453e-16 -2.2173812282733694e-03 0.0000000000000000e+00  1.8193635956447115e-16 -2.2173812282733039e-03 0.0000000000000000e+00  9.4731336662164200e-17 -2.2173812282732458e-03 0.0000000000000000e+00  -1.2076394776866079e-32 -2.2173812282732853e-03 0.0000000000000000e+00  -1.4105932209867499e-34 -2.4945538818075580e-03 0.0000000000000000e+00  -3.2570116300254149e-18 -2.4945538818075767e-03 0.0000000000000000e+00  5.1863025873699245e-17 -2.4945538818076430e-03 0.0000000000000000e+00  1.3867397135902834e-16 -2.4945538818076794e-03 0.0000000000000000e+00  2.1135201677598408e-16 -2.4945538818076231e-03 0.0000000000000000e+00  2.6843138454777484e-16 -2.4945538818075853e-03 0.0000000000000000e+00  2.7413313676098170e-16 -2.4945538818076035e-03 0.0000000000000000e+00  2.2629454561341020e-16 -2.4945538818075433e-03 0.0000000000000000e+00  1.9839665453272250e-16 -2.4945538818074613e-03 0.0000000000000000e+00  1.0010969899825641e-16 -2.4945538818073928e-03 0.0000000000000000e+00  -2.0514202024493600e-32 -2.4945538818074366e-03 0.0000000000000000e+00  1.1379154824091108e-34 -2.7717265353417327e-03 0.0000000000000000e+00  -7.1271392334477007e-18 -2.7717265353417574e-03 0.0000000000000000e+00  5.4116493889055021e-17 -2.7717265353418381e-03 0.0000000000000000e+00  1.4720205011225738e-16 -2.7717265353418715e-03 0.0000000000000000e+00  2.2452929572647853e-16 -2.7717265353418116e-03 0.0000000000000000e+00  2.8427162043976307e-16 -2.7717265353417635e-03 0.0000000000000000e+00  2.9123110400075314e-16 -2.7717265353418017e-03 0.0000000000000000e+00  2.4536667820545310e-16 -2.7717265353417175e-03 0.0000000000000000e+00  2.1518130391806974e-16 -2.7717265353416161e-03 0.0000000000000000e+00  1.0393701989057126e-16 -2.7717265353415493e-03 0.0000000000000000e+00  4.4332929802440518e-33 -2.7717265353415896e-03 0.0000000000000000e+00  1.1284745767893952e-33 -3.0488991888759113e-03 0.0000000000000000e+00  -1.0799263080496977e-17 -3.0488991888759408e-03 0.0000000000000000e+00  5.2885817629746452e-17 -3.0488991888760362e-03 0.0000000000000000e+00  1.5553017614830733e-16 -3.0488991888760687e-03 0.0000000000000000e+00  2.3894244804886225e-16 -3.0488991888759959e-03 0.0000000000000000e+00  2.9685692925150714e-16 -3.0488991888759360e-03 0.0000000000000000e+00  3.0396040528895476e-16 -3.0488991888759885e-03 0.0000000000000000e+00  2.6400748416733393e-16 -3.0488991888758931e-03 0.0000000000000000e+00  2.3189932107835970e-16 -3.0488991888757790e-03 0.0000000000000000e+00  1.0606271488749710e-16 -3.0488991888757019e-03 0.0000000000000000e+00  1.1284745767893950e-33 -3.0488991888757409e-03 0.0000000000000000e+00  -5.2899481284060975e-33 -3.3260718424100930e-03 0.0000000000000000e+00  -1.8240326512394237e-17 -3.3260718424101342e-03 0.0000000000000000e+00  5.0091849905910813e-17 -3.3260718424102482e-03 0.0000000000000000e+00  1.6647372425855438e-16 -3.3260718424102599e-03 0.0000000000000000e+00  2.5445063199217637e-16 -3.3260718424101806e-03 0.0000000000000000e+00  3.0557992679747400e-16 -3.3260718424101138e-03 0.0000000000000000e+00  3.1239513999139900e-16 -3.3260718424101806e-03 0.0000000000000000e+00  2.8311588824892364e-16 -3.3260718424100665e-03 0.0000000000000000e+00  2.4539310418506898e-16 -3.3260718424099403e-03 0.0000000000000000e+00  1.0932429866915196e-16 -3.3260718424098553e-03 0.0000000000000000e+00  -9.4791563189715945e-33 -3.3260718424098913e-03 0.0000000000000000e+00  3.3854237303681853e-33 -3.6032444959442685e-03 0.0000000000000000e+00  -2.9041720523313146e-17 -3.6032444959443310e-03 0.0000000000000000e+00  4.8495296920861866e-17 -3.6032444959444459e-03 0.0000000000000000e+00  1.7669123117636989e-16 -3.6032444959444494e-03 0.0000000000000000e+00  2.6902250108489168e-16 -3.6032444959443648e-03 0.0000000000000000e+00  3.1147750892689376e-16 -3.6032444959443132e-03 0.0000000000000000e+00  3.1918482688531668e-16 -3.6032444959443626e-03 0.0000000000000000e+00  3.0168117908436682e-16 -3.6032444959442278e-03 0.0000000000000000e+00  2.5683554635340262e-16 -3.6032444959441016e-03 0.0000000000000000e+00  1.1243582443954277e-16 -3.6032444959440066e-03 0.0000000000000000e+00  6.3190358651900741e-33 -3.6032444959440421e-03 0.0000000000000000e+00  -5.0844458387767027e-33 -3.8804171494784476e-03 0.0000000000000000e+00  -3.9709206160354004e-17 -3.8804171494785217e-03 0.0000000000000000e+00  4.6083382814435984e-17 -3.8804171494786393e-03 0.0000000000000000e+00  1.8927781492486848e-16 -3.8804171494786297e-03 0.0000000000000000e+00  2.7812868574168681e-16 -3.8804171494785504e-03 0.0000000000000000e+00  3.1393826663692557e-16 -3.8804171494785061e-03 0.0000000000000000e+00  3.2762597714025309e-16 -3.8804171494785352e-03 0.0000000000000000e+00  3.1789153111544448e-16 -3.8804171494784055e-03 0.0000000000000000e+00  2.6936637772079377e-16 -3.8804171494782663e-03 0.0000000000000000e+00  1.1724193943098603e-16 -3.8804171494781583e-03 0.0000000000000000e+00  -3.7078450380222976e-33 -3.8804171494781830e-03 0.0000000000000000e+00  5.6423728839469758e-34 -4.1575898030126275e-03 0.0000000000000000e+00  -5.0293458421528882e-17 -4.1575898030127064e-03 0.0000000000000000e+00  4.2768078856005277e-17 -4.1575898030128296e-03 0.0000000000000000e+00  2.0130289402669978e-16 -4.1575898030128122e-03 0.0000000000000000e+00  2.8308442162519068e-16 -4.1575898030127368e-03 0.0000000000000000e+00  3.1523474402539270e-16 -4.1575898030127021e-03 0.0000000000000000e+00  3.3558379592510658e-16 -4.1575898030126986e-03 0.0000000000000000e+00  3.3192132243237459e-16 -4.1575898030125858e-03 0.0000000000000000e+00  2.8099332536861493e-16 -4.1575898030124323e-03 0.0000000000000000e+00  1.2106703491057772e-16 -4.1575898030123092e-03 0.0000000000000000e+00  -1.1284745767893949e-32 -4.1575898030123386e-03 0.0000000000000000e+00  -1.2241871855384803e-33 -4.4347624565468117e-03 0.0000000000000000e+00  -5.8408371125020169e-17 -4.4347624565469063e-03 0.0000000000000000e+00  3.8728882957632688e-17 -4.4347624565470155e-03 0.0000000000000000e+00  2.0887812062747083e-16 -4.4347624565469956e-03 0.0000000000000000e+00  2.8503049660981704e-16 -4.4347624565469392e-03 0.0000000000000000e+00  3.1756276560386752e-16 -4.4347624565468915e-03 0.0000000000000000e+00  3.4257845845615885e-16 -4.4347624565468620e-03 0.0000000000000000e+00  3.4355007690026950e-16 -4.4347624565467493e-03 0.0000000000000000e+00  2.9194052331036981e-16 -4.4347624565465949e-03 0.0000000000000000e+00  1.2530601813562542e-16 -4.4347624565464743e-03 0.0000000000000000e+00  2.1312894238836922e-33 -4.4347624565464977e-03 0.0000000000000000e+00  -1.0156271191104600e-32 -4.7119351100809916e-03 0.0000000000000000e+00  -6.5648584035805132e-17 -4.7119351100811200e-03 0.0000000000000000e+00  3.6155272807254204e-17 -4.7119351100812015e-03 0.0000000000000000e+00  2.1230375391012403e-16 -4.7119351100811876e-03 0.0000000000000000e+00  2.8470172505117159e-16 -4.7119351100811391e-03 0.0000000000000000e+00  3.2323545643136729e-16 -4.7119351100810844e-03 0.0000000000000000e+00  3.5085083384463572e-16 -4.7119351100810142e-03 0.0000000000000000e+00  3.4926165350875828e-16 -4.7119351100808945e-03 0.0000000000000000e+00  3.0221001777149095e-16 -4.7119351100807522e-03 0.0000000000000000e+00  1.2980325378587482e-16 -4.7119351100806334e-03 0.0000000000000000e+00  1.7592362157313660e-33 -4.7119351100806707e-03 0.0000000000000000e+00  5.5763757677081856e-33 -4.9891077636151845e-03 0.0000000000000000e+00  -7.3465080990946521e-17 -4.9891077636153155e-03 0.0000000000000000e+00  4.0113393749354846e-17 -4.9891077636153996e-03 0.0000000000000000e+00  2.1339449998684264e-16 -4.9891077636153728e-03 0.0000000000000000e+00  2.8122615601226788e-16 -4.9891077636153363e-03 0.0000000000000000e+00  3.3301470763874826e-16 -4.9891077636152669e-03 0.0000000000000000e+00  3.6289863720579007e-16 -4.9891077636151516e-03 0.0000000000000000e+00  3.4728641439663202e-16 -4.9891077636150258e-03 0.0000000000000000e+00  3.1120341880976971e-16 -4.9891077636148983e-03 0.0000000000000000e+00  1.2999910121986219e-16 -4.9891077636147873e-03 0.0000000000000000e+00  1.8539225190111509e-33 -4.9891077636148393e-03 0.0000000000000000e+00  -4.5138983071575806e-33 -5.2662804171493827e-03 0.0000000000000000e+00  -8.1560064623491495e-17 -5.2662804171495024e-03 0.0000000000000000e+00  4.6433082648506914e-17 -5.2662804171496064e-03 0.0000000000000000e+00  2.1260809058041325e-16 -5.2662804171495631e-03 0.0000000000000000e+00  2.7407492910006968e-16 -5.2662804171495388e-03 0.0000000000000000e+00  3.4951510226412226e-16 -5.2662804171494356e-03 0.0000000000000000e+00  3.7406638306110290e-16 -5.2662804171493133e-03 0.0000000000000000e+00  3.4579036208641968e-16 -5.2662804171491615e-03 0.0000000000000000e+00  3.1345656939794328e-16 -5.2662804171490305e-03 0.0000000000000000e+00  1.2338277958788983e-16 -5.2662804171489542e-03 0.0000000000000000e+00  5.6423728839469746e-33 -5.2662804171490080e-03 0.0000000000000000e+00  -1.2803440550327096e-32 -5.5434530706835764e-03 0.0000000000000000e+00  -8.8797868602973187e-17 -5.5434530706836935e-03 0.0000000000000000e+00  5.2220587219309195e-17 -5.5434530706837985e-03 0.0000000000000000e+00  2.1005037776279948e-16 -5.5434530706837699e-03 0.0000000000000000e+00  2.6791323242339525e-16 -5.5434530706837274e-03 0.0000000000000000e+00  3.6480913269204810e-16 -5.5434530706835981e-03 0.0000000000000000e+00  3.8635275128194690e-16 -5.5434530706834767e-03 0.0000000000000000e+00  3.4305764382095269e-16 -5.5434530706833032e-03 0.0000000000000000e+00  3.0783225416220029e-16 -5.5434530706831697e-03 0.0000000000000000e+00  1.1646438648935886e-16 -5.5434530706831124e-03 0.0000000000000000e+00  -6.9341744244157884e-33 -5.5434530706831723e-03 0.0000000000000000e+00  7.8993220375257789e-33 -5.8206257242177789e-03 0.0000000000000000e+00  -9.6509255545451143e-17 -5.8206257242178734e-03 0.0000000000000000e+00  5.4083232368533180e-17 -5.8206257242179914e-03 0.0000000000000000e+00  2.0983038765516596e-16 -5.8206257242179741e-03 0.0000000000000000e+00  2.6185547799835376e-16 -5.8206257242178977e-03 0.0000000000000000e+00  3.7868953709244121e-16 -5.8206257242177572e-03 0.0000000000000000e+00  4.0302152878316348e-16 -5.8206257242176557e-03 0.0000000000000000e+00  3.3731047161641560e-16 -5.8206257242174623e-03 0.0000000000000000e+00  2.9828866640090569e-16 -5.8206257242173253e-03 0.0000000000000000e+00  1.0855461488370491e-16 -5.8206257242172854e-03 0.0000000000000000e+00  2.2865774915114692e-33 -5.8206257242173313e-03 0.0000000000000000e+00  -2.3763088864484391e-32 -6.0977983777519779e-03 0.0000000000000000e+00  -1.0307543073785590e-16 -6.0977983777520646e-03 0.0000000000000000e+00  5.1255710675014400e-17 -6.0977983777521809e-03 0.0000000000000000e+00  2.1057036353175132e-16 -6.0977983777521713e-03 0.0000000000000000e+00  2.5965164758391482e-16 -6.0977983777520672e-03 0.0000000000000000e+00  3.9130900598600136e-16 -6.0977983777519180e-03 0.0000000000000000e+00  4.1383983833289671e-16 -6.0977983777518183e-03 0.0000000000000000e+00  3.3240638849701711e-16 -6.0977983777516578e-03 0.0000000000000000e+00  2.9171105902243116e-16 -6.0977983777514714e-03 0.0000000000000000e+00  9.5041808751343585e-17 -6.0977983777514375e-03 0.0000000000000000e+00  -1.8619830517025018e-32 -6.0977983777515078e-03 0.0000000000000000e+00  9.0277966143151612e-33 -6.3749710312861864e-03 0.0000000000000000e+00  -1.0938893486938762e-16 -6.3749710312862549e-03 0.0000000000000000e+00  4.7364405223118839e-17 -6.3749710312863833e-03 0.0000000000000000e+00  2.1280362909375914e-16 -6.3749710312863842e-03 0.0000000000000000e+00  2.6369952839858136e-16 -6.3749710312862350e-03 0.0000000000000000e+00  4.0433485617686665e-16 -6.3749710312860962e-03 0.0000000000000000e+00  4.1784538292730378e-16 -6.3749710312859783e-03 0.0000000000000000e+00  3.2463117657982294e-16 -6.3749710312858594e-03 0.0000000000000000e+00  2.8551689215958692e-16 -6.3749710312856504e-03 0.0000000000000000e+00  8.0263679972093737e-17 -6.3749710312855931e-03 0.0000000000000000e+00  7.8993220375257652e-33 -6.3749710312856686e-03 0.0000000000000000e+00  -1.2633813869976132e-32 -6.6521436848204036e-03 0.0000000000000000e+00  -1.1394769492978396e-16 -6.6521436848204487e-03 0.0000000000000000e+00  3.8839061744361364e-17 -6.6521436848205832e-03 0.0000000000000000e+00  2.1796829926966247e-16 -6.6521436848206014e-03 0.0000000000000000e+00  2.6742262499569907e-16 -6.6521436848203854e-03 0.0000000000000000e+00  4.1922629541208589e-16 -6.6521436848202779e-03 0.0000000000000000e+00  4.1760518999553828e-16 -6.6521436848201781e-03 0.0000000000000000e+00  3.1612191601955248e-16 -6.6521436848200619e-03 0.0000000000000000e+00  2.7878559194397686e-16 -6.6521436848198156e-03 0.0000000000000000e+00  6.6248574682363667e-17 -6.6521436848197592e-03 0.0000000000000000e+00  -8.3911971884360211e-33 -6.6521436848198294e-03 0.0000000000000000e+00  1.3541694921472741e-32 -6.9293163383546070e-03 0.0000000000000000e+00  -1.1766944074679406e-16 -6.9293163383546486e-03 0.0000000000000000e+00  2.8165601805040370e-17 -6.9293163383547752e-03 0.0000000000000000e+00  2.1898663717159661e-16 -6.9293163383547960e-03 0.0000000000000000e+00  2.72436799214368