<?xml version="1.0"?>
<VTKFile type="UnstructuredGrid"  version="0.1"  >
<UnstructuredGrid>
<Piece  NumberOfPoints="431" NumberOfCells="800">
<Points>
<DataArray  type="Float64"  NumberOfComponents="3"  format="ascii">-0.25 -1 0  -0.2 -1 0  -0.15 -1 0  -0.1 -1 0  -0.04999999999999999 -1 0  0 -1 0  0.04999999999999999 -1 0  0.09999999999999998 -1 0  0.15 -1 0  0.2 -1 0  0.25 -1 0  -0.25 -0.95 0  -0.2 -0.95 0  -0.15 -0.95 0  -0.1 -0.95 0  -0.04999999999999999 -0.95 0  0 -0.95 0  0.04999999999999999 -0.95 0  0.09999999999999998 -0.95 0  0.15 -0.95 0  0.2 -0.95 0  0.25 -0.95 0  -0.25 -0.9 0  -0.2 -0.9 0  -0.15 -0.9 0  -0.1 -0.9 0  -0.04999999999999999 -0.9 0  0 -0.9 0  0.04999999999999999 -0.9 0  0.09999999999999998 -0.9 0  0.15 -0.9 0  0.2 -0.9 0  0.25 -0.9 0  -0.25 -0.85 0  -0.2 -0.85 0  -0.15 -0.85 0  -0.1 -0.85 0  -0.04999999999999999 -0.85 0  0 -0.85 0  0.04999999999999999 -0.85 0  0.09999999999999998 -0.85 0  0.15 -0.85 0  0.2 -0.85 0  0.25 -0.85 0  -0.25 -0.8 0  -0.2 -0.8 0  -0.15 -0.8 0  -0.1 -0.8 0  -0.04999999999999999 -0.8 0  0 -0.8 0  0.04999999999999999 -0.8 0  0.09999999999999998 -0.8 0  0.15 -0.8 0  0.2 -0.8 0  0.25 -0.8 0  -0.25 -0.75 0  -0.2 -0.75 0  -0.15 -0.75 0  -0.1 -0.75 0  -0.04999999999999999 -0.75 0  0 -0.75 0  0.04999999999999999 -0.75 0  0.09999999999999998 -0.75 0  0.15 -0.75 0  0.2 -0.75 0  0.25 -0.75 0  -0.25 -0.7 0  -0.2 -0.7 0  -0.15 -0.7 0  -0.1 -0.7 0  -0.04999999999999999 -0.7 0  0 -0.7 0  0.04999999999999999 -0.7 0  0.09999999999999998 -0.7 0  0.15 -0.7 0  0.2 -0.7 0  0.25 -0.7 0  -0.25 -0.65 0  -0.2 -0.65 0  -0.15 -0.65 0  -0.1 -0.65 0  -0.04999999999999999 -0.65 0  0 -0.65 0  0.04999999999999999 -0.65 0  0.09999999999999998 -0.65 0  0.15 -0.65 0  0.2 -0.65 0  0.25 -0.65 0  -0.25 -0.6 0  -0.2 -0.6 0  -0.15 -0.6 0  -0.1 -0.6 0  -0.04999999999999999 -0.6 0  0 -0.6 0  0.04999999999999999 -0.6 0  0.09999999999999998 -0.6 0  0.15 -0.6 0  0.2 -0.6 0  0.25 -0.6 0  -0.25 -0.55 0  -0.2 -0.55 0  -0.15 -0.55 0  -0.1 -0.55 0  -0.04999999999999999 -0.55 0  0 -0.55 0  0.04999999999999999 -0.55 0  0.09999999999999998 -0.55 0  0.15 -0.55 0  0.2 -0.55 0  0.25 -0.55 0  -0.25 -0.5 0  -0.2 -0.5 0  -0.15 -0.5 0  -0.1 -0.5 0  -0.04999999999999999 -0.5 0  0 -0.5 0  0.04999999999999999 -0.5 0  0.09999999999999998 -0.5 0  0.15 -0.5 0  0.2 -0.5 0  0.25 -0.5 0  -0.25 -0.45 0  -0.2 -0.45 0  -0.15 -0.45 0  -0.1 -0.45 0  -0.04999999999999999 -0.45 0  0 -0.45 0  0.04999999999999999 -0.45 0  0.09999999999999998 -0.45 0  0.15 -0.45 0  0.2 -0.45 0  0.25 -0.45 0  -0.25 -0.4 0  -0.2 -0.4 0  -0.15 -0.4 0  -0.1 -0.4 0  -0.04999999999999999 -0.4 0  0 -0.4 0  0.04999999999999999 -0.4 0  0.09999999999999998 -0.4 0  0.15 -0.4 0  0.2 -0.4 0  0.25 -0.4 0  -0.25 -0.35 0  -0.2 -0.35 0  -0.15 -0.35 0  -0.1 -0.35 0  -0.04999999999999999 -0.35 0  0 -0.35 0  0.04999999999999999 -0.35 0  0.09999999999999998 -0.35 0  0.15 -0.35 0  0.2 -0.35 0  0.25 -0.35 0  -0.25 -0.3 0  -0.2 -0.3 0  -0.15 -0.3 0  -0.1 -0.3 0  -0.04999999999999999 -0.3 0  0 -0.3 0  0.04999999999999999 -0.3 0  0.09999999999999998 -0.3 0  0.15 -0.3 0  0.2 -0.3 0  0.25 -0.3 0  -0.25 -0.25 0  -0.2 -0.25 0  -0.15 -0.25 0  -0.1 -0.25 0  -0.04999999999999999 -0.25 0  0 -0.25 0  0.04999999999999999 -0.25 0  0.09999999999999998 -0.25 0  0.15 -0.25 0  0.2 -0.25 0  0.25 -0.25 0  -0.25 -0.2 0  -0.2 -0.2 0  -0.15 -0.2 0  -0.1 -0.2 0  -0.04999999999999999 -0.2 0  0 -0.2 0  0.04999999999999999 -0.2 0  0.09999999999999998 -0.2 0  0.15 -0.2 0  0.2 -0.2 0  0.25 -0.2 0  -0.25 -0.15 0  -0.2 -0.15 0  -0.15 -0.15 0  -0.1 -0.15 0  -0.04999999999999999 -0.15 0  0 -0.15 0  0.04999999999999999 -0.15 0  0.09999999999999998 -0.15 0  0.15 -0.15 0  0.2 -0.15 0  0.25 -0.15 0  -0.25 -0.09999999999999998 0  -0.2 -0.09999999999999998 0  -0.15 -0.09999999999999998 0  -0.1 -0.09999999999999998 0  -0.04999999999999999 -0.09999999999999998 0  0 -0.09999999999999998 0  0.04999999999999999 -0.09999999999999998 0  0.09999999999999998 -0.09999999999999998 0  0.15 -0.09999999999999998 0  0.2 -0.09999999999999998 0  0.25 -0.09999999999999998 0  -0.25 -0.05000000000000004 0  -0.2 -0.05000000000000004 0  -0.15 -0.05000000000000004 0  -0.1 -0.05000000000000004 0  -0.04999999999999999 -0.05000000000000004 0  0 -0.05000000000000004 0  0.04999999999999999 -0.05000000000000004 0  0.09999999999999998 -0.05000000000000004 0  0.15 -0.05000000000000004 0  0.2 -0.05000000000000004 0  0.25 -0.05000000000000004 0  -0.25 0 0  -0.2 0 0  -0.15 0 0  -0.1 0 0  -0.04999999999999999 0 0  0 0 0  0.04999999999999999 0 0  0.09999999999999998 0 0  0.15 0 0  0.2 0 0  0.25 0 0  -0.225 -0.975 0  -0.175 -0.975 0  -0.125 -0.975 0  -0.07500000000000001 -0.975 0  -0.02499999999999999 -0.975 0  0.02500000000000002 -0.975 0  0.07500000000000001 -0.975 0  0.125 -0.975 0  0.175 -0.975 0  0.225 -0.975 0  -0.225 -0.925 0  -0.175 -0.925 0  -0.125 -0.925 0  -0.07500000000000001 -0.925 0  -0.02499999999999999 -0.925 0  0.02500000000000002 -0.925 0  0.07500000000000001 -0.925 0  0.125 -0.925 0  0.175 -0.925 0  0.225 -0.925 0  -0.225 -0.875 0  -0.175 -0.875 0  -0.125 -0.875 0  -0.07500000000000001 -0.875 0  -0.02499999999999999 -0.875 0  0.02500000000000002 -0.875 0  0.07500000000000001 -0.875 0  0.125 -0.875 0  0.175 -0.875 0  0.225 -0.875 0  -0.225 -0.825 0  -0.175 -0.825 0  -0.125 -0.825 0  -0.07500000000000001 -0.825 0  -0.02499999999999999 -0.825 0  0.02500000000000002 -0.825 0  0.07500000000000001 -0.825 0  0.125 -0.825 0  0.175 -0.825 0  0.225 -0.825 0  -0.225 -0.775 0  -0.175 -0.775 0  -0.125 -0.775 0  -0.07500000000000001 -0.775 0  -0.02499999999999999 -0.775 0  0.02500000000000002 -0.775 0  0.07500000000000001 -0.775 0  0.125 -0.775 0  0.175 -0.775 0  0.225 -0.775 0  -0.225 -0.725 0  -0.175 -0.725 0  -0.125 -0.725 0  -0.07500000000000001 -0.725 0  -0.02499999999999999 -0.725 0  0.02500000000000002 -0.725 0  0.07500000000000001 -0.725 0  0.125 -0.725 0  0.175 -0.725 0  0.225 -0.725 0  -0.225 -0.675 0  -0.175 -0.675 0  -0.125 -0.675 0  -0.07500000000000001 -0.675 0  -0.02499999999999999 -0.675 0  0.02500000000000002 -0.675 0  0.07500000000000001 -0.675 0  0.125 -0.675 0  0.175 -0.675 0  0.225 -0.675 0  -0.225 -0.625 0  -0.175 -0.625 0  -0.125 -0.625 0  -0.07500000000000001 -0.625 0  -0.02499999999999999 -0.625 0  0.02500000000000002 -0.625 0  0.07500000000000001 -0.625 0  0.125 -0.625 0  0.175 -0.625 0  0.225 -0.625 0  -0.225 -0.575 0  -0.175 -0.575 0  -0.125 -0.575 0  -0.07500000000000001 -0.575 0  -0.02499999999999999 -0.575 0  0.02500000000000002 -0.575 0  0.07500000000000001 -0.575 0  0.125 -0.575 0  0.175 -0.575 0  0.225 -0.575 0  -0.225 -0.525 0  -0.175 -0.525 0  -0.125 -0.525 0  -0.07500000000000001 -0.525 0  -0.02499999999999999 -0.525 0  0.02500000000000002 -0.525 0  0.07500000000000001 -0.525 0  0.125 -0.525 0  0.175 -0.525 0  0.225 -0.525 0  -0.225 -0.475 0  -0.175 -0.475 0  -0.125 -0.475 0  -0.07500000000000001 -0.475 0  -0.02499999999999999 -0.475 0  0.02500000000000002 -0.475 0  0.07500000000000001 -0.475 0  0.125 -0.475 0  0.175 -0.475 0  0.225 -0.475 0  -0.225 -0.425 0  -0.175 -0.425 0  -0.125 -0.425 0  -0.07500000000000001 -0.425 0  -0.02499999999999999 -0.425 0  0.02500000000000002 -0.425 0  0.07500000000000001 -0.425 0  0.125 -0.425 0  0.175 -0.425 0  0.225 -0.425 0  -0.225 -0.375 0  -0.175 -0.375 0  -0.125 -0.375 0  -0.07500000000000001 -0.375 0  -0.02499999999999999 -0.375 0  0.02500000000000002 -0.375 0  0.07500000000000001 -0.375 0  0.125 -0.375 0  0.175 -0.375 0  0.225 -0.375 0  -0.225 -0.325 0  -0.175 -0.325 0  -0.125 -0.325 0  -0.07500000000000001 -0.325 0  -0.02499999999999999 -0.325 0  0.02500000000000002 -0.325 0  0.07500000000000001 -0.325 0  0.125 -0.325 0  0.175 -0.325 0  0.225 -0.325 0  -0.225 -0.275 0  -0.175 -0.275 0  -0.125 -0.275 0  -0.07500000000000001 -0.275 0  -0.02499999999999999 -0.275 0  0.02500000000000002 -0.275 0  0.07500000000000001 -0.275 0  0.125 -0.275 0  0.175 -0.275 0  0.225 -0.275 0  -0.225 -0.225 0  -0.175 -0.225 0  -0.125 -0.225 0  -0.07500000000000001 -0.225 0  -0.02499999999999999 -0.225 0  0.02500000000000002 -0.225 0  0.07500000000000001 -0.225 0  0.125 -0.225 0  0.175 -0.225 0  0.225 -0.225 0  -0.225 -0.175 0  -0.175 -0.175 0  -0.125 -0.175 0  -0.07500000000000001 -0.175 0  -0.02499999999999999 -0.175 0  0.02500000000000002 -0.175 0  0.07500000000000001 -0.175 0  0.125 -0.175 0  0.175 -0.175 0  0.225 -0.175 0  -0.225 -0.125 0  -0.175 -0.125 0  -0.125 -0.125 0  -0.07500000000000001 -0.125 0  -0.02499999999999999 -0.125 0  0.02500000000000002 -0.125 0  0.07500000000000001 -0.125 0  0.125 -0.125 0  0.175 -0.125 0  0.225 -0.125 0  -0.225 -0.07499999999999996 0  -0.175 -0.07499999999999996 0  -0.125 -0.07499999999999996 0  -0.07500000000000001 -0.07499999999999996 0  -0.02499999999999999 -0.07499999999999996 0  0.02500000000000002 -0.07499999999999996 0  0.07500000000000001 -0.07499999999999996 0  0.125 -0.07499999999999996 0  0.175 -0.07499999999999996 0  0.225 -0.07499999999999996 0  -0.225 -0.02500000000000002 0  -0.175 -0.02500000000000002 0  -0.125 -0.02500000000000002 0  -0.07500000000000001 -0.02500000000000002 0  -0.02499999999999999 -0.02500000000000002 0  0.02500000000000002 -0.02500000000000002 0  0.07500000000000001 -0.02500000000000002 0  0.125 -0.02500000000000002 0  0.175 -0.02500000000000002 0  0.225 -0.02500000000000002 0  </DataArray>
</Points>
<Cells>
[...]
<PointData  Vectors="displacement"> 
<DataArray  type="Float64"  Name="displacement"  NumberOfComponents="3" format="ascii">-1.1284745767893949e-34 -1.2705494208814494e-18 0.0000000000000000e+00  0.0000000000000000e+00 5.0821976835257963e-19 0.0000000000000000e+00  -3.4771122897323230e-33 -6.1393345063685656e-19 0.0000000000000000e+00  0.0000000000000000e+00 6.3527471044072477e-20 0.0000000000000000e+00  4.0830925034858259e-33 1.3090580894498645e-19 0.0000000000000000e+00  -1.1284745767893948e-32 -6.0351097491868832e-19 0.0000000000000000e+00  3.9933012465371607e-33 7.4706817022726637e-19 0.0000000000000000e+00  -7.6736271221678846e-33 -9.8467580118312299e-19 0.0000000000000000e+00  3.6222012317621831e-33 4.4072183036825266e-19 0.0000000000000000e+00  -9.0277966143151612e-34 -7.6232965252886973e-19 0.0000000000000000e+00  1.5798644075051524e-33 0.0000000000000000e+00 0.0000000000000000e+00  0.0000000000000000e+00 -3.5302601205991061e-03 0.0000000000000000e+00  -5.9750520591714953e-18 -3.5302601205991100e-03 0.0000000000000000e+00  -1.2582429101423911e-17 -3.5302601205991018e-03 0.0000000000000000e+00  -2.1424535564686590e-17 -3.5302601205991061e-03 0.0000000000000000e+00  -2.7852022317709016e-17 -3.5302601205991131e-03 0.0000000000000000e+00  -3.3981272106098594e-17 -3.5302601205991183e-03 0.0000000000000000e+00  -3.4395178831882555e-17 -3.5302601205991356e-03 0.0000000000000000e+00  -2.9207756462271790e-17 -3.5302601205991391e-03 0.0000000000000000e+00  -2.1560280118323439e-17 -3.5302601205991491e-03 0.0000000000000000e+00  -1.1110130478252108e-17 -3.5302601205991525e-03 0.0000000000000000e+00  -1.8619734057291125e-33 -3.5302601205991564e-03 0.0000000000000000e+00  -1.8193423996527270e-33 -7.0616548198746071e-03 0.0000000000000000e+00  -9.9573179939325971e-18 -7.0616548198746010e-03 0.0000000000000000e+00  -2.2579382167312527e-17 -7.0616548198746028e-03 0.0000000000000000e+00  -3.4183904062670931e-17 -7.0616548198746019e-03 0.0000000000000000e+00  -4.7405936055027562e-17 -7.0616548198746175e-03 0.0000000000000000e+00  -5.3471933139203927e-17 -7.0616548198746245e-03 0.0000000000000000e+00  -5.3748070386279770e-17 -7.0616548198746583e-03 0.0000000000000000e+00  -4.7129982022332961e-17 -7.0616548198746834e-03 0.0000000000000000e+00  -3.3356890041658777e-17 -7.0616548198746956e-03 0.0000000000000000e+00  -1.8641683403413608e-17 -7.0616548198747112e-03 0.0000000000000000e+00  2.6438547227637267e-33 -7.0616548198747121e-03 0.0000000000000000e+00  0.0000000000000000e+00 -1.0595311681464853e-02 0.0000000000000000e+00  -1.5062404868636857e-17 -1.0595311681464851e-02 0.0000000000000000e+00  -2.9570258718886921e-17 -1.0595311681464844e-02 0.0000000000000000e+00  -4.4880393293444241e-17 -1.0595311681464848e-02 0.0000000000000000e+00  -5.7211811317756696e-17 -1.0595311681464862e-02 0.0000000000000000e+00  -6.6796481630926708e-17 -1.0595311681464900e-02 0.0000000000000000e+00  -6.6789548976587036e-17 -1.0595311681464924e-02 0.0000000000000000e+00  -5.7838108960353226e-17 -1.0595311681464969e-02 0.0000000000000000e+00  -4.2548137051363055e-17 -1.0595311681464997e-02 0.0000000000000000e+00  -2.1991468991243093e-17 -1.0595311681465018e-02 0.0000000000000000e+00  9.0277966143151629e-34 -1.0595311681465023e-02 0.0000000000000000e+00  -2.6639691113436610e-33 -1.4132344342057875e-02 0.0000000000000000e+00  -1.5094388868075096e-17 -1.4132344342057863e-02 0.0000000000000000e+00  -3.1951593178893729e-17 -1.4132344342057859e-02 0.0000000000000000e+00  -4.9488153308216456e-17 -1.4132344342057866e-02 0.0000000000000000e+00  -6.6573349093195937e-17 -1.4132344342057880e-02 0.0000000000000000e+00  -7.3243115495810494e-17 -1.4132344342057920e-02 0.0000000000000000e+00  -7.1735121309157701e-17 -1.4132344342057993e-02 0.0000000000000000e+00  -6.5686929571292492e-17 -1.4132344342058028e-02 0.0000000000000000e+00  -4.8732629598934537e-17 -1.4132344342058062e-02 0.0000000000000000e+00  -2.7147430856590794e-17 -1.4132344342058097e-02 0.0000000000000000e+00  -9.2839850554731279e-34 -1.4132344342058102e-02 0.0000000000000000e+00  0.0000000000000000e+00 -1.7673845625464910e-02 0.0000000000000000e+00  -1.7054916054848585e-17 -1.7673845625464906e-02 0.0000000000000000e+00  -3.5432458389254331e-17 -1.7673845625464885e-02 0.0000000000000000e+00  -5.5422535670452183e-17 -1.7673845625464899e-02 0.0000000000000000e+00  -7.1000041705628112e-17 -1.7673845625464934e-02 0.0000000000000000e+00  -7.8002789939136806e-17 -1.7673845625465003e-02 0.0000000000000000e+00  -7.8096802877940041e-17 -1.7673845625465059e-02 0.0000000000000000e+00  -7.0310904577319045e-17 -1.7673845625465132e-02 0.0000000000000000e+00  -5.2817631512438908e-17 -1.7673845625465177e-02 0.0000000000000000e+00  -2.8578846314759014e-17 -1.7673845625465201e-02 0.0000000000000000e+00  3.5866381762113558e-34 -1.7673845625465225e-02 0.0000000000000000e+00  6.7007439232241709e-34 -2.1220880805009723e-02 0.0000000000000000e+00  -1.7195108058482534e-17 -2.1220880805009727e-02 0.0000000000000000e+00  -3.5370300922779421e-17 -2.1220880805009699e-02 0.0000000000000000e+00  -5.6175404770421419e-17 -2.1220880805009716e-02 0.0000000000000000e+00  -6.5551804644173105e-17 -2.1220880805009792e-02 0.0000000000000000e+00  -8.2729722193133087e-17 -2.1220880805009841e-02 0.0000000000000000e+00  -8.4122135750476077e-17 -2.1220880805009917e-02 0.0000000000000000e+00  -6.9650843209511511e-17 -2.1220880805009990e-02 0.0000000000000000e+00  -5.3502000397659387e-17 -2.1220880805010042e-02 0.0000000000000000e+00  -2.8401245664414585e-17 -2.1220880805010105e-02 0.0000000000000000e+00  1.5959854728878605e-33 -2.1220880805010115e-02 0.0000000000000000e+00  -1.3541694921472749e-33 -2.4774481035772525e-02 0.0000000000000000e+00  -1.5070744789177908e-17 -2.4774481035772494e-02 0.0000000000000000e+00  -3.2451761744676221e-17 -2.4774481035772518e-02 0.0000000000000000e+00  -4.6489484836903438e-17 -2.4774481035772525e-02 0.0000000000000000e+00  -7.1691881332479592e-17 -2.4774481035772546e-02 0.0000000000000000e+00  -8.2748444411112608e-17 -2.4774481035772639e-02 0.0000000000000000e+00  -8.1743399044332671e-17 -2.4774481035772754e-02 0.0000000000000000e+00  -7.1617183956366032e-17 -2.4774481035772834e-02 0.0000000000000000e+00  -5.0331332853441699e-17 -2.4774481035772927e-02 0.0000000000000000e+00  -2.6018796682170134e-17 -2.4774481035772948e-02 0.0000000000000000e+00  -3.3854237303681867e-33 -2.4774481035772972e-02 0.0000000000000000e+00  -1.3600086277368923e-33 -2.8335636997180533e-02 0.0000000000000000e+00  -2.0570913764738047e-17 -2.8335636997180540e-02 0.0000000000000000e+00  -3.3797446771109416e-17 -2.8335636997180537e-02 0.0000000000000000e+00  -5.5260690194758044e-17 -2.8335636997180509e-02 0.0000000000000000e+00  -7.0061092368307091e-17 -2.8335636997180565e-02 0.0000000000000000e+00  -8.1599240988875538e-17 -2.8335636997180683e-02 0.0000000000000000e+00  -8.2896896296394024e-17 -2.8335636997180808e-02 0.0000000000000000e+00  -7.0682102198214593e-17 -2.8335636997180919e-02 0.0000000000000000e+00  -4.6919428443676292e-17 -2.8335636997180978e-02 0.0000000000000000e+00  -2.3577303012583526e-17 -2.8335636997181047e-02 0.0000000000000000e+00  4.1504816340185417e-33 -2.8335636997181050e-02 0.0000000000000000e+00  -1.5798644075051558e-33 -3.1905292785140697e-02 0.0000000000000000e+00  -1.5476724425808379e-17 -3.1905292785140718e-02 0.0000000000000000e+00  -3.4594683841113909e-17 -3.1905292785140697e-02 0.0000000000000000e+00  -5.2013277496399702e-17 -3.1905292785140690e-02 0.0000000000000000e+00  -6.8319163151578791e-17 -3.1905292785140753e-02 0.0000000000000000e+00  -7.2808258661116366e-17 -3.1905292785140850e-02 0.0000000000000000e+00  -7.4064675052696535e-17 -3.1905292785141010e-02 0.0000000000000000e+00  -6.9702842405281702e-17 -3.1905292785141121e-02 0.0000000000000000e+00  -5.3440911284208733e-17 -3.1905292785141225e-02 0.0000000000000000e+00  -3.0993986545429601e-17 -3.1905292785141252e-02 0.0000000000000000e+00  5.0878334239465700e-33 -3.1905292785141287e-02 0.0000000000000000e+00  1.3591851836291593e-33 -3.5484340091371004e-02 0.0000000000000000e+00  -1.6001932072683666e-17 -3.5484340091371039e-02 0.0000000000000000e+00  -3.2516462462017264e-17 -3.5484340091371032e-02 0.0000000000000000e+00  -4.9605106872027554e-17 -3.5484340091371011e-02 0.0000000000000000e+00  -6.1400766883064470e-17 -3.5484340091371080e-02 0.0000000000000000e+00  -6.9466276681008432e-17 -3.5484340091371226e-02 0.0000000000000000e+00  -6.9672224423818497e-17 -3.5484340091371337e-02 0.0000000000000000e+00  -6.9495592997450350e-17 -3.5484340091371497e-02 0.0000000000000000e+00  -5.6114346218488503e-17 -3.5484340091371594e-02 0.0000000000000000e+00  -3.2908122102212100e-17 -3.5484340091371643e-02 0.0000000000000000e+00  -4.5945036340711073e-33 -3.5484340091371663e-02 0.0000000000000000e+00  -4.0060847476023586e-33 -3.9073612705817648e-02 0.0000000000000000e+00  -2.0416161483089775e-17 -3.9073612705817634e-02 0.0000000000000000e+00  -3.2285630043363580e-17 -3.9073612705817641e-02 0.0000000000000000e+00  -4.4871138776070510e-17 -3.9073612705817683e-02 0.0000000000000000e+00  -5.1455572247075211e-17 -3.9073612705817752e-02 0.0000000000000000e+00  -6.9926782371115545e-17 -3.9073612705817877e-02 0.0000000000000000e+00  -7.4370053684683553e-17 -3.9073612705818023e-02 0.0000000000000000e+00  -6.2667103117655071e-17 -3.9073612705818168e-02 0.0000000000000000e+00  -5.2579811640708785e-17 -3.9073612705818293e-02 0.0000000000000000e+00  -2.5265951109158830e-17 -3.9073612705818370e-02 0.0000000000000000e+00  1.1284745767893967e-33 -3.9073612705818397e-02 0.0000000000000000e+00  9.7304414748569769e-34 -4.2673881376052172e-02 0.0000000000000000e+00  -4.2516616320683839e-18 -4.2673881376052110e-02 0.0000000000000000e+00  -2.0243740956395941e-17 -4.2673881376052165e-02 0.0000000000000000e+00  -3.4037969141381933e-17 -4.2673881376052131e-02 0.0000000000000000e+00  -5.6521415506875989e-17 -4.2673881376052214e-02 0.0000000000000000e+00  -6.4935634976508620e-17 -4.2673881376052353e-02 0.0000000000000000e+00  -6.3496652915029886e-17 -4.2673881376052478e-02 0.0000000000000000e+00  -5.5602704503814170e-17 -4.2673881376052700e-02 0.0000000000000000e+00  -3.8324131829609968e-17 -4.2673881376052797e-02 0.0000000000000000e+00  -1.9537466361646540e-17 -4.2673881376052873e-02 0.0000000000000000e+00  1.4504550740619504e-33 -4.2673881376052936e-02 0.0000000000000000e+00  -3.6675423745655357e-34 -4.6285849055342956e-02 0.0000000000000000e+00  -1.0985606125470273e-18 -4.6285849055342949e-02 0.0000000000000000e+00  -9.2790287452905889e-18 -4.6285849055342901e-02 0.0000000000000000e+00  -3.5102650227295870e-17 -4.6285849055342949e-02 0.0000000000000000e+00  -4.0126698357383023e-17 -4.6285849055343005e-02 0.0000000000000000e+00  -5.0185951734727950e-17 -4.6285849055343178e-02 0.0000000000000000e+00  -5.5099891531486013e-17 -4.6285849055343393e-02 0.0000000000000000e+00  -4.3748046404183464e-17 -4.6285849055343498e-02 0.0000000000000000e+00  -2.8120324946948653e-17 -4.6285849055343699e-02 0.0000000000000000e+00  -1.4776592719387361e-17 -4.6285849055343699e-02 0.0000000000000000e+00  -1.3479981468054575e-33 -4.6285849055343754e-02 0.0000000000000000e+00  2.5436247888709943e-35 -4.9910146568699749e-02 0.0000000000000000e+00  9.8824603121479745e-19 -4.9910146568699708e-02 0.0000000000000000e+00  -3.4591981342571556e-18 -4.9910146568699701e-02 0.0000000000000000e+00  -1.8022593671798209e-17 -4.9910146568699708e-02 0.0000000000000000e+00  -3.2840762287103870e-17 -4.9910146568699805e-02 0.0000000000000000e+00  -3.0096470677393182e-17 -4.9910146568699985e-02 0.0000000000000000e+00  -3.2862382275442980e-17 -4.9910146568700110e-02 0.0000000000000000e+00  -3.4448512227861526e-17 -4.9910146568700360e-02 0.0000000000000000e+00  -2.8574480014432397e-17 -4.9910146568700506e-02 0.0000000000000000e+00  -2.1104609205693177e-17 -4.9910146568700547e-02 0.0000000000000000e+00  -4.2559612610342967e-33 -4.9910146568700589e-02 0.0000000000000000e+00  1.1848983056288650e-33 -5.3547328723610579e-02 0.0000000000000000e+00  -1.3493053438577874e-18 -5.3547328723610572e-02 0.0000000000000000e+00  1.6876304908394302e-19 -5.3547328723610545e-02 0.0000000000000000e+00  9.6310644778567841e-19 -5.3547328723610510e-02 0.0000000000000000e+00  -1.0723514216197171e-17 -5.3547328723610628e-02 0.0000000000000000e+00  -1.8306311059814801e-17 -5.3547328723610760e-02 0.0000000000000000e+00  -1.9280821716695568e-17 -5.3547328723611030e-02 0.0000000000000000e+00  -2.5571894856081125e-17 -5.3547328723611197e-02 0.0000000000000000e+00  -3.3208302088868695e-17 -5.3547328723611343e-02 0.0000000000000000e+00  -2.2475274016508464e-17 -5.3547328723611398e-02 0.0000000000000000e+00  -3.6111186457260631e-33 -5.3547328723611468e-02 0.0000000000000000e+00  -5.3846960701884640e-34 -5.7197870889452572e-02 0.0000000000000000e+00  3.6208429068845881e-18 -5.7197870889452551e-02 0.0000000000000000e+00  1.2070777525305900e-17 -5.7197870889452544e-02 0.0000000000000000e+00  1.2940238645591269e-17 -5.7197870889452530e-02 0.0000000000000000e+00  2.6768599930405465e-17 -5.7197870889452655e-02 0.0000000000000000e+00  4.9469235818419673e-18 -5.7197870889452822e-02 0.0000000000000000e+00  -1.3460208487001302e-17 -5.7197870889453037e-02 0.0000000000000000e+00  -1.0651671599540031e-17 -5.7197870889453196e-02 0.0000000000000000e+00  -1.7026416441682539e-17 -5.7197870889453321e-02 0.0000000000000000e+00  -1.3311060472719859e-17 -5.7197870889453502e-02 0.0000000000000000e+00  -1.6101593900135759e-35 -5.7197870889453516e-02 0.0000000000000000e+00  2.0312542382209125e-33 -6.0862166066665412e-02 0.0000000000000000e+00  2.8319211951903083e-17 -6.0862166066665314e-02 0.0000000000000000e+00  3.3527684026819153e-17 -6.0862166066665363e-02 0.0000000000000000e+00  5.0744815130427053e-17 -6.0862166066665301e-02 0.0000000000000000e+00  5.3396438278926622e-17 -6.0862166066665446e-02 0.0000000000000000e+00  4.7458366128194314e-17 -6.0862166066665571e-02 0.0000000000000000e+00  2.2446983718957196e-17 -6.0862166066665759e-02 0.0000000000000000e+00  8.3388020551428437e-18 -6.0862166066666036e-02 0.0000000000000000e+00  1.0810331981871414e-17 -6.0862166066666140e-02 0.0000000000000000e+00  7.8074425179698838e-18 -6.0862166066666328e-02 0.0000000000000000e+00  2.2542231460190077e-34 -6.0862166066666376e-02 0.0000000000000000e+00  4.9652881378733404e-33 -6.4540522463757910e-02 0.0000000000000000e+00  2.0249823097535605e-17 -6.4540522463757855e-02 0.0000000000000000e+00  6.2265566416628854e-17 -6.4540522463757799e-02 0.0000000000000000e+00  9.1726854276476044e-17 -6.4540522463757841e-02 0.0000000000000000e+00  1.1525692847013065e-16 -6.4540522463757910e-02 0.0000000000000000e+00  1.0592713286745596e-16 -6.4540522463758035e-02 0.0000000000000000e+00  9.1894746998421932e-17 -6.4540522463758215e-02 0.0000000000000000e+00  6.6778063357781884e-17 -6.4540522463758521e-02 0.0000000000000000e+00  5.8111826156977905e-17 -6.4540522463758757e-02 0.0000000000000000e+00  4.0478030161625099e-17 -6.4540522463758798e-02 0.0000000000000000e+00  7.6635514563036979e-33 -6.4540522463758868e-02 0.0000000000000000e+00  -6.7708474607363812e-34 -6.8233161597088074e-02 0.0000000000000000e+00  3.0934162193934653e-17 -6.8233161597088088e-02 0.0000000000000000e+00  8.1751561270281650e-17 -6.8233161597088018e-02 0.0000000000000000e+00  1.3111530109517634e-16 -6.8233161597088060e-02 0.0000000000000000e+00  1.7607700154674242e-16 -6.8233161597088032e-02 0.0000000000000000e+00  1.9921905436159297e-16 -6.8233161597088227e-02 0.0000000000000000e+00  1.9250437617141077e-16 -6.8233161597088490e-02 0.0000000000000000e+00  1.5813074569751762e-16 -6.8233161597088726e-02 0.0000000000000000e+00  1.1761273656474325e-16 -6.8233161597088879e-02 0.0000000000000000e+00  6.0632940347068205e-17 -6.8233161597088976e-02 0.0000000000000000e+00  -6.1783983079219472e-33 -6.8233161597088990e-02 0.0000000000000000e+00  5.5859491551075061e-33 -7.1940216925131487e-02 0.0000000000000000e+00  4.2652865068383987e-17 -7.1940216925131473e-02 0.0000000000000000e+00  9.0526162621706880e-17 -7.1940216925131487e-02 0.0000000000000000e+00  1.6754656507166117e-16 -7.1940216925131403e-02 0.0000000000000000e+00  2.4197394387631393e-16 -7.1940216925131570e-02 0.0000000000000000e+00  3.1878027999435745e-16 -7.1940216925131611e-02 0.0000000000000000e+00  3.5814783016567510e-16 -7.1940216925131764e-02 0.0000000000000000e+00  3.3849164059102332e-16 -7.1940216925132069e-02 0.0000000000000000e+00  2.2294228536918810e-16 -7.1940216925132264e-02 0.0000000000000000e+00  1.1658449785358283e-16 -7.1940216925132347e-02 0.0000000000000000e+00  1.8055593228630322e-32 -7.1940216925132375e-02 0.0000000000000000e+00  -1.6619874672267660e-18 -1.7650564218991999e-03 0.0000000000000000e+00  -3.9837776092825187e-18 -1.7650564218991999e-03 0.0000000000000000e+00  -9.0803951024123809e-18 -1.7650564218992006e-03 0.0000000000000000e+00  -1.3124128138938499e-17 -1.7650564218992016e-03 0.0000000000000000e+00  -1.6344711184342278e-17 -1.7650564218992053e-03 0.0000000000000000e+00  -1.8925948963175925e-17 -1.7650564218992086e-03 0.0000000000000000e+00  -1.7116394488931384e-17 -1.7650564218992134e-03 0.0000000000000000e+00  -1.3771932571992117e-17 -1.7650564218992177e-03 0.0000000000000000e+00  -8.9452615137763595e-18 -1.7650564218992212e-03 0.0000000000000000e+00  -3.1176023184899449e-18 -1.7650564218992227e-03 0.0000000000000000e+00  -3.9177157881292429e-18 -5.2957370090399181e-03 0.0000000000000000e+00  -1.3054712958869313e-17 -5.2957370090399155e-03 0.0000000000000000e+00  -2.2951027621237991e-17 -5.2957370090399155e-03 0.0000000000000000e+00  -3.3689581829340170e-17 -5.2957370090399190e-03 0.0000000000000000e+00  -4.1480297627375059e-17 -5.2957370090399337e-03 0.0000000000000000e+00  -4.6573935374989393e-17 -5.2957370090399476e-03 0.0000000000000000e+00  -4.2810121754025822e-17 -5.2957370090399676e-03 0.0000000000000000e+00  -3.3479021942906799e-17 -5.2957370090399754e-03 0.0000000000000000e+00  -2.2338164960008651e-17 -5.2957370090399858e-03 0.0000000000000000e+00  -7.5113376915695064e-18 -5.2957370090399919e-03 0.0000000000000000e+00  -6.2826517465422522e-18 -8.8281173258895618e-03 0.0000000000000000e+00  -1.9156212916148783e-17 -8.8281173258895566e-03 0.0000000000000000e+00  -3.3268462056473361e-17 -8.8281173258895600e-03 0.0000000000000000e+00  -4.6747144161654920e-17 -8.8281173258895704e-03 0.0000000000000000e+00  -5.8114528655611666e-17 -8.8281173258895895e-03 0.0000000000000000e+00  -6.0872281582696022e-17 -8.8281173258896138e-03 0.0000000000000000e+00  -5.9057759396848761e-17 -8.8281173258896450e-03 0.0000000000000000e+00  -4.6744294788209422e-17 -8.8281173258896676e-03 0.0000000000000000e+00  -2.8995224361250721e-17 -8.8281173258896849e-03 0.0000000000000000e+00  -1.1074947753286267e-17 -8.8281173258896901e-03 0.0000000000000000e+00  -6.0208745904363332e-18 -1.2363318879440713e-02 0.0000000000000000e+00  -2.4424946826271616e-17 -1.2363318879440709e-02 0.0000000000000000e+00  -3.8743019103741150e-17 -1.2363318879440711e-02 0.0000000000000000e+00  -5.5166690245544521e-17 -1.2363318879440728e-02 0.0000000000000000e+00  -6.8221403204413847e-17 -1.2363318879440756e-02 0.0000000000000000e+00  -7.2775054498348361e-17 -1.2363318879440798e-02 0.0000000000000000e+00  -6.6941593894657731e-17 -1.2363318879440843e-02 0.0000000000000000e+00  -5.5166690245544540e-17 -1.2363318879440883e-02 0.0000000000000000e+00  -3.6020839542749676e-17 -1.2363318879440900e-02 0.0000000000000000e+00  -1.1881286588052922e-17 -1.2363318879440904e-02 0.0000000000000000e+00  -8.9004233076015146e-18 -1.5902445782863452e-02 0.0000000000000000e+00  -2.3251953772309444e-17 -1.5902445782863445e-02 0.0000000000000000e+00  -4.3375336605275363e-17 -1.5902445782863456e-02 0.0000000000000000e+00  -6.2896347467236450e-17 -1.5902445782863470e-02 0.0000000000000000e+00  -7.4959319570281791e-17 -1.5902445782863508e-02 0.0000000000000000e+00  -7.5294132392290480e-17 -1.5902445782863567e-02 0.0000000000000000e+00  -7.3276191