<?xml version="1.0"?>
<VTKFile type="UnstructuredGrid"  version="0.1"  >
<UnstructuredGrid>
<Piece  NumberOfPoints="1661" NumberOfCells="3200">
<Points>
<DataArray  type="Float64"  NumberOfComponents="3"  format="ascii">-0.25 -1 0  -0.225 -1 0  -0.2 -1 0  -0.175 -1 0  -0.15 -1 0  -0.125 -1 0  -0.1 -1 0  -0.07500000000000001 -1 0  -0.04999999999999999 -1 0  -0.02499999999999999 -1 0  0 -1 0  0.02500000000000002 -1 0  0.04999999999999999 -1 0  0.07500000000000001 -1 0  0.09999999999999998 -1 0  0.125 -1 0  0.15 -1 0  0.175 -1 0  0.2 -1 0  0.225 -1 0  0.25 -1 0  -0.25 -0.975 0  -0.225 -0.975 0  -0.2 -0.975 0  -0.175 -0.975 0  -0.15 -0.975 0  -0.125 -0.975 0  -0.1 -0.975 0  -0.07500000000000001 -0.975 0  -0.04999999999999999 -0.975 0  -0.02499999999999999 -0.975 0  0 -0.975 0  0.02500000000000002 -0.975 0  0.04999999999999999 -0.975 0  0.07500000000000001 -0.975 0  0.09999999999999998 -0.975 0  0.125 -0.975 0  0.15 -0.975 0  0.175 -0.975 0  0.2 -0.975 0  0.225 -0.975 0  0.25 -0.975 0  -0.25 -0.95 0  -0.225 -0.95 0  -0.2 -0.95 0  -0.175 -0.95 0  -0.15 -0.95 0  -0.125 -0.95 0  -0.1 -0.95 0  -0.07500000000000001 -0.95 0  -0.04999999999999999 -0.95 0  -0.02499999999999999 -0.95 0  0 -0.95 0  0.02500000000000002 -0.95 0  0.04999999999999999 -0.95 0  0.07500000000000001 -0.95 0  0.09999999999999998 -0.95 0  0.125 -0.95 0  0.15 -0.95 0  0.175 -0.95 0  0.2 -0.95 0  0.225 -0.95 0  0.25 -0.95 0  -0.25 -0.925 0  -0.225 -0.925 0  -0.2 -0.925 0  -0.175 -0.925 0  -0.15 -0.925 0  -0.125 -0.925 0  -0.1 -0.925 0  -0.07500000000000001 -0.925 0  -0.04999999999999999 -0.925 0  -0.02499999999999999 -0.925 0  0 -0.925 0  0.02500000000000002 -0.925 0  0.04999999999999999 -0.925 0  0.07500000000000001 -0.925 0  0.09999999999999998 -0.925 0  0.125 -0.925 0  0.15 -0.925 0  0.175 -0.925 0  0.2 -0.925 0  0.225 -0.925 0  0.25 -0.925 0  -0.25 -0.9 0  -0.225 -0.9 0  -0.2 -0.9 0  -0.175 -0.9 0  -0.15 -0.9 0  -0.125 -0.9 0  -0.1 -0.9 0  -0.07500000000000001 -0.9 0  -0.04999999999999999 -0.9 0  -0.02499999999999999 -0.9 0  0 -0.9 0  0.02500000000000002 -0.9 0  0.04999999999999999 -0.9 0  0.07500000000000001 -0.9 0  0.09999999999999998 -0.9 0  0.125 -0.9 0  0.15 -0.9 0  0.175 -0.9 0  0.2 -0.9 0  0.225 -0.9 0  0.25 -0.9 0  -0.25 -0.875 0  -0.225 -0.875 0  -0.2 -0.875 0  -0.175 -0.875 0  -0.15 -0.875 0  -0.125 -0.875 0  -0.1 -0.875 0  -0.07500000000000001 -0.875 0  -0.04999999999999999 -0.875 0  -0.02499999999999999 -0.875 0  0 -0.875 0  0.02500000000000002 -0.875 0  0.04999999999999999 -0.875 0  0.07500000000000001 -0.875 0  0.09999999999999998 -0.875 0  0.125 -0.875 0  0.15 -0.875 0  0.175 -0.875 0  0.2 -0.875 0  0.225 -0.875 0  0.25 -0.875 0  -0.25 -0.85 0  -0.225 -0.85 0  -0.2 -0.85 0  -0.175 -0.85 0  -0.15 -0.85 0  -0.125 -0.85 0  -0.1 -0.85 0  -0.07500000000000001 -0.85 0  -0.04999999999999999 -0.85 0  -0.02499999999999999 -0.85 0  0 -0.85 0  0.02500000000000002 -0.85 0  0.04999999999999999 -0.85 0  0.07500000000000001 -0.85 0  0.09999999999999998 -0.85 0  0.125 -0.85 0  0.15 -0.85 0  0.175 -0.85 0  0.2 -0.85 0  0.225 -0.85 0  0.25 -0.85 0  -0.25 -0.825 0  -0.225 -0.825 0  -0.2 -0.825 0  -0.175 -0.825 0  -0.15 -0.825 0  -0.125 -0.825 0  -0.1 -0.825 0  -0.07500000000000001 -0.825 0  -0.04999999999999999 -0.825 0  -0.02499999999999999 -0.825 0  0 -0.825 0  0.02500000000000002 -0.825 0  0.04999999999999999 -0.825 0  0.07500000000000001 -0.825 0  0.09999999999999998 -0.825 0  0.125 -0.825 0  0.15 -0.825 0  0.175 -0.825 0  0.2 -0.825 0  0.225 -0.825 0  0.25 -0.825 0  -0.25 -0.8 0  -0.225 -0.8 0  -0.2 -0.8 0  -0.175 -0.8 0  -0.15 -0.8 0  -0.125 -0.8 0  -0.1 -0.8 0  -0.07500000000000001 -0.8 0  -0.04999999999999999 -0.8 0  -0.02499999999999999 -0.8 0  0 -0.8 0  0.02500000000000002 -0.8 0  0.04999999999999999 -0.8 0  0.07500000000000001 -0.8 0  0.09999999999999998 -0.8 0  0.125 -0.8 0  0.15 -0.8 0  0.175 -0.8 0  0.2 -0.8 0  0.225 -0.8 0  0.25 -0.8 0  -0.25 -0.775 0  -0.225 -0.775 0  -0.2 -0.775 0  -0.175 -0.775 0  -0.15 -0.775 0  -0.125 -0.775 0  -0.1 -0.775 0  -0.07500000000000001 -0.775 0  -0.04999999999999999 -0.775 0  -0.02499999999999999 -0.775 0  0 -0.775 0  0.02500000000000002 -0.775 0  0.04999999999999999 -0.775 0  0.07500000000000001 -0.775 0  0.09999999999999998 -0.775 0  0.125 -0.775 0  0.15 -0.775 0  0.175 -0.775 0  0.2 -0.775 0  0.225 -0.775 0  0.25 -0.775 0  -0.25 -0.75 0  -0.225 -0.75 0  -0.2 -0.75 0  -0.175 -0.75 0  -0.15 -0.75 0  -0.125 -0.75 0  -0.1 -0.75 0  -0.07500000000000001 -0.75 0  -0.04999999999999999 -0.75 0  -0.02499999999999999 -0.75 0  0 -0.75 0  0.02500000000000002 -0.75 0  0.04999999999999999 -0.75 0  0.07500000000000001 -0.75 0  0.09999999999999998 -0.75 0  0.125 -0.75 0  0.15 -0.75 0  0.175 -0.75 0  0.2 -0.75 0  0.225 -0.75 0  0.25 -0.75 0  -0.25 -0.725 0  -0.225 -0.725 0  -0.2 -0.725 0  -0.175 -0.725 0  -0.15 -0.725 0  -0.125 -0.725 0  -0.1 -0.725 0  -0.07500000000000001 -0.725 0  -0.04999999999999999 -0.725 0  -0.02499999999999999 -0.725 0  0 -0.725 0  0.02500000000000002 -0.725 0  0.04999999999999999 -0.725 0  0.07500000000000001 -0.725 0  0.09999999999999998 -0.725 0  0.125 -0.725 0  0.15 -0.725 0  0.175 -0.725 0  0.2 -0.725 0  0.225 -0.725 0  0.25 -0.725 0  -0.25 -0.7 0  -0.225 -0.7 0  -0.2 -0.7 0  -0.175 -0.7 0  -0.15 -0.7 0  -0.125 -0.7 0  -0.1 -0.7 0  -0.07500000000000001 -0.7 0  -0.04999999999999999 -0.7 0  -0.02499999999999999 -0.7 0  0 -0.7 0  0.02500000000000002 -0.7 0  0.04999999999999999 -0.7 0  0.07500000000000001 -0.7 0  0.09999999999999998 -0.7 0  0.125 -0.7 0  0.15 -0.7 0  0.175 -0.7 0  0.2 -0.7 0  0.225 -0.7 0  0.25 -0.7 0  -0.25 -0.675 0  -0.225 -0.675 0  -0.2 -0.675 0  -0.175 -0.675 0  -0.15 -0.675 0  -0.125 -0.675 0  -0.1 -0.675 0  -0.07500000000000001 -0.675 0  -0.04999999999999999 -0.675 0  -0.02499999999999999 -0.675 0  0 -0.675 0  0.02500000000000002 -0.675 0  0.04999999999999999 -0.675 0  0.07500000000000001 -0.675 0  0.09999999999999998 -0.675 0  0.125 -0.675 0  0.15 -0.675 0  0.175 -0.675 0  0.2 -0.675 0  0.225 -0.675 0  0.25 -0.675 0  -0.25 -0.65 0  -0.225 -0.65 0  -0.2 -0.65 0  -0.175 -0.65 0  -0.15 -0.65 0  -0.125 -0.65 0  -0.1 -0.65 0  -0.07500000000000001 -0.65 0  -0.04999999999999999 -0.65 0  -0.02499999999999999 -0.65 0  0 -0.65 0  0.02500000000000002 -0.65 0  0.04999999999999999 -0.65 0  0.07500000000000001 -0.65 0  0.09999999999999998 -0.65 0  0.125 -0.65 0  0.15 -0.65 0  0.175 -0.65 0  0.2 -0.65 0  0.225 -0.65 0  0.25 -0.65 0  -0.25 -0.625 0  -0.225 -0.625 0  -0.2 -0.625 0  -0.175 -0.625 0  -0.15 -0.625 0  -0.125 -0.625 0  -0.1 -0.625 0  -0.07500000000000001 -0.625 0  -0.04999999999999999 -0.625 0  -0.02499999999999999 -0.625 0  0 -0.625 0  0.02500000000000002 -0.625 0  0.04999999999999999 -0.625 0  0.07500000000000001 -0.625 0  0.09999999999999998 -0.625 0  0.125 -0.625 0  0.15 -0.625 0  0.175 -0.625 0  0.2 -0.625 0  0.225 -0.625 0  0.25 -0.625 0  -0.25 -0.6 0  -0.225 -0.6 0  -0.2 -0.6 0  -0.175 -0.6 0  -0.15 -0.6 0  -0.125 -0.6 0  -0.1 -0.6 0  -0.07500000000000001 -0.6 0  -0.04999999999999999 -0.6 0  -0.02499999999999999 -0.6 0  0 -0.6 0  0.02500000000000002 -0.6 0  0.04999999999999999 -0.6 0  0.07500000000000001 -0.6 0  0.09999999999999998 -0.6 0  0.125 -0.6 0  0.15 -0.6 0  0.175 -0.6 0  0.2 -0.6 0  0.225 -0.6 0  0.25 -0.6 0  -0.25 -0.575 0  -0.225 -0.575 0  -0.2 -0.575 0  -0.175 -0.575 0  -0.15 -0.575 0  -0.125 -0.575 0  -0.1 -0.575 0  -0.07500000000000001 -0.575 0  -0.04999999999999999 -0.575 0  -0.02499999999999999 -0.575 0  0 -0.575 0  0.02500000000000002 -0.575 0  0.04999999999999999 -0.575 0  0.07500000000000001 -0.575 0  0.09999999999999998 -0.575 0  0.125 -0.575 0  0.15 -0.575 0  0.175 -0.575 0  0.2 -0.575 0  0.225 -0.575 0  0.25 -0.575 0  -0.25 -0.55 0  -0.225 -0.55 0  -0.2 -0.55 0  -0.175 -0.55 0  -0.15 -0.55 0  -0.125 -0.55 0  -0.1 -0.55 0  -0.07500000000000001 -0.55 0  -0.04999999999999999 -0.55 0  -0.02499999999999999 -0.55 0  0 -0.55 0  0.02500000000000002 -0.55 0  0.04999999999999999 -0.55 0  0.07500000000000001 -0.55 0  0.09999999999999998 -0.55 0  0.125 -0.55 0  0.15 -0.55 0  0.175 -0.55 0  0.2 -0.55 0  0.225 -0.55 0  0.25 -0.55 0  -0.25 -0.525 0  -0.225 -0.525 0  -0.2 -0.525 0  -0.175 -0.525 0  -0.15 -0.525 0  -0.125 -0.525 0  -0.1 -0.525 0  -0.07500000000000001 -0.525 0  -0.04999999999999999 -0.525 0  -0.02499999999999999 -0.525 0  0 -0.525 0  0.02500000000000002 -0.525 0  0.04999999999999999 -0.525 0  0.07500000000000001 -0.525 0  0.09999999999999998 -0.525 0  0.125 -0.525 0  0.15 -0.525 0  0.175 -0.525 0  0.2 -0.525 0  0.225 -0.525 0  0.25 -0.525 0  -0.25 -0.5 0  -0.225 -0.5 0  -0.2 -0.5 0  -0.175 -0.5 0  -0.15 -0.5 0  -0.125 -0.5 0  -0.1 -0.5 0  -0.07500000000000001 -0.5 0  -0.04999999999999999 -0.5 0  -0.02499999999999999 -0.5 0  0 -0.5 0  0.02500000000000002 -0.5 0  0.04999999999999999 -0.5 0  0.07500000000000001 -0.5 0  0.09999999999999998 -0.5 0  0.125 -0.5 0  0.15 -0.5 0  0.175 -0.5 0  0.2 -0.5 0  0.225 -0.5 0  0.25 -0.5 0  -0.25 -0.475 0  -0.225 -0.475 0  -0.2 -0.475 0  -0.175 -0.475 0  -0.15 -0.475 0  -0.125 -0.475 0  -0.1 -0.475 0  -0.07500000000000001 -0.475 0  -0.04999999999999999 -0.475 0  -0.02499999999999999 -0.475 0  0 -0.475 0  0.02500000000000002 -0.475 0  0.04999999999999999 -0.475 0  0.07500000000000001 -0.475 0  0.09999999999999998 -0.475 0  0.125 -0.475 0  0.15 -0.475 0  0.175 -0.475 0  0.2 -0.475 0  0.225 -0.475 0  0.25 -0.475 0  -0.25 -0.45 0  -0.225 -0.45 0  -0.2 -0.45 0  -0.175 -0.45 0  -0.15 -0.45 0  -0.125 -0.45 0  -0.1 -0.45 0  -0.07500000000000001 -0.45 0  -0.04999999999999999 -0.45 0  -0.02499999999999999 -0.45 0  0 -0.45 0  0.02500000000000002 -0.45 0  0.04999999999999999 -0.45 0  0.07500000000000001 -0.45 0  0.09999999999999998 -0.45 0  0.125 -0.45 0  0.15 -0.45 0  0.175 -0.45 0  0.2 -0.45 0  0.225 -0.45 0  0.25 -0.45 0  -0.25 -0.425 0  -0.225 -0.425 0  -0.2 -0.425 0  -0.175 -0.425 0  -0.15 -0.425 0  -0.125 -0.425 0  -0.1 -0.425 0  -0.07500000000000001 -0.425 0  -0.04999999999999999 -0.425 0  -0.02499999999999999 -0.425 0  0 -0.425 0  0.02500000000000002 -0.425 0  0.04999999999999999 -0.425 0  0.07500000000000001 -0.425 0  0.
[...]
<PointData  Vectors="displacement"> 
<DataArray  type="Float64"  Name="displacement"  NumberOfComponents="3" format="ascii">9.9305762757466958e-33 7.6232965252887117e-19 0.0000000000000000e+00  -1.0833355937178218e-32 -3.8116482626443573e-19 0.0000000000000000e+00  2.0100953399061144e-32 1.9286543162286420e-18 0.0000000000000000e+00  3.6111186457260722e-32 6.9880218148479874e-19 0.0000000000000000e+00  -1.8710085288788199e-32 1.3860638561930182e-19 0.0000000000000000e+00  6.8611254268795365e-32 -6.3527471044072610e-20 0.0000000000000000e+00  -1.2697145967062003e-31 2.2409800450443891e-18 0.0000000000000000e+00  7.9444610205973588e-32 1.2705494208814522e-19 0.0000000000000000e+00  1.0130671699508331e-31 1.7820437368115326e-18 0.0000000000000000e+00  -1.0111132208033006e-31 0.0000000000000000e+00 0.0000000000000000e+00  3.7906613462140728e-32 6.3526223003489465e-19 0.0000000000000000e+00  4.3333423748712894e-32 -6.3527471044072658e-20 0.0000000000000000e+00  2.1380702144802053e-32 3.8081253594917963e-19 0.0000000000000000e+00  1.0833355937178213e-32 6.3527471044072583e-19 0.0000000000000000e+00  -5.5485887533548985e-32 -6.8344321159660536e-20 0.0000000000000000e+00  4.3333423748712823e-32 5.0821976835258040e-19 0.0000000000000000e+00  1.7769575899104441e-32 4.4433999763204529e-19 0.0000000000000000e+00  9.0277966143151790e-33 3.8116482626443559e-19 0.0000000000000000e+00  -7.2921964782275936e-33 -2.7793268581781754e-20 0.0000000000000000e+00  1.6250033905767335e-32 0.0000000000000000e+00 0.0000000000000000e+00  -3.6111186457260693e-33 2.5410988417629025e-19 0.0000000000000000e+00  -1.0833355937178189e-32 -5.0839342147100154e-03 0.0000000000000000e+00  -7.3902472147212431e-17 -5.0839342147100076e-03 0.0000000000000000e+00  -1.4596522967867704e-16 -5.0839342147100041e-03 0.0000000000000000e+00  -2.1584618022940851e-16 -5.0839342147100067e-03 0.0000000000000000e+00  -2.8184578201119753e-16 -5.0839342147100085e-03 0.0000000000000000e+00  -3.4348162534663353e-16 -5.0839342147100145e-03 0.0000000000000000e+00  -4.0432669086424816e-16 -5.0839342147100250e-03 0.0000000000000000e+00  -4.5224380172370194e-16 -5.0839342147100206e-03 0.0000000000000000e+00  -4.8855837865164057e-16 -5.0839342147100354e-03 0.0000000000000000e+00  -5.1878741039741448e-16 -5.0839342147100458e-03 0.0000000000000000e+00  -5.3407432874678759e-16 -5.0839342147100588e-03 0.0000000000000000e+00  -5.2487873613043540e-16 -5.0839342147100805e-03 0.0000000000000000e+00  -5.0016854030915041e-16 -5.0839342147100969e-03 0.0000000000000000e+00  -4.6110609248030690e-16 -5.0839342147101091e-03 0.0000000000000000e+00  -4.1020189836637491e-16 -5.0839342147101143e-03 0.0000000000000000e+00  -3.4899374358525295e-16 -5.0839342147101247e-03 0.0000000000000000e+00  -2.8582028695220017e-16 -5.0839342147101334e-03 0.0000000000000000e+00  -2.1770317976881779e-16 -5.0839342147101412e-03 0.0000000000000000e+00  -1.4619240650193087e-16 -5.0839342147101516e-03 0.0000000000000000e+00  -7.4418066476946790e-17 -5.0839342147101525e-03 0.0000000000000000e+00  1.1753768013872032e-32 -5.0839342147101551e-03 0.0000000000000000e+00  2.5418850971062780e-32 -1.0186203824019099e-02 0.0000000000000000e+00  -1.3351858218669717e-16 -1.0186203824019104e-02 0.0000000000000000e+00  -2.6675301871327369e-16 -1.0186203824019092e-02 0.0000000000000000e+00  -3.9434858729213352e-16 -1.0186203824019089e-02 0.0000000000000000e+00  -5.1782722847470005e-16 -1.0186203824019104e-02 0.0000000000000000e+00  -6.2679029457308921e-16 -1.0186203824019106e-02 0.0000000000000000e+00  -7.2863344822966739e-16 -1.0186203824019125e-02 0.0000000000000000e+00  -8.1846208915291535e-16 -1.0186203824019144e-02 0.0000000000000000e+00  -8.8895658456934976e-16 -1.0186203824019174e-02 0.0000000000000000e+00  -9.3886865950707775e-16 -1.0186203824019208e-02 0.0000000000000000e+00  -9.5657638403182304e-16 -1.0186203824019236e-02 0.0000000000000000e+00  -9.4300599417718795e-16 -1.0186203824019286e-02 0.0000000000000000e+00  -9.0133731382725104e-16 -1.0186203824019328e-02 0.0000000000000000e+00  -8.3211178508173516e-16 -1.0186203824019373e-02 0.0000000000000000e+00  -7.4703005411472483e-16 -1.0186203824019397e-02 0.0000000000000000e+00  -6.4176477959161867e-16 -1.0186203824019408e-02 0.0000000000000000e+00  -5.2232285430604996e-16 -1.0186203824019436e-02 0.0000000000000000e+00  -3.9830304137114165e-16 -1.0186203824019453e-02 0.0000000000000000e+00  -2.6527725691197839e-16 -1.0186203824019475e-02 0.0000000000000000e+00  -1.3503138398155803e-16 -1.0186203824019475e-02 0.0000000000000000e+00  1.9087341413123499e-32 -1.0186203824019484e-02 0.0000000000000000e+00  0.0000000000000000e+00 -1.5325149431582414e-02 0.0000000000000000e+00  -1.8697590757977024e-16 -1.5325149431582412e-02 0.0000000000000000e+00  -3.6579953898851227e-16 -1.5325149431582408e-02 0.0000000000000000e+00  -5.4001325872199936e-16 -1.5325149431582412e-02 0.0000000000000000e+00  -7.0811510258327477e-16 -1.5325149431582421e-02 0.0000000000000000e+00  -8.6158743334982786e-16 -1.5325149431582441e-02 0.0000000000000000e+00  -9.9776246181644455e-16 -1.5325149431582450e-02 0.0000000000000000e+00  -1.1149185279746042e-15 -1.5325149431582507e-02 0.0000000000000000e+00  -1.2089897478824622e-15 -1.5325149431582558e-02 0.0000000000000000e+00  -1.2738390054922823e-15 -1.5325149431582617e-02 0.0000000000000000e+00  -1.3008010031437120e-15 -1.5325149431582695e-02 0.0000000000000000e+00  -1.2813857424756692e-15 -1.5325149431582781e-02 0.0000000000000000e+00  -1.2232589401857961e-15 -1.5325149431582847e-02 0.0000000000000000e+00  -1.1309412097402650e-15 -1.5325149431582922e-02 0.0000000000000000e+00  -1.0171362241237500e-15 -1.5325149431582958e-02 0.0000000000000000e+00  -8.7583191721842668e-16 -1.5325149431582998e-02 0.0000000000000000e+00  -7.1443251464191611e-16 -1.5325149431583033e-02 0.0000000000000000e+00  -5.4323598823368991e-16 -1.5325149431583069e-02 0.0000000000000000e+00  -3.6818840140268858e-16 -1.5325149431583083e-02 0.0000000000000000e+00  -1.8747375075016240e-16 -1.5325149431583116e-02 0.0000000000000000e+00  3.6111186457260661e-32 -1.5325149431583116e-02 0.0000000000000000e+00  2.7256187512516348e-32 -2.0519121611399377e-02 0.0000000000000000e+00  -2.2548233445130532e-16 -2.0519121611399380e-02 0.0000000000000000e+00  -4.4718985918128811e-16 -2.0519121611399387e-02 0.0000000000000000e+00  -6.6169325558896820e-16 -2.0519121611399391e-02 0.0000000000000000e+00  -8.6869113143628794e-16 -2.0519121611399387e-02 0.0000000000000000e+00  -1.0511638330122526e-15 -2.0519121611399446e-02 0.0000000000000000e+00  -1.2161243440341273e-15 -2.0519121611399467e-02 0.0000000000000000e+00  -1.3565928945079102e-15 -2.0519121611399561e-02 0.0000000000000000e+00  -1.4660514092258507e-15 -2.0519121611399623e-02 0.0000000000000000e+00  -1.5451189487974223e-15 -2.0519121611399703e-02 0.0000000000000000e+00  -1.5759138670968466e-15 -2.0519121611399838e-02 0.0000000000000000e+00  -1.5522413524147400e-15 -2.0519121611399970e-02 0.0000000000000000e+00  -1.4859417984971659e-15 -2.0519121611400060e-02 0.0000000000000000e+00  -1.3826953440444159e-15 -2.0519121611400154e-02 0.0000000000000000e+00  -1.2387998328904853e-15 -2.0519121611400216e-02 0.0000000000000000e+00  -1.0616818067400189e-15 -2.0519121611400296e-02 0.0000000000000000e+00  -8.6972452254222066e-16 -2.0519121611400341e-02 0.0000000000000000e+00  -6.6195016559224739e-16 -2.0519121611400386e-02 0.0000000000000000e+00  -4.4402960231900963e-16 -2.0519121611400432e-02 0.0000000000000000e+00  -2.2744152091122499e-16 -2.0519121611400456e-02 0.0000000000000000e+00  2.8770528605448417e-32 -2.0519121611400466e-02 0.0000000000000000e+00  0.0000000000000000e+00 -2.5786484779430553e-02 0.0000000000000000e+00  -2.5715620722024982e-16 -2.5786484779430581e-02 0.0000000000000000e+00  -5.1758252082092353e-16 -2.5786484779430581e-02 0.0000000000000000e+00  -7.6437046126720491e-16 -2.5786484779430578e-02 0.0000000000000000e+00  -9.9427623869687706e-16 -2.5786484779430598e-02 0.0000000000000000e+00  -1.2085677888971575e-15 -2.5786484779430678e-02 0.0000000000000000e+00  -1.3946685125525960e-15 -2.5786484779430744e-02 0.0000000000000000e+00  -1.5483653145824798e-15 -2.5786484779430803e-02 0.0000000000000000e+00  -1.6733300392241570e-15 -2.5786484779430914e-02 0.0000000000000000e+00  -1.7571799927915771e-15 -2.5786484779431042e-02 0.0000000000000000e+00  -1.7941752777154043e-15 -2.5786484779431212e-02 0.0000000000000000e+00  -1.7693640068183197e-15 -2.5786484779431369e-02 0.0000000000000000e+00  -1.6922236396185925e-15 -2.5786484779431539e-02 0.0000000000000000e+00  -1.5770294413605451e-15 -2.5786484779431636e-02 0.0000000000000000e+00  -1.4131334991738064e-15 -2.5786484779431747e-02 0.0000000000000000e+00  -1.2197224191084365e-15 -2.5786484779431854e-02 0.0000000000000000e+00  -1.0009461856812442e-15 -2.5786484779431896e-02 0.0000000000000000e+00  -7.5688239845161045e-16 -2.5786484779431944e-02 0.0000000000000000e+00  -5.0908991915175224e-16 -2.5786484779432035e-02 0.0000000000000000e+00  -2.5537462031361343e-16 -2.5786484779432059e-02 0.0000000000000000e+00  1.6578878450409848e-33 -2.5786484779432066e-02 0.0000000000000000e+00  -4.3941752014585864e-35 -3.1145619745322744e-02 0.0000000000000000e+00  -2.8956200170723892e-16 -3.1145619745322733e-02 0.0000000000000000e+00  -5.6752469388259208e-16 -3.1145619745322709e-02 0.0000000000000000e+00  -8.3767617200020094e-16 -3.1145619745322768e-02 0.0000000000000000e+00  -1.0910256865111493e-15 -3.1145619745322789e-02 0.0000000000000000e+00  -1.3289637303511961e-15 -3.1145619745322876e-02 0.0000000000000000e+00  -1.5410727687600459e-15 -3.1145619745322949e-02 0.0000000000000000e+00  -1.7120328265458195e-15 -3.1145619745323070e-02 0.0000000000000000e+00  -1.8400772074799020e-15 -3.1145619745323212e-02 0.0000000000000000e+00  -1.9241789621162143e-15 -3.1145619745323396e-02 0.0000000000000000e+00  -1.9581753659967792e-15 -3.1145619745323531e-02 0.0000000000000000e+00  -1.9406835077444234e-15 -3.1145619745323847e-02 0.0000000000000000e+00  -1.8621794165472500e-15 -3.1145619745323979e-02 0.0000000000000000e+00  -1.7287342675372226e-15 -3.1145619745324128e-02 0.0000000000000000e+00  -1.5534485230221775e-15 -3.1145619745324253e-02 0.0000000000000000e+00  -1.3382612664466715e-15 -3.1145619745324395e-02 0.0000000000000000e+00  -1.0968321651008191e-15 -3.1145619745324517e-02 0.0000000000000000e+00  -8.3681533933894561e-16 -3.1145619745324565e-02 0.0000000000000000e+00  -5.5895692003934530e-16 -3.1145619745324624e-02 0.0000000000000000e+00  -2.8258694590759934e-16 -3.1145619745324694e-02 0.0000000000000000e+00  -1.9861152551493342e-32 -3.1145619745324704e-02 0.0000000000000000e+00  3.6111186457260672e-32 -3.6614924531427881e-02 0.0000000000000000e+00  -3.0800284226311509e-16 -3.6614924531427888e-02 0.0000000000000000e+00  -6.0841355505449304e-16 -3.6614924531427881e-02 0.0000000000000000e+00  -8.9769025772590230e-16 -3.6614924531427936e-02 0.0000000000000000e+00  -1.1839611597717011e-15 -3.6614924531427985e-02 0.0000000000000000e+00  -1.4324235920097885e-15 -3.6614924531428068e-02 0.0000000000000000e+00  -1.6491727104519716e-15 -3.6614924531428186e-02 0.0000000000000000e+00  -1.8397025769155734e-15 -3.6614924531428318e-02 0.0000000000000000e+00  -1.9786613327289513e-15 -3.6614924531428478e-02 0.0000000000000000e+00  -2.0681127090623902e-15 -3.6614924531428700e-02 0.0000000000000000e+00  -2.1029598522612467e-15 -3.6614924531428943e-02 0.0000000000000000e+00  -2.0811851311303248e-15 -3.6614924531429206e-02 0.0000000000000000e+00  -2.0041729189682463e-15 -3.6614924531429449e-02 0.0000000000000000e+00  -1.8551951628179854e-15 -3.6614924531429630e-02 0.0000000000000000e+00  -1.6620366035133093e-15 -3.6614924531429817e-02 0.0000000000000000e+00  -1.4305377482400795e-15 -3.6614924531429942e-02 0.0000000000000000e+00  -1.1737491668908952e-15 -3.6614924531430108e-02 0.0000000000000000e+00  -8.9993761137219241e-16 -3.6614924531430185e-02 0.0000000000000000e+00  -6.0060327604032308e-16 -3.6614924531430310e-02 0.0000000000000000e+00  -2.9619370920888415e-16 -3.6614924531430330e-02 0.0000000000000000e+00  7.5833491560247379e-32 -3.6614924531430337e-02 0.0000000000000000e+00  -8.5246998908296809e-33 -4.2212813069291255e-02 0.0000000000000000e+00  -3.2559298325611947e-16 -4.2212813069291297e-02 0.0000000000000000e+00  -6.4416755254216700e-16 -4.2212813069291352e-02 0.0000000000000000e+00  -9.4822566353612228e-16 -4.2212813069291311e-02 0.0000000000000000e+00  -1.2453518657690821e-15 -4.2212813069291442e-02 0.0000000000000000e+00  -1.5145506665127834e-15 -4.2212813069291574e-02 0.0000000000000000e+00  -1.7455978584411649e-15 -4.2212813069291685e-02 0.0000000000000000e+00  -1.9468296286082003e-15 -4.2212813069291845e-02 0.0000000000000000e+00  -2.0871936741876417e-15 -4.2212813069292053e-02 0.0000000000000000e+00  -2.1825750860858881e-15 -4.2212813069292303e-02 0.0000000000000000e+00  -2.2318522809028424e-15 -4.2212813069292587e-02 0.0000000000000000e+00  -2.1995734133437417e-15 -4.2212813069292872e-02 0.0000000000000000e+00  -2.1131376601937027e-15 -4.2212813069293184e-02 0.0000000000000000e+00  -1.9619850287787884e-15 -4.2212813069293434e-02 0.0000000000000000e+00  -1.7591644011235002e-15 -4.2212813069293718e-02 0.0000000000000000e+00  -1.5118199705179572e-15 -4.2212813069293809e-02 0.0000000000000000e+00  -1.2403387309731181e-15 -4.2212813069294003e-02 0.0000000000000000e+00  -9.5075532827503310e-16 -4.2212813069294058e-02 0.0000000000000000e+00  -6.3562765714850544e-16 -4.2212813069294204e-02 0.0000000000000000e+00  -3.2250633094088457e-16 -4.2212813069294274e-02 0.0000000000000000e+00  6.4761153423352895e-32 -4.2212813069294274e-02 0.0000000000000000e+00  -7.2222372914521262e-33 -4.7957711412162853e-02 0.0000000000000000e+00  -3.4074956526357903e-16 -4.7957711412162776e-02 0.0000000000000000e+00  -6.7778663440835267e-16 -4.7957711412162825e-02 0.0000000000000000e+00  -9.9142036600945538e-16 -4.7957711412162887e-02 0.0000000000000000e+00  -1.2977398000115277e-15 -4.7957711412162943e-02 0.0000000000000000e+00  -1.5842231103767236e-15 -4.7957711412163102e-02 0.0000000000000000e+00  -1.8255768012106086e-15 -4.7957711412163283e-02 0.0000000000000000e+00  -2.0228455441779400e-15 -4.7957711412163484e-02 0.0000000000000000e+00  -2.1780957575631491e-15 -4.7957711412163768e-02 0.0000000000000000e+00  -2.2856207989908514e-15 -4.7957711412163997e-02 0.0000000000000000e+00  -2.3278241443938583e-15 -4.7957711412164310e-02 0.0000000000000000e+00  -2.2963608159165348e-15 -4.7957711412164733e-02 0.0000000000000000e+00  -2.1983004117547826e-15 -4.7957711412165059e-02 0.0000000000000000e+00  -2.0432449776530425e-15 -4.7957711412165357e-02 0.0000000000000000e+00  -1.8359153597247626e-15 -4.7957711412165593e-02 0.0000000000000000e+00  -1.5874420698209720e-15 -4.7957711412165829e-02 0.0000000000000000e+00  -1.3047933212069259e-15 -4.7957711412165926e-02 0.0000000000000000e+00  -9.8825304507073211e-16 -4.7957711412166155e-02 0.0000000000000000e+00  -6.6257623217472494e-16 -4.7957711412166225e-02 0.0000000000000000e+00  -3.3599937063364626e-16 -4.7957711412166218e-02 0.0000000000000000e+00  3.3457507960279303e-33 -4.7957711412166336e-02 0.0000000000000000e+00  2.5226351138615560e-32 -5.3868051135609378e-02 0.0000000000000000e+00  -3.5886419949118936e-16 -5.3868051135609468e-02 0.0000000000000000e+00  -7.0870321773224230e-16 -5.3868051135609392e-02 0.0000000000000000e+00  -1.0276951392555100e-15 -5.3868051135609524e-02 0.0000000000000000e+00  -1.3331155059302075e-15 -5.3868051135609565e-02 0.0000000000000000e+00  -1.6258165639517649e-15 -5.3868051135609780e-02 0.0000000000000000e+00  -1.8840738837485132e-15 -5.3868051135609975e-02 0.0000000000000000e+00  -2.0953096151224728e-15 -5.3868051135610211e-02 0.0000000000000000e+00  -2.2631905136316161e-15 -5.3868051135610488e-02 0.0000000000000000e+00  -2.3636727875574380e-15 -5.3868051135610794e-02 0.0000000000000000e+00  -2.4011159048609757e-15 -5.3868051135611231e-02 0.0000000000000000e+00  -2.3744287317557835e-15 -5.3868051135611633e-02 0.0000000000000000e+00  -2.2679029954647514e-15 -5.3868051135612029e-02 0.0000000000000000e+00  -2.1024222534734843e-15 -5.3868051135612376e-02 0.0000000000000000e+00  -1.8902355804249492e-15 -5.3868051135612632e-02 0.0000000000000000e+00  -1.6431103508895412e-15 -5.3868051135612917e-02 0.0000000000000000e+00  -1.3528643819647057e-15 -5.3868051135613118e-02 0.0000000000000000e+00  -1.0243463448778171e-15 -5.3868051135613243e-02 0.0000000000000000e+00  -6.9061113118970390e-16 -5.3868051135613319e-02 0.0000000000000000e+00  -3.4736277929059448e-16 -5.3868051135613416e-02 0.0000000000000000e+00  3.5079438272767542e-32 -5.3868051135613437e-02 0.0000000000000000e+00  1.8055593228630314e-32 -5.9962259636679900e-02 0.0000000000000000e+00  -3.7393397956132798e-16 -5.9962259636679879e-02 0.0000000000000000e+00  -7.2596744293800142e-16 -5.9962259636679970e-02 0.0000000000000000e+00  -1.0663847021730772e-15 -5.9962259636680039e-02 0.0000000000000000e+00  -1.3739699104058878e-15 -5.9962259636680136e-02 0.0000000000000000e+00  -1.6489635670606284e-15 -5.9962259636680296e-02 0.0000000000000000e+00  -1.9323773752547403e-15 -5.9962259636680497e-02 0.0000000000000000e+00  -2.1650115498718036e-15 -5.9962259636680802e-02 0.0000000000000000e+00  -2.3224191473092618e-15 -5.9962259636681184e-02 0.0000000000000000e+00  -2.4215623922823819e-15 -5.9962259636681510e-02 0.0000000000000000e+00  -2.4629490715087589e-15 -5.9962259636681906e-02 0.0000000000000000e+00  -2.4395102992553457e-15 -5.9962259636682405e-02 0.0000000000000000e+00  -2.3276079445104739e-15 -5.9962259636682884e-02 0.0000000000000000e+00  -2.1528983731865648e-15 -5.9962259636683279e-02 0.0000000000000000e+00  -1.9409344530784655e-15 -5.9962259636683550e-02 0.0000000000000000e+00  -1.6837826282908096e-15 -5.9962259636683848e-02 0.0000000000000000e+00  -1.3869222519073622e-15 -5.9962259636684098e-02 0.0000000000000000e+00  -1.0653106498385691e-15 -5.9962259636684265e-02 0.0000000000000000e+00  -7.1389201493345562e-16 -5.9962259636684410e-02 0.0000000000000000e+00  -3.5778327391015481e-16 -5.9962259636684452e-02 0.0000000000000000e+00  1.1555579666323395e-31 -5.9962259636684501e-02 0.0000000000000000e+00  -9.9870000045861547e-33 -6.6258747084934511e-02 0.0000000000000000e+00  -3.7945302149414282e-16 -6.6258747084934552e-02 0.0000000000000000e+00  -7.4870019615825595e-16 -6.6258747084934622e-02 0.0000000000000000e+00  -1.1046733041497577e-15 -6.6258747084934705e-02 0.0000000000000000e+00  -1.4355098605074535e-15 -6.6258747084934858e-02 0.0000000000000000e+00  -1.7205364016719148e-15 -6.6258747084934982e-02 0.0000000000000000e+00  -1.9734725355277377e-15 -6.6258747084935177e-02 0.0000000000000000e+00  -2.1884523211392692e-15 -6.6258747084935565e-02 0.0000000000000000e+00  -2.3596055272512861e-15 -6.6258747084935898e-02 0.0000000000000000e+00  -2.4840140954925698e-15 -6.6258747084936356e-02 0.0000000000000000e+00  -2.5271942181055430e-15 -6.6258747084936745e-02 0.0000000000000000e+00  -2.4838531005058335e-15 -6.6258747084937342e-02 0.0000000000000000e+00  -2.3769015179219954e-15 -6.6258747084937855e-02 0.0000000000000000e+00  -2.1990321249893454e-15 -6.6258747084938355e-02 0.0000000000000000e+00  -1.9834973419387322e-15 -6.6258747084938688e-02 0.0000000000000000e+00  -1.7223972969374130e-15 -6.6258747084938938e-02 0.0000000000000000e+00  -1.4190279345898681e-15 -6.6258747084939229e-02 0.0000000000000000e+00  -1.0895058142472226e-15 -6.6258747084939368e-02 0.0000000000000000e+00  -7.3389050414646373e-16 -6.6258747084939576e-02 0.0000000000000000e+00  -3.6367050965884725e-16 -6.6258747084939618e-02 0.0000000000000000e+00  -5.2447591352267752e-32 -6.6258747084939743e-02 0.0000000000000000e+00  3.6111186457260672e-32 -7.2775889825595075e-02 0.0000000000000000e+00  -3.8466359888232857e-16 -7.2775889825595075e-02 0.0000000000000000e+00  -7.7172548373863552e-16 -7.2775889825595103e-02 0.0000000000000000e+00  -1.1303014087407727e-15 -7.2775889825595255e-02 0.00