<?xml version="1.0"?>
<VTKFile type="UnstructuredGrid"  version="0.1"  >
<UnstructuredGrid>
<Piece  NumberOfPoints="1091" NumberOfCells="2050">
<Points>
<DataArray  type="Float64"  NumberOfComponents="3"  format="ascii">-0.5 -1 0  -0.4 -1 0  -0.3 -1 0  -0.2 -1 0  -0.09999999999999998 -1 0  0 -1 0  0.09999999999999998 -1 0  0.2 -1 0  0.3 -1 0  0.4 -1 0  0.5 -1 0  -0.5 -0.98 0  -0.4 -0.98 0  -0.3 -0.98 0  -0.2 -0.98 0  -0.09999999999999998 -0.98 0  0 -0.98 0  0.09999999999999998 -0.98 0  0.2 -0.98 0  0.3 -0.98 0  0.4 -0.98 0  0.5 -0.98 0  -0.5 -0.96 0  -0.4 -0.96 0  -0.3 -0.96 0  -0.2 -0.96 0  -0.09999999999999998 -0.96 0  0 -0.96 0  0.09999999999999998 -0.96 0  0.2 -0.96 0  0.3 -0.96 0  0.4 -0.96 0  0.5 -0.96 0  -0.5 -0.9399999999999999 0  -0.4 -0.9399999999999999 0  -0.3 -0.9399999999999999 0  -0.2 -0.9399999999999999 0  -0.09999999999999998 -0.9399999999999999 0  0 -0.9399999999999999 0  0.09999999999999998 -0.9399999999999999 0  0.2 -0.9399999999999999 0  0.3 -0.9399999999999999 0  0.4 -0.9399999999999999 0  0.5 -0.9399999999999999 0  -0.5 -0.92 0  -0.4 -0.92 0  -0.3 -0.92 0  -0.2 -0.92 0  -0.09999999999999998 -0.92 0  0 -0.92 0  0.09999999999999998 -0.92 0  0.2 -0.92 0  0.3 -0.92 0  0.4 -0.92 0  0.5 -0.92 0  -0.5 -0.9 0  -0.4 -0.9 0  -0.3 -0.9 0  -0.2 -0.9 0  -0.09999999999999998 -0.9 0  0 -0.9 0  0.09999999999999998 -0.9 0  0.2 -0.9 0  0.3 -0.9 0  0.4 -0.9 0  0.5 -0.9 0  -0.5 -0.88 0  -0.4 -0.88 0  -0.3 -0.88 0  -0.2 -0.88 0  -0.09999999999999998 -0.88 0  0 -0.88 0  0.09999999999999998 -0.88 0  0.2 -0.88 0  0.3 -0.88 0  0.4 -0.88 0  0.5 -0.88 0  -0.5 -0.86 0  -0.4 -0.86 0  -0.3 -0.86 0  -0.2 -0.86 0  -0.09999999999999998 -0.86 0  0 -0.86 0  0.09999999999999998 -0.86 0  0.2 -0.86 0  0.3 -0.86 0  0.4 -0.86 0  0.5 -0.86 0  -0.5 -0.84 0  -0.4 -0.84 0  -0.3 -0.84 0  -0.2 -0.84 0  -0.09999999999999998 -0.84 0  0 -0.84 0  0.09999999999999998 -0.84 0  0.2 -0.84 0  0.3 -0.84 0  0.4 -0.84 0  0.5 -0.84 0  -0.5 -0.8200000000000001 0  -0.4 -0.8200000000000001 0  -0.3 -0.8200000000000001 0  -0.2 -0.8200000000000001 0  -0.09999999999999998 -0.8200000000000001 0  0 -0.8200000000000001 0  0.09999999999999998 -0.8200000000000001 0  0.2 -0.8200000000000001 0  0.3 -0.8200000000000001 0  0.4 -0.8200000000000001 0  0.5 -0.8200000000000001 0  -0.5 -0.8 0  -0.4 -0.8 0  -0.3 -0.8 0  -0.2 -0.8 0  -0.09999999999999998 -0.8 0  0 -0.8 0  0.09999999999999998 -0.8 0  0.2 -0.8 0  0.3 -0.8 0  0.4 -0.8 0  0.5 -0.8 0  -0.5 -0.78 0  -0.4 -0.78 0  -0.3 -0.78 0  -0.2 -0.78 0  -0.09999999999999998 -0.78 0  0 -0.78 0  0.09999999999999998 -0.78 0  0.2 -0.78 0  0.3 -0.78 0  0.4 -0.78 0  0.5 -0.78 0  -0.5 -0.76 0  -0.4 -0.76 0  -0.3 -0.76 0  -0.2 -0.76 0  -0.09999999999999998 -0.76 0  0 -0.76 0  0.09999999999999998 -0.76 0  0.2 -0.76 0  0.3 -0.76 0  0.4 -0.76 0  0.5 -0.76 0  -0.5 -0.74 0  -0.4 -0.74 0  -0.3 -0.74 0  -0.2 -0.74 0  -0.09999999999999998 -0.74 0  0 -0.74 0  0.09999999999999998 -0.74 0  0.2 -0.74 0  0.3 -0.74 0  0.4 -0.74 0  0.5 -0.74 0  -0.5 -0.72 0  -0.4 -0.72 0  -0.3 -0.72 0  -0.2 -0.72 0  -0.09999999999999998 -0.72 0  0 -0.72 0  0.09999999999999998 -0.72 0  0.2 -0.72 0  0.3 -0.72 0  0.4 -0.72 0  0.5 -0.72 0  -0.5 -0.7 0  -0.4 -0.7 0  -0.3 -0.7 0  -0.2 -0.7 0  -0.09999999999999998 -0.7 0  0 -0.7 0  0.09999999999999998 -0.7 0  0.2 -0.7 0  0.3 -0.7 0  0.4 -0.7 0  0.5 -0.7 0  -0.5 -0.6799999999999999 0  -0.4 -0.6799999999999999 0  -0.3 -0.6799999999999999 0  -0.2 -0.6799999999999999 0  -0.09999999999999998 -0.6799999999999999 0  0 -0.6799999999999999 0  0.09999999999999998 -0.6799999999999999 0  0.2 -0.6799999999999999 0  0.3 -0.6799999999999999 0  0.4 -0.6799999999999999 0  0.5 -0.6799999999999999 0  -0.5 -0.6599999999999999 0  -0.4 -0.6599999999999999 0  -0.3 -0.6599999999999999 0  -0.2 -0.6599999999999999 0  -0.09999999999999998 -0.6599999999999999 0  0 -0.6599999999999999 0  0.09999999999999998 -0.6599999999999999 0  0.2 -0.6599999999999999 0  0.3 -0.6599999999999999 0  0.4 -0.6599999999999999 0  0.5 -0.6599999999999999 0  -0.5 -0.64 0  -0.4 -0.64 0  -0.3 -0.64 0  -0.2 -0.64 0  -0.09999999999999998 -0.64 0  0 -0.64 0  0.09999999999999998 -0.64 0  0.2 -0.64 0  0.3 -0.64 0  0.4 -0.64 0  0.5 -0.64 0  -0.5 -0.62 0  -0.4 -0.62 0  -0.3 -0.62 0  -0.2 -0.62 0  -0.09999999999999998 -0.62 0  0 -0.62 0  0.09999999999999998 -0.62 0  0.2 -0.62 0  0.3 -0.62 0  0.4 -0.62 0  0.5 -0.62 0  -0.5 -0.6 0  -0.4 -0.6 0  -0.3 -0.6 0  -0.2 -0.6 0  -0.09999999999999998 -0.6 0  0 -0.6 0  0.09999999999999998 -0.6 0  0.2 -0.6 0  0.3 -0.6 0  0.4 -0.6 0  0.5 -0.6 0  -0.5 -0.5800000000000001 0  -0.4 -0.5800000000000001 0  -0.3 -0.5800000000000001 0  -0.2 -0.5800000000000001 0  -0.09999999999999998 -0.5800000000000001 0  0 -0.5800000000000001 0  0.09999999999999998 -0.5800000000000001 0  0.2 -0.5800000000000001 0  0.3 -0.5800000000000001 0  0.4 -0.5800000000000001 0  0.5 -0.5800000000000001 0  -0.5 -0.5600000000000001 0  -0.4 -0.5600000000000001 0  -0.3 -0.5600000000000001 0  -0.2 -0.5600000000000001 0  -0.09999999999999998 -0.5600000000000001 0  0 -0.5600000000000001 0  0.09999999999999998 -0.5600000000000001 0  0.2 -0.5600000000000001 0  0.3 -0.5600000000000001 0  0.4 -0.5600000000000001 0  0.5 -0.5600000000000001 0  -0.5 -0.54 0  -0.4 -0.54 0  -0.3 -0.54 0  -0.2 -0.54 0  -0.09999999999999998 -0.54 0  0 -0.54 0  0.09999999999999998 -0.54 0  0.2 -0.54 0  0.3 -0.54 0  0.4 -0.54 0  0.5 -0.54 0  -0.5 -0.52 0  -0.4 -0.52 0  -0.3 -0.52 0  -0.2 -0.52 0  -0.09999999999999998 -0.52 0  0 -0.52 0  0.09999999999999998 -0.52 0  0.2 -0.52 0  0.3 -0.52 0  0.4 -0.52 0  0.5 -0.52 0  -0.5 -0.5 0  -0.4 -0.5 0  -0.3 -0.5 0  -0.2 -0.5 0  -0.09999999999999998 -0.5 0  0 -0.5 0  0.09999999999999998 -0.5 0  0.2 -0.5 0  0.3 -0.5 0  0.4 -0.5 0  0.5 -0.5 0  -0.5 -0.48 0  -0.4 -0.48 0  -0.3 -0.48 0  -0.2 -0.48 0  -0.09999999999999998 -0.48 0  0 -0.48 0  0.09999999999999998 -0.48 0  0.2 -0.48 0  0.3 -0.48 0  0.4 -0.48 0  0.5 -0.48 0  -0.5 -0.46 0  -0.4 -0.46 0  -0.3 -0.46 0  -0.2 -0.46 0  -0.09999999999999998 -0.46 0  0 -0.46 0  0.09999999999999998 -0.46 0  0.2 -0.46 0  0.3 -0.46 0  0.4 -0.46 0  0.5 -0.46 0  -0.5 -0.4399999999999999 0  -0.4 -0.4399999999999999 0  -0.3 -0.4399999999999999 0  -0.2 -0.4399999999999999 0  -0.09999999999999998 -0.4399999999999999 0  0 -0.4399999999999999 0  0.09999999999999998 -0.4399999999999999 0  0.2 -0.4399999999999999 0  0.3 -0.4399999999999999 0  0.4 -0.4399999999999999 0  0.5 -0.4399999999999999 0  -0.5 -0.42 0  -0.4 -0.42 0  -0.3 -0.42 0  -0.2 -0.42 0  -0.09999999999999998 -0.42 0  0 -0.42 0  0.09999999999999998 -0.42 0  0.2 -0.42 0  0.3 -0.42 0  0.4 -0.42 0  0.5 -0.42 0  -0.5 -0.4 0  -0.4 -0.4 0  -0.3 -0.4 0  -0.2 -0.4 0  -0.09999999999999998 -0.4 0  0 -0.4 0  0.09999999999999998 -0.4 0  0.2 -0.4 0  0.3 -0.4 0  0.4 -0.4 0  0.5 -0.4 0  -0.5 -0.38 0  -0.4 -0.38 0  -0.3 -0.38 0  -0.2 -0.38 0  -0.09999999999999998 -0.38 0  0 -0.38 0  0.09999999999999998 -0.38 0  0.2 -0.38 0  0.3 -0.38 0  0.4 -0.38 0  0.5 -0.38 0  -0.5 -0.36 0  -0.4 -0.36 0  -0.3 -0.36 0  -0.2 -0.36 0  -0.09999999999999998 -0.36 0  0 -0.36 0  0.09999999999999998 -0.36 0  0.2 -0.36 0  0.3 -0.36 0  0.4 -0.36 0  0.5 -0.36 0  -0.5 -0.34 0  -0.4 -0.34 0  -0.3 -0.34 0  -0.2 -0.34 0  -0.09999999999999998 -0.34 0  0 -0.34 0  0.09999999999999998 -0.34 0  0.2 -0.34 0  0.3 -0.34 0  0.4 -0.34 0  0.5 -0.34 0  -0.5 -0.32 0  -0.4 -0.32 0  -0.3 -0.32 0  -0.2 -0.32 0  -0.09999999999999998 -0.32 0  0 -0.32 0  0.09999999999999998 -0.32 0  0.2 -0.32 0  0.3 -0.32 0  0.4 -0.32 0  0.5 -0.32 0  -0.5 -0.3 0  -0.4 -0.3 0  -0.3 -0.3 0  -0.2 -0.3 0  -0.09999999999999998 -0.3 0  0 -0.3 0  0.09999999999999998 -0.3 0  0.2 -0.3 0  0.3 -0.3 0  0.4 -0.3 0  0.5 -0.3 0  -0.5 -0.28 0  -0.4 -0.28 0  -0.3 -0.28 0  -0.2 -0.28 0  -0.09999999999999998 -0.28 0  0 -0.28 0  0.09999999999999998 -0.28 0  0.2 -0.28 0  0.3 -0.28 0  0.4 -0.28 0  0.5 -0.28 0  -0.5 -0.26 0  -0.4 -0.26 0  -0.3 -0.26 0  -0.2 -0.26 0  -0.09999999999999998 -0.26 0  0 -0.26 0  0.09999999999999998 -0.26 0  0.2 -0.26 0  0.3 -0.26 0  0.4 -0.26 0  0.5 -0.26 0  -0.5 -0.24 0  -0.4 -0.24 0  -0.3 -0.24 0  -0.2 -0.24 0  -0.09999999999999998 -0.24 0  0 -0.24 0  0.09999999999999998 -0.24 0  0.2 -0.24 0  0.3 -0.24 0  0.4 -0.24 0  0.5 -0.24 0  -0.5 -0.22 0  -0.4 -0.22 0  -0.3 -0.22 0  -0.2 -0.22 0  -0.09999999999999998 -0.22 0  0 -0.22 0  0.09999999999999998 -0.22 0  0.2 -0.22 0  0.3 -0.22 0  0.4 -0.22 0  0.5 -0.22 0  -0.5 -0.2 0  -0.4 -0.2 0  -0.3 -0.2 0  -0.2 -0.2 0  -0.09999999999999998 -0.2 0  0 -0.2 0  0.09999999999999998 -0.2 0  0.2 -0.2 0  0.3 -0.2 0  0.4 -0.2 0  0.5 -0.2 0  -0.5 -0.18 0  -0.4 -0.18 0  -0.3 -0.18 0  -0.2 -0.18 0  -0.09999999999999998 -0.18 0  0 -0.18 0  0.09999999999999998 -0.18 0  0.2 -0.18 0  0.3 -0.18 0  0.4 -0.18 0  0.5 -0.18 0  -0.5 -0.16 0  -0.4 -0.16 0  -0.3 -0.16 0  -0.2 -0.16 0  -0.09999999999999998 -0.16 0  0 -0.16 0  0.09999999999999998 -0.16 0  0.2 -0.16 0  0.3 -0.16 0  0.4 -0.16 0  0.5 -0.16 0  -0.5 -0.14 0  -0.4 -0.14 0  -0.3 -0.14 0  -0.2 -0.14 0  -0.09999999999999998 -0.14 0  0 -0.14 0  0.09999999999999998 -0.14 0  0.2 -0.14 0  0.3 -0.14 0  0.4 -0.14 0  0.5 -0.14 0  -0.5 -0.12 0  -0.4 -0.12 0  -0.3 -0.12 0  -0.2 -0.12 0  -0.09999999999999998 -0.12 0  0 -0.12 0  0.09999999999999998 -0.12 0  0.2 -0.12 0  0.3 -0.12 0  0.4 -0.12 0  0.5 -0.12 0  -0.5 -0.09999999999999998 0  -0.4 -0.09999999999999998 0  -0.3 -0.09999999999999998 0  -0.2 -0.09999999999999998 0  -0.09999999999999998 -0.09999999999999998 0  0 -0.09999999999999998 0  0.09999999999999998 -0.09999999999999998 0  0.2 -0.09999999999999998 0  0.3 -0.09999999999999998 0  0.4 -0.09999999999999998 0  0.5 -0.09999999999999998 0  -0.5 -0.07999999999999996 0  -0.4 -0.07999999999999996 0  -0.3 -0.07999999999999996 0  -0.2 -0.07999999999999996 0  -0.09999999999999998 -0.07999999999999996 0  0 -0.07999999999999996 0  0.09999999999999998 -0.07999999999999996 0  0.2 -0.07999999999999996 0  0.3 -0.07999999999999996 0  0.4 -0.07999999999999996 0  0.5 -0.07999999999999996 0  -0.5 -0.06000000000000005 0  -0.4 -0.06000000000000005 0  -0.3 -0.06000000000000005 0  -0.2 -0.06000000000000005 0  -0.09999999
[...]
<PointData  Vectors="displacement"> 
<DataArray  type="Float64"  Name="displacement"  NumberOfComponents="3" format="ascii">-7.0529661049337347e-35 -9.9261673506363231e-21 0.0000000000000000e+00  3.5264830524668587e-34 1.4889251025954483e-20 0.0000000000000000e+00  -4.7717723803692191e-34 -6.2057932987083727e-20 0.0000000000000000e+00  3.3854237303681853e-33 -4.9630836753181623e-21 0.0000000000000000e+00  2.2407951004530602e-33 -1.0029997971179481e-20 0.0000000000000000e+00  0.0000000000000000e+00 -1.7370792863613563e-20 0.0000000000000000e+00  -3.1338863063914480e-33 -2.0143140385373323e-20 0.0000000000000000e+00  5.0781355955522766e-33 -2.9778502051908966e-20 0.0000000000000000e+00  1.1337242292415534e-33 -2.2644069268639109e-20 0.0000000000000000e+00  0.0000000000000000e+00 4.4667753077863458e-20 0.0000000000000000e+00  -1.4105932209867433e-33 0.0000000000000000e+00 0.0000000000000000e+00  -8.4635593259204632e-34 -2.7717265353417270e-04 0.0000000000000000e+00  -6.7102575762849792e-18 -2.7717265353417557e-04 0.0000000000000000e+00  4.1005385182901826e-18 -2.7717265353417877e-04 0.0000000000000000e+00  2.5122998419445314e-17 -2.7717265353418088e-04 0.0000000000000000e+00  3.2375633597421111e-17 -2.7717265353417703e-04 0.0000000000000000e+00  3.8486769582389683e-17 -2.7717265353417226e-04 0.0000000000000000e+00  4.4429865087723842e-17 -2.7717265353417356e-04 0.0000000000000000e+00  3.3170496187461599e-17 -2.7717265353416906e-04 0.0000000000000000e+00  2.9643692351694828e-17 -2.7717265353416934e-04 0.0000000000000000e+00  1.7953346080047911e-17 -2.7717265353416126e-04 0.0000000000000000e+00  -8.8198848385953976e-34 -2.7717265353416901e-04 0.0000000000000000e+00  -9.8540858314820770e-34 -5.5434530706834453e-04 0.0000000000000000e+00  -1.0322045235695970e-17 -5.5434530706835190e-04 0.0000000000000000e+00  9.2662710666395874e-18 -5.5434530706835938e-04 0.0000000000000000e+00  4.6263172242732547e-17 -5.5434530706836480e-04 0.0000000000000000e+00  6.2569077791670909e-17 -5.5434530706835667e-04 0.0000000000000000e+00  7.5209845709530584e-17 -5.5434530706834550e-04 0.0000000000000000e+00  8.3902185516374463e-17 -5.5434530706834734e-04 0.0000000000000000e+00  6.3557052635037448e-17 -5.5434530706833813e-04 0.0000000000000000e+00  5.5883710632867833e-17 -5.5434530706833900e-04 0.0000000000000000e+00  3.4182937475746567e-17 -5.5434530706832024e-04 0.0000000000000000e+00  3.4660290572817134e-33 -5.5434530706833531e-04 0.0000000000000000e+00  -1.9748305093814447e-33 -8.3151796060251587e-04 0.0000000000000000e+00  -1.2268945466664568e-17 -8.3151796060252931e-04 0.0000000000000000e+00  1.5123122656055529e-17 -8.3151796060254048e-04 0.0000000000000000e+00  6.4560611332916883e-17 -8.3151796060255295e-04 0.0000000000000000e+00  9.0436959625043517e-17 -8.3151796060253658e-04 0.0000000000000000e+00  1.1000194576095444e-16 -8.3151796060252270e-04 0.0000000000000000e+00  1.1967495083762742e-16 -8.3151796060252291e-04 0.0000000000000000e+00  9.0397212154291775e-17 -8.3151796060250774e-04 0.0000000000000000e+00  7.9528295567750731e-17 -8.3151796060250806e-04 0.0000000000000000e+00  4.9106072462134205e-17 -8.3151796060247727e-04 0.0000000000000000e+00  -1.1284745767893965e-33 -8.3151796060250058e-04 0.0000000000000000e+00  3.8784598587338411e-34 -1.1086906141366878e-03 0.0000000000000000e+00  -1.3249925406997046e-17 -1.1086906141367031e-03 0.0000000000000000e+00  2.1019406524187765e-17 -1.1086906141367218e-03 0.0000000000000000e+00  8.0276196515672775e-17 -1.1086906141367404e-03 0.0000000000000000e+00  1.1639037568609396e-16 -1.1086906141367175e-03 0.0000000000000000e+00  1.4202223721025181e-16 -1.1086906141367005e-03 0.0000000000000000e+00  1.5242883635090338e-16 -1.1086906141367029e-03 0.0000000000000000e+00  1.1492686878313248e-16 -1.1086906141366786e-03 0.0000000000000000e+00  1.0105948880822596e-16 -1.1086906141366700e-03 0.0000000000000000e+00  6.2158645698629521e-17 -1.1086906141366338e-03 0.0000000000000000e+00  3.2335826155975664e-33 -1.1086906141366659e-03 0.0000000000000000e+00  -7.0529661049337199e-34 -1.3858632676708638e-03 0.0000000000000000e+00  -1.2824861147006440e-17 -1.3858632676708805e-03 0.0000000000000000e+00  2.6742262499569908e-17 -1.3858632676709054e-03 0.0000000000000000e+00  9.3986565100740831e-17 -1.3858632676709275e-03 0.0000000000000000e+00  1.4023057052013271e-16 -1.3858632676709026e-03 0.0000000000000000e+00  1.7148600558551172e-16 -1.3858632676708839e-03 0.0000000000000000e+00  1.8128048395668116e-16 -1.3858632676708857e-03 0.0000000000000000e+00  1.3905290480915584e-16 -1.3858632676708546e-03 0.0000000000000000e+00  1.2152512291665546e-16 -1.3858632676708280e-03 0.0000000000000000e+00  7.2919450681782711e-17 -1.3858632676707924e-03 0.0000000000000000e+00  -1.3672868468262679e-32 -1.3858632676708275e-03 0.0000000000000000e+00  -4.2489444098409292e-34 -1.6630359212050402e-03 0.0000000000000000e+00  -1.1134726082707606e-17 -1.6630359212050562e-03 0.0000000000000000e+00  3.1599514351199795e-17 -1.6630359212050870e-03 0.0000000000000000e+00  1.0536791650121113e-16 -1.6630359212051159e-03 0.0000000000000000e+00  1.6047020575768040e-16 -1.6630359212050855e-03 0.0000000000000000e+00  1.9908349387549230e-16 -1.6630359212050651e-03 0.0000000000000000e+00  2.0711948828957931e-16 -1.6630359212050671e-03 0.0000000000000000e+00  1.6148647049221384e-16 -1.6630359212050320e-03 0.0000000000000000e+00  1.4142151142993213e-16 -1.6630359212049882e-03 0.0000000000000000e+00  8.0904287717533730e-17 -1.6630359212049502e-03 0.0000000000000000e+00  7.4156900760445953e-33 -1.6630359212049847e-03 0.0000000000000000e+00  4.2317796629602316e-34 -1.9402085747392088e-03 0.0000000000000000e+00  -9.2262116661529014e-18 -1.9402085747392329e-03 0.0000000000000000e+00  3.5510890932271186e-17 -1.9402085747392676e-03 0.0000000000000000e+00  1.1613259890205018e-16 -1.9402085747393066e-03 0.0000000000000000e+00  1.7834827303817641e-16 -1.9402085747392676e-03 0.0000000000000000e+00  2.2439908693344510e-16 -1.9402085747392450e-03 0.0000000000000000e+00  2.3064927745419681e-16 -1.9402085747392426e-03 0.0000000000000000e+00  1.8195328395145464e-16 -1.9402085747392043e-03 0.0000000000000000e+00  1.5965529850489478e-16 -1.9402085747391466e-03 0.0000000000000000e+00  8.7025683344561173e-17 -1.9402085747390991e-03 0.0000000000000000e+00  -9.0277966143151599e-33 -1.9402085747391418e-03 0.0000000000000000e+00  -3.3299608948553456e-34 -2.2173812282733755e-03 0.0000000000000000e+00  -9.1643500936786947e-18 -2.2173812282734076e-03 0.0000000000000000e+00  3.8290246655750792e-17 -2.2173812282734566e-03 0.0000000000000000e+00  1.2493337031860995e-16 -2.2173812282735004e-03 0.0000000000000000e+00  1.9431796057873113e-16 -2.2173812282734479e-03 0.0000000000000000e+00  2.4679661461220742e-16 -2.2173812282734249e-03 0.0000000000000000e+00  2.5355257093808610e-16 -2.2173812282734258e-03 0.0000000000000000e+00  2.0011632076139507e-16 -2.2173812282733751e-03 0.0000000000000000e+00  1.7713734580667761e-16 -2.2173812282733057e-03 0.0000000000000000e+00  9.2605460308612783e-17 -2.2173812282732450e-03 0.0000000000000000e+00  9.4256220442900685e-34 -2.2173812282732953e-03 0.0000000000000000e+00  -4.2317796629602496e-34 -2.4945538818075420e-03 0.0000000000000000e+00  -1.2042085119752626e-17 -2.4945538818075767e-03 0.0000000000000000e+00  3.8629098396066986e-17 -2.4945538818076408e-03 0.0000000000000000e+00  1.3307681662778928e-16 -2.4945538818076925e-03 0.0000000000000000e+00  2.0950600238702129e-16 -2.4945538818076330e-03 0.0000000000000000e+00  2.6556517695905572e-16 -2.4945538818076009e-03 0.0000000000000000e+00  2.7439922892515648e-16 -2.4945538818076192e-03 0.0000000000000000e+00  2.1826560151890427e-16 -2.4945538818075532e-03 0.0000000000000000e+00  1.9362362633783637e-16 -2.4945538818074639e-03 0.0000000000000000e+00  9.7140343519494547e-17 -2.4945538818074002e-03 0.0000000000000000e+00  -1.3195870862006141e-32 -2.4945538818074505e-03 0.0000000000000000e+00  5.7742649831995511e-34 -2.7717265353417201e-03 0.0000000000000000e+00  -1.6389684913149392e-17 -2.7717265353417505e-03 0.0000000000000000e+00  3.7518995148650323e-17 -2.7717265353418355e-03 0.0000000000000000e+00  1.4048159938112915e-16 -2.7717265353418871e-03 0.0000000000000000e+00  2.2523610303756813e-16 -2.7717265353418208e-03 0.0000000000000000e+00  2.8023915730353241e-16 -2.7717265353417809e-03 0.0000000000000000e+00  2.9001487490368503e-16 -2.7717265353418194e-03 0.0000000000000000e+00  2.3913553409460426e-16 -2.7717265353417331e-03 0.0000000000000000e+00  2.1137657545585880e-16 -2.7717265353416178e-03 0.0000000000000000e+00  9.8939609464745508e-17 -2.7717265353415562e-03 0.0000000000000000e+00  -2.4181598074058470e-34 -2.7717265353416061e-03 0.0000000000000000e+00  -2.5390677977761390e-33 -3.0488991888758974e-03 0.0000000000000000e+00  -2.2791570772996488e-17 -3.0488991888759373e-03 0.0000000000000000e+00  3.2862382275590866e-17 -3.0488991888760501e-03 0.0000000000000000e+00  1.4927607799803005e-16 -3.0488991888760826e-03 0.0000000000000000e+00  2.4096724311063001e-16 -3.0488991888760089e-03 0.0000000000000000e+00  2.9254532184117753e-16 -3.0488991888759590e-03 0.0000000000000000e+00  3.0116643756511901e-16 -3.0488991888760076e-03 0.0000000000000000e+00  2.6024154429183038e-16 -3.0488991888759135e-03 0.0000000000000000e+00  2.2897230727243668e-16 -3.0488991888757816e-03 0.0000000000000000e+00  9.9090635771571646e-17 -3.0488991888757092e-03 0.0000000000000000e+00  3.3854237303681853e-33 -3.0488991888757578e-03 0.0000000000000000e+00  2.5587067254999623e-33 -3.3260718424100739e-03 0.0000000000000000e+00  -3.1955920866675218e-17 -3.3260718424101259e-03 0.0000000000000000e+00  2.9070568936099652e-17 -3.3260718424102617e-03 0.0000000000000000e+00  1.6046242709825018e-16 -3.3260718424102747e-03 0.0000000000000000e+00  2.5687872299027161e-16 -3.3260718424101914e-03 0.0000000000000000e+00  3.0081208244378984e-16 -3.3260718424101428e-03 0.0000000000000000e+00  3.0833846112228389e-16 -3.3260718424101996e-03 0.0000000000000000e+00  2.8072807334406236e-16 -3.3260718424100891e-03 0.0000000000000000e+00  2.4436199704889169e-16 -3.3260718424099459e-03 0.0000000000000000e+00  1.0094581587153232e-16 -3.3260718424098683e-03 0.0000000000000000e+00  -1.0305034542226804e-32 -3.3260718424099056e-03 0.0000000000000000e+00  -1.1284745767893952e-33 -3.6032444959442542e-03 0.0000000000000000e+00  -4.4920859750272809e-17 -3.6032444959443219e-03 0.0000000000000000e+00  2.3549156529472005e-17 -3.6032444959444663e-03 0.0000000000000000e+00  1.7322246584369426e-16 -3.6032444959444624e-03 0.0000000000000000e+00  2.7212923451250421e-16 -3.6032444959443774e-03 0.0000000000000000e+00  3.0613903488313608e-16 -3.6032444959443405e-03 0.0000000000000000e+00  3.1380477594090696e-16 -3.6032444959443796e-03 0.0000000000000000e+00  3.0086435539631679e-16 -3.6032444959442607e-03 0.0000000000000000e+00  2.5732976739844168e-16 -3.6032444959441154e-03 0.0000000000000000e+00  1.0459625096710865e-16 -3.6032444959440187e-03 0.0000000000000000e+00  -1.3715957159340034e-32 -3.6032444959440599e-03 0.0000000000000000e+00  -7.8426832617372465e-33 -3.8804171494784315e-03 0.0000000000000000e+00  -5.8895595883407411e-17 -3.8804171494785174e-03 0.0000000000000000e+00  1.8513857591573587e-17 -3.8804171494786544e-03 0.0000000000000000e+00  1.8812248143101004e-16 -3.8804171494786449e-03 0.0000000000000000e+00  2.8110415602458296e-16 -3.8804171494785647e-03 0.0000000000000000e+00  3.0840461236690659e-16 -3.8804171494785369e-03 0.0000000000000000e+00  3.2237065689780028e-16 -3.8804171494785482e-03 0.0000000000000000e+00  3.1658694354845052e-16 -3.8804171494784315e-03 0.0000000000000000e+00  2.7072255142899158e-16 -3.8804171494782867e-03 0.0000000000000000e+00  1.1023730317091469e-16 -3.8804171494781687e-03 0.0000000000000000e+00  -1.1365351094807477e-32 -3.8804171494782043e-03 0.0000000000000000e+00  -1.1284745767893952e-33 -4.1575898030126110e-03 0.0000000000000000e+00  -7.3155728134495895e-17 -4.1575898030127133e-03 0.0000000000000000e+00  1.3843029072188739e-17 -4.1575898030128426e-03 0.0000000000000000e+00  2.0212993875066652e-16 -4.1575898030128200e-03 0.0000000000000000e+00  2.8622188598525044e-16 -4.1575898030127524e-03 0.0000000000000000e+00  3.1006391441939452e-16 -4.1575898030127342e-03 0.0000000000000000e+00  3.3091886767191682e-16 -4.1575898030127090e-03 0.0000000000000000e+00  3.2904129071824260e-16 -4.1575898030126093e-03 0.0000000000000000e+00  2.8405338525662556e-16 -4.1575898030124566e-03 0.0000000000000000e+00  1.1586065178131693e-16 -4.1575898030123308e-03 0.0000000000000000e+00  1.1284745767893950e-33 -4.1575898030123638e-03 0.0000000000000000e+00  1.0987922502972915e-32 -4.4347624565467970e-03 0.0000000000000000e+00  -8.5952236269160088e-17 -4.4347624565469106e-03 0.0000000000000000e+00  1.1612428352191966e-17 -4.4347624565470251e-03 0.0000000000000000e+00  2.1034139268954464e-16 -4.4347624565470017e-03 0.0000000000000000e+00  2.8629338745738741e-16 -4.4347624565469644e-03 0.0000000000000000e+00  3.1365947988271231e-16 -4.4347624565469271e-03 0.0000000000000000e+00  3.3798123865220944e-16 -4.4347624565468733e-03 0.0000000000000000e+00  3.3984504512805524e-16 -4.4347624565467710e-03 0.0000000000000000e+00  2.9607118839017759e-16 -4.4347624565466252e-03 0.0000000000000000e+00  1.2147694229356534e-16 -4.4347624565464960e-03 0.0000000000000000e+00  -8.7577859507450590e-33 -4.4347624565465307e-03 0.0000000000000000e+00  -1.2413220344683400e-32 -4.7119351100809804e-03 0.0000000000000000e+00  -9.6559230469746480e-17 -4.7119351100811217e-03 0.0000000000000000e+00  1.1791209024996906e-17 -4.7119351100812137e-03 0.0000000000000000e+00  2.1492224395879382e-16 -4.7119351100811937e-03 0.0000000000000000e+00  2.8296881282476453e-16 -4.7119351100811634e-03 0.0000000000000000e+00  3.2110671911796871e-16 -4.7119351100811148e-03 0.0000000000000000e+00  3.4895076948482521e-16 -4.7119351100810237e-03 0.0000000000000000e+00  3.4318586932222128e-16 -4.7119351100809162e-03 0.0000000000000000e+00  3.0714935356898594e-16 -4.7119351100807895e-03 0.0000000000000000e+00  1.2556131738764357e-16 -4.7119351100806568e-03 0.0000000000000000e+00  -3.7801492899813985e-33 -4.7119351100807106e-03 0.0000000000000000e+00  -1.0205069664724076e-32 -4.9891077636151689e-03 0.0000000000000000e+00  -1.0714388828169899e-16 -4.9891077636153251e-03 0.0000000000000000e+00  1.5832483768402084e-17 -4.9891077636154075e-03 0.0000000000000000e+00  2.1601648723184761e-16 -4.9891077636153866e-03 0.0000000000000000e+00  2.7829914220634481e-16 -4.9891077636153615e-03 0.0000000000000000e+00  3.3264535250567935e-16 -4.9891077636152938e-03 0.0000000000000000e+00  3.6430996582209029e-16 -4.9891077636151672e-03 0.0000000000000000e+00  3.4124592671059391e-16 -4.9891077636150484e-03 0.0000000000000000e+00  3.1369383761096110e-16 -4.9891077636149365e-03 0.0000000000000000e+00  1.2581728469683810e-16 -4.9891077636148194e-03 0.0000000000000000e+00  7.6575060567851905e-33 -4.9891077636148879e-03 0.0000000000000000e+00  -1.6927118651840926e-32 -5.2662804171493688e-03 0.0000000000000000e+00  -1.1759884927346427e-16 -5.2662804171495136e-03 0.0000000000000000e+00  2.2617833954860133e-17 -5.2662804171496142e-03 0.0000000000000000e+00  2.1397227194764126e-16 -5.2662804171495752e-03 0.0000000000000000e+00  2.7128096137623398e-16 -5.2662804171495579e-03 0.0000000000000000e+00  3.5144683617129490e-16 -5.2662804171494633e-03 0.0000000000000000e+00  3.7944741507406709e-16 -5.2662804171493202e-03 0.0000000000000000e+00  3.3641002757063285e-16 -5.2662804171491745e-03 0.0000000000000000e+00  3.1558530671134215e-16 -5.2662804171490730e-03 0.0000000000000000e+00  1.1817444962289837e-16 -5.2662804171489785e-03 0.0000000000000000e+00  -1.2413220344683345e-32 -5.2662804171490678e-03 0.0000000000000000e+00  -9.4669038821835626e-33 -5.5434530706835791e-03 0.0000000000000000e+00  -1.2499572586787947e-16 -5.5434530706836901e-03 0.0000000000000000e+00  2.9270138059230638e-17 -5.5434530706838210e-03 0.0000000000000000e+00  2.0874173154338804e-16 -5.5434530706837820e-03 0.0000000000000000e+00  2.6587804313646452e-16 -5.5434530706837482e-03 0.0000000000000000e+00  3.7137816092224764e-16 -5.5434530706836233e-03 0.0000000000000000e+00  3.9571787418553271e-16 -5.5434530706834828e-03 0.0000000000000000e+00  3.3260502312324681e-16 -5.5434530706833206e-03 0.0000000000000000e+00  3.0893092376193769e-16 -5.5434530706832182e-03 0.0000000000000000e+00  1.1005400564009543e-16 -5.5434530706831480e-03 0.0000000000000000e+00  2.3074883424274149e-32 -5.5434530706832382e-03 0.0000000000000000e+00  -1.5798644075051558e-32 -5.8206257242177824e-03 0.0000000000000000e+00  -1.2987641845706122e-16 -5.8206257242178787e-03 0.0000000000000000e+00  2.9602753264449241e-17 -5.8206257242180088e-03 0.0000000000000000e+00  2.0685435952532410e-16 -5.8206257242179897e-03 0.0000000000000000e+00  2.6103641305550323e-16 -5.8206257242179212e-03 0.0000000000000000e+00  3.8897936643104296e-16 -5.8206257242177884e-03 0.0000000000000000e+00  4.1585216032446850e-16 -5.8206257242176618e-03 0.0000000000000000e+00  3.2679242524608135e-16 -5.8206257242174788e-03 0.0000000000000000e+00  2.9918302451228128e-16 -5.8206257242173747e-03 0.0000000000000000e+00  9.7525355862019929e-17 -5.8206257242173287e-03 0.0000000000000000e+00  -3.8672774588909394e-32 -5.8206257242174042e-03 0.0000000000000000e+00  -6.7227728654964010e-33 -6.0977983777519978e-03 0.0000000000000000e+00  -1.3606156144214884e-16 -6.0977983777520551e-03 0.0000000000000000e+00  2.7806808355178818e-17 -6.0977983777522095e-03 0.0000000000000000e+00  2.1006348184823414e-16 -6.0977983777521956e-03 0.0000000000000000e+00  2.5816587952279399e-16 -6.0977983777520794e-03 0.0000000000000000e+00  4.0627372261100068e-16 -6.0977983777519545e-03 0.0000000000000000e+00  4.3033755251173554e-16 -6.0977983777518244e-03 0.0000000000000000e+00  3.2004112196065443e-16 -6.0977983777516847e-03 0.0000000000000000e+00  2.9111305631389517e-16 -6.0977983777515355e-03 0.0000000000000000e+00  8.1555615142694819e-17 -6.0977983777514887e-03 0.0000000000000000e+00  1.0760811142956016e-32 -6.0977983777515772e-03 0.0000000000000000e+00  1.3541694921472741e-32 -6.3749710312862150e-03 0.0000000000000000e+00  -1.4083228842127660e-16 -6.3749710312862489e-03 0.0000000000000000e+00  2.0888234887723726e-17 -6.3749710312864145e-03 0.0000000000000000e+00  2.1465784830437360e-16 -6.3749710312864050e-03 0.0000000000000000e+00  2.6165844536560407e-16 -6.3749710312862515e-03 0.0000000000000000e+00  4.2323979198859916e-16 -6.3749710312861344e-03 0.0000000000000000e+00  4.3673727694464327e-16 -6.3749710312860095e-03 0.0000000000000000e+00  3.1282062248891612e-16 -6.3749710312858924e-03 0.0000000000000000e+00  2.8498470783123716e-16 -6.3749710312857007e-03 0.0000000000000000e+00  6.3505208020541463e-17 -6.3749710312856556e-03 0.0000000000000000e+00  7.3350847491310672e-33 -6.3749710312857397e-03 0.0000000000000000e+00  9.3264714765542431e-33 -6.6521436848204227e-03 0.0000000000000000e+00  -1.4640794261444000e-16 -6.6521436848204531e-03 0.0000000000000000e+00  1.2271422227531192e-17 -6.6521436848206300e-03 0.0000000000000000e+00  2.2148732820910831e-16 -6.6521436848206179e-03 0.0000000000000000e+00  2.6689044066734941e-16 -6.6521436848203984e-03 0.0000000000000000e+00  4.3990438644031517e-16 -6.6521436848203100e-03 0.0000000000000000e+00  4.3580803266051725e-16 -6.6521436848202119e-03 0.0000000000000000e+00  3.0547723699847181e-16 -6.6521436848201027e-03 0.0000000000000000e+00  2.7688240931661708e-16 -6.6521436848198754e-03 0.0000000000000000e+00  4.8356487347025020e-17 -6.6521436848198138e-03 0.0000000000000000e+00  -3.4050373226358119e-33 -6.6521436848199110e-03 0.0000000000000000e+00  -2.2569491535787903e-33 -6.9293163383546260e-03 0.0000000000000000e+00  -1.5035069999108246e-16 -6.9293163383546599e-03 0.0000000000000000e+00  2.9791120068329492e-18 -6.9293163383548108e-03 0.0000000000000000e+00  2.2751715808761427e-16 -6.9293163383548290e-03 0.0000000000000000e+00  2.7435349