<?xml version="1.0"?>
<VTKFile type="UnstructuredGrid"  version="0.1"  >
<UnstructuredGrid>
<Piece  NumberOfPoints="1661" NumberOfCells="3200">
<Points>
<DataArray  type="Float64"  NumberOfComponents="3"  format="ascii">-0.25 -1 0  -0.225 -1 0  -0.2 -1 0  -0.175 -1 0  -0.15 -1 0  -0.125 -1 0  -0.1 -1 0  -0.07500000000000001 -1 0  -0.04999999999999999 -1 0  -0.02499999999999999 -1 0  0 -1 0  0.02500000000000002 -1 0  0.04999999999999999 -1 0  0.07500000000000001 -1 0  0.09999999999999998 -1 0  0.125 -1 0  0.15 -1 0  0.175 -1 0  0.2 -1 0  0.225 -1 0  0.25 -1 0  -0.25 -0.975 0  -0.225 -0.975 0  -0.2 -0.975 0  -0.175 -0.975 0  -0.15 -0.975 0  -0.125 -0.975 0  -0.1 -0.975 0  -0.07500000000000001 -0.975 0  -0.04999999999999999 -0.975 0  -0.02499999999999999 -0.975 0  0 -0.975 0  0.02500000000000002 -0.975 0  0.04999999999999999 -0.975 0  0.07500000000000001 -0.975 0  0.09999999999999998 -0.975 0  0.125 -0.975 0  0.15 -0.975 0  0.175 -0.975 0  0.2 -0.975 0  0.225 -0.975 0  0.25 -0.975 0  -0.25 -0.95 0  -0.225 -0.95 0  -0.2 -0.95 0  -0.175 -0.95 0  -0.15 -0.95 0  -0.125 -0.95 0  -0.1 -0.95 0  -0.07500000000000001 -0.95 0  -0.04999999999999999 -0.95 0  -0.02499999999999999 -0.95 0  0 -0.95 0  0.02500000000000002 -0.95 0  0.04999999999999999 -0.95 0  0.07500000000000001 -0.95 0  0.09999999999999998 -0.95 0  0.125 -0.95 0  0.15 -0.95 0  0.175 -0.95 0  0.2 -0.95 0  0.225 -0.95 0  0.25 -0.95 0  -0.25 -0.925 0  -0.225 -0.925 0  -0.2 -0.925 0  -0.175 -0.925 0  -0.15 -0.925 0  -0.125 -0.925 0  -0.1 -0.925 0  -0.07500000000000001 -0.925 0  -0.04999999999999999 -0.925 0  -0.02499999999999999 -0.925 0  0 -0.925 0  0.02500000000000002 -0.925 0  0.04999999999999999 -0.925 0  0.07500000000000001 -0.925 0  0.09999999999999998 -0.925 0  0.125 -0.925 0  0.15 -0.925 0  0.175 -0.925 0  0.2 -0.925 0  0.225 -0.925 0  0.25 -0.925 0  -0.25 -0.9 0  -0.225 -0.9 0  -0.2 -0.9 0  -0.175 -0.9 0  -0.15 -0.9 0  -0.125 -0.9 0  -0.1 -0.9 0  -0.07500000000000001 -0.9 0  -0.04999999999999999 -0.9 0  -0.02499999999999999 -0.9 0  0 -0.9 0  0.02500000000000002 -0.9 0  0.04999999999999999 -0.9 0  0.07500000000000001 -0.9 0  0.09999999999999998 -0.9 0  0.125 -0.9 0  0.15 -0.9 0  0.175 -0.9 0  0.2 -0.9 0  0.225 -0.9 0  0.25 -0.9 0  -0.25 -0.875 0  -0.225 -0.875 0  -0.2 -0.875 0  -0.175 -0.875 0  -0.15 -0.875 0  -0.125 -0.875 0  -0.1 -0.875 0  -0.07500000000000001 -0.875 0  -0.04999999999999999 -0.875 0  -0.02499999999999999 -0.875 0  0 -0.875 0  0.02500000000000002 -0.875 0  0.04999999999999999 -0.875 0  0.07500000000000001 -0.875 0  0.09999999999999998 -0.875 0  0.125 -0.875 0  0.15 -0.875 0  0.175 -0.875 0  0.2 -0.875 0  0.225 -0.875 0  0.25 -0.875 0  -0.25 -0.85 0  -0.225 -0.85 0  -0.2 -0.85 0  -0.175 -0.85 0  -0.15 -0.85 0  -0.125 -0.85 0  -0.1 -0.85 0  -0.07500000000000001 -0.85 0  -0.04999999999999999 -0.85 0  -0.02499999999999999 -0.85 0  0 -0.85 0  0.02500000000000002 -0.85 0  0.04999999999999999 -0.85 0  0.07500000000000001 -0.85 0  0.09999999999999998 -0.85 0  0.125 -0.85 0  0.15 -0.85 0  0.175 -0.85 0  0.2 -0.85 0  0.225 -0.85 0  0.25 -0.85 0  -0.25 -0.825 0  -0.225 -0.825 0  -0.2 -0.825 0  -0.175 -0.825 0  -0.15 -0.825 0  -0.125 -0.825 0  -0.1 -0.825 0  -0.07500000000000001 -0.825 0  -0.04999999999999999 -0.825 0  -0.02499999999999999 -0.825 0  0 -0.825 0  0.02500000000000002 -0.825 0  0.04999999999999999 -0.825 0  0.07500000000000001 -0.825 0  0.09999999999999998 -0.825 0  0.125 -0.825 0  0.15 -0.825 0  0.175 -0.825 0  0.2 -0.825 0  0.225 -0.825 0  0.25 -0.825 0  -0.25 -0.8 0  -0.225 -0.8 0  -0.2 -0.8 0  -0.175 -0.8 0  -0.15 -0.8 0  -0.125 -0.8 0  -0.1 -0.8 0  -0.07500000000000001 -0.8 0  -0.04999999999999999 -0.8 0  -0.02499999999999999 -0.8 0  0 -0.8 0  0.02500000000000002 -0.8 0  0.04999999999999999 -0.8 0  0.07500000000000001 -0.8 0  0.09999999999999998 -0.8 0  0.125 -0.8 0  0.15 -0.8 0  0.175 -0.8 0  0.2 -0.8 0  0.225 -0.8 0  0.25 -0.8 0  -0.25 -0.775 0  -0.225 -0.775 0  -0.2 -0.775 0  -0.175 -0.775 0  -0.15 -0.775 0  -0.125 -0.775 0  -0.1 -0.775 0  -0.07500000000000001 -0.775 0  -0.04999999999999999 -0.775 0  -0.02499999999999999 -0.775 0  0 -0.775 0  0.02500000000000002 -0.775 0  0.04999999999999999 -0.775 0  0.07500000000000001 -0.775 0  0.09999999999999998 -0.775 0  0.125 -0.775 0  0.15 -0.775 0  0.175 -0.775 0  0.2 -0.775 0  0.225 -0.775 0  0.25 -0.775 0  -0.25 -0.75 0  -0.225 -0.75 0  -0.2 -0.75 0  -0.175 -0.75 0  -0.15 -0.75 0  -0.125 -0.75 0  -0.1 -0.75 0  -0.07500000000000001 -0.75 0  -0.04999999999999999 -0.75 0  -0.02499999999999999 -0.75 0  0 -0.75 0  0.02500000000000002 -0.75 0  0.04999999999999999 -0.75 0  0.07500000000000001 -0.75 0  0.09999999999999998 -0.75 0  0.125 -0.75 0  0.15 -0.75 0  0.175 -0.75 0  0.2 -0.75 0  0.225 -0.75 0  0.25 -0.75 0  -0.25 -0.725 0  -0.225 -0.725 0  -0.2 -0.725 0  -0.175 -0.725 0  -0.15 -0.725 0  -0.125 -0.725 0  -0.1 -0.725 0  -0.07500000000000001 -0.725 0  -0.04999999999999999 -0.725 0  -0.02499999999999999 -0.725 0  0 -0.725 0  0.02500000000000002 -0.725 0  0.04999999999999999 -0.725 0  0.07500000000000001 -0.725 0  0.09999999999999998 -0.725 0  0.125 -0.725 0  0.15 -0.725 0  0.175 -0.725 0  0.2 -0.725 0  0.225 -0.725 0  0.25 -0.725 0  -0.25 -0.7 0  -0.225 -0.7 0  -0.2 -0.7 0  -0.175 -0.7 0  -0.15 -0.7 0  -0.125 -0.7 0  -0.1 -0.7 0  -0.07500000000000001 -0.7 0  -0.04999999999999999 -0.7 0  -0.02499999999999999 -0.7 0  0 -0.7 0  0.02500000000000002 -0.7 0  0.04999999999999999 -0.7 0  0.07500000000000001 -0.7 0  0.09999999999999998 -0.7 0  0.125 -0.7 0  0.15 -0.7 0  0.175 -0.7 0  0.2 -0.7 0  0.225 -0.7 0  0.25 -0.7 0  -0.25 -0.675 0  -0.225 -0.675 0  -0.2 -0.675 0  -0.175 -0.675 0  -0.15 -0.675 0  -0.125 -0.675 0  -0.1 -0.675 0  -0.07500000000000001 -0.675 0  -0.04999999999999999 -0.675 0  -0.02499999999999999 -0.675 0  0 -0.675 0  0.02500000000000002 -0.675 0  0.04999999999999999 -0.675 0  0.07500000000000001 -0.675 0  0.09999999999999998 -0.675 0  0.125 -0.675 0  0.15 -0.675 0  0.175 -0.675 0  0.2 -0.675 0  0.225 -0.675 0  0.25 -0.675 0  -0.25 -0.65 0  -0.225 -0.65 0  -0.2 -0.65 0  -0.175 -0.65 0  -0.15 -0.65 0  -0.125 -0.65 0  -0.1 -0.65 0  -0.07500000000000001 -0.65 0  -0.04999999999999999 -0.65 0  -0.02499999999999999 -0.65 0  0 -0.65 0  0.02500000000000002 -0.65 0  0.04999999999999999 -0.65 0  0.07500000000000001 -0.65 0  0.09999999999999998 -0.65 0  0.125 -0.65 0  0.15 -0.65 0  0.175 -0.65 0  0.2 -0.65 0  0.225 -0.65 0  0.25 -0.65 0  -0.25 -0.625 0  -0.225 -0.625 0  -0.2 -0.625 0  -0.175 -0.625 0  -0.15 -0.625 0  -0.125 -0.625 0  -0.1 -0.625 0  -0.07500000000000001 -0.625 0  -0.04999999999999999 -0.625 0  -0.02499999999999999 -0.625 0  0 -0.625 0  0.02500000000000002 -0.625 0  0.04999999999999999 -0.625 0  0.07500000000000001 -0.625 0  0.09999999999999998 -0.625 0  0.125 -0.625 0  0.15 -0.625 0  0.175 -0.625 0  0.2 -0.625 0  0.225 -0.625 0  0.25 -0.625 0  -0.25 -0.6 0  -0.225 -0.6 0  -0.2 -0.6 0  -0.175 -0.6 0  -0.15 -0.6 0  -0.125 -0.6 0  -0.1 -0.6 0  -0.07500000000000001 -0.6 0  -0.04999999999999999 -0.6 0  -0.02499999999999999 -0.6 0  0 -0.6 0  0.02500000000000002 -0.6 0  0.04999999999999999 -0.6 0  0.07500000000000001 -0.6 0  0.09999999999999998 -0.6 0  0.125 -0.6 0  0.15 -0.6 0  0.175 -0.6 0  0.2 -0.6 0  0.225 -0.6 0  0.25 -0.6 0  -0.25 -0.575 0  -0.225 -0.575 0  -0.2 -0.575 0  -0.175 -0.575 0  -0.15 -0.575 0  -0.125 -0.575 0  -0.1 -0.575 0  -0.07500000000000001 -0.575 0  -0.04999999999999999 -0.575 0  -0.02499999999999999 -0.575 0  0 -0.575 0  0.02500000000000002 -0.575 0  0.04999999999999999 -0.575 0  0.07500000000000001 -0.575 0  0.09999999999999998 -0.575 0  0.125 -0.575 0  0.15 -0.575 0  0.175 -0.575 0  0.2 -0.575 0  0.225 -0.575 0  0.25 -0.575 0  -0.25 -0.55 0  -0.225 -0.55 0  -0.2 -0.55 0  -0.175 -0.55 0  -0.15 -0.55 0  -0.125 -0.55 0  -0.1 -0.55 0  -0.07500000000000001 -0.55 0  -0.04999999999999999 -0.55 0  -0.02499999999999999 -0.55 0  0 -0.55 0  0.02500000000000002 -0.55 0  0.04999999999999999 -0.55 0  0.07500000000000001 -0.55 0  0.09999999999999998 -0.55 0  0.125 -0.55 0  0.15 -0.55 0  0.175 -0.55 0  0.2 -0.55 0  0.225 -0.55 0  0.25 -0.55 0  -0.25 -0.525 0  -0.225 -0.525 0  -0.2 -0.525 0  -0.175 -0.525 0  -0.15 -0.525 0  -0.125 -0.525 0  -0.1 -0.525 0  -0.07500000000000001 -0.525 0  -0.04999999999999999 -0.525 0  -0.02499999999999999 -0.525 0  0 -0.525 0  0.02500000000000002 -0.525 0  0.04999999999999999 -0.525 0  0.07500000000000001 -0.525 0  0.09999999999999998 -0.525 0  0.125 -0.525 0  0.15 -0.525 0  0.175 -0.525 0  0.2 -0.525 0  0.225 -0.525 0  0.25 -0.525 0  -0.25 -0.5 0  -0.225 -0.5 0  -0.2 -0.5 0  -0.175 -0.5 0  -0.15 -0.5 0  -0.125 -0.5 0  -0.1 -0.5 0  -0.07500000000000001 -0.5 0  -0.04999999999999999 -0.5 0  -0.02499999999999999 -0.5 0  0 -0.5 0  0.02500000000000002 -0.5 0  0.04999999999999999 -0.5 0  0.07500000000000001 -0.5 0  0.09999999999999998 -0.5 0  0.125 -0.5 0  0.15 -0.5 0  0.175 -0.5 0  0.2 -0.5 0  0.225 -0.5 0  0.25 -0.5 0  -0.25 -0.475 0  -0.225 -0.475 0  -0.2 -0.475 0  -0.175 -0.475 0  -0.15 -0.475 0  -0.125 -0.475 0  -0.1 -0.475 0  -0.07500000000000001 -0.475 0  -0.04999999999999999 -0.475 0  -0.02499999999999999 -0.475 0  0 -0.475 0  0.02500000000000002 -0.475 0  0.04999999999999999 -0.475 0  0.07500000000000001 -0.475 0  0.09999999999999998 -0.475 0  0.125 -0.475 0  0.15 -0.475 0  0.175 -0.475 0  0.2 -0.475 0  0.225 -0.475 0  0.25 -0.475 0  -0.25 -0.45 0  -0.225 -0.45 0  -0.2 -0.45 0  -0.175 -0.45 0  -0.15 -0.45 0  -0.125 -0.45 0  -0.1 -0.45 0  -0.07500000000000001 -0.45 0  -0.04999999999999999 -0.45 0  -0.02499999999999999 -0.45 0  0 -0.45 0  0.02500000000000002 -0.45 0  0.04999999999999999 -0.45 0  0.07500000000000001 -0.45 0  0.09999999999999998 -0.45 0  0.125 -0.45 0  0.15 -0.45 0  0.175 -0.45 0  0.2 -0.45 0  0.225 -0.45 0  0.25 -0.45 0  -0.25 -0.425 0  -0.225 -0.425 0  -0.2 -0.425 0  -0.175 -0.425 0  -0.15 -0.425 0  -0.125 -0.425 0  -0.1 -0.425 0  -0.07500000000000001 -0.425 0  -0.04999999999999999 -0.425 0  -0.02499999999999999 -0.425 0  0 -0.425 0  0.02500000000000002 -0.425 0  0.04999999999999999 -0.425 0  0.07500000000000001 -0.425 0  0.
[...]
<PointData  Vectors="displacement"> 
<DataArray  type="Float64"  Name="displacement"  NumberOfComponents="3" format="ascii">-4.5138983071575895e-33 3.8116482626443559e-19 0.0000000000000000e+00  1.8055593228630363e-33 3.1763735522036311e-19 0.0000000000000000e+00  7.0811779693534695e-33 3.6280141666575842e-19 0.0000000000000000e+00  7.2222372914521440e-33 -2.8587361969832675e-19 0.0000000000000000e+00  -1.0900530463524316e-32 -1.5892809808934004e-19 0.0000000000000000e+00  -1.4444474582904288e-32 3.8116482626443563e-19 0.0000000000000000e+00  -1.3031858111142812e-32 -2.1227572956740040e-20 0.0000000000000000e+00  2.1666711874356431e-32 -3.1763735522036305e-20 0.0000000000000000e+00  -1.5033153265405344e-32 9.7133022550944402e-20 0.0000000000000000e+00  5.0555661040165029e-32 -1.2705494208814527e-19 0.0000000000000000e+00  -1.1420366440520520e-31 3.5731230105808691e-19 0.0000000000000000e+00  7.2222372914521498e-32 3.8116482626443592e-19 0.0000000000000000e+00  7.1647313209359296e-33 -5.7258626051207771e-19 0.0000000000000000e+00  5.7777898331617130e-32 5.7174723939665331e-19 0.0000000000000000e+00  -1.1156158280145415e-32 -1.6277009639230990e-19 0.0000000000000000e+00  7.5833491560247445e-32 3.1763735522036272e-19 0.0000000000000000e+00  -3.6686261443152697e-33 3.1679831181011492e-19 0.0000000000000000e+00  -1.2638915260041249e-32 -1.2705494208814520e-19 0.0000000000000000e+00  2.1723366116782252e-32 8.0203432193141640e-19 0.0000000000000000e+00  -3.6111186457260748e-33 -2.5410988417629063e-19 0.0000000000000000e+00  7.2222372914521386e-33 1.0164395367051610e-18 0.0000000000000000e+00  7.2222372914521262e-33 -2.5637949216903481e-03 0.0000000000000000e+00  -6.3614348330761689e-17 -2.5637949216903446e-03 0.0000000000000000e+00  -1.2853992318990472e-16 -2.5637949216903385e-03 0.0000000000000000e+00  -1.8842068068210829e-16 -2.5637949216903342e-03 0.0000000000000000e+00  -2.4225076215917176e-16 -2.5637949216903316e-03 0.0000000000000000e+00  -2.9285963953472422e-16 -2.5637949216903346e-03 0.0000000000000000e+00  -3.4277168354795654e-16 -2.5637949216903285e-03 0.0000000000000000e+00  -3.8429350871849836e-16 -2.5637949216903238e-03 0.0000000000000000e+00  -4.1464229886429623e-16 -2.5637949216903246e-03 0.0000000000000000e+00  -4.3591775936708432e-16 -2.5637949216903225e-03 0.0000000000000000e+00  -4.4400586144118502e-16 -2.5637949216903190e-03 0.0000000000000000e+00  -4.3540051493034042e-16 -2.5637949216903242e-03 0.0000000000000000e+00  -4.1654737776633770e-16 -2.5637949216903268e-03 0.0000000000000000e+00  -3.8410621075461466e-16 -2.5637949216903264e-03 0.0000000000000000e+00  -3.4689372316852991e-16 -2.5637949216903225e-03 0.0000000000000000e+00  -2.9496394476579340e-16 -2.5637949216903238e-03 0.0000000000000000e+00  -2.3920193452769228e-16 -2.5637949216903251e-03 0.0000000000000000e+00  -1.8138159936040258e-16 -2.5637949216903268e-03 0.0000000000000000e+00  -1.2052908014333834e-16 -2.5637949216903316e-03 0.0000000000000000e+00  -6.1505952363239525e-17 -2.5637949216903316e-03 0.0000000000000000e+00  -9.5184185689896039e-33 -2.5637949216903320e-03 0.0000000000000000e+00  -9.1068594774553466e-33 -5.1368236215338717e-03 0.0000000000000000e+00  -1.1699848642461429e-16 -5.1368236215338665e-03 0.0000000000000000e+00  -2.3305844118911386e-16 -5.1368236215338587e-03 0.0000000000000000e+00  -3.3900141714586947e-16 -5.1368236215338561e-03 0.0000000000000000e+00  -4.4240419559704187e-16 -5.1368236215338509e-03 0.0000000000000000e+00  -5.3480561843024678e-16 -5.1368236215338491e-03 0.0000000000000000e+00  -6.1990432421754690e-16 -5.1368236215338474e-03 0.0000000000000000e+00  -6.9173312320078038e-16 -5.1368236215338439e-03 0.0000000000000000e+00  -7.4710411748388051e-16 -5.1368236215338543e-03 0.0000000000000000e+00  -7.8960587545951165e-16 -5.1368236215338604e-03 0.0000000000000000e+00  -8.0447976607128795e-16 -5.1368236215338561e-03 0.0000000000000000e+00  -7.8917738981400732e-16 -5.1368236215338717e-03 0.0000000000000000e+00  -7.5371333095421894e-16 -5.1368236215338882e-03 0.0000000000000000e+00  -6.9394210741046193e-16 -5.1368236215338951e-03 0.0000000000000000e+00  -6.2039518033599219e-16 -5.1368236215338925e-03 0.0000000000000000e+00  -5.3177500011841911e-16 -5.1368236215338977e-03 0.0000000000000000e+00  -4.3336572657627086e-16 -5.1368236215339038e-03 0.0000000000000000e+00  -3.3075231412585951e-16 -5.1368236215339116e-03 0.0000000000000000e+00  -2.1987528140137084e-16 -5.1368236215339176e-03 0.0000000000000000e+00  -1.1098636527799046e-16 -5.1368236215339255e-03 0.0000000000000000e+00  1.7023845044137171e-32 -5.1368236215339211e-03 0.0000000000000000e+00  2.3472271197219437e-32 -7.7284496181238707e-03 0.0000000000000000e+00  -1.6409029733506907e-16 -7.7284496181238655e-03 0.0000000000000000e+00  -3.1745712342781561e-16 -7.7284496181238647e-03 0.0000000000000000e+00  -4.6245155055804500e-16 -7.7284496181238551e-03 0.0000000000000000e+00  -6.0313946722607650e-16 -7.7284496181238569e-03 0.0000000000000000e+00  -7.3312083574416396e-16 -7.7284496181238534e-03 0.0000000000000000e+00  -8.4836834239820945e-16 -7.7284496181238499e-03 0.0000000000000000e+00  -9.4188342504604680e-16 -7.7284496181238690e-03 0.0000000000000000e+00  -1.0197067499799065e-15 -7.7284496181238760e-03 0.0000000000000000e+00  -1.0731808295042822e-15 -7.7284496181238976e-03 0.0000000000000000e+00  -1.0936909401727673e-15 -7.7284496181239237e-03 0.0000000000000000e+00  -1.0752182781459998e-15 -7.7284496181239514e-03 0.0000000000000000e+00  -1.0251117470645029e-15 -7.7284496181239766e-03 0.0000000000000000e+00  -9.4613745682705322e-16 -7.7284496181240035e-03 0.0000000000000000e+00  -8.4516787621308148e-16 -7.7284496181239956e-03 0.0000000000000000e+00  -7.2688629083084570e-16 -7.7284496181240191e-03 0.0000000000000000e+00  -5.9173908082158325e-16 -7.7284496181240277e-03 0.0000000000000000e+00  -4.5133076905648857e-16 -7.7284496181240399e-03 0.0000000000000000e+00  -3.0527423533798963e-16 -7.7284496181240529e-03 0.0000000000000000e+00  -1.5532221182524913e-16 -7.7284496181240616e-03 0.0000000000000000e+00  1.4444474582904263e-32 -7.7284496181240590e-03 0.0000000000000000e+00  -1.5281132687102016e-32 -1.0348295777097666e-02 0.0000000000000000e+00  -1.9388482252280079e-16 -1.0348295777097678e-02 0.0000000000000000e+00  -3.8390326133897985e-16 -1.0348295777097687e-02 0.0000000000000000e+00  -5.6455870173241998e-16 -1.0348295777097677e-02 0.0000000000000000e+00  -7.4080890041474372e-16 -1.0348295777097673e-02 0.0000000000000000e+00  -8.9658091639280443e-16 -1.0348295777097689e-02 0.0000000000000000e+00  -1.0308410439741710e-15 -1.0348295777097682e-02 0.0000000000000000e+00  -1.1488588895862467e-15 -1.0348295777097711e-02 0.0000000000000000e+00  -1.2368795328389759e-15 -1.0348295777097746e-02 0.0000000000000000e+00  -1.3017976472545729e-15 -1.0348295777097762e-02 0.0000000000000000e+00  -1.3295956222208801e-15 -1.0348295777097815e-02 0.0000000000000000e+00  -1.3089995452871720e-15 -1.0348295777097867e-02 0.0000000000000000e+00  -1.2496893759294690e-15 -1.0348295777097907e-02 0.0000000000000000e+00  -1.1569983083175005e-15 -1.0348295777097949e-02 0.0000000000000000e+00  -1.0393235866267074e-15 -1.0348295777097965e-02 0.0000000000000000e+00  -8.8557331268296259e-16 -1.0348295777097999e-02 0.0000000000000000e+00  -7.2372859571713263e-16 -1.0348295777098017e-02 0.0000000000000000e+00  -5.5257162535993625e-16 -1.0348295777098030e-02 0.0000000000000000e+00  -3.7087151459508457e-16 -1.0348295777098051e-02 0.0000000000000000e+00  -1.8832519574811099e-16 -1.0348295777098058e-02 0.0000000000000000e+00  3.1981643316366090e-32 -1.0348295777098056e-02 0.0000000000000000e+00  4.3333423748712856e-32 -1.3006373607275369e-02 0.0000000000000000e+00  -2.2182020366952895e-16 -1.3006373607275383e-02 0.0000000000000000e+00  -4.4256116128672939e-16 -1.3006373607275362e-02 0.0000000000000000e+00  -6.4967987022789320e-16 -1.3006373607275377e-02 0.0000000000000000e+00  -8.4677386825824979e-16 -1.3006373607275391e-02 0.0000000000000000e+00  -1.0272204649266997e-15 -1.3006373607275409e-02 0.0000000000000000e+00  -1.1858955236757152e-15 -1.3006373607275416e-02 0.0000000000000000e+00  -1.3136804876164682e-15 -1.3006373607275433e-02 0.0000000000000000e+00  -1.4163218584958168e-15 -1.3006373607275469e-02 0.0000000000000000e+00  -1.4832221161470632e-15 -1.3006373607275544e-02 0.0000000000000000e+00  -1.5111989692294071e-15 -1.3006373607275589e-02 0.0000000000000000e+00  -1.4907937184729032e-15 -1.3006373607275683e-02 0.0000000000000000e+00  -1.4257356422117985e-15 -1.3006373607275738e-02 0.0000000000000000e+00  -1.3186092123266410e-15 -1.3006373607275806e-02 0.0000000000000000e+00  -1.1783136535012127e-15 -1.3006373607275858e-02 0.0000000000000000e+00  -1.0165680743518800e-15 -1.3006373607275875e-02 0.0000000000000000e+00  -8.3495770460604245e-16 -1.3006373607275905e-02 0.0000000000000000e+00  -6.3362882167107149e-16 -1.3006373607275936e-02 0.0000000000000000e+00  -4.2497803014590280e-16 -1.3006373607275962e-02 0.0000000000000000e+00  -2.1230373922329030e-16 -1.3006373607275966e-02 0.0000000000000000e+00  5.7813603972523335e-32 -1.3006373607275997e-02 0.0000000000000000e+00  -2.8888949165808505e-32 -1.5713211984604014e-02 0.0000000000000000e+00  -2.4854314348335773e-16 -1.5713211984604007e-02 0.0000000000000000e+00  -4.8850363650579691e-16 -1.5713211984604000e-02 0.0000000000000000e+00  -7.1268169506188206e-16 -1.5713211984604018e-02 0.0000000000000000e+00  -9.2953788611612882e-16 -1.5713211984604038e-02 0.0000000000000000e+00  -1.1293507057805950e-15 -1.5713211984604056e-02 0.0000000000000000e+00  -1.3084416942390274e-15 -1.5713211984604090e-02 0.0000000000000000e+00  -1.4531875161645120e-15 -1.5713211984604122e-02 0.0000000000000000e+00  -1.5590173590809050e-15 -1.5713211984604184e-02 0.0000000000000000e+00  -1.6279851218803501e-15 -1.5713211984604257e-02 0.0000000000000000e+00  -1.6561896193557610e-15 -1.5713211984604333e-02 0.0000000000000000e+00  -1.6375638385685109e-15 -1.5713211984604462e-02 0.0000000000000000e+00  -1.5641475767314765e-15 -1.5713211984604517e-02 0.0000000000000000e+00  -1.4509174173889838e-15 -1.5713211984604642e-02 0.0000000000000000e+00  -1.3031287510110286e-15 -1.5713211984604670e-02 0.0000000000000000e+00  -1.1209946938524768e-15 -1.5713211984604725e-02 0.0000000000000000e+00  -9.2007258587696987e-16 -1.5713211984604764e-02 0.0000000000000000e+00  -7.0312900148625332e-16 -1.5713211984604802e-02 0.0000000000000000e+00  -4.7091676864521162e-16 -1.5713211984604829e-02 0.0000000000000000e+00  -2.3784469744409227e-16 -1.5713211984604854e-02 0.0000000000000000e+00  1.0317481844931598e-32 -1.5713211984604861e-02 0.0000000000000000e+00  2.8888949165808538e-32 -1.8479984915793071e-02 0.0000000000000000e+00  -2.6464222232885992e-16 -1.8479984915793082e-02 0.0000000000000000e+00  -5.2034756831174478e-16 -1.8479984915793082e-02 0.0000000000000000e+00  -7.6550556100566029e-16 -1.8479984915793085e-02 0.0000000000000000e+00  -1.0012502422733526e-15 -1.8479984915793137e-02 0.0000000000000000e+00  -1.2156947794557903e-15 -1.8479984915793137e-02 0.0000000000000000e+00  -1.4057316417617613e-15 -1.8479984915793200e-02 0.0000000000000000e+00  -1.5636787337071850e-15 -1.8479984915793248e-02 0.0000000000000000e+00  -1.6807378934260134e-15 -1.8479984915793321e-02 0.0000000000000000e+00  -1.7554907552600444e-15 -1.8479984915793422e-02 0.0000000000000000e+00  -1.7826823783684309e-15 -1.8479984915793533e-02 0.0000000000000000e+00  -1.7555318650902648e-15 -1.8479984915793647e-02 0.0000000000000000e+00  -1.6833322920266188e-15 -1.8479984915793769e-02 0.0000000000000000e+00  -1.5605356213318673e-15 -1.8479984915793869e-02 0.0000000000000000e+00  -1.3988672954643228e-15 -1.8479984915793956e-02 0.0000000000000000e+00  -1.2052272201430341e-15 -1.8479984915794011e-02 0.0000000000000000e+00  -9.8857396677263148e-16 -1.8479984915794084e-02 0.0000000000000000e+00  -7.5783794893909083e-16 -1.8479984915794116e-02 0.0000000000000000e+00  -5.0742112630188532e-16 -1.8479984915794161e-02 0.0000000000000000e+00  -2.5215756198716383e-16 -1.8479984915794202e-02 0.0000000000000000e+00  5.7777898331617054e-32 -1.8479984915794188e-02 0.0000000000000000e+00  0.0000000000000000e+00 -2.1318637787523808e-02 0.0000000000000000e+00  -2.7850788155066250e-16 -2.1318637787523832e-02 0.0000000000000000e+00  -5.5170156491743840e-16 -2.1318637787523811e-02 0.0000000000000000e+00  -8.1200622451158776e-16 -2.1318637787523832e-02 0.0000000000000000e+00  -1.0617846522834857e-15 -2.1318637787523860e-02 0.0000000000000000e+00  -1.2892622620895582e-15 -2.1318637787523909e-02 0.0000000000000000e+00  -1.4885361970977742e-15 -2.1318637787523961e-02 0.0000000000000000e+00  -1.6588776942621850e-15 -2.1318637787524058e-02 0.0000000000000000e+00  -1.7786764405988951e-15 -2.1318637787524127e-02 0.0000000000000000e+00  -1.8567510995368758e-15 -2.1318637787524259e-02 0.0000000000000000e+00  -1.8872658613426767e-15 -2.1318637787524363e-02 0.0000000000000000e+00  -1.8565511228988263e-15 -2.1318637787524547e-02 0.0000000000000000e+00  -1.7780278409487451e-15 -2.1318637787524672e-02 0.0000000000000000e+00  -1.6504175044113147e-15 -2.1318637787524828e-02 0.0000000000000000e+00  -1.4805097764271489e-15 -2.1318637787524939e-02 0.0000000000000000e+00  -1.2726523332321831e-15 -2.1318637787524984e-02 0.0000000000000000e+00  -1.0453264361608913e-15 -2.1318637787525064e-02 0.0000000000000000e+00  -7.9823677216355607e-16 -2.1318637787525112e-02 0.0000000000000000e+00  -5.3433801178317362e-16 -2.1318637787525178e-02 0.0000000000000000e+00  -2.7099987117499889e-16 -2.1318637787525224e-02 0.0000000000000000e+00  5.9579018064208683e-32 -2.1318637787525210e-02 0.0000000000000000e+00  -3.6111186457260628e-32 -2.4242011343954525e-02 0.0000000000000000e+00  -2.8658423789820253e-16 -2.4242011343954515e-02 0.0000000000000000e+00  -5.7444309015087572e-16 -2.4242011343954532e-02 0.0000000000000000e+00  -8.4695370896229747e-16 -2.4242011343954550e-02 0.0000000000000000e+00  -1.1132131995434162e-15 -2.4242011343954574e-02 0.0000000000000000e+00  -1.3547921623614355e-15 -2.4242011343954633e-02 0.0000000000000000e+00  -1.5621119702391259e-15 -2.4242011343954744e-02 0.0000000000000000e+00  -1.7324540124917963e-15 -2.4242011343954838e-02 0.0000000000000000e+00  -1.8617021990002595e-15 -2.4242011343954963e-02 0.0000000000000000e+00  -1.9484645613330259e-15 -2.4242011343955070e-02 0.0000000000000000e+00  -1.9741211351778881e-15 -2.4242011343955240e-02 0.0000000000000000e+00  -1.9406836671929528e-15 -2.4242011343955441e-02 0.0000000000000000e+00  -1.8545602611199895e-15 -2.4242011343955622e-02 0.0000000000000000e+00  -1.7190850702161207e-15 -2.4242011343955774e-02 0.0000000000000000e+00  -1.5480992649700168e-15 -2.4242011343955937e-02 0.0000000000000000e+00  -1.3363721934533984e-15 -2.4242011343955969e-02 0.0000000000000000e+00  -1.0936808913289558e-15 -2.4242011343956052e-02 0.0000000000000000e+00  -8.2770436291915988e-16 -2.4242011343956135e-02 0.0000000000000000e+00  -5.5441869518410069e-16 -2.4242011343956184e-02 0.0000000000000000e+00  -2.7879783186155442e-16 -2.4242011343956222e-02 0.0000000000000000e+00  7.5895645824047009e-32 -2.4242011343956229e-02 0.0000000000000000e+00  4.3395082668887948e-32 -2.7263962398372567e-02 0.0000000000000000e+00  -3.0178853557141986e-16 -2.7263962398372598e-02 0.0000000000000000e+00  -5.9865747708986521e-16 -2.7263962398372601e-02 0.0000000000000000e+00  -8.7989501974357531e-16 -2.7263962398372633e-02 0.0000000000000000e+00  -1.1491834551414022e-15 -2.7263962398372643e-02 0.0000000000000000e+00  -1.3978558225462649e-15 -2.7263962398372771e-02 0.0000000000000000e+00  -1.6160400783233902e-15 -2.7263962398372855e-02 0.0000000000000000e+00  -1.7991884045349305e-15 -2.7263962398372945e-02 0.0000000000000000e+00  -1.9338876881294214e-15 -2.7263962398373108e-02 0.0000000000000000e+00  -2.0152801879770840e-15 -2.7263962398373254e-02 0.0000000000000000e+00  -2.0430348480064853e-15 -2.7263962398373486e-02 0.0000000000000000e+00  -2.0131148110200658e-15 -2.7263962398373680e-02 0.0000000000000000e+00  -1.9163754975753297e-15 -2.7263962398373892e-02 0.0000000000000000e+00  -1.7697041454384597e-15 -2.7263962398374062e-02 0.0000000000000000e+00  -1.5948795147371954e-15 -2.7263962398374194e-02 0.0000000000000000e+00  -1.3879223251934485e-15 -2.7263962398374312e-02 0.0000000000000000e+00  -1.1362577419350557e-15 -2.7263962398374430e-02 0.0000000000000000e+00  -8.6114112674414446e-16 -2.7263962398374499e-02 0.0000000000000000e+00  -5.7685851074832484e-16 -2.7263962398374551e-02 0.0000000000000000e+00  -2.8896243033342525e-16 -2.7263962398374569e-02 0.0000000000000000e+00  -1.5476222767397426e-33 -2.7263962398374593e-02 0.0000000000000000e+00  -2.8888949165808505e-32 -3.0399480018919161e-02 0.0000000000000000e+00  -3.1566905055339493e-16 -3.0399480018919161e-02 0.0000000000000000e+00  -6.1624160785243065e-16 -3.0399480018919164e-02 0.0000000000000000e+00  -9.0617321051413901e-16 -3.0399480018919216e-02 0.0000000000000000e+00  -1.1778671245850478e-15 -3.0399480018919289e-02 0.0000000000000000e+00  -1.4319260294191293e-15 -3.0399480018919380e-02 0.0000000000000000e+00  -1.6584600782594696e-15 -3.0399480018919445e-02 0.0000000000000000e+00  -1.8448492788440941e-15 -3.0399480018919608e-02 0.0000000000000000e+00  -1.9879579277144535e-15 -3.0399480018919792e-02 0.0000000000000000e+00  -2.0742239959572004e-15 -3.0399480018919973e-02 0.0000000000000000e+00  -2.1025438659078891e-15 -3.0399480018920171e-02 0.0000000000000000e+00  -2.0642148700130517e-15 -3.0399480018920445e-02 0.0000000000000000e+00  -1.9741211351778878e-15 -3.0399480018920677e-02 0.0000000000000000e+00  -1.8278884506464136e-15 -3.0399480018920903e-02 0.0000000000000000e+00  -1.6418219144169152e-15 -3.0399480018920993e-02 0.0000000000000000e+00  -1.4201476492013847e-15 -3.0399480018921173e-02 0.0000000000000000e+00  -1.1660740710307666e-15 -3.0399480018921288e-02 0.0000000000000000e+00  -8.9092490495402479e-16 -3.0399480018921350e-02 0.0000000000000000e+00  -5.9606307848926027e-16 -3.0399480018921447e-02 0.0000000000000000e+00  -2.9757036957344151e-16 -3.0399480018921485e-02 0.0000000000000000e+00  2.1666711874356365e-32 -3.0399480018921485e-02 0.0000000000000000e+00  1.1961830513967598e-32 -3.3664795639442073e-02 0.0000000000000000e+00  -3.1829472177218577e-16 -3.3664795639442080e-02 0.0000000000000000e+00  -6.3324945843128243e-16 -3.3664795639442129e-02 0.0000000000000000e+00  -9.3501044566428488e-16 -3.3664795639442122e-02 0.0000000000000000e+00  -1.2197859748026090e-15 -3.3664795639442253e-02 0.0000000000000000e+00  -1.4713331919778733e-15 -3.3664795639442302e-02 0.0000000000000000e+00  -1.6980338840967217e-15 -3.3664795639442448e-02 0.0000000000000000e+00  -1.8893601690609983e-15 -3.3664795639442600e-02 0.0000000000000000e+00  -2.0337923029918321e-15 -3.3664795639442774e-02 0.0000000000000000e+00  -2.1297785073555027e-15 -3.3664795639443038e-02 0.0000000000000000e+00  -2.1518914892902572e-15 -3.3664795639443308e-02 0.0000000000000000e+00  -2.1127961391295908e-15 -3.3664795639443530e-02 0.0000000000000000e+00  -2.0255767074232461e-15 -3.3664795639443787e-02 0.0000000000000000e+00  -1.8747151584702783e-15 -3.3664795639444058e-02 0.0000000000000000e+00  -1.6792364574749979e-15 -3.3664795639444245e-02 0.0000000000000000e+00  -1.4465664654309959e-15 -3.3664795639444363e-02 0.0000000000000000e+00  -1.1898560582029913e-15 -3.3664795639444488e-02 0.0000000000000000e+00  -9.0609802149048684e-16 -3.3664795639444585e-02 0.0000000000000000e+00  -6.0611637306661082e-16 -3.3664795639444689e-02 0.0000000000000000e+00  -3.0318012409286563e-16 -3.3664795639444703e-02 0.0000000000000000e+00  4.9257502622627599e-32 -3.3664795639444738e-02 0.0000000000000000e+00  1.4444474582904269e-32 -3.7077485242518277e-02 0.0000000000000000e+00  -3.2851493337883639e-16 -3.7077485242518290e-02 0.0000000000000000e+00  -6.5119404875214136e-16 -3.7077485242518284e-02 0.0000000000000000e+00  -9.5292463824489972e-16 -3.7077485242518360e-