<?xml version="1.0"?>
<VTKFile type="UnstructuredGrid"  version="0.1"  >
<UnstructuredGrid>
<Piece  NumberOfPoints="1091" NumberOfCells="2050">
<Points>
<DataArray  type="Float64"  NumberOfComponents="3"  format="ascii">-0.5 -1 0  -0.4 -1 0  -0.3 -1 0  -0.2 -1 0  -0.09999999999999998 -1 0  0 -1 0  0.09999999999999998 -1 0  0.2 -1 0  0.3 -1 0  0.4 -1 0  0.5 -1 0  -0.5 -0.98 0  -0.4 -0.98 0  -0.3 -0.98 0  -0.2 -0.98 0  -0.09999999999999998 -0.98 0  0 -0.98 0  0.09999999999999998 -0.98 0  0.2 -0.98 0  0.3 -0.98 0  0.4 -0.98 0  0.5 -0.98 0  -0.5 -0.96 0  -0.4 -0.96 0  -0.3 -0.96 0  -0.2 -0.96 0  -0.09999999999999998 -0.96 0  0 -0.96 0  0.09999999999999998 -0.96 0  0.2 -0.96 0  0.3 -0.96 0  0.4 -0.96 0  0.5 -0.96 0  -0.5 -0.9399999999999999 0  -0.4 -0.9399999999999999 0  -0.3 -0.9399999999999999 0  -0.2 -0.9399999999999999 0  -0.09999999999999998 -0.9399999999999999 0  0 -0.9399999999999999 0  0.09999999999999998 -0.9399999999999999 0  0.2 -0.9399999999999999 0  0.3 -0.9399999999999999 0  0.4 -0.9399999999999999 0  0.5 -0.9399999999999999 0  -0.5 -0.92 0  -0.4 -0.92 0  -0.3 -0.92 0  -0.2 -0.92 0  -0.09999999999999998 -0.92 0  0 -0.92 0  0.09999999999999998 -0.92 0  0.2 -0.92 0  0.3 -0.92 0  0.4 -0.92 0  0.5 -0.92 0  -0.5 -0.9 0  -0.4 -0.9 0  -0.3 -0.9 0  -0.2 -0.9 0  -0.09999999999999998 -0.9 0  0 -0.9 0  0.09999999999999998 -0.9 0  0.2 -0.9 0  0.3 -0.9 0  0.4 -0.9 0  0.5 -0.9 0  -0.5 -0.88 0  -0.4 -0.88 0  -0.3 -0.88 0  -0.2 -0.88 0  -0.09999999999999998 -0.88 0  0 -0.88 0  0.09999999999999998 -0.88 0  0.2 -0.88 0  0.3 -0.88 0  0.4 -0.88 0  0.5 -0.88 0  -0.5 -0.86 0  -0.4 -0.86 0  -0.3 -0.86 0  -0.2 -0.86 0  -0.09999999999999998 -0.86 0  0 -0.86 0  0.09999999999999998 -0.86 0  0.2 -0.86 0  0.3 -0.86 0  0.4 -0.86 0  0.5 -0.86 0  -0.5 -0.84 0  -0.4 -0.84 0  -0.3 -0.84 0  -0.2 -0.84 0  -0.09999999999999998 -0.84 0  0 -0.84 0  0.09999999999999998 -0.84 0  0.2 -0.84 0  0.3 -0.84 0  0.4 -0.84 0  0.5 -0.84 0  -0.5 -0.8200000000000001 0  -0.4 -0.8200000000000001 0  -0.3 -0.8200000000000001 0  -0.2 -0.8200000000000001 0  -0.09999999999999998 -0.8200000000000001 0  0 -0.8200000000000001 0  0.09999999999999998 -0.8200000000000001 0  0.2 -0.8200000000000001 0  0.3 -0.8200000000000001 0  0.4 -0.8200000000000001 0  0.5 -0.8200000000000001 0  -0.5 -0.8 0  -0.4 -0.8 0  -0.3 -0.8 0  -0.2 -0.8 0  -0.09999999999999998 -0.8 0  0 -0.8 0  0.09999999999999998 -0.8 0  0.2 -0.8 0  0.3 -0.8 0  0.4 -0.8 0  0.5 -0.8 0  -0.5 -0.78 0  -0.4 -0.78 0  -0.3 -0.78 0  -0.2 -0.78 0  -0.09999999999999998 -0.78 0  0 -0.78 0  0.09999999999999998 -0.78 0  0.2 -0.78 0  0.3 -0.78 0  0.4 -0.78 0  0.5 -0.78 0  -0.5 -0.76 0  -0.4 -0.76 0  -0.3 -0.76 0  -0.2 -0.76 0  -0.09999999999999998 -0.76 0  0 -0.76 0  0.09999999999999998 -0.76 0  0.2 -0.76 0  0.3 -0.76 0  0.4 -0.76 0  0.5 -0.76 0  -0.5 -0.74 0  -0.4 -0.74 0  -0.3 -0.74 0  -0.2 -0.74 0  -0.09999999999999998 -0.74 0  0 -0.74 0  0.09999999999999998 -0.74 0  0.2 -0.74 0  0.3 -0.74 0  0.4 -0.74 0  0.5 -0.74 0  -0.5 -0.72 0  -0.4 -0.72 0  -0.3 -0.72 0  -0.2 -0.72 0  -0.09999999999999998 -0.72 0  0 -0.72 0  0.09999999999999998 -0.72 0  0.2 -0.72 0  0.3 -0.72 0  0.4 -0.72 0  0.5 -0.72 0  -0.5 -0.7 0  -0.4 -0.7 0  -0.3 -0.7 0  -0.2 -0.7 0  -0.09999999999999998 -0.7 0  0 -0.7 0  0.09999999999999998 -0.7 0  0.2 -0.7 0  0.3 -0.7 0  0.4 -0.7 0  0.5 -0.7 0  -0.5 -0.6799999999999999 0  -0.4 -0.6799999999999999 0  -0.3 -0.6799999999999999 0  -0.2 -0.6799999999999999 0  -0.09999999999999998 -0.6799999999999999 0  0 -0.6799999999999999 0  0.09999999999999998 -0.6799999999999999 0  0.2 -0.6799999999999999 0  0.3 -0.6799999999999999 0  0.4 -0.6799999999999999 0  0.5 -0.6799999999999999 0  -0.5 -0.6599999999999999 0  -0.4 -0.6599999999999999 0  -0.3 -0.6599999999999999 0  -0.2 -0.6599999999999999 0  -0.09999999999999998 -0.6599999999999999 0  0 -0.6599999999999999 0  0.09999999999999998 -0.6599999999999999 0  0.2 -0.6599999999999999 0  0.3 -0.6599999999999999 0  0.4 -0.6599999999999999 0  0.5 -0.6599999999999999 0  -0.5 -0.64 0  -0.4 -0.64 0  -0.3 -0.64 0  -0.2 -0.64 0  -0.09999999999999998 -0.64 0  0 -0.64 0  0.09999999999999998 -0.64 0  0.2 -0.64 0  0.3 -0.64 0  0.4 -0.64 0  0.5 -0.64 0  -0.5 -0.62 0  -0.4 -0.62 0  -0.3 -0.62 0  -0.2 -0.62 0  -0.09999999999999998 -0.62 0  0 -0.62 0  0.09999999999999998 -0.62 0  0.2 -0.62 0  0.3 -0.62 0  0.4 -0.62 0  0.5 -0.62 0  -0.5 -0.6 0  -0.4 -0.6 0  -0.3 -0.6 0  -0.2 -0.6 0  -0.09999999999999998 -0.6 0  0 -0.6 0  0.09999999999999998 -0.6 0  0.2 -0.6 0  0.3 -0.6 0  0.4 -0.6 0  0.5 -0.6 0  -0.5 -0.5800000000000001 0  -0.4 -0.5800000000000001 0  -0.3 -0.5800000000000001 0  -0.2 -0.5800000000000001 0  -0.09999999999999998 -0.5800000000000001 0  0 -0.5800000000000001 0  0.09999999999999998 -0.5800000000000001 0  0.2 -0.5800000000000001 0  0.3 -0.5800000000000001 0  0.4 -0.5800000000000001 0  0.5 -0.5800000000000001 0  -0.5 -0.5600000000000001 0  -0.4 -0.5600000000000001 0  -0.3 -0.5600000000000001 0  -0.2 -0.5600000000000001 0  -0.09999999999999998 -0.5600000000000001 0  0 -0.5600000000000001 0  0.09999999999999998 -0.5600000000000001 0  0.2 -0.5600000000000001 0  0.3 -0.5600000000000001 0  0.4 -0.5600000000000001 0  0.5 -0.5600000000000001 0  -0.5 -0.54 0  -0.4 -0.54 0  -0.3 -0.54 0  -0.2 -0.54 0  -0.09999999999999998 -0.54 0  0 -0.54 0  0.09999999999999998 -0.54 0  0.2 -0.54 0  0.3 -0.54 0  0.4 -0.54 0  0.5 -0.54 0  -0.5 -0.52 0  -0.4 -0.52 0  -0.3 -0.52 0  -0.2 -0.52 0  -0.09999999999999998 -0.52 0  0 -0.52 0  0.09999999999999998 -0.52 0  0.2 -0.52 0  0.3 -0.52 0  0.4 -0.52 0  0.5 -0.52 0  -0.5 -0.5 0  -0.4 -0.5 0  -0.3 -0.5 0  -0.2 -0.5 0  -0.09999999999999998 -0.5 0  0 -0.5 0  0.09999999999999998 -0.5 0  0.2 -0.5 0  0.3 -0.5 0  0.4 -0.5 0  0.5 -0.5 0  -0.5 -0.48 0  -0.4 -0.48 0  -0.3 -0.48 0  -0.2 -0.48 0  -0.09999999999999998 -0.48 0  0 -0.48 0  0.09999999999999998 -0.48 0  0.2 -0.48 0  0.3 -0.48 0  0.4 -0.48 0  0.5 -0.48 0  -0.5 -0.46 0  -0.4 -0.46 0  -0.3 -0.46 0  -0.2 -0.46 0  -0.09999999999999998 -0.46 0  0 -0.46 0  0.09999999999999998 -0.46 0  0.2 -0.46 0  0.3 -0.46 0  0.4 -0.46 0  0.5 -0.46 0  -0.5 -0.4399999999999999 0  -0.4 -0.4399999999999999 0  -0.3 -0.4399999999999999 0  -0.2 -0.4399999999999999 0  -0.09999999999999998 -0.4399999999999999 0  0 -0.4399999999999999 0  0.09999999999999998 -0.4399999999999999 0  0.2 -0.4399999999999999 0  0.3 -0.4399999999999999 0  0.4 -0.4399999999999999 0  0.5 -0.4399999999999999 0  -0.5 -0.42 0  -0.4 -0.42 0  -0.3 -0.42 0  -0.2 -0.42 0  -0.09999999999999998 -0.42 0  0 -0.42 0  0.09999999999999998 -0.42 0  0.2 -0.42 0  0.3 -0.42 0  0.4 -0.42 0  0.5 -0.42 0  -0.5 -0.4 0  -0.4 -0.4 0  -0.3 -0.4 0  -0.2 -0.4 0  -0.09999999999999998 -0.4 0  0 -0.4 0  0.09999999999999998 -0.4 0  0.2 -0.4 0  0.3 -0.4 0  0.4 -0.4 0  0.5 -0.4 0  -0.5 -0.38 0  -0.4 -0.38 0  -0.3 -0.38 0  -0.2 -0.38 0  -0.09999999999999998 -0.38 0  0 -0.38 0  0.09999999999999998 -0.38 0  0.2 -0.38 0  0.3 -0.38 0  0.4 -0.38 0  0.5 -0.38 0  -0.5 -0.36 0  -0.4 -0.36 0  -0.3 -0.36 0  -0.2 -0.36 0  -0.09999999999999998 -0.36 0  0 -0.36 0  0.09999999999999998 -0.36 0  0.2 -0.36 0  0.3 -0.36 0  0.4 -0.36 0  0.5 -0.36 0  -0.5 -0.34 0  -0.4 -0.34 0  -0.3 -0.34 0  -0.2 -0.34 0  -0.09999999999999998 -0.34 0  0 -0.34 0  0.09999999999999998 -0.34 0  0.2 -0.34 0  0.3 -0.34 0  0.4 -0.34 0  0.5 -0.34 0  -0.5 -0.32 0  -0.4 -0.32 0  -0.3 -0.32 0  -0.2 -0.32 0  -0.09999999999999998 -0.32 0  0 -0.32 0  0.09999999999999998 -0.32 0  0.2 -0.32 0  0.3 -0.32 0  0.4 -0.32 0  0.5 -0.32 0  -0.5 -0.3 0  -0.4 -0.3 0  -0.3 -0.3 0  -0.2 -0.3 0  -0.09999999999999998 -0.3 0  0 -0.3 0  0.09999999999999998 -0.3 0  0.2 -0.3 0  0.3 -0.3 0  0.4 -0.3 0  0.5 -0.3 0  -0.5 -0.28 0  -0.4 -0.28 0  -0.3 -0.28 0  -0.2 -0.28 0  -0.09999999999999998 -0.28 0  0 -0.28 0  0.09999999999999998 -0.28 0  0.2 -0.28 0  0.3 -0.28 0  0.4 -0.28 0  0.5 -0.28 0  -0.5 -0.26 0  -0.4 -0.26 0  -0.3 -0.26 0  -0.2 -0.26 0  -0.09999999999999998 -0.26 0  0 -0.26 0  0.09999999999999998 -0.26 0  0.2 -0.26 0  0.3 -0.26 0  0.4 -0.26 0  0.5 -0.26 0  -0.5 -0.24 0  -0.4 -0.24 0  -0.3 -0.24 0  -0.2 -0.24 0  -0.09999999999999998 -0.24 0  0 -0.24 0  0.09999999999999998 -0.24 0  0.2 -0.24 0  0.3 -0.24 0  0.4 -0.24 0  0.5 -0.24 0  -0.5 -0.22 0  -0.4 -0.22 0  -0.3 -0.22 0  -0.2 -0.22 0  -0.09999999999999998 -0.22 0  0 -0.22 0  0.09999999999999998 -0.22 0  0.2 -0.22 0  0.3 -0.22 0  0.4 -0.22 0  0.5 -0.22 0  -0.5 -0.2 0  -0.4 -0.2 0  -0.3 -0.2 0  -0.2 -0.2 0  -0.09999999999999998 -0.2 0  0 -0.2 0  0.09999999999999998 -0.2 0  0.2 -0.2 0  0.3 -0.2 0  0.4 -0.2 0  0.5 -0.2 0  -0.5 -0.18 0  -0.4 -0.18 0  -0.3 -0.18 0  -0.2 -0.18 0  -0.09999999999999998 -0.18 0  0 -0.18 0  0.09999999999999998 -0.18 0  0.2 -0.18 0  0.3 -0.18 0  0.4 -0.18 0  0.5 -0.18 0  -0.5 -0.16 0  -0.4 -0.16 0  -0.3 -0.16 0  -0.2 -0.16 0  -0.09999999999999998 -0.16 0  0 -0.16 0  0.09999999999999998 -0.16 0  0.2 -0.16 0  0.3 -0.16 0  0.4 -0.16 0  0.5 -0.16 0  -0.5 -0.14 0  -0.4 -0.14 0  -0.3 -0.14 0  -0.2 -0.14 0  -0.09999999999999998 -0.14 0  0 -0.14 0  0.09999999999999998 -0.14 0  0.2 -0.14 0  0.3 -0.14 0  0.4 -0.14 0  0.5 -0.14 0  -0.5 -0.12 0  -0.4 -0.12 0  -0.3 -0.12 0  -0.2 -0.12 0  -0.09999999999999998 -0.12 0  0 -0.12 0  0.09999999999999998 -0.12 0  0.2 -0.12 0  0.3 -0.12 0  0.4 -0.12 0  0.5 -0.12 0  -0.5 -0.09999999999999998 0  -0.4 -0.09999999999999998 0  -0.3 -0.09999999999999998 0  -0.2 -0.09999999999999998 0  -0.09999999999999998 -0.09999999999999998 0  0 -0.09999999999999998 0  0.09999999999999998 -0.09999999999999998 0  0.2 -0.09999999999999998 0  0.3 -0.09999999999999998 0  0.4 -0.09999999999999998 0  0.5 -0.09999999999999998 0  -0.5 -0.07999999999999996 0  -0.4 -0.07999999999999996 0  -0.3 -0.07999999999999996 0  -0.2 -0.07999999999999996 0  -0.09999999999999998 -0.07999999999999996 0  0 -0.07999999999999996 0  0.09999999999999998 -0.07999999999999996 0  0.2 -0.07999999999999996 0  0.3 -0.07999999999999996 0  0.4 -0.07999999999999996 0  0.5 -0.07999999999999996 0  -0.5 -0.06000000000000005 0  -0.4 -0.06000000000000005 0  -0.3 -0.06000000000000005 0  -0.2 -0.06000000000000005 0  -0.09999999
[...]
<PointData  Vectors="displacement"> 
<DataArray  type="Float64"  Name="displacement"  NumberOfComponents="3" format="ascii">-7.0529661049337199e-34 2.9778502051908972e-20 0.0000000000000000e+00  -5.2897245787002878e-34 -3.4741585727227126e-20 0.0000000000000000e+00  3.0074288281818935e-33 -5.3508245874523930e-20 0.0000000000000000e+00  -8.4635593259204632e-34 2.4815418376590811e-21 0.0000000000000000e+00  1.6578531937094416e-33 4.9204996299101192e-21 0.0000000000000000e+00  1.1284745767893948e-33 1.9852334701272643e-20 0.0000000000000000e+00  -6.7625822660821514e-33 -8.2613048091599686e-21 0.0000000000000000e+00  8.4635593259204615e-34 -2.4815418376590803e-20 0.0000000000000000e+00  3.3955002483207989e-33 -9.3057818912215519e-22 0.0000000000000000e+00  1.1284745767893952e-33 -1.4889251025954486e-20 0.0000000000000000e+00  -8.4635593259204598e-34 7.9409338805090560e-20 0.0000000000000000e+00  -5.6423728839469758e-34 -2.7717265353417313e-04 0.0000000000000000e+00  -8.9111100886254151e-18 -2.7717265353417492e-04 0.0000000000000000e+00  2.4037639589976885e-18 -2.7717265353418045e-04 0.0000000000000000e+00  2.4585051108009915e-17 -2.7717265353418273e-04 0.0000000000000000e+00  3.3897396869365438e-17 -2.7717265353417758e-04 0.0000000000000000e+00  4.1213252330987557e-17 -2.7717265353417329e-04 0.0000000000000000e+00  4.4147069327841782e-17 -2.7717265353417253e-04 0.0000000000000000e+00  3.0522676389580537e-17 -2.7717265353416966e-04 0.0000000000000000e+00  2.6050086245732068e-17 -2.7717265353416961e-04 0.0000000000000000e+00  1.6897266898868620e-17 -2.7717265353416175e-04 0.0000000000000000e+00  -1.6929449849495564e-33 -2.7717265353416847e-04 0.0000000000000000e+00  -3.6765567117066306e-33 -5.5434530706834463e-04 0.0000000000000000e+00  -1.4281185874045107e-17 -5.5434530706835092e-04 0.0000000000000000e+00  5.8062391146390835e-18 -5.5434530706836231e-04 0.0000000000000000e+00  4.5793366220733351e-17 -5.5434530706836805e-04 0.0000000000000000e+00  6.5375518585702307e-17 -5.5434530706835786e-04 0.0000000000000000e+00  8.0097189440431980e-17 -5.5434530706834778e-04 0.0000000000000000e+00  8.3669354872721513e-17 -5.5434530706834604e-04 0.0000000000000000e+00  5.9241704593945809e-17 -5.5434530706833921e-04 0.0000000000000000e+00  4.9676396634520168e-17 -5.5434530706833997e-04 0.0000000000000000e+00  3.1655450371800454e-17 -5.5434530706832208e-04 0.0000000000000000e+00  3.3451210669114212e-33 -5.5434530706833477e-04 0.0000000000000000e+00  -1.6927118651840954e-33 -8.3151796060251435e-04 0.0000000000000000e+00  -1.7895688293016444e-17 -8.3151796060252671e-04 0.0000000000000000e+00  1.0034552591150030e-17 -8.3151796060254482e-04 0.0000000000000000e+00  6.4527349812394992e-17 -8.3151796060255880e-04 0.0000000000000000e+00  9.4346438780395866e-17 -8.3151796060253896e-04 0.0000000000000000e+00  1.1636407083764129e-16 -8.3151796060252541e-04 0.0000000000000000e+00  1.1974147387867116e-16 -8.3151796060252118e-04 0.0000000000000000e+00  8.5103375582740796e-17 -8.3151796060250915e-04 0.0000000000000000e+00  7.1345961519374863e-17 -8.3151796060250860e-04 0.0000000000000000e+00  4.5490864914841928e-17 -8.3151796060248128e-04 0.0000000000000000e+00  -7.3350847491310768e-33 -8.3151796060250123e-04 0.0000000000000000e+00  -1.7422754055230737e-33 -1.1086906141366821e-03 0.0000000000000000e+00  -2.0621096333428490e-17 -1.1086906141366997e-03 0.0000000000000000e+00  1.4246730024127086e-17 -1.1086906141367250e-03 0.0000000000000000e+00  8.0732665419586385e-17 -1.1086906141367482e-03 0.0000000000000000e+00  1.2111455102271350e-16 -1.1086906141367188e-03 0.0000000000000000e+00  1.4942201016060883e-16 -1.1086906141367060e-03 0.0000000000000000e+00  1.5302206930744108e-16 -1.1086906141366997e-03 0.0000000000000000e+00  1.0890653356867704e-16 -1.1086906141366812e-03 0.0000000000000000e+00  9.1180381148589739e-17 -1.1086906141366715e-03 0.0000000000000000e+00  5.7414962242807530e-17 -1.1086906141366379e-03 0.0000000000000000e+00  -1.6378038699562903e-33 -1.1086906141366663e-03 0.0000000000000000e+00  -5.0781355955522779e-33 -1.3858632676708559e-03 0.0000000000000000e+00  -2.2319203835665191e-17 -1.3858632676708763e-03 0.0000000000000000e+00  1.8119213304279487e-17 -1.3858632676709078e-03 0.0000000000000000e+00  9.5132829438669161e-17 -1.3858632676709381e-03 0.0000000000000000e+00  1.4568545988571655e-16 -1.3858632676709028e-03 0.0000000000000000e+00  1.7848963450039445e-16 -1.3858632676708902e-03 0.0000000000000000e+00  1.8337180205949248e-16 -1.3858632676708848e-03 0.0000000000000000e+00  1.3251909487164427e-16 -1.3858632676708575e-03 0.0000000000000000e+00  1.1052959182789228e-16 -1.3858632676708312e-03 0.0000000000000000e+00  6.7840412664945326e-17 -1.3858632676707935e-03 0.0000000000000000e+00  -8.6680339707150874e-33 -1.3858632676708291e-03 0.0000000000000000e+00  -2.7463595009116184e-35 -1.6630359212050304e-03 0.0000000000000000e+00  -2.2587640782352905e-17 -1.6630359212050493e-03 0.0000000000000000e+00  2.0943399047179741e-17 -1.6630359212050905e-03 0.0000000000000000e+00  1.0731765157104236e-16 -1.6630359212051306e-03 0.0000000000000000e+00  1.6777110951222720e-16 -1.6630359212050868e-03 0.0000000000000000e+00  2.0598922438210757e-16 -1.6630359212050734e-03 0.0000000000000000e+00  2.1111087075220164e-16 -1.6630359212050705e-03 0.0000000000000000e+00  1.5558177004020965e-16 -1.6630359212050367e-03 0.0000000000000000e+00  1.3044829895886075e-16 -1.6630359212049923e-03 0.0000000000000000e+00  7.6532766993723865e-17 -1.6630359212049450e-03 0.0000000000000000e+00  4.5945036340711080e-33 -1.6630359212049849e-03 0.0000000000000000e+00  -2.8211864419734879e-34 -1.9402085747391993e-03 0.0000000000000000e+00  -2.2676684995544401e-17 -1.9402085747392218e-03 0.0000000000000000e+00  2.2048695629189547e-17 -1.9402085747392730e-03 0.0000000000000000e+00  1.1847753609884082e-16 -1.9402085747393250e-03 0.0000000000000000e+00  1.8759497574325143e-16 -1.9402085747392669e-03 0.0000000000000000e+00  2.3146368021015984e-16 -1.9402085747392559e-03 0.0000000000000000e+00  2.3646169162319268e-16 -1.9402085747392487e-03 0.0000000000000000e+00  1.7724560452038208e-16 -1.9402085747392125e-03 0.0000000000000000e+00  1.4980988843042639e-16 -1.9402085747391509e-03 0.0000000000000000e+00  8.2990009622998854e-17 -1.9402085747390954e-03 0.0000000000000000e+00  -1.1284745767893950e-33 -1.9402085747391427e-03 0.0000000000000000e+00  -5.3279374317685530e-33 -2.2173812282733651e-03 0.0000000000000000e+00  -2.4174618786169772e-17 -2.2173812282733928e-03 0.0000000000000000e+00  2.1996259290107993e-17 -2.2173812282734627e-03 0.0000000000000000e+00  1.2788698281695664e-16 -2.2173812282735191e-03 0.0000000000000000e+00  2.0529010466087736e-16 -2.2173812282734553e-03 0.0000000000000000e+00  2.5460688678567997e-16 -2.2173812282734384e-03 0.0000000000000000e+00  2.6040444416558799e-16 -2.2173812282734345e-03 0.0000000000000000e+00  1.9724162728595522e-16 -2.2173812282733902e-03 0.0000000000000000e+00  1.6830225441806028e-16 -2.2173812282733087e-03 0.0000000000000000e+00  8.7587965322383619e-17 -2.2173812282732497e-03 0.0000000000000000e+00  -1.2384086359603059e-32 -2.2173812282732961e-03 0.0000000000000000e+00  -1.1284745767893999e-33 -2.4945538818075311e-03 0.0000000000000000e+00  -2.8823968010002452e-17 -2.4945538818075584e-03 0.0000000000000000e+00  1.9499566405936308e-17 -2.4945538818076487e-03 0.0000000000000000e+00  1.3743568683514355e-16 -2.4945538818077150e-03 0.0000000000000000e+00  2.2230337240780451e-16 -2.4945538818076439e-03 0.0000000000000000e+00  2.7323195743934300e-16 -2.4945538818076213e-03 0.0000000000000000e+00  2.8253167069274976e-16 -2.4945538818076382e-03 0.0000000000000000e+00  2.1765231149795281e-16 -2.4945538818075697e-03 0.0000000000000000e+00  1.8556602299141782e-16 -2.4945538818074674e-03 0.0000000000000000e+00  9.1484428321852832e-17 -2.4945538818074015e-03 0.0000000000000000e+00  1.5390768283927363e-32 -2.4945538818074535e-03 0.0000000000000000e+00  -2.2464214361560582e-33 -2.7717265353417011e-03 0.0000000000000000e+00  -3.5780031365440364e-17 -2.7717265353417405e-03 0.0000000000000000e+00  1.4368976865440527e-17 -2.7717265353418476e-03 0.0000000000000000e+00  1.4591319036943003e-16 -2.7717265353419140e-03 0.0000000000000000e+00  2.4010997939030511e-16 -2.7717265353418390e-03 0.0000000000000000e+00  2.8686063290058665e-16 -2.7717265353418043e-03 0.0000000000000000e+00  2.9901242274264771e-16 -2.7717265353418420e-03 0.0000000000000000e+00  2.4127016341096932e-16 -2.7717265353417574e-03 0.0000000000000000e+00  2.0453573933802133e-16 -2.7717265353416191e-03 0.0000000000000000e+00  9.3020878897806928e-17 -2.7717265353415618e-03 0.0000000000000000e+00  -1.1929588383202175e-32 -2.7717265353416091e-03 0.0000000000000000e+00  6.2066101723416739e-33 -3.0488991888758784e-03 0.0000000000000000e+00  -4.5388719461074061e-17 -3.0488991888759243e-03 0.0000000000000000e+00  6.7188271454143398e-18 -3.0488991888760618e-03 0.0000000000000000e+00  1.5494810709070795e-16 -3.0488991888761095e-03 0.0000000000000000e+00  2.5738388233319728e-16 -3.0488991888760354e-03 0.0000000000000000e+00  2.9989647757274352e-16 -3.0488991888759872e-03 0.0000000000000000e+00  3.0994747898288845e-16 -3.0488991888760414e-03 0.0000000000000000e+00  2.6526521409459224e-16 -3.0488991888759438e-03 0.0000000000000000e+00  2.2538006305607674e-16 -3.0488991888757834e-03 0.0000000000000000e+00  9.3159257769724688e-17 -3.0488991888757144e-03 0.0000000000000000e+00  9.0277966143151599e-33 -3.0488991888757630e-03 0.0000000000000000e+00  2.0423771800100272e-33 -3.3260718424100535e-03 0.0000000000000000e+00  -5.8821518055472904e-17 -3.3260718424101125e-03 0.0000000000000000e+00  -1.5965529850489597e-18 -3.3260718424102825e-03 0.0000000000000000e+00  1.6695769783902042e-16 -3.3260718424102994e-03 0.0000000000000000e+00  2.7414145214111314e-16 -3.3260718424102231e-03 0.0000000000000000e+00  3.1007931833138014e-16 -3.3260718424101754e-03 0.0000000000000000e+00  3.1703740215597554e-16 -3.3260718424102339e-03 0.0000000000000000e+00  2.8889331410218211e-16 -3.3260718424101272e-03 0.0000000000000000e+00  2.4573403477041787e-16 -3.3260718424099585e-03 0.0000000000000000e+00  9.5424174983343466e-17 -3.3260718424098696e-03 0.0000000000000000e+00  -1.2127289975470737e-32 -3.3260718424099121e-03 0.0000000000000000e+00  1.1284745767893952e-33 -3.6032444959442278e-03 0.0000000000000000e+00  -7.6127198630554161e-17 -3.6032444959443123e-03 0.0000000000000000e+00  -7.7831958021136125e-18 -3.6032444959444910e-03 0.0000000000000000e+00  1.8001412826785710e-16 -3.6032444959444884e-03 0.0000000000000000e+00  2.8973756954073030e-16 -3.6032444959444116e-03 0.0000000000000000e+00  3.1689913677195548e-16 -3.6032444959443770e-03 0.0000000000000000e+00  3.2305147864598220e-16 -3.6032444959444247e-03 0.0000000000000000e+00  3.1150732736033000e-16 -3.6032444959442885e-03 0.0000000000000000e+00  2.6484395578104192e-16 -3.6032444959441350e-03 0.0000000000000000e+00  1.0081123408521021e-16 -3.6032444959440287e-03 0.0000000000000000e+00  1.1795618906075012e-32 -3.6032444959440729e-03 0.0000000000000000e+00  2.1727468728240136e-33 -3.8804171494784081e-03 0.0000000000000000e+00  -9.4420912440877597e-17 -3.8804171494785092e-03 0.0000000000000000e+00  -1.4879959102468512e-17 -3.8804171494786878e-03 0.0000000000000000e+00  1.9656722681566658e-16 -3.8804171494786726e-03 0.0000000000000000e+00  2.9919465208259781e-16 -3.8804171494785994e-03 0.0000000000000000e+00  3.1934930517062833e-16 -3.8804171494785803e-03 0.0000000000000000e+00  3.3234911305435655e-16 -3.8804171494785903e-03 0.0000000000000000e+00  3.2929302601645543e-16 -3.8804171494784632e-03 0.0000000000000000e+00  2.8212010210991358e-16 -3.8804171494783110e-03 0.0000000000000000e+00  1.0584662994093537e-16 -3.8804171494781887e-03 0.0000000000000000e+00  -1.3219273613818626e-32 -3.8804171494782260e-03 0.0000000000000000e+00  -2.2569491535787903e-33 -4.1575898030125919e-03 0.0000000000000000e+00  -1.1321551499529202e-16 -4.1575898030127038e-03 0.0000000000000000e+00  -2.0459992811004879e-17 -4.1575898030128634e-03 0.0000000000000000e+00  2.1271010773432210e-16 -4.1575898030128461e-03 0.0000000000000000e+00  3.0394566604722826e-16 -4.1575898030127879e-03 0.0000000000000000e+00  3.2140174180385484e-16 -4.1575898030127767e-03 0.0000000000000000e+00  3.4359150699074281e-16 -4.1575898030127532e-03 0.0000000000000000e+00  3.4339381729726230e-16 -4.1575898030126318e-03 0.0000000000000000e+00  2.9762408562954147e-16 -4.1575898030124818e-03 0.0000000000000000e+00  1.1259580648649092e-16 -4.1575898030123543e-03 0.0000000000000000e+00  -4.5138983071575799e-33 -4.1575898030123924e-03 0.0000000000000000e+00  -1.6335242466426742e-32 -4.4347624565467779e-03 0.0000000000000000e+00  -1.2848869537079843e-16 -4.4347624565469089e-03 0.0000000000000000e+00  -2.4210229249843842e-17 -4.4347624565470338e-03 0.0000000000000000e+00  2.2118549426208225e-16 -4.4347624565470242e-03 0.0000000000000000e+00  3.0358725947368524e-16 -4.4347624565469973e-03 0.0000000000000000e+00  3.2692275699715185e-16 -4.4347624565469722e-03 0.0000000000000000e+00  3.5488527283472684e-16 -4.4347624565469123e-03 0.0000000000000000e+00  3.5516233676721794e-16 -4.4347624565467926e-03 0.0000000000000000e+00  3.0944128021744618e-16 -4.4347624565466469e-03 0.0000000000000000e+00  1.1891783611837374e-16 -4.4347624565465290e-03 0.0000000000000000e+00  -1.9715168966139024e-32 -4.4347624565465663e-03 0.0000000000000000e+00  -9.0277966143151995e-33 -4.7119351100809673e-03 0.0000000000000000e+00  -1.3843946988507863e-16 -4.7119351100811261e-03 0.0000000000000000e+00  -2.3981556296255997e-17 -4.7119351100812154e-03 0.0000000000000000e+00  2.2326790679494571e-16 -4.7119351100812180e-03 0.0000000000000000e+00  3.0034477406597655e-16 -4.7119351100812024e-03 0.0000000000000000e+00  3.3747138721472037e-16 -4.7119351100811599e-03 0.0000000000000000e+00  3.6894094331845873e-16 -4.7119351100810489e-03 0.0000000000000000e+00  3.6092553831969210e-16 -4.7119351100809422e-03 0.0000000000000000e+00  3.1860378969869896e-16 -4.7119351100808182e-03 0.0000000000000000e+00  1.2273335978882286e-16 -4.7119351100807045e-03 0.0000000000000000e+00  -8.3632278249811755e-33 -4.7119351100807583e-03 0.0000000000000000e+00  4.4454868200760308e-33 -4.9891077636151637e-03 0.0000000000000000e+00  -1.4887105162775070e-16 -4.9891077636153329e-03 0.0000000000000000e+00  -1.7761651958669555e-17 -4.9891077636154144e-03 0.0000000000000000e+00  2.2180356557557202e-16 -4.9891077636154109e-03 0.0000000000000000e+00  2.9592774808292691e-16 -4.9891077636154040e-03 0.0000000000000000e+00  3.5442683089225863e-16 -4.9891077636153372e-03 0.0000000000000000e+00  3.8679044027925675e-16 -4.9891077636151941e-03 0.0000000000000000e+00  3.5851890805682458e-16 -4.9891077636150683e-03 0.0000000000000000e+00  3.2507479618426708e-16 -4.9891077636149703e-03 0.0000000000000000e+00  1.2293237543894996e-16 -4.9891077636148732e-03 0.0000000000000000e+00  -5.0781355955522834e-33 -4.9891077636149521e-03 0.0000000000000000e+00  -1.3541694921472741e-32 -5.2662804171493653e-03 0.0000000000000000e+00  -1.5938192279604174e-16 -5.2662804171495284e-03 0.0000000000000000e+00  -9.4462718282063003e-18 -5.2662804171496255e-03 0.0000000000000000e+00  2.1859483078040726e-16 -5.2662804171496047e-03 0.0000000000000000e+00  2.9050612023786505e-16 -5.2662804171495934e-03 0.0000000000000000e+00  3.7731515744037757e-16 -5.2662804171495032e-03 0.0000000000000000e+00  4.0377389911696462e-16 -5.2662804171493462e-03 0.0000000000000000e+00  3.5464582295783507e-16 -5.2662804171492040e-03 0.0000000000000000e+00  3.2543071678581051e-16 -5.2662804171491120e-03 0.0000000000000000e+00  1.1420057499295373e-16 -5.2662804171490366e-03 0.0000000000000000e+00  7.8993220375257652e-33 -5.2662804171491407e-03 0.0000000000000000e+00  -1.3271828493822194e-32 -5.5434530706835791e-03 0.0000000000000000e+00  -1.6882906864960196e-16 -5.5434530706837100e-03 0.0000000000000000e+00  -3.5257211753163846e-18 -5.5434530706838401e-03 0.0000000000000000e+00  2.1673436330964939e-16 -5.5434530706838115e-03 0.0000000000000000e+00  2.8716333742541779e-16 -5.5434530706837768e-03 0.0000000000000000e+00  4.0016126791098943e-16 -5.5434530706836632e-03 0.0000000000000000e+00  4.2225410239459049e-16 -5.5434530706835114e-03 0.0000000000000000e+00  3.4934145527616877e-16 -5.5434530706833405e-03 0.0000000000000000e+00  3.1769325557441331e-16 -5.5434530706832625e-03 0.0000000000000000e+00  1.0163717377810650e-16 -5.5434530706832035e-03 0.0000000000000000e+00  -8.1305292931320200e-33 -5.5434530706833206e-03 0.0000000000000000e+00  -3.3854237303681913e-32 -5.8206257242177902e-03 0.0000000000000000e+00  -1.7548459480106703e-16 -5.8206257242178917e-03 0.0000000000000000e+00  -2.8604907648793802e-18 -5.8206257242180513e-03 0.0000000000000000e+00  2.1971297905264903e-16 -5.8206257242180252e-03 0.0000000000000000e+00  2.8400765066590780e-16 -5.8206257242179602e-03 0.0000000000000000e+00  4.2187031020588632e-16 -5.8206257242178292e-03 0.0000000000000000e+00  4.4483957545926331e-16 -5.8206257242176818e-03 0.0000000000000000e+00  3.3874838273991304e-16 -5.8206257242175092e-03 0.0000000000000000e+00  3.0799648291977800e-16 -5.8206257242174276e-03 0.0000000000000000e+00  8.6505193115081679e-17 -5.8206257242173860e-03 0.0000000000000000e+00  1.9035545653538731e-32 -5.8206257242174866e-03 0.0000000000000000e+00  -2.1050797410540427e-33 -6.0977983777520143e-03 0.0000000000000000e+00  -1.8134097259285290e-16 -6.0977983777520802e-03 0.0000000000000000e+00  -4.9481778311230259e-18 -6.0977983777522520e-03 0.0000000000000000e+00  2.2671336863328514e-16 -6.0977983777522303e-03 0.0000000000000000e+00  2.8473229640390610e-16 -6.0977983777521288e-03 0.0000000000000000e+00  4.4169958843018665e-16 -6.0977983777519935e-03 0.0000000000000000e+00  4.6286731958210858e-16 -6.0977983777518755e-03 0.0000000000000000e+00  3.2871741423060918e-16 -6.0977983777517038e-03 0.0000000000000000e+00  2.9651994391747231e-16 -6.0977983777515963e-03 0.0000000000000000e+00  6.8708449907404216e-17 -6.0977983777515407e-03 0.0000000000000000e+00  -1.6806210661470631e-32 -6.0977983777516570e-03 0.0000000000000000e+00  -2.9340338996524274e-32 -6.3749710312862237e-03 0.0000000000000000e+00  -1.8812104189405826e-16 -6.3749710312862862e-03 0.0000000000000000e+00  -1.1175870895342624e-17 -6.3749710312864657e-03 0.0000000000000000e+00  2.3771724732837927e-16 -6.3749710312864605e-03 0.0000000000000000e+00  2.9258427501618509e-16 -6.3749710312862974e-03 0.0000000000000000e+00  4.6016936784787904e-16 -6.3749710312861734e-03 0.0000000000000000e+00  4.7449326042701174e-16 -6.3749710312860728e-03 0.0000000000000000e+00  3.1827198117467392e-16 -6.3749710312859141e-03 0.0000000000000000e+00  2.8525079999541204e-16 -6.3749710312857736e-03 0.0000000000000000e+00  5.2575337769460443e-17 -6.3749710312857120e-03 0.0000000000000000e+00  1.4105932209867436e-32 -6.3749710312858299e-03 0.0000000000000000e+00  2.9462666029801160e-32 -6.6521436848204453e-03 0.0000000000000000e+00  -1.9413344016001655e-16 -6.6521436848204878e-03 0.0000000000000000e+00  -2.1522282622671558e-17 -6.6521436848206847e-03 0.0000000000000000e+00  2.4987365384138420e-16 -6.6521436848206873e-03 0.0000000000000000e+00  3.0467552798017457e-16 -6.6521436848204513e-03 0.0000000000000000e+00  4.7535771331945157e-16 -6.6521436848203672e-03 0.0000000000000000e+00  4.8039953396259936e-16 -6.6521436848202744e-03 0.0000000000000000e+00  3.0864589305522239e-16 -6.6521436848201382e-03 0.0000000000000000e+00  2.7484306233962082e-16 -6.6521436848199413e-03 0.0000000000000000e+00  3.6472249110940213e-17 -6.6521436848198841e-03 0.0000000000000000e+00  -9.8905379410823432e-33 -6.6521436848199968e-03 0.0000000000000000e+00  -2.0312542382209112e-32 -6.9293163383546581e-03 0.0000000000000000e+00  -2.0117203570185039e-16 -6.9293163383547032e-03 0.0000000000000000e+00  -2.9987044081394178e-17 -6.9293163383548923e-03 0.0000000000000000e+00  2.6238911626942207e-16 -6.9293163383548854e-03 0.000000000000000