<?xml version="1.0"?>
<VTKFile type="UnstructuredGrid"  version="0.1"  >
<UnstructuredGrid>
<Piece  NumberOfPoints="1091" NumberOfCells="2050">
<Points>
<DataArray  type="Float64"  NumberOfComponents="3"  format="ascii">-0.5 -1 0  -0.4 -1 0  -0.3 -1 0  -0.2 -1 0  -0.09999999999999998 -1 0  0 -1 0  0.09999999999999998 -1 0  0.2 -1 0  0.3 -1 0  0.4 -1 0  0.5 -1 0  -0.5 -0.98 0  -0.4 -0.98 0  -0.3 -0.98 0  -0.2 -0.98 0  -0.09999999999999998 -0.98 0  0 -0.98 0  0.09999999999999998 -0.98 0  0.2 -0.98 0  0.3 -0.98 0  0.4 -0.98 0  0.5 -0.98 0  -0.5 -0.96 0  -0.4 -0.96 0  -0.3 -0.96 0  -0.2 -0.96 0  -0.09999999999999998 -0.96 0  0 -0.96 0  0.09999999999999998 -0.96 0  0.2 -0.96 0  0.3 -0.96 0  0.4 -0.96 0  0.5 -0.96 0  -0.5 -0.9399999999999999 0  -0.4 -0.9399999999999999 0  -0.3 -0.9399999999999999 0  -0.2 -0.9399999999999999 0  -0.09999999999999998 -0.9399999999999999 0  0 -0.9399999999999999 0  0.09999999999999998 -0.9399999999999999 0  0.2 -0.9399999999999999 0  0.3 -0.9399999999999999 0  0.4 -0.9399999999999999 0  0.5 -0.9399999999999999 0  -0.5 -0.92 0  -0.4 -0.92 0  -0.3 -0.92 0  -0.2 -0.92 0  -0.09999999999999998 -0.92 0  0 -0.92 0  0.09999999999999998 -0.92 0  0.2 -0.92 0  0.3 -0.92 0  0.4 -0.92 0  0.5 -0.92 0  -0.5 -0.9 0  -0.4 -0.9 0  -0.3 -0.9 0  -0.2 -0.9 0  -0.09999999999999998 -0.9 0  0 -0.9 0  0.09999999999999998 -0.9 0  0.2 -0.9 0  0.3 -0.9 0  0.4 -0.9 0  0.5 -0.9 0  -0.5 -0.88 0  -0.4 -0.88 0  -0.3 -0.88 0  -0.2 -0.88 0  -0.09999999999999998 -0.88 0  0 -0.88 0  0.09999999999999998 -0.88 0  0.2 -0.88 0  0.3 -0.88 0  0.4 -0.88 0  0.5 -0.88 0  -0.5 -0.86 0  -0.4 -0.86 0  -0.3 -0.86 0  -0.2 -0.86 0  -0.09999999999999998 -0.86 0  0 -0.86 0  0.09999999999999998 -0.86 0  0.2 -0.86 0  0.3 -0.86 0  0.4 -0.86 0  0.5 -0.86 0  -0.5 -0.84 0  -0.4 -0.84 0  -0.3 -0.84 0  -0.2 -0.84 0  -0.09999999999999998 -0.84 0  0 -0.84 0  0.09999999999999998 -0.84 0  0.2 -0.84 0  0.3 -0.84 0  0.4 -0.84 0  0.5 -0.84 0  -0.5 -0.8200000000000001 0  -0.4 -0.8200000000000001 0  -0.3 -0.8200000000000001 0  -0.2 -0.8200000000000001 0  -0.09999999999999998 -0.8200000000000001 0  0 -0.8200000000000001 0  0.09999999999999998 -0.8200000000000001 0  0.2 -0.8200000000000001 0  0.3 -0.8200000000000001 0  0.4 -0.8200000000000001 0  0.5 -0.8200000000000001 0  -0.5 -0.8 0  -0.4 -0.8 0  -0.3 -0.8 0  -0.2 -0.8 0  -0.09999999999999998 -0.8 0  0 -0.8 0  0.09999999999999998 -0.8 0  0.2 -0.8 0  0.3 -0.8 0  0.4 -0.8 0  0.5 -0.8 0  -0.5 -0.78 0  -0.4 -0.78 0  -0.3 -0.78 0  -0.2 -0.78 0  -0.09999999999999998 -0.78 0  0 -0.78 0  0.09999999999999998 -0.78 0  0.2 -0.78 0  0.3 -0.78 0  0.4 -0.78 0  0.5 -0.78 0  -0.5 -0.76 0  -0.4 -0.76 0  -0.3 -0.76 0  -0.2 -0.76 0  -0.09999999999999998 -0.76 0  0 -0.76 0  0.09999999999999998 -0.76 0  0.2 -0.76 0  0.3 -0.76 0  0.4 -0.76 0  0.5 -0.76 0  -0.5 -0.74 0  -0.4 -0.74 0  -0.3 -0.74 0  -0.2 -0.74 0  -0.09999999999999998 -0.74 0  0 -0.74 0  0.09999999999999998 -0.74 0  0.2 -0.74 0  0.3 -0.74 0  0.4 -0.74 0  0.5 -0.74 0  -0.5 -0.72 0  -0.4 -0.72 0  -0.3 -0.72 0  -0.2 -0.72 0  -0.09999999999999998 -0.72 0  0 -0.72 0  0.09999999999999998 -0.72 0  0.2 -0.72 0  0.3 -0.72 0  0.4 -0.72 0  0.5 -0.72 0  -0.5 -0.7 0  -0.4 -0.7 0  -0.3 -0.7 0  -0.2 -0.7 0  -0.09999999999999998 -0.7 0  0 -0.7 0  0.09999999999999998 -0.7 0  0.2 -0.7 0  0.3 -0.7 0  0.4 -0.7 0  0.5 -0.7 0  -0.5 -0.6799999999999999 0  -0.4 -0.6799999999999999 0  -0.3 -0.6799999999999999 0  -0.2 -0.6799999999999999 0  -0.09999999999999998 -0.6799999999999999 0  0 -0.6799999999999999 0  0.09999999999999998 -0.6799999999999999 0  0.2 -0.6799999999999999 0  0.3 -0.6799999999999999 0  0.4 -0.6799999999999999 0  0.5 -0.6799999999999999 0  -0.5 -0.6599999999999999 0  -0.4 -0.6599999999999999 0  -0.3 -0.6599999999999999 0  -0.2 -0.6599999999999999 0  -0.09999999999999998 -0.6599999999999999 0  0 -0.6599999999999999 0  0.09999999999999998 -0.6599999999999999 0  0.2 -0.6599999999999999 0  0.3 -0.6599999999999999 0  0.4 -0.6599999999999999 0  0.5 -0.6599999999999999 0  -0.5 -0.64 0  -0.4 -0.64 0  -0.3 -0.64 0  -0.2 -0.64 0  -0.09999999999999998 -0.64 0  0 -0.64 0  0.09999999999999998 -0.64 0  0.2 -0.64 0  0.3 -0.64 0  0.4 -0.64 0  0.5 -0.64 0  -0.5 -0.62 0  -0.4 -0.62 0  -0.3 -0.62 0  -0.2 -0.62 0  -0.09999999999999998 -0.62 0  0 -0.62 0  0.09999999999999998 -0.62 0  0.2 -0.62 0  0.3 -0.62 0  0.4 -0.62 0  0.5 -0.62 0  -0.5 -0.6 0  -0.4 -0.6 0  -0.3 -0.6 0  -0.2 -0.6 0  -0.09999999999999998 -0.6 0  0 -0.6 0  0.09999999999999998 -0.6 0  0.2 -0.6 0  0.3 -0.6 0  0.4 -0.6 0  0.5 -0.6 0  -0.5 -0.5800000000000001 0  -0.4 -0.5800000000000001 0  -0.3 -0.5800000000000001 0  -0.2 -0.5800000000000001 0  -0.09999999999999998 -0.5800000000000001 0  0 -0.5800000000000001 0  0.09999999999999998 -0.5800000000000001 0  0.2 -0.5800000000000001 0  0.3 -0.5800000000000001 0  0.4 -0.5800000000000001 0  0.5 -0.5800000000000001 0  -0.5 -0.5600000000000001 0  -0.4 -0.5600000000000001 0  -0.3 -0.5600000000000001 0  -0.2 -0.5600000000000001 0  -0.09999999999999998 -0.5600000000000001 0  0 -0.5600000000000001 0  0.09999999999999998 -0.5600000000000001 0  0.2 -0.5600000000000001 0  0.3 -0.5600000000000001 0  0.4 -0.5600000000000001 0  0.5 -0.5600000000000001 0  -0.5 -0.54 0  -0.4 -0.54 0  -0.3 -0.54 0  -0.2 -0.54 0  -0.09999999999999998 -0.54 0  0 -0.54 0  0.09999999999999998 -0.54 0  0.2 -0.54 0  0.3 -0.54 0  0.4 -0.54 0  0.5 -0.54 0  -0.5 -0.52 0  -0.4 -0.52 0  -0.3 -0.52 0  -0.2 -0.52 0  -0.09999999999999998 -0.52 0  0 -0.52 0  0.09999999999999998 -0.52 0  0.2 -0.52 0  0.3 -0.52 0  0.4 -0.52 0  0.5 -0.52 0  -0.5 -0.5 0  -0.4 -0.5 0  -0.3 -0.5 0  -0.2 -0.5 0  -0.09999999999999998 -0.5 0  0 -0.5 0  0.09999999999999998 -0.5 0  0.2 -0.5 0  0.3 -0.5 0  0.4 -0.5 0  0.5 -0.5 0  -0.5 -0.48 0  -0.4 -0.48 0  -0.3 -0.48 0  -0.2 -0.48 0  -0.09999999999999998 -0.48 0  0 -0.48 0  0.09999999999999998 -0.48 0  0.2 -0.48 0  0.3 -0.48 0  0.4 -0.48 0  0.5 -0.48 0  -0.5 -0.46 0  -0.4 -0.46 0  -0.3 -0.46 0  -0.2 -0.46 0  -0.09999999999999998 -0.46 0  0 -0.46 0  0.09999999999999998 -0.46 0  0.2 -0.46 0  0.3 -0.46 0  0.4 -0.46 0  0.5 -0.46 0  -0.5 -0.4399999999999999 0  -0.4 -0.4399999999999999 0  -0.3 -0.4399999999999999 0  -0.2 -0.4399999999999999 0  -0.09999999999999998 -0.4399999999999999 0  0 -0.4399999999999999 0  0.09999999999999998 -0.4399999999999999 0  0.2 -0.4399999999999999 0  0.3 -0.4399999999999999 0  0.4 -0.4399999999999999 0  0.5 -0.4399999999999999 0  -0.5 -0.42 0  -0.4 -0.42 0  -0.3 -0.42 0  -0.2 -0.42 0  -0.09999999999999998 -0.42 0  0 -0.42 0  0.09999999999999998 -0.42 0  0.2 -0.42 0  0.3 -0.42 0  0.4 -0.42 0  0.5 -0.42 0  -0.5 -0.4 0  -0.4 -0.4 0  -0.3 -0.4 0  -0.2 -0.4 0  -0.09999999999999998 -0.4 0  0 -0.4 0  0.09999999999999998 -0.4 0  0.2 -0.4 0  0.3 -0.4 0  0.4 -0.4 0  0.5 -0.4 0  -0.5 -0.38 0  -0.4 -0.38 0  -0.3 -0.38 0  -0.2 -0.38 0  -0.09999999999999998 -0.38 0  0 -0.38 0  0.09999999999999998 -0.38 0  0.2 -0.38 0  0.3 -0.38 0  0.4 -0.38 0  0.5 -0.38 0  -0.5 -0.36 0  -0.4 -0.36 0  -0.3 -0.36 0  -0.2 -0.36 0  -0.09999999999999998 -0.36 0  0 -0.36 0  0.09999999999999998 -0.36 0  0.2 -0.36 0  0.3 -0.36 0  0.4 -0.36 0  0.5 -0.36 0  -0.5 -0.34 0  -0.4 -0.34 0  -0.3 -0.34 0  -0.2 -0.34 0  -0.09999999999999998 -0.34 0  0 -0.34 0  0.09999999999999998 -0.34 0  0.2 -0.34 0  0.3 -0.34 0  0.4 -0.34 0  0.5 -0.34 0  -0.5 -0.32 0  -0.4 -0.32 0  -0.3 -0.32 0  -0.2 -0.32 0  -0.09999999999999998 -0.32 0  0 -0.32 0  0.09999999999999998 -0.32 0  0.2 -0.32 0  0.3 -0.32 0  0.4 -0.32 0  0.5 -0.32 0  -0.5 -0.3 0  -0.4 -0.3 0  -0.3 -0.3 0  -0.2 -0.3 0  -0.09999999999999998 -0.3 0  0 -0.3 0  0.09999999999999998 -0.3 0  0.2 -0.3 0  0.3 -0.3 0  0.4 -0.3 0  0.5 -0.3 0  -0.5 -0.28 0  -0.4 -0.28 0  -0.3 -0.28 0  -0.2 -0.28 0  -0.09999999999999998 -0.28 0  0 -0.28 0  0.09999999999999998 -0.28 0  0.2 -0.28 0  0.3 -0.28 0  0.4 -0.28 0  0.5 -0.28 0  -0.5 -0.26 0  -0.4 -0.26 0  -0.3 -0.26 0  -0.2 -0.26 0  -0.09999999999999998 -0.26 0  0 -0.26 0  0.09999999999999998 -0.26 0  0.2 -0.26 0  0.3 -0.26 0  0.4 -0.26 0  0.5 -0.26 0  -0.5 -0.24 0  -0.4 -0.24 0  -0.3 -0.24 0  -0.2 -0.24 0  -0.09999999999999998 -0.24 0  0 -0.24 0  0.09999999999999998 -0.24 0  0.2 -0.24 0  0.3 -0.24 0  0.4 -0.24 0  0.5 -0.24 0  -0.5 -0.22 0  -0.4 -0.22 0  -0.3 -0.22 0  -0.2 -0.22 0  -0.09999999999999998 -0.22 0  0 -0.22 0  0.09999999999999998 -0.22 0  0.2 -0.22 0  0.3 -0.22 0  0.4 -0.22 0  0.5 -0.22 0  -0.5 -0.2 0  -0.4 -0.2 0  -0.3 -0.2 0  -0.2 -0.2 0  -0.09999999999999998 -0.2 0  0 -0.2 0  0.09999999999999998 -0.2 0  0.2 -0.2 0  0.3 -0.2 0  0.4 -0.2 0  0.5 -0.2 0  -0.5 -0.18 0  -0.4 -0.18 0  -0.3 -0.18 0  -0.2 -0.18 0  -0.09999999999999998 -0.18 0  0 -0.18 0  0.09999999999999998 -0.18 0  0.2 -0.18 0  0.3 -0.18 0  0.4 -0.18 0  0.5 -0.18 0  -0.5 -0.16 0  -0.4 -0.16 0  -0.3 -0.16 0  -0.2 -0.16 0  -0.09999999999999998 -0.16 0  0 -0.16 0  0.09999999999999998 -0.16 0  0.2 -0.16 0  0.3 -0.16 0  0.4 -0.16 0  0.5 -0.16 0  -0.5 -0.14 0  -0.4 -0.14 0  -0.3 -0.14 0  -0.2 -0.14 0  -0.09999999999999998 -0.14 0  0 -0.14 0  0.09999999999999998 -0.14 0  0.2 -0.14 0  0.3 -0.14 0  0.4 -0.14 0  0.5 -0.14 0  -0.5 -0.12 0  -0.4 -0.12 0  -0.3 -0.12 0  -0.2 -0.12 0  -0.09999999999999998 -0.12 0  0 -0.12 0  0.09999999999999998 -0.12 0  0.2 -0.12 0  0.3 -0.12 0  0.4 -0.12 0  0.5 -0.12 0  -0.5 -0.09999999999999998 0  -0.4 -0.09999999999999998 0  -0.3 -0.09999999999999998 0  -0.2 -0.09999999999999998 0  -0.09999999999999998 -0.09999999999999998 0  0 -0.09999999999999998 0  0.09999999999999998 -0.09999999999999998 0  0.2 -0.09999999999999998 0  0.3 -0.09999999999999998 0  0.4 -0.09999999999999998 0  0.5 -0.09999999999999998 0  -0.5 -0.07999999999999996 0  -0.4 -0.07999999999999996 0  -0.3 -0.07999999999999996 0  -0.2 -0.07999999999999996 0  -0.09999999999999998 -0.07999999999999996 0  0 -0.07999999999999996 0  0.09999999999999998 -0.07999999999999996 0  0.2 -0.07999999999999996 0  0.3 -0.07999999999999996 0  0.4 -0.07999999999999996 0  0.5 -0.07999999999999996 0  -0.5 -0.06000000000000005 0  -0.4 -0.06000000000000005 0  -0.3 -0.06000000000000005 0  -0.2 -0.06000000000000005 0  -0.09999999
[...]
<PointData  Vectors="displacement"> 
<DataArray  type="Float64"  Name="displacement"  NumberOfComponents="3" format="ascii">-2.1158898314801155e-33 0.0000000000000000e+00 0.0000000000000000e+00  2.8211864419734870e-34 -9.9261673506363213e-20 0.0000000000000000e+00  -2.0277277551684442e-34 -1.1593453272813519e-19 0.0000000000000000e+00  5.6423728839469758e-34 -2.4815418376590811e-19 0.0000000000000000e+00  -5.6933344836319653e-33 -9.2548409298915454e-21 0.0000000000000000e+00  3.9496610187628819e-33 -2.9778502051908966e-20 0.0000000000000000e+00  -9.8865503388885370e-33 1.3023732562448666e-19 0.0000000000000000e+00  2.8211864419734870e-34 -1.3896634290890850e-19 0.0000000000000000e+00  -8.6272954055451737e-34 -1.0732668447875523e-19 0.0000000000000000e+00  2.8211864419734879e-34 1.1911400820763589e-19 0.0000000000000000e+00  2.8211864419734866e-34 -1.1911400820763584e-19 0.0000000000000000e+00  1.6927118651840926e-33 -8.2882090174622670e-04 0.0000000000000000e+00  -2.5451390400440835e-17 -8.2882090174623527e-04 0.0000000000000000e+00  -3.4642480585554956e-17 -8.2882090174624080e-04 0.0000000000000000e+00  -3.9804035541701756e-17 -8.2882090174624253e-04 0.0000000000000000e+00  -4.1741644879492469e-17 -8.2882090174625706e-04 0.0000000000000000e+00  -3.8165981422780601e-17 -8.2882090174626433e-04 0.0000000000000000e+00  -3.1584751431829950e-17 -8.2882090174627191e-04 0.0000000000000000e+00  -1.4579087253223612e-17 -8.2882090174626075e-04 0.0000000000000000e+00  -1.1177708938957505e-17 -8.2882090174623787e-04 0.0000000000000000e+00  -1.2446647492470197e-17 -8.2882090174623483e-04 0.0000000000000000e+00  2.7509123306234125e-33 -8.2882090174623364e-04 0.0000000000000000e+00  -6.8350776265460104e-33 -1.6582881610119498e-03 0.0000000000000000e+00  -4.6307805680690796e-17 -1.6582881610119702e-03 0.0000000000000000e+00  -6.5725468081055172e-17 -1.6582881610119804e-03 0.0000000000000000e+00  -7.6026834405328623e-17 -1.6582881610119852e-03 0.0000000000000000e+00  -7.9468009061804941e-17 -1.6582881610120155e-03 0.0000000000000000e+00  -7.3696379565020919e-17 -1.6582881610120316e-03 0.0000000000000000e+00  -5.9787583138030957e-17 -1.6582881610120444e-03 0.0000000000000000e+00  -3.0509066258922908e-17 -1.6582881610120238e-03 0.0000000000000000e+00  -2.2825635060925545e-17 -1.6582881610119758e-03 0.0000000000000000e+00  -2.2296678193202819e-17 -1.6582881610119691e-03 0.0000000000000000e+00  -2.3375544804923184e-33 -1.6582881610119708e-03 0.0000000000000000e+00  0.0000000000000000e+00 -2.4890475144540075e-03 0.0000000000000000e+00  -6.4220263913290313e-17 -2.4890475144540348e-03 0.0000000000000000e+00  -9.2957343695070551e-17 -2.4890475144540556e-03 0.0000000000000000e+00  -1.0833277233967558e-16 -2.4890475144540639e-03 0.0000000000000000e+00  -1.1339484718997613e-16 -2.4890475144541085e-03 0.0000000000000000e+00  -1.0689429603751005e-16 -2.4890475144541324e-03 0.0000000000000000e+00  -8.5548630782206153e-17 -2.4890475144541536e-03 0.0000000000000000e+00  -4.6944329804309280e-17 -2.4890475144541207e-03 0.0000000000000000e+00  -3.4924596547945720e-17 -2.4890475144540491e-03 0.0000000000000000e+00  -3.1018957724577896e-17 -2.4890475144540409e-03 0.0000000000000000e+00  1.1284745767893965e-33 -2.4890475144540435e-03 0.0000000000000000e+00  -1.2414294743050953e-32 -3.3217434574655934e-03 0.0000000000000000e+00  -7.9925899195070366e-17 -3.3217434574656316e-03 0.0000000000000000e+00  -1.1690340015374156e-16 -3.3217434574656576e-03 0.0000000000000000e+00  -1.3690141739462170e-16 -3.3217434574656750e-03 0.0000000000000000e+00  -1.4501191409514855e-16 -3.3217434574657283e-03 0.0000000000000000e+00  -1.3709898746756010e-16 -3.3217434574657652e-03 0.0000000000000000e+00  -1.0912193581350148e-16 -3.3217434574657968e-03 0.0000000000000000e+00  -6.4286203788611326e-17 -3.3217434574657465e-03 0.0000000000000000e+00  -4.7295412215653293e-17 -3.3217434574656494e-03 0.0000000000000000e+00  -3.9055054323172064e-17 -3.3217434574656368e-03 0.0000000000000000e+00  -1.8071917619857900e-33 -3.3217434574656442e-03 0.0000000000000000e+00  -4.5138983071575806e-33 -4.1570186246995960e-03 0.0000000000000000e+00  -9.2057417926158384e-17 -4.1570186246996446e-03 0.0000000000000000e+00  -1.3820161776829967e-16 -4.1570186246996802e-03 0.0000000000000000e+00  -1.6246977342680797e-16 -4.1570186246996923e-03 0.0000000000000000e+00  -1.7429036753451025e-16 -4.1570186246997756e-03 0.0000000000000000e+00  -1.6446990360043333e-16 -4.1570186246998233e-03 0.0000000000000000e+00  -1.3152813543015932e-16 -4.1570186246998658e-03 0.0000000000000000e+00  -8.1312984028251383e-17 -4.1570186246997964e-03 0.0000000000000000e+00  -5.9053685877610316e-17 -4.1570186246996732e-03 0.0000000000000000e+00  -4.5828003749119267e-17 -4.1570186246996550e-03 0.0000000000000000e+00  9.5020405927494250e-33 -4.1570186246996706e-03 0.0000000000000000e+00  -2.2844127485879064e-33 -4.9955131719805219e-03 0.0000000000000000e+00  -1.0239799189173424e-16 -4.9955131719805895e-03 0.0000000000000000e+00  -1.5669101810539000e-16 -4.9955131719806277e-03 0.0000000000000000e+00  -1.8492411293573977e-16 -4.9955131719806476e-03 0.0000000000000000e+00  -1.9883736967963794e-16 -4.9955131719807448e-03 0.0000000000000000e+00  -1.8979844847373217e-16 -4.9955131719808090e-03 0.0000000000000000e+00  -1.5187210270278124e-16 -4.9955131719808593e-03 0.0000000000000000e+00  -9.7821513287169714e-17 -4.9955131719807734e-03 0.0000000000000000e+00  -7.0970847872200875e-17 -4.9955131719806234e-03 0.0000000000000000e+00  -5.1247919201597378e-17 -4.9955131719806077e-03 0.0000000000000000e+00  3.2242130765411296e-34 -4.9955131719806147e-03 0.0000000000000000e+00  -1.4670169498262137e-32 -5.8378641600720345e-03 0.0000000000000000e+00  -1.1153641517099215e-16 -5.8378641600721030e-03 0.0000000000000000e+00  -1.7219676909478379e-16 -5.8378641600721577e-03 0.0000000000000000e+00  -2.0422573600417809e-16 -5.8378641600721768e-03 0.0000000000000000e+00  -2.2265261837328480e-16 -5.8378641600722930e-03 0.0000000000000000e+00  -2.1235138262332562e-16 -5.8378641600723763e-03 0.0000000000000000e+00  -1.7079426990090862e-16 -5.8378641600724292e-03 0.0000000000000000e+00  -1.1250158528266300e-16 -5.8378641600723320e-03 0.0000000000000000e+00  -8.0825494868102934e-17 -5.8378641600721577e-03 0.0000000000000000e+00  -5.7375259118557736e-17 -5.8378641600721291e-03 0.0000000000000000e+00  -4.5138983071575799e-33 -5.8378641600721455e-03 0.0000000000000000e+00  -5.3279374317685530e-33 -6.6847049407703562e-03 0.0000000000000000e+00  -1.2008214953992876e-16 -6.6847049407704464e-03 0.0000000000000000e+00  -1.8498394638228584e-16 -6.6847049407704941e-03 0.0000000000000000e+00  -2.2335956091927359e-16 -6.6847049407705340e-03 0.0000000000000000e+00  -2.4478816028057792e-16 -6.6847049407706641e-03 0.0000000000000000e+00  -2.3332520570044060e-16 -6.6847049407707535e-03 0.0000000000000000e+00  -1.8719583749698921e-16 -6.6847049407708237e-03 0.0000000000000000e+00  -1.2538993360685760e-16 -6.6847049407707014e-03 0.0000000000000000e+00  -9.0320619554575747e-17 -6.6847049407705011e-03 0.0000000000000000e+00  -6.3779328328196612e-17 -6.6847049407704803e-03 0.0000000000000000e+00  9.4311747441637568e-33 -6.6847049407704924e-03 0.0000000000000000e+00  -1.3541694921472799e-32 -7.5366645457982133e-03 0.0000000000000000e+00  -1.2678588635125756e-16 -7.5366645457983113e-03 0.0000000000000000e+00  -1.9573365404594180e-16 -7.5366645457983781e-03 0.0000000000000000e+00  -2.3955158239546768e-16 -7.5366645457984067e-03 0.0000000000000000e+00  -2.6471181107316685e-16 -7.5366645457985776e-03 0.0000000000000000e+00  -2.5333221336462815e-16 -7.5366645457986782e-03 0.0000000000000000e+00  -2.0119062225655810e-16 -7.5366645457987432e-03 0.0000000000000000e+00  -1.3752801929733435e-16 -7.5366645457986114e-03 0.0000000000000000e+00  -9.8936392792251661e-17 -7.5366645457983841e-03 0.0000000000000000e+00  -7.0133348450755865e-17 -7.5366645457983494e-03 0.0000000000000000e+00  -5.6472938178802012e-33 -7.5366645457983729e-03 0.0000000000000000e+00  -4.4491861309491296e-33 -8.3943670789785648e-03 0.0000000000000000e+00  -1.3258573100934657e-16 -8.3943670789786828e-03 0.0000000000000000e+00  -2.0672035004331711e-16 -8.3943670789787470e-03 0.0000000000000000e+00  -2.5297153770280067e-16 -8.3943670789787869e-03 0.0000000000000000e+00  -2.8210238919351560e-16 -8.3943670789789742e-03 0.0000000000000000e+00  -2.7333669889687098e-16 -8.3943670789791008e-03 0.0000000000000000e+00  -2.1575618339266669e-16 -8.3943670789791754e-03 0.0000000000000000e+00  -1.4513808560995679e-16 -8.3943670789790141e-03 0.0000000000000000e+00  -1.0693880210895869e-16 -8.3943670789787539e-03 0.0000000000000000e+00  -7.4512045210095381e-17 -8.3943670789787209e-03 0.0000000000000000e+00  1.3702905575299795e-32 -8.3943670789787504e-03 0.0000000000000000e+00  -9.0277966143151612e-33 -9.2584311121730860e-03 0.0000000000000000e+00  -1.3791595714749254e-16 -9.2584311121732179e-03 0.0000000000000000e+00  -2.1447028432490882e-16 -9.2584311121733012e-03 0.0000000000000000e+00  -2.6346870129582997e-16 -9.2584311121733359e-03 0.0000000000000000e+00  -2.9661896405627181e-16 -9.2584311121735492e-03 0.0000000000000000e+00  -2.9192421653555586e-16 -9.2584311121736915e-03 0.0000000000000000e+00  -2.2900556879295856e-16 -9.2584311121737713e-03 0.0000000000000000e+00  -1.5349502766985128e-16 -9.2584311121735804e-03 0.0000000000000000e+00  -1.1415353843099983e-16 -9.2584311121733081e-03 0.0000000000000000e+00  -7.8020034873261018e-17 -9.2584311121732526e-03 0.0000000000000000e+00  -2.2569491535787900e-33 -9.2584311121732994e-03 0.0000000000000000e+00  1.2554162184439529e-32 -1.0129469085476329e-02 0.0000000000000000e+00  -1.4168067570092278e-16 -1.0129469085476480e-02 0.0000000000000000e+00  -2.2142194211397614e-16 -1.0129469085476574e-02 0.0000000000000000e+00  -2.7320542662294217e-16 -1.0129469085476612e-02 0.0000000000000000e+00  -3.0781874166948967e-16 -1.0129469085476829e-02 0.0000000000000000e+00  -3.0719230929271337e-16 -1.0129469085477009e-02 0.0000000000000000e+00  -2.4144625646459057e-16 -1.0129469085477103e-02 0.0000000000000000e+00  -1.6123525404013279e-16 -1.0129469085476878e-02 0.0000000000000000e+00  -1.2029340723483060e-16 -1.0129469085476567e-02 0.0000000000000000e+00  -8.1152308806462178e-17 -1.0129469085476524e-02 0.0000000000000000e+00  9.2357419380933585e-33 -1.0129469085476555e-02 0.0000000000000000e+00  -4.5138983071575806e-33 -1.1008086712162938e-02 0.0000000000000000e+00  -1.4512407195806771e-16 -1.1008086712163115e-02 0.0000000000000000e+00  -2.2654421627434150e-16 -1.1008086712163214e-02 0.0000000000000000e+00  -2.8154535381116557e-16 -1.1008086712163259e-02 0.0000000000000000e+00  -3.1666446504237035e-16 -1.1008086712163506e-02 0.0000000000000000e+00  -3.2077410391275175e-16 -1.1008086712163693e-02 0.0000000000000000e+00  -2.5310626889514648e-16 -1.1008086712163809e-02 0.0000000000000000e+00  -1.6945627326679119e-16 -1.1008086712163526e-02 0.0000000000000000e+00  -1.2613816124891428e-16 -1.1008086712163193e-02 0.0000000000000000e+00  -8.4005115658761028e-17 -1.1008086712163159e-02 0.0000000000000000e+00  -2.9112345328947859e-33 -1.1008086712163185e-02 0.0000000000000000e+00  2.2536329239598154e-33 -1.1894882388892206e-02 0.0000000000000000e+00  -1.4708763431379058e-16 -1.1894882388892405e-02 0.0000000000000000e+00  -2.3246772418816049e-16 -1.1894882388892499e-02 0.0000000000000000e+00  -2.8559339417767912e-16 -1.1894882388892573e-02 0.0000000000000000e+00  -3.2531896447231247e-16 -1.1894882388892827e-02 0.0000000000000000e+00  -3.3100526426604425e-16 -1.1894882388893040e-02 0.0000000000000000e+00  -2.6329819645098922e-16 -1.1894882388893139e-02 0.0000000000000000e+00  -1.7810625802020666e-16 -1.1894882388892846e-02 0.0000000000000000e+00  -1.2880639445410663e-16 -1.1894882388892474e-02 0.0000000000000000e+00  -8.6130606305820804e-17 -1.1894882388892429e-02 0.0000000000000000e+00  1.3783510902213324e-32 -1.1894882388892468e-02 0.0000000000000000e+00  -1.1284745767893952e-32 -1.2790446611681203e-02 0.0000000000000000e+00  -1.4915708860280521e-16 -1.2790446611681393e-02 0.0000000000000000e+00  -2.3675342422951795e-16 -1.2790446611681517e-02 0.0000000000000000e+00  -2.8736608433303569e-16 -1.2790446611681588e-02 0.0000000000000000e+00  -3.3164629694389813e-16 -1.2790446611681876e-02 0.0000000000000000e+00  -3.3891346441733756e-16 -1.2790446611682103e-02 0.0000000000000000e+00  -2.7312697576519697e-16 -1.2790446611682217e-02 0.0000000000000000e+00  -1.8690836718426526e-16 -1.2790446611681877e-02 0.0000000000000000e+00  -1.3437654290828653e-16 -1.2790446611681496e-02 0.0000000000000000e+00  -8.7171622423731952e-17 -1.2790446611681421e-02 0.0000000000000000e+00  -3.3854237303681853e-33 -1.2790446611681470e-02 0.0000000000000000e+00  -6.4334854608111078e-34 -1.3695361398165047e-02 0.0000000000000000e+00  -1.5007948883523313e-16 -1.3695361398165261e-02 0.0000000000000000e+00  -2.3680825376725299e-16 -1.3695361398165386e-02 0.0000000000000000e+00  -2.8925840554251141e-16 -1.3695361398165483e-02 0.0000000000000000e+00  -3.3698288203794965e-16 -1.3695361398165767e-02 0.0000000000000000e+00  -3.4507483595807134e-16 -1.3695361398166036e-02 0.0000000000000000e+00  -2.8432218335919920e-16 -1.3695361398166123e-02 0.0000000000000000e+00  -1.9609508762511400e-16 -1.3695361398165764e-02 0.0000000000000000e+00  -1.3835649172322948e-16 -1.3695361398165354e-02 0.0000000000000000e+00  -8.8322995004257324e-17 -1.3695361398165285e-02 0.0000000000000000e+00  1.7917625081377365e-32 -1.3695361398165339e-02 0.0000000000000000e+00  -9.0277966143151995e-33 -1.4610199716670092e-02 0.0000000000000000e+00  -1.5107911746156368e-16 -1.4610199716670328e-02 0.0000000000000000e+00  -2.3669729541363628e-16 -1.4610199716670470e-02 0.0000000000000000e+00  -2.9015765453207852e-16 -1.4610199716670569e-02 0.0000000000000000e+00  -3.3927368089409092e-16 -1.4610199716670878e-02 0.0000000000000000e+00  -3.5064294934137429e-16 -1.4610199716671143e-02 0.0000000000000000e+00  -2.9602337495442633e-16 -1.4610199716671241e-02 0.0000000000000000e+00  -2.0470854172618848e-16 -1.4610199716670864e-02 0.0000000000000000e+00  -1.4293306906253272e-16 -1.4610199716670413e-02 0.0000000000000000e+00  -8.8797868602973137e-17 -1.4610199716670351e-02 0.0000000000000000e+00  1.9315540615413858e-33 -1.4610199716670390e-02 0.0000000000000000e+00  -1.5915717731916450e-32 -1.5535524922632564e-02 0.0000000000000000e+00  -1.5087202166467694e-16 -1.5535524922632819e-02 0.0000000000000000e+00  -2.3569113441785096e-16 -1.5535524922632970e-02 0.0000000000000000e+00  -2.8873970543740901e-16 -1.5535524922633088e-02 0.0000000000000000e+00  -3.4059797014377584e-16 -1.5535524922633383e-02 0.0000000000000000e+00  -3.5450049395421050e-16 -1.5535524922633695e-02 0.0000000000000000e+00  -3.0498139861112412e-16 -1.5535524922633782e-02 0.0000000000000000e+00  -2.1476018647336414e-16 -1.5535524922633385e-02 0.0000000000000000e+00  -1.4664004536626681e-16 -1.5535524922632880e-02 0.0000000000000000e+00  -8.8937309202719804e-17 -1.5535524922632833e-02 0.0000000000000000e+00  2.4907046016280250e-32 -1.5535524922632868e-02 0.0000000000000000e+00  2.2569491535787904e-32 -1.6471890202902538e-02 0.0000000000000000e+00  -1.5251528825140500e-16 -1.6471890202902816e-02 0.0000000000000000e+00  -2.3322978189923389e-16 -1.6471890202902954e-02 0.0000000000000000e+00  -2.8758415609674210e-16 -1.6471890202903093e-02 0.0000000000000000e+00  -3.3999926277438257e-16 -1.6471890202903416e-02 0.0000000000000000e+00  -3.5686635225428810e-16 -1.6471890202903735e-02 0.0000000000000000e+00  -3.1319816974768651e-16 -1.6471890202903874e-02 0.0000000000000000e+00  -2.2290118631311323e-16 -1.6471890202903374e-02 0.0000000000000000e+00  -1.5167253357965019e-16 -1.6471890202902881e-02 0.0000000000000000e+00  -9.0796706068606038e-17 -1.6471890202902819e-02 0.0000000000000000e+00  -1.1284745767893950e-33 -1.6471890202902854e-02 0.0000000000000000e+00  -2.2712289431788900e-32 -1.7419838028479066e-02 0.0000000000000000e+00  -1.5384089337585159e-16 -1.7419838028479347e-02 0.0000000000000000e+00  -2.2844012294408629e-16 -1.7419838028479507e-02 0.0000000000000000e+00  -2.8446106650963887e-16 -1.7419838028479642e-02 0.0000000000000000e+00  -3.3826758486221205e-16 -1.7419838028480017e-02 0.0000000000000000e+00  -3.5627410722233114e-16 -1.7419838028480315e-02 0.0000000000000000e+00  -3.1976493473197661e-16 -1.7419838028480419e-02 0.0000000000000000e+00  -2.3028062831334976e-16 -1.7419838028479944e-02 0.0000000000000000e+00  -1.5623144073617598e-16 -1.7419838028479382e-02 0.0000000000000000e+00  -9.2308862104958190e-17 -1.7419838028479330e-02 0.0000000000000000e+00  -1.5655368303086670e-32 -1.7419838028479399e-02 0.0000000000000000e+00  -4.5138983071575881e-33 -1.8379899616228480e-02 0.0000000000000000e+00  -1.5014741131715066e-16 -1.8379899616228778e-02 0.0000000000000000e+00  -2.2484787872772669e-16 -1.8379899616228934e-02 0.0000000000000000e+00  -2.8129998410047198e-16 -1.8379899616229073e-02 0.0000000000000000e+00  -3.3395398141953568e-16 -1.8379899616229465e-02 0.0000000000000000e+00  -3.5543344053120115e-16 -1.8379899616229788e-02 0.0000000000000000e+00  -3.2442871348008953e-16 -1.8379899616229895e-02 0.0000000000000000e+00  -2.4279454789429917e-16 -1.8379899616229354e-02 0.0000000000000000e+00  -1.5949737124632303e-16 -1.8379899616228778e-02 0.0000000000000000e+00  -9.2697771262323920e-17 -1.8379899616228764e-02 0.0000000000000000e+00  2.9591427342594298e-32 -1.8379899616228788e-02 0.0000000000000000e+00  4.4648227597439175e-33 -1.9352594400143131e-02 0.0000000000000000e+00  -1.4959077319980434e-16 -1.9352594400143461e-02 0.0000000000000000e+00  -2.2244430795620268e-16 -1.9352594400143593e-02 0.0000000000000000e+00  -2.7517880331144366e-16 -1.9352594400143718e-02 0.0000000000000000e+00  -3.2641917143649864e-16 -1.9352594400144172e-02 0.0000000000000000e+00  -3.5327328830251596e-16 -1.9352594400144477e-02 0.0000000000000000e+00  -3.2822468450964666e-16 -1.9352594400144592e-02 0.0000000000000000e+00  -2.5036049476811715e-16 -1.9352594400144047e-02 0.0000000000000000e+00  -1.6689407393589137e-16 -1.9352594400143440e-02 0.0000000000000000e+00  -9.4612574366315211e-17 -1.9352594400143395e-02 0.0000000000000000e+00  -7.3350847491310672e-33 -1.9352594400143450e-02 0.0000000000000000e+00  4.5138983071575806e-33 -2.0338429512702160e-02 0.0000000000000000e+00  -1.5073014001714928e-16 -2.0338429512702486e-02 0.0000000000000000e+00  -2.2511397089190182e-16 -2.0338429512702642e-02 0.0000000000000000e+00  -2.6524286257450784e-16 -2.0338429512702746e-02 0.0000000000000000e+00  -3.1461169455817334e-16 -2.0338429512703229e-02 0.0000000000000000e+00  -3.5072513411568788e-16 -2.0338429512703548e-02 0.0000000000000000e+00  -3.2935505649613145e-16 -2.0338429512703669e-02 0.0000000000000000e+00  -2.5253222771153096e-16 -2.0338429512703093e-02 0.0000000000000000e+00  -1.7242772238528660e-16 -2.0338429512702486e-02 0.0000000000000000e+00  -9.9208231392005957e-17 -2.0338429512702406e-02 0.0000000000000000e+00  7.8993220375257652e-33 -2.0338429512702476e-02 0.0000000000000000e+00  -9.5206561982506880e-33 -2.1337899276899594e-02 0.0000000000000000e+00  -1.5259569079272454e-16 -2.1337899276899962e-02 0.0000000000000000e+00  -2.2700156218151689e-16 -2.1337899276900069e-02 0.0000000000000000e+00  -2.5646873186532392e-16 -2.1337899276900198e-02 0.0000000000000000e+00  -3.0361115932347506e-16 -2.1337899276900694e-02 0.0000000000000000e+00  -3.4563984560612922e-16 -2.1337899276901041e-02 0.0000000000000000e+00  -3.2872663163335113e-16 -2.1337899276901176e-02 0.0000000000000000e+00  -2.5293210781700234e-16 -2.1337899276900552e-02 0.0000000000000000e+00  -1.7661659512600729e-16 -2.1337899276899920e-02 0.0000000000000000e+00  -1.0415790436850624e-16 -2.1337899276899833e-02 0.0000000000000000e+00  -7.1598091151776936e-34 -2.1337899276899906e-02 0.0000000000000000e+00  -6.7708474607363706e-33 -2.2351484709507690e-02 0.0000000000000000e+00  -1.5536036166459347e-16 -2.235148