<?xml version="1.0"?>
<VTKFile type="UnstructuredGrid"  version="0.1"  >
<UnstructuredGrid>
<Piece  NumberOfPoints="1091" NumberOfCells="2050">
<Points>
<DataArray  type="Float64"  NumberOfComponents="3"  format="ascii">-0.5 -1 0  -0.4 -1 0  -0.3 -1 0  -0.2 -1 0  -0.09999999999999998 -1 0  0 -1 0  0.09999999999999998 -1 0  0.2 -1 0  0.3 -1 0  0.4 -1 0  0.5 -1 0  -0.5 -0.98 0  -0.4 -0.98 0  -0.3 -0.98 0  -0.2 -0.98 0  -0.09999999999999998 -0.98 0  0 -0.98 0  0.09999999999999998 -0.98 0  0.2 -0.98 0  0.3 -0.98 0  0.4 -0.98 0  0.5 -0.98 0  -0.5 -0.96 0  -0.4 -0.96 0  -0.3 -0.96 0  -0.2 -0.96 0  -0.09999999999999998 -0.96 0  0 -0.96 0  0.09999999999999998 -0.96 0  0.2 -0.96 0  0.3 -0.96 0  0.4 -0.96 0  0.5 -0.96 0  -0.5 -0.9399999999999999 0  -0.4 -0.9399999999999999 0  -0.3 -0.9399999999999999 0  -0.2 -0.9399999999999999 0  -0.09999999999999998 -0.9399999999999999 0  0 -0.9399999999999999 0  0.09999999999999998 -0.9399999999999999 0  0.2 -0.9399999999999999 0  0.3 -0.9399999999999999 0  0.4 -0.9399999999999999 0  0.5 -0.9399999999999999 0  -0.5 -0.92 0  -0.4 -0.92 0  -0.3 -0.92 0  -0.2 -0.92 0  -0.09999999999999998 -0.92 0  0 -0.92 0  0.09999999999999998 -0.92 0  0.2 -0.92 0  0.3 -0.92 0  0.4 -0.92 0  0.5 -0.92 0  -0.5 -0.9 0  -0.4 -0.9 0  -0.3 -0.9 0  -0.2 -0.9 0  -0.09999999999999998 -0.9 0  0 -0.9 0  0.09999999999999998 -0.9 0  0.2 -0.9 0  0.3 -0.9 0  0.4 -0.9 0  0.5 -0.9 0  -0.5 -0.88 0  -0.4 -0.88 0  -0.3 -0.88 0  -0.2 -0.88 0  -0.09999999999999998 -0.88 0  0 -0.88 0  0.09999999999999998 -0.88 0  0.2 -0.88 0  0.3 -0.88 0  0.4 -0.88 0  0.5 -0.88 0  -0.5 -0.86 0  -0.4 -0.86 0  -0.3 -0.86 0  -0.2 -0.86 0  -0.09999999999999998 -0.86 0  0 -0.86 0  0.09999999999999998 -0.86 0  0.2 -0.86 0  0.3 -0.86 0  0.4 -0.86 0  0.5 -0.86 0  -0.5 -0.84 0  -0.4 -0.84 0  -0.3 -0.84 0  -0.2 -0.84 0  -0.09999999999999998 -0.84 0  0 -0.84 0  0.09999999999999998 -0.84 0  0.2 -0.84 0  0.3 -0.84 0  0.4 -0.84 0  0.5 -0.84 0  -0.5 -0.8200000000000001 0  -0.4 -0.8200000000000001 0  -0.3 -0.8200000000000001 0  -0.2 -0.8200000000000001 0  -0.09999999999999998 -0.8200000000000001 0  0 -0.8200000000000001 0  0.09999999999999998 -0.8200000000000001 0  0.2 -0.8200000000000001 0  0.3 -0.8200000000000001 0  0.4 -0.8200000000000001 0  0.5 -0.8200000000000001 0  -0.5 -0.8 0  -0.4 -0.8 0  -0.3 -0.8 0  -0.2 -0.8 0  -0.09999999999999998 -0.8 0  0 -0.8 0  0.09999999999999998 -0.8 0  0.2 -0.8 0  0.3 -0.8 0  0.4 -0.8 0  0.5 -0.8 0  -0.5 -0.78 0  -0.4 -0.78 0  -0.3 -0.78 0  -0.2 -0.78 0  -0.09999999999999998 -0.78 0  0 -0.78 0  0.09999999999999998 -0.78 0  0.2 -0.78 0  0.3 -0.78 0  0.4 -0.78 0  0.5 -0.78 0  -0.5 -0.76 0  -0.4 -0.76 0  -0.3 -0.76 0  -0.2 -0.76 0  -0.09999999999999998 -0.76 0  0 -0.76 0  0.09999999999999998 -0.76 0  0.2 -0.76 0  0.3 -0.76 0  0.4 -0.76 0  0.5 -0.76 0  -0.5 -0.74 0  -0.4 -0.74 0  -0.3 -0.74 0  -0.2 -0.74 0  -0.09999999999999998 -0.74 0  0 -0.74 0  0.09999999999999998 -0.74 0  0.2 -0.74 0  0.3 -0.74 0  0.4 -0.74 0  0.5 -0.74 0  -0.5 -0.72 0  -0.4 -0.72 0  -0.3 -0.72 0  -0.2 -0.72 0  -0.09999999999999998 -0.72 0  0 -0.72 0  0.09999999999999998 -0.72 0  0.2 -0.72 0  0.3 -0.72 0  0.4 -0.72 0  0.5 -0.72 0  -0.5 -0.7 0  -0.4 -0.7 0  -0.3 -0.7 0  -0.2 -0.7 0  -0.09999999999999998 -0.7 0  0 -0.7 0  0.09999999999999998 -0.7 0  0.2 -0.7 0  0.3 -0.7 0  0.4 -0.7 0  0.5 -0.7 0  -0.5 -0.6799999999999999 0  -0.4 -0.6799999999999999 0  -0.3 -0.6799999999999999 0  -0.2 -0.6799999999999999 0  -0.09999999999999998 -0.6799999999999999 0  0 -0.6799999999999999 0  0.09999999999999998 -0.6799999999999999 0  0.2 -0.6799999999999999 0  0.3 -0.6799999999999999 0  0.4 -0.6799999999999999 0  0.5 -0.6799999999999999 0  -0.5 -0.6599999999999999 0  -0.4 -0.6599999999999999 0  -0.3 -0.6599999999999999 0  -0.2 -0.6599999999999999 0  -0.09999999999999998 -0.6599999999999999 0  0 -0.6599999999999999 0  0.09999999999999998 -0.6599999999999999 0  0.2 -0.6599999999999999 0  0.3 -0.6599999999999999 0  0.4 -0.6599999999999999 0  0.5 -0.6599999999999999 0  -0.5 -0.64 0  -0.4 -0.64 0  -0.3 -0.64 0  -0.2 -0.64 0  -0.09999999999999998 -0.64 0  0 -0.64 0  0.09999999999999998 -0.64 0  0.2 -0.64 0  0.3 -0.64 0  0.4 -0.64 0  0.5 -0.64 0  -0.5 -0.62 0  -0.4 -0.62 0  -0.3 -0.62 0  -0.2 -0.62 0  -0.09999999999999998 -0.62 0  0 -0.62 0  0.09999999999999998 -0.62 0  0.2 -0.62 0  0.3 -0.62 0  0.4 -0.62 0  0.5 -0.62 0  -0.5 -0.6 0  -0.4 -0.6 0  -0.3 -0.6 0  -0.2 -0.6 0  -0.09999999999999998 -0.6 0  0 -0.6 0  0.09999999999999998 -0.6 0  0.2 -0.6 0  0.3 -0.6 0  0.4 -0.6 0  0.5 -0.6 0  -0.5 -0.5800000000000001 0  -0.4 -0.5800000000000001 0  -0.3 -0.5800000000000001 0  -0.2 -0.5800000000000001 0  -0.09999999999999998 -0.5800000000000001 0  0 -0.5800000000000001 0  0.09999999999999998 -0.5800000000000001 0  0.2 -0.5800000000000001 0  0.3 -0.5800000000000001 0  0.4 -0.5800000000000001 0  0.5 -0.5800000000000001 0  -0.5 -0.5600000000000001 0  -0.4 -0.5600000000000001 0  -0.3 -0.5600000000000001 0  -0.2 -0.5600000000000001 0  -0.09999999999999998 -0.5600000000000001 0  0 -0.5600000000000001 0  0.09999999999999998 -0.5600000000000001 0  0.2 -0.5600000000000001 0  0.3 -0.5600000000000001 0  0.4 -0.5600000000000001 0  0.5 -0.5600000000000001 0  -0.5 -0.54 0  -0.4 -0.54 0  -0.3 -0.54 0  -0.2 -0.54 0  -0.09999999999999998 -0.54 0  0 -0.54 0  0.09999999999999998 -0.54 0  0.2 -0.54 0  0.3 -0.54 0  0.4 -0.54 0  0.5 -0.54 0  -0.5 -0.52 0  -0.4 -0.52 0  -0.3 -0.52 0  -0.2 -0.52 0  -0.09999999999999998 -0.52 0  0 -0.52 0  0.09999999999999998 -0.52 0  0.2 -0.52 0  0.3 -0.52 0  0.4 -0.52 0  0.5 -0.52 0  -0.5 -0.5 0  -0.4 -0.5 0  -0.3 -0.5 0  -0.2 -0.5 0  -0.09999999999999998 -0.5 0  0 -0.5 0  0.09999999999999998 -0.5 0  0.2 -0.5 0  0.3 -0.5 0  0.4 -0.5 0  0.5 -0.5 0  -0.5 -0.48 0  -0.4 -0.48 0  -0.3 -0.48 0  -0.2 -0.48 0  -0.09999999999999998 -0.48 0  0 -0.48 0  0.09999999999999998 -0.48 0  0.2 -0.48 0  0.3 -0.48 0  0.4 -0.48 0  0.5 -0.48 0  -0.5 -0.46 0  -0.4 -0.46 0  -0.3 -0.46 0  -0.2 -0.46 0  -0.09999999999999998 -0.46 0  0 -0.46 0  0.09999999999999998 -0.46 0  0.2 -0.46 0  0.3 -0.46 0  0.4 -0.46 0  0.5 -0.46 0  -0.5 -0.4399999999999999 0  -0.4 -0.4399999999999999 0  -0.3 -0.4399999999999999 0  -0.2 -0.4399999999999999 0  -0.09999999999999998 -0.4399999999999999 0  0 -0.4399999999999999 0  0.09999999999999998 -0.4399999999999999 0  0.2 -0.4399999999999999 0  0.3 -0.4399999999999999 0  0.4 -0.4399999999999999 0  0.5 -0.4399999999999999 0  -0.5 -0.42 0  -0.4 -0.42 0  -0.3 -0.42 0  -0.2 -0.42 0  -0.09999999999999998 -0.42 0  0 -0.42 0  0.09999999999999998 -0.42 0  0.2 -0.42 0  0.3 -0.42 0  0.4 -0.42 0  0.5 -0.42 0  -0.5 -0.4 0  -0.4 -0.4 0  -0.3 -0.4 0  -0.2 -0.4 0  -0.09999999999999998 -0.4 0  0 -0.4 0  0.09999999999999998 -0.4 0  0.2 -0.4 0  0.3 -0.4 0  0.4 -0.4 0  0.5 -0.4 0  -0.5 -0.38 0  -0.4 -0.38 0  -0.3 -0.38 0  -0.2 -0.38 0  -0.09999999999999998 -0.38 0  0 -0.38 0  0.09999999999999998 -0.38 0  0.2 -0.38 0  0.3 -0.38 0  0.4 -0.38 0  0.5 -0.38 0  -0.5 -0.36 0  -0.4 -0.36 0  -0.3 -0.36 0  -0.2 -0.36 0  -0.09999999999999998 -0.36 0  0 -0.36 0  0.09999999999999998 -0.36 0  0.2 -0.36 0  0.3 -0.36 0  0.4 -0.36 0  0.5 -0.36 0  -0.5 -0.34 0  -0.4 -0.34 0  -0.3 -0.34 0  -0.2 -0.34 0  -0.09999999999999998 -0.34 0  0 -0.34 0  0.09999999999999998 -0.34 0  0.2 -0.34 0  0.3 -0.34 0  0.4 -0.34 0  0.5 -0.34 0  -0.5 -0.32 0  -0.4 -0.32 0  -0.3 -0.32 0  -0.2 -0.32 0  -0.09999999999999998 -0.32 0  0 -0.32 0  0.09999999999999998 -0.32 0  0.2 -0.32 0  0.3 -0.32 0  0.4 -0.32 0  0.5 -0.32 0  -0.5 -0.3 0  -0.4 -0.3 0  -0.3 -0.3 0  -0.2 -0.3 0  -0.09999999999999998 -0.3 0  0 -0.3 0  0.09999999999999998 -0.3 0  0.2 -0.3 0  0.3 -0.3 0  0.4 -0.3 0  0.5 -0.3 0  -0.5 -0.28 0  -0.4 -0.28 0  -0.3 -0.28 0  -0.2 -0.28 0  -0.09999999999999998 -0.28 0  0 -0.28 0  0.09999999999999998 -0.28 0  0.2 -0.28 0  0.3 -0.28 0  0.4 -0.28 0  0.5 -0.28 0  -0.5 -0.26 0  -0.4 -0.26 0  -0.3 -0.26 0  -0.2 -0.26 0  -0.09999999999999998 -0.26 0  0 -0.26 0  0.09999999999999998 -0.26 0  0.2 -0.26 0  0.3 -0.26 0  0.4 -0.26 0  0.5 -0.26 0  -0.5 -0.24 0  -0.4 -0.24 0  -0.3 -0.24 0  -0.2 -0.24 0  -0.09999999999999998 -0.24 0  0 -0.24 0  0.09999999999999998 -0.24 0  0.2 -0.24 0  0.3 -0.24 0  0.4 -0.24 0  0.5 -0.24 0  -0.5 -0.22 0  -0.4 -0.22 0  -0.3 -0.22 0  -0.2 -0.22 0  -0.09999999999999998 -0.22 0  0 -0.22 0  0.09999999999999998 -0.22 0  0.2 -0.22 0  0.3 -0.22 0  0.4 -0.22 0  0.5 -0.22 0  -0.5 -0.2 0  -0.4 -0.2 0  -0.3 -0.2 0  -0.2 -0.2 0  -0.09999999999999998 -0.2 0  0 -0.2 0  0.09999999999999998 -0.2 0  0.2 -0.2 0  0.3 -0.2 0  0.4 -0.2 0  0.5 -0.2 0  -0.5 -0.18 0  -0.4 -0.18 0  -0.3 -0.18 0  -0.2 -0.18 0  -0.09999999999999998 -0.18 0  0 -0.18 0  0.09999999999999998 -0.18 0  0.2 -0.18 0  0.3 -0.18 0  0.4 -0.18 0  0.5 -0.18 0  -0.5 -0.16 0  -0.4 -0.16 0  -0.3 -0.16 0  -0.2 -0.16 0  -0.09999999999999998 -0.16 0  0 -0.16 0  0.09999999999999998 -0.16 0  0.2 -0.16 0  0.3 -0.16 0  0.4 -0.16 0  0.5 -0.16 0  -0.5 -0.14 0  -0.4 -0.14 0  -0.3 -0.14 0  -0.2 -0.14 0  -0.09999999999999998 -0.14 0  0 -0.14 0  0.09999999999999998 -0.14 0  0.2 -0.14 0  0.3 -0.14 0  0.4 -0.14 0  0.5 -0.14 0  -0.5 -0.12 0  -0.4 -0.12 0  -0.3 -0.12 0  -0.2 -0.12 0  -0.09999999999999998 -0.12 0  0 -0.12 0  0.09999999999999998 -0.12 0  0.2 -0.12 0  0.3 -0.12 0  0.4 -0.12 0  0.5 -0.12 0  -0.5 -0.09999999999999998 0  -0.4 -0.09999999999999998 0  -0.3 -0.09999999999999998 0  -0.2 -0.09999999999999998 0  -0.09999999999999998 -0.09999999999999998 0  0 -0.09999999999999998 0  0.09999999999999998 -0.09999999999999998 0  0.2 -0.09999999999999998 0  0.3 -0.09999999999999998 0  0.4 -0.09999999999999998 0  0.5 -0.09999999999999998 0  -0.5 -0.07999999999999996 0  -0.4 -0.07999999999999996 0  -0.3 -0.07999999999999996 0  -0.2 -0.07999999999999996 0  -0.09999999999999998 -0.07999999999999996 0  0 -0.07999999999999996 0  0.09999999999999998 -0.07999999999999996 0  0.2 -0.07999999999999996 0  0.3 -0.07999999999999996 0  0.4 -0.07999999999999996 0  0.5 -0.07999999999999996 0  -0.5 -0.06000000000000005 0  -0.4 -0.06000000000000005 0  -0.3 -0.06000000000000005 0  -0.2 -0.06000000000000005 0  -0.09999999
[...]
<PointData  Vectors="displacement"> 
<DataArray  type="Float64"  Name="displacement"  NumberOfComponents="3" format="ascii">7.0529661049337182e-34 -2.9778502051908972e-20 0.0000000000000000e+00  -8.4635593259204615e-34 -2.7296960214249883e-20 0.0000000000000000e+00  2.2536430757171023e-33 3.8774091213423137e-23 0.0000000000000000e+00  -8.4635593259204632e-34 3.4741585727227138e-20 0.0000000000000000e+00  3.9552975406842890e-33 -4.4750335396488419e-20 0.0000000000000000e+00  -1.0720508479499251e-32 1.4889251025954483e-20 0.0000000000000000e+00  1.0934852527532005e-33 -1.6020969813246275e-20 0.0000000000000000e+00  -5.6423728839469741e-34 -2.4815418376590803e-20 0.0000000000000000e+00  5.6539163507121358e-33 -2.8847923862786810e-20 0.0000000000000000e+00  -3.9496610187628833e-33 -5.4593920428499790e-20 0.0000000000000000e+00  5.6423728839469732e-34 1.9852334701272640e-20 0.0000000000000000e+00  0.0000000000000000e+00 -2.7717265353417297e-04 0.0000000000000000e+00  -5.6957261530706071e-18 -2.7717265353417552e-04 0.0000000000000000e+00  5.4438183777300607e-18 -2.7717265353417888e-04 0.0000000000000000e+00  2.5413492717428270e-17 -2.7717265353418105e-04 0.0000000000000000e+00  3.2543596605500969e-17 -2.7717265353417720e-04 0.0000000000000000e+00  3.9862389474264534e-17 -2.7717265353417253e-04 0.0000000000000000e+00  4.5437324982303754e-17 -2.7717265353417346e-04 0.0000000000000000e+00  3.3717615386773825e-17 -2.7717265353416917e-04 0.0000000000000000e+00  3.0678588401899744e-17 -2.7717265353416944e-04 0.0000000000000000e+00  1.8783122579545931e-17 -2.7717265353416099e-04 0.0000000000000000e+00  -1.9394054832147479e-33 -2.7717265353416874e-04 0.0000000000000000e+00  -5.7386098806512565e-34 -5.5434530706834518e-04 0.0000000000000000e+00  -8.6606201463887389e-18 -5.5434530706835277e-04 0.0000000000000000e+00  1.1434940859129285e-17 -5.5434530706835905e-04 0.0000000000000000e+00  4.7154123694351425e-17 -5.5434530706836480e-04 0.0000000000000000e+00  6.3388142734521575e-17 -5.5434530706835699e-04 0.0000000000000000e+00  7.7720871879972942e-17 -5.5434530706834583e-04 0.0000000000000000e+00  8.5789776805989635e-17 -5.5434530706834669e-04 0.0000000000000000e+00  6.4876271426892751e-17 -5.5434530706833845e-04 0.0000000000000000e+00  5.7660087884087025e-17 -5.5434530706833921e-04 0.0000000000000000e+00  3.5429006292726978e-17 -5.5434530706832013e-04 0.0000000000000000e+00  4.9169249417252224e-33 -5.5434530706833444e-04 0.0000000000000000e+00  -1.2695338988880717e-33 -8.3151796060251739e-04 0.0000000000000000e+00  -1.0094846560284002e-17 -8.3151796060252964e-04 0.0000000000000000e+00  1.7929993453264184e-17 -8.3151796060253972e-04 0.0000000000000000e+00  6.6090641276922061e-17 -8.3151796060255360e-04 0.0000000000000000e+00  9.1867921754064018e-17 -8.3151796060253733e-04 0.0000000000000000e+00  1.1346268501957172e-16 -8.3151796060252302e-04 0.0000000000000000e+00  1.2240239552041937e-16 -8.3151796060252248e-04 0.0000000000000000e+00  9.2298537942094879e-17 -8.3151796060250763e-04 0.0000000000000000e+00  8.1590509840105615e-17 -8.3151796060250860e-04 0.0000000000000000e+00  5.0735489237314773e-17 -8.3151796060247684e-04 0.0000000000000000e+00  -1.3541694921472758e-32 -8.3151796060249906e-04 0.0000000000000000e+00  -1.8600519354313459e-33 -1.1086906141366891e-03 0.0000000000000000e+00  -1.0623110797629618e-17 -1.1086906141367044e-03 0.0000000000000000e+00  2.4381091365394742e-17 -1.1086906141367220e-03 0.0000000000000000e+00  8.2378902182429222e-17 -1.1086906141367394e-03 0.0000000000000000e+00  1.1861370044847664e-16 -1.1086906141367179e-03 0.0000000000000000e+00  1.4590125125573175e-16 -1.1086906141367016e-03 0.0000000000000000e+00  1.5607963296867642e-16 -1.1086906141367021e-03 0.0000000000000000e+00  1.1740485206201048e-16 -1.1086906141366784e-03 0.0000000000000000e+00  1.0361713303551617e-16 -1.1086906141366700e-03 0.0000000000000000e+00  6.4200055398339952e-17 -1.1086906141366327e-03 0.0000000000000000e+00  1.1987755022088472e-32 -1.1086906141366641e-03 0.0000000000000000e+00  -1.5516525430854185e-33 -1.3858632676708666e-03 0.0000000000000000e+00  -1.0148668653518724e-17 -1.3858632676708828e-03 0.0000000000000000e+00  3.0342822096060502e-17 -1.3858632676709043e-03 0.0000000000000000e+00  9.6798987295409516e-17 -1.3858632676709273e-03 0.0000000000000000e+00  1.4335715344918682e-16 -1.3858632676709026e-03 0.0000000000000000e+00  1.7555846300440611e-16 -1.3858632676708863e-03 0.0000000000000000e+00  1.8580509017016916e-16 -1.3858632676708844e-03 0.0000000000000000e+00  1.4189884365880697e-16 -1.3858632676708546e-03 0.0000000000000000e+00  1.2493494848140345e-16 -1.3858632676708282e-03 0.0000000000000000e+00  7.5108556654563164e-17 -1.3858632676707902e-03 0.0000000000000000e+00  5.9565145163289092e-33 -1.3858632676708256e-03 0.0000000000000000e+00  3.5693949196686039e-34 -1.6630359212050434e-03 0.0000000000000000e+00  -8.3589861968696180e-18 -1.6630359212050597e-03 0.0000000000000000e+00  3.5210050150284172e-17 -1.6630359212050862e-03 0.0000000000000000e+00  1.0927469987268089e-16 -1.6630359212051159e-03 0.0000000000000000e+00  1.6506029558969607e-16 -1.6630359212050875e-03 0.0000000000000000e+00  2.0402306577782861e-16 -1.6630359212050664e-03 0.0000000000000000e+00  2.1240807005255392e-16 -1.6630359212050673e-03 0.0000000000000000e+00  1.6551207322876001e-16 -1.6630359212050315e-03 0.0000000000000000e+00  1.4460065182473127e-16 -1.6630359212049888e-03 0.0000000000000000e+00  8.3206399574859126e-17 -1.6630359212049491e-03 0.0000000000000000e+00  -1.6927118651840923e-33 -1.6630359212049821e-03 0.0000000000000000e+00  -7.0529661049337199e-34 -1.9402085747392142e-03 0.0000000000000000e+00  -6.8136103396588903e-18 -1.9402085747392342e-03 0.0000000000000000e+00  3.8974883285841365e-17 -1.9402085747392682e-03 0.0000000000000000e+00  1.2029028896728188e-16 -1.9402085747393062e-03 0.0000000000000000e+00  1.8396947000636949e-16 -1.9402085747392693e-03 0.0000000000000000e+00  2.3036584162219872e-16 -1.9402085747392453e-03 0.0000000000000000e+00  2.3658021827200536e-16 -1.9402085747392433e-03 0.0000000000000000e+00  1.8707765711730953e-16 -1.9402085747392047e-03 0.0000000000000000e+00  1.6298145055708028e-16 -1.9402085747391466e-03 0.0000000000000000e+00  8.9396116670756102e-17 -1.9402085747390974e-03 0.0000000000000000e+00  -7.8993220375257652e-33 -1.9402085747391390e-03 0.0000000000000000e+00  8.3249022371383636e-34 -2.2173812282733781e-03 0.0000000000000000e+00  -7.4896689531269921e-18 -2.2173812282734102e-03 0.0000000000000000e+00  4.1537402596696664e-17 -2.2173812282734562e-03 0.0000000000000000e+00  1.3006144987395519e-16 -2.2173812282735004e-03 0.0000000000000000e+00  2.0104926079434107e-16 -2.2173812282734497e-03 0.0000000000000000e+00  2.5407125658596351e-16 -2.2173812282734254e-03 0.0000000000000000e+00  2.6033792112454413e-16 -2.2173812282734241e-03 0.0000000000000000e+00  2.0549218031869097e-16 -2.2173812282733738e-03 0.0000000000000000e+00  1.8091772549848932e-16 -2.2173812282733065e-03 0.0000000000000000e+00  9.5024640431539632e-17 -2.2173812282732437e-03 0.0000000000000000e+00  -6.8022646922251492e-33 -2.2173812282732914e-03 0.0000000000000000e+00  -2.8211864419734999e-34 -2.4945538818075480e-03 0.0000000000000000e+00  -1.1288862615654793e-17 -2.4945538818075797e-03 0.0000000000000000e+00  4.2134031121057266e-17 -2.4945538818076413e-03 0.0000000000000000e+00  1.3946045026655035e-16 -2.4945538818076933e-03 0.0000000000000000e+00  2.1743055965135285e-16 -2.4945538818076335e-03 0.0000000000000000e+00  2.7313269258903545e-16 -2.4945538818076040e-03 0.0000000000000000e+00  2.8197454022400859e-16 -2.4945538818076192e-03 0.0000000000000000e+00  2.2436821017868894e-16 -2.4945538818075511e-03 0.0000000000000000e+00  1.9787278558450315e-16 -2.4945538818074630e-03 0.0000000000000000e+00  9.9261311718610108e-17 -2.4945538818073967e-03 0.0000000000000000e+00  4.3984124084278429e-34 -2.4945538818074448e-03 0.0000000000000000e+00  -1.1338382473173483e-33 -2.7717265353417236e-03 0.0000000000000000e+00  -1.6382960639899161e-17 -2.7717265353417579e-03 0.0000000000000000e+00  4.0512531995617083e-17 -2.7717265353418351e-03 0.0000000000000000e+00  1.4712152683391362e-16 -2.7717265353418871e-03 0.0000000000000000e+00  2.3436639042081653e-16 -2.7717265353418242e-03 0.0000000000000000e+00  2.8842015690563530e-16 -2.7717265353417835e-03 0.0000000000000000e+00  2.9816804631080848e-16 -2.7717265353418147e-03 0.0000000000000000e+00  2.4630209101783937e-16 -2.7717265353417327e-03 0.0000000000000000e+00  2.1598539366710884e-16 -2.7717265353416174e-03 0.0000000000000000e+00  1.0131411326372377e-16 -2.7717265353415510e-03 0.0000000000000000e+00  -3.2242130765411296e-34 -2.7717265353416030e-03 0.0000000000000000e+00  -1.9748305093814416e-33 -3.0488991888759052e-03 0.0000000000000000e+00  -2.2270166090713900e-17 -3.0488991888759408e-03 0.0000000000000000e+00  3.6188534327776217e-17 -3.0488991888760527e-03 0.0000000000000000e+00  1.5560016920941839e-16 -3.0488991888760870e-03 0.0000000000000000e+00  2.5109121841946923e-16 -3.0488991888760106e-03 0.0000000000000000e+00  3.0156073330368200e-16 -3.0488991888759647e-03 0.0000000000000000e+00  3.1035493260928130e-16 -3.0488991888760063e-03 0.0000000000000000e+00  2.6797400446278613e-16 -3.0488991888759100e-03 0.0000000000000000e+00  2.3402805839175848e-16 -3.0488991888757790e-03 0.0000000000000000e+00  1.0135404669200346e-16 -3.0488991888757062e-03 0.0000000000000000e+00  4.5138983071575799e-33 -3.0488991888757522e-03 0.0000000000000000e+00  -1.0405520824228827e-33 -3.3260718424100817e-03 0.0000000000000000e+00  -3.0966135707087898e-17 -3.3260718424101307e-03 0.0000000000000000e+00  3.1132783208454512e-17 -3.3260718424102673e-03 0.0000000000000000e+00  1.6576709530152471e-16 -3.3260718424102781e-03 0.0000000000000000e+00  2.6785502476248294e-16 -3.3260718424101979e-03 0.0000000000000000e+00  3.1168793488395488e-16 -3.3260718424101472e-03 0.0000000000000000e+00  3.1840943598220059e-16 -3.3260718424102001e-03 0.0000000000000000e+00  2.8968900836834107e-16 -3.3260718424100860e-03 0.0000000000000000e+00  2.4902796472459781e-16 -3.3260718424099459e-03 0.0000000000000000e+00  1.0372673374028829e-16 -3.3260718424098644e-03 0.0000000000000000e+00  4.4373453835377452e-33 -3.3260718424099026e-03 0.0000000000000000e+00  5.6423728839469758e-34 -3.6032444959442607e-03 0.0000000000000000e+00  -4.4101407806813826e-17 -3.6032444959443301e-03 0.0000000000000000e+00  2.6575954896960643e-17 -3.6032444959444685e-03 0.0000000000000000e+00  1.7856923876804655e-16 -3.6032444959444637e-03 0.0000000000000000e+00  2.8335293344824934e-16 -3.6032444959443848e-03 0.0000000000000000e+00  3.1824622835309063e-16 -3.6032444959443449e-03 0.0000000000000000e+00  3.2502170402564426e-16 -3.6032444959443852e-03 0.0000000000000000e+00  3.1009179630288647e-16 -3.6032444959442577e-03 0.0000000000000000e+00  2.6299669286698602e-16 -3.6032444959441124e-03 0.0000000000000000e+00  1.0712926142574010e-16 -3.6032444959440131e-03 0.0000000000000000e+00  -3.0525547219425364e-32 -3.6032444959440517e-03 0.0000000000000000e+00  -6.7627928235136042e-36 -3.8804171494784380e-03 0.0000000000000000e+00  -5.9089054258785541e-17 -3.8804171494785252e-03 0.0000000000000000e+00  2.1476859258622193e-17 -3.8804171494786566e-03 0.0000000000000000e+00  1.9480510514624303e-16 -3.8804171494786475e-03 0.0000000000000000e+00  2.9304498713031514e-16 -3.8804171494785716e-03 0.0000000000000000e+00  3.2098208740605826e-16 -3.8804171494785404e-03 0.0000000000000000e+00  3.3334695867001201e-16 -3.8804171494785477e-03 0.0000000000000000e+00  3.2589858845174494e-16 -3.8804171494784298e-03 0.0000000000000000e+00  2.7669891658934650e-16 -3.8804171494782849e-03 0.0000000000000000e+00  1.1281726604769046e-16 -3.8804171494781687e-03 0.0000000000000000e+00  3.2886973380719510e-32 -3.8804171494781965e-03 0.0000000000000000e+00  -3.3854237303681853e-33 -4.1575898030126153e-03 0.0000000000000000e+00  -7.3358987586911131e-17 -4.1575898030127212e-03 0.0000000000000000e+00  1.6672337161578878e-17 -4.1575898030128487e-03 0.0000000000000000e+00  2.0981790853124060e-16 -4.1575898030128235e-03 0.0000000000000000e+00  2.9876643263815737e-16 -4.1575898030127628e-03 0.0000000000000000e+00  3.2299175733976640e-16 -4.1575898030127368e-03 0.0000000000000000e+00  3.4265186903600060e-16 -4.1575898030127107e-03 0.0000000000000000e+00  3.3807020667118876e-16 -4.1575898030126058e-03 0.0000000000000000e+00  2.9097178152517100e-16 -4.1575898030124566e-03 0.0000000000000000e+00  1.1829219730619819e-16 -4.1575898030123230e-03 0.0000000000000000e+00  -1.8055593228630320e-32 -4.1575898030123612e-03 0.0000000000000000e+00  -1.3119818077616425e-33 -4.4347624565468065e-03 0.0000000000000000e+00  -8.6263753473405199e-17 -4.4347624565469193e-03 0.0000000000000000e+00  1.4260876923744522e-17 -4.4347624565470329e-03 0.0000000000000000e+00  2.1836420438060379e-16 -4.4347624565470017e-03 0.0000000000000000e+00  2.9845527081080587e-16 -4.4347624565469687e-03 0.0000000000000000e+00  3.2760819290649711e-16 -4.4347624565469305e-03 0.0000000000000000e+00  3.5145963289653998e-16 -4.4347624565468759e-03 0.0000000000000000e+00  3.4927927271901275e-16 -4.4347624565467684e-03 0.0000000000000000e+00  3.0365169680161104e-16 -4.4347624565466200e-03 0.0000000000000000e+00  1.2335215306138520e-16 -4.4347624565464908e-03 0.0000000000000000e+00  2.3369188583816049e-32 -4.4347624565465212e-03 0.0000000000000000e+00  -1.8055593228630399e-32 -4.7119351100809882e-03 0.0000000000000000e+00  -9.6798795598596157e-17 -4.7119351100811321e-03 0.0000000000000000e+00  1.4023888590026275e-17 -4.7119351100812137e-03 0.0000000000000000e+00  2.2273901493950194e-16 -4.7119351100811989e-03 0.0000000000000000e+00  2.9533284110210795e-16 -4.7119351100811712e-03 0.0000000000000000e+00  3.3627397247593364e-16 -4.7119351100811174e-03 0.0000000000000000e+00  3.6197681245919543e-16 -4.7119351100810211e-03 0.0000000000000000e+00  3.5441638370307289e-16 -4.7119351100809153e-03 0.0000000000000000e+00  3.1400954217661834e-16 -4.7119351100807826e-03 0.0000000000000000e+00  1.2810647922658232e-16 -4.7119351100806499e-03 0.0000000000000000e+00  -1.1195758672394110e-32 -4.7119351100807089e-03 0.0000000000000000e+00  -4.5364866015454325e-33 -4.9891077636151802e-03 0.0000000000000000e+00  -1.0743498049028831e-16 -4.9891077636153346e-03 0.0000000000000000e+00  1.9158635820587392e-17 -4.9891077636154144e-03 0.0000000000000000e+00  2.2359929138585763e-16 -4.9891077636153944e-03 0.0000000000000000e+00  2.9167027345612980e-16 -4.9891077636153693e-03 0.0000000000000000e+00  3.4728671839749151e-16 -4.9891077636152982e-03 0.0000000000000000e+00  3.7673233814410871e-16 -4.9891077636151672e-03 0.0000000000000000e+00  3.5234922838526147e-16 -4.9891077636150432e-03 0.0000000000000000e+00  3.2065300177087504e-16 -4.9891077636149304e-03 0.0000000000000000e+00  1.2849995249715317e-16 -4.9891077636148124e-03 0.0000000000000000e+00  -3.7078450380223018e-33 -4.9891077636148862e-03 0.0000000000000000e+00  -2.3697966112577297e-32 -5.2662804171493792e-03 0.0000000000000000e+00  -1.1774024715340526e-16 -5.2662804171495249e-03 0.0000000000000000e+00  2.6875308581657310e-17 -5.2662804171496221e-03 0.0000000000000000e+00  2.2277541113852052e-16 -5.2662804171495813e-03 0.0000000000000000e+00  2.8498470783123751e-16 -5.2662804171495639e-03 0.0000000000000000e+00  3.6526368123379346e-16 -5.2662804171494677e-03 0.0000000000000000e+00  3.9204962708111323e-16 -5.2662804171493176e-03 0.0000000000000000e+00  3.4802418694981702e-16 -5.2662804171491702e-03 0.0000000000000000e+00  3.2356807163658706e-16 -5.2662804171490695e-03 0.0000000000000000e+00  1.1987843920131151e-16 -5.2662804171489759e-03 0.0000000000000000e+00  -1.1284745767893949e-32 -5.2662804171490652e-03 0.0000000000000000e+00  -4.3821291112417267e-33 -5.5434530706835869e-03 0.0000000000000000e+00  -1.2527852162776151e-16 -5.5434530706837031e-03 0.0000000000000000e+00  3.3194997480809267e-17 -5.5434530706838262e-03 0.0000000000000000e+00  2.1829047633056378e-16 -5.5434530706837855e-03 0.0000000000000000e+00  2.7977616160201743e-16 -5.5434530706837577e-03 0.0000000000000000e+00  3.8483733052494265e-16 -5.5434530706836285e-03 0.0000000000000000e+00  4.0802232823381118e-16 -5.5434530706834828e-03 0.0000000000000000e+00  3.4416165755564783e-16 -5.5434530706833119e-03 0.0000000000000000e+00  3.1669956764882293e-16 -5.5434530706832130e-03 0.0000000000000000e+00  1.1019391369308309e-16 -5.5434530706831393e-03 0.0000000000000000e+00  2.1765432271792831e-32 -5.5434530706832321e-03 0.0000000000000000e+00  -9.0277966143151763e-33 -5.8206257242177928e-03 0.0000000000000000e+00  -1.3109003930674104e-16 -5.8206257242178856e-03 0.0000000000000000e+00  3.4658504383770953e-17 -5.8206257242180209e-03 0.0000000000000000e+00  2.1794409202596103e-16 -5.8206257242179992e-03 0.0000000000000000e+00  2.7458632497809315e-16 -5.8206257242179229e-03 0.0000000000000000e+00  4.0263972701774085e-16 -5.8206257242177937e-03 0.0000000000000000e+00  4.2752071749254118e-16 -5.8206257242176514e-03 0.0000000000000000e+00  3.3486971265640243e-16 -5.8206257242174753e-03 0.0000000000000000e+00  3.0643858345955415e-16 -5.8206257242173660e-03 0.0000000000000000e+00  9.8552837917333637e-17 -5.8206257242173253e-03 0.0000000000000000e+00  -2.0340458454170921e-32 -5.8206257242173981e-03 0.0000000000000000e+00  2.4924308910747247e-33 -6.0977983777520100e-03 0.0000000000000000e+00  -1.3572277216964984e-16 -6.0977983777520724e-03 0.0000000000000000e+00  3.1350935726630385e-17 -6.0977983777522164e-03 0.0000000000000000e+00  2.2132471316930396e-16 -6.0977983777522017e-03 0.0000000000000000e+00  2.7118678730603622e-16 -6.0977983777520976e-03 0.0000000000000000e+00  4.1997827853714111e-16 -6.0977983777519571e-03 0.0000000000000000e+00  4.4144690036603454e-16 -6.0977983777518244e-03 0.0000000000000000e+00  3.2878525972242961e-16 -6.0977983777516717e-03 0.0000000000000000e+00  2.9759995692367060e-16 -6.0977983777515234e-03 0.0000000000000000e+00  8.1781559700678954e-17 -6.0977983777514800e-03 0.0000000000000000e+00  1.1768377729375119e-32 -6.0977983777515720e-03 0.0000000000000000e+00  -4.5138983071575806e-33 -6.3749710312862229e-03 0.0000000000000000e+00  -1.4145974151351483e-16 -6.3749710312862654e-03 0.0000000000000000e+00  2.5411801678695731e-17 -6.3749710312864249e-03 0.0000000000000000e+00  2.2590705599615328e-16 -6.3749710312864145e-03 0.0000000000000000e+00  2.7485207435641729e-16 -6.3749710312862602e-03 0.0000000000000000e+00  4.3792556557079708e-16 -6.3749710312861274e-03 0.0000000000000000e+00  4.4751076139836000e-16 -6.3749710312860086e-03 0.0000000000000000e+00  3.1961596786882146e-16 -6.3749710312858820e-03 0.0000000000000000e+00  2.9083873544308344e-16 -6.3749710312856920e-03 0.0000000000000000e+00  6.5151134623310266e-17 -6.3749710312856435e-03 0.0000000000000000e+00  -6.7708474607363706e-33 -6.3749710312857293e-03 0.0000000000000000e+00  4.5683457074211380e-32 -6.6521436848204349e-03 0.0000000000000000e+00  -1.4688442260138504e-16 -6.6521436848204661e-03 0.0000000000000000e+00  1.6408323842436660e-17 -6.6521436848206361e-03 0.0000000000000000e+00  2.3284613043565167e-16 -6.6521436848206343e-03 0.0000000000000000e+00  2.7926372630147884e-16 -6.6521436848204097e-03 0.0000000000000000e+00  4.5538449281433148e-16 -6.6521436848203152e-03 0.0000000000000000e+00  4.4645740140494721e-16 -6.6521436848202059e-03 0.0000000000000000e+00  3.0946706338586488e-16 -6.6521436848200931e-03 0.0000000000000000e+00  2.8351496439317806e-16 -6.6521436848198719e-03 0.0000000000000000e+00  4.9376500965875218e-17 -6.6521436848198008e-03 0.0000000000000000e+00  1.0451546971371445e-32 -6.6521436848198945e-03 0.0000000000000000e+00  -2.4826440689366696e-32 -6.9293163383546382e-03 0.0000000000000000e+00  -1.5182101401675636e-16 -6.9293163383546755e-03 0.0000000000000000e+00  6.3336459284821930e-18 -6.9293163383548316e-03 0.0000000000000000e+00  2.4083298497804409e-16 -6.9293163383548359e-03 0.0000000000000000e+00  2.8644405