<?xml version="1.0"?>
<VTKFile type="UnstructuredGrid"  version="0.1"  >
<UnstructuredGrid>
<Piece  NumberOfPoints="15776" NumberOfCells="31038">
<Points>
<DataArray  type="Float64"  NumberOfComponents="3"  format="ascii">-0.05 0 0  -0.05 -0.1 0  0.05 -0.1 0  0.05 0 0  0 -0.1 0  0.05 -0.05 0  0 0 0  -0.05 -0.05 0  0 -0.05 0  -0.025 -0.1 0  -0.025 0 0  -0.05 -0.025 0  0.025 -0.1 0  0.05 -0.025 0  0.025 0 0  0.025 -0.06875000000000001 0  0.025 -0.03750000000000001 0  -0.02083333333333333 -0.02916666666666667 0  -0.05 -0.07500000000000001 0  -0.02083333333333333 -0.07083333333333333 0  0.05 -0.07500000000000001 0  0.003472222222222224 -0.02569444444444444 0  0.002378144654088049 -0.07627751572327045 0  -0.02083333333333333 -0.05 0  0.03125 -0.01875 0  -0.01233019290593089 -0.08678347112328397 0  -0.0125 -0.0130952380952381 0  -0.03690476190476191 -0.03750000000000001 0  -0.03541666666666667 -0.06041666666666666 0  -0.03385416666666667 -0.01614583333333334 0  0.05 -0.08750000000000001 0  0.03750000000000001 -0.1 0  -0.03385416666666666 -0.08385416666666666 0  0.03348214285714286 -0.08348214285714287 0  0.0125 0 0  0.0125 -0.1 0  0.01719551374627341 -0.0830513925183794 0  0.01029527261028368 -0.06231463651962176 0  0.0328125 -0.05312500000000001 0  -0.01041666666666666 -0.03958333333333333 0  -0.01041666666666667 -0.06041666666666667 0  0.01470753125203114 -0.04816506250406229 0  0.01799242424242424 -0.02474747474747475 0  0.03750000000000001 -0.03125 0  0.05 -0.0625 0  0.00625 -0.01223723723723724 0  0.05 -0.0125 0  0.03750000000000001 0 0  0.03765012642225032 -0.07127449431099875 0  0.02021617032392894 -0.01201127655869035 0  0.006028532990060553 -0.03846042534778643 0  -0.05 -0.0625 0  -0.03750000000000001 0 0  -0.05 -0.03750000000000001 0  -0.0125 -0.1 0  -0.0125 0 0  -0.05 -0.0125 0  -0.03750000000000001 -0.1 0  0.05 -0.03750000000000001 0  -0.05 -0.08750000000000001 0  -0.008680555555555554 -0.02743055555555555 0  0.006250000000000001 -0.08914373740925415 0  -0.009584768711776409 -0.07507825100308022 0  -0.03268229166666667 -0.07200520833333332 0  0.03939012096774194 -0.04309475806451613 0  0.02190003906503893 -0.05743439453251947 0  -0.03834537706133037 -0.04910019455252918 0  0.01284084887861751 -0.07298400536762802 0  -0.02264613483542079 -0.0820413651645792 0  -0.02366071428571428 -0.01123511904761905 0  -0.03199404761904762 -0.02730654761904763 0  -0.0244047619047619 -0.06041666666666667 0  -0.01041666666666666 -0.05 0  -0.02083333333333332 -0.03958333333333333 0  2.405987640392848e-05 -0.0604407265430706 0  -0.002910133850527605 -0.01736173448892657 0  -0.02961483445283294 -0.04429487938443922 0  0.0390625 -0.0109375 0  0.040625 -0.021875 0  0.028125 -0.028125 0  -0.04176917540113871 -0.06803243885869564 0  0.03965658412817928 -0.06102022076500465 0  0.01533845899304755 -0.03450745320159019 0  0.02948377458963575 -0.008744075527611174 0  0.02448333984417315 -0.04800472330961902 0  -0.002638588467448458 -0.08480290334513936 0  0.01875 -0.09260679016400503 0  0.02801599660666901 -0.09111197895245939 0  0.0427726833976834 -0.08125000000000002 0  0.04010991573299855 -0.09061756875992701 0  -0.03125000000000001 -0.09292674731182796 0  -0.04078102849914793 -0.09075246902758297 0  -0.04292674731182795 -0.08125000000000002 0  -0.04292674731182796 -0.01875 0  -0.04075246902758298 -0.009218971500852071 0  -0.002501899107215252 -0.03451361758785813 0  -0.01875 -0.09331034417873318 0  -0.04137052725919914 -0.02906901041666667 0  -0.02515071191829004 -0.02065873579545455 0  -0.004560476962080258 -0.008160345583815167 0  -0.01571003401360544 -0.02162698412698413 0  -0.006250000000000001 -0.09347094524847423 0  -0.03184688459542486 -0.007177652942204195 0  -0.043423574176247 -0.05645164743293771 0  -0.002931194584325539 -0.06897337298686135 0  0.04141166808534667 -0.05159229946940671 0  0.03072628767995273 -0.06184751883997637 0  0.01331794183364191 -0.01736907532119644 0  -0.02991071428571428 -0.05329326110353833 0  0.0302193738423544 -0.07555280640245397 0  -0.02844810693838604 -0.03529440998727736 0  -0.05 -0.04375 0  0.009435764744425919 -0.08043238240966273 0  0.02057363836381549 -0.07561467685960577 0  0.025334823172674 -0.08341820123348352 0  0.005194622404326759 -0.06864849887959712 0  0.01732194592699554 -0.06627651681808928 0  0.006285662925187238 -0.05520590615175079 0  -0.01875 0 0  0.03186492887377232 -0.04533174938342453 0  -0.0008783629089698517 -0.04219661564043644 0  0.05 -0.00625 0  0.03375689409777979 -0.03792049068961304 0  0.05 -0.06875000000000001 0  0.01439721346977286 -0.05583102001882564 0  0.007184194424042271 -0.04772337119454249 0  0.01846824474048517 -0.04149541481145257 0  -0.01682300313953808 -0.07723258764373991 0  0.01091777409106017 -0.0280645394299259 0  -0.005208333333333333 -0.05520833333333334 0  -0.01562499999999999 -0.034375 0  -0.015625 -0.05520833333333333 0  -0.01562499999999999 -0.04479166666666667 0  -0.01741071428571429 -0.06383928571428571 0  -0.01017446891572471 -0.06775731747543173 0  0.02462121212121212 -0.02174873737373738 0  -0.01727537722908093 -0.007335299088771311 0  -0.04246234479210493 -0.04269936147867359 0  0.02155204304257197 -0.03095624460965786 0  0.01316725552433098 -0.00805546078058521 0  0.01875 0 0  -0.02717633928571428 -0.0671875 0  -0.02899339936689958 -0.07835247286481212 0  0.034375 -0.025 0  0.04269000268040276 -0.03649499463919448 0  0.04375 0 0  0.04375 -0.02812499999999999 0  -0.03761497647442349 -0.02322577938762476 0  0.05 -0.05625 0  -0.02487731781150031 -0.08912078797260026 0  -0.03695888676976247 -0.07756467740738612 0  0.002206599034779407 -0.006587679234291101 0  0.003888413565608712 -0.01876506087328944 0  0.04375 -0.1 0  0.05 -0.09375 0  -0.008944539808483216 -0.02059134745263918 0  -0.04331057662916364 -0.07455691519284439 0  0.0439453125 -0.0158203125 0  -0.0001289479518082485 -0.09093484953796985 0  -0.04345238095238095 -0.03556995462159739 0  -0.01996941165388946 -0.01664836497274012 0  -0.04375 -0.1 0  -0.05 -0.09375 0  -0.04375 0 0  -0.05 -0.00625 0  0.005594154517873918 -0.03190847365283561 0  0.01173248358540133 -0.04209249512146222 0  0.03419217537052396 -0.09402564429600242 0  0.01187454317038147 -0.09313287027544383 0  0.00625 -0.1 0  0.02629142191479375 -0.01446643061282435 0  0.021875 -0.005713666436405997 0  0.04321758283034931 -0.06704044172466167 0  0.03164035608931087 -0.06843232885197728 0  0.04337196116786825 -0.07463925880684733 0  0.03637679552963742 -0.07765509762578199 0  0.003626010873625676 -0.08324593924595615 0  -0.01086143623908221 -0.006877234301934964 0  0.05 -0.04375 0  0.01179919481827354 -0.08623489346281316 0  -0.01250448524457812 -0.09373974299368953 0  -0.05 -0.06875000000000001 0  -0.03125 0 0  -0.03125 -0.1 0  0.03125 0 0  0.05 -0.03125 0  -0.05 -0.03125 0  0.03125 -0.1 0  -0.00625 -0.1 0  -0.01875 -0.1 0  -0.05 -0.01875 0  0.01875 -0.1 0  -0.00625 0 0  0.00625 0 0  0.05 -0.01875 0  -0.05 -0.05625 0  -0.05 -0.08125000000000002 0  0.05 -0.08125000000000002 0  -0.005208333333333331 -0.04663513209089385 0  -0.008645094114120339 -0.03363601830115741 0  -0.01475694444444444 -0.0282986111111111 0  -0.002375017943413014 -0.02816654106277556 0  0.01949511126133643 -0.01820257885343882 0  -0.01184447766846871 -0.08072281861600734 0  -0.003534735552586339 -0.07499381884380991 0  -7.74643124966494e-05 -0.01210497681433211 0  -0.0189894669743643 -0.08708512345290294 0  -0.03573478741405032 -0.06660859450219164 0  0.04359375 -0.006406250000000002 0  0.03517259397916334 -0.00591284371726238 0  0.01965556274601837 -0.05175082112889391 0  0.0278582381998454 -0.05655080703154879 0  0.02250150625287546 -0.06335204673888746 0  -0.04398521510889171 -0.06244044890584508 0  -0.04409485128436456 -0.05055827494263457 0  -0.03770557434490081 -0.05497182533168162 0  -0.03656642640981419 -0.04343156897269072 0  0.009194419875177533 -0.02206075900562258 0  0.04451331908599852 -0.04636519166703897 0  -0.01485520520633521 -0.0715431557666749 0  0.03646473132841593 -0.0487266977067035 0  0.04405668594067944 -0.05696201317865261 0  -0.005203169869815907 -0.063408387077611 0  -0.02247505510150612 -0.07631841748069951 0  -0.02804244587606518 -0.08423194559419436 0  -0.02935822174816368 -0.01244339991380455 0  -0.03106530920251624 -0.021416390819467 0  -0.02607827560230913 -0.005825920664671352 0  -0.03361300586943999 -0.03280621050224407 0  -0.02666093500983432 -0.02972007434472025 0  0.02285652838955744 -0.08859591663874328 0  0.03188089108105607 -0.03248232675683183 0  0.004333204611837944 -0.09457186870462708 0  -0.02704324561419352 -0.07289471972323462 0  0.007922643115429704 -0.005561362357538799 0  0.0335055138043014 -0.01319301380430141 0  0.03678783220616013 -0.0177615033815196 0  -0.02428736139211932 -0.05463634003970875 0  -0.02991071428571428 -0.06211553281168236 0  0.01197199101441062 -0.06755294829741498 0  0.007340105850365504 -0.07377496925579345 0  0.0155154430127655 -0.07780260757679426 0  0.03658895737846099 -0.06574341599602251 0  -0.02410709817404581 -0.09456977129140082 0  0.01071697988857716 -0.05184278466318995 0  0.01728938824664831 -0.06065342293474459 0  -0.001242172060814776 -0.02269478175693585 0  -0.03834687844188856 -0.07228526864991387 0  0.03504935696459177 -0.08867226036471411 0  0.03924608506562968 -0.08530978616477196 0  0.04446421559415197 -0.08718473081338503 0  0.02679267124047066 -0.0428532372923227 0  -0.007808666799817795 -0.01546134924060014 0  -0.02636641232583814 -0.04890574755055194 0  -0.02267804660897878 -0.04479166666666666 0  0.03489498531895979 -0.05823382415106163 0  1.202993820196636e-05 -0.0552203632715353 0  0.005332838990544739 -0.06042849285714701 0  -0.04436969017718883 -0.02424446436705185 0  -0.01009042364871584 -0.04479166666666667 0  -0.01041666666666667 -0.05520833333333333 0  -0.015625 -0.05 0  -0.01562499999999999 -0.03958333333333334 0  -0.02083333333333332 -0.034375 0  0.04436432681906392 -0.09436432681906393 0  -0.02240513392857143 -0.06518787202380952 0  0.04537177
[...]
<PointData  Vectors="displacement"> 
<DataArray  type="Float64"  Name="displacement"  NumberOfComponents="3" format="ascii">-1.1945351305650707e-21 -1.7388880444014945e-02 0.0000000000000000e+00  -1.4630564084616304e-21 -2.7484186753499659e-04 0.0000000000000000e+00  8.9284084911222499e-23 -2.6808113572274932e-04 0.0000000000000000e+00  4.3993401174516965e-22 -1.7390994708432989e-02 0.0000000000000000e+00  1.1693543998662457e-24 -1.0947829992804898e-20 0.0000000000000000e+00  2.8259308229514932e-22 -7.4053761432642164e-03 0.0000000000000000e+00  -6.7064416696196997e-08 -1.8752485552920702e-02 0.0000000000000000e+00  -2.1978786959690530e-22 -7.4054647888324677e-03 0.0000000000000000e+00  4.0462939564978249e-08 -7.4857227753807503e-03 0.0000000000000000e+00  8.2342190247803666e-23 1.4875368625580314e-20 0.0000000000000000e+00  7.9328989670076613e-05 -1.8644757745753793e-02 0.0000000000000000e+00  1.1691651864256607e-21 -1.2217373651266709e-02 0.0000000000000000e+00  8.4040401595809363e-23 -4.0803184420394466e-20 0.0000000000000000e+00  0.0000000000000000e+00 -1.2217328360597569e-02 0.0000000000000000e+00  -7.9269726635804454e-05 -1.8644762101446850e-02 0.0000000000000000e+00  1.1337369927079054e-05 -4.3961697771310810e-03 0.0000000000000000e+00  3.6120142416836340e-05 -9.7748215742722751e-03 0.0000000000000000e+00  -3.7863672432157062e-05 -1.1509858350228878e-02 0.0000000000000000e+00  -1.7510346427626331e-22 -3.4607977331758081e-03 0.0000000000000000e+00  -9.9423671323553656e-06 -4.0858407302750924e-03 0.0000000000000000e+00  -1.6467722788665152e-22 -3.4607127384080763e-03 0.0000000000000000e+00  6.4196279880946439e-06 -1.2329248601886729e-02 0.0000000000000000e+00  1.1717801575367854e-06 -3.2907987013078292e-03 0.0000000000000000e+00  -2.2556821322493512e-05 -7.4586459114699185e-03 0.0000000000000000e+00  4.8744676309123368e-05 -1.3760044019073219e-02 0.0000000000000000e+00  -3.1218471789652222e-06 -1.8023853314397978e-03 0.0000000000000000e+00  -5.6888270774286888e-06 -1.5281700341212753e-02 0.0000000000000000e+00  -3.0770594412081715e-05 -9.7195347497084292e-03 0.0000000000000000e+00  -1.3138819896824040e-05 -5.6828512584160837e-03 0.0000000000000000e+00  -4.9075731275743898e-05 -1.4342907551220956e-02 0.0000000000000000e+00  7.2852183527675548e-23 -1.7050339951868430e-03 0.0000000000000000e+00  3.2908670952265258e-23 -1.8215615780059319e-20 0.0000000000000000e+00  -5.4365261909259195e-06 -2.2052621950127637e-03 0.0000000000000000e+00  5.5493295613458693e-06 -2.2571646445959689e-03 0.0000000000000000e+00  -3.9824832895483204e-05 -1.8727624958784234e-02 0.0000000000000000e+00  2.6633864417424962e-23 -5.4546154326886323e-20 0.0000000000000000e+00  5.0250298548204474e-06 -2.3213223131859414e-03 0.0000000000000000e+00  8.5371287211601497e-06 -5.4094866884787729e-03 0.0000000000000000e+00  1.9472944169366160e-05 -6.8902004888373204e-03 0.0000000000000000e+00  -1.8093714866270540e-05 -9.4157999091719242e-03 0.0000000000000000e+00  -9.2995809442535189e-06 -5.7145773344730415e-03 0.0000000000000000e+00  1.9210783491821613e-05 -7.7987863205314844e-03 0.0000000000000000e+00  3.2525747017367382e-05 -1.2494710373926261e-02 0.0000000000000000e+00  3.7592181184626251e-05 -1.0964589700668069e-02 0.0000000000000000e+00  -6.1047940072186120e-23 -5.3435300872502738e-03 0.0000000000000000e+00  1.1634812803766654e-06 -1.5515573725751819e-02 0.0000000000000000e+00  3.2454902715939843e-21 -1.4969126572076904e-02 0.0000000000000000e+00  -1.1739192131210644e-04 -1.8453474431119686e-02 0.0000000000000000e+00  7.5623199982856131e-06 -4.0089758698314782e-03 0.0000000000000000e+00  8.9795760836068704e-06 -1.5509345342989830e-02 0.0000000000000000e+00  1.0958576424490163e-05 -9.6438598296318782e-03 0.0000000000000000e+00  3.3414925278598257e-23 -5.3436142751806075e-03 0.0000000000000000e+00  1.1741250065359014e-04 -1.8453511340866788e-02 0.0000000000000000e+00  -1.5194854066666804e-21 -9.6887783203269025e-03 0.0000000000000000e+00  -3.0934654642843299e-23 -1.5838543177135769e-20 0.0000000000000000e+00  3.9788704701601298e-05 -1.8727704912906398e-02 0.0000000000000000e+00  9.6399943688564469e-22 -1.4969186263561184e-02 0.0000000000000000e+00  -6.8149635316660622e-23 -4.4518161773752371e-20 0.0000000000000000e+00  5.6750782749827860e-22 -9.6887232516635162e-03 0.0000000000000000e+00  -3.8983927227726064e-23 -1.7052371149830360e-03 0.0000000000000000e+00  -1.6599317263339330e-05 -1.1936066043405165e-02 0.0000000000000000e+00  1.4165048459287826e-06 -1.4774339269260056e-03 0.0000000000000000e+00  -4.6986755303217772e-06 -3.4641293100832870e-03 0.0000000000000000e+00  -9.1118468571654253e-06 -3.9033876405153147e-03 0.0000000000000000e+00  2.1258496001457583e-05 -8.6520905140200742e-03 0.0000000000000000e+00  1.7444909233105077e-05 -6.1880835625125240e-03 0.0000000000000000e+00  -1.7794835084352041e-05 -7.5742694343095803e-03 0.0000000000000000e+00  6.6465534845003384e-06 -3.7707225882231713e-03 0.0000000000000000e+00  -6.1250775080989209e-06 -2.4616440424579983e-03 0.0000000000000000e+00  -9.7836403931506746e-06 -1.5677004039031953e-02 0.0000000000000000e+00  -4.7611147424662236e-05 -1.1832113426477237e-02 0.0000000000000000e+00  -1.5928156384242691e-05 -5.6977796035535292e-03 0.0000000000000000e+00  -1.3576555581897408e-05 -7.4785042914772429e-03 0.0000000000000000e+00  -3.1416752961840114e-05 -9.3847631785734294e-03 0.0000000000000000e+00  1.6567659495365359e-08 -5.7150910813784433e-03 0.0000000000000000e+00  -3.1537022419056887e-06 -1.4260588177014897e-02 0.0000000000000000e+00  -2.9184617102135546e-05 -8.4616074749754126e-03 0.0000000000000000e+00  4.6452544153581937e-05 -1.5520638651696976e-02 0.0000000000000000e+00  4.3628266512230440e-05 -1.2939772041301928e-02 0.0000000000000000e+00  4.5970946478816514e-05 -1.1686064711832546e-02 0.0000000000000000e+00  -6.1366231328128140e-06 -4.4929109879225295e-03 0.0000000000000000e+00  9.8550670086294510e-06 -5.5819803375241261e-03 0.0000000000000000e+00  2.7870871747054476e-05 -1.0416377175981128e-02 0.0000000000000000e+00  3.6075644569135752e-06 -1.6250178885344975e-02 0.0000000000000000e+00  2.5607944281496051e-05 -7.8036980730666304e-03 0.0000000000000000e+00  -8.2991488313637916e-07 -2.0786487431326355e-03 0.0000000000000000e+00  2.4773010536362987e-06 -1.0024466181389213e-03 0.0000000000000000e+00  3.3184752803425149e-06 -1.2054165141278032e-03 0.0000000000000000e+00  3.6788508808242678e-06 -2.5697909211927620e-03 0.0000000000000000e+00  3.4543503573886290e-06 -1.2738917038815820e-03 0.0000000000000000e+00  -2.6418491365837656e-06 -9.5801818531560275e-04 0.0000000000000000e+00  -3.4830149938767960e-06 -1.2558601740301752e-03 0.0000000000000000e+00  -3.6537053439256408e-06 -2.5699241323653664e-03 0.0000000000000000e+00  -4.0653913574084477e-05 -1.3613553514211873e-02 0.0000000000000000e+00  -4.4498857900747498e-05 -1.5908793832617622e-02 0.0000000000000000e+00  -4.8199241617639933e-06 -1.0442203050240824e-02 0.0000000000000000e+00  -2.2647668294595490e-06 -9.0666571784031613e-04 0.0000000000000000e+00  -3.1679354771502716e-05 -1.1392646439588986e-02 0.0000000000000000e+00  -4.1318806639641875e-05 -1.3376942509871363e-02 0.0000000000000000e+00  3.6334165301122148e-06 -1.6560145716232932e-02 0.0000000000000000e+00  -2.5857780421306301e-05 -1.3216916019974892e-02 0.0000000000000000e+00  -9.0117668435816170e-07 -8.8555877241162993e-04 0.0000000000000000e+00  5.0297261355314106e-06 -1.6624132212709076e-02 0.0000000000000000e+00  -7.9529446740305624e-06 -6.3185570092494890e-03 0.0000000000000000e+00  -1.9604831664056405e-06 -4.3755369643089809e-03 0.0000000000000000e+00  1.2455148448096169e-05 -7.1371072557126405e-03 0.0000000000000000e+00  1.4356292211829858e-05 -5.4603032930537823e-03 0.0000000000000000e+00  1.5658319309575215e-05 -1.4231636501696787e-02 0.0000000000000000e+00  -2.0605641192787694e-05 -6.8675044226556535e-03 0.0000000000000000e+00  8.3021254102383357e-06 -3.3850471672911748e-03 0.0000000000000000e+00  -3.9394981180544035e-05 -1.0196190334964253e-02 0.0000000000000000e+00  -6.4881912366227479e-22 -8.5173173515157956e-03 0.0000000000000000e+00  3.6142338137727615e-06 -2.6929379833335568e-03 0.0000000000000000e+00  8.0242134979074462e-06 -3.3810689877900309e-03 0.0000000000000000e+00  5.8366338685538373e-06 -2.2676932972455753e-03 0.0000000000000000e+00  3.4769619182939336e-06 -4.4245771153944499e-03 0.0000000000000000e+00  1.0886410641775250e-05 -4.7814161945341225e-03 0.0000000000000000e+00  7.0913510941360922e-06 -6.5807460152722359e-03 0.0000000000000000e+00  5.9669761119116471e-05 -1.8695018867788821e-02 0.0000000000000000e+00  2.7125900911795034e-05 -8.2642593833248401e-03 0.0000000000000000e+00  -1.4767260122533748e-06 -8.9218673866624000e-03 0.0000000000000000e+00  3.8062782118029035e-21 -1.6365197172062095e-02 0.0000000000000000e+00  3.3979354350639402e-05 -9.6515957521319858e-03 0.0000000000000000e+00  -6.6211651402243793e-23 -4.3828607826779118e-03 0.0000000000000000e+00  1.4468975418080724e-05 -6.4667821344528012e-03 0.0000000000000000e+00  1.0361638056491656e-05 -7.8902341701123091e-03 0.0000000000000000e+00  2.7672003974512256e-05 -9.0250826977097982e-03 0.0000000000000000e+00  -6.6823722784688295e-06 -3.1485547787716102e-03 0.0000000000000000e+00  2.0894429611554844e-05 -1.1791406198957251e-02 0.0000000000000000e+00  -5.9677900877205938e-06 -6.5809533003096639e-03 0.0000000000000000e+00  -2.8363402595664508e-05 -1.0442394321963051e-02 0.0000000000000000e+00  -1.5717925571137913e-05 -6.5699782825922428e-03 0.0000000000000000e+00  -2.2337249219780626e-05 -8.4128601039424808e-03 0.0000000000000000e+00  -1.2081497871800072e-05 -5.1614817087569870e-03 0.0000000000000000e+00  -6.8433943667412289e-06 -4.5587547702634797e-03 0.0000000000000000e+00  4.1568783404276697e-05 -1.3129838180817697e-02 0.0000000000000000e+00  1.4215933315118029e-05 -1.6729342745432509e-02 0.0000000000000000e+00  -1.6218035656732141e-05 -8.7178766948096155e-03 0.0000000000000000e+00  3.8178633076985182e-05 -1.1125621760333626e-02 0.0000000000000000e+00  -9.4909908829495553e-06 -1.6562760992728961e-02 0.0000000000000000e+00  -5.9617469547978043e-05 -1.8695107236417385e-02 0.0000000000000000e+00  -1.2090930019784088e-05 -4.6320860409476243e-03 0.0000000000000000e+00  -7.4956316500371891e-06 -2.9825802971667746e-03 0.0000000000000000e+00  4.9118699755074888e-05 -1.2311975812168851e-02 0.0000000000000000e+00  2.0433424527122937e-05 -9.8939472359285303e-03 0.0000000000000000e+00  -1.3175924098408494e-04 -1.8242374800523323e-02 0.0000000000000000e+00  2.5287506349699004e-05 -1.1576878213166700e-02 0.0000000000000000e+00  -4.8002143916650656e-05 -1.2670952482790323e-02 0.0000000000000000e+00  -2.9664451075014960e-23 -6.3492150502080244e-03 0.0000000000000000e+00  -3.9430301113160897e-06 -1.4782888881121658e-03 0.0000000000000000e+00  -6.2600670684937804e-06 -3.0929176613395584e-03 0.0000000000000000e+00  -2.7137319761841889e-06 -1.6973709986176651e-02 0.0000000000000000e+00  4.9657135469741687e-06 -1.3924109415249004e-02 0.0000000000000000e+00  -1.8543972723064022e-23 -2.2519725292034089e-20 0.0000000000000000e+00  3.2069404910578369e-22 -8.6168652872860546e-04 0.0000000000000000e+00  -1.3463913376974882e-05 -1.3483842311400693e-02 0.0000000000000000e+00  -4.0543791656328143e-06 -3.5254729086081531e-03 0.0000000000000000e+00  4.0966263229455506e-05 -1.4266579967705272e-02 0.0000000000000000e+00  -2.7623851715628380e-08 -1.2318969547781276e-03 0.0000000000000000e+00  -1.9299642610536631e-05 -1.0072476946236720e-02 0.0000000000000000e+00  -2.4277302515400810e-05 -1.4367612225846659e-02 0.0000000000000000e+00  -8.3589789503334497e-23 -3.3544218366280083e-20 0.0000000000000000e+00  -5.4466992409557036e-22 -8.6196136094327707e-04 0.0000000000000000e+00  1.3190528694946504e-04 -1.8242463355599682e-02 0.0000000000000000e+00  -6.2658601078559536e-21 -1.6365673999913462e-02 0.0000000000000000e+00  1.0890143268590438e-05 -1.0980438753420540e-02 0.0000000000000000e+00  1.9006369246409094e-05 -8.9291121845342051e-03 0.0000000000000000e+00  2.1875859849464526e-06 -8.0870070623215661e-04 0.0000000000000000e+00  1.6731640746140261e-06 -9.3132617399985023e-04 0.0000000000000000e+00  6.1536182925119929e-23 3.6007457894470174e-20 0.0000000000000000e+00  2.9089469781417528e-05 -1.4844523913001938e-02 0.0000000000000000e+00  -2.5688823012826576e-05 -1.7124172440157185e-02 0.0000000000000000e+00  5.3178938484575419e-06 -4.6428397472347230e-03 0.0000000000000000e+00  1.0753809962956326e-05 -4.4387309828466158e-03 0.0000000000000000e+00  4.0122329626020746e-06 -3.5134516876885761e-03 0.0000000000000000e+00  6.3968214491549406e-06 -3.0800356677110007e-03 0.0000000000000000e+00  1.2339990380857344e-06 -2.2964536291928258e-03 0.0000000000000000e+00  1.1750423144505914e-05 -1.6879705886761610e-02 0.0000000000000000e+00  -3.8080992104706198e-22 -8.5174366494006944e-03 0.0000000000000000e+00  3.1163105816092783e-06 -1.8784911238373986e-03 0.0000000000000000e+00  -1.6083660419747523e-06 -8.4867144495942234e-04 0.0000000000000000e+00  6.0683951559894194e-23 -4.3829366590424808e-03 0.0000000000000000e+00  9.8687323119136223e-05 -1.8569745805985739e-02 0.0000000000000000e+00  0.0000000000000000e+00 -1.2080454910682241e-20 0.0000000000000000e+00  -9.8634974982464451e-05 -1.8569553449499034e-02 0.0000000000000000e+00  -1.1417801650136423e-21 -1.0922084069807780e-02 0.0000000000000000e+00  -4.7761245186547025e-22 -1.0922062992927964e-02 0.0000000000000000e+00  -1.5896821451539098e-23 -3.9173323241224113e-20 0.0000000000000000e+00  3.2651576556469486e-23 -5.4811826875122538e-21 0.0000000000000000e+00  -1.0610634006676102e-22 8.9526685488185045e-21 0.0000000000000000e+00  -9.0454301506789028e-22 -1.3570849303528854e-02 0.0000000000000000e+00  1.6913502681728276e-23 0.0000000000000000e+00 0.0000000000000000e+00  1.9869166142249049e-05 -1.8746339319745876e-02 0.0000000000000000e+00  -1.9939109559446862e-05 -1.8746392850322813e-02 0.0000000000000000e+00  -1.1665018310711216e-21 -1.3570733637102195e-02 0.0000000000000000e+00  -5.7496449350347633e-22 -6.3491564626857568e-03 0.0000000000000000e+00  5.4623667612661467e-23 -2.5704299645717362e-03 0.0000000000000000e+00  1.3749160181604899e-22 -2.5702931511238565e-03 0.0000000000000000e+00  -7.8503094283576782e-06 -8.0902318588578666e-03 0.0000000000000000e+00  -1.6606137263325055e-05 -1.0614646768457366e-02 0.0000000000000000e+00  -2.7949395679618552e-05 -1.1726879723820791e-02 0.0000000000000000e+00  -4.5732899516149929e-06 -1.1784955036435656e-02 0.0000000000000000e+00  2.7075306850435836e-05 -1.3997976633074864e-02 0.0000000000000000e+00  -4.3069924525667613e-06 -2.6511603002633915e-03 0.0000000000000000e+00  -1.8148758941487589e-06 -3.4778453035727444e-03 0.0000000000000000e+00  -4.4646056993629455e-08 -1.5554923145674950e-02 0.0000000000000000e+00  -4.1393999725135578e-06 -1.7595158858535530e-03 0.0000000000000000e+00  -1.0028572171790244e-05 -4.7132300864499467e-03 0.0000000000000000e+00  3.9944104691248159e-05 -1.6528573748899322e-02 0.0000000000000000e+00  -1.0038987306255810e-05 -1.6899040364842841e-02 0.0000000000000000e+00  2.0593974967213196e-05 -7.1548982882437230e-03 0.0000000000000000e+00  1.8498869327605878e-05 -6.3241226777477960e-03 0.0000000000000000e+00  1.3882186627617643e-05 -5.2324710965271203e-03 0.0000000000000000e+00  -5.7291320257430126e-06 -5.3544111448637962e-03 0.0000000000000000e+00  -9.2638478686402050e-06 -7.3119550443672653e-03 0.0000000000000000e+00  -1.4546619416613241e-05 -6.5704326252338475e-03 0.0000000000000000e+00  -2.4875860320352188e-05 -8.5979733821925745e-03 0.0000000000000000e+00  1.5057845971592645e-05 -1.3142243217388700e-02 0.0000000000000000e+00  1.0342141584266269e-05 -8.0483630925265569e-03 0.0000000000000000e+00  -7.8947814895946123e-06 -3.9837467437395264e-03 0.0000000000000000e+00  2.0158078675390373e-05 -7.6438265501270917e-03 0.0000000000000000e+00  7.0828634732342448e-06 -6.2341604354395532e-03 0.0000000000000000e+00  -4.3291936394637119e-06 -5.2383971229622702e-03 0.0000000000000000e+00  -8.0398863032654939e-06 -3.2780643422757037e-03 0.0000000000000000e+00  -5.6206908603935202e-06 -2.1534851071122571e-03 0.0000000000000000e+00  -2.7106738573009139e-05 -1.5310604867533493e-02 0.0000000000000000e+00  -5.0114191298952754e-05 -1.3145658044575910e-02 0.0000000000000000e+00  2.5313179316218368e-05 -1.7055226422951684e-02 0.0000000000000000e+00  -4.0484061230766823e-05 -1.0669730826621893e-02 0.0000000000000000e+00  -4.3928472805096171e-05 -1.1355986534652623e-02 0.0000000000000000e+00  4.0219748483216218e-06 -1.5506425763811560e-03 0.0000000000000000e+00  4.1994981456815678e-05 -1.0746487698668953e-02 0.0000000000000000e+00  5.4024249678817911e-07 -7.3583971544692942e-04 0.0000000000000000e+00  -9.5756453783586688e-06 -3.7754442249289030e-03 0.0000000000000000e+00  -1.1809010180713601e-05 -1.7235682074030329e-02 0.0000000000000000e+00  4.0676397369898787e-05 -1.5065562217925052e-02 0.0000000000000000e+00  5.2730077402297833e-05 -1.3919636583346036e-02 0.0000000000000000e+00  -1.9971611830190880e-05 -6.6512893768053711e-03 0.0000000000000000e+00  -1.4424541375517476e-05 -5.4188568901055844e-03 0.0000000000000000e+00  7.8730105664561970e-06 -4.5889839166205638e-03 0.0000000000000000e+00  3.8732142878517521e-06 -3.6560341916448478e-03 0.0000000000000000e+00  6.1349085727001300e-06 -3.0669979937237861e-03 0.0000000000000000e+00  9.9381604723169586e-06 -4.8453187886588244e-03 0.0000000000000000e+00  -2.0541906680136319e-06 -7.3515597590258219e-04 0.0000000000000000e+00  1.3055232167299166e-05 -7.1542994781228679e-03 0.0000000000000000e+00  1.3651985299042900e-05 -5.6691283687257234e-03 0.0000000000000000e+00  -2.0614093013593948e-06 -1.3009108231956501e-02 0.0000000000000000e+00  -6.9813283706418458e-06 -3.8592971694416407e-03 0.0000000000000000e+00  4.0192770417642057e-06 -1.5391089059678671e-03 0.0000000000000000e+00  4.3729989112352383e-06 -2.0031700121507104e-03 0.0000000000000000e+00  3.0500351329063079e-06 -1.7462957497332448e-03 0.0000000000000000e+00  3.1083330765031982e-05 -8.7391901787261961e-03 0.0000000000000000e+00  -6.4151282615592320e-06 -1.4713046671476280e-02 0.0000000000000000e+00  -2.5051267141735139e-05 -7.6380768978971617e-03 0.0000000000000000e+00  -2.7981430605192039e-05 -8.3930094152534565e-03 0.0000000000000000e+00  1.4657523358425361e-05 -6.0361724226001157e-03 0.0000000000000000e+00  1.5974611084465789e-08 -6.5804859002056458e-03 0.0000000000000000e+00  4.9856388490776661e-06 -5.7158456588780621e-03 0.0000000000000000e+00  -2.7245786433879567e-05 -1.2394681766071289e-02 0.0000000000000000e+00  -1.5475330844958278e-05 -8.4241535748570979e-03 0.0000000000000000e+00  -1.1329046579896386e-05 -6.5767419909259599e-03 0.0000000000000000e+00  -1.8922307752468738e-05 -7.4698443854007241e-03 0.0000000000000000e+00  -2.5691246916762774e-05 -9.4025592300934855e-03 0.0000000000000000e+00  -3.5391662996555504e-05 -1.0420801878839136e-02 0.0000000000000000e+00  3.4024382782424958e-06 -7.6711263976706270e-04 0.0000000000000000e+00  -1.2874174228183300e-05 -4.9452987889698858e-03 0.0000000000000000e+00  1.1004135061819998e-05 -9.0093718502184325e-03 0.0000000000000000e+00  -1.5578156509631565e-05 -5.9448670394768865e-03 0.0000000000000000e+00  1.8829717843170630e-05 -1.0350740987067637e-02 0.0000000000000000e+00  2.9952311026060030e-05 -1.1482352550093292e-02 0.0000000000000000e+00  3.3732621784091915e-05 -1.0127157383560808e-02 0.0000000000000000e+00  5.1114864940056713e-06 -5.4090273055446454e-03 0.0000000000000000e+00  -2.6603343734611390e-06 -2.8135592983220487e-03 0.0000000000000000e+00  -5.3484193189685240e-06 -2.4370165869506159e-03 0.0000000000000000e+00  -3.3151883052491042e-05 -9.1444620271607935e-03 0.0000000000000000e+00  -2.3192571023202373e-05 -7.6586651914133143e-03 0.0000000000000000e+00  -3.2181913187299334e-05 -9.2115184020466895e-03 0.0000000000000000e+00  -1.6664289198217263e-07 -2.7024047284566650e-03 0.0000000000000000e+00  