<?xml version="1.0"?>
<VTKFile type="UnstructuredGrid"  version="0.1"  >
<UnstructuredGrid>
<Piece  NumberOfPoints="431" NumberOfCells="800">
<Points>
<DataArray  type="Float64"  NumberOfComponents="3"  format="ascii">-0.25 -1 0  -0.2 -1 0  -0.15 -1 0  -0.1 -1 0  -0.04999999999999999 -1 0  0 -1 0  0.04999999999999999 -1 0  0.09999999999999998 -1 0  0.15 -1 0  0.2 -1 0  0.25 -1 0  -0.25 -0.95 0  -0.2 -0.95 0  -0.15 -0.95 0  -0.1 -0.95 0  -0.04999999999999999 -0.95 0  0 -0.95 0  0.04999999999999999 -0.95 0  0.09999999999999998 -0.95 0  0.15 -0.95 0  0.2 -0.95 0  0.25 -0.95 0  -0.25 -0.9 0  -0.2 -0.9 0  -0.15 -0.9 0  -0.1 -0.9 0  -0.04999999999999999 -0.9 0  0 -0.9 0  0.04999999999999999 -0.9 0  0.09999999999999998 -0.9 0  0.15 -0.9 0  0.2 -0.9 0  0.25 -0.9 0  -0.25 -0.85 0  -0.2 -0.85 0  -0.15 -0.85 0  -0.1 -0.85 0  -0.04999999999999999 -0.85 0  0 -0.85 0  0.04999999999999999 -0.85 0  0.09999999999999998 -0.85 0  0.15 -0.85 0  0.2 -0.85 0  0.25 -0.85 0  -0.25 -0.8 0  -0.2 -0.8 0  -0.15 -0.8 0  -0.1 -0.8 0  -0.04999999999999999 -0.8 0  0 -0.8 0  0.04999999999999999 -0.8 0  0.09999999999999998 -0.8 0  0.15 -0.8 0  0.2 -0.8 0  0.25 -0.8 0  -0.25 -0.75 0  -0.2 -0.75 0  -0.15 -0.75 0  -0.1 -0.75 0  -0.04999999999999999 -0.75 0  0 -0.75 0  0.04999999999999999 -0.75 0  0.09999999999999998 -0.75 0  0.15 -0.75 0  0.2 -0.75 0  0.25 -0.75 0  -0.25 -0.7 0  -0.2 -0.7 0  -0.15 -0.7 0  -0.1 -0.7 0  -0.04999999999999999 -0.7 0  0 -0.7 0  0.04999999999999999 -0.7 0  0.09999999999999998 -0.7 0  0.15 -0.7 0  0.2 -0.7 0  0.25 -0.7 0  -0.25 -0.65 0  -0.2 -0.65 0  -0.15 -0.65 0  -0.1 -0.65 0  -0.04999999999999999 -0.65 0  0 -0.65 0  0.04999999999999999 -0.65 0  0.09999999999999998 -0.65 0  0.15 -0.65 0  0.2 -0.65 0  0.25 -0.65 0  -0.25 -0.6 0  -0.2 -0.6 0  -0.15 -0.6 0  -0.1 -0.6 0  -0.04999999999999999 -0.6 0  0 -0.6 0  0.04999999999999999 -0.6 0  0.09999999999999998 -0.6 0  0.15 -0.6 0  0.2 -0.6 0  0.25 -0.6 0  -0.25 -0.55 0  -0.2 -0.55 0  -0.15 -0.55 0  -0.1 -0.55 0  -0.04999999999999999 -0.55 0  0 -0.55 0  0.04999999999999999 -0.55 0  0.09999999999999998 -0.55 0  0.15 -0.55 0  0.2 -0.55 0  0.25 -0.55 0  -0.25 -0.5 0  -0.2 -0.5 0  -0.15 -0.5 0  -0.1 -0.5 0  -0.04999999999999999 -0.5 0  0 -0.5 0  0.04999999999999999 -0.5 0  0.09999999999999998 -0.5 0  0.15 -0.5 0  0.2 -0.5 0  0.25 -0.5 0  -0.25 -0.45 0  -0.2 -0.45 0  -0.15 -0.45 0  -0.1 -0.45 0  -0.04999999999999999 -0.45 0  0 -0.45 0  0.04999999999999999 -0.45 0  0.09999999999999998 -0.45 0  0.15 -0.45 0  0.2 -0.45 0  0.25 -0.45 0  -0.25 -0.4 0  -0.2 -0.4 0  -0.15 -0.4 0  -0.1 -0.4 0  -0.04999999999999999 -0.4 0  0 -0.4 0  0.04999999999999999 -0.4 0  0.09999999999999998 -0.4 0  0.15 -0.4 0  0.2 -0.4 0  0.25 -0.4 0  -0.25 -0.35 0  -0.2 -0.35 0  -0.15 -0.35 0  -0.1 -0.35 0  -0.04999999999999999 -0.35 0  0 -0.35 0  0.04999999999999999 -0.35 0  0.09999999999999998 -0.35 0  0.15 -0.35 0  0.2 -0.35 0  0.25 -0.35 0  -0.25 -0.3 0  -0.2 -0.3 0  -0.15 -0.3 0  -0.1 -0.3 0  -0.04999999999999999 -0.3 0  0 -0.3 0  0.04999999999999999 -0.3 0  0.09999999999999998 -0.3 0  0.15 -0.3 0  0.2 -0.3 0  0.25 -0.3 0  -0.25 -0.25 0  -0.2 -0.25 0  -0.15 -0.25 0  -0.1 -0.25 0  -0.04999999999999999 -0.25 0  0 -0.25 0  0.04999999999999999 -0.25 0  0.09999999999999998 -0.25 0  0.15 -0.25 0  0.2 -0.25 0  0.25 -0.25 0  -0.25 -0.2 0  -0.2 -0.2 0  -0.15 -0.2 0  -0.1 -0.2 0  -0.04999999999999999 -0.2 0  0 -0.2 0  0.04999999999999999 -0.2 0  0.09999999999999998 -0.2 0  0.15 -0.2 0  0.2 -0.2 0  0.25 -0.2 0  -0.25 -0.15 0  -0.2 -0.15 0  -0.15 -0.15 0  -0.1 -0.15 0  -0.04999999999999999 -0.15 0  0 -0.15 0  0.04999999999999999 -0.15 0  0.09999999999999998 -0.15 0  0.15 -0.15 0  0.2 -0.15 0  0.25 -0.15 0  -0.25 -0.09999999999999998 0  -0.2 -0.09999999999999998 0  -0.15 -0.09999999999999998 0  -0.1 -0.09999999999999998 0  -0.04999999999999999 -0.09999999999999998 0  0 -0.09999999999999998 0  0.04999999999999999 -0.09999999999999998 0  0.09999999999999998 -0.09999999999999998 0  0.15 -0.09999999999999998 0  0.2 -0.09999999999999998 0  0.25 -0.09999999999999998 0  -0.25 -0.05000000000000004 0  -0.2 -0.05000000000000004 0  -0.15 -0.05000000000000004 0  -0.1 -0.05000000000000004 0  -0.04999999999999999 -0.05000000000000004 0  0 -0.05000000000000004 0  0.04999999999999999 -0.05000000000000004 0  0.09999999999999998 -0.05000000000000004 0  0.15 -0.05000000000000004 0  0.2 -0.05000000000000004 0  0.25 -0.05000000000000004 0  -0.25 0 0  -0.2 0 0  -0.15 0 0  -0.1 0 0  -0.04999999999999999 0 0  0 0 0  0.04999999999999999 0 0  0.09999999999999998 0 0  0.15 0 0  0.2 0 0  0.25 0 0  -0.225 -0.975 0  -0.175 -0.975 0  -0.125 -0.975 0  -0.07500000000000001 -0.975 0  -0.02499999999999999 -0.975 0  0.02500000000000002 -0.975 0  0.07500000000000001 -0.975 0  0.125 -0.975 0  0.175 -0.975 0  0.225 -0.975 0  -0.225 -0.925 0  -0.175 -0.925 0  -0.125 -0.925 0  -0.07500000000000001 -0.925 0  -0.02499999999999999 -0.925 0  0.02500000000000002 -0.925 0  0.07500000000000001 -0.925 0  0.125 -0.925 0  0.175 -0.925 0  0.225 -0.925 0  -0.225 -0.875 0  -0.175 -0.875 0  -0.125 -0.875 0  -0.07500000000000001 -0.875 0  -0.02499999999999999 -0.875 0  0.02500000000000002 -0.875 0  0.07500000000000001 -0.875 0  0.125 -0.875 0  0.175 -0.875 0  0.225 -0.875 0  -0.225 -0.825 0  -0.175 -0.825 0  -0.125 -0.825 0  -0.07500000000000001 -0.825 0  -0.02499999999999999 -0.825 0  0.02500000000000002 -0.825 0  0.07500000000000001 -0.825 0  0.125 -0.825 0  0.175 -0.825 0  0.225 -0.825 0  -0.225 -0.775 0  -0.175 -0.775 0  -0.125 -0.775 0  -0.07500000000000001 -0.775 0  -0.02499999999999999 -0.775 0  0.02500000000000002 -0.775 0  0.07500000000000001 -0.775 0  0.125 -0.775 0  0.175 -0.775 0  0.225 -0.775 0  -0.225 -0.725 0  -0.175 -0.725 0  -0.125 -0.725 0  -0.07500000000000001 -0.725 0  -0.02499999999999999 -0.725 0  0.02500000000000002 -0.725 0  0.07500000000000001 -0.725 0  0.125 -0.725 0  0.175 -0.725 0  0.225 -0.725 0  -0.225 -0.675 0  -0.175 -0.675 0  -0.125 -0.675 0  -0.07500000000000001 -0.675 0  -0.02499999999999999 -0.675 0  0.02500000000000002 -0.675 0  0.07500000000000001 -0.675 0  0.125 -0.675 0  0.175 -0.675 0  0.225 -0.675 0  -0.225 -0.625 0  -0.175 -0.625 0  -0.125 -0.625 0  -0.07500000000000001 -0.625 0  -0.02499999999999999 -0.625 0  0.02500000000000002 -0.625 0  0.07500000000000001 -0.625 0  0.125 -0.625 0  0.175 -0.625 0  0.225 -0.625 0  -0.225 -0.575 0  -0.175 -0.575 0  -0.125 -0.575 0  -0.07500000000000001 -0.575 0  -0.02499999999999999 -0.575 0  0.02500000000000002 -0.575 0  0.07500000000000001 -0.575 0  0.125 -0.575 0  0.175 -0.575 0  0.225 -0.575 0  -0.225 -0.525 0  -0.175 -0.525 0  -0.125 -0.525 0  -0.07500000000000001 -0.525 0  -0.02499999999999999 -0.525 0  0.02500000000000002 -0.525 0  0.07500000000000001 -0.525 0  0.125 -0.525 0  0.175 -0.525 0  0.225 -0.525 0  -0.225 -0.475 0  -0.175 -0.475 0  -0.125 -0.475 0  -0.07500000000000001 -0.475 0  -0.02499999999999999 -0.475 0  0.02500000000000002 -0.475 0  0.07500000000000001 -0.475 0  0.125 -0.475 0  0.175 -0.475 0  0.225 -0.475 0  -0.225 -0.425 0  -0.175 -0.425 0  -0.125 -0.425 0  -0.07500000000000001 -0.425 0  -0.02499999999999999 -0.425 0  0.02500000000000002 -0.425 0  0.07500000000000001 -0.425 0  0.125 -0.425 0  0.175 -0.425 0  0.225 -0.425 0  -0.225 -0.375 0  -0.175 -0.375 0  -0.125 -0.375 0  -0.07500000000000001 -0.375 0  -0.02499999999999999 -0.375 0  0.02500000000000002 -0.375 0  0.07500000000000001 -0.375 0  0.125 -0.375 0  0.175 -0.375 0  0.225 -0.375 0  -0.225 -0.325 0  -0.175 -0.325 0  -0.125 -0.325 0  -0.07500000000000001 -0.325 0  -0.02499999999999999 -0.325 0  0.02500000000000002 -0.325 0  0.07500000000000001 -0.325 0  0.125 -0.325 0  0.175 -0.325 0  0.225 -0.325 0  -0.225 -0.275 0  -0.175 -0.275 0  -0.125 -0.275 0  -0.07500000000000001 -0.275 0  -0.02499999999999999 -0.275 0  0.02500000000000002 -0.275 0  0.07500000000000001 -0.275 0  0.125 -0.275 0  0.175 -0.275 0  0.225 -0.275 0  -0.225 -0.225 0  -0.175 -0.225 0  -0.125 -0.225 0  -0.07500000000000001 -0.225 0  -0.02499999999999999 -0.225 0  0.02500000000000002 -0.225 0  0.07500000000000001 -0.225 0  0.125 -0.225 0  0.175 -0.225 0  0.225 -0.225 0  -0.225 -0.175 0  -0.175 -0.175 0  -0.125 -0.175 0  -0.07500000000000001 -0.175 0  -0.02499999999999999 -0.175 0  0.02500000000000002 -0.175 0  0.07500000000000001 -0.175 0  0.125 -0.175 0  0.175 -0.175 0  0.225 -0.175 0  -0.225 -0.125 0  -0.175 -0.125 0  -0.125 -0.125 0  -0.07500000000000001 -0.125 0  -0.02499999999999999 -0.125 0  0.02500000000000002 -0.125 0  0.07500000000000001 -0.125 0  0.125 -0.125 0  0.175 -0.125 0  0.225 -0.125 0  -0.225 -0.07499999999999996 0  -0.175 -0.07499999999999996 0  -0.125 -0.07499999999999996 0  -0.07500000000000001 -0.07499999999999996 0  -0.02499999999999999 -0.07499999999999996 0  0.02500000000000002 -0.07499999999999996 0  0.07500000000000001 -0.07499999999999996 0  0.125 -0.07499999999999996 0  0.175 -0.07499999999999996 0  0.225 -0.07499999999999996 0  -0.225 -0.02500000000000002 0  -0.175 -0.02500000000000002 0  -0.125 -0.02500000000000002 0  -0.07500000000000001 -0.02500000000000002 0  -0.02499999999999999 -0.02500000000000002 0  0.02500000000000002 -0.02500000000000002 0  0.07500000000000001 -0.02500000000000002 0  0.125 -0.02500000000000002 0  0.175 -0.02500000000000002 0  0.225 -0.02500000000000002 0  </DataArray>
</Points>
<Cells>
[...]
<PointData  Vectors="displacement"> 
<DataArray  type="Float64"  Name="displacement"  NumberOfComponents="3" format="ascii">9.0277966143151441e-34 1.5246593050577391e-18 0.0000000000000000e+00  0.0000000000000000e+00 -1.1434944787933041e-18 0.0000000000000000e+00  -3.3529800862854896e-32 -6.4668980289395646e-19 0.0000000000000000e+00  -3.6111186457260645e-33 -1.3976043629695944e-18 0.0000000000000000e+00  -1.8220354061502364e-32 3.8401348279663399e-19 0.0000000000000000e+00  -1.0833355937178189e-32 -1.9693516023662460e-18 0.0000000000000000e+00  -3.1963601577178062e-32 5.5263936724667740e-19 0.0000000000000000e+00  1.4444474582904252e-32 0.0000000000000000e+00 0.0000000000000000e+00  -1.0789695735696303e-32 -1.3499587596865396e-18 0.0000000000000000e+00  -1.8055593228630322e-33 1.2705494208814495e-19 0.0000000000000000e+00  1.8055593228630312e-33 -1.0164395367051591e-18 0.0000000000000000e+00  1.0833355937178210e-32 -5.9673452082051803e-03 0.0000000000000000e+00  -7.3370185911350617e-17 -5.9673452082051682e-03 0.0000000000000000e+00  -1.5071758598720477e-16 -5.9673452082051603e-03 0.0000000000000000e+00  -2.0373914907236183e-16 -5.9673452082051629e-03 0.0000000000000000e+00  -2.3261630839073336e-16 -5.9673452082051690e-03 0.0000000000000000e+00  -2.4416095760038870e-16 -5.9673452082051569e-03 0.0000000000000000e+00  -2.3128134065904407e-16 -5.9673452082051621e-03 0.0000000000000000e+00  -1.8489697208598907e-16 -5.9673452082051534e-03 0.0000000000000000e+00  -1.1255673736300851e-16 -5.9673452082051265e-03 0.0000000000000000e+00  -5.3414088833339154e-17 -5.9673452082051326e-03 0.0000000000000000e+00  -7.3353036721843936e-33 -5.9673452082051361e-03 0.0000000000000000e+00  -9.0939553829056954e-33 -1.2056297857429250e-02 0.0000000000000000e+00  -1.2175084273440876e-16 -1.2056297857429243e-02 0.0000000000000000e+00  -2.4579154844877101e-16 -1.2056297857429239e-02 0.0000000000000000e+00  -3.5024381106719362e-16 -1.2056297857429246e-02 0.0000000000000000e+00  -4.1236928558716215e-16 -1.2056297857429272e-02 0.0000000000000000e+00  -4.2369046031829123e-16 -1.2056297857429264e-02 0.0000000000000000e+00  -3.8214775559039022e-16 -1.2056297857429248e-02 0.0000000000000000e+00  -3.0101512369459672e-16 -1.2056297857429257e-02 0.0000000000000000e+00  -2.0176200758927964e-16 -1.2056297857429236e-02 0.0000000000000000e+00  -1.0228881211143639e-16 -1.2056297857429250e-02 0.0000000000000000e+00  -6.5773946761439070e-33 -1.2056297857429264e-02 0.0000000000000000e+00  -2.7083389842945493e-32 -1.8391394139988654e-02 0.0000000000000000e+00  -1.6896285373955136e-16 -1.8391394139988651e-02 0.0000000000000000e+00  -3.2749474854323863e-16 -1.8391394139988641e-02 0.0000000000000000e+00  -4.6137055112184673e-16 -1.8391394139988658e-02 0.0000000000000000e+00  -5.4693577932763328e-16 -1.8391394139988679e-02 0.0000000000000000e+00  -5.6845469185907826e-16 -1.8391394139988682e-02 0.0000000000000000e+00  -5.0677252663055674e-16 -1.8391394139988689e-02 0.0000000000000000e+00  -4.0195283626621502e-16 -1.8391394139988703e-02 0.0000000000000000e+00  -2.6549345678426795e-16 -1.8391394139988693e-02 0.0000000000000000e+00  -1.2787473761404821e-16 -1.8391394139988700e-02 0.0000000000000000e+00  1.6250033905767294e-32 -1.8391394139988710e-02 0.0000000000000000e+00  -1.2787051734449572e-32 -2.5102840113390121e-02 0.0000000000000000e+00  -1.9688333304634877e-16 -2.5102840113390156e-02 0.0000000000000000e+00  -3.8914700749646168e-16 -2.5102840113390146e-02 0.0000000000000000e+00  -5.4952605356792528e-16 -2.5102840113390135e-02 0.0000000000000000e+00  -6.5297769776277285e-16 -2.5102840113390198e-02 0.0000000000000000e+00  -6.7323630245962841e-16 -2.5102840113390187e-02 0.0000000000000000e+00  -6.0044112610269329e-16 -2.5102840113390236e-02 0.0000000000000000e+00  -4.7477494389108444e-16 -2.5102840113390194e-02 0.0000000000000000e+00  -3.3210309346152762e-16 -2.5102840113390201e-02 0.0000000000000000e+00  -1.7516988434240182e-16 -2.5102840113390215e-02 0.0000000000000000e+00  -1.0251915853507197e-32 -2.5102840113390232e-02 0.0000000000000000e+00  3.6111186457260645e-33 -3.2328883006937058e-02 0.0000000000000000e+00  -2.3325010520996349e-16 -3.2328883006937086e-02 0.0000000000000000e+00  -4.4510150989789162e-16 -3.2328883006937113e-02 0.0000000000000000e+00  -6.2143819727216753e-16 -3.2328883006937134e-02 0.0000000000000000e+00  -7.2383720953886618e-16 -3.2328883006937113e-02 0.0000000000000000e+00  -7.4093346260430049e-16 -3.2328883006937162e-02 0.0000000000000000e+00  -6.7216543741228643e-16 -3.2328883006937204e-02 0.0000000000000000e+00  -5.3990515875774594e-16 -3.2328883006937183e-02 0.0000000000000000e+00  -3.4912227417218635e-16 -3.2328883006937141e-02 0.0000000000000000e+00  -1.7351758116469869e-16 -3.2328883006937231e-02 0.0000000000000000e+00  -8.1401611713941713e-33 -3.2328883006937197e-02 0.0000000000000000e+00  2.4953016930627176e-32 -4.0217641964315473e-02 0.0000000000000000e+00  -2.6199442854416921e-16 -4.0217641964315425e-02 0.0000000000000000e+00  -5.0504292756355821e-16 -4.0217641964315494e-02 0.0000000000000000e+00  -6.8166094791779419e-16 -4.0217641964315480e-02 0.0000000000000000e+00  -7.9993956848680072e-16 -4.0217641964315536e-02 0.0000000000000000e+00  -8.0147026215124818e-16 -4.0217641964315556e-02 0.0000000000000000e+00  -7.3942370633402455e-16 -4.0217641964315577e-02 0.0000000000000000e+00  -5.8657453444981188e-16 -4.0217641964315549e-02 0.0000000000000000e+00  -3.7342251476342279e-16 -4.0217641964315549e-02 0.0000000000000000e+00  -1.9100087034995619e-16 -4.0217641964315598e-02 0.0000000000000000e+00  -2.3214334151096178e-33 -4.0217641964315640e-02 0.0000000000000000e+00  -1.8055593228630333e-32 -4.8928245640990381e-02 0.0000000000000000e+00  -2.9602015114168156e-16 -4.8928245640990388e-02 0.0000000000000000e+00  -5.2655933745100882e-16 -4.8928245640990409e-02 0.0000000000000000e+00  -7.3708660803200733e-16 -4.8928245640990402e-02 0.0000000000000000e+00  -8.6825873163324082e-16 -4.8928245640990464e-02 0.0000000000000000e+00  -8.8426242134977607e-16 -4.8928245640990527e-02 0.0000000000000000e+00  -7.7568869278866918e-16 -4.8928245640990471e-02 0.0000000000000000e+00  -6.1165172134253563e-16 -4.8928245640990506e-02 0.0000000000000000e+00  -4.2029257328063245e-16 -4.8928245640990513e-02 0.0000000000000000e+00  -2.1061693856278577e-16 -4.8928245640990589e-02 0.0000000000000000e+00  -1.8055593228630331e-32 -4.8928245640990638e-02 0.0000000000000000e+00  -6.3013836354330281e-32 -5.8631149912963747e-02 0.0000000000000000e+00  -3.4433367406705167e-16 -5.8631149912963733e-02 0.0000000000000000e+00  -6.3346565828819581e-16 -5.8631149912963726e-02 0.0000000000000000e+00  -8.1150626224735312e-16 -5.8631149912963733e-02 0.0000000000000000e+00  -9.1222838291459327e-16 -5.8631149912963761e-02 0.0000000000000000e+00  -9.4392869081442510e-16 -5.8631149912963809e-02 0.0000000000000000e+00  -8.4636318162681522e-16 -5.8631149912963802e-02 0.0000000000000000e+00  -6.6078060521977690e-16 -5.8631149912963781e-02 0.0000000000000000e+00  -4.2775146925706345e-16 -5.8631149912963768e-02 0.0000000000000000e+00  -2.2259491488915251e-16 -5.8631149912963872e-02 0.0000000000000000e+00  -2.3904517262793217e-33 -5.8631149912963969e-02 0.0000000000000000e+00  1.0833355937178210e-32 -6.9507543107098294e-02 0.0000000000000000e+00  -3.6705262711427363e-16 -6.9507543107098391e-02 0.0000000000000000e+00  -6.6892243916166488e-16 -6.9507543107098377e-02 0.0000000000000000e+00  -8.7155903709578982e-16 -6.9507543107098391e-02 0.0000000000000000e+00  -9.6079228171765978e-16 -6.9507543107098349e-02 0.0000000000000000e+00  -9.8608848939900325e-16 -6.9507543107098349e-02 0.0000000000000000e+00  -8.9970230217156504e-16 -6.9507543107098321e-02 0.0000000000000000e+00  -6.9200177671192557e-16 -6.9507543107098335e-02 0.0000000000000000e+00  -4.5858646318432339e-16 -6.9507543107098391e-02 0.0000000000000000e+00  -2.2838006956054320e-16 -6.9507543107098474e-02 0.0000000000000000e+00  3.3466324167910553e-32 -6.9507543107098391e-02 0.0000000000000000e+00  7.1262592096733752e-33 -8.1747788695772511e-02 0.0000000000000000e+00  -3.6967684259333018e-16 -8.1747788695772525e-02 0.0000000000000000e+00  -7.0221722120138527e-16 -8.1747788695772566e-02 0.0000000000000000e+00  -9.1546299248394702e-16 -8.1747788695772608e-02 0.0000000000000000e+00  -1.0135450532611129e-15 -8.1747788695772594e-02 0.0000000000000000e+00  -1.0179869725194420e-15 -8.1747788695772566e-02 0.0000000000000000e+00  -9.3031558612824711e-16 -8.1747788695772497e-02 0.0000000000000000e+00  -7.0837493344279765e-16 -8.1747788695772566e-02 0.0000000000000000e+00  -4.3143250112042741e-16 -8.1747788695772566e-02 0.0000000000000000e+00  -2.0326853496450053e-16 -8.1747788695772580e-02 0.0000000000000000e+00  -3.2629036334596218e-32 -8.1747788695772650e-02 0.0000000000000000e+00  -5.0555661040164985e-32 -9.5548905484718241e-02 0.0000000000000000e+00  -3.9213146193578741e-16 -9.5548905484718130e-02 0.0000000000000000e+00  -6.9863674671569402e-16 -9.5548905484718241e-02 0.0000000000000000e+00  -8.9842744801917909e-16 -9.5548905484718227e-02 0.0000000000000000e+00  -1.0325706429980968e-15 -9.5548905484718227e-02 0.0000000000000000e+00  -1.0618209030564148e-15 -9.5548905484718255e-02 0.0000000000000000e+00  -9.5785722321029949e-16 -9.5548905484718158e-02 0.0000000000000000e+00  -6.7813433213731651e-16 -9.5548905484718172e-02 0.0000000000000000e+00  -3.9780778540965182e-16 -9.5548905484717991e-02 0.0000000000000000e+00  -1.7996104624675569e-16 -9.5548905484718144e-02 0.0000000000000000e+00  1.8055593228630346e-33 -9.5548905484718158e-02 0.0000000000000000e+00  -1.8619747865078489e-32 -1.1111114105850464e-01 0.0000000000000000e+00  -4.2117050645026226e-16 -1.1111114105850463e-01 0.0000000000000000e+00  -7.0920317993293498e-16 -1.1111114105850466e-01 0.0000000000000000e+00  -8.8804102096203584e-16 -1.1111114105850467e-01 0.0000000000000000e+00  -1.0258062426717229e-15 -1.1111114105850481e-01 0.0000000000000000e+00  -1.0617576272536967e-15 -1.1111114105850485e-01 0.0000000000000000e+00  -8.6295585383295975e-16 -1.1111114105850468e-01 0.0000000000000000e+00  -5.8190729755398985e-16 -1.1111114105850464e-01 0.0000000000000000e+00  -3.4581171345801007e-16 -1.1111114105850460e-01 0.0000000000000000e+00  -1.6071757871698476e-16 -1.1111114105850450e-01 0.0000000000000000e+00  -3.0635062060072827e-33 -1.1111114105850466e-01 0.0000000000000000e+00  -4.3333423748712790e-32 -1.2863375261445345e-01 0.0000000000000000e+00  -4.0149318394781738e-16 -1.2863375261445345e-01 0.0000000000000000e+00  -6.6527406612971500e-16 -1.2863375261445353e-01 0.0000000000000000e+00  -8.9619416174671979e-16 -1.2863375261445353e-01 0.0000000000000000e+00  -1.0706218224720638e-15 -1.2863375261445353e-01 0.0000000000000000e+00  -1.0835519206106155e-15 -1.2863375261445353e-01 0.0000000000000000e+00  -8.6552245185927806e-16 -1.2863375261445339e-01 0.0000000000000000e+00  -5.4463453120657095e-16 -1.2863375261445348e-01 0.0000000000000000e+00  -2.5512507160762902e-16 -1.2863375261445326e-01 0.0000000000000000e+00  -1.0647541172219208e-16 -1.2863375261445348e-01 0.0000000000000000e+00  -7.6665741560629550e-33 -1.2863375261445351e-01 0.0000000000000000e+00  5.0406511003903563e-32 -1.4831016632302049e-01 0.0000000000000000e+00  -3.5093876379551606e-16 -1.4831016632302063e-01 0.0000000000000000e+00  -6.4514045199043518e-16 -1.4831016632302074e-01 0.0000000000000000e+00  -9.1863579095309942e-16 -1.4831016632302060e-01 0.0000000000000000e+00  -1.0397052391494653e-15 -1.4831016632302060e-01 0.0000000000000000e+00  -1.0570794858608398e-15 -1.4831016632302049e-01 0.0000000000000000e+00  -8.2674835402527673e-16 -1.4831016632302046e-01 0.0000000000000000e+00  -5.0175899970863252e-16 -1.4831016632302046e-01 0.0000000000000000e+00  -2.2478707720611296e-16 -1.4831016632302041e-01 0.0000000000000000e+00  -1.0608430150590712e-16 -1.4831016632302038e-01 0.0000000000000000e+00  8.9633123527843519e-33 -1.4831016632302058e-01 0.0000000000000000e+00  -4.3333423748712774e-32 -1.7032273736271286e-01 0.0000000000000000e+00  -3.1600936807230049e-16 -1.7032273736271283e-01 0.0000000000000000e+00  -6.0925028511083707e-16 -1.7032273736271289e-01 0.0000000000000000e+00  -9.0103600214784527e-16 -1.7032273736271306e-01 0.0000000000000000e+00  -1.0758106196730587e-15 -1.7032273736271261e-01 0.0000000000000000e+00  -9.5718902224744880e-16 -1.7032273736271286e-01 0.0000000000000000e+00  -7.7179157996045497e-16 -1.7032273736271264e-01 0.0000000000000000e+00  -5.1209283376510963e-16 -1.7032273736271256e-01 0.0000000000000000e+00  -2.2484787870980318e-16 -1.7032273736271267e-01 0.0000000000000000e+00  -3.9054256290594874e-17 -1.7032273736271267e-01 0.0000000000000000e+00  9.0277966143151578e-34 -1.7032273736271278e-01 0.0000000000000000e+00  -2.8935107034716185e-32 -1.9483737297529530e-01 0.0000000000000000e+00  -3.1557908957831387e-16 -1.9483737297529521e-01 0.0000000000000000e+00  -7.0470475057747352e-16 -1.9483737297529563e-01 0.0000000000000000e+00  -8.7750127664751354e-16 -1.9483737297529535e-01 0.0000000000000000e+00  -9.5086919253088070e-16 -1.9483737297529560e-01 0.0000000000000000e+00  -8.5204374038012984e-16 -1.9483737297529535e-01 0.0000000000000000e+00  -7.1732162266732903e-16 -1.9483737297529499e-01 0.0000000000000000e+00  -3.8552029416384111e-16 -1.9483737297529508e-01 0.0000000000000000e+00  -1.2074763486483179e-16 -1.9483737297529469e-01 0.0000000000000000e+00  -5.5563143495420545e-17 -1.9483737297529496e-01 0.0000000000000000e+00  -9.3346890110458468e-33 -1.9483737297529502e-01 0.0000000000000000e+00  2.5277830520082465e-32 -2.2199830584426986e-01 0.0000000000000000e+00  -2.9973729408333881e-16 -2.2199830584426988e-01 0.0000000000000000e+00  -6.3373354153301302e-16 -2.2199830584426974e-01 0.0000000000000000e+00  -8.5112489087578689e-16 -2.2199830584426955e-01 0.0000000000000000e+00  -9.1505138355288466e-16 -2.2199830584426974e-01 0.0000000000000000e+00  -8.3598922976654642e-16 -2.2199830584426969e-01 0.0000000000000000e+00  -6.2558472391499010e-16 -2.2199830584426955e-01 0.0000000000000000e+00  -3.0705788436307517e-16 -2.2199830584426930e-01 0.0000000000000000e+00  -9.2776774953215731e-17 -2.2199830584426908e-01 0.0000000000000000e+00  -5.6618102168429219e-17 -2.2199830584426916e-01 0.0000000000000000e+00  4.2964935542294406e-33 -2.2199830584426949e-01 0.0000000000000000e+00  -7.2673762745237070e-32 -2.5192331135598484e-01 0.0000000000000000e+00  -2.5593286649132397e-16 -2.5192331135598495e-01 0.0000000000000000e+00  -5.7422689024349842e-16 -2.5192331135598495e-01 0.0000000000000000e+00  -7.9502102114002289e-16 -2.5192331135598478e-01 0.0000000000000000e+00  -8.6253619097016383e-16 -2.5192331135598467e-01 0.0000000000000000e+00  -7.7183358364807592e-16 -2.5192331135598478e-01 0.0000000000000000e+00  -6.1208889481951213e-16 -2.5192331135598406e-01 0.0000000000000000e+00  -3.7251239905479946e-16 -2.5192331135598406e-01 0.0000000000000000e+00  -8.9614851658859192e-17 -2.5192331135598411e-01 0.0000000000000000e+00  -7.4876553687079875e-17 -2.5192331135598428e-01 0.0000000000000000e+00  -2.2972518170355547e-34 -2.5192331135598456e-01 0.0000000000000000e+00  1.0833355937178210e-32 -2.8469964787898305e-01 0.0000000000000000e+00  -2.1436521520477436e-16 -2.8469964787898311e-01 0.0000000000000000e+00  -5.4117280360863984e-16 -2.8469964787898305e-01 0.0000000000000000e+00  -8.1944004493296610e-16 -2.8469964787898328e-01 0.0000000000000000e+00  -8.5002362191363554e-16 -2.8469964787898289e-01 0.0000000000000000e+00  -7.9994515714064289e-16 -2.8469964787898272e-01 0.0000000000000000e+00  -6.0190047531547326e-16 -2.8469964787898228e-01 0.0000000000000000e+00  -3.4999770367682170e-16 -2.8469964787898228e-01 0.0000000000000000e+00  -1.4528632162787284e-16 -2.8469964787898239e-01 0.0000000000000000e+00  -5.6054071741048510e-17 -2.8469964787898255e-01 0.0000000000000000e+00  3.2161525438497814e-33 -2.8469964787898250e-01 0.0000000000000000e+00  -6.3194576300206163e-33 -3.2038096396099169e-01 0.0000000000000000e+00  -1.7061146026474548e-16 -3.2038096396099169e-01 0.0000000000000000e+00  -5.1018810550454859e-16 -3.2038096396099180e-01 0.0000000000000000e+00  -6.8649911040179060e-16 -3.2038096396099142e-01 0.0000000000000000e+00  -8.9720675814887520e-16 -3.2038096396099164e-01 0.0000000000000000e+00  -9.3119186262421079e-16 -3.2038096396099103e-01 0.0000000000000000e+00  -7.0954129174640626e-16 -3.2038096396099142e-01 0.0000000000000000e+00  -4.0782125370403392e-16 -3.2038096396099053e-01 0.0000000000000000e+00  -9.1759782083407635e-17 -3.2038096396099086e-01 0.0000000000000000e+00  4.2652865066186350e-17 -3.2038096396099103e-01 0.0000000000000000e+00  1.0833355937178193e-32 -3.2038096396099131e-01 0.0000000000000000e+00  -2.0252032711158913e-17 -2.9758334442709818e-03 0.0000000000000000e+00  -5.5420826476101250e-17 -2.9758334442709727e-03 0.0000000000000000e+00  -9.4682036424137453e-17 -2.9758334442709692e-03 0.0000000000000000e+00  -1.1222745420399573e-16 -2.9758334442709687e-03 0.0000000000000000e+00  -1.2334203346361162e-16 -2.9758334442709648e-03 0.0000000000000000e+00  -1.2271125613190284e-16 -2.9758334442709605e-03 0.0000000000000000e+00  -1.1116765638675243e-16 -2.9758334442709514e-03 0.0000000000000000e+00  -7.4913259588328534e-17 -2.9758334442709397e-03 0.0000000000000000e+00  -4.2298584969811156e-17 -2.9758334442709341e-03 0.0000000000000000e+00  -1.5629286114046541e-17 -2.9758334442709393e-03 0.0000000000000000e+00  -4.9785993677036219e-17 -8.9881115066885939e-03 0.0000000000000000e+00  -1.4791832021041716e-16 -8.9881115066885817e-03 0.0000000000000000e+00  -2.4582866739596028e-16 -8.9881115066885887e-03 0.0000000000000000e+00  -3.0504863545173237e-16 -8.9881115066885852e-03 0.0000000000000000e+00  -3.3452701955060554e-16 -8.9881115066885939e-03 0.0000000000000000e+00  -3.2727369567914674e-16 -8.9881115066885852e-03 0.0000000000000000e+00  -2.8214563823778542e-16 -8.9881115066885835e-03 0.0000000000000000e+00  -2.0240069082172743e-16 -8.9881115066885696e-03 0.0000000000000000e+00  -1.1966206455806662e-16 -8.9881115066885522e-03 0.0000000000000000e+00  -3.9315503722377221e-17 -8.9881115066885627e-03 0.0000000000000000e+00  -7.2643160813881767e-17 -1.5183699705135226e-02 0.0000000000000000e+00  -2.1411022072563918e-16 -1.5183699705135230e-02 0.0000000000000000e+00  -3.5584620805068294e-16 -1.5183699705135237e-02 0.0000000000000000e+00  -4.5144885647922097e-16 -1.5183699705135254e-02 0.0000000000000000e+00  -4.9902693081663828e-16 -1.5183699705135258e-02 0.0000000000000000e+00  -4.7821989166352841e-16 -1.5183699705135265e-02 0.0000000000000000e+00  -4.0410578201667744e-16 -1.5183699705135263e-02 0.0000000000000000e+00  -2.9373104155662881e-16 -1.5183699705135242e-02 0.0000000000000000e+00  -1.7823330385696945e-16 -1.5183699705135251e-02 0.0000000000000000e+00  -5.6183071341472634e-17 -1.5183699705135275e-02 0.0000000000000000e+00  -9.4239776190981810e-17 -2.1689632679253640e-02 0.0000000000000000e+00  -2.6899025490221765e-16 -2.1689632679253657e-02 0.0000000000000000e+00  -4.4112296205099498e-16 -2.1689632679253664e-02 0.0000000000000000e+00  -5.6008929787859054e-16 -2.1689632679253695e-02 0.0000000000000000e+00  -6.2694206181710620e-16 -2.1689632679253685e-02 0.0000000000000000e+00  -5.9837764362882466e-16 -2.1689632679253702e-02 0.0000000000000000e+00  -4.9674449454545898e-16 -2.1689632679253685e-02 0.0000000000000000e+00  -3.7163819953222268e-16 -2.1689632679253685e-02 0.0000000000000000e+00  -2.2962809428567121e-16 -2.1689632679253685e-02 0.0000000000000000e+00  -7.4551286925712775e-17 -2.1689632679253702e-02 0.0000000000000000e+00  -1.0863751977571507e-16 -2.8639860012800836e-02 0.0000000000000000e+00  -3.1940678546393860e-16 -2.8639860012800829e-02 0.0000000000000000e+00  -5.0692292655740778e-16 -2.8639860012800861e-02 0.0000000000000000e+00  -6.4517448510378251e-16 -2.8639860012800878e-02 0.0000000000000000e+00  -7.1327161524951942e-16 -2.8639860012800902e-02 0.0000000000000000e+00  -6.8162829788745634e-16 -2.863