<?xml version="1.0"?>
<VTKFile type="UnstructuredGrid"  version="0.1"  >
<UnstructuredGrid>
<Piece  NumberOfPoints="1091" NumberOfCells="2050">
<Points>
<DataArray  type="Float64"  NumberOfComponents="3"  format="ascii">-0.5 -1 0  -0.4 -1 0  -0.3 -1 0  -0.2 -1 0  -0.09999999999999998 -1 0  0 -1 0  0.09999999999999998 -1 0  0.2 -1 0  0.3 -1 0  0.4 -1 0  0.5 -1 0  -0.5 -0.98 0  -0.4 -0.98 0  -0.3 -0.98 0  -0.2 -0.98 0  -0.09999999999999998 -0.98 0  0 -0.98 0  0.09999999999999998 -0.98 0  0.2 -0.98 0  0.3 -0.98 0  0.4 -0.98 0  0.5 -0.98 0  -0.5 -0.96 0  -0.4 -0.96 0  -0.3 -0.96 0  -0.2 -0.96 0  -0.09999999999999998 -0.96 0  0 -0.96 0  0.09999999999999998 -0.96 0  0.2 -0.96 0  0.3 -0.96 0  0.4 -0.96 0  0.5 -0.96 0  -0.5 -0.9399999999999999 0  -0.4 -0.9399999999999999 0  -0.3 -0.9399999999999999 0  -0.2 -0.9399999999999999 0  -0.09999999999999998 -0.9399999999999999 0  0 -0.9399999999999999 0  0.09999999999999998 -0.9399999999999999 0  0.2 -0.9399999999999999 0  0.3 -0.9399999999999999 0  0.4 -0.9399999999999999 0  0.5 -0.9399999999999999 0  -0.5 -0.92 0  -0.4 -0.92 0  -0.3 -0.92 0  -0.2 -0.92 0  -0.09999999999999998 -0.92 0  0 -0.92 0  0.09999999999999998 -0.92 0  0.2 -0.92 0  0.3 -0.92 0  0.4 -0.92 0  0.5 -0.92 0  -0.5 -0.9 0  -0.4 -0.9 0  -0.3 -0.9 0  -0.2 -0.9 0  -0.09999999999999998 -0.9 0  0 -0.9 0  0.09999999999999998 -0.9 0  0.2 -0.9 0  0.3 -0.9 0  0.4 -0.9 0  0.5 -0.9 0  -0.5 -0.88 0  -0.4 -0.88 0  -0.3 -0.88 0  -0.2 -0.88 0  -0.09999999999999998 -0.88 0  0 -0.88 0  0.09999999999999998 -0.88 0  0.2 -0.88 0  0.3 -0.88 0  0.4 -0.88 0  0.5 -0.88 0  -0.5 -0.86 0  -0.4 -0.86 0  -0.3 -0.86 0  -0.2 -0.86 0  -0.09999999999999998 -0.86 0  0 -0.86 0  0.09999999999999998 -0.86 0  0.2 -0.86 0  0.3 -0.86 0  0.4 -0.86 0  0.5 -0.86 0  -0.5 -0.84 0  -0.4 -0.84 0  -0.3 -0.84 0  -0.2 -0.84 0  -0.09999999999999998 -0.84 0  0 -0.84 0  0.09999999999999998 -0.84 0  0.2 -0.84 0  0.3 -0.84 0  0.4 -0.84 0  0.5 -0.84 0  -0.5 -0.8200000000000001 0  -0.4 -0.8200000000000001 0  -0.3 -0.8200000000000001 0  -0.2 -0.8200000000000001 0  -0.09999999999999998 -0.8200000000000001 0  0 -0.8200000000000001 0  0.09999999999999998 -0.8200000000000001 0  0.2 -0.8200000000000001 0  0.3 -0.8200000000000001 0  0.4 -0.8200000000000001 0  0.5 -0.8200000000000001 0  -0.5 -0.8 0  -0.4 -0.8 0  -0.3 -0.8 0  -0.2 -0.8 0  -0.09999999999999998 -0.8 0  0 -0.8 0  0.09999999999999998 -0.8 0  0.2 -0.8 0  0.3 -0.8 0  0.4 -0.8 0  0.5 -0.8 0  -0.5 -0.78 0  -0.4 -0.78 0  -0.3 -0.78 0  -0.2 -0.78 0  -0.09999999999999998 -0.78 0  0 -0.78 0  0.09999999999999998 -0.78 0  0.2 -0.78 0  0.3 -0.78 0  0.4 -0.78 0  0.5 -0.78 0  -0.5 -0.76 0  -0.4 -0.76 0  -0.3 -0.76 0  -0.2 -0.76 0  -0.09999999999999998 -0.76 0  0 -0.76 0  0.09999999999999998 -0.76 0  0.2 -0.76 0  0.3 -0.76 0  0.4 -0.76 0  0.5 -0.76 0  -0.5 -0.74 0  -0.4 -0.74 0  -0.3 -0.74 0  -0.2 -0.74 0  -0.09999999999999998 -0.74 0  0 -0.74 0  0.09999999999999998 -0.74 0  0.2 -0.74 0  0.3 -0.74 0  0.4 -0.74 0  0.5 -0.74 0  -0.5 -0.72 0  -0.4 -0.72 0  -0.3 -0.72 0  -0.2 -0.72 0  -0.09999999999999998 -0.72 0  0 -0.72 0  0.09999999999999998 -0.72 0  0.2 -0.72 0  0.3 -0.72 0  0.4 -0.72 0  0.5 -0.72 0  -0.5 -0.7 0  -0.4 -0.7 0  -0.3 -0.7 0  -0.2 -0.7 0  -0.09999999999999998 -0.7 0  0 -0.7 0  0.09999999999999998 -0.7 0  0.2 -0.7 0  0.3 -0.7 0  0.4 -0.7 0  0.5 -0.7 0  -0.5 -0.6799999999999999 0  -0.4 -0.6799999999999999 0  -0.3 -0.6799999999999999 0  -0.2 -0.6799999999999999 0  -0.09999999999999998 -0.6799999999999999 0  0 -0.6799999999999999 0  0.09999999999999998 -0.6799999999999999 0  0.2 -0.6799999999999999 0  0.3 -0.6799999999999999 0  0.4 -0.6799999999999999 0  0.5 -0.6799999999999999 0  -0.5 -0.6599999999999999 0  -0.4 -0.6599999999999999 0  -0.3 -0.6599999999999999 0  -0.2 -0.6599999999999999 0  -0.09999999999999998 -0.6599999999999999 0  0 -0.6599999999999999 0  0.09999999999999998 -0.6599999999999999 0  0.2 -0.6599999999999999 0  0.3 -0.6599999999999999 0  0.4 -0.6599999999999999 0  0.5 -0.6599999999999999 0  -0.5 -0.64 0  -0.4 -0.64 0  -0.3 -0.64 0  -0.2 -0.64 0  -0.09999999999999998 -0.64 0  0 -0.64 0  0.09999999999999998 -0.64 0  0.2 -0.64 0  0.3 -0.64 0  0.4 -0.64 0  0.5 -0.64 0  -0.5 -0.62 0  -0.4 -0.62 0  -0.3 -0.62 0  -0.2 -0.62 0  -0.09999999999999998 -0.62 0  0 -0.62 0  0.09999999999999998 -0.62 0  0.2 -0.62 0  0.3 -0.62 0  0.4 -0.62 0  0.5 -0.62 0  -0.5 -0.6 0  -0.4 -0.6 0  -0.3 -0.6 0  -0.2 -0.6 0  -0.09999999999999998 -0.6 0  0 -0.6 0  0.09999999999999998 -0.6 0  0.2 -0.6 0  0.3 -0.6 0  0.4 -0.6 0  0.5 -0.6 0  -0.5 -0.5800000000000001 0  -0.4 -0.5800000000000001 0  -0.3 -0.5800000000000001 0  -0.2 -0.5800000000000001 0  -0.09999999999999998 -0.5800000000000001 0  0 -0.5800000000000001 0  0.09999999999999998 -0.5800000000000001 0  0.2 -0.5800000000000001 0  0.3 -0.5800000000000001 0  0.4 -0.5800000000000001 0  0.5 -0.5800000000000001 0  -0.5 -0.5600000000000001 0  -0.4 -0.5600000000000001 0  -0.3 -0.5600000000000001 0  -0.2 -0.5600000000000001 0  -0.09999999999999998 -0.5600000000000001 0  0 -0.5600000000000001 0  0.09999999999999998 -0.5600000000000001 0  0.2 -0.5600000000000001 0  0.3 -0.5600000000000001 0  0.4 -0.5600000000000001 0  0.5 -0.5600000000000001 0  -0.5 -0.54 0  -0.4 -0.54 0  -0.3 -0.54 0  -0.2 -0.54 0  -0.09999999999999998 -0.54 0  0 -0.54 0  0.09999999999999998 -0.54 0  0.2 -0.54 0  0.3 -0.54 0  0.4 -0.54 0  0.5 -0.54 0  -0.5 -0.52 0  -0.4 -0.52 0  -0.3 -0.52 0  -0.2 -0.52 0  -0.09999999999999998 -0.52 0  0 -0.52 0  0.09999999999999998 -0.52 0  0.2 -0.52 0  0.3 -0.52 0  0.4 -0.52 0  0.5 -0.52 0  -0.5 -0.5 0  -0.4 -0.5 0  -0.3 -0.5 0  -0.2 -0.5 0  -0.09999999999999998 -0.5 0  0 -0.5 0  0.09999999999999998 -0.5 0  0.2 -0.5 0  0.3 -0.5 0  0.4 -0.5 0  0.5 -0.5 0  -0.5 -0.48 0  -0.4 -0.48 0  -0.3 -0.48 0  -0.2 -0.48 0  -0.09999999999999998 -0.48 0  0 -0.48 0  0.09999999999999998 -0.48 0  0.2 -0.48 0  0.3 -0.48 0  0.4 -0.48 0  0.5 -0.48 0  -0.5 -0.46 0  -0.4 -0.46 0  -0.3 -0.46 0  -0.2 -0.46 0  -0.09999999999999998 -0.46 0  0 -0.46 0  0.09999999999999998 -0.46 0  0.2 -0.46 0  0.3 -0.46 0  0.4 -0.46 0  0.5 -0.46 0  -0.5 -0.4399999999999999 0  -0.4 -0.4399999999999999 0  -0.3 -0.4399999999999999 0  -0.2 -0.4399999999999999 0  -0.09999999999999998 -0.4399999999999999 0  0 -0.4399999999999999 0  0.09999999999999998 -0.4399999999999999 0  0.2 -0.4399999999999999 0  0.3 -0.4399999999999999 0  0.4 -0.4399999999999999 0  0.5 -0.4399999999999999 0  -0.5 -0.42 0  -0.4 -0.42 0  -0.3 -0.42 0  -0.2 -0.42 0  -0.09999999999999998 -0.42 0  0 -0.42 0  0.09999999999999998 -0.42 0  0.2 -0.42 0  0.3 -0.42 0  0.4 -0.42 0  0.5 -0.42 0  -0.5 -0.4 0  -0.4 -0.4 0  -0.3 -0.4 0  -0.2 -0.4 0  -0.09999999999999998 -0.4 0  0 -0.4 0  0.09999999999999998 -0.4 0  0.2 -0.4 0  0.3 -0.4 0  0.4 -0.4 0  0.5 -0.4 0  -0.5 -0.38 0  -0.4 -0.38 0  -0.3 -0.38 0  -0.2 -0.38 0  -0.09999999999999998 -0.38 0  0 -0.38 0  0.09999999999999998 -0.38 0  0.2 -0.38 0  0.3 -0.38 0  0.4 -0.38 0  0.5 -0.38 0  -0.5 -0.36 0  -0.4 -0.36 0  -0.3 -0.36 0  -0.2 -0.36 0  -0.09999999999999998 -0.36 0  0 -0.36 0  0.09999999999999998 -0.36 0  0.2 -0.36 0  0.3 -0.36 0  0.4 -0.36 0  0.5 -0.36 0  -0.5 -0.34 0  -0.4 -0.34 0  -0.3 -0.34 0  -0.2 -0.34 0  -0.09999999999999998 -0.34 0  0 -0.34 0  0.09999999999999998 -0.34 0  0.2 -0.34 0  0.3 -0.34 0  0.4 -0.34 0  0.5 -0.34 0  -0.5 -0.32 0  -0.4 -0.32 0  -0.3 -0.32 0  -0.2 -0.32 0  -0.09999999999999998 -0.32 0  0 -0.32 0  0.09999999999999998 -0.32 0  0.2 -0.32 0  0.3 -0.32 0  0.4 -0.32 0  0.5 -0.32 0  -0.5 -0.3 0  -0.4 -0.3 0  -0.3 -0.3 0  -0.2 -0.3 0  -0.09999999999999998 -0.3 0  0 -0.3 0  0.09999999999999998 -0.3 0  0.2 -0.3 0  0.3 -0.3 0  0.4 -0.3 0  0.5 -0.3 0  -0.5 -0.28 0  -0.4 -0.28 0  -0.3 -0.28 0  -0.2 -0.28 0  -0.09999999999999998 -0.28 0  0 -0.28 0  0.09999999999999998 -0.28 0  0.2 -0.28 0  0.3 -0.28 0  0.4 -0.28 0  0.5 -0.28 0  -0.5 -0.26 0  -0.4 -0.26 0  -0.3 -0.26 0  -0.2 -0.26 0  -0.09999999999999998 -0.26 0  0 -0.26 0  0.09999999999999998 -0.26 0  0.2 -0.26 0  0.3 -0.26 0  0.4 -0.26 0  0.5 -0.26 0  -0.5 -0.24 0  -0.4 -0.24 0  -0.3 -0.24 0  -0.2 -0.24 0  -0.09999999999999998 -0.24 0  0 -0.24 0  0.09999999999999998 -0.24 0  0.2 -0.24 0  0.3 -0.24 0  0.4 -0.24 0  0.5 -0.24 0  -0.5 -0.22 0  -0.4 -0.22 0  -0.3 -0.22 0  -0.2 -0.22 0  -0.09999999999999998 -0.22 0  0 -0.22 0  0.09999999999999998 -0.22 0  0.2 -0.22 0  0.3 -0.22 0  0.4 -0.22 0  0.5 -0.22 0  -0.5 -0.2 0  -0.4 -0.2 0  -0.3 -0.2 0  -0.2 -0.2 0  -0.09999999999999998 -0.2 0  0 -0.2 0  0.09999999999999998 -0.2 0  0.2 -0.2 0  0.3 -0.2 0  0.4 -0.2 0  0.5 -0.2 0  -0.5 -0.18 0  -0.4 -0.18 0  -0.3 -0.18 0  -0.2 -0.18 0  -0.09999999999999998 -0.18 0  0 -0.18 0  0.09999999999999998 -0.18 0  0.2 -0.18 0  0.3 -0.18 0  0.4 -0.18 0  0.5 -0.18 0  -0.5 -0.16 0  -0.4 -0.16 0  -0.3 -0.16 0  -0.2 -0.16 0  -0.09999999999999998 -0.16 0  0 -0.16 0  0.09999999999999998 -0.16 0  0.2 -0.16 0  0.3 -0.16 0  0.4 -0.16 0  0.5 -0.16 0  -0.5 -0.14 0  -0.4 -0.14 0  -0.3 -0.14 0  -0.2 -0.14 0  -0.09999999999999998 -0.14 0  0 -0.14 0  0.09999999999999998 -0.14 0  0.2 -0.14 0  0.3 -0.14 0  0.4 -0.14 0  0.5 -0.14 0  -0.5 -0.12 0  -0.4 -0.12 0  -0.3 -0.12 0  -0.2 -0.12 0  -0.09999999999999998 -0.12 0  0 -0.12 0  0.09999999999999998 -0.12 0  0.2 -0.12 0  0.3 -0.12 0  0.4 -0.12 0  0.5 -0.12 0  -0.5 -0.09999999999999998 0  -0.4 -0.09999999999999998 0  -0.3 -0.09999999999999998 0  -0.2 -0.09999999999999998 0  -0.09999999999999998 -0.09999999999999998 0  0 -0.09999999999999998 0  0.09999999999999998 -0.09999999999999998 0  0.2 -0.09999999999999998 0  0.3 -0.09999999999999998 0  0.4 -0.09999999999999998 0  0.5 -0.09999999999999998 0  -0.5 -0.07999999999999996 0  -0.4 -0.07999999999999996 0  -0.3 -0.07999999999999996 0  -0.2 -0.07999999999999996 0  -0.09999999999999998 -0.07999999999999996 0  0 -0.07999999999999996 0  0.09999999999999998 -0.07999999999999996 0  0.2 -0.07999999999999996 0  0.3 -0.07999999999999996 0  0.4 -0.07999999999999996 0  0.5 -0.07999999999999996 0  -0.5 -0.06000000000000005 0  -0.4 -0.06000000000000005 0  -0.3 -0.06000000000000005 0  -0.2 -0.06000000000000005 0  -0.09999999
[...]
<PointData  Vectors="displacement"> 
<DataArray  type="Float64"  Name="displacement"  NumberOfComponents="3" format="ascii">-1.4105932209867437e-34 -9.9261673506363231e-21 0.0000000000000000e+00  7.0529661049337176e-35 3.9704669402545286e-20 0.0000000000000000e+00  -1.0215780592614934e-33 -3.6467032786224457e-20 0.0000000000000000e+00  4.5138983071575806e-33 7.4446255129772431e-21 0.0000000000000000e+00  2.8238349966178370e-33 -2.4842275430749582e-20 0.0000000000000000e+00  -5.6423728839469741e-34 1.9852334701272643e-20 0.0000000000000000e+00  5.1381960100396040e-34 -5.2102685068037350e-21 0.0000000000000000e+00  3.1033050861708356e-33 -4.2186211240204369e-20 0.0000000000000000e+00  5.7619980851461008e-34 -1.6440214674491407e-20 0.0000000000000000e+00  0.0000000000000000e+00 0.0000000000000000e+00 0.0000000000000000e+00  0.0000000000000000e+00 1.9852334701272640e-20 0.0000000000000000e+00  0.0000000000000000e+00 -2.7717265353417335e-04 0.0000000000000000e+00  -5.1504486628997763e-18 -2.7717265353417497e-04 0.0000000000000000e+00  4.4540332181427813e-18 -2.7717265353417866e-04 0.0000000000000000e+00  2.3874411506260566e-17 -2.7717265353417926e-04 0.0000000000000000e+00  3.1454136460598479e-17 -2.7717265353417655e-04 0.0000000000000000e+00  3.6930426362316179e-17 -2.7717265353417194e-04 0.0000000000000000e+00  4.1520161839562134e-17 -2.7717265353417313e-04 0.0000000000000000e+00  3.2645283320111097e-17 -2.7717265353416869e-04 0.0000000000000000e+00  3.0378145082117778e-17 -2.7717265353416934e-04 0.0000000000000000e+00  1.7953346080047914e-17 -2.7717265353416164e-04 0.0000000000000000e+00  -2.0098101883606993e-33 -2.7717265353416917e-04 0.0000000000000000e+00  -8.5817014977895625e-34 -5.5434530706834626e-04 0.0000000000000000e+00  -7.5647865768456722e-18 -5.5434530706835049e-04 0.0000000000000000e+00  1.0131044097662976e-17 -5.5434530706835830e-04 0.0000000000000000e+00  4.4136350749574404e-17 -5.5434530706836144e-04 0.0000000000000000e+00  6.0735536472903783e-17 -5.5434530706835645e-04 0.0000000000000000e+00  7.2205639213551791e-17 -5.5434530706834388e-04 0.0000000000000000e+00  7.8655180654052192e-17 -5.5434530706834669e-04 0.0000000000000000e+00  6.2855723589765223e-17 -5.5434530706833802e-04 0.0000000000000000e+00  5.6914264028788183e-17 -5.5434530706833867e-04 0.0000000000000000e+00  3.3944328553346054e-17 -5.5434530706832078e-04 0.0000000000000000e+00  2.0151331728382057e-33 -5.5434530706833574e-04 0.0000000000000000e+00  1.2695338988880717e-33 -8.3151796060251814e-04 0.0000000000000000e+00  -8.4107175479934525e-18 -8.3151796060252671e-04 0.0000000000000000e+00  1.6476452529886938e-17 -8.3151796060253972e-04 0.0000000000000000e+00  6.1592020626341457e-17 -8.3151796060254818e-04 0.0000000000000000e+00  8.7608662885778351e-17 -8.3151796060253723e-04 0.0000000000000000e+00  1.0539963637818576e-16 -8.3151796060251760e-04 0.0000000000000000e+00  1.1249046240490718e-16 -8.3151796060252216e-04 0.0000000000000000e+00  8.9622794106384830e-17 -8.3151796060250806e-04 0.0000000000000000e+00  8.0393095101318899e-17 -8.3151796060250698e-04 0.0000000000000000e+00  4.8772779444363486e-17 -8.3151796060247835e-04 0.0000000000000000e+00  -4.5138983071575861e-33 -8.3151796060249917e-04 0.0000000000000000e+00  -2.2834313514212875e-33 -1.1086906141366912e-03 0.0000000000000000e+00  -8.4052485018232078e-18 -1.1086906141367001e-03 0.0000000000000000e+00  2.3107571697962699e-17 -1.1086906141367216e-03 0.0000000000000000e+00  7.7024250322728990e-17 -1.1086906141367329e-03 0.0000000000000000e+00  1.1252788161549386e-16 -1.1086906141367140e-03 0.0000000000000000e+00  1.3547710798758663e-16 -1.1086906141366940e-03 0.0000000000000000e+00  1.4380834642110141e-16 -1.1086906141366990e-03 0.0000000000000000e+00  1.1385418474630273e-16 -1.1086906141366778e-03 0.0000000000000000e+00  1.0172145660872655e-16 -1.1086906141366700e-03 0.0000000000000000e+00  6.1668193272501672e-17 -1.1086906141366340e-03 0.0000000000000000e+00  -1.8858116224361016e-33 -1.1086906141366635e-03 0.0000000000000000e+00  1.6927118651840926e-33 -1.3858632676708672e-03 0.0000000000000000e+00  -7.2300361763328288e-18 -1.3858632676708789e-03 0.0000000000000000e+00  2.9236876538708907e-17 -1.3858632676709043e-03 0.0000000000000000e+00  9.0634165138817636e-17 -1.3858632676709193e-03 0.0000000000000000e+00  1.3557395764707331e-16 -1.3858632676708991e-03 0.0000000000000000e+00  1.6264259881676403e-16 -1.3858632676708772e-03 0.0000000000000000e+00  1.7174274294703981e-16 -1.3858632676708798e-03 0.0000000000000000e+00  1.3745998980291390e-16 -1.3858632676708533e-03 0.0000000000000000e+00  1.2195154600397078e-16 -1.3858632676708271e-03 0.0000000000000000e+00  7.2445644012841755e-17 -1.3858632676707913e-03 0.0000000000000000e+00  1.0602718639053783e-32 -1.3858632676708267e-03 0.0000000000000000e+00  -2.3283370519721624e-33 -1.6630359212050443e-03 0.0000000000000000e+00  -5.3135056240295424e-18 -1.6630359212050578e-03 0.0000000000000000e+00  3.5277296638931633e-17 -1.6630359212050870e-03 0.0000000000000000e+00  1.0187300940824543e-16 -1.6630359212051052e-03 0.0000000000000000e+00  1.5533130083705408e-16 -1.6630359212050805e-03 0.0000000000000000e+00  1.8884233715042517e-16 -1.6630359212050582e-03 0.0000000000000000e+00  1.9610992499684595e-16 -1.6630359212050595e-03 0.0000000000000000e+00  1.6018681415947573e-16 -1.6630359212050309e-03 0.0000000000000000e+00  1.4045336604018798e-16 -1.6630359212049875e-03 0.0000000000000000e+00  8.0859569738996100e-17 -1.6630359212049491e-03 0.0000000000000000e+00  -1.9022857151592660e-32 -1.6630359212049827e-03 0.0000000000000000e+00  4.9370762734536041e-34 -1.9402085747392155e-03 0.0000000000000000e+00  -3.6940196134596887e-18 -1.9402085747392307e-03 0.0000000000000000e+00  4.0975730370557476e-17 -1.9402085747392685e-03 0.0000000000000000e+00  1.1147598602899065e-16 -1.9402085747392936e-03 0.0000000000000000e+00  1.7229467630319931e-16 -1.9402085747392606e-03 0.0000000000000000e+00  2.1356487501907850e-16 -1.9402085747392335e-03 0.0000000000000000e+00  2.1833421572195753e-16 -1.9402085747392344e-03 0.0000000000000000e+00  1.8056681786320867e-16 -1.9402085747392019e-03 0.0000000000000000e+00  1.5785917639671476e-16 -1.9402085747391468e-03 0.0000000000000000e+00  8.6835954676023859e-17 -1.9402085747391011e-03 0.0000000000000000e+00  1.3541694921472741e-32 -1.9402085747391390e-03 0.0000000000000000e+00  -1.6649804474276728e-34 -2.2173812282733842e-03 0.0000000000000000e+00  -3.7956493396673072e-18 -2.2173812282734028e-03 0.0000000000000000e+00  4.4682695131044379e-17 -2.2173812282734570e-03 0.0000000000000000e+00  1.2124980140324457e-16 -2.2173812282734835e-03 0.0000000000000000e+00  1.8633935334355158e-16 -2.2173812282734380e-03 0.0000000000000000e+00  2.3581826701690338e-16 -2.2173812282734145e-03 0.0000000000000000e+00  2.4051405489351965e-16 -2.2173812282734124e-03 0.0000000000000000e+00  1.9771294463869357e-16 -2.2173812282733712e-03 0.0000000000000000e+00  1.7468846635825599e-16 -2.2173812282733061e-03 0.0000000000000000e+00  9.1908376567856065e-17 -2.2173812282732497e-03 0.0000000000000000e+00  -6.6759264058686035e-33 -2.2173812282732879e-03 0.0000000000000000e+00  2.8211864419734999e-34 -2.4945538818075554e-03 0.0000000000000000e+00  -5.8820495500762636e-18 -2.4945538818075758e-03 0.0000000000000000e+00  4.6458028788898181e-17 -2.4945538818076395e-03 0.0000000000000000e+00  1.3047434638747776e-16 -2.4945538818076721e-03 0.0000000000000000e+00  1.9891220810081129e-16 -2.4945538818076205e-03 0.0000000000000000e+00  2.5421364365845730e-16 -2.4945538818075901e-03 0.0000000000000000e+00  2.6115282837732879e-16 -2.4945538818076035e-03 0.0000000000000000e+00  2.1498642882135217e-16 -2.4945538818075450e-03 0.0000000000000000e+00  1.9097933545634925e-16 -2.4945538818074652e-03 0.0000000000000000e+00  9.6150558359907215e-17 -2.4945538818073980e-03 0.0000000000000000e+00  -1.3288947681488694e-33 -2.4945538818074414e-03 0.0000000000000000e+00  -1.1450244698613150e-33 -2.7717265353417284e-03 0.0000000000000000e+00  -9.7005340847696098e-18 -2.7717265353417587e-03 0.0000000000000000e+00  4.6998528497378456e-17 -2.7717265353418312e-03 0.0000000000000000e+00  1.3815562463388426e-16 -2.7717265353418663e-03 0.0000000000000000e+00  2.1180442542620821e-16 -2.7717265353418073e-03 0.0000000000000000e+00  2.6919462691091950e-16 -2.7717265353417678e-03 0.0000000000000000e+00  2.7719082233910977e-16 -2.7717265353418012e-03 0.0000000000000000e+00  2.3368169015223992e-16 -2.7717265353417214e-03 0.0000000000000000e+00  2.0657429607967484e-16 -2.7717265353416208e-03 0.0000000000000000e+00  9.9396201912625304e-17 -2.7717265353415527e-03 0.0000000000000000e+00  -2.5310072650847856e-32 -2.7717265353415939e-03 0.0000000000000000e+00  1.9748305093814416e-33 -3.0488991888759078e-03 0.0000000000000000e+00  -1.4360722181511948e-17 -3.0488991888759391e-03 0.0000000000000000e+00  4.4903052704501718e-17 -3.0488991888760310e-03 0.0000000000000000e+00  1.4479160710029644e-16 -3.0488991888760622e-03 0.0000000000000000e+00  2.2562744561495785e-16 -3.0488991888759902e-03 0.0000000000000000e+00  2.8235252540395736e-16 -3.0488991888759404e-03 0.0000000000000000e+00  2.8936691315999192e-16 -3.0488991888759911e-03 0.0000000000000000e+00  2.5156409278134166e-16 -3.0488991888758970e-03 0.0000000000000000e+00  2.2271914141432846e-16 -3.0488991888757829e-03 0.0000000000000000e+00  1.0118677382785412e-16 -3.0488991888757062e-03 0.0000000000000000e+00  6.7708474607363706e-33 -3.0488991888757478e-03 0.0000000000000000e+00  -3.2106792559524563e-33 -3.3260718424100869e-03 0.0000000000000000e+00  -2.2340865030684419e-17 -3.3260718424101307e-03 0.0000000000000000e+00  4.1443854570228958e-17 -3.3260718424102421e-03 0.0000000000000000e+00  1.5338845215921882e-16 -3.3260718424102521e-03 0.0000000000000000e+00  2.4058057793456351e-16 -3.3260718424101745e-03 0.0000000000000000e+00  2.9188677438456014e-16 -3.3260718424101194e-03 0.0000000000000000e+00  2.9686628997149930e-16 -3.3260718424101810e-03 0.0000000000000000e+00  2.6992928513428647e-16 -3.3260718424100704e-03 0.0000000000000000e+00  2.3595514773699322e-16 -3.3260718424099490e-03 0.0000000000000000e+00  1.0346014510616379e-16 -3.3260718424098631e-03 0.0000000000000000e+00  2.6209074503616294e-33 -3.3260718424098969e-03 0.0000000000000000e+00  -4.5138983071575806e-33 -3.6032444959442638e-03 0.0000000000000000e+00  -3.3358447732290112e-17 -3.6032444959443214e-03 0.0000000000000000e+00  3.9281855736308569e-17 -3.6032444959444368e-03 0.0000000000000000e+00  1.6395457163544274e-16 -3.6032444959444390e-03 0.0000000000000000e+00  2.5488704173929529e-16 -3.6032444959443626e-03 0.0000000000000000e+00  2.9641004013049437e-16 -3.6032444959443154e-03 0.0000000000000000e+00  3.0326087393547935e-16 -3.6032444959443626e-03 0.0000000000000000e+00  2.8795420803251430e-16 -3.6032444959442321e-03 0.0000000000000000e+00  2.4663935148090094e-16 -3.6032444959441124e-03 0.0000000000000000e+00  1.0647146440369983e-16 -3.6032444959440122e-03 0.0000000000000000e+00  -3.6692704305062800e-32 -3.6032444959440513e-03 0.0000000000000000e+00  -3.9942513422900310e-33 -3.8804171494784415e-03 0.0000000000000000e+00  -4.5083899492595370e-17 -3.8804171494785105e-03 0.0000000000000000e+00  3.6275356425662473e-17 -3.8804171494786293e-03 0.0000000000000000e+00  1.7702844019065380e-16 -3.8804171494786215e-03 0.0000000000000000e+00  2.6322201888901469e-16 -3.8804171494785469e-03 0.0000000000000000e+00  2.9726156931202133e-16 -3.8804171494785109e-03 0.0000000000000000e+00  3.1132783208454524e-16 -3.8804171494785386e-03 0.0000000000000000e+00  3.0374373782874767e-16 -3.8804171494784120e-03 0.0000000000000000e+00  2.5836921727897122e-16 -3.8804171494782754e-03 0.0000000000000000e+00  1.1052528559849377e-16 -3.8804171494781639e-03 0.0000000000000000e+00  1.6685302671100341e-32 -3.8804171494781952e-03 0.0000000000000000e+00  -7.3350847491310686e-33 -4.1575898030126205e-03 0.0000000000000000e+00  -5.6134958336593147e-17 -4.1575898030127021e-03 0.0000000000000000e+00  3.2461165184296052e-17 -4.1575898030128209e-03 0.0000000000000000e+00  1.8891096066862105e-16 -4.1575898030127966e-03 0.0000000000000000e+00  2.6743956537687346e-16 -4.1575898030127359e-03 0.0000000000000000e+00  2.9718315213228097e-16 -4.1575898030127029e-03 0.0000000000000000e+00  3.1913597402705025e-16 -4.1575898030127038e-03 0.0000000000000000e+00  3.1602424645733072e-16 -4.1575898030125902e-03 0.0000000000000000e+00  2.7061573096579671e-16 -4.1575898030124393e-03 0.0000000000000000e+00  1.1519024443946612e-16 -4.1575898030123196e-03 0.0000000000000000e+00  -1.2413220344683345e-32 -4.1575898030123499e-03 0.0000000000000000e+00  -8.6505227642666724e-33 -4.4347624565468048e-03 0.0000000000000000e+00  -6.4110682502017520e-17 -4.4347624565469019e-03 0.0000000000000000e+00  2.8604907648793677e-17 -4.4347624565469999e-03 0.0000000000000000e+00  1.9654399458074356e-16 -4.4347624565469852e-03 0.0000000000000000e+00  2.6873270199617898e-16 -4.4347624565469305e-03 0.0000000000000000e+00  2.9952643617534162e-16 -4.4347624565468950e-03 0.0000000000000000e+00  3.2500007336509893e-16 -4.4347624565468664e-03 0.0000000000000000e+00  3.2779386714865402e-16 -4.4347624565467545e-03 0.0000000000000000e+00  2.8144235589565997e-16 -4.4347624565466062e-03 0.0000000000000000e+00  1.1922528455637318e-16 -4.4347624565464830e-03 0.0000000000000000e+00  1.4344072588460500e-32 -4.4347624565465116e-03 0.0000000000000000e+00  3.3854237303681997e-33 -4.7119351100809847e-03 0.0000000000000000e+00  -7.2409371780313880e-17 -4.7119351100811079e-03 0.0000000000000000e+00  2.7228712237201912e-17 -4.7119351100811903e-03 0.0000000000000000e+00  2.0047207110264892e-16 -4.7119351100811729e-03 0.0000000000000000e+00  2.6761011083207688e-16 -4.7119351100811321e-03 0.0000000000000000e+00  3.0394377452869276e-16 -4.7119351100810879e-03 0.0000000000000000e+00  3.3307670881577047e-16 -4.7119351100810133e-03 0.0000000000000000e+00  3.3328692411500062e-16 -4.7119351100809084e-03 0.0000000000000000e+00  2.9101335842582230e-16 -4.7119351100807635e-03 0.0000000000000000e+00  1.2216776826905873e-16 -4.7119351100806403e-03 0.0000000000000000e+00  -1.1233287337828645e-32 -4.7119351100806837e-03 0.0000000000000000e+00  1.0777477585120393e-33 -4.9891077636151767e-03 0.0000000000000000e+00  -8.0218482261385836e-17 -4.9891077636153016e-03 0.0000000000000000e+00  3.1265829290541920e-17 -4.9891077636153892e-03 0.0000000000000000e+00  2.0152309028267017e-16 -4.9891077636153606e-03 0.0000000000000000e+00  2.6299884276629237e-16 -4.9891077636153285e-03 0.0000000000000000e+00  3.1259400316852292e-16 -4.9891077636152669e-03 0.0000000000000000e+00  3.4497512473337613e-16 -4.9891077636151507e-03 0.0000000000000000e+00  3.3180081100369779e-16 -4.9891077636150388e-03 0.0000000000000000e+00  2.9819227593344560e-16 -4.9891077636149061e-03 0.0000000000000000e+00  1.2360557637334443e-16 -4.9891077636148055e-03 0.0000000000000000e+00  -1.0801113806412796e-32 -4.9891077636148523e-03 0.0000000000000000e+00  -5.6423728839469759e-33 -5.2662804171493679e-03 0.0000000000000000e+00  -8.7569474520985719e-17 -5.2662804171494928e-03 0.0000000000000000e+00  3.6587672574038417e-17 -5.2662804171495943e-03 0.0000000000000000e+00  2.0087477348506681e-16 -5.2662804171495449e-03 0.0000000000000000e+00  2.5511586240261334e-16 -5.2662804171495301e-03 0.0000000000000000e+00  3.2771699157054380e-16 -5.2662804171494373e-03 0.0000000000000000e+00  3.5663303495331101e-16 -5.2662804171493141e-03 0.0000000000000000e+00  3.2796664960686914e-16 -5.2662804171491736e-03 0.0000000000000000e+00  3.0148242201007643e-16 -5.2662804171490418e-03 0.0000000000000000e+00  1.1838956081088639e-16 -5.2662804171489655e-03 0.0000000000000000e+00  2.4826440689366690e-32 -5.2662804171490218e-03 0.0000000000000000e+00  -9.8410027458074174e-33 -5.5434530706835660e-03 0.0000000000000000e+00  -9.4453783800614803e-17 -5.5434530706836797e-03 0.0000000000000000e+00  4.2441700185884436e-17 -5.5434530706837890e-03 0.0000000000000000e+00  1.9723947943797836e-16 -5.5434530706837482e-03 0.0000000000000000e+00  2.4846147945320898e-16 -5.5434530706837135e-03 0.0000000000000000e+00  3.4289214856783116e-16 -5.5434530706836033e-03 0.0000000000000000e+00  3.6958213836635233e-16 -5.5434530706834793e-03 0.0000000000000000e+00  3.2561043454058974e-16 -5.5434530706833102e-03 0.0000000000000000e+00  2.9586122504188207e-16 -5.5434530706831870e-03 0.0000000000000000e+00  1.1067814967873099e-16 -5.5434530706831280e-03 0.0000000000000000e+00  -1.0701326442825958e-32 -5.5434530706831861e-03 0.0000000000000000e+00  -1.6927118651840957e-32 -5.8206257242177598e-03 0.0000000000000000e+00  -1.0280336897439747e-16 -5.8206257242178665e-03 0.0000000000000000e+00  4.4237822294064591e-17 -5.8206257242179723e-03 0.0000000000000000e+00  1.9615432638577300e-16 -5.8206257242179567e-03 0.0000000000000000e+00  2.4270515755789686e-16 -5.8206257242178873e-03 0.0000000000000000e+00  3.5776106771847195e-16 -5.8206257242177633e-03 0.0000000000000000e+00  3.8605815331701860e-16 -5.8206257242176566e-03 0.0000000000000000e+00  3.2264935205998502e-16 -5.8206257242174727e-03 0.0000000000000000e+00  2.8757842431091533e-16 -5.8206257242173348e-03 0.0000000000000000e+00  1.0190314952502355e-16 -5.8206257242173010e-03 0.0000000000000000e+00  -8.1678705509525418e-33 -5.8206257242173478e-03 0.0000000000000000e+00  -1.8115295164042431e-32 -6.0977983777519623e-03 0.0000000000000000e+00  -1.1022459675843738e-16 -6.0977983777520499e-03 0.0000000000000000e+00  4.1184720315014536e-17 -6.0977983777521678e-03 0.0000000000000000e+00  1.9785044779736286e-16 -6.0977983777521548e-03 0.0000000000000000e+00  2.4033386090276433e-16 -6.0977983777520542e-03 0.0000000000000000e+00  3.7114895448364751e-16 -6.0977983777519241e-03 0.0000000000000000e+00  3.9641080157944554e-16 -6.0977983777518226e-03 0.0000000000000000e+00  3.1944456199466062e-16 -6.0977983777516665e-03 0.0000000000000000e+00  2.8285284430371890e-16 -6.0977983777514930e-03 0.0000000000000000e+00  8.8960027278244423e-17 -6.0977983777514523e-03 0.0000000000000000e+00  2.2972518170355540e-33 -6.0977983777515295e-03 0.0000000000000000e+00  3.3854237303681853e-33 -6.3749710312861743e-03 0.0000000000000000e+00  -1.1576951420172712e-16 -6.3749710312862359e-03 0.0000000000000000e+00  3.6055488245688797e-17 -6.3749710312863677e-03 0.0000000000000000e+00  1.9620687437645373e-16 -6.3749710312863694e-03 0.0000000000000000e+00  2.4435037558377349e-16 -6.3749710312862185e-03 0.0000000000000000e+00  3.8414193039932116e-16 -6.3749710312860971e-03 0.0000000000000000e+00  4.0014934451497595e-16 -6.3749710312859895e-03 0.0000000000000000e+00  3.1259021117161353e-16 -6.3749710312858742e-03 0.0000000000000000e+00  2.7726803507016738e-16 -6.3749710312856669e-03 0.0000000000000000e+00  7.2953090039787265e-17 -6.3749710312856166e-03 0.0000000000000000e+00  -5.6423728839469749e-34 -6.3749710312856929e-03 0.0000000000000000e+00  -1.1582175469948798e-32 -6.6521436848203845e-03 0.0000000000000000e+00  -1.1976796556854124e-16 -6.6521436848204331e-03 0.0000000000000000e+00  2.7085271929951515e-17 -6.6521436848205693e-03 0.0000000000000000e+00  1.9922671868385728e-16 -6.6521436848205771e-03 0.0000000000000000e+00  2.4839703525719902e-16 -6.6521436848203698e-03 0.0000000000000000e+00  3.9980380752238453e-16 -6.6521436848202822e-03 0.0000000000000000e+00  3.9960401366812067e-16 -6.6521436848201816e-03 0.0000000000000000e+00  3.0315117073792888e-16 -6.6521436848200784e-03 0.0000000000000000e+00  2.7106060380277627e-16 -6.6521436848198312e-03 0.0000000000000000e+00  5.9772196551764769e-17 -6.6521436848197800e-03 0.0000000000000000e+00  -3.1556203018880521e-34 -6.6521436848198563e-03 0.0000000000000000e+00  -1.9184067805419718e-32 -6.9293163383545931e-03 0.0000000000000000e+00  -1.2335827919701157e-16 -6.9293163383546278e-03 0.0000000000000000e+00  1.5972511916547623e-17 -6.9293163383547561e-03 0.0000000000000000e+00  2.0116970574584509e-16 -6.9293163383547796e-03 0.0000000000000000e+00  2.53074436580