<?xml version="1.0"?>
<VTKFile type="UnstructuredGrid"  version="0.1"  >
<UnstructuredGrid>
<Piece  NumberOfPoints="431" NumberOfCells="800">
<Points>
<DataArray  type="Float64"  NumberOfComponents="3"  format="ascii">-0.25 -1 0  -0.2 -1 0  -0.15 -1 0  -0.1 -1 0  -0.04999999999999999 -1 0  0 -1 0  0.04999999999999999 -1 0  0.09999999999999998 -1 0  0.15 -1 0  0.2 -1 0  0.25 -1 0  -0.25 -0.95 0  -0.2 -0.95 0  -0.15 -0.95 0  -0.1 -0.95 0  -0.04999999999999999 -0.95 0  0 -0.95 0  0.04999999999999999 -0.95 0  0.09999999999999998 -0.95 0  0.15 -0.95 0  0.2 -0.95 0  0.25 -0.95 0  -0.25 -0.9 0  -0.2 -0.9 0  -0.15 -0.9 0  -0.1 -0.9 0  -0.04999999999999999 -0.9 0  0 -0.9 0  0.04999999999999999 -0.9 0  0.09999999999999998 -0.9 0  0.15 -0.9 0  0.2 -0.9 0  0.25 -0.9 0  -0.25 -0.85 0  -0.2 -0.85 0  -0.15 -0.85 0  -0.1 -0.85 0  -0.04999999999999999 -0.85 0  0 -0.85 0  0.04999999999999999 -0.85 0  0.09999999999999998 -0.85 0  0.15 -0.85 0  0.2 -0.85 0  0.25 -0.85 0  -0.25 -0.8 0  -0.2 -0.8 0  -0.15 -0.8 0  -0.1 -0.8 0  -0.04999999999999999 -0.8 0  0 -0.8 0  0.04999999999999999 -0.8 0  0.09999999999999998 -0.8 0  0.15 -0.8 0  0.2 -0.8 0  0.25 -0.8 0  -0.25 -0.75 0  -0.2 -0.75 0  -0.15 -0.75 0  -0.1 -0.75 0  -0.04999999999999999 -0.75 0  0 -0.75 0  0.04999999999999999 -0.75 0  0.09999999999999998 -0.75 0  0.15 -0.75 0  0.2 -0.75 0  0.25 -0.75 0  -0.25 -0.7 0  -0.2 -0.7 0  -0.15 -0.7 0  -0.1 -0.7 0  -0.04999999999999999 -0.7 0  0 -0.7 0  0.04999999999999999 -0.7 0  0.09999999999999998 -0.7 0  0.15 -0.7 0  0.2 -0.7 0  0.25 -0.7 0  -0.25 -0.65 0  -0.2 -0.65 0  -0.15 -0.65 0  -0.1 -0.65 0  -0.04999999999999999 -0.65 0  0 -0.65 0  0.04999999999999999 -0.65 0  0.09999999999999998 -0.65 0  0.15 -0.65 0  0.2 -0.65 0  0.25 -0.65 0  -0.25 -0.6 0  -0.2 -0.6 0  -0.15 -0.6 0  -0.1 -0.6 0  -0.04999999999999999 -0.6 0  0 -0.6 0  0.04999999999999999 -0.6 0  0.09999999999999998 -0.6 0  0.15 -0.6 0  0.2 -0.6 0  0.25 -0.6 0  -0.25 -0.55 0  -0.2 -0.55 0  -0.15 -0.55 0  -0.1 -0.55 0  -0.04999999999999999 -0.55 0  0 -0.55 0  0.04999999999999999 -0.55 0  0.09999999999999998 -0.55 0  0.15 -0.55 0  0.2 -0.55 0  0.25 -0.55 0  -0.25 -0.5 0  -0.2 -0.5 0  -0.15 -0.5 0  -0.1 -0.5 0  -0.04999999999999999 -0.5 0  0 -0.5 0  0.04999999999999999 -0.5 0  0.09999999999999998 -0.5 0  0.15 -0.5 0  0.2 -0.5 0  0.25 -0.5 0  -0.25 -0.45 0  -0.2 -0.45 0  -0.15 -0.45 0  -0.1 -0.45 0  -0.04999999999999999 -0.45 0  0 -0.45 0  0.04999999999999999 -0.45 0  0.09999999999999998 -0.45 0  0.15 -0.45 0  0.2 -0.45 0  0.25 -0.45 0  -0.25 -0.4 0  -0.2 -0.4 0  -0.15 -0.4 0  -0.1 -0.4 0  -0.04999999999999999 -0.4 0  0 -0.4 0  0.04999999999999999 -0.4 0  0.09999999999999998 -0.4 0  0.15 -0.4 0  0.2 -0.4 0  0.25 -0.4 0  -0.25 -0.35 0  -0.2 -0.35 0  -0.15 -0.35 0  -0.1 -0.35 0  -0.04999999999999999 -0.35 0  0 -0.35 0  0.04999999999999999 -0.35 0  0.09999999999999998 -0.35 0  0.15 -0.35 0  0.2 -0.35 0  0.25 -0.35 0  -0.25 -0.3 0  -0.2 -0.3 0  -0.15 -0.3 0  -0.1 -0.3 0  -0.04999999999999999 -0.3 0  0 -0.3 0  0.04999999999999999 -0.3 0  0.09999999999999998 -0.3 0  0.15 -0.3 0  0.2 -0.3 0  0.25 -0.3 0  -0.25 -0.25 0  -0.2 -0.25 0  -0.15 -0.25 0  -0.1 -0.25 0  -0.04999999999999999 -0.25 0  0 -0.25 0  0.04999999999999999 -0.25 0  0.09999999999999998 -0.25 0  0.15 -0.25 0  0.2 -0.25 0  0.25 -0.25 0  -0.25 -0.2 0  -0.2 -0.2 0  -0.15 -0.2 0  -0.1 -0.2 0  -0.04999999999999999 -0.2 0  0 -0.2 0  0.04999999999999999 -0.2 0  0.09999999999999998 -0.2 0  0.15 -0.2 0  0.2 -0.2 0  0.25 -0.2 0  -0.25 -0.15 0  -0.2 -0.15 0  -0.15 -0.15 0  -0.1 -0.15 0  -0.04999999999999999 -0.15 0  0 -0.15 0  0.04999999999999999 -0.15 0  0.09999999999999998 -0.15 0  0.15 -0.15 0  0.2 -0.15 0  0.25 -0.15 0  -0.25 -0.09999999999999998 0  -0.2 -0.09999999999999998 0  -0.15 -0.09999999999999998 0  -0.1 -0.09999999999999998 0  -0.04999999999999999 -0.09999999999999998 0  0 -0.09999999999999998 0  0.04999999999999999 -0.09999999999999998 0  0.09999999999999998 -0.09999999999999998 0  0.15 -0.09999999999999998 0  0.2 -0.09999999999999998 0  0.25 -0.09999999999999998 0  -0.25 -0.05000000000000004 0  -0.2 -0.05000000000000004 0  -0.15 -0.05000000000000004 0  -0.1 -0.05000000000000004 0  -0.04999999999999999 -0.05000000000000004 0  0 -0.05000000000000004 0  0.04999999999999999 -0.05000000000000004 0  0.09999999999999998 -0.05000000000000004 0  0.15 -0.05000000000000004 0  0.2 -0.05000000000000004 0  0.25 -0.05000000000000004 0  -0.25 0 0  -0.2 0 0  -0.15 0 0  -0.1 0 0  -0.04999999999999999 0 0  0 0 0  0.04999999999999999 0 0  0.09999999999999998 0 0  0.15 0 0  0.2 0 0  0.25 0 0  -0.225 -0.975 0  -0.175 -0.975 0  -0.125 -0.975 0  -0.07500000000000001 -0.975 0  -0.02499999999999999 -0.975 0  0.02500000000000002 -0.975 0  0.07500000000000001 -0.975 0  0.125 -0.975 0  0.175 -0.975 0  0.225 -0.975 0  -0.225 -0.925 0  -0.175 -0.925 0  -0.125 -0.925 0  -0.07500000000000001 -0.925 0  -0.02499999999999999 -0.925 0  0.02500000000000002 -0.925 0  0.07500000000000001 -0.925 0  0.125 -0.925 0  0.175 -0.925 0  0.225 -0.925 0  -0.225 -0.875 0  -0.175 -0.875 0  -0.125 -0.875 0  -0.07500000000000001 -0.875 0  -0.02499999999999999 -0.875 0  0.02500000000000002 -0.875 0  0.07500000000000001 -0.875 0  0.125 -0.875 0  0.175 -0.875 0  0.225 -0.875 0  -0.225 -0.825 0  -0.175 -0.825 0  -0.125 -0.825 0  -0.07500000000000001 -0.825 0  -0.02499999999999999 -0.825 0  0.02500000000000002 -0.825 0  0.07500000000000001 -0.825 0  0.125 -0.825 0  0.175 -0.825 0  0.225 -0.825 0  -0.225 -0.775 0  -0.175 -0.775 0  -0.125 -0.775 0  -0.07500000000000001 -0.775 0  -0.02499999999999999 -0.775 0  0.02500000000000002 -0.775 0  0.07500000000000001 -0.775 0  0.125 -0.775 0  0.175 -0.775 0  0.225 -0.775 0  -0.225 -0.725 0  -0.175 -0.725 0  -0.125 -0.725 0  -0.07500000000000001 -0.725 0  -0.02499999999999999 -0.725 0  0.02500000000000002 -0.725 0  0.07500000000000001 -0.725 0  0.125 -0.725 0  0.175 -0.725 0  0.225 -0.725 0  -0.225 -0.675 0  -0.175 -0.675 0  -0.125 -0.675 0  -0.07500000000000001 -0.675 0  -0.02499999999999999 -0.675 0  0.02500000000000002 -0.675 0  0.07500000000000001 -0.675 0  0.125 -0.675 0  0.175 -0.675 0  0.225 -0.675 0  -0.225 -0.625 0  -0.175 -0.625 0  -0.125 -0.625 0  -0.07500000000000001 -0.625 0  -0.02499999999999999 -0.625 0  0.02500000000000002 -0.625 0  0.07500000000000001 -0.625 0  0.125 -0.625 0  0.175 -0.625 0  0.225 -0.625 0  -0.225 -0.575 0  -0.175 -0.575 0  -0.125 -0.575 0  -0.07500000000000001 -0.575 0  -0.02499999999999999 -0.575 0  0.02500000000000002 -0.575 0  0.07500000000000001 -0.575 0  0.125 -0.575 0  0.175 -0.575 0  0.225 -0.575 0  -0.225 -0.525 0  -0.175 -0.525 0  -0.125 -0.525 0  -0.07500000000000001 -0.525 0  -0.02499999999999999 -0.525 0  0.02500000000000002 -0.525 0  0.07500000000000001 -0.525 0  0.125 -0.525 0  0.175 -0.525 0  0.225 -0.525 0  -0.225 -0.475 0  -0.175 -0.475 0  -0.125 -0.475 0  -0.07500000000000001 -0.475 0  -0.02499999999999999 -0.475 0  0.02500000000000002 -0.475 0  0.07500000000000001 -0.475 0  0.125 -0.475 0  0.175 -0.475 0  0.225 -0.475 0  -0.225 -0.425 0  -0.175 -0.425 0  -0.125 -0.425 0  -0.07500000000000001 -0.425 0  -0.02499999999999999 -0.425 0  0.02500000000000002 -0.425 0  0.07500000000000001 -0.425 0  0.125 -0.425 0  0.175 -0.425 0  0.225 -0.425 0  -0.225 -0.375 0  -0.175 -0.375 0  -0.125 -0.375 0  -0.07500000000000001 -0.375 0  -0.02499999999999999 -0.375 0  0.02500000000000002 -0.375 0  0.07500000000000001 -0.375 0  0.125 -0.375 0  0.175 -0.375 0  0.225 -0.375 0  -0.225 -0.325 0  -0.175 -0.325 0  -0.125 -0.325 0  -0.07500000000000001 -0.325 0  -0.02499999999999999 -0.325 0  0.02500000000000002 -0.325 0  0.07500000000000001 -0.325 0  0.125 -0.325 0  0.175 -0.325 0  0.225 -0.325 0  -0.225 -0.275 0  -0.175 -0.275 0  -0.125 -0.275 0  -0.07500000000000001 -0.275 0  -0.02499999999999999 -0.275 0  0.02500000000000002 -0.275 0  0.07500000000000001 -0.275 0  0.125 -0.275 0  0.175 -0.275 0  0.225 -0.275 0  -0.225 -0.225 0  -0.175 -0.225 0  -0.125 -0.225 0  -0.07500000000000001 -0.225 0  -0.02499999999999999 -0.225 0  0.02500000000000002 -0.225 0  0.07500000000000001 -0.225 0  0.125 -0.225 0  0.175 -0.225 0  0.225 -0.225 0  -0.225 -0.175 0  -0.175 -0.175 0  -0.125 -0.175 0  -0.07500000000000001 -0.175 0  -0.02499999999999999 -0.175 0  0.02500000000000002 -0.175 0  0.07500000000000001 -0.175 0  0.125 -0.175 0  0.175 -0.175 0  0.225 -0.175 0  -0.225 -0.125 0  -0.175 -0.125 0  -0.125 -0.125 0  -0.07500000000000001 -0.125 0  -0.02499999999999999 -0.125 0  0.02500000000000002 -0.125 0  0.07500000000000001 -0.125 0  0.125 -0.125 0  0.175 -0.125 0  0.225 -0.125 0  -0.225 -0.07499999999999996 0  -0.175 -0.07499999999999996 0  -0.125 -0.07499999999999996 0  -0.07500000000000001 -0.07499999999999996 0  -0.02499999999999999 -0.07499999999999996 0  0.02500000000000002 -0.07499999999999996 0  0.07500000000000001 -0.07499999999999996 0  0.125 -0.07499999999999996 0  0.175 -0.07499999999999996 0  0.225 -0.07499999999999996 0  -0.225 -0.02500000000000002 0  -0.175 -0.02500000000000002 0  -0.125 -0.02500000000000002 0  -0.07500000000000001 -0.02500000000000002 0  -0.02499999999999999 -0.02500000000000002 0  0.02500000000000002 -0.02500000000000002 0  0.07500000000000001 -0.02500000000000002 0  0.125 -0.02500000000000002 0  0.175 -0.02500000000000002 0  0.225 -0.02500000000000002 0  </DataArray>
</Points>
<Cells>
[...]
<PointData  Vectors="displacement"> 
<DataArray  type="Float64"  Name="displacement"  NumberOfComponents="3" format="ascii">1.4388050854064787e-33 -8.8938459461701459e-19 0.0000000000000000e+00  -6.7708474607363683e-34 2.5410988417628981e-19 0.0000000000000000e+00  -2.9710619717033289e-33 -5.0449745559609110e-19 0.0000000000000000e+00  -1.3541694921472742e-33 -2.8587361969832617e-19 0.0000000000000000e+00  -9.1212870429193758e-34 1.2592801509898114e-19 0.0000000000000000e+00  3.6111186457260631e-33 -1.2705494208814491e-19 0.0000000000000000e+00  -1.8137143149218619e-33 -2.1862383589776507e-19 0.0000000000000000e+00  2.4826440689366685e-33 -6.3527471044072448e-19 0.0000000000000000e+00  4.5592370532729603e-34 -1.8264147925170829e-19 0.0000000000000000e+00  1.3541694921472742e-33 2.5410988417628991e-19 0.0000000000000000e+00  -1.3541694921472735e-33 -3.8116482626443467e-19 0.0000000000000000e+00  -1.2413220344683366e-33 -3.5884239098983497e-03 0.0000000000000000e+00  -5.8024763311731325e-18 -3.5884239098983532e-03 0.0000000000000000e+00  -1.3216076610128714e-17 -3.5884239098983475e-03 0.0000000000000000e+00  -2.2547020937493413e-17 -3.5884239098983484e-03 0.0000000000000000e+00  -2.9407084934234578e-17 -3.5884239098983571e-03 0.0000000000000000e+00  -3.5369507170656166e-17 -3.5884239098983631e-03 0.0000000000000000e+00  -3.5528106632044421e-17 -3.5884239098983740e-03 0.0000000000000000e+00  -3.0207642210753568e-17 -3.5884239098983857e-03 0.0000000000000000e+00  -2.1626470737530978e-17 -3.5884239098983948e-03 0.0000000000000000e+00  -1.1133870073291114e-17 -3.5884239098984017e-03 0.0000000000000000e+00  -7.6173141576172631e-34 -3.5884239098984000e-03 0.0000000000000000e+00  -1.1026461431754885e-35 -7.1776237996463172e-03 0.0000000000000000e+00  -1.0138360139276836e-17 -7.1776237996463094e-03 0.0000000000000000e+00  -2.2839985799901064e-17 -7.1776237996463051e-03 0.0000000000000000e+00  -3.6286447928649087e-17 -7.1776237996463077e-03 0.0000000000000000e+00  -5.0538005541886058e-17 -7.1776237996463241e-03 0.0000000000000000e+00  -5.6511335583825367e-17 -7.1776237996463450e-03 0.0000000000000000e+00  -5.5853967062259467e-17 -7.1776237996463692e-03 0.0000000000000000e+00  -4.8422878691614998e-17 -7.1776237996463944e-03 0.0000000000000000e+00  -3.4117292786882877e-17 -7.1776237996464074e-03 0.0000000000000000e+00  -1.9125405385505216e-17 -7.1776237996464213e-03 0.0000000000000000e+00  6.4484261530822667e-35 -7.1776237996464222e-03 0.0000000000000000e+00  -6.7708474607363735e-34 -1.0768370864921249e-02 0.0000000000000000e+00  -1.5400740238042720e-17 -1.0768370864921247e-02 0.0000000000000000e+00  -2.9480941020905768e-17 -1.0768370864921245e-02 0.0000000000000000e+00  -4.6683635445852905e-17 -1.0768370864921245e-02 0.0000000000000000e+00  -6.1678006677738206e-17 -1.0768370864921259e-02 0.0000000000000000e+00  -7.0786172787878861e-17 -1.0768370864921304e-02 0.0000000000000000e+00  -6.9665007425688322e-17 -1.0768370864921344e-02 0.0000000000000000e+00  -5.9457988960092383e-17 -1.0768370864921377e-02 0.0000000000000000e+00  -4.3239976678214462e-17 -1.0768370864921399e-02 0.0000000000000000e+00  -2.3312962360454271e-17 -1.0768370864921412e-02 0.0000000000000000e+00  -9.0277966143151629e-34 -1.0768370864921427e-02 0.0000000000000000e+00  -2.1311752890749286e-33 -1.4361426762551872e-02 0.0000000000000000e+00  -1.5682775840443838e-17 -1.4361426762551855e-02 0.0000000000000000e+00  -3.3202147220616674e-17 -1.4361426762551862e-02 0.0000000000000000e+00  -5.1365038545905176e-17 -1.4361426762551859e-02 0.0000000000000000e+00  -6.9074511494176358e-17 -1.4361426762551876e-02 0.0000000000000000e+00  -7.6291533851624634e-17 -1.4361426762551921e-02 0.0000000000000000e+00  -7.4934879583345611e-17 -1.4361426762552001e-02 0.0000000000000000e+00  -6.7757043454762020e-17 -1.4361426762552044e-02 0.0000000000000000e+00  -5.1344451222281868e-17 -1.4361426762552056e-02 0.0000000000000000e+00  -2.9788805449834673e-17 -1.4361426762552098e-02 0.0000000000000000e+00  9.3219766761815835e-34 -1.4361426762552105e-02 0.0000000000000000e+00  -1.3541694921472742e-33 -1.7957538914651884e-02 0.0000000000000000e+00  -1.7936418861832221e-17 -1.7957538914651891e-02 0.0000000000000000e+00  -3.7517436014706954e-17 -1.7957538914651881e-02 0.0000000000000000e+00  -5.6987483252258178e-17 -1.7957538914651881e-02 0.0000000000000000e+00  -7.2037801145905252e-17 -1.7957538914651926e-02 0.0000000000000000e+00  -7.9650009603757172e-17 -1.7957538914651985e-02 0.0000000000000000e+00  -8.2285675618642093e-17 -1.7957538914652058e-02 0.0000000000000000e+00  -7.4085619416400036e-17 -1.7957538914652113e-02 0.0000000000000000e+00  -5.5462026336165987e-17 -1.7957538914652172e-02 0.0000000000000000e+00  -3.0010387575356866e-17 -1.7957538914652196e-02 0.0000000000000000e+00  -4.1185208661297051e-34 -1.7957538914652214e-02 0.0000000000000000e+00  -4.6463912995954204e-34 -2.1557435900515284e-02 0.0000000000000000e+00  -1.7823292937059341e-17 -2.1557435900515249e-02 0.0000000000000000e+00  -3.6321580409700116e-17 -2.1557435900515252e-02 0.0000000000000000e+00  -5.7999384990378392e-17 -2.1557435900515273e-02 0.0000000000000000e+00  -6.9529882498568848e-17 -2.1557435900515318e-02 0.0000000000000000e+00  -8.5273691074866474e-17 -2.1557435900515384e-02 0.0000000000000000e+00  -8.6425202505148717e-17 -2.1557435900515471e-02 0.0000000000000000e+00  -7.3554659293820734e-17 -2.1557435900515537e-02 0.0000000000000000e+00  -5.7563028081345130e-17 -2.1557435900515606e-02 0.0000000000000000e+00  -2.9510442328572407e-17 -2.1557435900515644e-02 0.0000000000000000e+00  -9.0277966143151732e-34 -2.1557435900515662e-02 0.0000000000000000e+00  -1.3541694921472749e-33 -2.5161822964683285e-02 0.0000000000000000e+00  -1.4495908020523356e-17 -2.5161822964683233e-02 0.0000000000000000e+00  -3.2491179051664819e-17 -2.5161822964683247e-02 0.0000000000000000e+00  -4.8984022219585604e-17 -2.5161822964683247e-02 0.0000000000000000e+00  -7.6102358953657472e-17 -2.5161822964683323e-02 0.0000000000000000e+00  -8.5025727234423780e-17 -2.5161822964683389e-02 0.0000000000000000e+00  -8.5822851809918715e-17 -2.5161822964683497e-02 0.0000000000000000e+00  -7.5472782031626806e-17 -2.5161822964683580e-02 0.0000000000000000e+00  -5.3444611174273101e-17 -2.5161822964683653e-02 0.0000000000000000e+00  -2.8347517152766181e-17 -2.5161822964683729e-02 0.0000000000000000e+00  0.0000000000000000e+00 -2.5161822964683746e-02 0.0000000000000000e+00  -2.5703640532939588e-33 -2.8771377668877770e-02 0.0000000000000000e+00  -2.1498754759627220e-17 -2.8771377668877766e-02 0.0000000000000000e+00  -3.4540633870266183e-17 -2.8771377668877742e-02 0.0000000000000000e+00  -5.6601129471782760e-17 -2.8771377668877732e-02 0.0000000000000000e+00  -7.2281870545514754e-17 -2.8771377668877815e-02 0.0000000000000000e+00  -8.6820468172769917e-17 -2.8771377668877902e-02 0.0000000000000000e+00  -8.7144215767860222e-17 -2.8771377668878009e-02 0.0000000000000000e+00  -7.6099598226524407e-17 -2.8771377668878131e-02 0.0000000000000000e+00  -5.0288092876763442e-17 -2.8771377668878221e-02 0.0000000000000000e+00  -2.3768490132339268e-17 -2.8771377668878249e-02 0.0000000000000000e+00  2.0523501636240616e-33 -2.8771377668878290e-02 0.0000000000000000e+00  -9.0277966143151749e-34 -3.2386745714608006e-02 0.0000000000000000e+00  -1.5570225996172863e-17 -3.2386745714608006e-02 0.0000000000000000e+00  -3.6243207951970898e-17 -3.2386745714607972e-02 0.0000000000000000e+00  -5.3023889223628617e-17 -3.2386745714607972e-02 0.0000000000000000e+00  -7.1432441472410249e-17 -3.2386745714608048e-02 0.0000000000000000e+00  -7.9558199556568019e-17 -3.2386745714608187e-02 0.0000000000000000e+00  -7.7068502182561261e-17 -3.2386745714608291e-02 0.0000000000000000e+00  -6.9194772679312644e-17 -3.2386745714608423e-02 0.0000000000000000e+00  -5.3578833305086943e-17 -3.2386745714608520e-02 0.0000000000000000e+00  -3.1292196683215068e-17 -3.2386745714608568e-02 0.0000000000000000e+00  -3.4550717706544113e-33 -3.2386745714608554e-02 0.0000000000000000e+00  4.5261913640691923e-34 -3.6008536962205788e-02 0.0000000000000000e+00  -1.9109003492957231e-17 -3.6008536962205781e-02 0.0000000000000000e+00  -3.6494540316412983e-17 -3.6008536962205774e-02 0.0000000000000000e+00  -5.4114399629684276e-17 -3.6008536962205760e-02 0.0000000000000000e+00  -6.5032924924034430e-17 -3.6008536962205857e-02 0.0000000000000000e+00  -7.4765356455053253e-17 -3.6008536962205982e-02 0.0000000000000000e+00  -7.3830624398769952e-17 -3.6008536962206142e-02 0.0000000000000000e+00  -6.7890194564610984e-17 -3.6008536962206253e-02 0.0000000000000000e+00  -5.3139282130823529e-17 -3.6008536962206364e-02 0.0000000000000000e+00  -3.0598092652714725e-17 -3.6008536962206412e-02 0.0000000000000000e+00  -2.7567021804426646e-33 -3.6008536962206461e-02 0.0000000000000000e+00  -2.4262203400972031e-33 -3.9637321670833059e-02 0.0000000000000000e+00  -2.1288443972467905e-17 -3.9637321670833052e-02 0.0000000000000000e+00  -3.4319780502314576e-17 -3.9637321670833045e-02 0.0000000000000000e+00  -4.9802466558311047e-17 -3.9637321670833059e-02 0.0000000000000000e+00  -5.9065808142440957e-17 -3.9637321670833156e-02 0.0000000000000000e+00  -7.4015431987129628e-17 -3.9637321670833253e-02 0.0000000000000000e+00  -7.7546509350962679e-17 -3.9637321670833434e-02 0.0000000000000000e+00  -6.3861911610616921e-17 -3.9637321670833572e-02 0.0000000000000000e+00  -4.8774693693025890e-17 -3.9637321670833663e-02 0.0000000000000000e+00  -2.4886250966064338e-17 -3.9637321670833767e-02 0.0000000000000000e+00  6.7708474607363795e-34 -3.9637321670833787e-02 0.0000000000000000e+00  2.3848530408528338e-34 -4.3273626982643615e-02 0.0000000000000000e+00  -4.5317112006477369e-18 -4.3273626982643559e-02 0.0000000000000000e+00  -2.1032194906137776e-17 -4.3273626982643601e-02 0.0000000000000000e+00  -3.4809532475233807e-17 -4.3273626982643587e-02 0.0000000000000000e+00  -5.8987193780957365e-17 -4.3273626982643663e-02 0.0000000000000000e+00  -6.7248973728793122e-17 -4.3273626982643830e-02 0.0000000000000000e+00  -6.6013266485298882e-17 -4.3273626982643948e-02 0.0000000000000000e+00  -5.5966153160227918e-17 -4.3273626982644156e-02 0.0000000000000000e+00  -3.8194411899575315e-17 -4.3273626982644323e-02 0.0000000000000000e+00  -1.9465556328776816e-17 -4.3273626982644364e-02 0.0000000000000000e+00  -2.7676594670699739e-33 -4.3273626982644399e-02 0.0000000000000000e+00  3.3854237303681867e-34 -4.6917933672775129e-02 0.0000000000000000e+00  -4.0944316040686534e-18 -4.6917933672775129e-02 0.0000000000000000e+00  -1.1512643790574603e-17 -4.6917933672775108e-02 0.0000000000000000e+00  -3.6397773334853583e-17 -4.6917933672775122e-02 0.0000000000000000e+00  -3.8051179476828755e-17 -4.6917933672775219e-02 0.0000000000000000e+00  -4.8233787633394486e-17 -4.6917933672775365e-02 0.0000000000000000e+00  -5.5967393563592675e-17 -4.6917933672775615e-02 0.0000000000000000e+00  -4.6807274754167141e-17 -4.6917933672775691e-02 0.0000000000000000e+00  -2.9957653438923082e-17 -4.6917933672775879e-02 0.0000000000000000e+00  -1.5647957493277127e-17 -4.6917933672775948e-02 0.0000000000000000e+00  8.3048675885594561e-34 -4.6917933672775941e-02 0.0000000000000000e+00  -2.8874190748958751e-34 -5.0570673185209351e-02 0.0000000000000000e+00  4.3240181203550838e-18 -5.0570673185209310e-02 0.0000000000000000e+00  -1.3836792537028610e-18 -5.0570673185209289e-02 0.0000000000000000e+00  -1.4575198287605140e-17 -5.0570673185209303e-02 0.0000000000000000e+00  -3.0524721036276998e-17 -5.0570673185209462e-02 0.0000000000000000e+00  -2.7634229849584074e-17 -5.0570673185209580e-02 0.0000000000000000e+00  -3.3554221902294404e-17 -5.0570673185209726e-02 0.0000000000000000e+00  -3.6655631903321787e-17 -5.0570673185210004e-02 0.0000000000000000e+00  -3.1269541167672347e-17 -5.0570673185210108e-02 0.0000000000000000e+00  -2.6730963843886510e-17 -5.0570673185210142e-02 0.0000000000000000e+00  -1.4508958844435103e-33 -5.0570673185210177e-02 0.0000000000000000e+00  9.0277966143151612e-34 -5.4232224972774704e-02 0.0000000000000000e+00  1.9424965283352702e-18 -5.4232224972774704e-02 0.0000000000000000e+00  2.8446398366164973e-18 -5.4232224972774655e-02 0.0000000000000000e+00  2.6676864998799619e-18 -5.4232224972774627e-02 0.0000000000000000e+00  -8.4750354289300315e-18 -5.4232224972774773e-02 0.0000000000000000e+00  -1.5006935661639335e-17 -5.4232224972774946e-02 0.0000000000000000e+00  -1.8327027958306498e-17 -5.4232224972775141e-02 0.0000000000000000e+00  -3.1829169219294474e-17 -5.4232224972775335e-02 0.0000000000000000e+00  -3.3900141715720126e-17 -5.4232224972775488e-02 0.0000000000000000e+00  -2.0646732326724117e-17 -5.4232224972775536e-02 0.0000000000000000e+00  1.3541694921472737e-33 -5.4232224972775599e-02 0.0000000000000000e+00  -1.2849130786942389e-33 -5.7902914157692137e-02 0.0000000000000000e+00  4.6165747062778452e-18 -5.7902914157692061e-02 0.0000000000000000e+00  1.4640086720163249e-17 -5.7902914157692074e-02 0.0000000000000000e+00  1.6623068534231056e-17 -5.7902914157692047e-02 0.0000000000000000e+00  2.7943720448845184e-17 -5.7902914157692227e-02 0.0000000000000000e+00  4.6320825016537123e-18 -5.7902914157692331e-02 0.0000000000000000e+00  -1.3323458035834525e-17 -5.7902914157692505e-02 0.0000000000000000e+00  -1.2834314494599450e-17 -5.7902914157692741e-02 0.0000000000000000e+00  -1.7103099837822798e-17 -5.7902914157692907e-02 0.0000000000000000e+00  -1.2417094619782640e-17 -5.7902914157692977e-02 0.0000000000000000e+00  -1.2799019233361421e-33 -5.7902914157693060e-02 0.0000000000000000e+00  3.3854237303681873e-33 -6.1583009527086868e-02 0.0000000000000000e+00  2.6471302601406416e-17 -6.1583009527086771e-02 0.0000000000000000e+00  3.3728951018932866e-17 -6.1583009527086799e-02 0.0000000000000000e+00  5.5323354379709745e-17 -6.1583009527086764e-02 0.0000000000000000e+00  5.2341567945667799e-17 -6.1583009527086854e-02 0.0000000000000000e+00  4.5707228081039044e-17 -6.1583009527087056e-02 0.0000000000000000e+00  2.3160757625216301e-17 -6.1583009527087250e-02 0.0000000000000000e+00  1.2557375888223805e-17 -6.1583009527087465e-02 0.0000000000000000e+00  1.2504798567948953e-17 -6.1583009527087618e-02 0.0000000000000000e+00  7.9319089928940353e-18 -6.1583009527087736e-02 0.0000000000000000e+00  2.1199828516544388e-33 -6.1583009527087798e-02 0.0000000000000000e+00  1.2413220344683351e-33 -6.5272721875825029e-02 0.0000000000000000e+00  1.5930733288729432e-17 -6.5272721875825016e-02 0.0000000000000000e+00  6.0881887162925980e-17 -6.5272721875824974e-02 0.0000000000000000e+00  8.9882736833613700e-17 -6.5272721875824960e-02 0.0000000000000000e+00  1.1626781599619043e-16 -6.5272721875825029e-02 0.0000000000000000e+00  1.1043490043615989e-16 -6.5272721875825154e-02 0.0000000000000000e+00  9.0740442308504240e-17 -6.5272721875825418e-02 0.0000000000000000e+00  6.6463560089911493e-17 -6.5272721875825668e-02 0.0000000000000000e+00  5.4512773723152096e-17 -6.5272721875825834e-02 0.0000000000000000e+00  3.9244892544655319e-17 -6.5272721875825918e-02 0.0000000000000000e+00  -1.0262065682678564e-32 -6.5272721875826015e-02 0.0000000000000000e+00  1.3541694921472762e-33 -6.8972202706892222e-02 0.0000000000000000e+00  2.5742814035982893e-17 -6.8972202706892347e-02 0.0000000000000000e+00  7.8586627659717243e-17 -6.8972202706892263e-02 0.0000000000000000e+00  1.3094819952695637e-16 -6.8972202706892305e-02 0.0000000000000000e+00  1.7302443075840527e-16 -6.8972202706892333e-02 0.0000000000000000e+00  1.9781711344440734e-16 -6.8972202706892458e-02 0.0000000000000000e+00  1.9423397523853916e-16 -6.8972202706892569e-02 0.0000000000000000e+00  1.5722470838811668e-16 -6.8972202706892902e-02 0.0000000000000000e+00  1.1761273656474330e-16 -6.8972202706893096e-02 0.0000000000000000e+00  6.4588297942987594e-17 -6.8972202706893207e-02 0.0000000000000000e+00  4.6408516970463945e-33 -6.8972202706893207e-02 0.0000000000000000e+00  1.4670169498262133e-33 -7.2681543297326498e-02 0.0000000000000000e+00  4.8695354286405059e-17 -7.2681543297326484e-02 0.0000000000000000e+00  8.2472788083748901e-17 -7.2681543297326498e-02 0.0000000000000000e+00  1.4443669402729406e-16 -7.2681543297326456e-02 0.0000000000000000e+00  2.3381751880183144e-16 -7.2681543297326498e-02 0.0000000000000000e+00  3.1232311014372542e-16 -7.2681543297326581e-02 0.0000000000000000e+00  3.6041767421117215e-16 -7.2681543297326817e-02 0.0000000000000000e+00  3.4019089581487379e-16 -7.2681543297327053e-02 0.0000000000000000e+00  2.2634079581688913e-16 -7.2681543297327247e-02 0.0000000000000000e+00  1.1089744917779834e-16 -7.2681543297327331e-02 0.0000000000000000e+00  -1.8055593228630322e-32 -7.2681543297327345e-02 0.0000000000000000e+00  -1.3634350827994433e-18 -1.7941615909539883e-03 0.0000000000000000e+00  -4.3000659834200886e-18 -1.7941615909539872e-03 0.0000000000000000e+00  -9.4587448983462312e-18 -1.7941615909539887e-03 0.0000000000000000e+00  -1.3846945806137888e-17 -1.7941615909539902e-03 0.0000000000000000e+00  -1.7177080735396759e-17 -1.7941615909539928e-03 0.0000000000000000e+00  -1.9242266808395717e-17 -1.7941615909539987e-03 0.0000000000000000e+00  -1.8282836743854958e-17 -1.7941615909540035e-03 0.0000000000000000e+00  -1.3923272490365660e-17 -1.7941615909540069e-03 0.0000000000000000e+00  -8.8104652696164961e-18 -1.7941615909540091e-03 0.0000000000000000e+00  -2.8713309967733915e-18 -1.7941615909540106e-03 0.0000000000000000e+00  -3.5724833268357980e-18 -5.3828730732974469e-03 0.0000000000000000e+00  -1.2633593186002569e-17 -5.3828730732974426e-03 0.0000000000000000e+00  -2.3793267166971507e-17 -5.3828730732974443e-03 0.0000000000000000e+00  -3.5584620807240530e-17 -5.3828730732974504e-03 0.0000000000000000e+00  -4.4428136037442321e-17 -5.3828730732974599e-03 0.0000000000000000e+00  -4.8115160564706093e-17 -5.3828730732974738e-03 0.0000000000000000e+00  -4.4307145399549595e-17 -5.3828730732974964e-03 0.0000000000000000e+00  -3.4110701602206917e-17 -5.3828730732975094e-03 0.0000000000000000e+00  -2.2575970620584739e-17 -5.3828730732975155e-03 0.0000000000000000e+00  -7.6199973828999434e-18 -5.3828730732975207e-03 0.0000000000000000e+00  -6.2826517465422514e-18 -8.9727470629468453e-03 0.0000000000000000e+00  -1.9347721700829687e-17 -8.9727470629468401e-03 0.0000000000000000e+00  -3.3479021942906744e-17 -8.9727470629468314e-03 0.0000000000000000e+00  -4.9923718229601688e-17 -8.9727470629468453e-03 0.0000000000000000e+00  -6.2325726384279200e-17 -8.9727470629468696e-03 0.0000000000000000e+00  -6.4787932797971589e-17 -8.9727470629468922e-03 0.0000000000000000e+00  -6.0138523813931417e-17 -8.9727470629469303e-03 0.0000000000000000e+00  -4.7797094220376299e-17 -8.9727470629469563e-03 0.0000000000000000e+00  -3.0224273698355996e-17 -8.9727470629469685e-03 0.0000000000000000e+00  -1.1955462150217933e-17 -8.9727470629469789e-03 0.0000000000000000e+00  -6.8062060587541131e-18 -1.2564550599530771e-02 0.0000000000000000e+00  -2.4003827053404856e-17 -1.2564550599530766e-02 0.0000000000000000e+00  -4.0427498195208188e-17 -1.2564550599530754e-02 0.0000000000000000e+00  -5.8535648428478518e-17 -1.2564550599530787e-02 0.0000000000000000e+00  -7.0748121841614355e-17 -1.2564550599530811e-02 0.0000000000000000e+00  -7.5845092842505124e-17 -1.2564550599530853e-02 0.0000000000000000e+00  -6.9124977717036472e-17 -1.2564550599530894e-02 0.0000000000000000e+00  -5.6430049564144788e-17 -1.2564550599530941e-02 0.0000000000000000e+00  -3.8746493830665086e-17 -1.2564550599530959e-02 0.0000000000000000e+00  -1.2614232494502645e-17 -1.2564550599530971e-02 0.0000000000000000e+00  -8.9004233076015177e-18 -1.6159038826382987e-02 0.0000000000000000e+00  -2.5091008601011950e-17 -1.6159038826382973e-02 0.0000000000000000e+00  -4.4638695923875642e-17 -1.6159038826382966e-02 0.0000000000000000e+00  -6.3996578980287879e-17 -1.6159038826382994e-02 0.0000000000000000e+00  -7.7064918434615509e-17 -1.6159038826383039e-02 0.0000000000000000e+00  -7.8823210627127157e-17 -1.6159038826383098e-02 0.0000000000000000e+00  -7