<?xml version="1.0"?>
<VTKFile type="UnstructuredGrid"  version="0.1"  >
<UnstructuredGrid>
<Piece  NumberOfPoints="1091" NumberOfCells="2050">
<Points>
<DataArray  type="Float64"  NumberOfComponents="3"  format="ascii">-0.5 -1 0  -0.4 -1 0  -0.3 -1 0  -0.2 -1 0  -0.09999999999999998 -1 0  0 -1 0  0.09999999999999998 -1 0  0.2 -1 0  0.3 -1 0  0.4 -1 0  0.5 -1 0  -0.5 -0.98 0  -0.4 -0.98 0  -0.3 -0.98 0  -0.2 -0.98 0  -0.09999999999999998 -0.98 0  0 -0.98 0  0.09999999999999998 -0.98 0  0.2 -0.98 0  0.3 -0.98 0  0.4 -0.98 0  0.5 -0.98 0  -0.5 -0.96 0  -0.4 -0.96 0  -0.3 -0.96 0  -0.2 -0.96 0  -0.09999999999999998 -0.96 0  0 -0.96 0  0.09999999999999998 -0.96 0  0.2 -0.96 0  0.3 -0.96 0  0.4 -0.96 0  0.5 -0.96 0  -0.5 -0.9399999999999999 0  -0.4 -0.9399999999999999 0  -0.3 -0.9399999999999999 0  -0.2 -0.9399999999999999 0  -0.09999999999999998 -0.9399999999999999 0  0 -0.9399999999999999 0  0.09999999999999998 -0.9399999999999999 0  0.2 -0.9399999999999999 0  0.3 -0.9399999999999999 0  0.4 -0.9399999999999999 0  0.5 -0.9399999999999999 0  -0.5 -0.92 0  -0.4 -0.92 0  -0.3 -0.92 0  -0.2 -0.92 0  -0.09999999999999998 -0.92 0  0 -0.92 0  0.09999999999999998 -0.92 0  0.2 -0.92 0  0.3 -0.92 0  0.4 -0.92 0  0.5 -0.92 0  -0.5 -0.9 0  -0.4 -0.9 0  -0.3 -0.9 0  -0.2 -0.9 0  -0.09999999999999998 -0.9 0  0 -0.9 0  0.09999999999999998 -0.9 0  0.2 -0.9 0  0.3 -0.9 0  0.4 -0.9 0  0.5 -0.9 0  -0.5 -0.88 0  -0.4 -0.88 0  -0.3 -0.88 0  -0.2 -0.88 0  -0.09999999999999998 -0.88 0  0 -0.88 0  0.09999999999999998 -0.88 0  0.2 -0.88 0  0.3 -0.88 0  0.4 -0.88 0  0.5 -0.88 0  -0.5 -0.86 0  -0.4 -0.86 0  -0.3 -0.86 0  -0.2 -0.86 0  -0.09999999999999998 -0.86 0  0 -0.86 0  0.09999999999999998 -0.86 0  0.2 -0.86 0  0.3 -0.86 0  0.4 -0.86 0  0.5 -0.86 0  -0.5 -0.84 0  -0.4 -0.84 0  -0.3 -0.84 0  -0.2 -0.84 0  -0.09999999999999998 -0.84 0  0 -0.84 0  0.09999999999999998 -0.84 0  0.2 -0.84 0  0.3 -0.84 0  0.4 -0.84 0  0.5 -0.84 0  -0.5 -0.8200000000000001 0  -0.4 -0.8200000000000001 0  -0.3 -0.8200000000000001 0  -0.2 -0.8200000000000001 0  -0.09999999999999998 -0.8200000000000001 0  0 -0.8200000000000001 0  0.09999999999999998 -0.8200000000000001 0  0.2 -0.8200000000000001 0  0.3 -0.8200000000000001 0  0.4 -0.8200000000000001 0  0.5 -0.8200000000000001 0  -0.5 -0.8 0  -0.4 -0.8 0  -0.3 -0.8 0  -0.2 -0.8 0  -0.09999999999999998 -0.8 0  0 -0.8 0  0.09999999999999998 -0.8 0  0.2 -0.8 0  0.3 -0.8 0  0.4 -0.8 0  0.5 -0.8 0  -0.5 -0.78 0  -0.4 -0.78 0  -0.3 -0.78 0  -0.2 -0.78 0  -0.09999999999999998 -0.78 0  0 -0.78 0  0.09999999999999998 -0.78 0  0.2 -0.78 0  0.3 -0.78 0  0.4 -0.78 0  0.5 -0.78 0  -0.5 -0.76 0  -0.4 -0.76 0  -0.3 -0.76 0  -0.2 -0.76 0  -0.09999999999999998 -0.76 0  0 -0.76 0  0.09999999999999998 -0.76 0  0.2 -0.76 0  0.3 -0.76 0  0.4 -0.76 0  0.5 -0.76 0  -0.5 -0.74 0  -0.4 -0.74 0  -0.3 -0.74 0  -0.2 -0.74 0  -0.09999999999999998 -0.74 0  0 -0.74 0  0.09999999999999998 -0.74 0  0.2 -0.74 0  0.3 -0.74 0  0.4 -0.74 0  0.5 -0.74 0  -0.5 -0.72 0  -0.4 -0.72 0  -0.3 -0.72 0  -0.2 -0.72 0  -0.09999999999999998 -0.72 0  0 -0.72 0  0.09999999999999998 -0.72 0  0.2 -0.72 0  0.3 -0.72 0  0.4 -0.72 0  0.5 -0.72 0  -0.5 -0.7 0  -0.4 -0.7 0  -0.3 -0.7 0  -0.2 -0.7 0  -0.09999999999999998 -0.7 0  0 -0.7 0  0.09999999999999998 -0.7 0  0.2 -0.7 0  0.3 -0.7 0  0.4 -0.7 0  0.5 -0.7 0  -0.5 -0.6799999999999999 0  -0.4 -0.6799999999999999 0  -0.3 -0.6799999999999999 0  -0.2 -0.6799999999999999 0  -0.09999999999999998 -0.6799999999999999 0  0 -0.6799999999999999 0  0.09999999999999998 -0.6799999999999999 0  0.2 -0.6799999999999999 0  0.3 -0.6799999999999999 0  0.4 -0.6799999999999999 0  0.5 -0.6799999999999999 0  -0.5 -0.6599999999999999 0  -0.4 -0.6599999999999999 0  -0.3 -0.6599999999999999 0  -0.2 -0.6599999999999999 0  -0.09999999999999998 -0.6599999999999999 0  0 -0.6599999999999999 0  0.09999999999999998 -0.6599999999999999 0  0.2 -0.6599999999999999 0  0.3 -0.6599999999999999 0  0.4 -0.6599999999999999 0  0.5 -0.6599999999999999 0  -0.5 -0.64 0  -0.4 -0.64 0  -0.3 -0.64 0  -0.2 -0.64 0  -0.09999999999999998 -0.64 0  0 -0.64 0  0.09999999999999998 -0.64 0  0.2 -0.64 0  0.3 -0.64 0  0.4 -0.64 0  0.5 -0.64 0  -0.5 -0.62 0  -0.4 -0.62 0  -0.3 -0.62 0  -0.2 -0.62 0  -0.09999999999999998 -0.62 0  0 -0.62 0  0.09999999999999998 -0.62 0  0.2 -0.62 0  0.3 -0.62 0  0.4 -0.62 0  0.5 -0.62 0  -0.5 -0.6 0  -0.4 -0.6 0  -0.3 -0.6 0  -0.2 -0.6 0  -0.09999999999999998 -0.6 0  0 -0.6 0  0.09999999999999998 -0.6 0  0.2 -0.6 0  0.3 -0.6 0  0.4 -0.6 0  0.5 -0.6 0  -0.5 -0.5800000000000001 0  -0.4 -0.5800000000000001 0  -0.3 -0.5800000000000001 0  -0.2 -0.5800000000000001 0  -0.09999999999999998 -0.5800000000000001 0  0 -0.5800000000000001 0  0.09999999999999998 -0.5800000000000001 0  0.2 -0.5800000000000001 0  0.3 -0.5800000000000001 0  0.4 -0.5800000000000001 0  0.5 -0.5800000000000001 0  -0.5 -0.5600000000000001 0  -0.4 -0.5600000000000001 0  -0.3 -0.5600000000000001 0  -0.2 -0.5600000000000001 0  -0.09999999999999998 -0.5600000000000001 0  0 -0.5600000000000001 0  0.09999999999999998 -0.5600000000000001 0  0.2 -0.5600000000000001 0  0.3 -0.5600000000000001 0  0.4 -0.5600000000000001 0  0.5 -0.5600000000000001 0  -0.5 -0.54 0  -0.4 -0.54 0  -0.3 -0.54 0  -0.2 -0.54 0  -0.09999999999999998 -0.54 0  0 -0.54 0  0.09999999999999998 -0.54 0  0.2 -0.54 0  0.3 -0.54 0  0.4 -0.54 0  0.5 -0.54 0  -0.5 -0.52 0  -0.4 -0.52 0  -0.3 -0.52 0  -0.2 -0.52 0  -0.09999999999999998 -0.52 0  0 -0.52 0  0.09999999999999998 -0.52 0  0.2 -0.52 0  0.3 -0.52 0  0.4 -0.52 0  0.5 -0.52 0  -0.5 -0.5 0  -0.4 -0.5 0  -0.3 -0.5 0  -0.2 -0.5 0  -0.09999999999999998 -0.5 0  0 -0.5 0  0.09999999999999998 -0.5 0  0.2 -0.5 0  0.3 -0.5 0  0.4 -0.5 0  0.5 -0.5 0  -0.5 -0.48 0  -0.4 -0.48 0  -0.3 -0.48 0  -0.2 -0.48 0  -0.09999999999999998 -0.48 0  0 -0.48 0  0.09999999999999998 -0.48 0  0.2 -0.48 0  0.3 -0.48 0  0.4 -0.48 0  0.5 -0.48 0  -0.5 -0.46 0  -0.4 -0.46 0  -0.3 -0.46 0  -0.2 -0.46 0  -0.09999999999999998 -0.46 0  0 -0.46 0  0.09999999999999998 -0.46 0  0.2 -0.46 0  0.3 -0.46 0  0.4 -0.46 0  0.5 -0.46 0  -0.5 -0.4399999999999999 0  -0.4 -0.4399999999999999 0  -0.3 -0.4399999999999999 0  -0.2 -0.4399999999999999 0  -0.09999999999999998 -0.4399999999999999 0  0 -0.4399999999999999 0  0.09999999999999998 -0.4399999999999999 0  0.2 -0.4399999999999999 0  0.3 -0.4399999999999999 0  0.4 -0.4399999999999999 0  0.5 -0.4399999999999999 0  -0.5 -0.42 0  -0.4 -0.42 0  -0.3 -0.42 0  -0.2 -0.42 0  -0.09999999999999998 -0.42 0  0 -0.42 0  0.09999999999999998 -0.42 0  0.2 -0.42 0  0.3 -0.42 0  0.4 -0.42 0  0.5 -0.42 0  -0.5 -0.4 0  -0.4 -0.4 0  -0.3 -0.4 0  -0.2 -0.4 0  -0.09999999999999998 -0.4 0  0 -0.4 0  0.09999999999999998 -0.4 0  0.2 -0.4 0  0.3 -0.4 0  0.4 -0.4 0  0.5 -0.4 0  -0.5 -0.38 0  -0.4 -0.38 0  -0.3 -0.38 0  -0.2 -0.38 0  -0.09999999999999998 -0.38 0  0 -0.38 0  0.09999999999999998 -0.38 0  0.2 -0.38 0  0.3 -0.38 0  0.4 -0.38 0  0.5 -0.38 0  -0.5 -0.36 0  -0.4 -0.36 0  -0.3 -0.36 0  -0.2 -0.36 0  -0.09999999999999998 -0.36 0  0 -0.36 0  0.09999999999999998 -0.36 0  0.2 -0.36 0  0.3 -0.36 0  0.4 -0.36 0  0.5 -0.36 0  -0.5 -0.34 0  -0.4 -0.34 0  -0.3 -0.34 0  -0.2 -0.34 0  -0.09999999999999998 -0.34 0  0 -0.34 0  0.09999999999999998 -0.34 0  0.2 -0.34 0  0.3 -0.34 0  0.4 -0.34 0  0.5 -0.34 0  -0.5 -0.32 0  -0.4 -0.32 0  -0.3 -0.32 0  -0.2 -0.32 0  -0.09999999999999998 -0.32 0  0 -0.32 0  0.09999999999999998 -0.32 0  0.2 -0.32 0  0.3 -0.32 0  0.4 -0.32 0  0.5 -0.32 0  -0.5 -0.3 0  -0.4 -0.3 0  -0.3 -0.3 0  -0.2 -0.3 0  -0.09999999999999998 -0.3 0  0 -0.3 0  0.09999999999999998 -0.3 0  0.2 -0.3 0  0.3 -0.3 0  0.4 -0.3 0  0.5 -0.3 0  -0.5 -0.28 0  -0.4 -0.28 0  -0.3 -0.28 0  -0.2 -0.28 0  -0.09999999999999998 -0.28 0  0 -0.28 0  0.09999999999999998 -0.28 0  0.2 -0.28 0  0.3 -0.28 0  0.4 -0.28 0  0.5 -0.28 0  -0.5 -0.26 0  -0.4 -0.26 0  -0.3 -0.26 0  -0.2 -0.26 0  -0.09999999999999998 -0.26 0  0 -0.26 0  0.09999999999999998 -0.26 0  0.2 -0.26 0  0.3 -0.26 0  0.4 -0.26 0  0.5 -0.26 0  -0.5 -0.24 0  -0.4 -0.24 0  -0.3 -0.24 0  -0.2 -0.24 0  -0.09999999999999998 -0.24 0  0 -0.24 0  0.09999999999999998 -0.24 0  0.2 -0.24 0  0.3 -0.24 0  0.4 -0.24 0  0.5 -0.24 0  -0.5 -0.22 0  -0.4 -0.22 0  -0.3 -0.22 0  -0.2 -0.22 0  -0.09999999999999998 -0.22 0  0 -0.22 0  0.09999999999999998 -0.22 0  0.2 -0.22 0  0.3 -0.22 0  0.4 -0.22 0  0.5 -0.22 0  -0.5 -0.2 0  -0.4 -0.2 0  -0.3 -0.2 0  -0.2 -0.2 0  -0.09999999999999998 -0.2 0  0 -0.2 0  0.09999999999999998 -0.2 0  0.2 -0.2 0  0.3 -0.2 0  0.4 -0.2 0  0.5 -0.2 0  -0.5 -0.18 0  -0.4 -0.18 0  -0.3 -0.18 0  -0.2 -0.18 0  -0.09999999999999998 -0.18 0  0 -0.18 0  0.09999999999999998 -0.18 0  0.2 -0.18 0  0.3 -0.18 0  0.4 -0.18 0  0.5 -0.18 0  -0.5 -0.16 0  -0.4 -0.16 0  -0.3 -0.16 0  -0.2 -0.16 0  -0.09999999999999998 -0.16 0  0 -0.16 0  0.09999999999999998 -0.16 0  0.2 -0.16 0  0.3 -0.16 0  0.4 -0.16 0  0.5 -0.16 0  -0.5 -0.14 0  -0.4 -0.14 0  -0.3 -0.14 0  -0.2 -0.14 0  -0.09999999999999998 -0.14 0  0 -0.14 0  0.09999999999999998 -0.14 0  0.2 -0.14 0  0.3 -0.14 0  0.4 -0.14 0  0.5 -0.14 0  -0.5 -0.12 0  -0.4 -0.12 0  -0.3 -0.12 0  -0.2 -0.12 0  -0.09999999999999998 -0.12 0  0 -0.12 0  0.09999999999999998 -0.12 0  0.2 -0.12 0  0.3 -0.12 0  0.4 -0.12 0  0.5 -0.12 0  -0.5 -0.09999999999999998 0  -0.4 -0.09999999999999998 0  -0.3 -0.09999999999999998 0  -0.2 -0.09999999999999998 0  -0.09999999999999998 -0.09999999999999998 0  0 -0.09999999999999998 0  0.09999999999999998 -0.09999999999999998 0  0.2 -0.09999999999999998 0  0.3 -0.09999999999999998 0  0.4 -0.09999999999999998 0  0.5 -0.09999999999999998 0  -0.5 -0.07999999999999996 0  -0.4 -0.07999999999999996 0  -0.3 -0.07999999999999996 0  -0.2 -0.07999999999999996 0  -0.09999999999999998 -0.07999999999999996 0  0 -0.07999999999999996 0  0.09999999999999998 -0.07999999999999996 0  0.2 -0.07999999999999996 0  0.3 -0.07999999999999996 0  0.4 -0.07999999999999996 0  0.5 -0.07999999999999996 0  -0.5 -0.06000000000000005 0  -0.4 -0.06000000000000005 0  -0.3 -0.06000000000000005 0  -0.2 -0.06000000000000005 0  -0.09999999
[...]
<PointData  Vectors="displacement"> 
<DataArray  type="Float64"  Name="displacement"  NumberOfComponents="3" format="ascii">-1.0579449157400577e-33 -3.9704669402545292e-20 0.0000000000000000e+00  6.7003177996870320e-34 -2.9778502051908966e-20 0.0000000000000000e+00  8.6178429594658867e-34 -4.9049225384980268e-21 0.0000000000000000e+00  -2.8211864419734879e-34 -2.4815418376590811e-21 0.0000000000000000e+00  2.3029147129212485e-33 -9.9425314161935306e-21 0.0000000000000000e+00  -6.7708474607363692e-33 -2.2333876538931723e-20 0.0000000000000000e+00  8.9173185124370978e-33 -3.1746287180990200e-21 0.0000000000000000e+00  -6.4887288165390202e-33 -3.4741585727227126e-20 0.0000000000000000e+00  1.6958611962039575e-33 3.5672163916349282e-20 0.0000000000000000e+00  1.6927118651840926e-33 3.4741585727227138e-20 0.0000000000000000e+00  -3.1033050861708349e-33 1.9852334701272640e-20 0.0000000000000000e+00  2.8211864419734879e-34 -2.7717265353417275e-04 0.0000000000000000e+00  -6.5772163513121998e-18 -2.7717265353417508e-04 0.0000000000000000e+00  4.0298395783196621e-18 -2.7717265353417893e-04 0.0000000000000000e+00  2.4167040593400953e-17 -2.7717265353418034e-04 0.0000000000000000e+00  3.1129031210461967e-17 -2.7717265353417730e-04 0.0000000000000000e+00  3.7499679345899015e-17 -2.7717265353417199e-04 0.0000000000000000e+00  4.2600530015986588e-17 -2.7717265353417367e-04 0.0000000000000000e+00  3.2323310246682514e-17 -2.7717265353416917e-04 0.0000000000000000e+00  2.9603296839582057e-17 -2.7717265353416961e-04 0.0000000000000000e+00  1.7953346080047904e-17 -2.7717265353416131e-04 0.0000000000000000e+00  -5.2911573036430462e-34 -2.7717265353416879e-04 0.0000000000000000e+00  -2.8836985599645077e-34 -5.5434530706834485e-04 0.0000000000000000e+00  -1.0251346295725447e-17 -5.5434530706835114e-04 0.0000000000000000e+00  8.9295451318146187e-18 -5.5434530706835895e-04 0.0000000000000000e+00  4.4882110362977118e-17 -5.5434530706836339e-04 0.0000000000000000e+00  6.0440340478272268e-17 -5.5434530706835710e-04 0.0000000000000000e+00  7.2999250657953446e-17 -5.5434530706834463e-04 0.0000000000000000e+00  8.0659187265493888e-17 -5.5434530706834734e-04 0.0000000000000000e+00  6.2180588136784755e-17 -5.5434530706833867e-04 0.0000000000000000e+00  5.5636920601578094e-17 -5.5434530706833921e-04 0.0000000000000000e+00  3.3970840655834998e-17 -5.5434530706832002e-04 0.0000000000000000e+00  3.3451210669114212e-33 -5.5434530706833499e-04 0.0000000000000000e+00  -8.4635593259204769e-34 -8.3151796060251587e-04 0.0000000000000000e+00  -1.2371128612843084e-17 -8.3151796060252779e-04 0.0000000000000000e+00  1.4443661447431439e-17 -8.3151796060254059e-04 0.0000000000000000e+00  6.3130365950477179e-17 -8.3151796060255197e-04 0.0000000000000000e+00  8.7459031793211798e-17 -8.3151796060253690e-04 0.0000000000000000e+00  1.0653910570939354e-16 -8.3151796060252172e-04 0.0000000000000000e+00  1.1548399925187392e-16 -8.3151796060252291e-04 0.0000000000000000e+00  8.8492469391033779e-17 -8.3151796060250904e-04 0.0000000000000000e+00  7.9029372759922927e-17 -8.3151796060250860e-04 0.0000000000000000e+00  4.8610342515138015e-17 -8.3151796060247738e-04 0.0000000000000000e+00  5.6423728839469826e-34 -8.3151796060249993e-04 0.0000000000000000e+00  -1.2082233448577375e-33 -1.1086906141366884e-03 0.0000000000000000e+00  -1.3407080531650275e-17 -1.1086906141367018e-03 0.0000000000000000e+00  2.0174630158711371e-17 -1.1086906141367218e-03 0.0000000000000000e+00  7.8362668992446088e-17 -1.1086906141367374e-03 0.0000000000000000e+00  1.1265884885254866e-16 -1.1086906141367177e-03 0.0000000000000000e+00  1.3751891925127820e-16 -1.1086906141366997e-03 0.0000000000000000e+00  1.4748551707377759e-16 -1.1086906141367021e-03 0.0000000000000000e+00  1.1226594714138426e-16 -1.1086906141366799e-03 0.0000000000000000e+00  1.0044679365557591e-16 -1.1086906141366704e-03 0.0000000000000000e+00  6.1576947457387560e-17 -1.1086906141366333e-03 0.0000000000000000e+00  -8.6472776612051900e-33 -1.1086906141366654e-03 0.0000000000000000e+00  1.1284745767893952e-33 -1.3858632676708642e-03 0.0000000000000000e+00  -1.3105601224042672e-17 -1.3858632676708802e-03 0.0000000000000000e+00  2.5519901620391792e-17 -1.3858632676709050e-03 0.0000000000000000e+00  9.1634791538044890e-17 -1.3858632676709249e-03 0.0000000000000000e+00  1.3577352677020438e-16 -1.3858632676709024e-03 0.0000000000000000e+00  1.6623276418809157e-16 -1.3858632676708822e-03 0.0000000000000000e+00  1.7577154462024900e-16 -1.3858632676708850e-03 0.0000000000000000e+00  1.3528603761005578e-16 -1.3858632676708572e-03 0.0000000000000000e+00  1.2025897636397790e-16 -1.3858632676708275e-03 0.0000000000000000e+00  7.2325654553550250e-17 -1.3858632676707931e-03 0.0000000000000000e+00  -5.3272653435400739e-33 -1.3858632676708273e-03 0.0000000000000000e+00  -1.1387734249178139e-33 -1.6630359212050389e-03 0.0000000000000000e+00  -1.1355709561757099e-17 -1.6630359212050562e-03 0.0000000000000000e+00  3.0516975324542144e-17 -1.6630359212050866e-03 0.0000000000000000e+00  1.0244402453998147e-16 -1.6630359212051131e-03 0.0000000000000000e+00  1.5622936189114406e-16 -1.6630359212050842e-03 0.0000000000000000e+00  1.9347729441670787e-16 -1.6630359212050636e-03 0.0000000000000000e+00  2.0126546067773327e-16 -1.6630359212050677e-03 0.0000000000000000e+00  1.5804441860368996e-16 -1.6630359212050354e-03 0.0000000000000000e+00  1.3964776221092194e-16 -1.6630359212049901e-03 0.0000000000000000e+00  8.0346323721948782e-17 -1.6630359212049500e-03 0.0000000000000000e+00  -2.3375544804923184e-33 -1.6630359212049849e-03 0.0000000000000000e+00  1.4105932209867439e-34 -1.9402085747392097e-03 0.0000000000000000e+00  -9.6150558359907646e-18 -1.9402085747392307e-03 0.0000000000000000e+00  3.4495224702453570e-17 -1.9402085747392674e-03 0.0000000000000000e+00  1.1219110872021052e-16 -1.9402085747393027e-03 0.0000000000000000e+00  1.7385796776772628e-16 -1.9402085747392652e-03 0.0000000000000000e+00  2.1869603821009051e-16 -1.9402085747392429e-03 0.0000000000000000e+00  2.2433996653923089e-16 -1.9402085747392431e-03 0.0000000000000000e+00  1.7872924588723236e-16 -1.9402085747392077e-03 0.0000000000000000e+00  1.5772613031462744e-16 -1.9402085747391498e-03 0.0000000000000000e+00  8.7019704563100504e-17 -1.9402085747390998e-03 0.0000000000000000e+00  1.1284745767893950e-33 -1.9402085747391425e-03 0.0000000000000000e+00  -1.9979765369132072e-33 -2.2173812282733742e-03 0.0000000000000000e+00  -9.6106371522425981e-18 -2.2173812282734050e-03 0.0000000000000000e+00  3.7065806931540053e-17 -2.2173812282734553e-03 0.0000000000000000e+00  1.2119918647753781e-16 -2.2173812282734956e-03 0.0000000000000000e+00  1.8937446709117063e-16 -2.2173812282734466e-03 0.0000000000000000e+00  2.4072303212789169e-16 -2.2173812282734219e-03 0.0000000000000000e+00  2.4733266660049961e-16 -2.2173812282734258e-03 0.0000000000000000e+00  1.9673771820487467e-16 -2.2173812282733764e-03 0.0000000000000000e+00  1.7514373342039887e-16 -2.2173812282733087e-03 0.0000000000000000e+00  9.2398373896641839e-17 -2.2173812282732484e-03 0.0000000000000000e+00  1.6287057106881150e-32 -2.2173812282732944e-03 0.0000000000000000e+00  -1.4105932209867500e-33 -2.4945538818075428e-03 0.0000000000000000e+00  -1.2546309446174021e-17 -2.4945538818075728e-03 0.0000000000000000e+00  3.7635410470476663e-17 -2.4945538818076391e-03 0.0000000000000000e+00  1.2991488790233048e-16 -2.4945538818076855e-03 0.0000000000000000e+00  2.0373512857647996e-16 -2.4945538818076335e-03 0.0000000000000000e+00  2.5952041531546710e-16 -2.4945538818075962e-03 0.0000000000000000e+00  2.6827079376900541e-16 -2.4945538818076179e-03 0.0000000000000000e+00  2.1456836886464050e-16 -2.4945538818075571e-03 0.0000000000000000e+00  1.9143668136352474e-16 -2.4945538818074661e-03 0.0000000000000000e+00  9.6433354119789368e-17 -2.4945538818074002e-03 0.0000000000000000e+00  -6.8377824456144074e-33 -2.4945538818074474e-03 0.0000000000000000e+00  -5.4826278618710213e-34 -2.7717265353417193e-03 0.0000000000000000e+00  -1.7006747577432391e-17 -2.7717265353417518e-03 0.0000000000000000e+00  3.6887026258735093e-17 -2.7717265353418338e-03 0.0000000000000000e+00  1.3760696856905652e-16 -2.7717265353418802e-03 0.0000000000000000e+00  2.1931425310653285e-16 -2.7717265353418203e-03 0.0000000000000000e+00  2.7318784979928775e-16 -2.7717265353417769e-03 0.0000000000000000e+00  2.8368285178983446e-16 -2.7717265353418203e-03 0.0000000000000000e+00  2.3485514156868158e-16 -2.7717265353417353e-03 0.0000000000000000e+00  2.0796657039604420e-16 -2.7717265353416191e-03 0.0000000000000000e+00  9.8533415383747338e-17 -2.7717265353415566e-03 0.0000000000000000e+00  -1.0559297825672196e-32 -2.7717265353416052e-03 0.0000000000000000e+00  -2.8211864419734879e-34 -3.0488991888758983e-03 0.0000000000000000e+00  -2.2155280313261807e-17 -3.0488991888759352e-03 0.0000000000000000e+00  3.2463244029328673e-17 -3.0488991888760440e-03 0.0000000000000000e+00  1.4617365092198269e-16 -3.0488991888760757e-03 0.0000000000000000e+00  2.3472239263265225e-16 -3.0488991888760054e-03 0.0000000000000000e+00  2.8498712260349574e-16 -3.0488991888759551e-03 0.0000000000000000e+00  2.9482180252557561e-16 -3.0488991888760098e-03 0.0000000000000000e+00  2.5491951957379221e-16 -3.0488991888759126e-03 0.0000000000000000e+00  2.2511397089190177e-16 -3.0488991888757834e-03 0.0000000000000000e+00  9.8529990967583381e-17 -3.0488991888757114e-03 0.0000000000000000e+00  -1.0156271191104554e-32 -3.0488991888757565e-03 0.0000000000000000e+00  3.0990534282735252e-33 -3.3260718424100739e-03 0.0000000000000000e+00  -3.0683339947205826e-17 -3.3260718424101233e-03 0.0000000000000000e+00  2.7806631156269222e-17 -3.3260718424102578e-03 0.0000000000000000e+00  1.5556016840276951e-16 -3.3260718424102664e-03 0.0000000000000000e+00  2.5062555713216319e-16 -3.3260718424101897e-03 0.0000000000000000e+00  2.9389055942523942e-16 -3.3260718424101363e-03 0.0000000000000000e+00  3.0204725484265656e-16 -3.3260718424102014e-03 0.0000000000000000e+00  2.7474835627322010e-16 -3.3260718424100917e-03 0.0000000000000000e+00  2.3949334198250529e-16 -3.3260718424099472e-03 0.0000000000000000e+00  9.9739176542802434e-17 -3.3260718424098700e-03 0.0000000000000000e+00  9.3576299627154978e-33 -3.3260718424099056e-03 0.0000000000000000e+00  0.0000000000000000e+00 -3.6032444959442525e-03 0.0000000000000000e+00  -4.4086666463272651e-17 -3.6032444959443180e-03 0.0000000000000000e+00  2.2950449160078638e-17 -3.6032444959444567e-03 0.0000000000000000e+00  1.6808773813164825e-16 -3.6032444959444528e-03 0.0000000000000000e+00  2.6538371316754051e-16 -3.6032444959443761e-03 0.0000000000000000e+00  3.0013533042894172e-16 -3.6032444959443331e-03 0.0000000000000000e+00  3.0789461951318049e-16 -3.6032444959443826e-03 0.0000000000000000e+00  2.9423930365104563e-16 -3.6032444959442625e-03 0.0000000000000000e+00  2.5213501584890708e-16 -3.6032444959441193e-03 0.0000000000000000e+00  1.0284199899812328e-16 -3.6032444959440213e-03 0.0000000000000000e+00  -4.6176668776047321e-33 -3.6032444959440569e-03 0.0000000000000000e+00  -2.3769627109312565e-33 -3.8804171494784311e-03 0.0000000000000000e+00  -5.8969204637242000e-17 -3.8804171494785161e-03 0.0000000000000000e+00  1.8600748279813090e-17 -3.8804171494786445e-03 0.0000000000000000e+00  1.8298158981097372e-16 -3.8804171494786380e-03 0.0000000000000000e+00  2.7471200103060951e-16 -3.8804171494785621e-03 0.0000000000000000e+00  3.0282030461246562e-16 -3.8804171494785308e-03 0.0000000000000000e+00  3.1625053712177932e-16 -3.8804171494785482e-03 0.0000000000000000e+00  3.1086185976552707e-16 -3.8804171494784333e-03 0.0000000000000000e+00  2.6542978761700113e-16 -3.8804171494782867e-03 0.0000000000000000e+00  1.0765802243768712e-16 -3.8804171494781748e-03 0.0000000000000000e+00  -2.5793704612329027e-33 -3.8804171494782021e-03 0.0000000000000000e+00  6.7708474607363706e-33 -4.1575898030126093e-03 0.0000000000000000e+00  -7.3898067004186382e-17 -4.1575898030127073e-03 0.0000000000000000e+00  1.3167404436588598e-17 -4.1575898030128365e-03 0.0000000000000000e+00  1.9753342232440560e-16 -4.1575898030128114e-03 0.0000000000000000e+00  2.7987343519498706e-16 -4.1575898030127532e-03 0.0000000000000000e+00  3.0424059107698474e-16 -4.1575898030127255e-03 0.0000000000000000e+00  3.2454097111185124e-16 -4.1575898030127151e-03 0.0000000000000000e+00  3.2444821146539926e-16 -4.1575898030126110e-03 0.0000000000000000e+00  2.7806631156269186e-16 -4.1575898030124609e-03 0.0000000000000000e+00  1.1195777571706044e-16 -4.1575898030123308e-03 0.0000000000000000e+00  4.5138983071575799e-33 -4.1575898030123603e-03 0.0000000000000000e+00  -2.3282630126378494e-32 -4.4347624565467935e-03 0.0000000000000000e+00  -8.6513409105176046e-17 -4.4347624565469071e-03 0.0000000000000000e+00  1.0485694344514198e-17 -4.4347624565470182e-03 0.0000000000000000e+00  2.0577685547437035e-16 -4.4347624565469869e-03 0.0000000000000000e+00  2.7978597183905130e-16 -4.4347624565469635e-03 0.0000000000000000e+00  3.0777367937328240e-16 -4.4347624565469210e-03 0.0000000000000000e+00  3.3186100787212842e-16 -4.4347624565468794e-03 0.0000000000000000e+00  3.3477189236514711e-16 -4.4347624565467710e-03 0.0000000000000000e+00  2.9059654999678358e-16 -4.4347624565466235e-03 0.0000000000000000e+00  1.1725887334811453e-16 -4.4347624565465029e-03 0.0000000000000000e+00  -6.0581481042696219e-33 -4.4347624565465290e-03 0.0000000000000000e+00  0.0000000000000000e+00 -4.7119351100809786e-03 0.0000000000000000e+00  -9.6980728194994055e-17 -4.7119351100811157e-03 0.0000000000000000e+00  9.2841219156622379e-18 -4.7119351100812033e-03 0.0000000000000000e+00  2.0961427999700624e-16 -4.7119351100811842e-03 0.0000000000000000e+00  2.7711650675646097e-16 -4.7119351100811625e-03 0.0000000000000000e+00  3.1498659934194785e-16 -4.7119351100811079e-03 0.0000000000000000e+00  3.4282649201873872e-16 -4.7119351100810246e-03 0.0000000000000000e+00  3.3686050432419664e-16 -4.7119351100809179e-03 0.0000000000000000e+00  3.0012701504880988e-16 -4.7119351100807887e-03 0.0000000000000000e+00  1.2273335978882281e-16 -4.7119351100806646e-03 0.0000000000000000e+00  -9.9777909905344607e-33 -4.7119351100807106e-03 0.0000000000000000e+00  -3.3573355064904754e-33 -4.9891077636151663e-03 0.0000000000000000e+00  -1.0731072705844025e-16 -4.9891077636153155e-03 0.0000000000000000e+00  1.2971993003522690e-17 -4.9891077636154005e-03 0.0000000000000000e+00  2.1181065246534045e-16 -4.9891077636153780e-03 0.0000000000000000e+00  2.7211249938928020e-16 -4.9891077636153571e-03 0.0000000000000000e+00  3.2584812659631226e-16 -4.9891077636152878e-03 0.0000000000000000e+00  3.5787173639293703e-16 -4.9891077636151681e-03 0.0000000000000000e+00  3.3389145469998715e-16 -4.9891077636150458e-03 0.0000000000000000e+00  3.0678927527737822e-16 -4.9891077636149382e-03 0.0000000000000000e+00  1.2363606077936200e-16 -4.9891077636148281e-03 0.0000000000000000e+00  -2.0957384997517358e-33 -4.9891077636148879e-03 0.0000000000000000e+00  6.7708474607363706e-33 -5.2662804171493653e-03 0.0000000000000000e+00  -1.1636161782398013e-16 -5.2662804171495024e-03 0.0000000000000000e+00  1.8759497574325165e-17 -5.2662804171496064e-03 0.0000000000000000e+00  2.1093386703343961e-16 -5.2662804171495639e-03 0.0000000000000000e+00  2.6562650288751897e-16 -5.2662804171495596e-03 0.0000000000000000e+00  3.4328768843941479e-16 -5.2662804171494529e-03 0.0000000000000000e+00  3.7217980165536648e-16 -5.2662804171493202e-03 0.0000000000000000e+00  3.2950096509111364e-16 -5.2662804171491780e-03 0.0000000000000000e+00  3.0973127909949612e-16 -5.2662804171490730e-03 0.0000000000000000e+00  1.1746695828728946e-16 -5.2662804171489871e-03 0.0000000000000000e+00  -2.2569491535787900e-33 -5.2662804171490678e-03 0.0000000000000000e+00  5.4491154322768328e-33 -5.5434530706835652e-03 0.0000000000000000e+00  -1.2414733858823322e-16 -5.5434530706836883e-03 0.0000000000000000e+00  2.3948294775734156e-17 -5.5434530706838028e-03 0.0000000000000000e+00  2.0561811628236210e-16 -5.5434530706837707e-03 0.0000000000000000e+00  2.6087738141050715e-16 -5.5434530706837447e-03 0.0000000000000000e+00  3.6151842128516712e-16 -5.5434530706836189e-03 0.0000000000000000e+00  3.8798145381673135e-16 -5.5434530706834854e-03 0.0000000000000000e+00  3.2550940225712516e-16 -5.5434530706833214e-03 0.0000000000000000e+00  3.0257901276478019e-16 -5.5434530706832217e-03 0.0000000000000000e+00  1.0842647912933901e-16 -5.5434530706831540e-03 0.0000000000000000e+00  5.8966006624815814e-33 -5.5434530706832364e-03 0.0000000000000000e+00  -1.3541694921472763e-32 -5.8206257242177772e-03 0.0000000000000000e+00  -1.3024874637123022e-16 -5.8206257242178674e-03 0.0000000000000000e+00  2.7740108115225460e-17 -5.8206257242180036e-03 0.0000000000000000e+00  2.0385167965396433e-16 -5.8206257242179767e-03 0.0000000000000000e+00  2.5569378132168047e-16 -5.8206257242179116e-03 0.0000000000000000e+00  3.7849031285508040e-16 -5.8206257242177832e-03 0.0000000000000000e+00  4.0733721107087418e-16 -5.8206257242176609e-03 0.0000000000000000e+00  3.2072765471905351e-16 -5.8206257242174814e-03 0.0000000000000000e+00  2.9347864126083021e-16 -5.8206257242173782e-03 0.0000000000000000e+00  9.4983870506043422e-17 -5.8206257242173313e-03 0.0000000000000000e+00  1.2239455175567439e-32 -5.8206257242174103e-03 0.0000000000000000e+00  -2.2372148696705377e-33 -6.0977983777519857e-03 0.0000000000000000e+00  -1.3572497493431449e-16 -6.0977983777520482e-03 0.0000000000000000e+00  2.6145862247711682e-17 -6.0977983777521869e-03 0.0000000000000000e+00  2.0703691950557035e-16 -6.0977983777521791e-03 0.0000000000000000e+00  2.5283790553231591e-16 -6.0977983777520794e-03 0.0000000000000000e+00  3.9558505294814521e-16 -6.0977983777519467e-03 0.0000000000000000e+00  4.2142346501187898e-16 -6.0977983777518226e-03 0.0000000000000000e+00  3.1467927351052964e-16 -6.0977983777516856e-03 0.0000000000000000e+00  2.8407953302642474e-16 -6.0977983777515355e-03 0.0000000000000000e+00  7.7605667901117980e-17 -6.0977983777514922e-03 0.0000000000000000e+00  -1.5718038748138001e-32 -6.0977983777515789e-03 0.0000000000000000e+00  -9.0277966143151612e-33 -6.3749710312861942e-03 0.0000000000000000e+00  -1.4130066889858116e-16 -6.3749710312862445e-03 0.0000000000000000e+00  2.0755188805636351e-17 -6.3749710312863998e-03 0.0000000000000000e+00  2.1203122421102875e-16 -6.3749710312863946e-03 0.0000000000000000e+00  2.5541298598847560e-16 -6.3749710312862437e-03 0.0000000000000000e+00  4.1324621802663545e-16 -6.3749710312861205e-03 0.0000000000000000e+00  4.2676206898345099e-16 -6.3749710312860138e-03 0.0000000000000000e+00  3.0603899627028898e-16 -6.3749710312858907e-03 0.0000000000000000e+00  2.7726803507016743e-16 -6.3749710312857033e-03 0.0000000000000000e+00  5.9812505956019702e-17 -6.3749710312856573e-03 0.0000000000000000e+00  -1.1284745767893950e-33 -6.3749710312857423e-03 0.0000000000000000e+00  3.8284510782009821e-33 -6.6521436848204114e-03 0.0000000000000000e+00  -1.4524955786559911e-16 -6.6521436848204461e-03 0.0000000000000000e+00  1.1493934185332846e-17 -6.6521436848206109e-03 0.0000000000000000e+00  2.1858485070114224e-16 -6.6521436848206083e-03 0.0000000000000000e+00  2.6143555130176562e-16 -6.6521436848203880e-03 0.0000000000000000e+00  4.3040452706123342e-16 -6.6521436848203039e-03 0.0000000000000000e+00  4.2673432741151884e-16 -6.6521436848201998e-03 0.0000000000000000e+00  2.9717657011419078e-16 -6.6521436848201001e-03 0.0000000000000000e+00  2.6886430402581798e-16 -6.6521436848198763e-03 0.0000000000000000e+00  4.3737029615768010e-17 -6.6521436848198190e-03 0.0000000000000000e+00  4.7132926314697838e-33 -6.6521436848199084e-03 0.0000000000000000e+00  2.9340338996524274e-32 -6.9293163383546087e-03 0.0000000000000000e+00  -1.4846683914616390e-16 -6.9293163383546538e-03 0.0000000000000000e+00  1.9190237719036678e-18 -6.9293163383548047e-03 0.0000000000000000e+00  2.2317992077908492e-16 -6.9293163383548099e-03 0.0000000000000000e+00  2.700648370