<?xml version="1.0"?>
<VTKFile type="UnstructuredGrid"  version="0.1"  >
<UnstructuredGrid>
<Piece  NumberOfPoints="1091" NumberOfCells="2050">
<Points>
<DataArray  type="Float64"  NumberOfComponents="3"  format="ascii">-0.5 -1 0  -0.4 -1 0  -0.3 -1 0  -0.2 -1 0  -0.09999999999999998 -1 0  0 -1 0  0.09999999999999998 -1 0  0.2 -1 0  0.3 -1 0  0.4 -1 0  0.5 -1 0  -0.5 -0.98 0  -0.4 -0.98 0  -0.3 -0.98 0  -0.2 -0.98 0  -0.09999999999999998 -0.98 0  0 -0.98 0  0.09999999999999998 -0.98 0  0.2 -0.98 0  0.3 -0.98 0  0.4 -0.98 0  0.5 -0.98 0  -0.5 -0.96 0  -0.4 -0.96 0  -0.3 -0.96 0  -0.2 -0.96 0  -0.09999999999999998 -0.96 0  0 -0.96 0  0.09999999999999998 -0.96 0  0.2 -0.96 0  0.3 -0.96 0  0.4 -0.96 0  0.5 -0.96 0  -0.5 -0.9399999999999999 0  -0.4 -0.9399999999999999 0  -0.3 -0.9399999999999999 0  -0.2 -0.9399999999999999 0  -0.09999999999999998 -0.9399999999999999 0  0 -0.9399999999999999 0  0.09999999999999998 -0.9399999999999999 0  0.2 -0.9399999999999999 0  0.3 -0.9399999999999999 0  0.4 -0.9399999999999999 0  0.5 -0.9399999999999999 0  -0.5 -0.92 0  -0.4 -0.92 0  -0.3 -0.92 0  -0.2 -0.92 0  -0.09999999999999998 -0.92 0  0 -0.92 0  0.09999999999999998 -0.92 0  0.2 -0.92 0  0.3 -0.92 0  0.4 -0.92 0  0.5 -0.92 0  -0.5 -0.9 0  -0.4 -0.9 0  -0.3 -0.9 0  -0.2 -0.9 0  -0.09999999999999998 -0.9 0  0 -0.9 0  0.09999999999999998 -0.9 0  0.2 -0.9 0  0.3 -0.9 0  0.4 -0.9 0  0.5 -0.9 0  -0.5 -0.88 0  -0.4 -0.88 0  -0.3 -0.88 0  -0.2 -0.88 0  -0.09999999999999998 -0.88 0  0 -0.88 0  0.09999999999999998 -0.88 0  0.2 -0.88 0  0.3 -0.88 0  0.4 -0.88 0  0.5 -0.88 0  -0.5 -0.86 0  -0.4 -0.86 0  -0.3 -0.86 0  -0.2 -0.86 0  -0.09999999999999998 -0.86 0  0 -0.86 0  0.09999999999999998 -0.86 0  0.2 -0.86 0  0.3 -0.86 0  0.4 -0.86 0  0.5 -0.86 0  -0.5 -0.84 0  -0.4 -0.84 0  -0.3 -0.84 0  -0.2 -0.84 0  -0.09999999999999998 -0.84 0  0 -0.84 0  0.09999999999999998 -0.84 0  0.2 -0.84 0  0.3 -0.84 0  0.4 -0.84 0  0.5 -0.84 0  -0.5 -0.8200000000000001 0  -0.4 -0.8200000000000001 0  -0.3 -0.8200000000000001 0  -0.2 -0.8200000000000001 0  -0.09999999999999998 -0.8200000000000001 0  0 -0.8200000000000001 0  0.09999999999999998 -0.8200000000000001 0  0.2 -0.8200000000000001 0  0.3 -0.8200000000000001 0  0.4 -0.8200000000000001 0  0.5 -0.8200000000000001 0  -0.5 -0.8 0  -0.4 -0.8 0  -0.3 -0.8 0  -0.2 -0.8 0  -0.09999999999999998 -0.8 0  0 -0.8 0  0.09999999999999998 -0.8 0  0.2 -0.8 0  0.3 -0.8 0  0.4 -0.8 0  0.5 -0.8 0  -0.5 -0.78 0  -0.4 -0.78 0  -0.3 -0.78 0  -0.2 -0.78 0  -0.09999999999999998 -0.78 0  0 -0.78 0  0.09999999999999998 -0.78 0  0.2 -0.78 0  0.3 -0.78 0  0.4 -0.78 0  0.5 -0.78 0  -0.5 -0.76 0  -0.4 -0.76 0  -0.3 -0.76 0  -0.2 -0.76 0  -0.09999999999999998 -0.76 0  0 -0.76 0  0.09999999999999998 -0.76 0  0.2 -0.76 0  0.3 -0.76 0  0.4 -0.76 0  0.5 -0.76 0  -0.5 -0.74 0  -0.4 -0.74 0  -0.3 -0.74 0  -0.2 -0.74 0  -0.09999999999999998 -0.74 0  0 -0.74 0  0.09999999999999998 -0.74 0  0.2 -0.74 0  0.3 -0.74 0  0.4 -0.74 0  0.5 -0.74 0  -0.5 -0.72 0  -0.4 -0.72 0  -0.3 -0.72 0  -0.2 -0.72 0  -0.09999999999999998 -0.72 0  0 -0.72 0  0.09999999999999998 -0.72 0  0.2 -0.72 0  0.3 -0.72 0  0.4 -0.72 0  0.5 -0.72 0  -0.5 -0.7 0  -0.4 -0.7 0  -0.3 -0.7 0  -0.2 -0.7 0  -0.09999999999999998 -0.7 0  0 -0.7 0  0.09999999999999998 -0.7 0  0.2 -0.7 0  0.3 -0.7 0  0.4 -0.7 0  0.5 -0.7 0  -0.5 -0.6799999999999999 0  -0.4 -0.6799999999999999 0  -0.3 -0.6799999999999999 0  -0.2 -0.6799999999999999 0  -0.09999999999999998 -0.6799999999999999 0  0 -0.6799999999999999 0  0.09999999999999998 -0.6799999999999999 0  0.2 -0.6799999999999999 0  0.3 -0.6799999999999999 0  0.4 -0.6799999999999999 0  0.5 -0.6799999999999999 0  -0.5 -0.6599999999999999 0  -0.4 -0.6599999999999999 0  -0.3 -0.6599999999999999 0  -0.2 -0.6599999999999999 0  -0.09999999999999998 -0.6599999999999999 0  0 -0.6599999999999999 0  0.09999999999999998 -0.6599999999999999 0  0.2 -0.6599999999999999 0  0.3 -0.6599999999999999 0  0.4 -0.6599999999999999 0  0.5 -0.6599999999999999 0  -0.5 -0.64 0  -0.4 -0.64 0  -0.3 -0.64 0  -0.2 -0.64 0  -0.09999999999999998 -0.64 0  0 -0.64 0  0.09999999999999998 -0.64 0  0.2 -0.64 0  0.3 -0.64 0  0.4 -0.64 0  0.5 -0.64 0  -0.5 -0.62 0  -0.4 -0.62 0  -0.3 -0.62 0  -0.2 -0.62 0  -0.09999999999999998 -0.62 0  0 -0.62 0  0.09999999999999998 -0.62 0  0.2 -0.62 0  0.3 -0.62 0  0.4 -0.62 0  0.5 -0.62 0  -0.5 -0.6 0  -0.4 -0.6 0  -0.3 -0.6 0  -0.2 -0.6 0  -0.09999999999999998 -0.6 0  0 -0.6 0  0.09999999999999998 -0.6 0  0.2 -0.6 0  0.3 -0.6 0  0.4 -0.6 0  0.5 -0.6 0  -0.5 -0.5800000000000001 0  -0.4 -0.5800000000000001 0  -0.3 -0.5800000000000001 0  -0.2 -0.5800000000000001 0  -0.09999999999999998 -0.5800000000000001 0  0 -0.5800000000000001 0  0.09999999999999998 -0.5800000000000001 0  0.2 -0.5800000000000001 0  0.3 -0.5800000000000001 0  0.4 -0.5800000000000001 0  0.5 -0.5800000000000001 0  -0.5 -0.5600000000000001 0  -0.4 -0.5600000000000001 0  -0.3 -0.5600000000000001 0  -0.2 -0.5600000000000001 0  -0.09999999999999998 -0.5600000000000001 0  0 -0.5600000000000001 0  0.09999999999999998 -0.5600000000000001 0  0.2 -0.5600000000000001 0  0.3 -0.5600000000000001 0  0.4 -0.5600000000000001 0  0.5 -0.5600000000000001 0  -0.5 -0.54 0  -0.4 -0.54 0  -0.3 -0.54 0  -0.2 -0.54 0  -0.09999999999999998 -0.54 0  0 -0.54 0  0.09999999999999998 -0.54 0  0.2 -0.54 0  0.3 -0.54 0  0.4 -0.54 0  0.5 -0.54 0  -0.5 -0.52 0  -0.4 -0.52 0  -0.3 -0.52 0  -0.2 -0.52 0  -0.09999999999999998 -0.52 0  0 -0.52 0  0.09999999999999998 -0.52 0  0.2 -0.52 0  0.3 -0.52 0  0.4 -0.52 0  0.5 -0.52 0  -0.5 -0.5 0  -0.4 -0.5 0  -0.3 -0.5 0  -0.2 -0.5 0  -0.09999999999999998 -0.5 0  0 -0.5 0  0.09999999999999998 -0.5 0  0.2 -0.5 0  0.3 -0.5 0  0.4 -0.5 0  0.5 -0.5 0  -0.5 -0.48 0  -0.4 -0.48 0  -0.3 -0.48 0  -0.2 -0.48 0  -0.09999999999999998 -0.48 0  0 -0.48 0  0.09999999999999998 -0.48 0  0.2 -0.48 0  0.3 -0.48 0  0.4 -0.48 0  0.5 -0.48 0  -0.5 -0.46 0  -0.4 -0.46 0  -0.3 -0.46 0  -0.2 -0.46 0  -0.09999999999999998 -0.46 0  0 -0.46 0  0.09999999999999998 -0.46 0  0.2 -0.46 0  0.3 -0.46 0  0.4 -0.46 0  0.5 -0.46 0  -0.5 -0.4399999999999999 0  -0.4 -0.4399999999999999 0  -0.3 -0.4399999999999999 0  -0.2 -0.4399999999999999 0  -0.09999999999999998 -0.4399999999999999 0  0 -0.4399999999999999 0  0.09999999999999998 -0.4399999999999999 0  0.2 -0.4399999999999999 0  0.3 -0.4399999999999999 0  0.4 -0.4399999999999999 0  0.5 -0.4399999999999999 0  -0.5 -0.42 0  -0.4 -0.42 0  -0.3 -0.42 0  -0.2 -0.42 0  -0.09999999999999998 -0.42 0  0 -0.42 0  0.09999999999999998 -0.42 0  0.2 -0.42 0  0.3 -0.42 0  0.4 -0.42 0  0.5 -0.42 0  -0.5 -0.4 0  -0.4 -0.4 0  -0.3 -0.4 0  -0.2 -0.4 0  -0.09999999999999998 -0.4 0  0 -0.4 0  0.09999999999999998 -0.4 0  0.2 -0.4 0  0.3 -0.4 0  0.4 -0.4 0  0.5 -0.4 0  -0.5 -0.38 0  -0.4 -0.38 0  -0.3 -0.38 0  -0.2 -0.38 0  -0.09999999999999998 -0.38 0  0 -0.38 0  0.09999999999999998 -0.38 0  0.2 -0.38 0  0.3 -0.38 0  0.4 -0.38 0  0.5 -0.38 0  -0.5 -0.36 0  -0.4 -0.36 0  -0.3 -0.36 0  -0.2 -0.36 0  -0.09999999999999998 -0.36 0  0 -0.36 0  0.09999999999999998 -0.36 0  0.2 -0.36 0  0.3 -0.36 0  0.4 -0.36 0  0.5 -0.36 0  -0.5 -0.34 0  -0.4 -0.34 0  -0.3 -0.34 0  -0.2 -0.34 0  -0.09999999999999998 -0.34 0  0 -0.34 0  0.09999999999999998 -0.34 0  0.2 -0.34 0  0.3 -0.34 0  0.4 -0.34 0  0.5 -0.34 0  -0.5 -0.32 0  -0.4 -0.32 0  -0.3 -0.32 0  -0.2 -0.32 0  -0.09999999999999998 -0.32 0  0 -0.32 0  0.09999999999999998 -0.32 0  0.2 -0.32 0  0.3 -0.32 0  0.4 -0.32 0  0.5 -0.32 0  -0.5 -0.3 0  -0.4 -0.3 0  -0.3 -0.3 0  -0.2 -0.3 0  -0.09999999999999998 -0.3 0  0 -0.3 0  0.09999999999999998 -0.3 0  0.2 -0.3 0  0.3 -0.3 0  0.4 -0.3 0  0.5 -0.3 0  -0.5 -0.28 0  -0.4 -0.28 0  -0.3 -0.28 0  -0.2 -0.28 0  -0.09999999999999998 -0.28 0  0 -0.28 0  0.09999999999999998 -0.28 0  0.2 -0.28 0  0.3 -0.28 0  0.4 -0.28 0  0.5 -0.28 0  -0.5 -0.26 0  -0.4 -0.26 0  -0.3 -0.26 0  -0.2 -0.26 0  -0.09999999999999998 -0.26 0  0 -0.26 0  0.09999999999999998 -0.26 0  0.2 -0.26 0  0.3 -0.26 0  0.4 -0.26 0  0.5 -0.26 0  -0.5 -0.24 0  -0.4 -0.24 0  -0.3 -0.24 0  -0.2 -0.24 0  -0.09999999999999998 -0.24 0  0 -0.24 0  0.09999999999999998 -0.24 0  0.2 -0.24 0  0.3 -0.24 0  0.4 -0.24 0  0.5 -0.24 0  -0.5 -0.22 0  -0.4 -0.22 0  -0.3 -0.22 0  -0.2 -0.22 0  -0.09999999999999998 -0.22 0  0 -0.22 0  0.09999999999999998 -0.22 0  0.2 -0.22 0  0.3 -0.22 0  0.4 -0.22 0  0.5 -0.22 0  -0.5 -0.2 0  -0.4 -0.2 0  -0.3 -0.2 0  -0.2 -0.2 0  -0.09999999999999998 -0.2 0  0 -0.2 0  0.09999999999999998 -0.2 0  0.2 -0.2 0  0.3 -0.2 0  0.4 -0.2 0  0.5 -0.2 0  -0.5 -0.18 0  -0.4 -0.18 0  -0.3 -0.18 0  -0.2 -0.18 0  -0.09999999999999998 -0.18 0  0 -0.18 0  0.09999999999999998 -0.18 0  0.2 -0.18 0  0.3 -0.18 0  0.4 -0.18 0  0.5 -0.18 0  -0.5 -0.16 0  -0.4 -0.16 0  -0.3 -0.16 0  -0.2 -0.16 0  -0.09999999999999998 -0.16 0  0 -0.16 0  0.09999999999999998 -0.16 0  0.2 -0.16 0  0.3 -0.16 0  0.4 -0.16 0  0.5 -0.16 0  -0.5 -0.14 0  -0.4 -0.14 0  -0.3 -0.14 0  -0.2 -0.14 0  -0.09999999999999998 -0.14 0  0 -0.14 0  0.09999999999999998 -0.14 0  0.2 -0.14 0  0.3 -0.14 0  0.4 -0.14 0  0.5 -0.14 0  -0.5 -0.12 0  -0.4 -0.12 0  -0.3 -0.12 0  -0.2 -0.12 0  -0.09999999999999998 -0.12 0  0 -0.12 0  0.09999999999999998 -0.12 0  0.2 -0.12 0  0.3 -0.12 0  0.4 -0.12 0  0.5 -0.12 0  -0.5 -0.09999999999999998 0  -0.4 -0.09999999999999998 0  -0.3 -0.09999999999999998 0  -0.2 -0.09999999999999998 0  -0.09999999999999998 -0.09999999999999998 0  0 -0.09999999999999998 0  0.09999999999999998 -0.09999999999999998 0  0.2 -0.09999999999999998 0  0.3 -0.09999999999999998 0  0.4 -0.09999999999999998 0  0.5 -0.09999999999999998 0  -0.5 -0.07999999999999996 0  -0.4 -0.07999999999999996 0  -0.3 -0.07999999999999996 0  -0.2 -0.07999999999999996 0  -0.09999999999999998 -0.07999999999999996 0  0 -0.07999999999999996 0  0.09999999999999998 -0.07999999999999996 0  0.2 -0.07999999999999996 0  0.3 -0.07999999999999996 0  0.4 -0.07999999999999996 0  0.5 -0.07999999999999996 0  -0.5 -0.06000000000000005 0  -0.4 -0.06000000000000005 0  -0.3 -0.06000000000000005 0  -0.2 -0.06000000000000005 0  -0.09999999
[...]
<PointData  Vectors="displacement"> 
<DataArray  type="Float64"  Name="displacement"  NumberOfComponents="3" format="ascii">-5.6423728839469723e-34 4.9630836753181612e-20 0.0000000000000000e+00  -1.4105932209867435e-34 -5.7075462266158849e-20 0.0000000000000000e+00  3.1815489288974448e-33 8.3752037020993977e-21 0.0000000000000000e+00  -1.6927118651840926e-33 9.9261673506363246e-21 0.0000000000000000e+00  3.4130127229021209e-33 9.9216203889089732e-21 0.0000000000000000e+00  2.8211864419734869e-33 -4.2186211240204369e-20 0.0000000000000000e+00  5.3522645515838817e-33 -8.8211057510537642e-22 0.0000000000000000e+00  2.8211864419734870e-34 -4.4667753077863446e-20 0.0000000000000000e+00  5.6486711978971059e-33 2.5125611106298189e-20 0.0000000000000000e+00  1.1284745767893952e-33 -9.9261673506363246e-21 0.0000000000000000e+00  -1.1284745767893946e-33 4.9630836753181600e-20 0.0000000000000000e+00  1.1284745767893952e-33 -2.7717265353417281e-04 0.0000000000000000e+00  -6.7640339296792933e-18 -2.7717265353417557e-04 0.0000000000000000e+00  5.0196247379069415e-18 -2.7717265353417904e-04 0.0000000000000000e+00  2.6537051493947577e-17 -2.7717265353418126e-04 0.0000000000000000e+00  3.3390324835620759e-17 -2.7717265353417730e-04 0.0000000000000000e+00  4.0531731393744224e-17 -2.7717265353417248e-04 0.0000000000000000e+00  4.5063946205584447e-17 -2.7717265353417308e-04 0.0000000000000000e+00  3.3132440914942405e-17 -2.7717265353416950e-04 0.0000000000000000e+00  3.0399257832945983e-17 -2.7717265353416988e-04 0.0000000000000000e+00  1.9122576602067831e-17 -2.7717265353416061e-04 0.0000000000000000e+00  -1.0581729785681338e-33 -2.7717265353416869e-04 0.0000000000000000e+00  -5.5766886267948061e-34 -5.5434530706834485e-04 0.0000000000000000e+00  -1.0428093645651745e-17 -5.5434530706835233e-04 0.0000000000000000e+00  1.0881075322549000e-17 -5.5434530706835927e-04 0.0000000000000000e+00  4.8757955185621080e-17 -5.5434530706836567e-04 0.0000000000000000e+00  6.5080322591070879e-17 -5.5434530706835634e-04 0.0000000000000000e+00  7.9095838168507297e-17 -5.5434530706834594e-04 0.0000000000000000e+00  8.5332430898814179e-17 -5.5434530706834615e-04 0.0000000000000000e+00  6.3910350345283652e-17 -5.5434530706833889e-04 0.0000000000000000e+00  5.7693115839535851e-17 -5.5434530706834019e-04 0.0000000000000000e+00  3.5791338360075894e-17 -5.5434530706831926e-04 0.0000000000000000e+00  4.7557142878981649e-33 -5.5434530706833477e-04 0.0000000000000000e+00  5.6423728839469852e-34 -8.3151796060251576e-04 0.0000000000000000e+00  -1.2543483718793834e-17 -8.3151796060252985e-04 0.0000000000000000e+00  1.7251630638506268e-17 -8.3151796060254189e-04 0.0000000000000000e+00  6.8327478532016732e-17 -8.3151796060255392e-04 0.0000000000000000e+00  9.4379959549681007e-17 -8.3151796060253625e-04 0.0000000000000000e+00  1.1542314804044216e-16 -8.3151796060252270e-04 0.0000000000000000e+00  1.2213630335624456e-16 -8.3151796060252161e-04 0.0000000000000000e+00  9.1269876281444525e-17 -8.3151796060250882e-04 0.0000000000000000e+00  8.2056171127411541e-17 -8.3151796060250882e-04 0.0000000000000000e+00  5.0939956095142891e-17 -8.3151796060247684e-04 0.0000000000000000e+00  -3.3854237303681894e-33 -8.3151796060249917e-04 0.0000000000000000e+00  1.2695338988880750e-33 -1.1086906141366871e-03 0.0000000000000000e+00  -1.3469146348695412e-17 -1.1086906141367038e-03 0.0000000000000000e+00  2.3425624484663426e-17 -1.1086906141367216e-03 0.0000000000000000e+00  8.5221412654326793e-17 -1.1086906141367400e-03 0.0000000000000000e+00  1.2180784584109089e-16 -1.1086906141367164e-03 0.0000000000000000e+00  1.4850762669958810e-16 -1.1086906141367021e-03 0.0000000000000000e+00  1.5603493122426922e-16 -1.1086906141367014e-03 0.0000000000000000e+00  1.1643195258674634e-16 -1.1086906141366819e-03 0.0000000000000000e+00  1.0430410023765891e-16 -1.1086906141366706e-03 0.0000000000000000e+00  6.3959829230445925e-17 -1.1086906141366327e-03 0.0000000000000000e+00  1.0761985700518841e-32 -1.1086906141366637e-03 0.0000000000000000e+00  -1.6927118651840926e-33 -1.3858632676708622e-03 0.0000000000000000e+00  -1.3553788190812035e-17 -1.3858632676708822e-03 0.0000000000000000e+00  2.9128776597012840e-17 -1.3858632676709060e-03 0.0000000000000000e+00  1.0001826115378112e-16 -1.3858632676709299e-03 0.0000000000000000e+00  1.4681635158345967e-16 -1.3858632676709013e-03 0.0000000000000000e+00  1.7845013644477473e-16 -1.3858632676708857e-03 0.0000000000000000e+00  1.8638300908923660e-16 -1.3858632676708854e-03 0.0000000000000000e+00  1.4102468932259184e-16 -1.3858632676708583e-03 0.0000000000000000e+00  1.2538371915281954e-16 -1.3858632676708284e-03 0.0000000000000000e+00  7.5096053074429565e-17 -1.3858632676707902e-03 0.0000000000000000e+00  -8.4800031317993866e-33 -1.3858632676708249e-03 0.0000000000000000e+00  -5.6423728839469758e-34 -1.6630359212050376e-03 0.0000000000000000e+00  -1.2184593270612382e-17 -1.6630359212050584e-03 0.0000000000000000e+00  3.3927879479616629e-17 -1.6630359212050892e-03 0.0000000000000000e+00  1.1261561825656797e-16 -1.6630359212051189e-03 0.0000000000000000e+00  1.6873569360736073e-16 -1.6630359212050846e-03 0.0000000000000000e+00  2.0616619843532846e-16 -1.6630359212050658e-03 0.0000000000000000e+00  2.1377179239394987e-16 -1.6630359212050690e-03 0.0000000000000000e+00  1.6519196000368067e-16 -1.6630359212050361e-03 0.0000000000000000e+00  1.4492332159027019e-16 -1.6630359212049901e-03 0.0000000000000000e+00  8.3491415201300743e-17 -1.6630359212049454e-03 0.0000000000000000e+00  3.7078450380222976e-33 -1.6630359212049814e-03 0.0000000000000000e+00  7.0529661049337199e-34 -1.9402085747392103e-03 0.0000000000000000e+00  -1.0463443115637008e-17 -1.9402085747392348e-03 0.0000000000000000e+00  3.7288106983467179e-17 -1.9402085747392702e-03 0.0000000000000000e+00  1.2381601014259823e-16 -1.9402085747393107e-03 0.0000000000000000e+00  1.8859282135890719e-16 -1.9402085747392680e-03 0.0000000000000000e+00  2.3216291210344167e-16 -1.9402085747392453e-03 0.0000000000000000e+00  2.3807697451475624e-16 -1.9402085747392459e-03 0.0000000000000000e+00  1.8744113534152127e-16 -1.9402085747392103e-03 0.0000000000000000e+00  1.6397929617273582e-16 -1.9402085747391462e-03 0.0000000000000000e+00  8.9859981309393681e-17 -1.9402085747390926e-03 0.0000000000000000e+00  1.1284745767893949e-32 -1.9402085747391397e-03 0.0000000000000000e+00  0.0000000000000000e+00 -2.2173812282733738e-03 0.0000000000000000e+00  -1.0388325491918328e-17 -2.2173812282734085e-03 0.0000000000000000e+00  3.9302644186634656e-17 -2.2173812282734579e-03 0.0000000000000000e+00  1.3349860698888526e-16 -2.2173812282735069e-03 0.0000000000000000e+00  2.0643762711888112e-16 -2.2173812282734484e-03 0.0000000000000000e+00  2.5542685491307726e-16 -2.2173812282734254e-03 0.0000000000000000e+00  2.6196773563011503e-16 -2.2173812282734275e-03 0.0000000000000000e+00  2.0734109498158491e-16 -2.2173812282733820e-03 0.0000000000000000e+00  1.8239162662661405e-16 -2.2173812282733039e-03 0.0000000000000000e+00  9.4620277085242682e-17 -2.2173812282732419e-03 0.0000000000000000e+00  -1.4839231857257120e-32 -2.2173812282732914e-03 0.0000000000000000e+00  -1.1284745767893999e-33 -2.4945538818075437e-03 0.0000000000000000e+00  -1.3472834756423251e-17 -2.4945538818075771e-03 0.0000000000000000e+00  3.9136336584025259e-17 -2.4945538818076439e-03 0.0000000000000000e+00  1.4168333912480501e-16 -2.4945538818076994e-03 0.0000000000000000e+00  2.2318480270163347e-16 -2.4945538818076335e-03 0.0000000000000000e+00  2.7499118004819407e-16 -2.4945538818076027e-03 0.0000000000000000e+00  2.8378729309244950e-16 -2.4945538818076239e-03 0.0000000000000000e+00  2.2765142466050572e-16 -2.4945538818075593e-03 0.0000000000000000e+00  2.0027593044220726e-16 -2.4945538818074613e-03 0.0000000000000000e+00  9.8271526559022875e-17 -2.4945538818073941e-03 0.0000000000000000e+00  -1.3431771049122067e-32 -2.4945538818074483e-03 0.0000000000000000e+00  -2.2510924975682565e-33 -2.7717265353417188e-03 0.0000000000000000e+00  -1.8448290140266248e-17 -2.7717265353417557e-03 0.0000000000000000e+00  3.7020072340822489e-17 -2.7717265353418416e-03 0.0000000000000000e+00  1.4901309278699787e-16 -2.7717265353418945e-03 0.0000000000000000e+00  2.4003332197972732e-16 -2.7717265353418255e-03 0.0000000000000000e+00  2.9049276782671178e-16 -2.7717265353417852e-03 0.0000000000000000e+00  3.0099962911020319e-16 -2.7717265353418229e-03 0.0000000000000000e+00  2.4998703777076145e-16 -2.7717265353417401e-03 0.0000000000000000e+00  2.1835928734351504e-16 -2.7717265353416174e-03 0.0000000000000000e+00  1.0077039263563741e-16 -2.7717265353415549e-03 0.0000000000000000e+00  1.9748305093814411e-32 -2.7717265353416035e-03 0.0000000000000000e+00  -5.6423728839469758e-34 -3.0488991888758992e-03 0.0000000000000000e+00  -2.4992075279578936e-17 -3.0488991888759408e-03 0.0000000000000000e+00  3.2263674906197564e-17 -3.0488991888760583e-03 0.0000000000000000e+00  1.5716355865857551e-16 -3.0488991888760917e-03 0.0000000000000000e+00  2.5658976353073802e-16 -3.0488991888760150e-03 0.0000000000000000e+00  3.0392151182953187e-16 -3.0488991888759690e-03 0.0000000000000000e+00  3.1432136893151226e-16 -3.0488991888760158e-03 0.0000000000000000e+00  2.7193942474681410e-16 -3.0488991888759248e-03 0.0000000000000000e+00  2.3602374962306964e-16 -3.0488991888757808e-03 0.0000000000000000e+00  1.0164590773161811e-16 -3.0488991888757036e-03 0.0000000000000000e+00  -2.3697966112577294e-32 -3.0488991888757552e-03 0.0000000000000000e+00  1.1361912660436033e-33 -3.3260718424100786e-03 0.0000000000000000e+00  -3.5773663625083284e-17 -3.3260718424101290e-03 0.0000000000000000e+00  2.6675739458526179e-17 -3.3260718424102777e-03 0.0000000000000000e+00  1.6945544338799129e-16 -3.3260718424102833e-03 0.0000000000000000e+00  2.7297729892284839e-16 -3.3260718424102022e-03 0.0000000000000000e+00  3.1406664431147052e-16 -3.3260718424101506e-03 0.0000000000000000e+00  3.2314072098555615e-16 -3.3260718424102109e-03 0.0000000000000000e+00  2.9384002591123902e-16 -3.3260718424101034e-03 0.0000000000000000e+00  2.5239465425491905e-16 -3.3260718424099498e-03 0.0000000000000000e+00  1.0304913265582431e-16 -3.3260718424098644e-03 0.0000000000000000e+00  1.9956034903671308e-32 -3.3260718424099026e-03 0.0000000000000000e+00  5.6423728839469759e-33 -3.6032444959442555e-03 0.0000000000000000e+00  -5.0023193321591190e-17 -3.6032444959443284e-03 0.0000000000000000e+00  2.0223004477286700e-17 -3.6032444959444841e-03 0.0000000000000000e+00  1.8377387263283300e-16 -3.6032444959444698e-03 0.0000000000000000e+00  2.8884895895789511e-16 -3.6032444959443908e-03 0.0000000000000000e+00  3.2089051923457810e-16 -3.6032444959443492e-03 0.0000000000000000e+00  3.2993037685890763e-16 -3.6032444959443895e-03 0.0000000000000000e+00  3.1434007853680510e-16 -3.6032444959442733e-03 0.0000000000000000e+00  2.6744437369377938e-16 -3.6032444959441206e-03 0.0000000000000000e+00  1.0670327269564418e-16 -3.6032444959440144e-03 0.0000000000000000e+00  -2.6606183450573791e-32 -3.6032444959440539e-03 0.0000000000000000e+00  -5.6734095089484127e-33 -3.8804171494784346e-03 0.0000000000000000e+00  -6.4960448602352299e-17 -3.8804171494785265e-03 0.0000000000000000e+00  1.4491659074918020e-17 -3.8804171494786744e-03 0.0000000000000000e+00  1.9890894195907813e-16 -3.8804171494786544e-03 0.0000000000000000e+00  2.9991782091575041e-16 -3.8804171494785811e-03 0.0000000000000000e+00  3.2369428405327191e-16 -3.8804171494785486e-03 0.0000000000000000e+00  3.3826966370724658e-16 -3.8804171494785616e-03 0.0000000000000000e+00  3.3160293353627088e-16 -3.8804171494784454e-03 0.0000000000000000e+00  2.8270529365050119e-16 -3.8804171494782945e-03 0.0000000000000000e+00  1.1244127463712073e-16 -3.8804171494781678e-03 0.0000000000000000e+00  1.7249539959495036e-32 -3.8804171494782004e-03 0.0000000000000000e+00  -9.0277966143151612e-33 -4.1575898030126145e-03 0.0000000000000000e+00  -8.0411206848970550e-17 -4.1575898030127203e-03 0.0000000000000000e+00  8.5877088297359242e-18 -4.1575898030128599e-03 0.0000000000000000e+00  2.1245922842212263e-16 -4.1575898030128287e-03 0.0000000000000000e+00  3.0560077775082472e-16 -4.1575898030127723e-03 0.0000000000000000e+00  3.2763118945122136e-16 -4.1575898030127472e-03 0.0000000000000000e+00  3.4742489723088630e-16 -4.1575898030127246e-03 0.0000000000000000e+00  3.4352595450988242e-16 -4.1575898030126145e-03 0.0000000000000000e+00  2.9802322387580371e-16 -4.1575898030124679e-03 0.0000000000000000e+00  1.1775807719936291e-16 -4.1575898030123282e-03 0.0000000000000000e+00  1.1284745767893949e-32 -4.1575898030123647e-03 0.0000000000000000e+00  -6.0211052502786842e-33 -4.4347624565468048e-03 0.0000000000000000e+00  -9.4995072559764462e-17 -4.4347624565469236e-03 0.0000000000000000e+00  5.5671469973451714e-18 -4.4347624565470416e-03 0.0000000000000000e+00  2.2167312004603106e-16 -4.4347624565470069e-03 0.0000000000000000e+00  3.0507632124949576e-16 -4.4347624565469791e-03 0.0000000000000000e+00  3.3462098274960952e-16 -4.4347624565469418e-03 0.0000000000000000e+00  3.5723113084229389e-16 -4.4347624565468872e-03 0.0000000000000000e+00  3.5319025717183157e-16 -4.4347624565467762e-03 0.0000000000000000e+00  3.0910970443474400e-16 -4.4347624565466330e-03 0.0000000000000000e+00  1.2527010882050500e-16 -4.4347624565465003e-03 0.0000000000000000e+00  -5.7443072096193618e-34 -4.4347624565465281e-03 0.0000000000000000e+00  -1.6927118651841000e-32 -4.7119351100809942e-03 0.0000000000000000e+00  -1.0607007857458339e-16 -4.7119351100811399e-03 0.0000000000000000e+00  6.7063540752186139e-18 -4.7119351100812258e-03 0.0000000000000000e+00  2.2561513650987558e-16 -4.7119351100812015e-03 0.0000000000000000e+00  3.0131462023759900e-16 -4.7119351100811781e-03 0.0000000000000000e+00  3.4392412219595991e-16 -4.7119351100811330e-03 0.0000000000000000e+00  3.6950223147726494e-16 -4.7119351100810307e-03 0.0000000000000000e+00  3.5635464920459353e-16 -4.7119351100809274e-03 0.0000000000000000e+00  3.1731906346854253e-16 -4.7119351100807930e-03 0.0000000000000000e+00  1.3065164106552107e-16 -4.7119351100806612e-03 0.0000000000000000e+00  8.0420300934671035e-33 -4.7119351100807158e-03 0.0000000000000000e+00  -5.5737531276248254e-35 -4.9891077636151863e-03 0.0000000000000000e+00  -1.1667711795367694e-16 -4.9891077636153441e-03 0.0000000000000000e+00  1.2240239552041940e-17 -4.9891077636154274e-03 0.0000000000000000e+00  2.2663042936074915e-16 -4.9891077636153962e-03 0.0000000000000000e+00  2.9665950153440764e-16 -4.9891077636153788e-03 0.0000000000000000e+00  3.5618976375022854e-16 -4.9891077636153068e-03 0.0000000000000000e+00  3.8618675581647504e-16 -4.9891077636151767e-03 0.0000000000000000e+00  3.5308741351623015e-16 -4.9891077636150527e-03 0.0000000000000000e+00  3.2512586727178039e-16 -4.9891077636149382e-03 0.0000000000000000e+00  1.3040971000632724e-16 -4.9891077636148229e-03 0.0000000000000000e+00  -4.4332929802440566e-33 -4.9891077636149000e-03 0.0000000000000000e+00  1.0156271191104556e-32 -5.2662804171493879e-03 0.0000000000000000e+00  -1.2687808514459503e-16 -5.2662804171495388e-03 0.0000000000000000e+00  1.9291681902674782e-17 -5.2662804171496325e-03 0.0000000000000000e+00  2.2482318894561033e-16 -5.2662804171495926e-03 0.0000000000000000e+00  2.8990741286847183e-16 -5.2662804171495752e-03 0.0000000000000000e+00  3.7481142989016084e-16 -5.2662804171494772e-03 0.0000000000000000e+00  4.0251824961348365e-16 -5.2662804171493263e-03 0.0000000000000000e+00  3.4843434635978980e-16 -5.2662804171491823e-03 0.0000000000000000e+00  3.2782554626338377e-16 -5.2662804171490800e-03 0.0000000000000000e+00  1.2339771618166609e-16 -5.2662804171489845e-03 0.0000000000000000e+00  -1.1284745767893950e-33 -5.2662804171490808e-03 0.0000000000000000e+00  -1.0813081067592169e-32 -5.5434530706835955e-03 0.0000000000000000e+00  -1.3432798594398806e-16 -5.5434530706837196e-03 0.0000000000000000e+00  2.5079186473477162e-17 -5.5434530706838419e-03 0.0000000000000000e+00  2.2076724558459153e-16 -5.5434530706838011e-03 0.0000000000000000e+00  2.8518843464443277e-16 -5.5434530706837629e-03 0.0000000000000000e+00  3.9573501116738418e-16 -5.5434530706836354e-03 0.0000000000000000e+00  4.1939242653791806e-16 -5.5434530706834906e-03 0.0000000000000000e+00  3.4163756393862474e-16 -5.5434530706833214e-03 0.0000000000000000e+00  3.2204219938264569e-16 -5.5434530706832252e-03 0.0000000000000000e+00  1.1305627594481795e-16 -5.5434530706831462e-03 0.0000000000000000e+00  1.4660580226246129e-32 -5.5434530706832477e-03 0.0000000000000000e+00  -9.0277966143151763e-33 -5.8206257242178049e-03 0.0000000000000000e+00  -1.4029017994624931e-16 -5.8206257242179073e-03 0.0000000000000000e+00  2.5478324719739478e-17 -5.8206257242180417e-03 0.0000000000000000e+00  2.2091295981514475e-16 -5.8206257242180114e-03 0.0000000000000000e+00  2.8072723320444015e-16 -5.8206257242179402e-03 0.0000000000000000e+00  4.1501408041501476e-16 -5.8206257242178049e-03 0.0000000000000000e+00  4.4040955669475896e-16 -5.8206257242176653e-03 0.0000000000000000e+00  3.3378968769805132e-16 -5.8206257242174823e-03 0.0000000000000000e+00  3.1223748919608238e-16 -5.8206257242173808e-03 0.0000000000000000e+00  1.0032783698735523e-16 -5.8206257242173305e-03 0.0000000000000000e+00  -1.5664394266826685e-32 -5.8206257242174146e-03 0.0000000000000000e+00  -6.8953450617642259e-33 -6.0977983777520239e-03 0.0000000000000000e+00  -1.4561810828479150e-16 -6.0977983777520959e-03 0.0000000000000000e+00  2.2154595669636879e-17 -6.0977983777522381e-03 0.0000000000000000e+00  2.2526745600745079e-16 -6.0977983777522147e-03 0.0000000000000000e+00  2.7956060098495377e-16 -6.0977983777521054e-03 0.0000000000000000e+00  4.3395162455906347e-16 -6.0977983777519701e-03 0.0000000000000000e+00  4.5521716986208172e-16 -6.0977983777518322e-03 0.0000000000000000e+00  3.2651163081145655e-16 -6.0977983777516891e-03 0.0000000000000000e+00  3.0321972530689374e-16 -6.0977983777515390e-03 0.0000000000000000e+00  8.3754735058145264e-17 -6.0977983777514904e-03 0.0000000000000000e+00  1.4508958844435078e-32 -6.0977983777515937e-03 0.0000000000000000e+00  1.5798644075051533e-32 -6.3749710312862350e-03 0.0000000000000000e+00  -1.5138410521187663e-16 -6.3749710312862957e-03 0.0000000000000000e+00  1.6896852425101374e-17 -6.3749710312864527e-03 0.0000000000000000e+00  2.3106572119345406e-16 -6.3749710312864293e-03 0.0000000000000000e+00  2.8300940455482473e-16 -6.3749710312862784e-03 0.0000000000000000e+00  4.5000900217831117e-16 -6.3749710312861439e-03 0.0000000000000000e+00  4.6174214470820488e-16 -6.3749710312860286e-03 0.0000000000000000e+00  3.1766366394037452e-16 -6.3749710312858924e-03 0.0000000000000000e+00  2.9456402574153099e-16 -6.3749710312857146e-03 0.0000000000000000e+00  6.8670020994140803e-17 -6.3749710312856504e-03 0.0000000000000000e+00  -1.3541694921472741e-32 -6.3749710312857501e-03 0.0000000000000000e+00  -2.4152534599403824e-32 -6.6521436848204531e-03 0.0000000000000000e+00  -1.5686130359179021e-16 -6.6521436848204878e-03 0.0000000000000000e+00  7.7499342815917759e-18 -6.6521436848206630e-03 0.0000000000000000e+00  2.3998177049651436e-16 -6.6521436848206491e-03 0.0000000000000000e+00  2.8910913637594715e-16 -6.6521436848204262e-03 0.0000000000000000e+00  4.6564884688645731e-16 -6.6521436848203325e-03 0.0000000000000000e+00  4.6340467499736367e-16 -6.6521436848202241e-03 0.0000000000000000e+00  3.0730369635042925e-16 -6.6521436848201122e-03 0.0000000000000000e+00  2.8612495433162714e-16 -6.6521436848198910e-03 0.0000000000000000e+00  5.3950207645796884e-17 -6.6521436848198078e-03 0.0000000000000000e+00  7.8249211973531732e-33 -6.6521436848199231e-03 0.0000000000000000e+00  -1.1284745767893952e-32 -6.9293163383546581e-03 0.0000000000000000e+00  -1.6193633384174188e-16 -6.9293163383546937e-03 0.0000000000000000e+00  -4.3468567308546912e-18 -6.9293163383548654e-03 0.0000000000000000e+00  2.4757578195388727e-16 -6.9293163383548533e-03 0.0000000000000000e+00  2.9815626995789