<?xml version="1.0"?>
<VTKFile type="UnstructuredGrid"  version="0.1"  >
<UnstructuredGrid>
<Piece  NumberOfPoints="1661" NumberOfCells="3200">
<Points>
<DataArray  type="Float64"  NumberOfComponents="3"  format="ascii">-0.25 -1 0  -0.225 -1 0  -0.2 -1 0  -0.175 -1 0  -0.15 -1 0  -0.125 -1 0  -0.1 -1 0  -0.07500000000000001 -1 0  -0.04999999999999999 -1 0  -0.02499999999999999 -1 0  0 -1 0  0.02500000000000002 -1 0  0.04999999999999999 -1 0  0.07500000000000001 -1 0  0.09999999999999998 -1 0  0.125 -1 0  0.15 -1 0  0.175 -1 0  0.2 -1 0  0.225 -1 0  0.25 -1 0  -0.25 -0.975 0  -0.225 -0.975 0  -0.2 -0.975 0  -0.175 -0.975 0  -0.15 -0.975 0  -0.125 -0.975 0  -0.1 -0.975 0  -0.07500000000000001 -0.975 0  -0.04999999999999999 -0.975 0  -0.02499999999999999 -0.975 0  0 -0.975 0  0.02500000000000002 -0.975 0  0.04999999999999999 -0.975 0  0.07500000000000001 -0.975 0  0.09999999999999998 -0.975 0  0.125 -0.975 0  0.15 -0.975 0  0.175 -0.975 0  0.2 -0.975 0  0.225 -0.975 0  0.25 -0.975 0  -0.25 -0.95 0  -0.225 -0.95 0  -0.2 -0.95 0  -0.175 -0.95 0  -0.15 -0.95 0  -0.125 -0.95 0  -0.1 -0.95 0  -0.07500000000000001 -0.95 0  -0.04999999999999999 -0.95 0  -0.02499999999999999 -0.95 0  0 -0.95 0  0.02500000000000002 -0.95 0  0.04999999999999999 -0.95 0  0.07500000000000001 -0.95 0  0.09999999999999998 -0.95 0  0.125 -0.95 0  0.15 -0.95 0  0.175 -0.95 0  0.2 -0.95 0  0.225 -0.95 0  0.25 -0.95 0  -0.25 -0.925 0  -0.225 -0.925 0  -0.2 -0.925 0  -0.175 -0.925 0  -0.15 -0.925 0  -0.125 -0.925 0  -0.1 -0.925 0  -0.07500000000000001 -0.925 0  -0.04999999999999999 -0.925 0  -0.02499999999999999 -0.925 0  0 -0.925 0  0.02500000000000002 -0.925 0  0.04999999999999999 -0.925 0  0.07500000000000001 -0.925 0  0.09999999999999998 -0.925 0  0.125 -0.925 0  0.15 -0.925 0  0.175 -0.925 0  0.2 -0.925 0  0.225 -0.925 0  0.25 -0.925 0  -0.25 -0.9 0  -0.225 -0.9 0  -0.2 -0.9 0  -0.175 -0.9 0  -0.15 -0.9 0  -0.125 -0.9 0  -0.1 -0.9 0  -0.07500000000000001 -0.9 0  -0.04999999999999999 -0.9 0  -0.02499999999999999 -0.9 0  0 -0.9 0  0.02500000000000002 -0.9 0  0.04999999999999999 -0.9 0  0.07500000000000001 -0.9 0  0.09999999999999998 -0.9 0  0.125 -0.9 0  0.15 -0.9 0  0.175 -0.9 0  0.2 -0.9 0  0.225 -0.9 0  0.25 -0.9 0  -0.25 -0.875 0  -0.225 -0.875 0  -0.2 -0.875 0  -0.175 -0.875 0  -0.15 -0.875 0  -0.125 -0.875 0  -0.1 -0.875 0  -0.07500000000000001 -0.875 0  -0.04999999999999999 -0.875 0  -0.02499999999999999 -0.875 0  0 -0.875 0  0.02500000000000002 -0.875 0  0.04999999999999999 -0.875 0  0.07500000000000001 -0.875 0  0.09999999999999998 -0.875 0  0.125 -0.875 0  0.15 -0.875 0  0.175 -0.875 0  0.2 -0.875 0  0.225 -0.875 0  0.25 -0.875 0  -0.25 -0.85 0  -0.225 -0.85 0  -0.2 -0.85 0  -0.175 -0.85 0  -0.15 -0.85 0  -0.125 -0.85 0  -0.1 -0.85 0  -0.07500000000000001 -0.85 0  -0.04999999999999999 -0.85 0  -0.02499999999999999 -0.85 0  0 -0.85 0  0.02500000000000002 -0.85 0  0.04999999999999999 -0.85 0  0.07500000000000001 -0.85 0  0.09999999999999998 -0.85 0  0.125 -0.85 0  0.15 -0.85 0  0.175 -0.85 0  0.2 -0.85 0  0.225 -0.85 0  0.25 -0.85 0  -0.25 -0.825 0  -0.225 -0.825 0  -0.2 -0.825 0  -0.175 -0.825 0  -0.15 -0.825 0  -0.125 -0.825 0  -0.1 -0.825 0  -0.07500000000000001 -0.825 0  -0.04999999999999999 -0.825 0  -0.02499999999999999 -0.825 0  0 -0.825 0  0.02500000000000002 -0.825 0  0.04999999999999999 -0.825 0  0.07500000000000001 -0.825 0  0.09999999999999998 -0.825 0  0.125 -0.825 0  0.15 -0.825 0  0.175 -0.825 0  0.2 -0.825 0  0.225 -0.825 0  0.25 -0.825 0  -0.25 -0.8 0  -0.225 -0.8 0  -0.2 -0.8 0  -0.175 -0.8 0  -0.15 -0.8 0  -0.125 -0.8 0  -0.1 -0.8 0  -0.07500000000000001 -0.8 0  -0.04999999999999999 -0.8 0  -0.02499999999999999 -0.8 0  0 -0.8 0  0.02500000000000002 -0.8 0  0.04999999999999999 -0.8 0  0.07500000000000001 -0.8 0  0.09999999999999998 -0.8 0  0.125 -0.8 0  0.15 -0.8 0  0.175 -0.8 0  0.2 -0.8 0  0.225 -0.8 0  0.25 -0.8 0  -0.25 -0.775 0  -0.225 -0.775 0  -0.2 -0.775 0  -0.175 -0.775 0  -0.15 -0.775 0  -0.125 -0.775 0  -0.1 -0.775 0  -0.07500000000000001 -0.775 0  -0.04999999999999999 -0.775 0  -0.02499999999999999 -0.775 0  0 -0.775 0  0.02500000000000002 -0.775 0  0.04999999999999999 -0.775 0  0.07500000000000001 -0.775 0  0.09999999999999998 -0.775 0  0.125 -0.775 0  0.15 -0.775 0  0.175 -0.775 0  0.2 -0.775 0  0.225 -0.775 0  0.25 -0.775 0  -0.25 -0.75 0  -0.225 -0.75 0  -0.2 -0.75 0  -0.175 -0.75 0  -0.15 -0.75 0  -0.125 -0.75 0  -0.1 -0.75 0  -0.07500000000000001 -0.75 0  -0.04999999999999999 -0.75 0  -0.02499999999999999 -0.75 0  0 -0.75 0  0.02500000000000002 -0.75 0  0.04999999999999999 -0.75 0  0.07500000000000001 -0.75 0  0.09999999999999998 -0.75 0  0.125 -0.75 0  0.15 -0.75 0  0.175 -0.75 0  0.2 -0.75 0  0.225 -0.75 0  0.25 -0.75 0  -0.25 -0.725 0  -0.225 -0.725 0  -0.2 -0.725 0  -0.175 -0.725 0  -0.15 -0.725 0  -0.125 -0.725 0  -0.1 -0.725 0  -0.07500000000000001 -0.725 0  -0.04999999999999999 -0.725 0  -0.02499999999999999 -0.725 0  0 -0.725 0  0.02500000000000002 -0.725 0  0.04999999999999999 -0.725 0  0.07500000000000001 -0.725 0  0.09999999999999998 -0.725 0  0.125 -0.725 0  0.15 -0.725 0  0.175 -0.725 0  0.2 -0.725 0  0.225 -0.725 0  0.25 -0.725 0  -0.25 -0.7 0  -0.225 -0.7 0  -0.2 -0.7 0  -0.175 -0.7 0  -0.15 -0.7 0  -0.125 -0.7 0  -0.1 -0.7 0  -0.07500000000000001 -0.7 0  -0.04999999999999999 -0.7 0  -0.02499999999999999 -0.7 0  0 -0.7 0  0.02500000000000002 -0.7 0  0.04999999999999999 -0.7 0  0.07500000000000001 -0.7 0  0.09999999999999998 -0.7 0  0.125 -0.7 0  0.15 -0.7 0  0.175 -0.7 0  0.2 -0.7 0  0.225 -0.7 0  0.25 -0.7 0  -0.25 -0.675 0  -0.225 -0.675 0  -0.2 -0.675 0  -0.175 -0.675 0  -0.15 -0.675 0  -0.125 -0.675 0  -0.1 -0.675 0  -0.07500000000000001 -0.675 0  -0.04999999999999999 -0.675 0  -0.02499999999999999 -0.675 0  0 -0.675 0  0.02500000000000002 -0.675 0  0.04999999999999999 -0.675 0  0.07500000000000001 -0.675 0  0.09999999999999998 -0.675 0  0.125 -0.675 0  0.15 -0.675 0  0.175 -0.675 0  0.2 -0.675 0  0.225 -0.675 0  0.25 -0.675 0  -0.25 -0.65 0  -0.225 -0.65 0  -0.2 -0.65 0  -0.175 -0.65 0  -0.15 -0.65 0  -0.125 -0.65 0  -0.1 -0.65 0  -0.07500000000000001 -0.65 0  -0.04999999999999999 -0.65 0  -0.02499999999999999 -0.65 0  0 -0.65 0  0.02500000000000002 -0.65 0  0.04999999999999999 -0.65 0  0.07500000000000001 -0.65 0  0.09999999999999998 -0.65 0  0.125 -0.65 0  0.15 -0.65 0  0.175 -0.65 0  0.2 -0.65 0  0.225 -0.65 0  0.25 -0.65 0  -0.25 -0.625 0  -0.225 -0.625 0  -0.2 -0.625 0  -0.175 -0.625 0  -0.15 -0.625 0  -0.125 -0.625 0  -0.1 -0.625 0  -0.07500000000000001 -0.625 0  -0.04999999999999999 -0.625 0  -0.02499999999999999 -0.625 0  0 -0.625 0  0.02500000000000002 -0.625 0  0.04999999999999999 -0.625 0  0.07500000000000001 -0.625 0  0.09999999999999998 -0.625 0  0.125 -0.625 0  0.15 -0.625 0  0.175 -0.625 0  0.2 -0.625 0  0.225 -0.625 0  0.25 -0.625 0  -0.25 -0.6 0  -0.225 -0.6 0  -0.2 -0.6 0  -0.175 -0.6 0  -0.15 -0.6 0  -0.125 -0.6 0  -0.1 -0.6 0  -0.07500000000000001 -0.6 0  -0.04999999999999999 -0.6 0  -0.02499999999999999 -0.6 0  0 -0.6 0  0.02500000000000002 -0.6 0  0.04999999999999999 -0.6 0  0.07500000000000001 -0.6 0  0.09999999999999998 -0.6 0  0.125 -0.6 0  0.15 -0.6 0  0.175 -0.6 0  0.2 -0.6 0  0.225 -0.6 0  0.25 -0.6 0  -0.25 -0.575 0  -0.225 -0.575 0  -0.2 -0.575 0  -0.175 -0.575 0  -0.15 -0.575 0  -0.125 -0.575 0  -0.1 -0.575 0  -0.07500000000000001 -0.575 0  -0.04999999999999999 -0.575 0  -0.02499999999999999 -0.575 0  0 -0.575 0  0.02500000000000002 -0.575 0  0.04999999999999999 -0.575 0  0.07500000000000001 -0.575 0  0.09999999999999998 -0.575 0  0.125 -0.575 0  0.15 -0.575 0  0.175 -0.575 0  0.2 -0.575 0  0.225 -0.575 0  0.25 -0.575 0  -0.25 -0.55 0  -0.225 -0.55 0  -0.2 -0.55 0  -0.175 -0.55 0  -0.15 -0.55 0  -0.125 -0.55 0  -0.1 -0.55 0  -0.07500000000000001 -0.55 0  -0.04999999999999999 -0.55 0  -0.02499999999999999 -0.55 0  0 -0.55 0  0.02500000000000002 -0.55 0  0.04999999999999999 -0.55 0  0.07500000000000001 -0.55 0  0.09999999999999998 -0.55 0  0.125 -0.55 0  0.15 -0.55 0  0.175 -0.55 0  0.2 -0.55 0  0.225 -0.55 0  0.25 -0.55 0  -0.25 -0.525 0  -0.225 -0.525 0  -0.2 -0.525 0  -0.175 -0.525 0  -0.15 -0.525 0  -0.125 -0.525 0  -0.1 -0.525 0  -0.07500000000000001 -0.525 0  -0.04999999999999999 -0.525 0  -0.02499999999999999 -0.525 0  0 -0.525 0  0.02500000000000002 -0.525 0  0.04999999999999999 -0.525 0  0.07500000000000001 -0.525 0  0.09999999999999998 -0.525 0  0.125 -0.525 0  0.15 -0.525 0  0.175 -0.525 0  0.2 -0.525 0  0.225 -0.525 0  0.25 -0.525 0  -0.25 -0.5 0  -0.225 -0.5 0  -0.2 -0.5 0  -0.175 -0.5 0  -0.15 -0.5 0  -0.125 -0.5 0  -0.1 -0.5 0  -0.07500000000000001 -0.5 0  -0.04999999999999999 -0.5 0  -0.02499999999999999 -0.5 0  0 -0.5 0  0.02500000000000002 -0.5 0  0.04999999999999999 -0.5 0  0.07500000000000001 -0.5 0  0.09999999999999998 -0.5 0  0.125 -0.5 0  0.15 -0.5 0  0.175 -0.5 0  0.2 -0.5 0  0.225 -0.5 0  0.25 -0.5 0  -0.25 -0.475 0  -0.225 -0.475 0  -0.2 -0.475 0  -0.175 -0.475 0  -0.15 -0.475 0  -0.125 -0.475 0  -0.1 -0.475 0  -0.07500000000000001 -0.475 0  -0.04999999999999999 -0.475 0  -0.02499999999999999 -0.475 0  0 -0.475 0  0.02500000000000002 -0.475 0  0.04999999999999999 -0.475 0  0.07500000000000001 -0.475 0  0.09999999999999998 -0.475 0  0.125 -0.475 0  0.15 -0.475 0  0.175 -0.475 0  0.2 -0.475 0  0.225 -0.475 0  0.25 -0.475 0  -0.25 -0.45 0  -0.225 -0.45 0  -0.2 -0.45 0  -0.175 -0.45 0  -0.15 -0.45 0  -0.125 -0.45 0  -0.1 -0.45 0  -0.07500000000000001 -0.45 0  -0.04999999999999999 -0.45 0  -0.02499999999999999 -0.45 0  0 -0.45 0  0.02500000000000002 -0.45 0  0.04999999999999999 -0.45 0  0.07500000000000001 -0.45 0  0.09999999999999998 -0.45 0  0.125 -0.45 0  0.15 -0.45 0  0.175 -0.45 0  0.2 -0.45 0  0.225 -0.45 0  0.25 -0.45 0  -0.25 -0.425 0  -0.225 -0.425 0  -0.2 -0.425 0  -0.175 -0.425 0  -0.15 -0.425 0  -0.125 -0.425 0  -0.1 -0.425 0  -0.07500000000000001 -0.425 0  -0.04999999999999999 -0.425 0  -0.02499999999999999 -0.425 0  0 -0.425 0  0.02500000000000002 -0.425 0  0.04999999999999999 -0.425 0  0.07500000000000001 -0.425 0  0.
[...]
<PointData  Vectors="displacement"> 
<DataArray  type="Float64"  Name="displacement"  NumberOfComponents="3" format="ascii">7.2222372914521427e-33 0.0000000000000000e+00 0.0000000000000000e+00  -9.0277966143151817e-33 1.0164395367051619e-18 0.0000000000000000e+00  3.5631584762125228e-32 -6.1840022594464436e-19 0.0000000000000000e+00  1.4444474582904288e-32 4.4469229730850829e-18 0.0000000000000000e+00  -5.0223629726881751e-32 -1.3969821262471932e-19 0.0000000000000000e+00  7.2222372914521443e-32 8.8938459461701651e-19 0.0000000000000000e+00  6.4414074776956366e-32 -2.4527944840953849e-18 0.0000000000000000e+00  -7.2222372914521440e-33 3.4304834363799210e-18 0.0000000000000000e+00  1.5178802883516786e-31 2.6696267853095606e-18 0.0000000000000000e+00  2.8888949165808587e-32 -1.3976043629695979e-18 0.0000000000000000e+00  2.3482868646528794e-32 2.8576228295114953e-19 0.0000000000000000e+00  1.4444474582904299e-32 1.2705494208814532e-18 0.0000000000000000e+00  -2.1367572662972663e-32 -1.0195822916999177e-18 0.0000000000000000e+00  2.8888949165808565e-32 2.0328790734103227e-18 0.0000000000000000e+00  5.8033007008450778e-32 -6.0969446898267562e-19 0.0000000000000000e+00  7.2222372914521366e-32 2.6681537838510472e-18 0.0000000000000000e+00  -4.3034276588475430e-32 1.2391210358277372e-19 0.0000000000000000e+00  4.5138983071575890e-32 6.3527471044072602e-19 0.0000000000000000e+00  1.8044636524310885e-32 8.5762085909497986e-19 0.0000000000000000e+00  7.2222372914521495e-33 2.0328790734103251e-18 0.0000000000000000e+00  7.2222372914521386e-33 0.0000000000000000e+00 0.0000000000000000e+00  -7.2222372914521262e-33 -1.2936921894725060e-02 0.0000000000000000e+00  -8.5676754889365634e-17 -1.2936921894725048e-02 0.0000000000000000e+00  -1.7380045952437831e-16 -1.2936921894725029e-02 0.0000000000000000e+00  -2.5912904635751046e-16 -1.2936921894725065e-02 0.0000000000000000e+00  -3.4253512033954475e-16 -1.2936921894725065e-02 0.0000000000000000e+00  -4.2573240040589421e-16 -1.2936921894725098e-02 0.0000000000000000e+00  -5.0553839843736162e-16 -1.2936921894725117e-02 0.0000000000000000e+00  -5.7665789077201110e-16 -1.2936921894725154e-02 0.0000000000000000e+00  -6.3618580183608594e-16 -1.2936921894725211e-02 0.0000000000000000e+00  -6.7498013672921668e-16 -1.2936921894725251e-02 0.0000000000000000e+00  -6.9655965418754741e-16 -1.2936921894725310e-02 0.0000000000000000e+00  -6.9329954480399294e-16 -1.2936921894725395e-02 0.0000000000000000e+00  -6.6195503762402976e-16 -1.2936921894725452e-02 0.0000000000000000e+00  -6.0989496662645481e-16 -1.2936921894725501e-02 0.0000000000000000e+00  -5.4176861992364761e-16 -1.2936921894725532e-02 0.0000000000000000e+00  -4.6772113852637039e-16 -1.2936921894725588e-02 0.0000000000000000e+00  -3.8813738690331888e-16 -1.2936921894725612e-02 0.0000000000000000e+00  -3.0007735589755970e-16 -1.2936921894725629e-02 0.0000000000000000e+00  -2.0825002337904677e-16 -1.2936921894725648e-02 0.0000000000000000e+00  -1.0781346359845515e-16 -1.2936921894725666e-02 0.0000000000000000e+00  1.8408241533876992e-33 -1.2936921894725690e-02 0.0000000000000000e+00  3.6028515521383876e-32 -2.5882530295622375e-02 0.0000000000000000e+00  -1.6112750935072616e-16 -2.5882530295622361e-02 0.0000000000000000e+00  -3.2092136106406262e-16 -2.5882530295622378e-02 0.0000000000000000e+00  -4.7899084163690902e-16 -2.5882530295622385e-02 0.0000000000000000e+00  -6.3472473111280321e-16 -2.5882530295622434e-02 0.0000000000000000e+00  -7.7844419121809927e-16 -2.5882530295622447e-02 0.0000000000000000e+00  -9.1880109661705960e-16 -2.5882530295622541e-02 0.0000000000000000e+00  -1.0439615283738209e-15 -2.5882530295622569e-02 0.0000000000000000e+00  -1.1416446754195424e-15 -2.5882530295622694e-02 0.0000000000000000e+00  -1.2167554713128585e-15 -2.5882530295622819e-02 0.0000000000000000e+00  -1.2566077721977542e-15 -2.5882530295622944e-02 0.0000000000000000e+00  -1.2422142432100643e-15 -2.5882530295623124e-02 0.0000000000000000e+00  -1.1906668077656811e-15 -2.5882530295623263e-02 0.0000000000000000e+00  -1.0984928377034195e-15 -2.5882530295623384e-02 0.0000000000000000e+00  -9.8529939640238581e-16 -2.5882530295623499e-02 0.0000000000000000e+00  -8.5290420505084105e-16 -2.5882530295623509e-02 0.0000000000000000e+00  -7.0351144738058973e-16 -2.5882530295623579e-02 0.0000000000000000e+00  -5.4514207146875649e-16 -2.5882530295623634e-02 0.0000000000000000e+00  -3.6980990052806754e-16 -2.5882530295623683e-02 0.0000000000000000e+00  -1.8639358027605919e-16 -2.5882530295623742e-02 0.0000000000000000e+00  2.9146886211931819e-32 -2.5882530295623752e-02 0.0000000000000000e+00  -3.6111186457260672e-33 -3.8845498335622813e-02 0.0000000000000000e+00  -2.2841017318850021e-16 -3.8845498335622813e-02 0.0000000000000000e+00  -4.5148314334549413e-16 -3.8845498335622806e-02 0.0000000000000000e+00  -6.6797656469981327e-16 -3.8845498335622855e-02 0.0000000000000000e+00  -8.7485911190362948e-16 -3.8845498335622897e-02 0.0000000000000000e+00  -1.0756889028280961e-15 -3.8845498335622980e-02 0.0000000000000000e+00  -1.2578509215272116e-15 -3.8845498335623022e-02 0.0000000000000000e+00  -1.4190547829252997e-15 -3.8845498335623195e-02 0.0000000000000000e+00  -1.5497207640954025e-15 -3.8845498335623320e-02 0.0000000000000000e+00  -1.6492994347818047e-15 -3.8845498335623542e-02 0.0000000000000000e+00  -1.7002064167909384e-15 -3.8845498335623750e-02 0.0000000000000000e+00  -1.6820823139541313e-15 -3.8845498335624028e-02 0.0000000000000000e+00  -1.6119863305099505e-15 -3.8845498335624208e-02 0.0000000000000000e+00  -1.4954261559120741e-15 -3.8845498335624451e-02 0.0000000000000000e+00  -1.3449770783427217e-15 -3.8845498335624562e-02 0.0000000000000000e+00  -1.1664731641504195e-15 -3.8845498335624694e-02 0.0000000000000000e+00  -9.5884648280735227e-16 -3.8845498335624756e-02 0.0000000000000000e+00  -7.3668083389138618e-16 -3.8845498335624874e-02 0.0000000000000000e+00  -5.0461052781789461e-16 -3.8845498335624930e-02 0.0000000000000000e+00  -2.5397939614614444e-16 -3.8845498335625055e-02 0.0000000000000000e+00  -3.6111186457260659e-33 -3.8845498335625041e-02 0.0000000000000000e+00  -1.5978494710727335e-32 -5.1834472421507946e-02 0.0000000000000000e+00  -2.8231259538627848e-16 -5.1834472421507981e-02 0.0000000000000000e+00  -5.5725262637971107e-16 -5.1834472421507932e-02 0.0000000000000000e+00  -8.2700509142134029e-16 -5.1834472421508022e-02 0.0000000000000000e+00  -1.0895393123128858e-15 -5.1834472421508015e-02 0.0000000000000000e+00  -1.3222784867755945e-15 -5.1834472421508238e-02 0.0000000000000000e+00  -1.5363163713255996e-15 -5.1834472421508244e-02 0.0000000000000000e+00  -1.7202389321723696e-15 -5.1834472421508543e-02 0.0000000000000000e+00  -1.8740205891711647e-15 -5.1834472421508716e-02 0.0000000000000000e+00  -1.9989124712622235e-15 -5.1834472421508952e-02 0.0000000000000000e+00  -2.0524859436256247e-15 -5.1834472421509299e-02 0.0000000000000000e+00  -2.0331281562134601e-15 -5.1834472421509646e-02 0.0000000000000000e+00  -1.9531497464896532e-15 -5.1834472421509958e-02 0.0000000000000000e+00  -1.8189050148774046e-15 -5.1834472421510250e-02 0.0000000000000000e+00  -1.6425067482953338e-15 -5.1834472421510396e-02 0.0000000000000000e+00  -1.4116183966115262e-15 -5.1834472421510604e-02 0.0000000000000000e+00  -1.1611762869035412e-15 -5.1834472421510763e-02 0.0000000000000000e+00  -8.9529277689154083e-16 -5.1834472421510860e-02 0.0000000000000000e+00  -6.0151309671568877e-16 -5.1834472421510992e-02 0.0000000000000000e+00  -3.0779350499159876e-16 -5.1834472421511089e-02 0.0000000000000000e+00  4.0378734734038721e-32 -5.1834472421511089e-02 0.0000000000000000e+00  2.5277830520082498e-32 -6.4858058921640732e-02 0.0000000000000000e+00  -3.1986943931322372e-16 -6.4858058921640802e-02 0.0000000000000000e+00  -6.4951849965591428e-16 -6.4858058921640704e-02 0.0000000000000000e+00  -9.6523398321027358e-16 -6.4858058921640843e-02 0.0000000000000000e+00  -1.2429871795445675e-15 -6.4858058921640996e-02 0.0000000000000000e+00  -1.5180544539551238e-15 -6.4858058921641093e-02 0.0000000000000000e+00  -1.7609717395886583e-15 -6.4858058921641273e-02 0.0000000000000000e+00  -1.9627433365936389e-15 -6.4858058921641454e-02 0.0000000000000000e+00  -2.1399142625165488e-15 -6.4858058921641759e-02 0.0000000000000000e+00  -2.2543876738641065e-15 -6.4858058921642134e-02 0.0000000000000000e+00  -2.3216614353923456e-15 -6.4858058921642578e-02 0.0000000000000000e+00  -2.3161850197244430e-15 -6.4858058921642980e-02 0.0000000000000000e+00  -2.2237736221661856e-15 -6.4858058921643452e-02 0.0000000000000000e+00  -2.0730447122287019e-15 -6.4858058921643785e-02 0.0000000000000000e+00  -1.8587532242591672e-15 -6.4858058921644077e-02 0.0000000000000000e+00  -1.6069782726735325e-15 -6.4858058921644271e-02 0.0000000000000000e+00  -1.3430424187770204e-15 -6.4858058921644465e-02 0.0000000000000000e+00  -1.0204369043605863e-15 -6.4858058921644632e-02 0.0000000000000000e+00  -6.9294765123064518e-16 -6.4858058921644729e-02 0.0000000000000000e+00  -3.5190553197220664e-16 -6.4858058921644868e-02 0.0000000000000000e+00  -5.9745675874893618e-32 -6.4858058921644909e-02 0.0000000000000000e+00  -2.1622770122341791e-32 -7.7924810914587542e-02 0.0000000000000000e+00  -3.6612345962244771e-16 -7.7924810914587542e-02 0.0000000000000000e+00  -7.0870321773224259e-16 -7.7924810914587542e-02 0.0000000000000000e+00  -1.0473239150272840e-15 -7.7924810914587639e-02 0.0000000000000000e+00  -1.3731935593124897e-15 -7.7924810914587750e-02 0.0000000000000000e+00  -1.6693287320458959e-15 -7.7924810914588027e-02 0.0000000000000000e+00  -1.9462313502213712e-15 -7.7924810914588152e-02 0.0000000000000000e+00  -2.1709711289988752e-15 -7.7924810914588499e-02 0.0000000000000000e+00  -2.3459849345981020e-15 -7.7924810914588777e-02 0.0000000000000000e+00  -2.4681378687099693e-15 -7.7924810914589290e-02 0.0000000000000000e+00  -2.5205468082606281e-15 -7.7924810914589679e-02 0.0000000000000000e+00  -2.5141143311742504e-15 -7.7924810914590456e-02 0.0000000000000000e+00  -2.4259536056678686e-15 -7.7924810914590817e-02 0.0000000000000000e+00  -2.2636127790288546e-15 -7.7924810914591303e-02 0.0000000000000000e+00  -2.0362144173103582e-15 -7.7924810914591636e-02 0.0000000000000000e+00  -1.7669453551688321e-15 -7.7924810914591941e-02 0.0000000000000000e+00  -1.4645400267478299e-15 -7.7924810914592177e-02 0.0000000000000000e+00  -1.1260350670079113e-15 -7.7924810914592413e-02 0.0000000000000000e+00  -7.5731984146068481e-16 -7.7924810914592552e-02 0.0000000000000000e+00  -3.8274885271426149e-16 -7.7924810914592663e-02 0.0000000000000000e+00  2.7857200981315320e-32 -7.7924810914592718e-02 0.0000000000000000e+00  -3.6111186457260672e-32 -9.1043215018798834e-02 0.0000000000000000e+00  -3.8851394819109595e-16 -9.1043215018798876e-02 0.0000000000000000e+00  -7.6645720677914891e-16 -9.1043215018798918e-02 0.0000000000000000e+00  -1.1282307693113965e-15 -9.1043215018798973e-02 0.0000000000000000e+00  -1.4881933064813899e-15 -9.1043215018799195e-02 0.0000000000000000e+00  -1.8100839409051793e-15 -9.1043215018799306e-02 0.0000000000000000e+00  -2.0980036683568350e-15 -9.1043215018799667e-02 0.0000000000000000e+00  -2.3345888857460539e-15 -9.1043215018800000e-02 0.0000000000000000e+00  -2.5157018430544212e-15 -9.1043215018800361e-02 0.0000000000000000e+00  -2.6471079177477900e-15 -9.1043215018800930e-02 0.0000000000000000e+00  -2.6934498227514708e-15 -9.1043215018801540e-02 0.0000000000000000e+00  -2.6604591505067997e-15 -9.1043215018802151e-02 0.0000000000000000e+00  -2.5727786122677596e-15 -9.1043215018802817e-02 0.0000000000000000e+00  -2.3987207412905105e-15 -9.1043215018803400e-02 0.0000000000000000e+00  -2.1783354375266417e-15 -9.1043215018803872e-02 0.0000000000000000e+00  -1.8935402297059390e-15 -9.1043215018804080e-02 0.0000000000000000e+00  -1.5618279575648980e-15 -9.1043215018804469e-02 0.0000000000000000e+00  -1.2086112870713015e-15 -9.1043215018804663e-02 0.0000000000000000e+00  -8.1550596012386472e-16 -9.1043215018804982e-02 0.0000000000000000e+00  -3.9887405288642906e-16 -9.1043215018805010e-02 0.0000000000000000e+00  1.1555579666323411e-31 -9.1043215018805038e-02 0.0000000000000000e+00  8.5246998908296809e-33 -1.0422167832340920e-01 0.0000000000000000e+00  -4.1102224558743850e-16 -1.0422167832340920e-01 0.0000000000000000e+00  -8.1588430991978633e-16 -1.0422167832340912e-01 0.0000000000000000e+00  -1.2025037513809468e-15 -1.0422167832340933e-01 0.0000000000000000e+00  -1.5821507466029803e-15 -1.0422167832340958e-01 0.0000000000000000e+00  -1.9288156902221705e-15 -1.0422167832340980e-01 0.0000000000000000e+00  -2.2182108035182542e-15 -1.0422167832341014e-01 0.0000000000000000e+00  -2.4814198417884956e-15 -1.0422167832341053e-01 0.0000000000000000e+00  -2.6519077695862461e-15 -1.0422167832341109e-01 0.0000000000000000e+00  -2.7603857159685980e-15 -1.0422167832341170e-01 0.0000000000000000e+00  -2.8354995198952299e-15 -1.0422167832341230e-01 0.0000000000000000e+00  -2.7996469478458029e-15 -1.0422167832341316e-01 0.0000000000000000e+00  -2.6886617497615008e-15 -1.0422167832341382e-01 0.0000000000000000e+00  -2.5112521299664706e-15 -1.0422167832341452e-01 0.0000000000000000e+00  -2.2791791706324931e-15 -1.0422167832341496e-01 0.0000000000000000e+00  -1.9986906419868440e-15 -1.0422167832341550e-01 0.0000000000000000e+00  -1.6483079109184352e-15 -1.0422167832341582e-01 0.0000000000000000e+00  -1.2550495920958102e-15 -1.0422167832341610e-01 0.0000000000000000e+00  -8.4761164280636555e-16 -1.0422167832341621e-01 0.0000000000000000e+00  -4.4010001064378011e-16 -1.0422167832341651e-01 0.0000000000000000e+00  7.8475394122749923e-32 -1.0422167832341654e-01 0.0000000000000000e+00  0.0000000000000000e+00 -1.1746851544007858e-01 0.0000000000000000e+00  -4.4108295667130396e-16 -1.1746851544007844e-01 0.0000000000000000e+00  -8.5912428659655346e-16 -1.1746851544007857e-01 0.0000000000000000e+00  -1.2554462607465174e-15 -1.1746851544007868e-01 0.0000000000000000e+00  -1.6561992066619415e-15 -1.1746851544007886e-01 0.0000000000000000e+00  -2.0121974122355718e-15 -1.1746851544007923e-01 0.0000000000000000e+00  -2.3276402752409943e-15 -1.1746851544007947e-01 0.0000000000000000e+00  -2.5842353074827062e-15 -1.1746851544008016e-01 0.0000000000000000e+00  -2.7715176294868513e-15 -1.1746851544008075e-01 0.0000000000000000e+00  -2.8987721021688500e-15 -1.1746851544008131e-01 0.0000000000000000e+00  -2.9506960084227148e-15 -1.1746851544008208e-01 0.0000000000000000e+00  -2.9166833971293845e-15 -1.1746851544008308e-01 0.0000000000000000e+00  -2.7948178679039432e-15 -1.1746851544008384e-01 0.0000000000000000e+00  -2.6079510411765398e-15 -1.1746851544008458e-01 0.0000000000000000e+00  -2.3798472413330916e-15 -1.1746851544008505e-01 0.0000000000000000e+00  -2.0808060249043083e-15 -1.1746851544008553e-01 0.0000000000000000e+00  -1.7220861211231670e-15 -1.1746851544008613e-01 0.0000000000000000e+00  -1.2985640620669284e-15 -1.1746851544008650e-01 0.0000000000000000e+00  -8.7649649396091772e-16 -1.1746851544008668e-01 0.0000000000000000e+00  -4.4526997407708879e-16 -1.1746851544008685e-01 0.0000000000000000e+00  1.3569025165129348e-32 -1.1746851544008687e-01 0.0000000000000000e+00  7.8644207619549756e-33 -1.3079193569563127e-01 0.0000000000000000e+00  -4.6616345503917477e-16 -1.3079193569563161e-01 0.0000000000000000e+00  -9.0976910927921715e-16 -1.3079193569563144e-01 0.0000000000000000e+00  -1.3146948558162056e-15 -1.3079193569563172e-01 0.0000000000000000e+00  -1.7020065569538929e-15 -1.3079193569563180e-01 0.0000000000000000e+00  -2.0747497873555103e-15 -1.3079193569563224e-01 0.0000000000000000e+00  -2.4104124998464810e-15 -1.3079193569563261e-01 0.0000000000000000e+00  -2.6711385803070693e-15 -1.3079193569563319e-01 0.0000000000000000e+00  -2.8667395130830445e-15 -1.3079193569563388e-01 0.0000000000000000e+00  -2.9845312901722803e-15 -1.3079193569563469e-01 0.0000000000000000e+00  -3.0289603662076642e-15 -1.3079193569563563e-01 0.0000000000000000e+00  -3.0019801409167837e-15 -1.3079193569563646e-01 0.0000000000000000e+00  -2.8873764675766633e-15 -1.3079193569563741e-01 0.0000000000000000e+00  -2.6875537253591500e-15 -1.3079193569563827e-01 0.0000000000000000e+00  -2.4357619361732377e-15 -1.3079193569563877e-01 0.0000000000000000e+00  -2.1333741435813392e-15 -1.3079193569563952e-01 0.0000000000000000e+00  -1.7666042282309076e-15 -1.3079193569564007e-01 0.0000000000000000e+00  -1.3635994814654551e-15 -1.3079193569564035e-01 0.0000000000000000e+00  -9.2292828813119513e-16 -1.3079193569564068e-01 0.0000000000000000e+00  -4.7370668204531898e-16 -1.3079193569564077e-01 0.0000000000000000e+00  1.2948439715389190e-31 -1.3079193569564085e-01 0.0000000000000000e+00  2.1666711874356379e-32 -1.4420003048506203e-01 0.0000000000000000e+00  -4.9426692093373788e-16 -1.4420003048506180e-01 0.0000000000000000e+00  -9.2914149527175812e-16 -1.4420003048506214e-01 0.0000000000000000e+00  -1.3742309194958487e-15 -1.4420003048506230e-01 0.0000000000000000e+00  -1.7683453229496638e-15 -1.4420003048506252e-01 0.0000000000000000e+00  -2.1243379253408878e-15 -1.4420003048506289e-01 0.0000000000000000e+00  -2.4610259511826796e-15 -1.4420003048506325e-01 0.0000000000000000e+00  -2.7133449825014984e-15 -1.4420003048506394e-01 0.0000000000000000e+00  -2.9230224233495814e-15 -1.4420003048506477e-01 0.0000000000000000e+00  -3.0480360307054961e-15 -1.4420003048506558e-01 0.0000000000000000e+00  -3.1004144276660286e-15 -1.4420003048506652e-01 0.0000000000000000e+00  -3.0973411419689307e-15 -1.4420003048506763e-01 0.0000000000000000e+00  -2.9714511972275609e-15 -1.4420003048506869e-01 0.0000000000000000e+00  -2.7699302519619464e-15 -1.4420003048506955e-01 0.0000000000000000e+00  -2.4923792806343812e-15 -1.4420003048507016e-01 0.0000000000000000e+00  -2.1627528859473148e-15 -1.4420003048507085e-01 0.0000000000000000e+00  -1.8074310250889410e-15 -1.4420003048507143e-01 0.0000000000000000e+00  -1.4038874243372138e-15 -1.4420003048507199e-01 0.0000000000000000e+00  -9.5906268269073667e-16 -1.4420003048507216e-01 0.0000000000000000e+00  -4.8696934205484719e-16 -1.4420003048507241e-01 0.0000000000000000e+00  7.2222372914521221e-33 -1.4420003048507252e-01 0.0000000000000000e+00  1.2458359327754932e-31 -1.5770076080424744e-01 0.0000000000000000e+00  -4.7812099070329581e-16 -1.5770076080424775e-01 0.0000000000000000e+00  -9.5479273499390583e-16 -1.5770076080424769e-01 0.0000000000000000e+00  -1.4097313396043639e-15 -1.5770076080424797e-01 0.0000000000000000e+00  -1.8381178874341064e-15 -1.5770076080424858e-01 0.0000000000000000e+00  -2.1933206209945877e-15 -1.5770076080424847e-01 0.0000000000000000e+00  -2.5121885949494373e-15 -1.5770076080424941e-01 0.0000000000000000e+00  -2.7769020527014363e-15 -1.5770076080424986e-01 0.0000000000000000e+00  -2.9731807962946412e-15 -1.5770076080425074e-01 0.0000000000000000e+00  -3.1251935148067184e-15 -1.5770076080425169e-01 0.0000000000000000e+00  -3.1997177366027755e-15 -1.5770076080425272e-01 0.0000000000000000e+00  -3.1441946880782716e-15 -1.5770076080425399e-01 0.0000000000000000e+00  -3.0440943580445437e-15 -1.5770076080425505e-01 0.0000000000000000e+00  -2.8208049998819745e-15 -1.5770076080425610e-01 0.0000000000000000e+00  -2.5407338719335559e-15 -1.5770076080425682e-01 0.0000000000000000e+00  -2.2281864572895042e-15 -1.5770076080425743e-01 0.0000000000000000e+00  -1.8456984044478860e-15 -1.5770076080425829e-01 0.0000000000000000e+00  -1.4352645448509405e-15 -1.5770076080425854e-01 0.0000000000000000e+00  -9.8014217132066300e-16 -1.5770076080425899e-01 0.0000000000000000e+00  -4.8533928839041289e-16 -1.5770076080425913e-01 0.0000000000000000e+00  1.4522273871656560e-31 -1.5770076080425932e-01 0.0000000000000000e+00  4.3333423748712807e-32 -1.7130194498147161e-01 0.0000000000000000e+00  -4.8207539166763970e-16 -1.7130194498147153e-01 0.0000000000000000e+00  -9.8116912076673522e-16 -1.7130194498147172e-01 0.0000000000000000e+00  -1.4325219021156495e-15 -1.7130194498147197e-01 0.000