<?xml version="1.0"?>
<VTKFile type="UnstructuredGrid"  version="0.1"  >
<UnstructuredGrid>
<Piece  NumberOfPoints="1091" NumberOfCells="2050">
<Points>
<DataArray  type="Float64"  NumberOfComponents="3"  format="ascii">-0.5 -1 0  -0.4 -1 0  -0.3 -1 0  -0.2 -1 0  -0.09999999999999998 -1 0  0 -1 0  0.09999999999999998 -1 0  0.2 -1 0  0.3 -1 0  0.4 -1 0  0.5 -1 0  -0.5 -0.98 0  -0.4 -0.98 0  -0.3 -0.98 0  -0.2 -0.98 0  -0.09999999999999998 -0.98 0  0 -0.98 0  0.09999999999999998 -0.98 0  0.2 -0.98 0  0.3 -0.98 0  0.4 -0.98 0  0.5 -0.98 0  -0.5 -0.96 0  -0.4 -0.96 0  -0.3 -0.96 0  -0.2 -0.96 0  -0.09999999999999998 -0.96 0  0 -0.96 0  0.09999999999999998 -0.96 0  0.2 -0.96 0  0.3 -0.96 0  0.4 -0.96 0  0.5 -0.96 0  -0.5 -0.9399999999999999 0  -0.4 -0.9399999999999999 0  -0.3 -0.9399999999999999 0  -0.2 -0.9399999999999999 0  -0.09999999999999998 -0.9399999999999999 0  0 -0.9399999999999999 0  0.09999999999999998 -0.9399999999999999 0  0.2 -0.9399999999999999 0  0.3 -0.9399999999999999 0  0.4 -0.9399999999999999 0  0.5 -0.9399999999999999 0  -0.5 -0.92 0  -0.4 -0.92 0  -0.3 -0.92 0  -0.2 -0.92 0  -0.09999999999999998 -0.92 0  0 -0.92 0  0.09999999999999998 -0.92 0  0.2 -0.92 0  0.3 -0.92 0  0.4 -0.92 0  0.5 -0.92 0  -0.5 -0.9 0  -0.4 -0.9 0  -0.3 -0.9 0  -0.2 -0.9 0  -0.09999999999999998 -0.9 0  0 -0.9 0  0.09999999999999998 -0.9 0  0.2 -0.9 0  0.3 -0.9 0  0.4 -0.9 0  0.5 -0.9 0  -0.5 -0.88 0  -0.4 -0.88 0  -0.3 -0.88 0  -0.2 -0.88 0  -0.09999999999999998 -0.88 0  0 -0.88 0  0.09999999999999998 -0.88 0  0.2 -0.88 0  0.3 -0.88 0  0.4 -0.88 0  0.5 -0.88 0  -0.5 -0.86 0  -0.4 -0.86 0  -0.3 -0.86 0  -0.2 -0.86 0  -0.09999999999999998 -0.86 0  0 -0.86 0  0.09999999999999998 -0.86 0  0.2 -0.86 0  0.3 -0.86 0  0.4 -0.86 0  0.5 -0.86 0  -0.5 -0.84 0  -0.4 -0.84 0  -0.3 -0.84 0  -0.2 -0.84 0  -0.09999999999999998 -0.84 0  0 -0.84 0  0.09999999999999998 -0.84 0  0.2 -0.84 0  0.3 -0.84 0  0.4 -0.84 0  0.5 -0.84 0  -0.5 -0.8200000000000001 0  -0.4 -0.8200000000000001 0  -0.3 -0.8200000000000001 0  -0.2 -0.8200000000000001 0  -0.09999999999999998 -0.8200000000000001 0  0 -0.8200000000000001 0  0.09999999999999998 -0.8200000000000001 0  0.2 -0.8200000000000001 0  0.3 -0.8200000000000001 0  0.4 -0.8200000000000001 0  0.5 -0.8200000000000001 0  -0.5 -0.8 0  -0.4 -0.8 0  -0.3 -0.8 0  -0.2 -0.8 0  -0.09999999999999998 -0.8 0  0 -0.8 0  0.09999999999999998 -0.8 0  0.2 -0.8 0  0.3 -0.8 0  0.4 -0.8 0  0.5 -0.8 0  -0.5 -0.78 0  -0.4 -0.78 0  -0.3 -0.78 0  -0.2 -0.78 0  -0.09999999999999998 -0.78 0  0 -0.78 0  0.09999999999999998 -0.78 0  0.2 -0.78 0  0.3 -0.78 0  0.4 -0.78 0  0.5 -0.78 0  -0.5 -0.76 0  -0.4 -0.76 0  -0.3 -0.76 0  -0.2 -0.76 0  -0.09999999999999998 -0.76 0  0 -0.76 0  0.09999999999999998 -0.76 0  0.2 -0.76 0  0.3 -0.76 0  0.4 -0.76 0  0.5 -0.76 0  -0.5 -0.74 0  -0.4 -0.74 0  -0.3 -0.74 0  -0.2 -0.74 0  -0.09999999999999998 -0.74 0  0 -0.74 0  0.09999999999999998 -0.74 0  0.2 -0.74 0  0.3 -0.74 0  0.4 -0.74 0  0.5 -0.74 0  -0.5 -0.72 0  -0.4 -0.72 0  -0.3 -0.72 0  -0.2 -0.72 0  -0.09999999999999998 -0.72 0  0 -0.72 0  0.09999999999999998 -0.72 0  0.2 -0.72 0  0.3 -0.72 0  0.4 -0.72 0  0.5 -0.72 0  -0.5 -0.7 0  -0.4 -0.7 0  -0.3 -0.7 0  -0.2 -0.7 0  -0.09999999999999998 -0.7 0  0 -0.7 0  0.09999999999999998 -0.7 0  0.2 -0.7 0  0.3 -0.7 0  0.4 -0.7 0  0.5 -0.7 0  -0.5 -0.6799999999999999 0  -0.4 -0.6799999999999999 0  -0.3 -0.6799999999999999 0  -0.2 -0.6799999999999999 0  -0.09999999999999998 -0.6799999999999999 0  0 -0.6799999999999999 0  0.09999999999999998 -0.6799999999999999 0  0.2 -0.6799999999999999 0  0.3 -0.6799999999999999 0  0.4 -0.6799999999999999 0  0.5 -0.6799999999999999 0  -0.5 -0.6599999999999999 0  -0.4 -0.6599999999999999 0  -0.3 -0.6599999999999999 0  -0.2 -0.6599999999999999 0  -0.09999999999999998 -0.6599999999999999 0  0 -0.6599999999999999 0  0.09999999999999998 -0.6599999999999999 0  0.2 -0.6599999999999999 0  0.3 -0.6599999999999999 0  0.4 -0.6599999999999999 0  0.5 -0.6599999999999999 0  -0.5 -0.64 0  -0.4 -0.64 0  -0.3 -0.64 0  -0.2 -0.64 0  -0.09999999999999998 -0.64 0  0 -0.64 0  0.09999999999999998 -0.64 0  0.2 -0.64 0  0.3 -0.64 0  0.4 -0.64 0  0.5 -0.64 0  -0.5 -0.62 0  -0.4 -0.62 0  -0.3 -0.62 0  -0.2 -0.62 0  -0.09999999999999998 -0.62 0  0 -0.62 0  0.09999999999999998 -0.62 0  0.2 -0.62 0  0.3 -0.62 0  0.4 -0.62 0  0.5 -0.62 0  -0.5 -0.6 0  -0.4 -0.6 0  -0.3 -0.6 0  -0.2 -0.6 0  -0.09999999999999998 -0.6 0  0 -0.6 0  0.09999999999999998 -0.6 0  0.2 -0.6 0  0.3 -0.6 0  0.4 -0.6 0  0.5 -0.6 0  -0.5 -0.5800000000000001 0  -0.4 -0.5800000000000001 0  -0.3 -0.5800000000000001 0  -0.2 -0.5800000000000001 0  -0.09999999999999998 -0.5800000000000001 0  0 -0.5800000000000001 0  0.09999999999999998 -0.5800000000000001 0  0.2 -0.5800000000000001 0  0.3 -0.5800000000000001 0  0.4 -0.5800000000000001 0  0.5 -0.5800000000000001 0  -0.5 -0.5600000000000001 0  -0.4 -0.5600000000000001 0  -0.3 -0.5600000000000001 0  -0.2 -0.5600000000000001 0  -0.09999999999999998 -0.5600000000000001 0  0 -0.5600000000000001 0  0.09999999999999998 -0.5600000000000001 0  0.2 -0.5600000000000001 0  0.3 -0.5600000000000001 0  0.4 -0.5600000000000001 0  0.5 -0.5600000000000001 0  -0.5 -0.54 0  -0.4 -0.54 0  -0.3 -0.54 0  -0.2 -0.54 0  -0.09999999999999998 -0.54 0  0 -0.54 0  0.09999999999999998 -0.54 0  0.2 -0.54 0  0.3 -0.54 0  0.4 -0.54 0  0.5 -0.54 0  -0.5 -0.52 0  -0.4 -0.52 0  -0.3 -0.52 0  -0.2 -0.52 0  -0.09999999999999998 -0.52 0  0 -0.52 0  0.09999999999999998 -0.52 0  0.2 -0.52 0  0.3 -0.52 0  0.4 -0.52 0  0.5 -0.52 0  -0.5 -0.5 0  -0.4 -0.5 0  -0.3 -0.5 0  -0.2 -0.5 0  -0.09999999999999998 -0.5 0  0 -0.5 0  0.09999999999999998 -0.5 0  0.2 -0.5 0  0.3 -0.5 0  0.4 -0.5 0  0.5 -0.5 0  -0.5 -0.48 0  -0.4 -0.48 0  -0.3 -0.48 0  -0.2 -0.48 0  -0.09999999999999998 -0.48 0  0 -0.48 0  0.09999999999999998 -0.48 0  0.2 -0.48 0  0.3 -0.48 0  0.4 -0.48 0  0.5 -0.48 0  -0.5 -0.46 0  -0.4 -0.46 0  -0.3 -0.46 0  -0.2 -0.46 0  -0.09999999999999998 -0.46 0  0 -0.46 0  0.09999999999999998 -0.46 0  0.2 -0.46 0  0.3 -0.46 0  0.4 -0.46 0  0.5 -0.46 0  -0.5 -0.4399999999999999 0  -0.4 -0.4399999999999999 0  -0.3 -0.4399999999999999 0  -0.2 -0.4399999999999999 0  -0.09999999999999998 -0.4399999999999999 0  0 -0.4399999999999999 0  0.09999999999999998 -0.4399999999999999 0  0.2 -0.4399999999999999 0  0.3 -0.4399999999999999 0  0.4 -0.4399999999999999 0  0.5 -0.4399999999999999 0  -0.5 -0.42 0  -0.4 -0.42 0  -0.3 -0.42 0  -0.2 -0.42 0  -0.09999999999999998 -0.42 0  0 -0.42 0  0.09999999999999998 -0.42 0  0.2 -0.42 0  0.3 -0.42 0  0.4 -0.42 0  0.5 -0.42 0  -0.5 -0.4 0  -0.4 -0.4 0  -0.3 -0.4 0  -0.2 -0.4 0  -0.09999999999999998 -0.4 0  0 -0.4 0  0.09999999999999998 -0.4 0  0.2 -0.4 0  0.3 -0.4 0  0.4 -0.4 0  0.5 -0.4 0  -0.5 -0.38 0  -0.4 -0.38 0  -0.3 -0.38 0  -0.2 -0.38 0  -0.09999999999999998 -0.38 0  0 -0.38 0  0.09999999999999998 -0.38 0  0.2 -0.38 0  0.3 -0.38 0  0.4 -0.38 0  0.5 -0.38 0  -0.5 -0.36 0  -0.4 -0.36 0  -0.3 -0.36 0  -0.2 -0.36 0  -0.09999999999999998 -0.36 0  0 -0.36 0  0.09999999999999998 -0.36 0  0.2 -0.36 0  0.3 -0.36 0  0.4 -0.36 0  0.5 -0.36 0  -0.5 -0.34 0  -0.4 -0.34 0  -0.3 -0.34 0  -0.2 -0.34 0  -0.09999999999999998 -0.34 0  0 -0.34 0  0.09999999999999998 -0.34 0  0.2 -0.34 0  0.3 -0.34 0  0.4 -0.34 0  0.5 -0.34 0  -0.5 -0.32 0  -0.4 -0.32 0  -0.3 -0.32 0  -0.2 -0.32 0  -0.09999999999999998 -0.32 0  0 -0.32 0  0.09999999999999998 -0.32 0  0.2 -0.32 0  0.3 -0.32 0  0.4 -0.32 0  0.5 -0.32 0  -0.5 -0.3 0  -0.4 -0.3 0  -0.3 -0.3 0  -0.2 -0.3 0  -0.09999999999999998 -0.3 0  0 -0.3 0  0.09999999999999998 -0.3 0  0.2 -0.3 0  0.3 -0.3 0  0.4 -0.3 0  0.5 -0.3 0  -0.5 -0.28 0  -0.4 -0.28 0  -0.3 -0.28 0  -0.2 -0.28 0  -0.09999999999999998 -0.28 0  0 -0.28 0  0.09999999999999998 -0.28 0  0.2 -0.28 0  0.3 -0.28 0  0.4 -0.28 0  0.5 -0.28 0  -0.5 -0.26 0  -0.4 -0.26 0  -0.3 -0.26 0  -0.2 -0.26 0  -0.09999999999999998 -0.26 0  0 -0.26 0  0.09999999999999998 -0.26 0  0.2 -0.26 0  0.3 -0.26 0  0.4 -0.26 0  0.5 -0.26 0  -0.5 -0.24 0  -0.4 -0.24 0  -0.3 -0.24 0  -0.2 -0.24 0  -0.09999999999999998 -0.24 0  0 -0.24 0  0.09999999999999998 -0.24 0  0.2 -0.24 0  0.3 -0.24 0  0.4 -0.24 0  0.5 -0.24 0  -0.5 -0.22 0  -0.4 -0.22 0  -0.3 -0.22 0  -0.2 -0.22 0  -0.09999999999999998 -0.22 0  0 -0.22 0  0.09999999999999998 -0.22 0  0.2 -0.22 0  0.3 -0.22 0  0.4 -0.22 0  0.5 -0.22 0  -0.5 -0.2 0  -0.4 -0.2 0  -0.3 -0.2 0  -0.2 -0.2 0  -0.09999999999999998 -0.2 0  0 -0.2 0  0.09999999999999998 -0.2 0  0.2 -0.2 0  0.3 -0.2 0  0.4 -0.2 0  0.5 -0.2 0  -0.5 -0.18 0  -0.4 -0.18 0  -0.3 -0.18 0  -0.2 -0.18 0  -0.09999999999999998 -0.18 0  0 -0.18 0  0.09999999999999998 -0.18 0  0.2 -0.18 0  0.3 -0.18 0  0.4 -0.18 0  0.5 -0.18 0  -0.5 -0.16 0  -0.4 -0.16 0  -0.3 -0.16 0  -0.2 -0.16 0  -0.09999999999999998 -0.16 0  0 -0.16 0  0.09999999999999998 -0.16 0  0.2 -0.16 0  0.3 -0.16 0  0.4 -0.16 0  0.5 -0.16 0  -0.5 -0.14 0  -0.4 -0.14 0  -0.3 -0.14 0  -0.2 -0.14 0  -0.09999999999999998 -0.14 0  0 -0.14 0  0.09999999999999998 -0.14 0  0.2 -0.14 0  0.3 -0.14 0  0.4 -0.14 0  0.5 -0.14 0  -0.5 -0.12 0  -0.4 -0.12 0  -0.3 -0.12 0  -0.2 -0.12 0  -0.09999999999999998 -0.12 0  0 -0.12 0  0.09999999999999998 -0.12 0  0.2 -0.12 0  0.3 -0.12 0  0.4 -0.12 0  0.5 -0.12 0  -0.5 -0.09999999999999998 0  -0.4 -0.09999999999999998 0  -0.3 -0.09999999999999998 0  -0.2 -0.09999999999999998 0  -0.09999999999999998 -0.09999999999999998 0  0 -0.09999999999999998 0  0.09999999999999998 -0.09999999999999998 0  0.2 -0.09999999999999998 0  0.3 -0.09999999999999998 0  0.4 -0.09999999999999998 0  0.5 -0.09999999999999998 0  -0.5 -0.07999999999999996 0  -0.4 -0.07999999999999996 0  -0.3 -0.07999999999999996 0  -0.2 -0.07999999999999996 0  -0.09999999999999998 -0.07999999999999996 0  0 -0.07999999999999996 0  0.09999999999999998 -0.07999999999999996 0  0.2 -0.07999999999999996 0  0.3 -0.07999999999999996 0  0.4 -0.07999999999999996 0  0.5 -0.07999999999999996 0  -0.5 -0.06000000000000005 0  -0.4 -0.06000000000000005 0  -0.3 -0.06000000000000005 0  -0.2 -0.06000000000000005 0  -0.09999999
[...]
<PointData  Vectors="displacement"> 
<DataArray  type="Float64"  Name="displacement"  NumberOfComponents="3" format="ascii">-3.9496610187628812e-33 -1.9852334701272645e-19 0.0000000000000000e+00  3.3854237303681846e-33 8.9335506155726893e-20 0.0000000000000000e+00  -8.7236374510398930e-33 -5.9557004103817944e-20 0.0000000000000000e+00  1.1284745767893952e-33 -4.9630836753181624e-20 0.0000000000000000e+00  -1.6815268698066640e-33 -6.9830689243615793e-20 0.0000000000000000e+00  -3.3854237303681846e-33 -1.5881867761018115e-19 0.0000000000000000e+00  2.1698891032210146e-33 -6.7418451097339493e-20 0.0000000000000000e+00  -3.8086016966642074e-33 -2.2830184906463540e-19 0.0000000000000000e+00  8.4593688401844278e-34 1.5757790669135160e-19 0.0000000000000000e+00  5.6423728839469758e-34 -9.9261673506363249e-20 0.0000000000000000e+00  -2.8211864419734866e-34 1.5881867761018112e-19 0.0000000000000000e+00  4.5138983071575806e-33 -9.4172731399571534e-04 0.0000000000000000e+00  -2.7888711535241207e-17 -9.4172731399572770e-04 0.0000000000000000e+00  -3.7753233944257824e-17 -9.4172731399573214e-04 0.0000000000000000e+00  -4.7957332567917818e-17 -9.4172731399573561e-04 0.0000000000000000e+00  -5.2179107123391744e-17 -9.4172731399574949e-04 0.0000000000000000e+00  -4.8710056526269704e-17 -9.4172731399575795e-04 0.0000000000000000e+00  -3.6436466187306927e-17 -9.4172731399576337e-04 0.0000000000000000e+00  -1.4314226019598177e-17 -9.4172731399574884e-04 0.0000000000000000e+00  -1.0520704257099916e-17 -9.4172731399572520e-04 0.0000000000000000e+00  -1.1767739447426367e-17 -9.4172731399572119e-04 0.0000000000000000e+00  7.0403901870467799e-35 -9.4172731399572076e-04 0.0000000000000000e+00  -3.0801756709106943e-35 -1.8839911269891729e-03 0.0000000000000000e+00  -5.0973935718745142e-17 -1.8839911269891976e-03 0.0000000000000000e+00  -7.2588443822484592e-17 -1.8839911269892084e-03 0.0000000000000000e+00  -9.1504435091559435e-17 -1.8839911269892139e-03 0.0000000000000000e+00  -9.8774242879708004e-17 -1.8839911269892457e-03 0.0000000000000000e+00  -9.3021175935631032e-17 -1.8839911269892624e-03 0.0000000000000000e+00  -6.9641308592629985e-17 -1.8839911269892741e-03 0.0000000000000000e+00  -3.0742416367043925e-17 -1.8839911269892459e-03 0.0000000000000000e+00  -2.1788770303784509e-17 -1.8839911269891952e-03 0.0000000000000000e+00  -2.1483640383541862e-17 -1.8839911269891881e-03 0.0000000000000000e+00  3.4257263938249486e-33 -1.8839911269891891e-03 0.0000000000000000e+00  6.7708474607363815e-33 -2.8273274116285938e-03 0.0000000000000000e+00  -7.1217940439250648e-17 -2.8273274116286345e-03 0.0000000000000000e+00  -1.0454747273767588e-16 -2.8273274116286523e-03 0.0000000000000000e+00  -1.3095060629453566e-16 -2.8273274116286614e-03 0.0000000000000000e+00  -1.4131183440473746e-16 -2.8273274116287061e-03 0.0000000000000000e+00  -1.3321240562206786e-16 -2.8273274116287377e-03 0.0000000000000000e+00  -1.0005065372973413e-16 -2.8273274116287560e-03 0.0000000000000000e+00  -4.8717712551253993e-17 -2.8273274116287096e-03 0.0000000000000000e+00  -3.3594135727071620e-17 -2.8273274116286337e-03 0.0000000000000000e+00  -2.9562176307572889e-17 -2.8273274116286224e-03 0.0000000000000000e+00  -5.6423728839469826e-34 -2.8273274116286263e-03 0.0000000000000000e+00  -5.9533099684636928e-33 -3.7722710883549950e-03 0.0000000000000000e+00  -8.8894908865175521e-17 -3.7722710883550440e-03 0.0000000000000000e+00  -1.3393039811198480e-16 -3.7722710883550748e-03 0.0000000000000000e+00  -1.6592465360516673e-16 -3.7722710883550848e-03 0.0000000000000000e+00  -1.8007163557021416e-16 -3.7722710883551498e-03 0.0000000000000000e+00  -1.6925448428533419e-16 -3.7722710883551940e-03 0.0000000000000000e+00  -1.2726174628555843e-16 -3.7722710883552205e-03 0.0000000000000000e+00  -6.7554148179883359e-17 -3.7722710883551585e-03 0.0000000000000000e+00  -4.5465489033790370e-17 -3.7722710883550475e-03 0.0000000000000000e+00  -3.6629394704287565e-17 -3.7722710883550344e-03 0.0000000000000000e+00  2.5909543045971584e-33 -3.7722710883550431e-03 0.0000000000000000e+00  2.2569491535787903e-33 -4.7193555005279443e-03 0.0000000000000000e+00  -1.0512363325774094e-16 -4.7193555005280103e-03 0.0000000000000000e+00  -1.6025400587428829e-16 -4.7193555005280441e-03 0.0000000000000000e+00  -1.9887926640557971e-16 -4.7193555005280588e-03 0.0000000000000000e+00  -2.1460333040699614e-16 -4.7193555005281447e-03 0.0000000000000000e+00  -2.0198474105901839e-16 -4.7193555005281993e-03 0.0000000000000000e+00  -1.5327337418257896e-16 -4.7193555005282418e-03 0.0000000000000000e+00  -8.6281943367461442e-17 -4.7193555005281534e-03 0.0000000000000000e+00  -5.6582458845088222e-17 -4.7193555005280163e-03 0.0000000000000000e+00  -4.2959747821331602e-17 -4.7193555005279964e-03 0.0000000000000000e+00  -4.6760721142570079e-33 -4.7193555005280016e-03 0.0000000000000000e+00  -1.7890811658575626e-32 -5.6691118910258374e-03 0.0000000000000000e+00  -1.1899294965306679e-16 -5.6691118910259216e-03 0.0000000000000000e+00  -1.8449562787643009e-16 -5.6691118910259606e-03 0.0000000000000000e+00  -2.2792265006891107e-16 -5.6691118910259788e-03 0.0000000000000000e+00  -2.4719962051841234e-16 -5.6691118910260864e-03 0.0000000000000000e+00  -2.3135373276865419e-16 -5.6691118910261540e-03 0.0000000000000000e+00  -1.7768304262773944e-16 -5.6691118910262017e-03 0.0000000000000000e+00  -1.0266444970493219e-16 -5.6691118910260976e-03 0.0000000000000000e+00  -6.3577605153934104e-17 -5.6691118910259259e-03 0.0000000000000000e+00  -4.8078535383961555e-17 -5.6691118910259112e-03 0.0000000000000000e+00  2.1360411632084975e-33 -5.6691118910259172e-03 0.0000000000000000e+00  -2.2569491535787903e-33 -6.6220688808111558e-03 0.0000000000000000e+00  -1.3183584831002782e-16 -6.6220688808112486e-03 0.0000000000000000e+00  -2.0575289778708725e-16 -6.6220688808112972e-03 0.0000000000000000e+00  -2.5385192462278296e-16 -6.6220688808113267e-03 0.0000000000000000e+00  -2.7706846594703621e-16 -6.6220688808114551e-03 0.0000000000000000e+00  -2.5890511143307075e-16 -6.6220688808115383e-03 0.0000000000000000e+00  -1.9978486826715988e-16 -6.6220688808116008e-03 0.0000000000000000e+00  -1.1700316991353005e-16 -6.6220688808114690e-03 0.0000000000000000e+00  -7.1977930409290069e-17 -6.6220688808112755e-03 0.0000000000000000e+00  -5.3465092494687538e-17 -6.6220688808112417e-03 0.0000000000000000e+00  1.6927118651840926e-33 -6.6220688808112521e-03 0.0000000000000000e+00  3.1967624590611315e-32 -7.5787519499500265e-03 0.0000000000000000e+00  -1.4362489655011208e-16 -7.5787519499501488e-03 0.0000000000000000e+00  -2.2426580211859474e-16 -7.5787519499502009e-03 0.0000000000000000e+00  -2.7856602997459492e-16 -7.5787519499502347e-03 0.0000000000000000e+00  -3.0431796663456437e-16 -7.5787519499503830e-03 0.0000000000000000e+00  -2.8388965004529746e-16 -7.5787519499504819e-03 0.0000000000000000e+00  -2.1912689719796815e-16 -7.5787519499505452e-03 0.0000000000000000e+00  -1.3002581012159266e-16 -7.5787519499504030e-03 0.0000000000000000e+00  -8.0396213368867808e-17 -7.5787519499501679e-03 0.0000000000000000e+00  -5.8963667051643281e-17 -7.5787519499501349e-03 0.0000000000000000e+00  4.7661274435933386e-33 -7.5787519499501549e-03 0.0000000000000000e+00  -2.2569491535788000e-32 -8.5396829215743288e-03 0.0000000000000000e+00  -1.5477296688324146e-16 -8.5396829215744468e-03 0.0000000000000000e+00  -2.4148903321381566e-16 -8.5396829215745127e-03 0.0000000000000000e+00  -3.0046220603828063e-16 -8.5396829215745474e-03 0.0000000000000000e+00  -3.2973808369338958e-16 -8.5396829215747243e-03 0.0000000000000000e+00  -3.0683960565912651e-16 -8.5396829215748440e-03 0.0000000000000000e+00  -2.3437730435723699e-16 -8.5396829215749048e-03 0.0000000000000000e+00  -1.4352767713350598e-16 -8.5396829215747486e-03 0.0000000000000000e+00  -8.9307182601175176e-17 -8.5396829215744780e-03 0.0000000000000000e+00  -6.3346250213585957e-17 -8.5396829215744399e-03 0.0000000000000000e+00  -3.5312079101005489e-33 -8.5396829215744728e-03 0.0000000000000000e+00  4.5371517127628823e-33 -9.5053794492728719e-03 0.0000000000000000e+00  -1.6454014339595381e-16 -9.5053794492730177e-03 0.0000000000000000e+00  -2.5637980018244383e-16 -9.5053794492730853e-03 0.0000000000000000e+00  -3.1898655149755092e-16 -9.5053794492731217e-03 0.0000000000000000e+00  -3.5215530910260381e-16 -9.5053794492733351e-03 0.0000000000000000e+00  -3.2903591617412732e-16 -9.5053794492734687e-03 0.0000000000000000e+00  -2.4920641558381620e-16 -9.5053794492735363e-03 0.0000000000000000e+00  -1.5374809378464636e-16 -9.5053794492733386e-03 0.0000000000000000e+00  -9.7500285781084935e-17 -9.5053794492730541e-03 0.0000000000000000e+00  -6.6697019321465518e-17 -9.5053794492730020e-03 0.0000000000000000e+00  6.2872154992552007e-33 -9.5053794492730333e-03 0.0000000000000000e+00  -1.3541694921472741e-32 -1.0476354508396747e-02 0.0000000000000000e+00  -1.7353938552513834e-16 -1.0476354508396905e-02 0.0000000000000000e+00  -2.7034963880162208e-16 -1.0476354508396986e-02 0.0000000000000000e+00  -3.3432495581662632e-16 -1.0476354508397031e-02 0.0000000000000000e+00  -3.7170009038799950e-16 -1.0476354508397262e-02 0.0000000000000000e+00  -3.4909166921388799e-16 -1.0476354508397423e-02 0.0000000000000000e+00  -2.6408815756338330e-16 -1.0476354508397488e-02 0.0000000000000000e+00  -1.6246819365407300e-16 -1.0476354508397272e-02 0.0000000000000000e+00  -1.0390899011026909e-16 -1.0476354508396957e-02 0.0000000000000000e+00  -6.9646781414643217e-17 -1.0476354508396891e-02 0.0000000000000000e+00  6.7708474607363706e-33 -1.0476354508396924e-02 0.0000000000000000e+00  4.5111606874285874e-33 -1.1453115891761340e-02 0.0000000000000000e+00  -1.7957530752512155e-16 -1.1453115891761519e-02 0.0000000000000000e+00  -2.8099332536861513e-16 -1.1453115891761626e-02 0.0000000000000000e+00  -3.4811984940605854e-16 -1.1453115891761664e-02 0.0000000000000000e+00  -3.8711420659358750e-16 -1.1453115891761919e-02 0.0000000000000000e+00  -3.6785818228802347e-16 -1.1453115891762098e-02 0.0000000000000000e+00  -2.7792793361338792e-16 -1.1453115891762180e-02 0.0000000000000000e+00  -1.6909483108186610e-16 -1.1453115891761909e-02 0.0000000000000000e+00  -1.0908427481896612e-16 -1.1453115891761567e-02 0.0000000000000000e+00  -7.3055077704455549e-17 -1.1453115891761508e-02 0.0000000000000000e+00  1.4916766026011039e-33 -1.1453115891761545e-02 0.0000000000000000e+00  -3.3854237303681853e-32 -1.2436165710225716e-02 0.0000000000000000e+00  -1.8286427238341811e-16 -1.2436165710225896e-02 0.0000000000000000e+00  -2.9072232012125719e-16 -1.2436165710226014e-02 0.0000000000000000e+00  -3.5904260773413090e-16 -1.2436165710226058e-02 0.0000000000000000e+00  -4.0003244467507230e-16 -1.2436165710226332e-02 0.0000000000000000e+00  -3.8596668413558342e-16 -1.2436165710226543e-02 0.0000000000000000e+00  -2.9100829124105681e-16 -1.2436165710226609e-02 0.0000000000000000e+00  -1.7448746802916502e-16 -1.2436165710226314e-02 0.0000000000000000e+00  -1.1415261269532121e-16 -1.2436165710225962e-02 0.0000000000000000e+00  -7.6016825861427917e-17 -1.2436165710225863e-02 0.0000000000000000e+00  1.0713815713687602e-32 -1.2436165710225927e-02 0.0000000000000000e+00  8.9505205280706577e-33 -1.3425999898626705e-02 0.0000000000000000e+00  -1.8372061061150606e-16 -1.3425999898626908e-02 0.0000000000000000e+00  -2.9790115679979119e-16 -1.3425999898627044e-02 0.0000000000000000e+00  -3.6653107575292673e-16 -1.3425999898627092e-02 0.0000000000000000e+00  -4.1201256838401606e-16 -1.3425999898627396e-02 0.0000000000000000e+00  -3.9922491511590295e-16 -1.3425999898627602e-02 0.0000000000000000e+00  -3.0068414551755215e-16 -1.3425999898627708e-02 0.0000000000000000e+00  -1.8090520134466508e-16 -1.3425999898627363e-02 0.0000000000000000e+00  -1.1528750953988561e-16 -1.3425999898626955e-02 0.0000000000000000e+00  -7.8857426580118526e-17 -1.3425999898626891e-02 0.0000000000000000e+00  -3.2242130765411291e-33 -1.3425999898626934e-02 0.0000000000000000e+00  0.0000000000000000e+00 -1.4423107727542857e-02 0.0000000000000000e+00  -1.8557588005511954e-16 -1.4423107727543077e-02 0.0000000000000000e+00  -3.0324528259773465e-16 -1.4423107727543204e-02 0.0000000000000000e+00  -3.7285126083291746e-16 -1.4423107727543299e-02 0.0000000000000000e+00  -4.2108192229608777e-16 -1.4423107727543589e-02 0.0000000000000000e+00  -4.0864738853159924e-16 -1.4423107727543837e-02 0.0000000000000000e+00  -3.1061270939332537e-16 -1.4423107727543944e-02 0.0000000000000000e+00  -1.8769779989602715e-16 -1.4423107727543561e-02 0.0000000000000000e+00  -1.1947538171449635e-16 -1.4423107727543122e-02 0.0000000000000000e+00  -8.0336739001949993e-17 -1.4423107727543032e-02 0.0000000000000000e+00  1.3541694921472741e-32 -1.4423107727543096e-02 0.0000000000000000e+00  -1.4991560731433675e-32 -1.5427971321358917e-02 0.0000000000000000e+00  -1.8909536166052706e-16 -1.5427971321359138e-02 0.0000000000000000e+00  -3.0495383335891600e-16 -1.5427971321359278e-02 0.0000000000000000e+00  -3.7684025595698805e-16 -1.5427971321359386e-02 0.0000000000000000e+00  -4.2686000439218952e-16 -1.5427971321359714e-02 0.0000000000000000e+00  -4.1688204186023238e-16 -1.5427971321359960e-02 0.0000000000000000e+00  -3.2208655521571392e-16 -1.5427971321360073e-02 0.0000000000000000e+00  -1.9730608561818110e-16 -1.5427971321359651e-02 0.0000000000000000e+00  -1.2534707950911975e-16 -1.5427971321359176e-02 0.0000000000000000e+00  -7.8957609885704906e-17 -1.5427971321359099e-02 0.0000000000000000e+00  -2.3953175131358747e-33 -1.5427971321359158e-02 0.0000000000000000e+00  -3.6111186457260798e-32 -1.6441065183098739e-02 0.0000000000000000e+00  -1.8977396732768243e-16 -1.6441065183099002e-02 0.0000000000000000e+00  -3.0562659958259523e-16 -1.6441065183099138e-02 0.0000000000000000e+00  -3.7507735961228005e-16 -1.6441065183099256e-02 0.0000000000000000e+00  -4.3027018493989566e-16 -1.6441065183099582e-02 0.0000000000000000e+00  -4.2528180139241262e-16 -1.6441065183099877e-02 0.0000000000000000e+00  -3.3346337399183688e-16 -1.6441065183099970e-02 0.0000000000000000e+00  -2.0732624988050785e-16 -1.6441065183099533e-02 0.0000000000000000e+00  -1.3249726699880125e-16 -1.6441065183099009e-02 0.0000000000000000e+00  -7.4658080608869177e-17 -1.6441065183098947e-02 0.0000000000000000e+00  1.9371570337991812e-33 -1.6441065183099006e-02 0.0000000000000000e+00  -1.8153046102699023e-32 -1.7462855726489875e-02 0.0000000000000000e+00  -1.8830152940060210e-16 -1.7462855726490169e-02 0.0000000000000000e+00  -3.0440943581599935e-16 -1.7462855726490326e-02 0.0000000000000000e+00  -3.7294644652652452e-16 -1.7462855726490454e-02 0.0000000000000000e+00  -4.3259933590722154e-16 -1.7462855726490808e-02 0.0000000000000000e+00  -4.2853205236773673e-16 -1.7462855726491092e-02 0.0000000000000000e+00  -3.4134221557664365e-16 -1.7462855726491179e-02 0.0000000000000000e+00  -2.1997992659897731e-16 -1.7462855726490735e-02 0.0000000000000000e+00  -1.3735129229263812e-16 -1.7462855726490169e-02 0.0000000000000000e+00  -7.5067254463552811e-17 -1.7462855726490093e-02 0.0000000000000000e+00  2.4181598074058513e-34 -1.7462855726490135e-02 0.0000000000000000e+00  -1.8055593228630322e-32 -1.8493800815718529e-02 0.0000000000000000e+00  -1.8764382404925722e-16 -1.8493800815718820e-02 0.0000000000000000e+00  -3.0041805335337746e-16 -1.8493800815718994e-02 0.0000000000000000e+00  -3.6979813533880354e-16 -1.8493800815719122e-02 0.0000000000000000e+00  -4.3133539812739090e-16 -1.8493800815719500e-02 0.0000000000000000e+00  -4.3343927004454977e-16 -1.8493800815719792e-02 0.0000000000000000e+00  -3.4877994114078199e-16 -1.8493800815719927e-02 0.0000000000000000e+00  -2.2941115745694595e-16 -1.8493800815719393e-02 0.0000000000000000e+00  -1.4235930783353129e-16 -1.8493800815718820e-02 0.0000000000000000e+00  -7.5935343667342767e-17 -1.8493800815718733e-02 0.0000000000000000e+00  -3.3854237303681853e-33 -1.8493800815718782e-02 0.0000000000000000e+00  -1.8905857569321973e-32 -1.9534349313328491e-02 0.0000000000000000e+00  -1.8664520152217295e-16 -1.9534349313328814e-02 0.0000000000000000e+00  -2.9496316398779249e-16 -1.9534349313328998e-02 0.0000000000000000e+00  -3.6679039012145048e-16 -1.9534349313329133e-02 0.0000000000000000e+00  -4.2845411891218427e-16 -1.9534349313329525e-02 0.0000000000000000e+00  -4.3330026368599470e-16 -1.9534349313329851e-02 0.0000000000000000e+00  -3.5547939355217303e-16 -1.9534349313329966e-02 0.0000000000000000e+00  -2.3777192054217564e-16 -1.9534349313329407e-02 0.0000000000000000e+00  -1.4919351087825516e-16 -1.9534349313328786e-02 0.0000000000000000e+00  -7.7897888879489032e-17 -1.9534349313328737e-02 0.0000000000000000e+00  1.4518366257966304e-32 -1.9534349313328772e-02 0.0000000000000000e+00  -2.0312542382209147e-32 -2.0584940636712991e-02 0.0000000000000000e+00  -1.8526805892163213e-16 -2.0584940636713317e-02 0.0000000000000000e+00  -2.8950827462220944e-16 -2.0584940636713490e-02 0.0000000000000000e+00  -3.6297673377037138e-16 -2.0584940636713626e-02 0.0000000000000000e+00  -4.2323206019025456e-16 -2.0584940636714046e-02 0.0000000000000000e+00  -4.2733784574753820e-16 -2.0584940636714382e-02 0.0000000000000000e+00  -3.5976076365442843e-16 -2.0584940636714497e-02 0.0000000000000000e+00  -2.5135302296576402e-16 -2.0584940636713921e-02 0.0000000000000000e+00  -1.5405553962610049e-16 -2.0584940636713265e-02 0.0000000000000000e+00  -8.0083430269370815e-17 -2.0584940636713192e-02 0.0000000000000000e+00  -1.3673398710909169e-32 -2.0584940636713230e-02 0.0000000000000000e+00  -1.1395070250939887e-32 -2.1646004323640972e-02 0.0000000000000000e+00  -1.8259955367937748e-16 -2.1646004323641343e-02 0.0000000000000000e+00  -2.8349481697625732e-16 -2.1646004323641489e-02 0.0000000000000000e+00  -3.5796078983133529e-16 -2.1646004323641624e-02 0.0000000000000000e+00  -4.1475094672115784e-16 -2.1646004323642092e-02 0.0000000000000000e+00  -4.2279283697964683e-16 -2.1646004323642436e-02 0.0000000000000000e+00  -3.6241752760611154e-16 -2.1646004323642557e-02 0.0000000000000000e+00  -2.5866206597936018e-16 -2.1646004323641926e-02 0.0000000000000000e+00  -1.6363954237722057e-16 -2.1646004323641239e-02 0.0000000000000000e+00  -8.0975983462806862e-17 -2.1646004323641169e-02 0.0000000000000000e+00  2.3697966112577294e-32 -2.1646004323641225e-02 0.0000000000000000e+00  2.2569491535787904e-32 -2.2717959607254905e-02 0.0000000000000000e+00  -1.8337537554853724e-16 -2.2717959607255277e-02 0.0000000000000000e+00  -2.7966286454774093e-16 -2.2717959607255447e-02 0.0000000000000000e+00  -3.4888820081011786e-16 -2.2717959607255565e-02 0.0000000000000000e+00  -4.0137473594520696e-16 -2.2717959607256068e-02 0.0000000000000000e+00  -4.1852522620251549e-16 -2.2717959607256397e-02 0.0000000000000000e+00  -3.6308041931588690e-16 -2.2717959607256519e-02 0.0000000000000000e+00  -2.6190175197052386e-16 -2.2717959607255884e-02 0.0000000000000000e+00  -1.6870243208683900e-16 -2.2717959607255193e-02 0.0000000000000000e+00  -8.7261700693861248e-17 -2.2717959607255107e-02 0.0000000000000000e+00  -1.5798644075051530e-32 -2.2717959607255138e-02 0.0000000000000000e+00  -2.1402949710911393e-32 -2.3801215000968400e-02 0.0000000000000000e+00  -1.8496948374205163e-16 -2.3801215000968764e-02 0.0000000000000000e+00  -2.8190385949290093e-16 -2.3801215000968944e-02 0.0000000000000000e+00  -3.3937899801749245e-16 -2.3801215000969045e-02 0.0000000000000000e+00  -3.8796237536689439e-16 -2.3801215000969565e-02 0.0000000000000000e+00  -4.1314611885798153e-16 -2.3801215000969940e-02 0.0000000000000000e+00  -3.6265719870017922e-16 -2.3801215000970065e-02 0.0000000000000000e+00  -2.6303661164405274e-16 -2.3801215000969388e-02 0.0000000000000000e+00  -1.7554391108917749e-16 -2.3801215000968653e-02 0.0000000000000000e+00  -9.1445022824240243e-17 -2.3801215000968573e-02 0.0000000000000000e+00  9.1466597356034680e-33 -2.3801215000968622e-02 0.0000000000000000e+00  -2.0312542382209112e-32 -2.4896167893685973e-02 0.0000000000000000e+00  -1.8805597476297013e-16 -2.4896167893