<?xml version="1.0"?>
<VTKFile type="UnstructuredGrid"  version="0.1"  >
<UnstructuredGrid>
<Piece  NumberOfPoints="1091" NumberOfCells="2050">
<Points>
<DataArray  type="Float64"  NumberOfComponents="3"  format="ascii">-0.5 -1 0  -0.4 -1 0  -0.3 -1 0  -0.2 -1 0  -0.09999999999999998 -1 0  0 -1 0  0.09999999999999998 -1 0  0.2 -1 0  0.3 -1 0  0.4 -1 0  0.5 -1 0  -0.5 -0.98 0  -0.4 -0.98 0  -0.3 -0.98 0  -0.2 -0.98 0  -0.09999999999999998 -0.98 0  0 -0.98 0  0.09999999999999998 -0.98 0  0.2 -0.98 0  0.3 -0.98 0  0.4 -0.98 0  0.5 -0.98 0  -0.5 -0.96 0  -0.4 -0.96 0  -0.3 -0.96 0  -0.2 -0.96 0  -0.09999999999999998 -0.96 0  0 -0.96 0  0.09999999999999998 -0.96 0  0.2 -0.96 0  0.3 -0.96 0  0.4 -0.96 0  0.5 -0.96 0  -0.5 -0.9399999999999999 0  -0.4 -0.9399999999999999 0  -0.3 -0.9399999999999999 0  -0.2 -0.9399999999999999 0  -0.09999999999999998 -0.9399999999999999 0  0 -0.9399999999999999 0  0.09999999999999998 -0.9399999999999999 0  0.2 -0.9399999999999999 0  0.3 -0.9399999999999999 0  0.4 -0.9399999999999999 0  0.5 -0.9399999999999999 0  -0.5 -0.92 0  -0.4 -0.92 0  -0.3 -0.92 0  -0.2 -0.92 0  -0.09999999999999998 -0.92 0  0 -0.92 0  0.09999999999999998 -0.92 0  0.2 -0.92 0  0.3 -0.92 0  0.4 -0.92 0  0.5 -0.92 0  -0.5 -0.9 0  -0.4 -0.9 0  -0.3 -0.9 0  -0.2 -0.9 0  -0.09999999999999998 -0.9 0  0 -0.9 0  0.09999999999999998 -0.9 0  0.2 -0.9 0  0.3 -0.9 0  0.4 -0.9 0  0.5 -0.9 0  -0.5 -0.88 0  -0.4 -0.88 0  -0.3 -0.88 0  -0.2 -0.88 0  -0.09999999999999998 -0.88 0  0 -0.88 0  0.09999999999999998 -0.88 0  0.2 -0.88 0  0.3 -0.88 0  0.4 -0.88 0  0.5 -0.88 0  -0.5 -0.86 0  -0.4 -0.86 0  -0.3 -0.86 0  -0.2 -0.86 0  -0.09999999999999998 -0.86 0  0 -0.86 0  0.09999999999999998 -0.86 0  0.2 -0.86 0  0.3 -0.86 0  0.4 -0.86 0  0.5 -0.86 0  -0.5 -0.84 0  -0.4 -0.84 0  -0.3 -0.84 0  -0.2 -0.84 0  -0.09999999999999998 -0.84 0  0 -0.84 0  0.09999999999999998 -0.84 0  0.2 -0.84 0  0.3 -0.84 0  0.4 -0.84 0  0.5 -0.84 0  -0.5 -0.8200000000000001 0  -0.4 -0.8200000000000001 0  -0.3 -0.8200000000000001 0  -0.2 -0.8200000000000001 0  -0.09999999999999998 -0.8200000000000001 0  0 -0.8200000000000001 0  0.09999999999999998 -0.8200000000000001 0  0.2 -0.8200000000000001 0  0.3 -0.8200000000000001 0  0.4 -0.8200000000000001 0  0.5 -0.8200000000000001 0  -0.5 -0.8 0  -0.4 -0.8 0  -0.3 -0.8 0  -0.2 -0.8 0  -0.09999999999999998 -0.8 0  0 -0.8 0  0.09999999999999998 -0.8 0  0.2 -0.8 0  0.3 -0.8 0  0.4 -0.8 0  0.5 -0.8 0  -0.5 -0.78 0  -0.4 -0.78 0  -0.3 -0.78 0  -0.2 -0.78 0  -0.09999999999999998 -0.78 0  0 -0.78 0  0.09999999999999998 -0.78 0  0.2 -0.78 0  0.3 -0.78 0  0.4 -0.78 0  0.5 -0.78 0  -0.5 -0.76 0  -0.4 -0.76 0  -0.3 -0.76 0  -0.2 -0.76 0  -0.09999999999999998 -0.76 0  0 -0.76 0  0.09999999999999998 -0.76 0  0.2 -0.76 0  0.3 -0.76 0  0.4 -0.76 0  0.5 -0.76 0  -0.5 -0.74 0  -0.4 -0.74 0  -0.3 -0.74 0  -0.2 -0.74 0  -0.09999999999999998 -0.74 0  0 -0.74 0  0.09999999999999998 -0.74 0  0.2 -0.74 0  0.3 -0.74 0  0.4 -0.74 0  0.5 -0.74 0  -0.5 -0.72 0  -0.4 -0.72 0  -0.3 -0.72 0  -0.2 -0.72 0  -0.09999999999999998 -0.72 0  0 -0.72 0  0.09999999999999998 -0.72 0  0.2 -0.72 0  0.3 -0.72 0  0.4 -0.72 0  0.5 -0.72 0  -0.5 -0.7 0  -0.4 -0.7 0  -0.3 -0.7 0  -0.2 -0.7 0  -0.09999999999999998 -0.7 0  0 -0.7 0  0.09999999999999998 -0.7 0  0.2 -0.7 0  0.3 -0.7 0  0.4 -0.7 0  0.5 -0.7 0  -0.5 -0.6799999999999999 0  -0.4 -0.6799999999999999 0  -0.3 -0.6799999999999999 0  -0.2 -0.6799999999999999 0  -0.09999999999999998 -0.6799999999999999 0  0 -0.6799999999999999 0  0.09999999999999998 -0.6799999999999999 0  0.2 -0.6799999999999999 0  0.3 -0.6799999999999999 0  0.4 -0.6799999999999999 0  0.5 -0.6799999999999999 0  -0.5 -0.6599999999999999 0  -0.4 -0.6599999999999999 0  -0.3 -0.6599999999999999 0  -0.2 -0.6599999999999999 0  -0.09999999999999998 -0.6599999999999999 0  0 -0.6599999999999999 0  0.09999999999999998 -0.6599999999999999 0  0.2 -0.6599999999999999 0  0.3 -0.6599999999999999 0  0.4 -0.6599999999999999 0  0.5 -0.6599999999999999 0  -0.5 -0.64 0  -0.4 -0.64 0  -0.3 -0.64 0  -0.2 -0.64 0  -0.09999999999999998 -0.64 0  0 -0.64 0  0.09999999999999998 -0.64 0  0.2 -0.64 0  0.3 -0.64 0  0.4 -0.64 0  0.5 -0.64 0  -0.5 -0.62 0  -0.4 -0.62 0  -0.3 -0.62 0  -0.2 -0.62 0  -0.09999999999999998 -0.62 0  0 -0.62 0  0.09999999999999998 -0.62 0  0.2 -0.62 0  0.3 -0.62 0  0.4 -0.62 0  0.5 -0.62 0  -0.5 -0.6 0  -0.4 -0.6 0  -0.3 -0.6 0  -0.2 -0.6 0  -0.09999999999999998 -0.6 0  0 -0.6 0  0.09999999999999998 -0.6 0  0.2 -0.6 0  0.3 -0.6 0  0.4 -0.6 0  0.5 -0.6 0  -0.5 -0.5800000000000001 0  -0.4 -0.5800000000000001 0  -0.3 -0.5800000000000001 0  -0.2 -0.5800000000000001 0  -0.09999999999999998 -0.5800000000000001 0  0 -0.5800000000000001 0  0.09999999999999998 -0.5800000000000001 0  0.2 -0.5800000000000001 0  0.3 -0.5800000000000001 0  0.4 -0.5800000000000001 0  0.5 -0.5800000000000001 0  -0.5 -0.5600000000000001 0  -0.4 -0.5600000000000001 0  -0.3 -0.5600000000000001 0  -0.2 -0.5600000000000001 0  -0.09999999999999998 -0.5600000000000001 0  0 -0.5600000000000001 0  0.09999999999999998 -0.5600000000000001 0  0.2 -0.5600000000000001 0  0.3 -0.5600000000000001 0  0.4 -0.5600000000000001 0  0.5 -0.5600000000000001 0  -0.5 -0.54 0  -0.4 -0.54 0  -0.3 -0.54 0  -0.2 -0.54 0  -0.09999999999999998 -0.54 0  0 -0.54 0  0.09999999999999998 -0.54 0  0.2 -0.54 0  0.3 -0.54 0  0.4 -0.54 0  0.5 -0.54 0  -0.5 -0.52 0  -0.4 -0.52 0  -0.3 -0.52 0  -0.2 -0.52 0  -0.09999999999999998 -0.52 0  0 -0.52 0  0.09999999999999998 -0.52 0  0.2 -0.52 0  0.3 -0.52 0  0.4 -0.52 0  0.5 -0.52 0  -0.5 -0.5 0  -0.4 -0.5 0  -0.3 -0.5 0  -0.2 -0.5 0  -0.09999999999999998 -0.5 0  0 -0.5 0  0.09999999999999998 -0.5 0  0.2 -0.5 0  0.3 -0.5 0  0.4 -0.5 0  0.5 -0.5 0  -0.5 -0.48 0  -0.4 -0.48 0  -0.3 -0.48 0  -0.2 -0.48 0  -0.09999999999999998 -0.48 0  0 -0.48 0  0.09999999999999998 -0.48 0  0.2 -0.48 0  0.3 -0.48 0  0.4 -0.48 0  0.5 -0.48 0  -0.5 -0.46 0  -0.4 -0.46 0  -0.3 -0.46 0  -0.2 -0.46 0  -0.09999999999999998 -0.46 0  0 -0.46 0  0.09999999999999998 -0.46 0  0.2 -0.46 0  0.3 -0.46 0  0.4 -0.46 0  0.5 -0.46 0  -0.5 -0.4399999999999999 0  -0.4 -0.4399999999999999 0  -0.3 -0.4399999999999999 0  -0.2 -0.4399999999999999 0  -0.09999999999999998 -0.4399999999999999 0  0 -0.4399999999999999 0  0.09999999999999998 -0.4399999999999999 0  0.2 -0.4399999999999999 0  0.3 -0.4399999999999999 0  0.4 -0.4399999999999999 0  0.5 -0.4399999999999999 0  -0.5 -0.42 0  -0.4 -0.42 0  -0.3 -0.42 0  -0.2 -0.42 0  -0.09999999999999998 -0.42 0  0 -0.42 0  0.09999999999999998 -0.42 0  0.2 -0.42 0  0.3 -0.42 0  0.4 -0.42 0  0.5 -0.42 0  -0.5 -0.4 0  -0.4 -0.4 0  -0.3 -0.4 0  -0.2 -0.4 0  -0.09999999999999998 -0.4 0  0 -0.4 0  0.09999999999999998 -0.4 0  0.2 -0.4 0  0.3 -0.4 0  0.4 -0.4 0  0.5 -0.4 0  -0.5 -0.38 0  -0.4 -0.38 0  -0.3 -0.38 0  -0.2 -0.38 0  -0.09999999999999998 -0.38 0  0 -0.38 0  0.09999999999999998 -0.38 0  0.2 -0.38 0  0.3 -0.38 0  0.4 -0.38 0  0.5 -0.38 0  -0.5 -0.36 0  -0.4 -0.36 0  -0.3 -0.36 0  -0.2 -0.36 0  -0.09999999999999998 -0.36 0  0 -0.36 0  0.09999999999999998 -0.36 0  0.2 -0.36 0  0.3 -0.36 0  0.4 -0.36 0  0.5 -0.36 0  -0.5 -0.34 0  -0.4 -0.34 0  -0.3 -0.34 0  -0.2 -0.34 0  -0.09999999999999998 -0.34 0  0 -0.34 0  0.09999999999999998 -0.34 0  0.2 -0.34 0  0.3 -0.34 0  0.4 -0.34 0  0.5 -0.34 0  -0.5 -0.32 0  -0.4 -0.32 0  -0.3 -0.32 0  -0.2 -0.32 0  -0.09999999999999998 -0.32 0  0 -0.32 0  0.09999999999999998 -0.32 0  0.2 -0.32 0  0.3 -0.32 0  0.4 -0.32 0  0.5 -0.32 0  -0.5 -0.3 0  -0.4 -0.3 0  -0.3 -0.3 0  -0.2 -0.3 0  -0.09999999999999998 -0.3 0  0 -0.3 0  0.09999999999999998 -0.3 0  0.2 -0.3 0  0.3 -0.3 0  0.4 -0.3 0  0.5 -0.3 0  -0.5 -0.28 0  -0.4 -0.28 0  -0.3 -0.28 0  -0.2 -0.28 0  -0.09999999999999998 -0.28 0  0 -0.28 0  0.09999999999999998 -0.28 0  0.2 -0.28 0  0.3 -0.28 0  0.4 -0.28 0  0.5 -0.28 0  -0.5 -0.26 0  -0.4 -0.26 0  -0.3 -0.26 0  -0.2 -0.26 0  -0.09999999999999998 -0.26 0  0 -0.26 0  0.09999999999999998 -0.26 0  0.2 -0.26 0  0.3 -0.26 0  0.4 -0.26 0  0.5 -0.26 0  -0.5 -0.24 0  -0.4 -0.24 0  -0.3 -0.24 0  -0.2 -0.24 0  -0.09999999999999998 -0.24 0  0 -0.24 0  0.09999999999999998 -0.24 0  0.2 -0.24 0  0.3 -0.24 0  0.4 -0.24 0  0.5 -0.24 0  -0.5 -0.22 0  -0.4 -0.22 0  -0.3 -0.22 0  -0.2 -0.22 0  -0.09999999999999998 -0.22 0  0 -0.22 0  0.09999999999999998 -0.22 0  0.2 -0.22 0  0.3 -0.22 0  0.4 -0.22 0  0.5 -0.22 0  -0.5 -0.2 0  -0.4 -0.2 0  -0.3 -0.2 0  -0.2 -0.2 0  -0.09999999999999998 -0.2 0  0 -0.2 0  0.09999999999999998 -0.2 0  0.2 -0.2 0  0.3 -0.2 0  0.4 -0.2 0  0.5 -0.2 0  -0.5 -0.18 0  -0.4 -0.18 0  -0.3 -0.18 0  -0.2 -0.18 0  -0.09999999999999998 -0.18 0  0 -0.18 0  0.09999999999999998 -0.18 0  0.2 -0.18 0  0.3 -0.18 0  0.4 -0.18 0  0.5 -0.18 0  -0.5 -0.16 0  -0.4 -0.16 0  -0.3 -0.16 0  -0.2 -0.16 0  -0.09999999999999998 -0.16 0  0 -0.16 0  0.09999999999999998 -0.16 0  0.2 -0.16 0  0.3 -0.16 0  0.4 -0.16 0  0.5 -0.16 0  -0.5 -0.14 0  -0.4 -0.14 0  -0.3 -0.14 0  -0.2 -0.14 0  -0.09999999999999998 -0.14 0  0 -0.14 0  0.09999999999999998 -0.14 0  0.2 -0.14 0  0.3 -0.14 0  0.4 -0.14 0  0.5 -0.14 0  -0.5 -0.12 0  -0.4 -0.12 0  -0.3 -0.12 0  -0.2 -0.12 0  -0.09999999999999998 -0.12 0  0 -0.12 0  0.09999999999999998 -0.12 0  0.2 -0.12 0  0.3 -0.12 0  0.4 -0.12 0  0.5 -0.12 0  -0.5 -0.09999999999999998 0  -0.4 -0.09999999999999998 0  -0.3 -0.09999999999999998 0  -0.2 -0.09999999999999998 0  -0.09999999999999998 -0.09999999999999998 0  0 -0.09999999999999998 0  0.09999999999999998 -0.09999999999999998 0  0.2 -0.09999999999999998 0  0.3 -0.09999999999999998 0  0.4 -0.09999999999999998 0  0.5 -0.09999999999999998 0  -0.5 -0.07999999999999996 0  -0.4 -0.07999999999999996 0  -0.3 -0.07999999999999996 0  -0.2 -0.07999999999999996 0  -0.09999999999999998 -0.07999999999999996 0  0 -0.07999999999999996 0  0.09999999999999998 -0.07999999999999996 0  0.2 -0.07999999999999996 0  0.3 -0.07999999999999996 0  0.4 -0.07999999999999996 0  0.5 -0.07999999999999996 0  -0.5 -0.06000000000000005 0  -0.4 -0.06000000000000005 0  -0.3 -0.06000000000000005 0  -0.2 -0.06000000000000005 0  -0.09999999
[...]
<PointData  Vectors="displacement"> 
<DataArray  type="Float64"  Name="displacement"  NumberOfComponents="3" format="ascii">-1.6927118651840923e-33 -4.9630836753181612e-20 0.0000000000000000e+00  6.7003177996870320e-34 1.9852334701272643e-20 0.0000000000000000e+00  1.2397791981328802e-33 -3.6951708926392247e-20 0.0000000000000000e+00  -3.9496610187628833e-33 -7.4446255129772431e-21 0.0000000000000000e+00  5.6547152906032997e-33 8.2569826971883434e-23 0.0000000000000000e+00  4.5138983071575792e-33 2.4815418376590804e-21 0.0000000000000000e+00  2.3944268913273031e-33 1.6018546432545436e-20 0.0000000000000000e+00  1.6927118651840923e-33 -7.4446255129772406e-20 0.0000000000000000e+00  1.6849470438714528e-33 1.1166938269465862e-20 0.0000000000000000e+00  -5.6423728839469758e-34 -1.4889251025954486e-20 0.0000000000000000e+00  -1.4105932209867433e-33 1.9852334701272640e-20 0.0000000000000000e+00  1.1284745767893952e-33 -2.7717265353417281e-04 0.0000000000000000e+00  -9.7395605958479514e-18 -2.7717265353417470e-04 0.0000000000000000e+00  2.2623660790566498e-18 -2.7717265353418077e-04 0.0000000000000000e+00  2.5086326804867560e-17 -2.7717265353418300e-04 0.0000000000000000e+00  3.4481665124977055e-17 -2.7717265353417796e-04 0.0000000000000000e+00  4.3207651130326147e-17 -2.7717265353417438e-04 0.0000000000000000e+00  4.5675933904704285e-17 -2.7717265353417335e-04 0.0000000000000000e+00  3.1452123842370778e-17 -2.7717265353416988e-04 0.0000000000000000e+00  2.7288585999521240e-17 -2.7717265353416988e-04 0.0000000000000000e+00  1.6482378649119613e-17 -2.7717265353416158e-04 0.0000000000000000e+00  1.3045593092851332e-33 -2.7717265353416798e-04 0.0000000000000000e+00  8.6494505478886262e-34 -5.5434530706834431e-04 0.0000000000000000e+00  -1.5907261493367071e-17 -5.5434530706834984e-04 0.0000000000000000e+00  5.5417070475312230e-18 -5.5434530706836296e-04 0.0000000000000000e+00  4.6935864697990799e-17 -5.5434530706837000e-04 0.0000000000000000e+00  6.7030279231664455e-17 -5.5434530706835905e-04 0.0000000000000000e+00  8.3512329312792019e-17 -5.5434530706835027e-04 0.0000000000000000e+00  8.6779307041514846e-17 -5.5434530706834637e-04 0.0000000000000000e+00  6.0894247869598000e-17 -5.5434530706833986e-04 0.0000000000000000e+00  5.1106297640526561e-17 -5.5434530706834008e-04 0.0000000000000000e+00  3.1337305141933135e-17 -5.5434530706832143e-04 0.0000000000000000e+00  -3.0226997592573082e-33 -5.5434530706833488e-04 0.0000000000000000e+00  -1.6927118651840954e-33 -8.3151796060251207e-04 0.0000000000000000e+00  -2.0206133037839886e-17 -8.3151796060252584e-04 0.0000000000000000e+00  9.2224798318976752e-18 -8.3151796060254568e-04 0.0000000000000000e+00  6.6814079348272456e-17 -8.3151796060256086e-04 0.0000000000000000e+00  9.7150582375486655e-17 -8.3151796060253972e-04 0.0000000000000000e+00  1.2186500825156914e-16 -8.3151796060252931e-04 0.0000000000000000e+00  1.2426504066964312e-16 -8.3151796060252151e-04 0.0000000000000000e+00  8.6897720892109087e-17 -8.3151796060251034e-04 0.0000000000000000e+00  7.2776206901814555e-17 -8.3151796060250839e-04 0.0000000000000000e+00  4.4906209924081281e-17 -8.3151796060247998e-04 0.0000000000000000e+00  2.8211864419734914e-33 -8.3151796060249982e-04 0.0000000000000000e+00  3.5928732092925174e-33 -1.1086906141366817e-03 0.0000000000000000e+00  -2.3237906168925015e-17 -1.1086906141366990e-03 0.0000000000000000e+00  1.2972518809070471e-17 -1.1086906141367250e-03 0.0000000000000000e+00  8.4071111490031404e-17 -1.1086906141367517e-03 0.0000000000000000e+00  1.2621811557778537e-16 -1.1086906141367203e-03 0.0000000000000000e+00  1.5632389614850977e-16 -1.1086906141367092e-03 0.0000000000000000e+00  1.5908774296551794e-16 -1.1086906141366997e-03 0.0000000000000000e+00  1.1086896327946638e-16 -1.1086906141366819e-03 0.0000000000000000e+00  9.2523634031133420e-17 -1.1086906141366721e-03 0.0000000000000000e+00  5.7290376811387412e-17 -1.1086906141366366e-03 0.0000000000000000e+00  -2.7495452474104167e-33 -1.1086906141366637e-03 0.0000000000000000e+00  0.0000000000000000e+00 -1.3858632676708529e-03 0.0000000000000000e+00  -2.5162620096208593e-17 -1.3858632676708763e-03 0.0000000000000000e+00  1.6414560377534516e-17 -1.3858632676709091e-03 0.0000000000000000e+00  9.9411415483978813e-17 -1.3858632676709414e-03 0.0000000000000000e+00  1.5380127089304867e-16 -1.3858632676709039e-03 0.0000000000000000e+00  1.8708981640032611e-16 -1.3858632676708958e-03 0.0000000000000000e+00  1.9037023386179373e-16 -1.3858632676708861e-03 0.0000000000000000e+00  1.3418684829906028e-16 -1.3858632676708607e-03 0.0000000000000000e+00  1.1201453682025260e-16 -1.3858632676708308e-03 0.0000000000000000e+00  6.7825563862245743e-17 -1.3858632676707911e-03 0.0000000000000000e+00  -8.9022987614089079e-33 -1.3858632676708260e-03 0.0000000000000000e+00  1.6995777639363717e-33 -1.6630359212050274e-03 0.0000000000000000e+00  -2.5766576740782710e-17 -1.6630359212050510e-03 0.0000000000000000e+00  1.8751571977950952e-17 -1.6630359212050914e-03 0.0000000000000000e+00  1.1357555812882782e-16 -1.6630359212051321e-03 0.0000000000000000e+00  1.7819859619582801e-16 -1.6630359212050862e-03 0.0000000000000000e+00  2.1546977432594697e-16 -1.6630359212050797e-03 0.0000000000000000e+00  2.1829535918492203e-16 -1.6630359212050727e-03 0.0000000000000000e+00  1.5743081960313909e-16 -1.6630359212050411e-03 0.0000000000000000e+00  1.3200133924308047e-16 -1.6630359212049908e-03 0.0000000000000000e+00  7.6313464831008978e-17 -1.6630359212049459e-03 0.0000000000000000e+00  2.9017917688870157e-33 -1.6630359212049819e-03 0.0000000000000000e+00  -5.9244915281443243e-33 -1.9402085747391980e-03 0.0000000000000000e+00  -2.6185119891581451e-17 -1.9402085747392186e-03 0.0000000000000000e+00  1.9638356178370074e-17 -1.9402085747392756e-03 0.0000000000000000e+00  1.2647693178434647e-16 -1.9402085747393272e-03 0.0000000000000000e+00  1.9993499985685913e-16 -1.9402085747392702e-03 0.0000000000000000e+00  2.4151578747184969e-16 -1.9402085747392609e-03 0.0000000000000000e+00  2.4356293692923579e-16 -1.9402085747392507e-03 0.0000000000000000e+00  1.7993155130971316e-16 -1.9402085747392212e-03 0.0000000000000000e+00  1.5147296445651904e-16 -1.9402085747391475e-03 0.0000000000000000e+00  8.1979067935569843e-17 -1.9402085747390954e-03 0.0000000000000000e+00  -9.0277966143151599e-33 -1.9402085747391370e-03 0.0000000000000000e+00  1.3319843579421382e-33 -2.2173812282733603e-03 0.0000000000000000e+00  -2.8787724619246237e-17 -2.2173812282733894e-03 0.0000000000000000e+00  1.8819784080271023e-17 -2.2173812282734666e-03 0.0000000000000000e+00  1.3857706891972918e-16 -2.2173812282735221e-03 0.0000000000000000e+00  2.1970897380710055e-16 -2.2173812282734553e-03 0.0000000000000000e+00  2.6515076927671670e-16 -2.2173812282734440e-03 0.0000000000000000e+00  2.6798807084457050e-16 -2.2173812282734362e-03 0.0000000000000000e+00  2.0002934162616861e-16 -2.2173812282733959e-03 0.0000000000000000e+00  1.7089873186379739e-16 -2.2173812282733018e-03 0.0000000000000000e+00  8.6865459782319970e-17 -2.2173812282732476e-03 0.0000000000000000e+00  -1.0690293455058423e-32 -2.2173812282732892e-03 0.0000000000000000e+00  -7.3350847491311001e-33 -2.4945538818075259e-03 0.0000000000000000e+00  -3.4729512270652257e-17 -2.4945538818075541e-03 0.0000000000000000e+00  1.5998791371011281e-17 -2.4945538818076586e-03 0.0000000000000000e+00  1.4988440338822063e-16 -2.4945538818077172e-03 0.0000000000000000e+00  2.3851836366220765e-16 -2.4945538818076482e-03 0.0000000000000000e+00  2.8536981387352844e-16 -2.4945538818076274e-03 0.0000000000000000e+00  2.9007372047107970e-16 -2.4945538818076408e-03 0.0000000000000000e+00  2.2032298945796936e-16 -2.4945538818075806e-03 0.0000000000000000e+00  1.8919984410843002e-16 -2.4945538818074548e-03 0.0000000000000000e+00  9.1201632561970802e-17 -2.4945538818074006e-03 0.0000000000000000e+00  -8.3223323796976232e-33 -2.4945538818074435e-03 0.0000000000000000e+00  1.1026779547518306e-33 -2.7717265353416972e-03 0.0000000000000000e+00  -4.2997536343782079e-17 -2.7717265353417336e-03 0.0000000000000000e+00  1.0011717677077793e-17 -2.7717265353418589e-03 0.0000000000000000e+00  1.5979919120293350e-16 -2.7717265353419192e-03 0.0000000000000000e+00  2.5783135372646763e-16 -2.7717265353418442e-03 0.0000000000000000e+00  3.0122041762250139e-16 -2.7717265353418095e-03 0.0000000000000000e+00  3.0599235907861203e-16 -2.7717265353418468e-03 0.0000000000000000e+00  2.4535810259400649e-16 -2.7717265353417683e-03 0.0000000000000000e+00  2.0903906953415033e-16 -2.7717265353416113e-03 0.0000000000000000e+00  9.2907032695478864e-17 -2.7717265353415605e-03 0.0000000000000000e+00  1.1284745767893949e-32 -2.7717265353416004e-03 0.0000000000000000e+00  -1.6927118651840926e-33 -3.0488991888758714e-03 0.0000000000000000e+00  -5.4031664872470147e-17 -3.0488991888759187e-03 0.0000000000000000e+00  1.3969838619178383e-18 -3.0488991888760739e-03 0.0000000000000000e+00  1.7021587573349139e-16 -3.0488991888761143e-03 0.0000000000000000e+00  2.7649678356306693e-16 -3.0488991888760419e-03 0.0000000000000000e+00  3.1512553172152817e-16 -3.0488991888759981e-03 0.0000000000000000e+00  3.1744795186056590e-16 -3.0488991888760514e-03 0.0000000000000000e+00  2.7122425758596860e-16 -3.0488991888759586e-03 0.0000000000000000e+00  2.3003667592913580e-16 -3.0488991888757816e-03 0.0000000000000000e+00  9.3571526907743835e-17 -3.0488991888757118e-03 0.0000000000000000e+00  0.0000000000000000e+00 -3.0488991888757517e-03 0.0000000000000000e+00  -5.0045446752875300e-33 -3.3260718424100466e-03 0.0000000000000000e+00  -6.9002165411227832e-17 -3.3260718424101086e-03 0.0000000000000000e+00  -7.8497188431573242e-18 -3.3260718424102959e-03 0.0000000000000000e+00  1.8167329998669916e-16 -3.3260718424103089e-03 0.0000000000000000e+00  2.9419814901579062e-16 -3.3260718424102339e-03 0.0000000000000000e+00  3.2600608488896804e-16 -3.3260718424101879e-03 0.0000000000000000e+00  3.2524240601863533e-16 -3.3260718424102465e-03 0.0000000000000000e+00  2.9812167579510222e-16 -3.3260718424101415e-03 0.0000000000000000e+00  2.5005803243825879e-16 -3.3260718424099524e-03 0.0000000000000000e+00  9.5870174094255200e-17 -3.3260718424098700e-03 0.0000000000000000e+00  6.7028782608358283e-33 -3.3260718424099021e-03 0.0000000000000000e+00  3.3854237303681853e-33 -3.6032444959442252e-03 0.0000000000000000e+00  -8.9622778142257893e-17 -3.6032444959443041e-03 0.0000000000000000e+00  -1.5965529850489483e-17 -3.6032444959445088e-03 0.0000000000000000e+00  1.9570758622774130e-16 -3.6032444959445001e-03 0.0000000000000000e+00  3.0972819246717213e-16 -3.6032444959444290e-03 0.0000000000000000e+00  3.3429491200488497e-16 -3.6032444959443900e-03 0.0000000000000000e+00  3.3166413361610964e-16 -3.6032444959444277e-03 0.0000000000000000e+00  3.2323909441017552e-16 -3.6032444959443097e-03 0.0000000000000000e+00  2.6895643502705851e-16 -3.6032444959441345e-03 0.0000000000000000e+00  1.0066869701336547e-16 -3.6032444959440309e-03 0.0000000000000000e+00  9.5156879860759394e-34 -3.6032444959440612e-03 0.0000000000000000e+00  -8.9413850032935431e-33 -3.8804171494784068e-03 0.0000000000000000e+00  -1.1069786977691612e-16 -3.8804171494784970e-03 0.0000000000000000e+00  -2.5023014124190366e-17 -3.8804171494787017e-03 0.0000000000000000e+00  2.1299780804531779e-16 -3.8804171494786848e-03 0.0000000000000000e+00  3.1984997414584386e-16 -3.8804171494786184e-03 0.0000000000000000e+00  3.3809397388082051e-16 -3.8804171494785916e-03 0.0000000000000000e+00  3.4206147704673720e-16 -3.8804171494786024e-03 0.0000000000000000e+00  3.4166643739624614e-16 -3.8804171494784784e-03 0.0000000000000000e+00  2.8636730992577376e-16 -3.8804171494783175e-03 0.0000000000000000e+00  1.0726312867107544e-16 -3.8804171494781895e-03 0.0000000000000000e+00  -1.2171404363942761e-32 -3.8804171494782264e-03 0.0000000000000000e+00  -2.4826440689366696e-32 -4.1575898030125919e-03 0.0000000000000000e+00  -1.3081071368045520e-16 -4.1575898030127003e-03 0.0000000000000000e+00  -3.5142875276370444e-17 -4.1575898030128755e-03 0.0000000000000000e+00  2.3043548825172466e-16 -4.1575898030128573e-03 0.0000000000000000e+00  3.2516901121940171e-16 -4.1575898030128105e-03 0.0000000000000000e+00  3.4121243591349273e-16 -4.1575898030127923e-03 0.0000000000000000e+00  3.5354501700690726e-16 -4.1575898030127628e-03 0.0000000000000000e+00  3.5680127968093447e-16 -4.1575898030126509e-03 0.0000000000000000e+00  3.0281288283095063e-16 -4.1575898030124904e-03 0.0000000000000000e+00  1.1241099484938580e-16 -4.1575898030123586e-03 0.0000000000000000e+00  1.2413220344683345e-32 -4.1575898030124020e-03 0.0000000000000000e+00  1.6763852538193751e-32 -4.4347624565467814e-03 0.0000000000000000e+00  -1.4800160280266204e-16 -4.4347624565469132e-03 0.0000000000000000e+00  -4.0242282141377014e-17 -4.4347624565470407e-03 0.0000000000000000e+00  2.3972394844385512e-16 -4.4347624565470372e-03 0.0000000000000000e+00  3.2482045357260785e-16 -4.4347624565470199e-03 0.0000000000000000e+00  3.4803678874192701e-16 -4.4347624565469895e-03 0.0000000000000000e+00  3.6510101922888449e-16 -4.4347624565469253e-03 0.0000000000000000e+00  3.7081532206500892e-16 -4.4347624565468030e-03 0.0000000000000000e+00  3.1601978532315884e-16 -4.4347624565466530e-03 0.0000000000000000e+00  1.1611306527757643e-16 -4.4347624565465411e-03 0.0000000000000000e+00  -3.1714054036104837e-33 -4.4347624565465845e-03 0.0000000000000000e+00  4.5138983071575998e-33 -4.7119351100809725e-03 0.0000000000000000e+00  -1.6020873314490323e-16 -4.7119351100811321e-03 0.0000000000000000e+00  -3.8949240531089867e-17 -4.7119351100812241e-03 0.0000000000000000e+00  2.4134717046948434e-16 -4.7119351100812249e-03 0.0000000000000000e+00  3.2160518717844564e-16 -4.7119351100812154e-03 0.0000000000000000e+00  3.5969008292331821e-16 -4.7119351100811764e-03 0.0000000000000000e+00  3.7940584921264621e-16 -4.7119351100810627e-03 0.0000000000000000e+00  3.7797048129004935e-16 -4.7119351100809491e-03 0.0000000000000000e+00  3.2611257795650751e-16 -4.7119351100808277e-03 0.0000000000000000e+00  1.1905701491035577e-16 -4.7119351100807115e-03 0.0000000000000000e+00  -1.8794900649659342e-32 -4.7119351100807757e-03 0.0000000000000000e+00  -2.9373275501531855e-32 -4.9891077636151724e-03 0.0000000000000000e+00  -1.7036557578542014e-16 -4.9891077636153372e-03 0.0000000000000000e+00  -3.2263674906197496e-17 -4.9891077636154213e-03 0.0000000000000000e+00  2.3912794000105690e-16 -4.9891077636154274e-03 0.0000000000000000e+00  3.1768078250421865e-16 -4.9891077636154144e-03 0.0000000000000000e+00  3.7479115837488748e-16 -4.9891077636153511e-03 0.0000000000000000e+00  3.9803744498240339e-16 -4.9891077636152019e-03 0.0000000000000000e+00  3.7607641412178028e-16 -4.9891077636150701e-03 0.0000000000000000e+00  3.3066574806315496e-16 -4.9891077636149859e-03 0.0000000000000000e+00  1.1961035891582701e-16 -4.9891077636148801e-03 0.0000000000000000e+00  3.9496610187628867e-33 -4.9891077636149686e-03 0.0000000000000000e+00  -1.3541694921472741e-32 -5.2662804171493827e-03 0.0000000000000000e+00  -1.7832040134064493e-16 -5.2662804171495327e-03 0.0000000000000000e+00  -2.5145709514520924e-17 -5.2662804171496368e-03 0.0000000000000000e+00  2.3552825850237249e-16 -5.2662804171496177e-03 0.0000000000000000e+00  3.1365613852107494e-16 -5.2662804171495978e-03 0.0000000000000000e+00  3.9682916743104900e-16 -5.2662804171495110e-03 0.0000000000000000e+00  4.1643818153370978e-16 -5.2662804171493601e-03 0.0000000000000000e+00  3.7198834814262858e-16 -5.2662804171492040e-03 0.0000000000000000e+00  3.3101865223348216e-16 -5.2662804171491268e-03 0.0000000000000000e+00  1.1121161600881945e-16 -5.2662804171490427e-03 0.0000000000000000e+00  7.8993220375257652e-33 -5.2662804171491615e-03 0.0000000000000000e+00  -6.3896819714610484e-33 -5.5434530706835955e-03 0.0000000000000000e+00  -1.8523122272276252e-16 -5.5434530706837204e-03 0.0000000000000000e+00  -1.8892543656412499e-17 -5.5434530706838531e-03 0.0000000000000000e+00  2.3256012655009132e-16 -5.5434530706838323e-03 0.0000000000000000e+00  3.1181532124469241e-16 -5.5434530706837829e-03 0.0000000000000000e+00  4.1924438149605995e-16 -5.5434530706836727e-03 0.0000000000000000e+00  4.3469716485334441e-16 -5.5434530706835166e-03 0.0000000000000000e+00  3.6494737147877526e-16 -5.5434530706833501e-03 0.0000000000000000e+00  3.2396201277026638e-16 -5.5434530706832772e-03 0.0000000000000000e+00  9.8557478063806005e-17 -5.5434530706832061e-03 0.0000000000000000e+00  -1.4050182203512423e-32 -5.5434530706833414e-03 0.0000000000000000e+00  -2.2569491535787942e-32 -5.8206257242178101e-03 0.0000000000000000e+00  -1.9264723544352197e-16 -5.8206257242179003e-03 0.0000000000000000e+00  -1.8027744122844380e-17 -5.8206257242180729e-03 0.0000000000000000e+00  2.3731291153214022e-16 -5.8206257242180426e-03 0.0000000000000000e+00  3.0922819860160282e-16 -5.8206257242179689e-03 0.0000000000000000e+00  4.4224593640442389e-16 -5.8206257242178448e-03 0.0000000000000000e+00  4.5740619368142537e-16 -5.8206257242176896e-03 0.0000000000000000e+00  3.5238469665917082e-16 -5.8206257242175031e-03 0.0000000000000000e+00  3.1403546277561977e-16 -5.8206257242174467e-03 0.0000000000000000e+00  8.1463216051183161e-17 -5.8206257242173895e-03 0.0000000000000000e+00  7.1188219485547966e-33 -5.8206257242175057e-03 0.0000000000000000e+00  3.0724951352089817e-34 -6.0977983777520317e-03 0.0000000000000000e+00  -1.9960788176315667e-16 -6.0977983777520985e-03 0.0000000000000000e+00  -2.1731191082521479e-17 -6.0977983777522858e-03 0.0000000000000000e+00  2.4602077095216415e-16 -6.0977983777522555e-03 0.0000000000000000e+00  3.1033733323375154e-16 -6.0977983777521384e-03 0.0000000000000000e+00  4.6257627535135105e-16 -6.0977983777520178e-03 0.0000000000000000e+00  4.7663758907815532e-16 -6.0977983777518764e-03 0.0000000000000000e+00  3.4221150572020029e-16 -6.0977983777517099e-03 0.0000000000000000e+00  3.0341299950765015e-16 -6.0977983777516023e-03 0.0000000000000000e+00  6.4697350022708401e-17 -6.0977983777515676e-03 0.0000000000000000e+00  2.5592191295045206e-33 -6.0977983777516769e-03 0.0000000000000000e+00  -2.2569491535787904e-32 -6.3749710312862437e-03 0.0000000000000000e+00  -2.0665300153383086e-16 -6.3749710312862992e-03 0.0000000000000000e+00  -2.9004045895055914e-17 -6.3749710312865047e-03 0.0000000000000000e+00  2.5871301279173370e-16 -6.3749710312864926e-03 0.0000000000000000e+00  3.1816747979290420e-16 -6.3749710312863105e-03 0.0000000000000000e+00  4.7987327014790595e-16 -6.3749710312861977e-03 0.0000000000000000e+00  4.8793039500658240e-16 -6.3749710312860823e-03 0.0000000000000000e+00  3.3442383458087472e-16 -6.3749710312859253e-03 0.0000000000000000e+00  2.9083873544308339e-16 -6.3749710312857770e-03 0.0000000000000000e+00  4.4656143719099892e-17 -6.3749710312857475e-03 0.0000000000000000e+00  -4.2317796629602309e-33 -6.3749710312858542e-03 0.0000000000000000e+00  5.9606405623054394e-32 -6.6521436848204617e-03 0.0000000000000000e+00  -2.1536106553899808e-16 -6.6521436848205199e-03 0.0000000000000000e+00  -3.8901427095339781e-17 -6.6521436848207115e-03 0.0000000000000000e+00  2.7518768330338000e-16 -6.6521436848207202e-03 0.0000000000000000e+00  3.2915600708425831e-16 -6.6521436848204704e-03 0.0000000000000000e+00  4.9515045238770179e-16 -6.6521436848203915e-03 0.0000000000000000e+00  4.9432459123812091e-16 -6.6521436848202813e-03 0.0000000000000000e+00  3.2830555707142973e-16 -6.6521436848201417e-03 0.0000000000000000e+00  2.7778982517335392e-16 -6.6521436848199500e-03 0.0000000000000000e+00  2.4359203460335509e-17 -6.6521436848199248e-03 0.0000000000000000e+00  -4.9663419928227143e-34 -6.6521436848200237e-03 0.0000000000000000e+00  -2.4826440689366696e-32 -6.9293163383546737e-03 0.0000000000000000e+00  -2.2367271866143345e-16 -6.9293163383547440e-03 0.0000000000000000e+00  -4.6270695889258039e-17 -6.9293163383549166e-03 0.0000000000000000e+00  2.9107895922413092e-16 -6.9293163383549183e-03 0.0000000000000000e+00  3.411