<?xml version="1.0"?>
<VTKFile type="UnstructuredGrid"  version="0.1"  >
<UnstructuredGrid>
<Piece  NumberOfPoints="1091" NumberOfCells="2050">
<Points>
<DataArray  type="Float64"  NumberOfComponents="3"  format="ascii">-0.5 -1 0  -0.4 -1 0  -0.3 -1 0  -0.2 -1 0  -0.09999999999999998 -1 0  0 -1 0  0.09999999999999998 -1 0  0.2 -1 0  0.3 -1 0  0.4 -1 0  0.5 -1 0  -0.5 -0.98 0  -0.4 -0.98 0  -0.3 -0.98 0  -0.2 -0.98 0  -0.09999999999999998 -0.98 0  0 -0.98 0  0.09999999999999998 -0.98 0  0.2 -0.98 0  0.3 -0.98 0  0.4 -0.98 0  0.5 -0.98 0  -0.5 -0.96 0  -0.4 -0.96 0  -0.3 -0.96 0  -0.2 -0.96 0  -0.09999999999999998 -0.96 0  0 -0.96 0  0.09999999999999998 -0.96 0  0.2 -0.96 0  0.3 -0.96 0  0.4 -0.96 0  0.5 -0.96 0  -0.5 -0.9399999999999999 0  -0.4 -0.9399999999999999 0  -0.3 -0.9399999999999999 0  -0.2 -0.9399999999999999 0  -0.09999999999999998 -0.9399999999999999 0  0 -0.9399999999999999 0  0.09999999999999998 -0.9399999999999999 0  0.2 -0.9399999999999999 0  0.3 -0.9399999999999999 0  0.4 -0.9399999999999999 0  0.5 -0.9399999999999999 0  -0.5 -0.92 0  -0.4 -0.92 0  -0.3 -0.92 0  -0.2 -0.92 0  -0.09999999999999998 -0.92 0  0 -0.92 0  0.09999999999999998 -0.92 0  0.2 -0.92 0  0.3 -0.92 0  0.4 -0.92 0  0.5 -0.92 0  -0.5 -0.9 0  -0.4 -0.9 0  -0.3 -0.9 0  -0.2 -0.9 0  -0.09999999999999998 -0.9 0  0 -0.9 0  0.09999999999999998 -0.9 0  0.2 -0.9 0  0.3 -0.9 0  0.4 -0.9 0  0.5 -0.9 0  -0.5 -0.88 0  -0.4 -0.88 0  -0.3 -0.88 0  -0.2 -0.88 0  -0.09999999999999998 -0.88 0  0 -0.88 0  0.09999999999999998 -0.88 0  0.2 -0.88 0  0.3 -0.88 0  0.4 -0.88 0  0.5 -0.88 0  -0.5 -0.86 0  -0.4 -0.86 0  -0.3 -0.86 0  -0.2 -0.86 0  -0.09999999999999998 -0.86 0  0 -0.86 0  0.09999999999999998 -0.86 0  0.2 -0.86 0  0.3 -0.86 0  0.4 -0.86 0  0.5 -0.86 0  -0.5 -0.84 0  -0.4 -0.84 0  -0.3 -0.84 0  -0.2 -0.84 0  -0.09999999999999998 -0.84 0  0 -0.84 0  0.09999999999999998 -0.84 0  0.2 -0.84 0  0.3 -0.84 0  0.4 -0.84 0  0.5 -0.84 0  -0.5 -0.8200000000000001 0  -0.4 -0.8200000000000001 0  -0.3 -0.8200000000000001 0  -0.2 -0.8200000000000001 0  -0.09999999999999998 -0.8200000000000001 0  0 -0.8200000000000001 0  0.09999999999999998 -0.8200000000000001 0  0.2 -0.8200000000000001 0  0.3 -0.8200000000000001 0  0.4 -0.8200000000000001 0  0.5 -0.8200000000000001 0  -0.5 -0.8 0  -0.4 -0.8 0  -0.3 -0.8 0  -0.2 -0.8 0  -0.09999999999999998 -0.8 0  0 -0.8 0  0.09999999999999998 -0.8 0  0.2 -0.8 0  0.3 -0.8 0  0.4 -0.8 0  0.5 -0.8 0  -0.5 -0.78 0  -0.4 -0.78 0  -0.3 -0.78 0  -0.2 -0.78 0  -0.09999999999999998 -0.78 0  0 -0.78 0  0.09999999999999998 -0.78 0  0.2 -0.78 0  0.3 -0.78 0  0.4 -0.78 0  0.5 -0.78 0  -0.5 -0.76 0  -0.4 -0.76 0  -0.3 -0.76 0  -0.2 -0.76 0  -0.09999999999999998 -0.76 0  0 -0.76 0  0.09999999999999998 -0.76 0  0.2 -0.76 0  0.3 -0.76 0  0.4 -0.76 0  0.5 -0.76 0  -0.5 -0.74 0  -0.4 -0.74 0  -0.3 -0.74 0  -0.2 -0.74 0  -0.09999999999999998 -0.74 0  0 -0.74 0  0.09999999999999998 -0.74 0  0.2 -0.74 0  0.3 -0.74 0  0.4 -0.74 0  0.5 -0.74 0  -0.5 -0.72 0  -0.4 -0.72 0  -0.3 -0.72 0  -0.2 -0.72 0  -0.09999999999999998 -0.72 0  0 -0.72 0  0.09999999999999998 -0.72 0  0.2 -0.72 0  0.3 -0.72 0  0.4 -0.72 0  0.5 -0.72 0  -0.5 -0.7 0  -0.4 -0.7 0  -0.3 -0.7 0  -0.2 -0.7 0  -0.09999999999999998 -0.7 0  0 -0.7 0  0.09999999999999998 -0.7 0  0.2 -0.7 0  0.3 -0.7 0  0.4 -0.7 0  0.5 -0.7 0  -0.5 -0.6799999999999999 0  -0.4 -0.6799999999999999 0  -0.3 -0.6799999999999999 0  -0.2 -0.6799999999999999 0  -0.09999999999999998 -0.6799999999999999 0  0 -0.6799999999999999 0  0.09999999999999998 -0.6799999999999999 0  0.2 -0.6799999999999999 0  0.3 -0.6799999999999999 0  0.4 -0.6799999999999999 0  0.5 -0.6799999999999999 0  -0.5 -0.6599999999999999 0  -0.4 -0.6599999999999999 0  -0.3 -0.6599999999999999 0  -0.2 -0.6599999999999999 0  -0.09999999999999998 -0.6599999999999999 0  0 -0.6599999999999999 0  0.09999999999999998 -0.6599999999999999 0  0.2 -0.6599999999999999 0  0.3 -0.6599999999999999 0  0.4 -0.6599999999999999 0  0.5 -0.6599999999999999 0  -0.5 -0.64 0  -0.4 -0.64 0  -0.3 -0.64 0  -0.2 -0.64 0  -0.09999999999999998 -0.64 0  0 -0.64 0  0.09999999999999998 -0.64 0  0.2 -0.64 0  0.3 -0.64 0  0.4 -0.64 0  0.5 -0.64 0  -0.5 -0.62 0  -0.4 -0.62 0  -0.3 -0.62 0  -0.2 -0.62 0  -0.09999999999999998 -0.62 0  0 -0.62 0  0.09999999999999998 -0.62 0  0.2 -0.62 0  0.3 -0.62 0  0.4 -0.62 0  0.5 -0.62 0  -0.5 -0.6 0  -0.4 -0.6 0  -0.3 -0.6 0  -0.2 -0.6 0  -0.09999999999999998 -0.6 0  0 -0.6 0  0.09999999999999998 -0.6 0  0.2 -0.6 0  0.3 -0.6 0  0.4 -0.6 0  0.5 -0.6 0  -0.5 -0.5800000000000001 0  -0.4 -0.5800000000000001 0  -0.3 -0.5800000000000001 0  -0.2 -0.5800000000000001 0  -0.09999999999999998 -0.5800000000000001 0  0 -0.5800000000000001 0  0.09999999999999998 -0.5800000000000001 0  0.2 -0.5800000000000001 0  0.3 -0.5800000000000001 0  0.4 -0.5800000000000001 0  0.5 -0.5800000000000001 0  -0.5 -0.5600000000000001 0  -0.4 -0.5600000000000001 0  -0.3 -0.5600000000000001 0  -0.2 -0.5600000000000001 0  -0.09999999999999998 -0.5600000000000001 0  0 -0.5600000000000001 0  0.09999999999999998 -0.5600000000000001 0  0.2 -0.5600000000000001 0  0.3 -0.5600000000000001 0  0.4 -0.5600000000000001 0  0.5 -0.5600000000000001 0  -0.5 -0.54 0  -0.4 -0.54 0  -0.3 -0.54 0  -0.2 -0.54 0  -0.09999999999999998 -0.54 0  0 -0.54 0  0.09999999999999998 -0.54 0  0.2 -0.54 0  0.3 -0.54 0  0.4 -0.54 0  0.5 -0.54 0  -0.5 -0.52 0  -0.4 -0.52 0  -0.3 -0.52 0  -0.2 -0.52 0  -0.09999999999999998 -0.52 0  0 -0.52 0  0.09999999999999998 -0.52 0  0.2 -0.52 0  0.3 -0.52 0  0.4 -0.52 0  0.5 -0.52 0  -0.5 -0.5 0  -0.4 -0.5 0  -0.3 -0.5 0  -0.2 -0.5 0  -0.09999999999999998 -0.5 0  0 -0.5 0  0.09999999999999998 -0.5 0  0.2 -0.5 0  0.3 -0.5 0  0.4 -0.5 0  0.5 -0.5 0  -0.5 -0.48 0  -0.4 -0.48 0  -0.3 -0.48 0  -0.2 -0.48 0  -0.09999999999999998 -0.48 0  0 -0.48 0  0.09999999999999998 -0.48 0  0.2 -0.48 0  0.3 -0.48 0  0.4 -0.48 0  0.5 -0.48 0  -0.5 -0.46 0  -0.4 -0.46 0  -0.3 -0.46 0  -0.2 -0.46 0  -0.09999999999999998 -0.46 0  0 -0.46 0  0.09999999999999998 -0.46 0  0.2 -0.46 0  0.3 -0.46 0  0.4 -0.46 0  0.5 -0.46 0  -0.5 -0.4399999999999999 0  -0.4 -0.4399999999999999 0  -0.3 -0.4399999999999999 0  -0.2 -0.4399999999999999 0  -0.09999999999999998 -0.4399999999999999 0  0 -0.4399999999999999 0  0.09999999999999998 -0.4399999999999999 0  0.2 -0.4399999999999999 0  0.3 -0.4399999999999999 0  0.4 -0.4399999999999999 0  0.5 -0.4399999999999999 0  -0.5 -0.42 0  -0.4 -0.42 0  -0.3 -0.42 0  -0.2 -0.42 0  -0.09999999999999998 -0.42 0  0 -0.42 0  0.09999999999999998 -0.42 0  0.2 -0.42 0  0.3 -0.42 0  0.4 -0.42 0  0.5 -0.42 0  -0.5 -0.4 0  -0.4 -0.4 0  -0.3 -0.4 0  -0.2 -0.4 0  -0.09999999999999998 -0.4 0  0 -0.4 0  0.09999999999999998 -0.4 0  0.2 -0.4 0  0.3 -0.4 0  0.4 -0.4 0  0.5 -0.4 0  -0.5 -0.38 0  -0.4 -0.38 0  -0.3 -0.38 0  -0.2 -0.38 0  -0.09999999999999998 -0.38 0  0 -0.38 0  0.09999999999999998 -0.38 0  0.2 -0.38 0  0.3 -0.38 0  0.4 -0.38 0  0.5 -0.38 0  -0.5 -0.36 0  -0.4 -0.36 0  -0.3 -0.36 0  -0.2 -0.36 0  -0.09999999999999998 -0.36 0  0 -0.36 0  0.09999999999999998 -0.36 0  0.2 -0.36 0  0.3 -0.36 0  0.4 -0.36 0  0.5 -0.36 0  -0.5 -0.34 0  -0.4 -0.34 0  -0.3 -0.34 0  -0.2 -0.34 0  -0.09999999999999998 -0.34 0  0 -0.34 0  0.09999999999999998 -0.34 0  0.2 -0.34 0  0.3 -0.34 0  0.4 -0.34 0  0.5 -0.34 0  -0.5 -0.32 0  -0.4 -0.32 0  -0.3 -0.32 0  -0.2 -0.32 0  -0.09999999999999998 -0.32 0  0 -0.32 0  0.09999999999999998 -0.32 0  0.2 -0.32 0  0.3 -0.32 0  0.4 -0.32 0  0.5 -0.32 0  -0.5 -0.3 0  -0.4 -0.3 0  -0.3 -0.3 0  -0.2 -0.3 0  -0.09999999999999998 -0.3 0  0 -0.3 0  0.09999999999999998 -0.3 0  0.2 -0.3 0  0.3 -0.3 0  0.4 -0.3 0  0.5 -0.3 0  -0.5 -0.28 0  -0.4 -0.28 0  -0.3 -0.28 0  -0.2 -0.28 0  -0.09999999999999998 -0.28 0  0 -0.28 0  0.09999999999999998 -0.28 0  0.2 -0.28 0  0.3 -0.28 0  0.4 -0.28 0  0.5 -0.28 0  -0.5 -0.26 0  -0.4 -0.26 0  -0.3 -0.26 0  -0.2 -0.26 0  -0.09999999999999998 -0.26 0  0 -0.26 0  0.09999999999999998 -0.26 0  0.2 -0.26 0  0.3 -0.26 0  0.4 -0.26 0  0.5 -0.26 0  -0.5 -0.24 0  -0.4 -0.24 0  -0.3 -0.24 0  -0.2 -0.24 0  -0.09999999999999998 -0.24 0  0 -0.24 0  0.09999999999999998 -0.24 0  0.2 -0.24 0  0.3 -0.24 0  0.4 -0.24 0  0.5 -0.24 0  -0.5 -0.22 0  -0.4 -0.22 0  -0.3 -0.22 0  -0.2 -0.22 0  -0.09999999999999998 -0.22 0  0 -0.22 0  0.09999999999999998 -0.22 0  0.2 -0.22 0  0.3 -0.22 0  0.4 -0.22 0  0.5 -0.22 0  -0.5 -0.2 0  -0.4 -0.2 0  -0.3 -0.2 0  -0.2 -0.2 0  -0.09999999999999998 -0.2 0  0 -0.2 0  0.09999999999999998 -0.2 0  0.2 -0.2 0  0.3 -0.2 0  0.4 -0.2 0  0.5 -0.2 0  -0.5 -0.18 0  -0.4 -0.18 0  -0.3 -0.18 0  -0.2 -0.18 0  -0.09999999999999998 -0.18 0  0 -0.18 0  0.09999999999999998 -0.18 0  0.2 -0.18 0  0.3 -0.18 0  0.4 -0.18 0  0.5 -0.18 0  -0.5 -0.16 0  -0.4 -0.16 0  -0.3 -0.16 0  -0.2 -0.16 0  -0.09999999999999998 -0.16 0  0 -0.16 0  0.09999999999999998 -0.16 0  0.2 -0.16 0  0.3 -0.16 0  0.4 -0.16 0  0.5 -0.16 0  -0.5 -0.14 0  -0.4 -0.14 0  -0.3 -0.14 0  -0.2 -0.14 0  -0.09999999999999998 -0.14 0  0 -0.14 0  0.09999999999999998 -0.14 0  0.2 -0.14 0  0.3 -0.14 0  0.4 -0.14 0  0.5 -0.14 0  -0.5 -0.12 0  -0.4 -0.12 0  -0.3 -0.12 0  -0.2 -0.12 0  -0.09999999999999998 -0.12 0  0 -0.12 0  0.09999999999999998 -0.12 0  0.2 -0.12 0  0.3 -0.12 0  0.4 -0.12 0  0.5 -0.12 0  -0.5 -0.09999999999999998 0  -0.4 -0.09999999999999998 0  -0.3 -0.09999999999999998 0  -0.2 -0.09999999999999998 0  -0.09999999999999998 -0.09999999999999998 0  0 -0.09999999999999998 0  0.09999999999999998 -0.09999999999999998 0  0.2 -0.09999999999999998 0  0.3 -0.09999999999999998 0  0.4 -0.09999999999999998 0  0.5 -0.09999999999999998 0  -0.5 -0.07999999999999996 0  -0.4 -0.07999999999999996 0  -0.3 -0.07999999999999996 0  -0.2 -0.07999999999999996 0  -0.09999999999999998 -0.07999999999999996 0  0 -0.07999999999999996 0  0.09999999999999998 -0.07999999999999996 0  0.2 -0.07999999999999996 0  0.3 -0.07999999999999996 0  0.4 -0.07999999999999996 0  0.5 -0.07999999999999996 0  -0.5 -0.06000000000000005 0  -0.4 -0.06000000000000005 0  -0.3 -0.06000000000000005 0  -0.2 -0.06000000000000005 0  -0.09999999
[...]
<PointData  Vectors="displacement"> 
<DataArray  type="Float64"  Name="displacement"  NumberOfComponents="3" format="ascii">2.1158898314801141e-34 -2.9778502051908972e-20 0.0000000000000000e+00  -6.3476694944403457e-34 -1.4889251025954483e-20 0.0000000000000000e+00  1.9081579391707397e-33 -2.9952985462369370e-20 0.0000000000000000e+00  -1.9748305093814416e-33 -1.2407709188295406e-20 0.0000000000000000e+00  6.7480301269718764e-33 -2.4903447055966122e-20 0.0000000000000000e+00  -2.2569491535787896e-33 1.4889251025954483e-20 0.0000000000000000e+00  -4.4265627503113310e-33 -1.7077563798812056e-20 0.0000000000000000e+00  3.9496610187628819e-33 -4.9630836753181608e-21 0.0000000000000000e+00  -5.3799701935477910e-34 -3.9704669402545286e-20 0.0000000000000000e+00  0.0000000000000000e+00 4.9630836753181624e-20 0.0000000000000000e+00  2.8211864419734866e-34 -1.9852334701272640e-20 0.0000000000000000e+00  -8.4635593259204632e-34 -2.7717265353417286e-04 0.0000000000000000e+00  -7.7296509711760924e-18 -2.7717265353417524e-04 0.0000000000000000e+00  3.0400544187323727e-18 -2.7717265353417882e-04 0.0000000000000000e+00  2.4540072215802070e-17 -2.7717265353418213e-04 0.0000000000000000e+00  3.2354195965049883e-17 -2.7717265353417730e-04 0.0000000000000000e+00  3.9984022912839355e-17 -2.7717265353417286e-04 0.0000000000000000e+00  4.4772313078206085e-17 -2.7717265353417253e-04 0.0000000000000000e+00  3.1731258238204740e-17 -2.7717265353416972e-04 0.0000000000000000e+00  2.7975649427425139e-17 -2.7717265353416961e-04 0.0000000000000000e+00  1.7915628966434372e-17 -2.7717265353416104e-04 0.0000000000000000e+00  -4.4085994868227175e-33 -2.7717265353416863e-04 0.0000000000000000e+00  -1.5627118698899610e-33 -5.5434530706834431e-04 0.0000000000000000e+00  -1.2230916614900018e-17 -5.5434530706835114e-04 0.0000000000000000e+00  7.0096002210455156e-18 -5.5434530706835949e-04 0.0000000000000000e+00  4.5257286455971573e-17 -5.5434530706836708e-04 0.0000000000000000e+00  6.3113735190216302e-17 -5.5434530706835624e-04 0.0000000000000000e+00  7.7839439526830531e-17 -5.5434530706834724e-04 0.0000000000000000e+00  8.4559100546681139e-17 -5.5434530706834669e-04 0.0000000000000000e+00  6.1125659956094368e-17 -5.5434530706833900e-04 0.0000000000000000e+00  5.3363001599218666e-17 -5.5434530706833954e-04 0.0000000000000000e+00  3.3626183323478705e-17 -5.5434530706831970e-04 0.0000000000000000e+00  3.6272397111087696e-33 -5.5434530706833499e-04 0.0000000000000000e+00  -2.3980084756774686e-33 -8.3151796060251543e-04 0.0000000000000000e+00  -1.4959935412597571e-17 -8.3151796060252758e-04 0.0000000000000000e+00  1.1662894528087051e-17 -8.3151796060254178e-04 0.0000000000000000e+00  6.3388142734521563e-17 -8.3151796060255642e-04 0.0000000000000000e+00  9.1343747807299804e-17 -8.3151796060253658e-04 0.0000000000000000e+00  1.1358439053491121e-16 -8.3151796060252573e-04 0.0000000000000000e+00  1.2067279645328303e-16 -8.3151796060252194e-04 0.0000000000000000e+00  8.7371946937349308e-17 -8.3151796060250936e-04 0.0000000000000000e+00  7.6202143515565423e-17 -8.3151796060250774e-04 0.0000000000000000e+00  4.8417641996690662e-17 -8.3151796060247922e-04 0.0000000000000000e+00  -3.3854237303681894e-33 -8.3151796060250015e-04 0.0000000000000000e+00  -2.1375274511702100e-33 -1.1086906141366845e-03 0.0000000000000000e+00  -1.6689330582671881e-17 -1.1086906141367003e-03 0.0000000000000000e+00  1.6306878895828508e-17 -1.1086906141367216e-03 0.0000000000000000e+00  7.9464926786567338e-17 -1.1086906141367441e-03 0.0000000000000000e+00  1.1767406249373433e-16 -1.1086906141367168e-03 0.0000000000000000e+00  1.4589594693491350e-16 -1.1086906141367055e-03 0.0000000000000000e+00  1.5383366300485955e-16 -1.1086906141367016e-03 0.0000000000000000e+00  1.1160071673094722e-16 -1.1086906141366808e-03 0.0000000000000000e+00  9.7181473444093782e-17 -1.1086906141366695e-03 0.0000000000000000e+00  6.1177527132030029e-17 -1.1086906141366351e-03 0.0000000000000000e+00  1.8798397974528673e-34 -1.1086906141366648e-03 0.0000000000000000e+00  2.8211864419734879e-34 -1.3858632676708583e-03 0.0000000000000000e+00  -1.7399467626586112e-17 -1.3858632676708781e-03 0.0000000000000000e+00  2.0838342606940985e-17 -1.3858632676709037e-03 0.0000000000000000e+00  9.3556476952337400e-17 -1.3858632676709329e-03 0.0000000000000000e+00  1.4202669262831275e-16 -1.3858632676709026e-03 0.0000000000000000e+00  1.7489531143900173e-16 -1.3858632676708900e-03 0.0000000000000000e+00  1.8300696475626880e-16 -1.3858632676708876e-03 0.0000000000000000e+00  1.3524134244185470e-16 -1.3858632676708577e-03 0.0000000000000000e+00  1.1765197476526314e-16 -1.3858632676708286e-03 0.0000000000000000e+00  7.2273123863240064e-17 -1.3858632676707911e-03 0.0000000000000000e+00  -1.8430419791485527e-32 -1.3858632676708275e-03 0.0000000000000000e+00  1.7030107133125115e-33 -1.6630359212050333e-03 0.0000000000000000e+00  -1.6950913860898435e-17 -1.6630359212050521e-03 0.0000000000000000e+00  2.4737717869504026e-17 -1.6630359212050866e-03 0.0000000000000000e+00  1.0545545925757857e-16 -1.6630359212051226e-03 0.0000000000000000e+00  1.6377972704960464e-16 -1.6630359212050866e-03 0.0000000000000000e+00  2.0240628799269156e-16 -1.6630359212050712e-03 0.0000000000000000e+00  2.0984693297237130e-16 -1.6630359212050712e-03 0.0000000000000000e+00  1.5862753100090973e-16 -1.6630359212050361e-03 0.0000000000000000e+00  1.3762027654837414e-16 -1.6630359212049905e-03 0.0000000000000000e+00  8.0803087830183205e-17 -1.6630359212049426e-03 0.0000000000000000e+00  4.8363196148116930e-33 -1.6630359212049868e-03 0.0000000000000000e+00  -7.0529661049337199e-34 -1.9402085747392041e-03 0.0000000000000000e+00  -1.6154707783263885e-17 -1.9402085747392275e-03 0.0000000000000000e+00  2.7284308789219163e-17 -1.9402085747392669e-03 0.0000000000000000e+00  1.1639869106622503e-16 -1.9402085747393170e-03 0.0000000000000000e+00  1.8363685480115113e-16 -1.9402085747392695e-03 0.0000000000000000e+00  2.2754741721062165e-16 -1.9402085747392500e-03 0.0000000000000000e+00  2.3366146300279402e-16 -1.9402085747392500e-03 0.0000000000000000e+00  1.8112218121401739e-16 -1.9402085747392119e-03 0.0000000000000000e+00  1.5706089990419030e-16 -1.9402085747391498e-03 0.0000000000000000e+00  8.6487637288172846e-17 -1.9402085747390915e-03 0.0000000000000000e+00  -4.5138983071575799e-33 -1.9402085747391459e-03 0.0000000000000000e+00  1.9979765369132072e-33 -2.2173812282733712e-03 0.0000000000000000e+00  -1.7577523950170601e-17 -2.2173812282733981e-03 0.0000000000000000e+00  2.9216088088382715e-17 -2.2173812282734575e-03 0.0000000000000000e+00  1.2552998684156407e-16 -2.2173812282735112e-03 0.0000000000000000e+00  2.0140266444988570e-16 -2.2173812282734518e-03 0.0000000000000000e+00  2.5132264132396969e-16 -2.2173812282734336e-03 0.0000000000000000e+00  2.5651284626453100e-16 -2.2173812282734332e-03 0.0000000000000000e+00  2.0105423877000801e-16 -2.2173812282733868e-03 0.0000000000000000e+00  1.7590770896988517e-16 -2.2173812282733074e-03 0.0000000000000000e+00  9.0650373075703969e-17 -2.2173812282732432e-03 0.0000000000000000e+00  3.3681499905497611e-33 -2.2173812282732979e-03 0.0000000000000000e+00  -5.6423728839469999e-33 -2.4945538818075376e-03 0.0000000000000000e+00  -2.1218801322186076e-17 -2.4945538818075649e-03 0.0000000000000000e+00  2.7906415717834635e-17 -2.4945538818076408e-03 0.0000000000000000e+00  1.3440038674311383e-16 -2.4945538818077055e-03 0.0000000000000000e+00  2.1827872842466018e-16 -2.4945538818076391e-03 0.0000000000000000e+00  2.7120768208883322e-16 -2.4945538818076105e-03 0.0000000000000000e+00  2.7780021939851615e-16 -2.4945538818076330e-03 0.0000000000000000e+00  2.2015039732217201e-16 -2.4945538818075632e-03 0.0000000000000000e+00  1.9410591838540366e-16 -2.4945538818074652e-03 0.0000000000000000e+00  9.3605396520968517e-17 -2.4945538818073971e-03 0.0000000000000000e+00  1.6040476432509610e-32 -2.4945538818074539e-03 0.0000000000000000e+00  5.8054545324002693e-34 -2.7717265353417115e-03 0.0000000000000000e+00  -2.6191870043913350e-17 -2.7717265353417453e-03 0.0000000000000000e+00  2.4813094309302422e-17 -2.7717265353418403e-03 0.0000000000000000e+00  1.4277962171759453e-16 -2.7717265353419031e-03 0.0000000000000000e+00  2.3595514773699322e-16 -2.7717265353418290e-03 0.0000000000000000e+00  2.8576054564915288e-16 -2.7717265353417965e-03 0.0000000000000000e+00  2.9479975189762086e-16 -2.7717265353418329e-03 0.0000000000000000e+00  2.4218272104579076e-16 -2.7717265353417444e-03 0.0000000000000000e+00  2.1217967129689087e-16 -2.7717265353416221e-03 0.0000000000000000e+00  9.5106119665579628e-17 -2.7717265353415562e-03 0.0000000000000000e+00  -1.3380484267645685e-32 -2.7717265353416095e-03 0.0000000000000000e+00  -1.6927118651840926e-33 -3.0488991888758892e-03 0.0000000000000000e+00  -3.4050376963301848e-17 -3.0488991888759304e-03 0.0000000000000000e+00  1.8959066697456268e-17 -3.0488991888760553e-03 0.0000000000000000e+00  1.5232516463040623e-16 -3.0488991888761000e-03 0.0000000000000000e+00  2.5336755373018348e-16 -3.0488991888760228e-03 0.0000000000000000e+00  2.9861290175195018e-16 -3.0488991888759777e-03 0.0000000000000000e+00  3.0730318810140098e-16 -3.0488991888760293e-03 0.0000000000000000e+00  2.6482054907567928e-16 -3.0488991888759317e-03 0.0000000000000000e+00  2.3030276809331078e-16 -3.0488991888757843e-03 0.0000000000000000e+00  9.4806039018758444e-17 -3.0488991888757101e-03 0.0000000000000000e+00  -2.2569491535787900e-33 -3.0488991888757647e-03 0.0000000000000000e+00  3.1637839799939127e-33 -3.3260718424100669e-03 0.0000000000000000e+00  -4.6378504620661343e-17 -3.3260718424101198e-03 0.0000000000000000e+00  1.2838946921435311e-17 -3.3260718424102716e-03 0.0000000000000000e+00  1.6528024571181274e-16 -3.3260718424102912e-03 0.0000000000000000e+00  2.7008354663744740e-16 -3.3260718424102118e-03 0.0000000000000000e+00  3.0827592626628899e-16 -3.3260718424101628e-03 0.0000000000000000e+00  3.1571600172474646e-16 -3.3260718424102205e-03 0.0000000000000000e+00  2.8636422451767093e-16 -3.3260718424101133e-03 0.0000000000000000e+00  2.4654686317817096e-16 -3.3260718424099568e-03 0.0000000000000000e+00  9.7098285507974719e-17 -3.3260718424098661e-03 0.0000000000000000e+00  -1.5080412685604207e-32 -3.3260718424099104e-03 0.0000000000000000e+00  2.2569491535787903e-33 -3.6032444959442429e-03 0.0000000000000000e+00  -6.2472753749643131e-17 -3.6032444959443175e-03 0.0000000000000000e+00  5.9538121734117061e-18 -3.6032444959444793e-03 0.0000000000000000e+00  1.8047488333941756e-16 -3.6032444959444780e-03 0.0000000000000000e+00  2.8604525054973863e-16 -3.6032444959443978e-03 0.0000000000000000e+00  3.1432136893151211e-16 -3.6032444959443631e-03 0.0000000000000000e+00  3.2202764746741877e-16 -3.6032444959444043e-03 0.0000000000000000e+00  3.0657793104064704e-16 -3.6032444959442828e-03 0.0000000000000000e+00  2.6187773828720394e-16 -3.6032444959441280e-03 0.0000000000000000e+00  1.0092515327559241e-16 -3.6032444959440226e-03 0.0000000000000000e+00  2.1542048697840525e-32 -3.6032444959440647e-03 0.0000000000000000e+00  -2.4162272811266700e-33 -3.8804171494784207e-03 0.0000000000000000e+00  -7.8875008243672991e-17 -3.8804171494785135e-03 0.0000000000000000e+00  8.1279178009483554e-19 -3.8804171494786735e-03 0.0000000000000000e+00  1.9688408949599843e-16 -3.8804171494786627e-03 0.0000000000000000e+00  2.9727436292041795e-16 -3.8804171494785872e-03 0.0000000000000000e+00  3.1738939993542298e-16 -3.8804171494785612e-03 0.0000000000000000e+00  3.3022037574095792e-16 -3.8804171494785738e-03 0.0000000000000000e+00  3.2232739102672922e-16 -3.8804171494784575e-03 0.0000000000000000e+00  2.7788579421478998e-16 -3.8804171494783066e-03 0.0000000000000000e+00  1.0708104942795006e-16 -3.8804171494781800e-03 0.0000000000000000e+00  -5.8841888646875588e-33 -3.8804171494782129e-03 0.0000000000000000e+00  1.1284745767893952e-33 -4.1575898030126041e-03 0.0000000000000000e+00  -9.5178447935312981e-17 -4.1575898030127073e-03 0.0000000000000000e+00  -4.1784785155577987e-18 -4.1575898030128556e-03 0.0000000000000000e+00  2.1265696249441816e-16 -4.1575898030128365e-03 0.0000000000000000e+00  3.0267823279282984e-16 -4.1575898030127758e-03 0.0000000000000000e+00  3.2036905410981611e-16 -4.1575898030127584e-03 0.0000000000000000e+00  3.3933403236394545e-16 -4.1575898030127333e-03 0.0000000000000000e+00  3.3447331330944898e-16 -4.1575898030126275e-03 0.0000000000000000e+00  2.9137091977143310e-16 -4.1575898030124826e-03 0.0000000000000000e+00  1.1278220411892291e-16 -4.1575898030123430e-03 0.0000000000000000e+00  -1.2413220344683345e-32 -4.1575898030123759e-03 0.0000000000000000e+00  -3.0899956744288670e-32 -4.4347624565467944e-03 0.0000000000000000e+00  -1.0909288305826100e-16 -4.4347624565469106e-03 0.0000000000000000e+00  -6.6814079348272391e-18 -4.4347624565470338e-03 0.0000000000000000e+00  2.2263690044780495e-16 -4.4347624565470103e-03 0.0000000000000000e+00  3.0213470173865667e-16 -4.4347624565469861e-03 0.0000000000000000e+00  3.2635768689570806e-16 -4.4347624565469514e-03 0.0000000000000000e+00  3.4981100889245460e-16 -4.4347624565468976e-03 0.0000000000000000e+00  3.4445501773887713e-16 -4.4347624565467848e-03 0.0000000000000000e+00  3.0270686173428720e-16 -4.4347624565466426e-03 0.0000000000000000e+00  1.1983176868918562e-16 -4.4347624565465099e-03 0.0000000000000000e+00  1.0984622356979332e-32 -4.4347624565465541e-03 0.0000000000000000e+00  -1.1284745767894000e-32 -4.7119351100809847e-03 0.0000000000000000e+00  -1.2002090009045322e-16 -4.7119351100811330e-03 0.0000000000000000e+00  -4.0579055036660579e-18 -4.7119351100812171e-03 0.0000000000000000e+00  2.2626932115109656e-16 -4.7119351100812050e-03 0.0000000000000000e+00  2.9827590099312641e-16 -4.7119351100811868e-03 0.0000000000000000e+00  3.3514308077819087e-16 -4.7119351100811434e-03 0.0000000000000000e+00  3.6321164640856912e-16 -4.7119351100810419e-03 0.0000000000000000e+00  3.4843126895774878e-16 -4.7119351100809318e-03 0.0000000000000000e+00  3.1113657834154310e-16 -4.7119351100808103e-03 0.0000000000000000e+00  1.2386454282835122e-16 -4.7119351100806837e-03 0.0000000000000000e+00  -2.7395560397298408e-32 -4.7119351100807410e-03 0.0000000000000000e+00  -1.3461787563931515e-32 -4.9891077636151793e-03 0.0000000000000000e+00  -1.2945377028221901e-16 -4.9891077636153363e-03 0.0000000000000000e+00  2.2617833954860032e-18 -4.9891077636154170e-03 0.0000000000000000e+00  2.2603046815577584e-16 -4.9891077636154014e-03 0.0000000000000000e+00  2.9313378035909141e-16 -4.9891077636153884e-03 0.0000000000000000e+00  3.4869633432429069e-16 -4.9891077636153233e-03 0.0000000000000000e+00  3.8035908941516224e-16 -4.9891077636151802e-03 0.0000000000000000e+00  3.4475784034034506e-16 -4.9891077636150622e-03 0.0000000000000000e+00  3.1698172389539314e-16 -4.9891077636149599e-03 0.0000000000000000e+00  1.2436831347156498e-16 -4.9891077636148411e-03 0.0000000000000000e+00  6.4484261530822651e-33 -4.9891077636149261e-03 0.0000000000000000e+00  -2.2569491535787903e-33 -5.2662804171493844e-03 0.0000000000000000e+00  -1.3824293974485617e-16 -5.2662804171495258e-03 0.0000000000000000e+00  9.5793179102936946e-18 -5.2662804171496325e-03 0.0000000000000000e+00  2.2373820933115845e-16 -5.2662804171495960e-03 0.0000000000000000e+00  2.8731301426776731e-16 -5.2662804171495796e-03 0.0000000000000000e+00  3.6848515611132060e-16 -5.2662804171494824e-03 0.0000000000000000e+00  3.9754862334200279e-16 -5.2662804171493324e-03 0.0000000000000000e+00  3.4017020976726362e-16 -5.2662804171491875e-03 0.0000000000000000e+00  3.1877841268143995e-16 -5.2662804171491068e-03 0.0000000000000000e+00  1.1575072491733914e-16 -5.2662804171490080e-03 0.0000000000000000e+00  4.5138983071575799e-33 -5.2662804171491077e-03 0.0000000000000000e+00  1.5502027363002469e-32 -5.5434530706835903e-03 0.0000000000000000e+00  -1.4592261209915341e-16 -5.5434530706837161e-03 0.0000000000000000e+00  1.4967684234833861e-17 -5.5434530706838436e-03 0.0000000000000000e+00  2.2133097148733355e-16 -5.5434530706838011e-03 0.0000000000000000e+00  2.8344740192961706e-16 -5.5434530706837638e-03 0.0000000000000000e+00  3.8991439727902158e-16 -5.5434530706836493e-03 0.0000000000000000e+00  4.1518765818022522e-16 -5.5434530706834958e-03 0.0000000000000000e+00  3.3488107662339014e-16 -5.5434530706833336e-03 0.0000000000000000e+00  3.1218847392804682e-16 -5.5434530706832469e-03 0.0000000000000000e+00  1.0411323928839891e-16 -5.5434530706831801e-03 0.0000000000000000e+00  1.5002776692242102e-32 -5.5434530706832850e-03 0.0000000000000000e+00  1.1284745767893971e-32 -5.8206257242178067e-03 0.0000000000000000e+00  -1.5256394956234762e-16 -5.8206257242179021e-03 0.0000000000000000e+00  1.5699437686314673e-17 -5.8206257242180382e-03 0.0000000000000000e+00  2.2210637730443703e-16 -5.8206257242180148e-03 0.0000000000000000e+00  2.7898100337704270e-16 -5.8206257242179463e-03 0.0000000000000000e+00  4.0992059410064468e-16 -5.8206257242178145e-03 0.0000000000000000e+00  4.3661150682016971e-16 -5.8206257242176679e-03 0.0000000000000000e+00  3.2515734866402153e-16 -5.8206257242174953e-03 0.0000000000000000e+00  3.0258788033812323e-16 -5.8206257242174077e-03 0.0000000000000000e+00  9.0883366508720204e-17 -5.8206257242173556e-03 0.0000000000000000e+00  -2.0455144790770317e-32 -5.8206257242174536e-03 0.0000000000000000e+00  -1.7967118522573476e-32 -6.0977983777520239e-03 0.0000000000000000e+00  -1.5926339803223469e-16 -6.0977983777520881e-03 0.0000000000000000e+00  1.2434160619405317e-17 -6.0977983777522433e-03 0.0000000000000000e+00  2.2854487683457159e-16 -6.0977983777522199e-03 0.0000000000000000e+00  2.7816657792398899e-16 -6.0977983777521123e-03 0.0000000000000000e+00  4.2933817840257917e-16 -6.0977983777519762e-03 0.0000000000000000e+00  4.5315495558972685e-16 -6.0977983777518452e-03 0.0000000000000000e+00  3.1587968012565457e-16 -6.0977983777516891e-03 0.0000000000000000e+00  2.9370635539725453e-16 -6.0977983777515737e-03 0.0000000000000000e+00  7.4250896752215868e-17 -6.0977983777515182e-03 0.0000000000000000e+00  9.3502179219692736e-33 -6.0977983777516275e-03 0.0000000000000000e+00  -4.5138983071575806e-33 -6.3749710312862393e-03 0.0000000000000000e+00  -1.6526760954858762e-16 -6.3749710312862853e-03 0.0000000000000000e+00  7.8497188431573088e-18 -6.3749710312864501e-03 0.0000000000000000e+00  2.3417383686719039e-16 -6.3749710312864362e-03 0.0000000000000000e+00  2.8302333845070977e-16 -6.3749710312862784e-03 0.0000000000000000e+00  4.4868725790860264e-16 -6.3749710312861509e-03 0.0000000000000000e+00  4.6239905973851159e-16 -6.3749710312860424e-03 0.0000000000000000e+00  3.0592528058066610e-16 -6.3749710312859019e-03 0.0000000000000000e+00  2.8365424701036322e-16 -6.3749710312857449e-03 0.0000000000000000e+00  5.7602537388350249e-17 -6.3749710312856860e-03 0.0000000000000000e+00  -4.5138983071575799e-33 -6.3749710312857970e-03 0.0000000000000000e+00  1.7164092975028485e-32 -6.6521436848204505e-03 0.0000000000000000e+00  -1.7109161557569668e-16 -6.6521436848204912e-03 0.0000000000000000e+00  -2.0726084975179637e-18 -6.6521436848206708e-03 0.0000000000000000e+00  2.4303090731908290e-16 -6.6521436848206682e-03 0.0000000000000000e+00  2.9150396585352051e-16 -6.6521436848204314e-03 0.0000000000000000e+00  4.6513153003914924e-16 -6.6521436848203342e-03 0.0000000000000000e+00  4.6561428761102882e-16 -6.6521436848202432e-03 0.0000000000000000e+00  2.9556698043780522e-16 -6.6521436848201139e-03 0.0000000000000000e+00  2.7466116339926707e-16 -6.6521436848199222e-03 0.0000000000000000e+00  4.1363255073378271e-17 -6.6521436848198511e-03 0.0000000000000000e+00  -2.4268583437745168e-33 -6.6521436848199708e-03 0.0000000000000000e+00  -9.0277966143151612e-33 -6.9293163383546616e-03 0.0000000000000000e+00  -1.7898206020759609e-16 -6.9293163383546963e-03 0.0000000000000000e+00  -1.3592826906517394e-17 -6.9293163383548732e-03 0.0000000000000000e+00  2.5326122078703620e-16 -6.9293163383548672e-03 0.0000000000000000e+00  3.0274