<?xml version="1.0"?>
<VTKFile type="UnstructuredGrid"  version="0.1"  >
<UnstructuredGrid>
<Piece  NumberOfPoints="1661" NumberOfCells="3200">
<Points>
<DataArray  type="Float64"  NumberOfComponents="3"  format="ascii">-0.25 -1 0  -0.225 -1 0  -0.2 -1 0  -0.175 -1 0  -0.15 -1 0  -0.125 -1 0  -0.1 -1 0  -0.07500000000000001 -1 0  -0.04999999999999999 -1 0  -0.02499999999999999 -1 0  0 -1 0  0.02500000000000002 -1 0  0.04999999999999999 -1 0  0.07500000000000001 -1 0  0.09999999999999998 -1 0  0.125 -1 0  0.15 -1 0  0.175 -1 0  0.2 -1 0  0.225 -1 0  0.25 -1 0  -0.25 -0.975 0  -0.225 -0.975 0  -0.2 -0.975 0  -0.175 -0.975 0  -0.15 -0.975 0  -0.125 -0.975 0  -0.1 -0.975 0  -0.07500000000000001 -0.975 0  -0.04999999999999999 -0.975 0  -0.02499999999999999 -0.975 0  0 -0.975 0  0.02500000000000002 -0.975 0  0.04999999999999999 -0.975 0  0.07500000000000001 -0.975 0  0.09999999999999998 -0.975 0  0.125 -0.975 0  0.15 -0.975 0  0.175 -0.975 0  0.2 -0.975 0  0.225 -0.975 0  0.25 -0.975 0  -0.25 -0.95 0  -0.225 -0.95 0  -0.2 -0.95 0  -0.175 -0.95 0  -0.15 -0.95 0  -0.125 -0.95 0  -0.1 -0.95 0  -0.07500000000000001 -0.95 0  -0.04999999999999999 -0.95 0  -0.02499999999999999 -0.95 0  0 -0.95 0  0.02500000000000002 -0.95 0  0.04999999999999999 -0.95 0  0.07500000000000001 -0.95 0  0.09999999999999998 -0.95 0  0.125 -0.95 0  0.15 -0.95 0  0.175 -0.95 0  0.2 -0.95 0  0.225 -0.95 0  0.25 -0.95 0  -0.25 -0.925 0  -0.225 -0.925 0  -0.2 -0.925 0  -0.175 -0.925 0  -0.15 -0.925 0  -0.125 -0.925 0  -0.1 -0.925 0  -0.07500000000000001 -0.925 0  -0.04999999999999999 -0.925 0  -0.02499999999999999 -0.925 0  0 -0.925 0  0.02500000000000002 -0.925 0  0.04999999999999999 -0.925 0  0.07500000000000001 -0.925 0  0.09999999999999998 -0.925 0  0.125 -0.925 0  0.15 -0.925 0  0.175 -0.925 0  0.2 -0.925 0  0.225 -0.925 0  0.25 -0.925 0  -0.25 -0.9 0  -0.225 -0.9 0  -0.2 -0.9 0  -0.175 -0.9 0  -0.15 -0.9 0  -0.125 -0.9 0  -0.1 -0.9 0  -0.07500000000000001 -0.9 0  -0.04999999999999999 -0.9 0  -0.02499999999999999 -0.9 0  0 -0.9 0  0.02500000000000002 -0.9 0  0.04999999999999999 -0.9 0  0.07500000000000001 -0.9 0  0.09999999999999998 -0.9 0  0.125 -0.9 0  0.15 -0.9 0  0.175 -0.9 0  0.2 -0.9 0  0.225 -0.9 0  0.25 -0.9 0  -0.25 -0.875 0  -0.225 -0.875 0  -0.2 -0.875 0  -0.175 -0.875 0  -0.15 -0.875 0  -0.125 -0.875 0  -0.1 -0.875 0  -0.07500000000000001 -0.875 0  -0.04999999999999999 -0.875 0  -0.02499999999999999 -0.875 0  0 -0.875 0  0.02500000000000002 -0.875 0  0.04999999999999999 -0.875 0  0.07500000000000001 -0.875 0  0.09999999999999998 -0.875 0  0.125 -0.875 0  0.15 -0.875 0  0.175 -0.875 0  0.2 -0.875 0  0.225 -0.875 0  0.25 -0.875 0  -0.25 -0.85 0  -0.225 -0.85 0  -0.2 -0.85 0  -0.175 -0.85 0  -0.15 -0.85 0  -0.125 -0.85 0  -0.1 -0.85 0  -0.07500000000000001 -0.85 0  -0.04999999999999999 -0.85 0  -0.02499999999999999 -0.85 0  0 -0.85 0  0.02500000000000002 -0.85 0  0.04999999999999999 -0.85 0  0.07500000000000001 -0.85 0  0.09999999999999998 -0.85 0  0.125 -0.85 0  0.15 -0.85 0  0.175 -0.85 0  0.2 -0.85 0  0.225 -0.85 0  0.25 -0.85 0  -0.25 -0.825 0  -0.225 -0.825 0  -0.2 -0.825 0  -0.175 -0.825 0  -0.15 -0.825 0  -0.125 -0.825 0  -0.1 -0.825 0  -0.07500000000000001 -0.825 0  -0.04999999999999999 -0.825 0  -0.02499999999999999 -0.825 0  0 -0.825 0  0.02500000000000002 -0.825 0  0.04999999999999999 -0.825 0  0.07500000000000001 -0.825 0  0.09999999999999998 -0.825 0  0.125 -0.825 0  0.15 -0.825 0  0.175 -0.825 0  0.2 -0.825 0  0.225 -0.825 0  0.25 -0.825 0  -0.25 -0.8 0  -0.225 -0.8 0  -0.2 -0.8 0  -0.175 -0.8 0  -0.15 -0.8 0  -0.125 -0.8 0  -0.1 -0.8 0  -0.07500000000000001 -0.8 0  -0.04999999999999999 -0.8 0  -0.02499999999999999 -0.8 0  0 -0.8 0  0.02500000000000002 -0.8 0  0.04999999999999999 -0.8 0  0.07500000000000001 -0.8 0  0.09999999999999998 -0.8 0  0.125 -0.8 0  0.15 -0.8 0  0.175 -0.8 0  0.2 -0.8 0  0.225 -0.8 0  0.25 -0.8 0  -0.25 -0.775 0  -0.225 -0.775 0  -0.2 -0.775 0  -0.175 -0.775 0  -0.15 -0.775 0  -0.125 -0.775 0  -0.1 -0.775 0  -0.07500000000000001 -0.775 0  -0.04999999999999999 -0.775 0  -0.02499999999999999 -0.775 0  0 -0.775 0  0.02500000000000002 -0.775 0  0.04999999999999999 -0.775 0  0.07500000000000001 -0.775 0  0.09999999999999998 -0.775 0  0.125 -0.775 0  0.15 -0.775 0  0.175 -0.775 0  0.2 -0.775 0  0.225 -0.775 0  0.25 -0.775 0  -0.25 -0.75 0  -0.225 -0.75 0  -0.2 -0.75 0  -0.175 -0.75 0  -0.15 -0.75 0  -0.125 -0.75 0  -0.1 -0.75 0  -0.07500000000000001 -0.75 0  -0.04999999999999999 -0.75 0  -0.02499999999999999 -0.75 0  0 -0.75 0  0.02500000000000002 -0.75 0  0.04999999999999999 -0.75 0  0.07500000000000001 -0.75 0  0.09999999999999998 -0.75 0  0.125 -0.75 0  0.15 -0.75 0  0.175 -0.75 0  0.2 -0.75 0  0.225 -0.75 0  0.25 -0.75 0  -0.25 -0.725 0  -0.225 -0.725 0  -0.2 -0.725 0  -0.175 -0.725 0  -0.15 -0.725 0  -0.125 -0.725 0  -0.1 -0.725 0  -0.07500000000000001 -0.725 0  -0.04999999999999999 -0.725 0  -0.02499999999999999 -0.725 0  0 -0.725 0  0.02500000000000002 -0.725 0  0.04999999999999999 -0.725 0  0.07500000000000001 -0.725 0  0.09999999999999998 -0.725 0  0.125 -0.725 0  0.15 -0.725 0  0.175 -0.725 0  0.2 -0.725 0  0.225 -0.725 0  0.25 -0.725 0  -0.25 -0.7 0  -0.225 -0.7 0  -0.2 -0.7 0  -0.175 -0.7 0  -0.15 -0.7 0  -0.125 -0.7 0  -0.1 -0.7 0  -0.07500000000000001 -0.7 0  -0.04999999999999999 -0.7 0  -0.02499999999999999 -0.7 0  0 -0.7 0  0.02500000000000002 -0.7 0  0.04999999999999999 -0.7 0  0.07500000000000001 -0.7 0  0.09999999999999998 -0.7 0  0.125 -0.7 0  0.15 -0.7 0  0.175 -0.7 0  0.2 -0.7 0  0.225 -0.7 0  0.25 -0.7 0  -0.25 -0.675 0  -0.225 -0.675 0  -0.2 -0.675 0  -0.175 -0.675 0  -0.15 -0.675 0  -0.125 -0.675 0  -0.1 -0.675 0  -0.07500000000000001 -0.675 0  -0.04999999999999999 -0.675 0  -0.02499999999999999 -0.675 0  0 -0.675 0  0.02500000000000002 -0.675 0  0.04999999999999999 -0.675 0  0.07500000000000001 -0.675 0  0.09999999999999998 -0.675 0  0.125 -0.675 0  0.15 -0.675 0  0.175 -0.675 0  0.2 -0.675 0  0.225 -0.675 0  0.25 -0.675 0  -0.25 -0.65 0  -0.225 -0.65 0  -0.2 -0.65 0  -0.175 -0.65 0  -0.15 -0.65 0  -0.125 -0.65 0  -0.1 -0.65 0  -0.07500000000000001 -0.65 0  -0.04999999999999999 -0.65 0  -0.02499999999999999 -0.65 0  0 -0.65 0  0.02500000000000002 -0.65 0  0.04999999999999999 -0.65 0  0.07500000000000001 -0.65 0  0.09999999999999998 -0.65 0  0.125 -0.65 0  0.15 -0.65 0  0.175 -0.65 0  0.2 -0.65 0  0.225 -0.65 0  0.25 -0.65 0  -0.25 -0.625 0  -0.225 -0.625 0  -0.2 -0.625 0  -0.175 -0.625 0  -0.15 -0.625 0  -0.125 -0.625 0  -0.1 -0.625 0  -0.07500000000000001 -0.625 0  -0.04999999999999999 -0.625 0  -0.02499999999999999 -0.625 0  0 -0.625 0  0.02500000000000002 -0.625 0  0.04999999999999999 -0.625 0  0.07500000000000001 -0.625 0  0.09999999999999998 -0.625 0  0.125 -0.625 0  0.15 -0.625 0  0.175 -0.625 0  0.2 -0.625 0  0.225 -0.625 0  0.25 -0.625 0  -0.25 -0.6 0  -0.225 -0.6 0  -0.2 -0.6 0  -0.175 -0.6 0  -0.15 -0.6 0  -0.125 -0.6 0  -0.1 -0.6 0  -0.07500000000000001 -0.6 0  -0.04999999999999999 -0.6 0  -0.02499999999999999 -0.6 0  0 -0.6 0  0.02500000000000002 -0.6 0  0.04999999999999999 -0.6 0  0.07500000000000001 -0.6 0  0.09999999999999998 -0.6 0  0.125 -0.6 0  0.15 -0.6 0  0.175 -0.6 0  0.2 -0.6 0  0.225 -0.6 0  0.25 -0.6 0  -0.25 -0.575 0  -0.225 -0.575 0  -0.2 -0.575 0  -0.175 -0.575 0  -0.15 -0.575 0  -0.125 -0.575 0  -0.1 -0.575 0  -0.07500000000000001 -0.575 0  -0.04999999999999999 -0.575 0  -0.02499999999999999 -0.575 0  0 -0.575 0  0.02500000000000002 -0.575 0  0.04999999999999999 -0.575 0  0.07500000000000001 -0.575 0  0.09999999999999998 -0.575 0  0.125 -0.575 0  0.15 -0.575 0  0.175 -0.575 0  0.2 -0.575 0  0.225 -0.575 0  0.25 -0.575 0  -0.25 -0.55 0  -0.225 -0.55 0  -0.2 -0.55 0  -0.175 -0.55 0  -0.15 -0.55 0  -0.125 -0.55 0  -0.1 -0.55 0  -0.07500000000000001 -0.55 0  -0.04999999999999999 -0.55 0  -0.02499999999999999 -0.55 0  0 -0.55 0  0.02500000000000002 -0.55 0  0.04999999999999999 -0.55 0  0.07500000000000001 -0.55 0  0.09999999999999998 -0.55 0  0.125 -0.55 0  0.15 -0.55 0  0.175 -0.55 0  0.2 -0.55 0  0.225 -0.55 0  0.25 -0.55 0  -0.25 -0.525 0  -0.225 -0.525 0  -0.2 -0.525 0  -0.175 -0.525 0  -0.15 -0.525 0  -0.125 -0.525 0  -0.1 -0.525 0  -0.07500000000000001 -0.525 0  -0.04999999999999999 -0.525 0  -0.02499999999999999 -0.525 0  0 -0.525 0  0.02500000000000002 -0.525 0  0.04999999999999999 -0.525 0  0.07500000000000001 -0.525 0  0.09999999999999998 -0.525 0  0.125 -0.525 0  0.15 -0.525 0  0.175 -0.525 0  0.2 -0.525 0  0.225 -0.525 0  0.25 -0.525 0  -0.25 -0.5 0  -0.225 -0.5 0  -0.2 -0.5 0  -0.175 -0.5 0  -0.15 -0.5 0  -0.125 -0.5 0  -0.1 -0.5 0  -0.07500000000000001 -0.5 0  -0.04999999999999999 -0.5 0  -0.02499999999999999 -0.5 0  0 -0.5 0  0.02500000000000002 -0.5 0  0.04999999999999999 -0.5 0  0.07500000000000001 -0.5 0  0.09999999999999998 -0.5 0  0.125 -0.5 0  0.15 -0.5 0  0.175 -0.5 0  0.2 -0.5 0  0.225 -0.5 0  0.25 -0.5 0  -0.25 -0.475 0  -0.225 -0.475 0  -0.2 -0.475 0  -0.175 -0.475 0  -0.15 -0.475 0  -0.125 -0.475 0  -0.1 -0.475 0  -0.07500000000000001 -0.475 0  -0.04999999999999999 -0.475 0  -0.02499999999999999 -0.475 0  0 -0.475 0  0.02500000000000002 -0.475 0  0.04999999999999999 -0.475 0  0.07500000000000001 -0.475 0  0.09999999999999998 -0.475 0  0.125 -0.475 0  0.15 -0.475 0  0.175 -0.475 0  0.2 -0.475 0  0.225 -0.475 0  0.25 -0.475 0  -0.25 -0.45 0  -0.225 -0.45 0  -0.2 -0.45 0  -0.175 -0.45 0  -0.15 -0.45 0  -0.125 -0.45 0  -0.1 -0.45 0  -0.07500000000000001 -0.45 0  -0.04999999999999999 -0.45 0  -0.02499999999999999 -0.45 0  0 -0.45 0  0.02500000000000002 -0.45 0  0.04999999999999999 -0.45 0  0.07500000000000001 -0.45 0  0.09999999999999998 -0.45 0  0.125 -0.45 0  0.15 -0.45 0  0.175 -0.45 0  0.2 -0.45 0  0.225 -0.45 0  0.25 -0.45 0  -0.25 -0.425 0  -0.225 -0.425 0  -0.2 -0.425 0  -0.175 -0.425 0  -0.15 -0.425 0  -0.125 -0.425 0  -0.1 -0.425 0  -0.07500000000000001 -0.425 0  -0.04999999999999999 -0.425 0  -0.02499999999999999 -0.425 0  0 -0.425 0  0.02500000000000002 -0.425 0  0.04999999999999999 -0.425 0  0.07500000000000001 -0.425 0  0.
[...]
<PointData  Vectors="displacement"> 
<DataArray  type="Float64"  Name="displacement"  NumberOfComponents="3" format="ascii">9.0277966143151869e-34 3.0493186101154847e-18 0.0000000000000000e+00  1.8055593228630363e-33 -8.8938459461701670e-19 0.0000000000000000e+00  -2.5390677977761443e-32 4.3049787799709826e-18 0.0000000000000000e+00  5.0555661040165007e-32 3.5575383784680660e-18 0.0000000000000000e+00  -5.8049051338277172e-32 -2.6302069873406115e-19 0.0000000000000000e+00  7.2222372914521443e-32 3.8116482626443563e-19 0.0000000000000000e+00  -5.2603683292040678e-32 -1.7286980242075093e-18 0.0000000000000000e+00  1.2277803395468644e-31 3.8116482626443563e-19 0.0000000000000000e+00  1.0086485985082225e-31 1.5266240177783564e-18 0.0000000000000000e+00  -2.8888949165808587e-32 -8.8938459461701690e-19 0.0000000000000000e+00  -4.7813672524508060e-32 3.8115426779908000e-19 0.0000000000000000e+00  5.7777898331617196e-32 5.0821976835258126e-19 0.0000000000000000e+00  -1.2905043001723929e-31 5.0792172955968977e-19 0.0000000000000000e+00  1.8055593228630354e-31 1.3976043629695969e-18 0.0000000000000000e+00  1.8426919840646265e-31 -5.7819525820855358e-20 0.0000000000000000e+00  -3.9722305102986756e-32 3.8116482626443530e-19 0.0000000000000000e+00  2.2616578342838785e-32 7.6203160581636807e-19 0.0000000000000000e+00  -3.9722305102986783e-32 -8.8938459461701632e-19 0.0000000000000000e+00  5.0476516168087230e-32 2.7316812548951213e-18 0.0000000000000000e+00  3.6111186457260748e-33 1.5246593050577437e-18 0.0000000000000000e+00  1.8055593228630346e-33 0.0000000000000000e+00 0.0000000000000000e+00  -1.8055593228630314e-32 -1.5733628817426216e-02 0.0000000000000000e+00  -9.2324768827972891e-17 -1.5733628817426189e-02 0.0000000000000000e+00  -1.8556819897134119e-16 -1.5733628817426196e-02 0.0000000000000000e+00  -2.8319724533728764e-16 -1.5733628817426220e-02 0.0000000000000000e+00  -3.7648509313320073e-16 -1.5733628817426227e-02 0.0000000000000000e+00  -4.6632464358148758e-16 -1.5733628817426272e-02 0.0000000000000000e+00  -5.5324690472265350e-16 -1.5733628817426289e-02 0.0000000000000000e+00  -6.2592455156752568e-16 -1.5733628817426341e-02 0.0000000000000000e+00  -6.8526438149385852e-16 -1.5733628817426400e-02 0.0000000000000000e+00  -7.3008154503820655e-16 -1.5733628817426459e-02 0.0000000000000000e+00  -7.5664301617156174e-16 -1.5733628817426543e-02 0.0000000000000000e+00  -7.5293535793138357e-16 -1.5733628817426640e-02 0.0000000000000000e+00  -7.1735186479637712e-16 -1.5733628817426713e-02 0.0000000000000000e+00  -6.6178060423743781e-16 -1.5733628817426761e-02 0.0000000000000000e+00  -5.8951848575651725e-16 -1.5733628817426813e-02 0.0000000000000000e+00  -5.1083778456076623e-16 -1.5733628817426869e-02 0.0000000000000000e+00  -4.2424680854766642e-16 -1.5733628817426910e-02 0.0000000000000000e+00  -3.2859149378827776e-16 -1.5733628817426935e-02 0.0000000000000000e+00  -2.2905187506991457e-16 -1.5733628817426976e-02 0.0000000000000000e+00  -1.1773842261385876e-16 -1.5733628817426983e-02 0.0000000000000000e+00  1.3297045159707842e-32 -1.5733628817426997e-02 0.0000000000000000e+00  3.4815245186461857e-33 -3.1471633311538530e-02 0.0000000000000000e+00  -1.7108482734431029e-16 -3.1471633311538565e-02 0.0000000000000000e+00  -3.4104094679465461e-16 -3.1471633311538551e-02 0.0000000000000000e+00  -5.1871757020869051e-16 -3.1471633311538572e-02 0.0000000000000000e+00  -6.9685572866191404e-16 -3.1471633311538648e-02 0.0000000000000000e+00  -8.5323514476261679e-16 -3.1471633311538662e-02 0.0000000000000000e+00  -9.9974593568384781e-16 -3.1471633311538773e-02 0.0000000000000000e+00  -1.1347127115063758e-15 -3.1471633311538849e-02 0.0000000000000000e+00  -1.2398420762258201e-15 -3.1471633311538988e-02 0.0000000000000000e+00  -1.3210147701030752e-15 -3.1471633311539141e-02 0.0000000000000000e+00  -1.3600594163969257e-15 -3.1471633311539279e-02 0.0000000000000000e+00  -1.3493710994132065e-15 -3.1471633311539508e-02 0.0000000000000000e+00  -1.2955237512068484e-15 -3.1471633311539640e-02 0.0000000000000000e+00  -1.1983864972945976e-15 -3.1471633311539800e-02 0.0000000000000000e+00  -1.0762675885234869e-15 -3.1471633311539904e-02 0.0000000000000000e+00  -9.3004989121772160e-16 -3.1471633311539966e-02 0.0000000000000000e+00  -7.7014407470763906e-16 -3.1471633311540063e-02 0.0000000000000000e+00  -5.9534567856393906e-16 -3.1471633311540126e-02 0.0000000000000000e+00  -4.0294253265664197e-16 -3.1471633311540209e-02 0.0000000000000000e+00  -2.0473583541995901e-16 -3.1471633311540223e-02 0.0000000000000000e+00  2.4761956427835881e-32 -3.1471633311540272e-02 0.0000000000000000e+00  4.6944542394438874e-32 -4.7218382412114103e-02 0.0000000000000000e+00  -2.4227993965729839e-16 -4.7218382412114075e-02 0.0000000000000000e+00  -4.8337371574498074e-16 -4.7218382412114041e-02 0.0000000000000000e+00  -7.1909432462738069e-16 -4.7218382412114089e-02 0.0000000000000000e+00  -9.5489429373200079e-16 -4.7218382412114165e-02 0.0000000000000000e+00  -1.1711548391104302e-15 -4.7218382412114249e-02 0.0000000000000000e+00  -1.3758960578547908e-15 -4.7218382412114360e-02 0.0000000000000000e+00  -1.5502123692752269e-15 -4.7218382412114554e-02 0.0000000000000000e+00  -1.6880886894610633e-15 -4.7218382412114762e-02 0.0000000000000000e+00  -1.7919064434505666e-15 -4.7218382412114963e-02 0.0000000000000000e+00  -1.8398150490488066e-15 -4.7218382412115248e-02 0.0000000000000000e+00  -1.8291843416587878e-15 -4.7218382412115567e-02 0.0000000000000000e+00  -1.7538134540097533e-15 -4.7218382412115810e-02 0.0000000000000000e+00  -1.6277308397314210e-15 -4.7218382412116074e-02 0.0000000000000000e+00  -1.4729789282592616e-15 -4.7218382412116226e-02 0.0000000000000000e+00  -1.2770133024368444e-15 -4.7218382412116344e-02 0.0000000000000000e+00  -1.0475965349364205e-15 -4.7218382412116497e-02 0.0000000000000000e+00  -8.0135669119334536e-16 -4.7218382412116601e-02 0.0000000000000000e+00  -5.5347170146264366e-16 -4.7218382412116705e-02 0.0000000000000000e+00  -2.8128560360610756e-16 -4.7218382412116816e-02 0.0000000000000000e+00  7.2222372914521317e-33 -4.7218382412116795e-02 0.0000000000000000e+00  -2.5047727500908980e-32 -6.2978231565514062e-02 0.0000000000000000e+00  -3.0010917971216951e-16 -6.2978231565514103e-02 0.0000000000000000e+00  -5.9560574918399627e-16 -6.2978231565514159e-02 0.0000000000000000e+00  -8.8944632024113778e-16 -6.2978231565514131e-02 0.0000000000000000e+00  -1.1767489402728434e-15 -6.2978231565514201e-02 0.0000000000000000e+00  -1.4372968247358007e-15 -6.2978231565514381e-02 0.0000000000000000e+00  -1.6690630997232806e-15 -6.2978231565514436e-02 0.0000000000000000e+00  -1.8671591488597969e-15 -6.2978231565514825e-02 0.0000000000000000e+00  -2.0359543018256658e-15 -6.2978231565515047e-02 0.0000000000000000e+00  -2.1674889552352271e-15 -6.2978231565515366e-02 0.0000000000000000e+00  -2.2255508297258352e-15 -6.2978231565515810e-02 0.0000000000000000e+00  -2.2118316597196779e-15 -6.2978231565516227e-02 0.0000000000000000e+00  -2.1215694556456696e-15 -6.2978231565516657e-02 0.0000000000000000e+00  -1.9783709762701316e-15 -6.2978231565516921e-02 0.0000000000000000e+00  -1.7959130820558799e-15 -6.2978231565517115e-02 0.0000000000000000e+00  -1.5476258112536426e-15 -6.2978231565517392e-02 0.0000000000000000e+00  -1.2730011525364755e-15 -6.2978231565517573e-02 0.0000000000000000e+00  -9.7296336962216553e-16 -6.2978231565517725e-02 0.0000000000000000e+00  -6.5997967819982620e-16 -6.2978231565517823e-02 0.0000000000000000e+00  -3.4041588699376973e-16 -6.2978231565517934e-02 0.0000000000000000e+00  1.3377335622063113e-32 -6.2978231565517961e-02 0.0000000000000000e+00  6.5000135623069287e-32 -7.8755516018965702e-02 0.0000000000000000e+00  -3.3826752946427507e-16 -7.8755516018965743e-02 0.0000000000000000e+00  -6.8546173026847913e-16 -7.8755516018965632e-02 0.0000000000000000e+00  -1.0284377962902946e-15 -7.8755516018965799e-02 0.0000000000000000e+00  -1.3365882165570606e-15 -7.8755516018965910e-02 0.0000000000000000e+00  -1.6397419635835132e-15 -7.8755516018966132e-02 0.0000000000000000e+00  -1.9037822197339605e-15 -7.8755516018966409e-02 0.0000000000000000e+00  -2.1227910097098090e-15 -7.8755516018966576e-02 0.0000000000000000e+00  -2.3134814959889681e-15 -7.8755516018966923e-02 0.0000000000000000e+00  -2.4379774957055472e-15 -7.8755516018967353e-02 0.0000000000000000e+00  -2.5137873110821462e-15 -7.8755516018967978e-02 0.0000000000000000e+00  -2.5079656305417037e-15 -7.8755516018968449e-02 0.0000000000000000e+00  -2.4191802991028844e-15 -7.8755516018968935e-02 0.0000000000000000e+00  -2.2697004295663171e-15 -7.8755516018969435e-02 0.0000000000000000e+00  -2.0231527061811658e-15 -7.8755516018969754e-02 0.0000000000000000e+00  -1.7521577636451936e-15 -7.8755516018970018e-02 0.0000000000000000e+00  -1.4600824737335008e-15 -7.8755516018970267e-02 0.0000000000000000e+00  -1.1112972984961657e-15 -7.8755516018970420e-02 0.0000000000000000e+00  -7.5583479230992014e-16 -7.8755516018970559e-02 0.0000000000000000e+00  -3.8491986664700187e-16 -7.8755516018970601e-02 0.0000000000000000e+00  1.4939945451775871e-32 -7.8755516018970878e-02 0.0000000000000000e+00  -4.3684957764829440e-32 -9.4554544135986615e-02 0.0000000000000000e+00  -3.8790405733336286e-16 -9.4554544135986560e-02 0.0000000000000000e+00  -7.5021359534194119e-16 -9.4554544135986601e-02 0.0000000000000000e+00  -1.1132206947964800e-15 -9.4554544135986671e-02 0.0000000000000000e+00  -1.4644299101004721e-15 -9.4554544135986837e-02 0.0000000000000000e+00  -1.7899658415215846e-15 -9.4554544135987087e-02 0.0000000000000000e+00  -2.0950849699311486e-15 -9.4554544135987448e-02 0.0000000000000000e+00  -2.3407961373968848e-15 -9.4554544135987878e-02 0.0000000000000000e+00  -2.5365110818301128e-15 -9.4554544135988072e-02 0.0000000000000000e+00  -2.6705009595572492e-15 -9.4554544135988614e-02 0.0000000000000000e+00  -2.7306134673602207e-15 -9.4554544135989113e-02 0.0000000000000000e+00  -2.7269360444804819e-15 -9.4554544135989987e-02 0.0000000000000000e+00  -2.6349892740024443e-15 -9.4554544135990570e-02 0.0000000000000000e+00  -2.4610573225291503e-15 -9.4554544135991112e-02 0.0000000000000000e+00  -2.2150421239774006e-15 -9.4554544135991805e-02 0.0000000000000000e+00  -1.9156111117288232e-15 -9.4554544135991875e-02 0.0000000000000000e+00  -1.5863390854880570e-15 -9.4554544135992208e-02 0.0000000000000000e+00  -1.2314646704960026e-15 -9.4554544135992444e-02 0.0000000000000000e+00  -8.2625771161779896e-16 -9.4554544135992610e-02 0.0000000000000000e+00  -4.0389073796764060e-16 -9.4554544135992777e-02 0.0000000000000000e+00  8.7698595681918568e-33 -9.4554544135992860e-02 0.0000000000000000e+00  6.5000135623069210e-32 -1.1037959075325879e-01 0.0000000000000000e+00  -4.0507520457272635e-16 -1.1037959075325877e-01 0.0000000000000000e+00  -8.0381930669729058e-16 -1.1037959075325876e-01 0.0000000000000000e+00  -1.1996267452343597e-15 -1.1037959075325894e-01 0.0000000000000000e+00  -1.5878829335014178e-15 -1.1037959075325911e-01 0.0000000000000000e+00  -1.9394068654619698e-15 -1.1037959075325934e-01 0.0000000000000000e+00  -2.2484787871919877e-15 -1.1037959075325972e-01 0.0000000000000000e+00  -2.5236007471848364e-15 -1.1037959075326008e-01 0.0000000000000000e+00  -2.7128761367004886e-15 -1.1037959075326068e-01 0.0000000000000000e+00  -2.8534156020785267e-15 -1.1037959075326134e-01 0.0000000000000000e+00  -2.9154866755321768e-15 -1.1037959075326209e-01 0.0000000000000000e+00  -2.8880992042913780e-15 -1.1037959075326288e-01 0.0000000000000000e+00  -2.7898432951851391e-15 -1.1037959075326352e-01 0.0000000000000000e+00  -2.5899843300782191e-15 -1.1037959075326426e-01 0.0000000000000000e+00  -2.3517885502176836e-15 -1.1037959075326477e-01 0.0000000000000000e+00  -2.0404402108828289e-15 -1.1037959075326520e-01 0.0000000000000000e+00  -1.6759814959915684e-15 -1.1037959075326559e-01 0.0000000000000000e+00  -1.3132695561482529e-15 -1.1037959075326574e-01 0.0000000000000000e+00  -8.8296032373962539e-16 -1.1037959075326616e-01 0.0000000000000000e+00  -4.2576560568311313e-16 -1.1037959075326623e-01 0.0000000000000000e+00  7.9444610205973446e-32 -1.1037959075326628e-01 0.0000000000000000e+00  -6.8197599126637447e-32 -1.2623489058919407e-01 0.0000000000000000e+00  -4.3766938635435958e-16 -1.2623489058919402e-01 0.0000000000000000e+00  -8.6944783102813292e-16 -1.2623489058919399e-01 0.0000000000000000e+00  -1.2853083067169596e-15 -1.2623489058919415e-01 0.0000000000000000e+00  -1.6924126871287401e-15 -1.2623489058919449e-01 0.0000000000000000e+00  -2.0635864551355246e-15 -1.2623489058919474e-01 0.0000000000000000e+00  -2.3851171134905814e-15 -1.2623489058919521e-01 0.0000000000000000e+00  -2.6630019449717668e-15 -1.2623489058919568e-01 0.0000000000000000e+00  -2.8434608662643311e-15 -1.2623489058919629e-01 0.0000000000000000e+00  -2.9728722821193124e-15 -1.2623489058919704e-01 0.0000000000000000e+00  -3.0673446311653470e-15 -1.2623489058919793e-01 0.0000000000000000e+00  -3.0517658921606410e-15 -1.2623489058919882e-01 0.0000000000000000e+00  -2.9143744280142356e-15 -1.2623489058919965e-01 0.0000000000000000e+00  -2.7185792154413115e-15 -1.2623489058920040e-01 0.0000000000000000e+00  -2.4617599721501508e-15 -1.2623489058920115e-01 0.0000000000000000e+00  -2.1524911888168449e-15 -1.2623489058920159e-01 0.0000000000000000e+00  -1.7685150460798513e-15 -1.2623489058920187e-01 0.0000000000000000e+00  -1.3360639284997746e-15 -1.2623489058920223e-01 0.0000000000000000e+00  -9.0458031207800846e-16 -1.2623489058920256e-01 0.0000000000000000e+00  -4.7740719236307960e-16 -1.2623489058920281e-01 0.0000000000000000e+00  8.1867933792134727e-33 -1.2623489058920279e-01 0.0000000000000000e+00  3.6111186457260628e-32 -1.4212463171435372e-01 0.0000000000000000e+00  -4.8402284235269108e-16 -1.4212463171435369e-01 0.0000000000000000e+00  -9.4214504181594956e-16 -1.4212463171435372e-01 0.0000000000000000e+00  -1.3537598306556323e-15 -1.4212463171435391e-01 0.0000000000000000e+00  -1.7660557724063584e-15 -1.4212463171435402e-01 0.0000000000000000e+00  -2.1540408480310446e-15 -1.4212463171435441e-01 0.0000000000000000e+00  -2.4902629386531066e-15 -1.4212463171435488e-01 0.0000000000000000e+00  -2.7598596533636957e-15 -1.4212463171435563e-01 0.0000000000000000e+00  -2.9603549531958723e-15 -1.4212463171435638e-01 0.0000000000000000e+00  -3.1173240389454480e-15 -1.4212463171435707e-01 0.0000000000000000e+00  -3.1833270829437312e-15 -1.4212463171435799e-01 0.0000000000000000e+00  -3.1603519433469777e-15 -1.4212463171435916e-01 0.0000000000000000e+00  -3.0301089279357021e-15 -1.4212463171436004e-01 0.0000000000000000e+00  -2.8249127085129892e-15 -1.4212463171436099e-01 0.0000000000000000e+00  -2.5699815262764721e-15 -1.4212463171436154e-01 0.0000000000000000e+00  -2.2223387520022757e-15 -1.4212463171436227e-01 0.0000000000000000e+00  -1.8411041569259750e-15 -1.4212463171436276e-01 0.0000000000000000e+00  -1.3889761507995096e-15 -1.4212463171436301e-01 0.0000000000000000e+00  -9.3770769175396934e-16 -1.4212463171436349e-01 0.0000000000000000e+00  -4.7721843196115572e-16 -1.4212463171436368e-01 0.0000000000000000e+00  8.7607536851670996e-32 -1.4212463171436363e-01 0.0000000000000000e+00  4.3072245869857989e-32 -1.5805294909378959e-01 0.0000000000000000e+00  -5.1657517548909108e-16 -1.5805294909378967e-01 0.0000000000000000e+00  -9.9365466403214915e-16 -1.5805294909378950e-01 0.0000000000000000e+00  -1.4158728936522812e-15 -1.5805294909378984e-01 0.0000000000000000e+00  -1.8295374631649382e-15 -1.5805294909378986e-01 0.0000000000000000e+00  -2.2053523274275926e-15 -1.5805294909379064e-01 0.0000000000000000e+00  -2.5753730108683561e-15 -1.5805294909379131e-01 0.0000000000000000e+00  -2.8487835215964579e-15 -1.5805294909379172e-01 0.0000000000000000e+00  -3.0712291324707926e-15 -1.5805294909379244e-01 0.0000000000000000e+00  -3.2110006680168567e-15 -1.5805294909379361e-01 0.0000000000000000e+00  -3.2581322425945359e-15 -1.5805294909379466e-01 0.0000000000000000e+00  -3.2354384333509847e-15 -1.5805294909379575e-01 0.0000000000000000e+00  -3.1079223064288442e-15 -1.5805294909379700e-01 0.0000000000000000e+00  -2.8989701863231270e-15 -1.5805294909379797e-01 0.0000000000000000e+00  -2.6223964855043393e-15 -1.5805294909379880e-01 0.0000000000000000e+00  -2.3003873556477013e-15 -1.5805294909379916e-01 0.0000000000000000e+00  -1.9054857812062264e-15 -1.5805294909379985e-01 0.0000000000000000e+00  -1.4485293628360855e-15 -1.5805294909380035e-01 0.0000000000000000e+00  -9.7788374932879508e-16 -1.5805294909380052e-01 0.0000000000000000e+00  -5.0849898672470796e-16 -1.5805294909380069e-01 0.0000000000000000e+00  7.2222372914521454e-33 -1.5805294909380080e-01 0.0000000000000000e+00  -2.8888949165808505e-32 -1.7402391821126453e-01 0.0000000000000000e+00  -5.3080488834591810e-16 -1.7402391821126453e-01 0.0000000000000000e+00  -1.0098590003534777e-15 -1.7402391821126470e-01 0.0000000000000000e+00  -1.4933649027733213e-15 -1.7402391821126484e-01 0.0000000000000000e+00  -1.9009058679185963e-15 -1.7402391821126512e-01 0.0000000000000000e+00  -2.2718089841556158e-15 -1.7402391821126570e-01 0.0000000000000000e+00  -2.6215014427079475e-15 -1.7402391821126612e-01 0.0000000000000000e+00  -2.8781121772263526e-15 -1.7402391821126695e-01 0.0000000000000000e+00  -3.1253855141968600e-15 -1.7402391821126789e-01 0.0000000000000000e+00  -3.2639114678171118e-15 -1.7402391821126886e-01 0.0000000000000000e+00  -3.3120200635279640e-15 -1.7402391821127017e-01 0.0000000000000000e+00  -3.3004379684268189e-15 -1.7402391821127136e-01 0.0000000000000000e+00  -3.2032174722150466e-15 -1.7402391821127269e-01 0.0000000000000000e+00  -2.9923269694817594e-15 -1.7402391821127380e-01 0.0000000000000000e+00  -2.6911750734058263e-15 -1.7402391821127436e-01 0.0000000000000000e+00  -2.3375308904906693e-15 -1.7402391821127539e-01 0.0000000000000000e+00  -1.9397453537198524e-15 -1.7402391821127602e-01 0.0000000000000000e+00  -1.4924796629782181e-15 -1.7402391821127647e-01 0.0000000000000000e+00  -1.0291114449071018e-15 -1.7402391821127677e-01 0.0000000000000000e+00  -5.2294112079718622e-16 -1.7402391821127700e-01 0.0000000000000000e+00  1.0111132208032971e-31 -1.7402391821127705e-01 0.0000000000000000e+00  -5.0668508497843881e-32 -1.9004154878518070e-01 0.0000000000000000e+00  -5.1807755793607331e-16 -1.9004154878518095e-01 0.0000000000000000e+00  -1.0384891148488775e-15 -1.9004154878518101e-01 0.0000000000000000e+00  -1.5502612638038621e-15 -1.9004154878518098e-01 0.0000000000000000e+00  -2.0015381944931416e-15 -1.9004154878518167e-01 0.0000000000000000e+00  -2.3712394563117798e-15 -1.9004154878518184e-01 0.0000000000000000e+00  -2.6825270780704841e-15 -1.9004154878518295e-01 0.0000000000000000e+00  -2.9275528141117043e-15 -1.9004154878518345e-01 0.0000000000000000e+00  -3.1660310922730310e-15 -1.9004154878518439e-01 0.0000000000000000e+00  -3.3382855820488489e-15 -1.9004154878518573e-01 0.0000000000000000e+00  -3.4132793057846987e-15 -1.9004154878518684e-01 0.0000000000000000e+00  -3.3729949758210672e-15 -1.9004154878518831e-01 0.0000000000000000e+00  -3.2793198311661642e-15 -1.9004154878518953e-01 0.0000000000000000e+00  -3.0623403033264733e-15 -1.9004154878519108e-01 0.0000000000000000e+00  -2.7420284928926003e-15 -1.9004154878519205e-01 0.0000000000000000e+00  -2.3824134773785570e-15 -1.9004154878519267e-01 0.0000000000000000e+00  -1.9789315825831800e-15 -1.9004154878519344e-01 0.0000000000000000e+00  -1.5553754670935900e-15 -1.9004154878519403e-01 0.0000000000000000e+00  -1.0613117150385859e-15 -1.9004154878519441e-01 0.0000000000000000e+00  -5.2399753169274245e-16 -1.9004154878519441e-01 0.0000000000000000e+00  2.1323249113236264e-32 -1.9004154878519483e-01 0.0000000000000000e+00  2.8888949165808538e-32 -2.0610977858590698e-01 0.0000000000000000e+00  -5.3604383204468007e-16 -2.0610977858590698e-01 0.0000000000000000e+00  -1.0675139491931583e-15 -2.0610977858590732e-01 0.0000000000000000e+00  -1.5425380671000877e-15 -2.0610977858590734e-01 0.0