<?xml version="1.0"?>
<VTKFile type="UnstructuredGrid"  version="0.1"  >
<UnstructuredGrid>
<Piece  NumberOfPoints="1091" NumberOfCells="2050">
<Points>
<DataArray  type="Float64"  NumberOfComponents="3"  format="ascii">-0.5 -1 0  -0.4 -1 0  -0.3 -1 0  -0.2 -1 0  -0.09999999999999998 -1 0  0 -1 0  0.09999999999999998 -1 0  0.2 -1 0  0.3 -1 0  0.4 -1 0  0.5 -1 0  -0.5 -0.98 0  -0.4 -0.98 0  -0.3 -0.98 0  -0.2 -0.98 0  -0.09999999999999998 -0.98 0  0 -0.98 0  0.09999999999999998 -0.98 0  0.2 -0.98 0  0.3 -0.98 0  0.4 -0.98 0  0.5 -0.98 0  -0.5 -0.96 0  -0.4 -0.96 0  -0.3 -0.96 0  -0.2 -0.96 0  -0.09999999999999998 -0.96 0  0 -0.96 0  0.09999999999999998 -0.96 0  0.2 -0.96 0  0.3 -0.96 0  0.4 -0.96 0  0.5 -0.96 0  -0.5 -0.9399999999999999 0  -0.4 -0.9399999999999999 0  -0.3 -0.9399999999999999 0  -0.2 -0.9399999999999999 0  -0.09999999999999998 -0.9399999999999999 0  0 -0.9399999999999999 0  0.09999999999999998 -0.9399999999999999 0  0.2 -0.9399999999999999 0  0.3 -0.9399999999999999 0  0.4 -0.9399999999999999 0  0.5 -0.9399999999999999 0  -0.5 -0.92 0  -0.4 -0.92 0  -0.3 -0.92 0  -0.2 -0.92 0  -0.09999999999999998 -0.92 0  0 -0.92 0  0.09999999999999998 -0.92 0  0.2 -0.92 0  0.3 -0.92 0  0.4 -0.92 0  0.5 -0.92 0  -0.5 -0.9 0  -0.4 -0.9 0  -0.3 -0.9 0  -0.2 -0.9 0  -0.09999999999999998 -0.9 0  0 -0.9 0  0.09999999999999998 -0.9 0  0.2 -0.9 0  0.3 -0.9 0  0.4 -0.9 0  0.5 -0.9 0  -0.5 -0.88 0  -0.4 -0.88 0  -0.3 -0.88 0  -0.2 -0.88 0  -0.09999999999999998 -0.88 0  0 -0.88 0  0.09999999999999998 -0.88 0  0.2 -0.88 0  0.3 -0.88 0  0.4 -0.88 0  0.5 -0.88 0  -0.5 -0.86 0  -0.4 -0.86 0  -0.3 -0.86 0  -0.2 -0.86 0  -0.09999999999999998 -0.86 0  0 -0.86 0  0.09999999999999998 -0.86 0  0.2 -0.86 0  0.3 -0.86 0  0.4 -0.86 0  0.5 -0.86 0  -0.5 -0.84 0  -0.4 -0.84 0  -0.3 -0.84 0  -0.2 -0.84 0  -0.09999999999999998 -0.84 0  0 -0.84 0  0.09999999999999998 -0.84 0  0.2 -0.84 0  0.3 -0.84 0  0.4 -0.84 0  0.5 -0.84 0  -0.5 -0.8200000000000001 0  -0.4 -0.8200000000000001 0  -0.3 -0.8200000000000001 0  -0.2 -0.8200000000000001 0  -0.09999999999999998 -0.8200000000000001 0  0 -0.8200000000000001 0  0.09999999999999998 -0.8200000000000001 0  0.2 -0.8200000000000001 0  0.3 -0.8200000000000001 0  0.4 -0.8200000000000001 0  0.5 -0.8200000000000001 0  -0.5 -0.8 0  -0.4 -0.8 0  -0.3 -0.8 0  -0.2 -0.8 0  -0.09999999999999998 -0.8 0  0 -0.8 0  0.09999999999999998 -0.8 0  0.2 -0.8 0  0.3 -0.8 0  0.4 -0.8 0  0.5 -0.8 0  -0.5 -0.78 0  -0.4 -0.78 0  -0.3 -0.78 0  -0.2 -0.78 0  -0.09999999999999998 -0.78 0  0 -0.78 0  0.09999999999999998 -0.78 0  0.2 -0.78 0  0.3 -0.78 0  0.4 -0.78 0  0.5 -0.78 0  -0.5 -0.76 0  -0.4 -0.76 0  -0.3 -0.76 0  -0.2 -0.76 0  -0.09999999999999998 -0.76 0  0 -0.76 0  0.09999999999999998 -0.76 0  0.2 -0.76 0  0.3 -0.76 0  0.4 -0.76 0  0.5 -0.76 0  -0.5 -0.74 0  -0.4 -0.74 0  -0.3 -0.74 0  -0.2 -0.74 0  -0.09999999999999998 -0.74 0  0 -0.74 0  0.09999999999999998 -0.74 0  0.2 -0.74 0  0.3 -0.74 0  0.4 -0.74 0  0.5 -0.74 0  -0.5 -0.72 0  -0.4 -0.72 0  -0.3 -0.72 0  -0.2 -0.72 0  -0.09999999999999998 -0.72 0  0 -0.72 0  0.09999999999999998 -0.72 0  0.2 -0.72 0  0.3 -0.72 0  0.4 -0.72 0  0.5 -0.72 0  -0.5 -0.7 0  -0.4 -0.7 0  -0.3 -0.7 0  -0.2 -0.7 0  -0.09999999999999998 -0.7 0  0 -0.7 0  0.09999999999999998 -0.7 0  0.2 -0.7 0  0.3 -0.7 0  0.4 -0.7 0  0.5 -0.7 0  -0.5 -0.6799999999999999 0  -0.4 -0.6799999999999999 0  -0.3 -0.6799999999999999 0  -0.2 -0.6799999999999999 0  -0.09999999999999998 -0.6799999999999999 0  0 -0.6799999999999999 0  0.09999999999999998 -0.6799999999999999 0  0.2 -0.6799999999999999 0  0.3 -0.6799999999999999 0  0.4 -0.6799999999999999 0  0.5 -0.6799999999999999 0  -0.5 -0.6599999999999999 0  -0.4 -0.6599999999999999 0  -0.3 -0.6599999999999999 0  -0.2 -0.6599999999999999 0  -0.09999999999999998 -0.6599999999999999 0  0 -0.6599999999999999 0  0.09999999999999998 -0.6599999999999999 0  0.2 -0.6599999999999999 0  0.3 -0.6599999999999999 0  0.4 -0.6599999999999999 0  0.5 -0.6599999999999999 0  -0.5 -0.64 0  -0.4 -0.64 0  -0.3 -0.64 0  -0.2 -0.64 0  -0.09999999999999998 -0.64 0  0 -0.64 0  0.09999999999999998 -0.64 0  0.2 -0.64 0  0.3 -0.64 0  0.4 -0.64 0  0.5 -0.64 0  -0.5 -0.62 0  -0.4 -0.62 0  -0.3 -0.62 0  -0.2 -0.62 0  -0.09999999999999998 -0.62 0  0 -0.62 0  0.09999999999999998 -0.62 0  0.2 -0.62 0  0.3 -0.62 0  0.4 -0.62 0  0.5 -0.62 0  -0.5 -0.6 0  -0.4 -0.6 0  -0.3 -0.6 0  -0.2 -0.6 0  -0.09999999999999998 -0.6 0  0 -0.6 0  0.09999999999999998 -0.6 0  0.2 -0.6 0  0.3 -0.6 0  0.4 -0.6 0  0.5 -0.6 0  -0.5 -0.5800000000000001 0  -0.4 -0.5800000000000001 0  -0.3 -0.5800000000000001 0  -0.2 -0.5800000000000001 0  -0.09999999999999998 -0.5800000000000001 0  0 -0.5800000000000001 0  0.09999999999999998 -0.5800000000000001 0  0.2 -0.5800000000000001 0  0.3 -0.5800000000000001 0  0.4 -0.5800000000000001 0  0.5 -0.5800000000000001 0  -0.5 -0.5600000000000001 0  -0.4 -0.5600000000000001 0  -0.3 -0.5600000000000001 0  -0.2 -0.5600000000000001 0  -0.09999999999999998 -0.5600000000000001 0  0 -0.5600000000000001 0  0.09999999999999998 -0.5600000000000001 0  0.2 -0.5600000000000001 0  0.3 -0.5600000000000001 0  0.4 -0.5600000000000001 0  0.5 -0.5600000000000001 0  -0.5 -0.54 0  -0.4 -0.54 0  -0.3 -0.54 0  -0.2 -0.54 0  -0.09999999999999998 -0.54 0  0 -0.54 0  0.09999999999999998 -0.54 0  0.2 -0.54 0  0.3 -0.54 0  0.4 -0.54 0  0.5 -0.54 0  -0.5 -0.52 0  -0.4 -0.52 0  -0.3 -0.52 0  -0.2 -0.52 0  -0.09999999999999998 -0.52 0  0 -0.52 0  0.09999999999999998 -0.52 0  0.2 -0.52 0  0.3 -0.52 0  0.4 -0.52 0  0.5 -0.52 0  -0.5 -0.5 0  -0.4 -0.5 0  -0.3 -0.5 0  -0.2 -0.5 0  -0.09999999999999998 -0.5 0  0 -0.5 0  0.09999999999999998 -0.5 0  0.2 -0.5 0  0.3 -0.5 0  0.4 -0.5 0  0.5 -0.5 0  -0.5 -0.48 0  -0.4 -0.48 0  -0.3 -0.48 0  -0.2 -0.48 0  -0.09999999999999998 -0.48 0  0 -0.48 0  0.09999999999999998 -0.48 0  0.2 -0.48 0  0.3 -0.48 0  0.4 -0.48 0  0.5 -0.48 0  -0.5 -0.46 0  -0.4 -0.46 0  -0.3 -0.46 0  -0.2 -0.46 0  -0.09999999999999998 -0.46 0  0 -0.46 0  0.09999999999999998 -0.46 0  0.2 -0.46 0  0.3 -0.46 0  0.4 -0.46 0  0.5 -0.46 0  -0.5 -0.4399999999999999 0  -0.4 -0.4399999999999999 0  -0.3 -0.4399999999999999 0  -0.2 -0.4399999999999999 0  -0.09999999999999998 -0.4399999999999999 0  0 -0.4399999999999999 0  0.09999999999999998 -0.4399999999999999 0  0.2 -0.4399999999999999 0  0.3 -0.4399999999999999 0  0.4 -0.4399999999999999 0  0.5 -0.4399999999999999 0  -0.5 -0.42 0  -0.4 -0.42 0  -0.3 -0.42 0  -0.2 -0.42 0  -0.09999999999999998 -0.42 0  0 -0.42 0  0.09999999999999998 -0.42 0  0.2 -0.42 0  0.3 -0.42 0  0.4 -0.42 0  0.5 -0.42 0  -0.5 -0.4 0  -0.4 -0.4 0  -0.3 -0.4 0  -0.2 -0.4 0  -0.09999999999999998 -0.4 0  0 -0.4 0  0.09999999999999998 -0.4 0  0.2 -0.4 0  0.3 -0.4 0  0.4 -0.4 0  0.5 -0.4 0  -0.5 -0.38 0  -0.4 -0.38 0  -0.3 -0.38 0  -0.2 -0.38 0  -0.09999999999999998 -0.38 0  0 -0.38 0  0.09999999999999998 -0.38 0  0.2 -0.38 0  0.3 -0.38 0  0.4 -0.38 0  0.5 -0.38 0  -0.5 -0.36 0  -0.4 -0.36 0  -0.3 -0.36 0  -0.2 -0.36 0  -0.09999999999999998 -0.36 0  0 -0.36 0  0.09999999999999998 -0.36 0  0.2 -0.36 0  0.3 -0.36 0  0.4 -0.36 0  0.5 -0.36 0  -0.5 -0.34 0  -0.4 -0.34 0  -0.3 -0.34 0  -0.2 -0.34 0  -0.09999999999999998 -0.34 0  0 -0.34 0  0.09999999999999998 -0.34 0  0.2 -0.34 0  0.3 -0.34 0  0.4 -0.34 0  0.5 -0.34 0  -0.5 -0.32 0  -0.4 -0.32 0  -0.3 -0.32 0  -0.2 -0.32 0  -0.09999999999999998 -0.32 0  0 -0.32 0  0.09999999999999998 -0.32 0  0.2 -0.32 0  0.3 -0.32 0  0.4 -0.32 0  0.5 -0.32 0  -0.5 -0.3 0  -0.4 -0.3 0  -0.3 -0.3 0  -0.2 -0.3 0  -0.09999999999999998 -0.3 0  0 -0.3 0  0.09999999999999998 -0.3 0  0.2 -0.3 0  0.3 -0.3 0  0.4 -0.3 0  0.5 -0.3 0  -0.5 -0.28 0  -0.4 -0.28 0  -0.3 -0.28 0  -0.2 -0.28 0  -0.09999999999999998 -0.28 0  0 -0.28 0  0.09999999999999998 -0.28 0  0.2 -0.28 0  0.3 -0.28 0  0.4 -0.28 0  0.5 -0.28 0  -0.5 -0.26 0  -0.4 -0.26 0  -0.3 -0.26 0  -0.2 -0.26 0  -0.09999999999999998 -0.26 0  0 -0.26 0  0.09999999999999998 -0.26 0  0.2 -0.26 0  0.3 -0.26 0  0.4 -0.26 0  0.5 -0.26 0  -0.5 -0.24 0  -0.4 -0.24 0  -0.3 -0.24 0  -0.2 -0.24 0  -0.09999999999999998 -0.24 0  0 -0.24 0  0.09999999999999998 -0.24 0  0.2 -0.24 0  0.3 -0.24 0  0.4 -0.24 0  0.5 -0.24 0  -0.5 -0.22 0  -0.4 -0.22 0  -0.3 -0.22 0  -0.2 -0.22 0  -0.09999999999999998 -0.22 0  0 -0.22 0  0.09999999999999998 -0.22 0  0.2 -0.22 0  0.3 -0.22 0  0.4 -0.22 0  0.5 -0.22 0  -0.5 -0.2 0  -0.4 -0.2 0  -0.3 -0.2 0  -0.2 -0.2 0  -0.09999999999999998 -0.2 0  0 -0.2 0  0.09999999999999998 -0.2 0  0.2 -0.2 0  0.3 -0.2 0  0.4 -0.2 0  0.5 -0.2 0  -0.5 -0.18 0  -0.4 -0.18 0  -0.3 -0.18 0  -0.2 -0.18 0  -0.09999999999999998 -0.18 0  0 -0.18 0  0.09999999999999998 -0.18 0  0.2 -0.18 0  0.3 -0.18 0  0.4 -0.18 0  0.5 -0.18 0  -0.5 -0.16 0  -0.4 -0.16 0  -0.3 -0.16 0  -0.2 -0.16 0  -0.09999999999999998 -0.16 0  0 -0.16 0  0.09999999999999998 -0.16 0  0.2 -0.16 0  0.3 -0.16 0  0.4 -0.16 0  0.5 -0.16 0  -0.5 -0.14 0  -0.4 -0.14 0  -0.3 -0.14 0  -0.2 -0.14 0  -0.09999999999999998 -0.14 0  0 -0.14 0  0.09999999999999998 -0.14 0  0.2 -0.14 0  0.3 -0.14 0  0.4 -0.14 0  0.5 -0.14 0  -0.5 -0.12 0  -0.4 -0.12 0  -0.3 -0.12 0  -0.2 -0.12 0  -0.09999999999999998 -0.12 0  0 -0.12 0  0.09999999999999998 -0.12 0  0.2 -0.12 0  0.3 -0.12 0  0.4 -0.12 0  0.5 -0.12 0  -0.5 -0.09999999999999998 0  -0.4 -0.09999999999999998 0  -0.3 -0.09999999999999998 0  -0.2 -0.09999999999999998 0  -0.09999999999999998 -0.09999999999999998 0  0 -0.09999999999999998 0  0.09999999999999998 -0.09999999999999998 0  0.2 -0.09999999999999998 0  0.3 -0.09999999999999998 0  0.4 -0.09999999999999998 0  0.5 -0.09999999999999998 0  -0.5 -0.07999999999999996 0  -0.4 -0.07999999999999996 0  -0.3 -0.07999999999999996 0  -0.2 -0.07999999999999996 0  -0.09999999999999998 -0.07999999999999996 0  0 -0.07999999999999996 0  0.09999999999999998 -0.07999999999999996 0  0.2 -0.07999999999999996 0  0.3 -0.07999999999999996 0  0.4 -0.07999999999999996 0  0.5 -0.07999999999999996 0  -0.5 -0.06000000000000005 0  -0.4 -0.06000000000000005 0  -0.3 -0.06000000000000005 0  -0.2 -0.06000000000000005 0  -0.09999999
[...]
<PointData  Vectors="displacement"> 
<DataArray  type="Float64"  Name="displacement"  NumberOfComponents="3" format="ascii">-1.3400635599374066e-33 -2.9778502051908972e-20 0.0000000000000000e+00  1.1284745767893948e-33 2.4815418376590804e-21 0.0000000000000000e+00  -1.0061496959069509e-33 -2.7296960214249889e-20 0.0000000000000000e+00  5.0781355955522779e-33 -4.9630836753181623e-21 0.0000000000000000e+00  6.0864495795439382e-34 -1.9907585282921147e-20 0.0000000000000000e+00  -3.3854237303681846e-33 -9.9261673506363216e-21 0.0000000000000000e+00  8.6150878945811487e-33 -1.0718612839810661e-20 0.0000000000000000e+00  -5.6423728839469741e-34 -6.7001629616795169e-20 0.0000000000000000e+00  -1.1240655991753565e-33 -3.6912934835178818e-20 0.0000000000000000e+00  -5.6423728839469758e-34 -4.9630836753181624e-20 0.0000000000000000e+00  -1.1284745767893946e-33 3.9704669402545280e-20 0.0000000000000000e+00  2.8211864419734879e-34 -2.7717265353417351e-04 0.0000000000000000e+00  -4.9620104273071013e-18 -2.7717265353417481e-04 0.0000000000000000e+00  4.4540332181427859e-18 -2.7717265353417866e-04 0.0000000000000000e+00  2.3820074144972034e-17 -2.7717265353417904e-04 0.0000000000000000e+00  3.2058612608716762e-17 -2.7717265353417687e-04 0.0000000000000000e+00  3.6648785096729685e-17 -2.7717265353417167e-04 0.0000000000000000e+00  4.0784450995493880e-17 -2.7717265353417335e-04 0.0000000000000000e+00  3.2771690937878195e-17 -2.7717265353416858e-04 0.0000000000000000e+00  3.1151697845255700e-17 -2.7717265353416993e-04 0.0000000000000000e+00  1.9047142374840743e-17 -2.7717265353416164e-04 0.0000000000000000e+00  -7.4074760503000258e-34 -2.7717265353416912e-04 0.0000000000000000e+00  -7.0634451805401906e-34 -5.5434530706834604e-04 0.0000000000000000e+00  -7.2466413469783303e-18 -5.5434530706835027e-04 0.0000000000000000e+00  9.9576392458292336e-18 -5.5434530706835775e-04 0.0000000000000000e+00  4.4006830397782350e-17 -5.5434530706836155e-04 0.0000000000000000e+00  6.1587862936276290e-17 -5.5434530706835667e-04 0.0000000000000000e+00  7.1731756124732895e-17 -5.5434530706834398e-04 0.0000000000000000e+00  7.7831958021136297e-17 -5.5434530706834702e-04 0.0000000000000000e+00  6.3109155167764592e-17 -5.5434530706833802e-04 0.0000000000000000e+00  5.8280629811853647e-17 -5.5434530706833921e-04 0.0000000000000000e+00  3.5720639420105384e-17 -5.5434530706832024e-04 0.0000000000000000e+00  -1.5315012113570366e-33 -5.5434530706833520e-04 0.0000000000000000e+00  9.1688559364138511e-34 -8.3151796060251814e-04 0.0000000000000000e+00  -8.0449093805954067e-18 -8.3151796060252606e-04 0.0000000000000000e+00  1.6199040504707402e-17 -8.3151796060253939e-04 0.0000000000000000e+00  6.1192882380079252e-17 -8.3151796060254796e-04 0.0000000000000000e+00  8.8282239176200352e-17 -8.3151796060253723e-04 0.0000000000000000e+00  1.0501272487174868e-16 -8.3151796060251749e-04 0.0000000000000000e+00  1.1162566287133896e-16 -8.3151796060252226e-04 0.0000000000000000e+00  9.0156625869035155e-17 -8.3151796060250806e-04 0.0000000000000000e+00  8.2155955688977151e-17 -8.3151796060250839e-04 0.0000000000000000e+00  5.0400054681366131e-17 -8.3151796060247770e-04 0.0000000000000000e+00  5.6423728839469828e-33 -8.3151796060249874e-04 0.0000000000000000e+00  -2.0253775087394277e-34 -1.1086906141366919e-03 0.0000000000000000e+00  -7.8867420680118718e-18 -1.1086906141367003e-03 0.0000000000000000e+00  2.2624882829627040e-17 -1.1086906141367214e-03 0.0000000000000000e+00  7.6204596471327619e-17 -1.1086906141367335e-03 0.0000000000000000e+00  1.1314218032263186e-16 -1.1086906141367144e-03 0.0000000000000000e+00  1.3482793502203399e-16 -1.1086906141366938e-03 0.0000000000000000e+00  1.4293434162530178e-16 -1.1086906141366992e-03 0.0000000000000000e+00  1.1462751509843577e-16 -1.1086906141366789e-03 0.0000000000000000e+00  1.0337073705289090e-16 -1.1086906141366711e-03 0.0000000000000000e+00  6.3290544959486189e-17 -1.1086906141366329e-03 0.0000000000000000e+00  4.9443499463488038e-34 -1.1086906141366624e-03 0.0000000000000000e+00  1.0579449157400579e-33 -1.3858632676708677e-03 0.0000000000000000e+00  -6.7945630284920655e-18 -1.3858632676708802e-03 0.0000000000000000e+00  2.9037307415577774e-17 -1.3858632676709047e-03 0.0000000000000000e+00  8.9702428124561691e-17 -1.3858632676709175e-03 0.0000000000000000e+00  1.3570700372916062e-16 -1.3858632676708991e-03 0.0000000000000000e+00  1.6197113187122919e-16 -1.3858632676708763e-03 0.0000000000000000e+00  1.7103905390349920e-16 -1.3858632676708789e-03 0.0000000000000000e+00  1.3839650949010746e-16 -1.3858632676708544e-03 0.0000000000000000e+00  1.2323588245068388e-16 -1.3858632676708304e-03 0.0000000000000000e+00  7.3899530421997777e-17 -1.3858632676707902e-03 0.0000000000000000e+00  -6.9220899248882950e-33 -1.3858632676708262e-03 0.0000000000000000e+00  4.2918562770426731e-34 -1.6630359212050437e-03 0.0000000000000000e+00  -5.0552461154256675e-18 -1.6630359212050578e-03 0.0000000000000000e+00  3.5241497527469951e-17 -1.6630359212050870e-03 0.0000000000000000e+00  1.0032451797246861e-16 -1.6630359212051022e-03 0.0000000000000000e+00  1.5484900878948717e-16 -1.6630359212050827e-03 0.0000000000000000e+00  1.8794083624044726e-16 -1.6630359212050543e-03 0.0000000000000000e+00  1.9644254020206446e-16 -1.6630359212050597e-03 0.0000000000000000e+00  1.6128595229263962e-16 -1.6630359212050304e-03 0.0000000000000000e+00  1.4116677441625922e-16 -1.6630359212049912e-03 0.0000000000000000e+00  8.1216513474411051e-17 -1.6630359212049491e-03 0.0000000000000000e+00  -2.0151331728382053e-33 -1.6630359212049834e-03 0.0000000000000000e+00  -1.5869173736100868e-33 -1.9402085747392173e-03 0.0000000000000000e+00  -3.1372654611918327e-18 -1.9402085747392327e-03 0.0000000000000000e+00  4.0549015581411927e-17 -1.9402085747392680e-03 0.0000000000000000e+00  1.0996258684524645e-16 -1.9402085747392923e-03 0.0000000000000000e+00  1.7126356916702160e-16 -1.9402085747392609e-03 0.0000000000000000e+00  2.1231735958876910e-16 -1.9402085747392322e-03 0.0000000000000000e+00  2.1890383956211533e-16 -1.9402085747392320e-03 0.0000000000000000e+00  1.8204031358359658e-16 -1.9402085747392041e-03 0.0000000000000000e+00  1.5832483768402071e-16 -1.9402085747391507e-03 0.0000000000000000e+00  8.6782267594750614e-17 -1.9402085747390991e-03 0.0000000000000000e+00  -3.3854237303681853e-33 -1.9402085747391399e-03 0.0000000000000000e+00  1.1654863131993710e-33 -2.2173812282733863e-03 0.0000000000000000e+00  -2.8367949663171307e-18 -2.2173812282734054e-03 0.0000000000000000e+00  4.4917604619729993e-17 -2.2173812282734575e-03 0.0000000000000000e+00  1.1887331778494385e-16 -2.2173812282734826e-03 0.0000000000000000e+00  1.8537476924841787e-16 -2.2173812282734401e-03 0.0000000000000000e+00  2.3436823271455140e-16 -2.2173812282734119e-03 0.0000000000000000e+00  2.4044753185247604e-16 -2.2173812282734128e-03 0.0000000000000000e+00  1.9964402064880426e-16 -2.2173812282733720e-03 0.0000000000000000e+00  1.7476642304697917e-16 -2.2173812282733083e-03 0.0000000000000000e+00  9.2047265448700914e-17 -2.2173812282732489e-03 0.0000000000000000e+00  -1.0729386391096236e-32 -2.2173812282732888e-03 0.0000000000000000e+00  -4.2317796629602496e-34 -2.4945538818075567e-03 0.0000000000000000e+00  -4.4391531822409516e-18 -2.4945538818075745e-03 0.0000000000000000e+00  4.6919532386138828e-17 -2.4945538818076387e-03 0.0000000000000000e+00  1.2736377880620257e-16 -2.4945538818076703e-03 0.0000000000000000e+00  1.9763995494085022e-16 -2.4945538818076205e-03 0.0000000000000000e+00  2.5337690853282940e-16 -2.4945538818075849e-03 0.0000000000000000e+00  2.6033792112454325e-16 -2.4945538818076031e-03 0.0000000000000000e+00  2.1602671874243121e-16 -2.4945538818075437e-03 0.0000000000000000e+00  1.9053446261936947e-16 -2.4945538818074674e-03 0.0000000000000000e+00  9.6998945639553476e-17 -2.4945538818073967e-03 0.0000000000000000e+00  -7.7750312751682436e-33 -2.4945538818074422e-03 0.0000000000000000e+00  -8.5345057011262004e-34 -2.7717265353417292e-03 0.0000000000000000e+00  -8.2298152042783690e-18 -2.7717265353417566e-03 0.0000000000000000e+00  4.8395512359296232e-17 -2.7717265353418286e-03 0.0000000000000000e+00  1.3393540540496747e-16 -2.7717265353418611e-03 0.0000000000000000e+00  2.1017720947692816e-16 -2.7717265353418069e-03 0.0000000000000000e+00  2.6809365804897276e-16 -2.7717265353417631e-03 0.0000000000000000e+00  2.7611183278976397e-16 -2.7717265353417991e-03 0.0000000000000000e+00  2.3396897545138993e-16 -2.7717265353417227e-03 0.0000000000000000e+00  2.0603629849481034e-16 -2.7717265353416213e-03 0.0000000000000000e+00  1.0033564151133302e-16 -2.7717265353415519e-03 0.0000000000000000e+00  -9.9950605372774983e-33 -2.7717265353415952e-03 0.0000000000000000e+00  -5.6423728839469758e-34 -3.0488991888759065e-03 0.0000000000000000e+00  -1.3733269089273573e-17 -3.0488991888759386e-03 0.0000000000000000e+00  4.7098313058944004e-17 -3.0488991888760280e-03 0.0000000000000000e+00  1.4039900758334269e-16 -3.0488991888760583e-03 0.0000000000000000e+00  2.2347584100620066e-16 -3.0488991888759902e-03 0.0000000000000000e+00  2.8109183590922531e-16 -3.0488991888759365e-03 0.0000000000000000e+00  2.8780362169546463e-16 -3.0488991888759885e-03 0.0000000000000000e+00  2.5092750431758258e-16 -3.0488991888758957e-03 0.0000000000000000e+00  2.2138868059345409e-16 -3.0488991888757856e-03 0.0000000000000000e+00  1.0267600578640825e-16 -3.0488991888757071e-03 0.0000000000000000e+00  -1.8055593228630320e-32 -3.0488991888757465e-03 0.0000000000000000e+00  -1.3763596789912932e-33 -3.3260718424100856e-03 0.0000000000000000e+00  -2.0926886231274025e-17 -3.3260718424101307e-03 0.0000000000000000e+00  4.3639114924671282e-17 -3.3260718424102356e-03 0.0000000000000000e+00  1.4902467939956316e-16 -3.3260718424102504e-03 0.0000000000000000e+00  2.3765356412864024e-16 -3.3260718424101793e-03 0.0000000000000000e+00  2.9063187462978413e-16 -3.3260718424101151e-03 0.0000000000000000e+00  2.9617777914372720e-16 -3.3260718424101771e-03 0.0000000000000000e+00  2.6830946256369161e-16 -3.3260718424100656e-03 0.0000000000000000e+00  2.3423178520495468e-16 -3.3260718424099490e-03 0.0000000000000000e+00  1.0466876990052679e-16 -3.3260718424098579e-03 0.0000000000000000e+00  6.4205663249677276e-33 -3.3260718424098995e-03 0.0000000000000000e+00  -1.6927118651840926e-33 -3.6032444959442625e-03 0.0000000000000000e+00  -3.2381219817038823e-17 -3.6032444959443245e-03 0.0000000000000000e+00  4.0811885680313778e-17 -3.6032444959444364e-03 0.0000000000000000e+00  1.5974906429042240e-16 -3.6032444959444372e-03 0.0000000000000000e+00  2.5164734993153106e-16 -3.6032444959443665e-03 0.0000000000000000e+00  2.9562839439823075e-16 -3.6032444959443110e-03 0.0000000000000000e+00  3.0305298943221753e-16 -3.6032444959443622e-03 0.0000000000000000e+00  2.8532693769473160e-16 -3.6032444959442295e-03 0.0000000000000000e+00  2.4504435153926030e-16 -3.6032444959441063e-03 0.0000000000000000e+00  1.0723120184064860e-16 -3.6032444959440148e-03 0.0000000000000000e+00  4.9039359007609968e-33 -3.6032444959440491e-03 0.0000000000000000e+00  5.3512661955972995e-34 -3.8804171494784415e-03 0.0000000000000000e+00  -4.3340411553444406e-17 -3.8804171494785118e-03 0.0000000000000000e+00  3.8244202040371070e-17 -3.8804171494786332e-03 0.0000000000000000e+00  1.7278893246730402e-16 -3.8804171494786163e-03 0.0000000000000000e+00  2.6025297305021894e-16 -3.8804171494785504e-03 0.0000000000000000e+00  2.9646511391496576e-16 -3.8804171494785065e-03 0.0000000000000000e+00  3.1119478600245807e-16 -3.8804171494785330e-03 0.0000000000000000e+00  3.0031915430314372e-16 -3.8804171494784072e-03 0.0000000000000000e+00  2.5559114076739587e-16 -3.8804171494782659e-03 0.0000000000000000e+00  1.1201687686910897e-16 -3.8804171494781704e-03 0.0000000000000000e+00  4.5945036340711080e-33 -3.8804171494781934e-03 0.0000000000000000e+00  0.0000000000000000e+00 -4.1575898030126223e-03 0.0000000000000000e+00  -5.3059554447875488e-17 -4.1575898030127029e-03 0.0000000000000000e+00  3.4305100728226268e-17 -4.1575898030128209e-03 0.0000000000000000e+00  1.8446791408869637e-16 -4.1575898030128009e-03 0.0000000000000000e+00  2.6425819781520940e-16 -4.1575898030127376e-03 0.0000000000000000e+00  2.9577340563556748e-16 -4.1575898030127012e-03 0.0000000000000000e+00  3.1825454373322104e-16 -4.1575898030126986e-03 0.0000000000000000e+00  3.1314962445107838e-16 -4.1575898030125867e-03 0.0000000000000000e+00  2.6662434850317438e-16 -4.1575898030124367e-03 0.0000000000000000e+00  1.1569707796425970e-16 -4.1575898030123213e-03 0.0000000000000000e+00  -1.1284745767893950e-33 -4.1575898030123447e-03 0.0000000000000000e+00  -5.6474697539837444e-33 -4.4347624565468048e-03 0.0000000000000000e+00  -6.0096308316816304e-17 -4.4347624565468993e-03 0.0000000000000000e+00  2.9935368469667789e-17 -4.4347624565469991e-03 0.0000000000000000e+00  1.9228187100843625e-16 -4.4347624565469852e-03 0.0000000000000000e+00  2.6608459642172026e-16 -4.4347624565469332e-03 0.0000000000000000e+00  2.9659699905044801e-16 -4.4347624565468898e-03 0.0000000000000000e+00  3.2327805568020528e-16 -4.4347624565468612e-03 0.0000000000000000e+00  3.2559532107861791e-16 -4.4347624565467545e-03 0.0000000000000000e+00  2.7672441709413824e-16 -4.4347624565465949e-03 0.0000000000000000e+00  1.1842525161089898e-16 -4.4347624565464899e-03 0.0000000000000000e+00  -1.6333993987700034e-32 -4.4347624565465064e-03 0.0000000000000000e+00  0.0000000000000000e+00 -4.7119351100809847e-03 0.0000000000000000e+00  -6.6589675664159509e-17 -4.7119351100811035e-03 0.0000000000000000e+00  2.8276450133640296e-17 -4.7119351100811903e-03 0.0000000000000000e+00  1.9553926866926157e-16 -4.7119351100811720e-03 0.0000000000000000e+00  2.6591893791609054e-16 -4.7119351100811313e-03 0.0000000000000000e+00  3.0114980680485686e-16 -4.7119351100810827e-03 0.0000000000000000e+00  3.3032016030252168e-16 -4.7119351100810116e-03 0.0000000000000000e+00  3.3022878359905227e-16 -4.7119351100809023e-03 0.0000000000000000e+00  2.8601165727734843e-16 -4.7119351100807583e-03 0.0000000000000000e+00  1.2075378946964822e-16 -4.7119351100806421e-03 0.0000000000000000e+00  7.4948987770790599e-33 -4.7119351100806794e-03 0.0000000000000000e+00  -4.5542344585396174e-33 -4.9891077636151750e-03 0.0000000000000000e+00  -7.3585364464887409e-17 -4.9891077636152999e-03 0.0000000000000000e+00  3.2729336193503440e-17 -4.9891077636153866e-03 0.0000000000000000e+00  1.9627089792948686e-16 -4.9891077636153571e-03 0.0000000000000000e+00  2.6110293609654679e-16 -4.9891077636153285e-03 0.0000000000000000e+00  3.0996321632638853e-16 -4.9891077636152669e-03 0.0000000000000000e+00  3.4209537441979401e-16 -4.9891077636151516e-03 0.0000000000000000e+00  3.2744429370324527e-16 -4.9891077636150310e-03 0.0000000000000000e+00  2.9120595821120750e-16 -4.9891077636149000e-03 0.0000000000000000e+00  1.2206193889569729e-16 -4.9891077636148029e-03 0.0000000000000000e+00  -4.1108716725899436e-33 -4.9891077636148463e-03 0.0000000000000000e+00  -6.7708474607363706e-33 -5.2662804171493653e-03 0.0000000000000000e+00  -8.1816348280884605e-17 -5.2662804171494867e-03 0.0000000000000000e+00  3.8849455969524442e-17 -5.2662804171495917e-03 0.0000000000000000e+00  1.9596105080093550e-16 -5.2662804171495414e-03 0.0000000000000000e+00  2.5238841771982145e-16 -5.2662804171495319e-03 0.0000000000000000e+00  3.2601976468269324e-16 -5.2662804171494321e-03 0.0000000000000000e+00  3.5269693322260103e-16 -5.2662804171493124e-03 0.0000000000000000e+00  3.2456313455982673e-16 -5.2662804171491710e-03 0.0000000000000000e+00  2.9403184141318128e-16 -5.2662804171490340e-03 0.0000000000000000e+00  1.1597524340737528e-16 -5.2662804171489637e-03 0.0000000000000000e+00  -5.6423728839469746e-33 -5.2662804171490166e-03 0.0000000000000000e+00  -7.8252133681138080e-33 -5.5434530706835617e-03 0.0000000000000000e+00  -8.9363460122737345e-17 -5.5434530706836693e-03 0.0000000000000000e+00  4.4969575745545246e-17 -5.5434530706837881e-03 0.0000000000000000e+00  1.9286985796480103e-16 -5.5434530706837447e-03 0.0000000000000000e+00  2.4553134737973739e-16 -5.5434530706837161e-03 0.0000000000000000e+00  3.4034219057356457e-16 -5.5434530706835947e-03 0.0000000000000000e+00  3.6328023505238058e-16 -5.5434530706834802e-03 0.0000000000000000e+00  3.2251153415495771e-16 -5.5434530706833119e-03 0.0000000000000000e+00  2.8837842234698155e-16 -5.5434530706831827e-03 0.0000000000000000e+00  1.0838437517190578e-16 -5.5434530706831315e-03 0.0000000000000000e+00  -7.6954460517658842e-33 -5.5434530706831801e-03 0.0000000000000000e+00  -1.0156271191104574e-32 -5.8206257242177598e-03 0.0000000000000000e+00  -9.6270678511817438e-17 -5.8206257242178500e-03 0.0000000000000000e+00  4.5634806155982447e-17 -5.8206257242179723e-03 0.0000000000000000e+00  1.9268261620503528e-16 -5.8206257242179567e-03 0.0000000000000000e+00  2.3979061682216948e-16 -5.8206257242178917e-03 0.0000000000000000e+00  3.5339907637429490e-16 -5.8206257242177572e-03 0.0000000000000000e+00  3.7860757272012364e-16 -5.8206257242176592e-03 0.0000000000000000e+00  3.1823485966931800e-16 -5.8206257242174684e-03 0.0000000000000000e+00  2.8003653694235323e-16 -5.8206257242173313e-03 0.0000000000000000e+00  9.9682174085139029e-17 -5.8206257242173019e-03 0.0000000000000000e+00  -1.8652907875690396e-32 -5.8206257242173435e-03 0.0000000000000000e+00  1.0102636095627229e-34 -6.0977983777519588e-03 0.0000000000000000e+00  -1.0326574476232002e-16 -6.0977983777520386e-03 0.0000000000000000e+00  4.2732678358829452e-17 -6.0977983777521652e-03 0.0000000000000000e+00  1.9413355957432307e-16 -6.0977983777521522e-03 0.0000000000000000e+00  2.3777014413473041e-16 -6.0977983777520603e-03 0.0000000000000000e+00  3.6457422520348184e-16 -6.0977983777519128e-03 0.0000000000000000e+00  3.8822846753106951e-16 -6.0977983777518244e-03 0.0000000000000000e+00  3.1582410877768066e-16 -6.0977983777516604e-03 0.0000000000000000e+00  2.7237696079413129e-16 -6.0977983777514870e-03 0.0000000000000000e+00  8.5941576776334439e-17 -6.0977983777514523e-03 0.0000000000000000e+00  6.9320581145634268e-33 -6.0977983777515234e-03 0.0000000000000000e+00  -2.0312542382209112e-32 -6.3749710312861691e-03 0.0000000000000000e+00  -1.0864659599969712e-16 -6.3749710312862315e-03 0.0000000000000000e+00  3.8849455969524442e-17 -6.3749710312863651e-03 0.0000000000000000e+00  1.9370581073924075e-16 -6.3749710312863677e-03 0.0000000000000000e+00  2.4107363460111956e-16 -6.3749710312862272e-03 0.0000000000000000e+00  3.7674788187032900e-16 -6.3749710312860849e-03 0.0000000000000000e+00  3.9123746578796657e-16 -6.3749710312859895e-03 0.0000000000000000e+00  3.0880735904464947e-16 -6.3749710312858612e-03 0.0000000000000000e+00  2.6662434850317443e-16 -6.3749710312856643e-03 0.0000000000000000e+00  7.0251141908650636e-17 -6.3749710312856027e-03 0.0000000000000000e+00  -2.2569491535787900e-33 -6.3749710312856894e-03 0.0000000000000000e+00  1.9599114025516877e-32 -6.6521436848203767e-03 0.0000000000000000e+00  -1.1292546032488992e-16 -6.6521436848204253e-03 0.0000000000000000e+00  2.9070568936099646e-17 -6.6521436848205667e-03 0.0000000000000000e+00  1.9637591578699653e-16 -6.6521436848205823e-03 0.0000000000000000e+00  2.4547002145127601e-16 -6.6521436848203750e-03 0.0000000000000000e+00  3.9280874684552362e-16 -6.6521436848202727e-03 0.0000000000000000e+00  3.8927238982820801e-16 -6.6521436848201790e-03 0.0000000000000000e+00  2.9726482097412942e-16 -6.6521436848200671e-03 0.0000000000000000e+00  2.5990344251272745e-16 -6.6521436848198286e-03 0.0000000000000000e+00  5.6050803328449184e-17 -6.6521436848197774e-03 0.0000000000000000e+00  2.3138054765605996e-33 -6.6521436848198494e-03 0.0000000000000000e+00  -3.0468813573313670e-32 -6.9293163383545853e-03 0.0000000000000000e+00  -1.1632678912049828e-16 -6.9293163383546182e-03 0.0000000000000000e+00  1.9259446014503559e-17 -6.9293163383547483e-03 0.0000000000000000e+00  1.9854551078535236e-16 -6.9293163383547787e-03 0.0000000000000000e+00  2.5045