<?xml version="1.0"?>
<VTKFile type="UnstructuredGrid"  version="0.1"  >
<UnstructuredGrid>
<Piece  NumberOfPoints="1091" NumberOfCells="2050">
<Points>
<DataArray  type="Float64"  NumberOfComponents="3"  format="ascii">-0.5 -1 0  -0.4 -1 0  -0.3 -1 0  -0.2 -1 0  -0.09999999999999998 -1 0  0 -1 0  0.09999999999999998 -1 0  0.2 -1 0  0.3 -1 0  0.4 -1 0  0.5 -1 0  -0.5 -0.98 0  -0.4 -0.98 0  -0.3 -0.98 0  -0.2 -0.98 0  -0.09999999999999998 -0.98 0  0 -0.98 0  0.09999999999999998 -0.98 0  0.2 -0.98 0  0.3 -0.98 0  0.4 -0.98 0  0.5 -0.98 0  -0.5 -0.96 0  -0.4 -0.96 0  -0.3 -0.96 0  -0.2 -0.96 0  -0.09999999999999998 -0.96 0  0 -0.96 0  0.09999999999999998 -0.96 0  0.2 -0.96 0  0.3 -0.96 0  0.4 -0.96 0  0.5 -0.96 0  -0.5 -0.9399999999999999 0  -0.4 -0.9399999999999999 0  -0.3 -0.9399999999999999 0  -0.2 -0.9399999999999999 0  -0.09999999999999998 -0.9399999999999999 0  0 -0.9399999999999999 0  0.09999999999999998 -0.9399999999999999 0  0.2 -0.9399999999999999 0  0.3 -0.9399999999999999 0  0.4 -0.9399999999999999 0  0.5 -0.9399999999999999 0  -0.5 -0.92 0  -0.4 -0.92 0  -0.3 -0.92 0  -0.2 -0.92 0  -0.09999999999999998 -0.92 0  0 -0.92 0  0.09999999999999998 -0.92 0  0.2 -0.92 0  0.3 -0.92 0  0.4 -0.92 0  0.5 -0.92 0  -0.5 -0.9 0  -0.4 -0.9 0  -0.3 -0.9 0  -0.2 -0.9 0  -0.09999999999999998 -0.9 0  0 -0.9 0  0.09999999999999998 -0.9 0  0.2 -0.9 0  0.3 -0.9 0  0.4 -0.9 0  0.5 -0.9 0  -0.5 -0.88 0  -0.4 -0.88 0  -0.3 -0.88 0  -0.2 -0.88 0  -0.09999999999999998 -0.88 0  0 -0.88 0  0.09999999999999998 -0.88 0  0.2 -0.88 0  0.3 -0.88 0  0.4 -0.88 0  0.5 -0.88 0  -0.5 -0.86 0  -0.4 -0.86 0  -0.3 -0.86 0  -0.2 -0.86 0  -0.09999999999999998 -0.86 0  0 -0.86 0  0.09999999999999998 -0.86 0  0.2 -0.86 0  0.3 -0.86 0  0.4 -0.86 0  0.5 -0.86 0  -0.5 -0.84 0  -0.4 -0.84 0  -0.3 -0.84 0  -0.2 -0.84 0  -0.09999999999999998 -0.84 0  0 -0.84 0  0.09999999999999998 -0.84 0  0.2 -0.84 0  0.3 -0.84 0  0.4 -0.84 0  0.5 -0.84 0  -0.5 -0.8200000000000001 0  -0.4 -0.8200000000000001 0  -0.3 -0.8200000000000001 0  -0.2 -0.8200000000000001 0  -0.09999999999999998 -0.8200000000000001 0  0 -0.8200000000000001 0  0.09999999999999998 -0.8200000000000001 0  0.2 -0.8200000000000001 0  0.3 -0.8200000000000001 0  0.4 -0.8200000000000001 0  0.5 -0.8200000000000001 0  -0.5 -0.8 0  -0.4 -0.8 0  -0.3 -0.8 0  -0.2 -0.8 0  -0.09999999999999998 -0.8 0  0 -0.8 0  0.09999999999999998 -0.8 0  0.2 -0.8 0  0.3 -0.8 0  0.4 -0.8 0  0.5 -0.8 0  -0.5 -0.78 0  -0.4 -0.78 0  -0.3 -0.78 0  -0.2 -0.78 0  -0.09999999999999998 -0.78 0  0 -0.78 0  0.09999999999999998 -0.78 0  0.2 -0.78 0  0.3 -0.78 0  0.4 -0.78 0  0.5 -0.78 0  -0.5 -0.76 0  -0.4 -0.76 0  -0.3 -0.76 0  -0.2 -0.76 0  -0.09999999999999998 -0.76 0  0 -0.76 0  0.09999999999999998 -0.76 0  0.2 -0.76 0  0.3 -0.76 0  0.4 -0.76 0  0.5 -0.76 0  -0.5 -0.74 0  -0.4 -0.74 0  -0.3 -0.74 0  -0.2 -0.74 0  -0.09999999999999998 -0.74 0  0 -0.74 0  0.09999999999999998 -0.74 0  0.2 -0.74 0  0.3 -0.74 0  0.4 -0.74 0  0.5 -0.74 0  -0.5 -0.72 0  -0.4 -0.72 0  -0.3 -0.72 0  -0.2 -0.72 0  -0.09999999999999998 -0.72 0  0 -0.72 0  0.09999999999999998 -0.72 0  0.2 -0.72 0  0.3 -0.72 0  0.4 -0.72 0  0.5 -0.72 0  -0.5 -0.7 0  -0.4 -0.7 0  -0.3 -0.7 0  -0.2 -0.7 0  -0.09999999999999998 -0.7 0  0 -0.7 0  0.09999999999999998 -0.7 0  0.2 -0.7 0  0.3 -0.7 0  0.4 -0.7 0  0.5 -0.7 0  -0.5 -0.6799999999999999 0  -0.4 -0.6799999999999999 0  -0.3 -0.6799999999999999 0  -0.2 -0.6799999999999999 0  -0.09999999999999998 -0.6799999999999999 0  0 -0.6799999999999999 0  0.09999999999999998 -0.6799999999999999 0  0.2 -0.6799999999999999 0  0.3 -0.6799999999999999 0  0.4 -0.6799999999999999 0  0.5 -0.6799999999999999 0  -0.5 -0.6599999999999999 0  -0.4 -0.6599999999999999 0  -0.3 -0.6599999999999999 0  -0.2 -0.6599999999999999 0  -0.09999999999999998 -0.6599999999999999 0  0 -0.6599999999999999 0  0.09999999999999998 -0.6599999999999999 0  0.2 -0.6599999999999999 0  0.3 -0.6599999999999999 0  0.4 -0.6599999999999999 0  0.5 -0.6599999999999999 0  -0.5 -0.64 0  -0.4 -0.64 0  -0.3 -0.64 0  -0.2 -0.64 0  -0.09999999999999998 -0.64 0  0 -0.64 0  0.09999999999999998 -0.64 0  0.2 -0.64 0  0.3 -0.64 0  0.4 -0.64 0  0.5 -0.64 0  -0.5 -0.62 0  -0.4 -0.62 0  -0.3 -0.62 0  -0.2 -0.62 0  -0.09999999999999998 -0.62 0  0 -0.62 0  0.09999999999999998 -0.62 0  0.2 -0.62 0  0.3 -0.62 0  0.4 -0.62 0  0.5 -0.62 0  -0.5 -0.6 0  -0.4 -0.6 0  -0.3 -0.6 0  -0.2 -0.6 0  -0.09999999999999998 -0.6 0  0 -0.6 0  0.09999999999999998 -0.6 0  0.2 -0.6 0  0.3 -0.6 0  0.4 -0.6 0  0.5 -0.6 0  -0.5 -0.5800000000000001 0  -0.4 -0.5800000000000001 0  -0.3 -0.5800000000000001 0  -0.2 -0.5800000000000001 0  -0.09999999999999998 -0.5800000000000001 0  0 -0.5800000000000001 0  0.09999999999999998 -0.5800000000000001 0  0.2 -0.5800000000000001 0  0.3 -0.5800000000000001 0  0.4 -0.5800000000000001 0  0.5 -0.5800000000000001 0  -0.5 -0.5600000000000001 0  -0.4 -0.5600000000000001 0  -0.3 -0.5600000000000001 0  -0.2 -0.5600000000000001 0  -0.09999999999999998 -0.5600000000000001 0  0 -0.5600000000000001 0  0.09999999999999998 -0.5600000000000001 0  0.2 -0.5600000000000001 0  0.3 -0.5600000000000001 0  0.4 -0.5600000000000001 0  0.5 -0.5600000000000001 0  -0.5 -0.54 0  -0.4 -0.54 0  -0.3 -0.54 0  -0.2 -0.54 0  -0.09999999999999998 -0.54 0  0 -0.54 0  0.09999999999999998 -0.54 0  0.2 -0.54 0  0.3 -0.54 0  0.4 -0.54 0  0.5 -0.54 0  -0.5 -0.52 0  -0.4 -0.52 0  -0.3 -0.52 0  -0.2 -0.52 0  -0.09999999999999998 -0.52 0  0 -0.52 0  0.09999999999999998 -0.52 0  0.2 -0.52 0  0.3 -0.52 0  0.4 -0.52 0  0.5 -0.52 0  -0.5 -0.5 0  -0.4 -0.5 0  -0.3 -0.5 0  -0.2 -0.5 0  -0.09999999999999998 -0.5 0  0 -0.5 0  0.09999999999999998 -0.5 0  0.2 -0.5 0  0.3 -0.5 0  0.4 -0.5 0  0.5 -0.5 0  -0.5 -0.48 0  -0.4 -0.48 0  -0.3 -0.48 0  -0.2 -0.48 0  -0.09999999999999998 -0.48 0  0 -0.48 0  0.09999999999999998 -0.48 0  0.2 -0.48 0  0.3 -0.48 0  0.4 -0.48 0  0.5 -0.48 0  -0.5 -0.46 0  -0.4 -0.46 0  -0.3 -0.46 0  -0.2 -0.46 0  -0.09999999999999998 -0.46 0  0 -0.46 0  0.09999999999999998 -0.46 0  0.2 -0.46 0  0.3 -0.46 0  0.4 -0.46 0  0.5 -0.46 0  -0.5 -0.4399999999999999 0  -0.4 -0.4399999999999999 0  -0.3 -0.4399999999999999 0  -0.2 -0.4399999999999999 0  -0.09999999999999998 -0.4399999999999999 0  0 -0.4399999999999999 0  0.09999999999999998 -0.4399999999999999 0  0.2 -0.4399999999999999 0  0.3 -0.4399999999999999 0  0.4 -0.4399999999999999 0  0.5 -0.4399999999999999 0  -0.5 -0.42 0  -0.4 -0.42 0  -0.3 -0.42 0  -0.2 -0.42 0  -0.09999999999999998 -0.42 0  0 -0.42 0  0.09999999999999998 -0.42 0  0.2 -0.42 0  0.3 -0.42 0  0.4 -0.42 0  0.5 -0.42 0  -0.5 -0.4 0  -0.4 -0.4 0  -0.3 -0.4 0  -0.2 -0.4 0  -0.09999999999999998 -0.4 0  0 -0.4 0  0.09999999999999998 -0.4 0  0.2 -0.4 0  0.3 -0.4 0  0.4 -0.4 0  0.5 -0.4 0  -0.5 -0.38 0  -0.4 -0.38 0  -0.3 -0.38 0  -0.2 -0.38 0  -0.09999999999999998 -0.38 0  0 -0.38 0  0.09999999999999998 -0.38 0  0.2 -0.38 0  0.3 -0.38 0  0.4 -0.38 0  0.5 -0.38 0  -0.5 -0.36 0  -0.4 -0.36 0  -0.3 -0.36 0  -0.2 -0.36 0  -0.09999999999999998 -0.36 0  0 -0.36 0  0.09999999999999998 -0.36 0  0.2 -0.36 0  0.3 -0.36 0  0.4 -0.36 0  0.5 -0.36 0  -0.5 -0.34 0  -0.4 -0.34 0  -0.3 -0.34 0  -0.2 -0.34 0  -0.09999999999999998 -0.34 0  0 -0.34 0  0.09999999999999998 -0.34 0  0.2 -0.34 0  0.3 -0.34 0  0.4 -0.34 0  0.5 -0.34 0  -0.5 -0.32 0  -0.4 -0.32 0  -0.3 -0.32 0  -0.2 -0.32 0  -0.09999999999999998 -0.32 0  0 -0.32 0  0.09999999999999998 -0.32 0  0.2 -0.32 0  0.3 -0.32 0  0.4 -0.32 0  0.5 -0.32 0  -0.5 -0.3 0  -0.4 -0.3 0  -0.3 -0.3 0  -0.2 -0.3 0  -0.09999999999999998 -0.3 0  0 -0.3 0  0.09999999999999998 -0.3 0  0.2 -0.3 0  0.3 -0.3 0  0.4 -0.3 0  0.5 -0.3 0  -0.5 -0.28 0  -0.4 -0.28 0  -0.3 -0.28 0  -0.2 -0.28 0  -0.09999999999999998 -0.28 0  0 -0.28 0  0.09999999999999998 -0.28 0  0.2 -0.28 0  0.3 -0.28 0  0.4 -0.28 0  0.5 -0.28 0  -0.5 -0.26 0  -0.4 -0.26 0  -0.3 -0.26 0  -0.2 -0.26 0  -0.09999999999999998 -0.26 0  0 -0.26 0  0.09999999999999998 -0.26 0  0.2 -0.26 0  0.3 -0.26 0  0.4 -0.26 0  0.5 -0.26 0  -0.5 -0.24 0  -0.4 -0.24 0  -0.3 -0.24 0  -0.2 -0.24 0  -0.09999999999999998 -0.24 0  0 -0.24 0  0.09999999999999998 -0.24 0  0.2 -0.24 0  0.3 -0.24 0  0.4 -0.24 0  0.5 -0.24 0  -0.5 -0.22 0  -0.4 -0.22 0  -0.3 -0.22 0  -0.2 -0.22 0  -0.09999999999999998 -0.22 0  0 -0.22 0  0.09999999999999998 -0.22 0  0.2 -0.22 0  0.3 -0.22 0  0.4 -0.22 0  0.5 -0.22 0  -0.5 -0.2 0  -0.4 -0.2 0  -0.3 -0.2 0  -0.2 -0.2 0  -0.09999999999999998 -0.2 0  0 -0.2 0  0.09999999999999998 -0.2 0  0.2 -0.2 0  0.3 -0.2 0  0.4 -0.2 0  0.5 -0.2 0  -0.5 -0.18 0  -0.4 -0.18 0  -0.3 -0.18 0  -0.2 -0.18 0  -0.09999999999999998 -0.18 0  0 -0.18 0  0.09999999999999998 -0.18 0  0.2 -0.18 0  0.3 -0.18 0  0.4 -0.18 0  0.5 -0.18 0  -0.5 -0.16 0  -0.4 -0.16 0  -0.3 -0.16 0  -0.2 -0.16 0  -0.09999999999999998 -0.16 0  0 -0.16 0  0.09999999999999998 -0.16 0  0.2 -0.16 0  0.3 -0.16 0  0.4 -0.16 0  0.5 -0.16 0  -0.5 -0.14 0  -0.4 -0.14 0  -0.3 -0.14 0  -0.2 -0.14 0  -0.09999999999999998 -0.14 0  0 -0.14 0  0.09999999999999998 -0.14 0  0.2 -0.14 0  0.3 -0.14 0  0.4 -0.14 0  0.5 -0.14 0  -0.5 -0.12 0  -0.4 -0.12 0  -0.3 -0.12 0  -0.2 -0.12 0  -0.09999999999999998 -0.12 0  0 -0.12 0  0.09999999999999998 -0.12 0  0.2 -0.12 0  0.3 -0.12 0  0.4 -0.12 0  0.5 -0.12 0  -0.5 -0.09999999999999998 0  -0.4 -0.09999999999999998 0  -0.3 -0.09999999999999998 0  -0.2 -0.09999999999999998 0  -0.09999999999999998 -0.09999999999999998 0  0 -0.09999999999999998 0  0.09999999999999998 -0.09999999999999998 0  0.2 -0.09999999999999998 0  0.3 -0.09999999999999998 0  0.4 -0.09999999999999998 0  0.5 -0.09999999999999998 0  -0.5 -0.07999999999999996 0  -0.4 -0.07999999999999996 0  -0.3 -0.07999999999999996 0  -0.2 -0.07999999999999996 0  -0.09999999999999998 -0.07999999999999996 0  0 -0.07999999999999996 0  0.09999999999999998 -0.07999999999999996 0  0.2 -0.07999999999999996 0  0.3 -0.07999999999999996 0  0.4 -0.07999999999999996 0  0.5 -0.07999999999999996 0  -0.5 -0.06000000000000005 0  -0.4 -0.06000000000000005 0  -0.3 -0.06000000000000005 0  -0.2 -0.06000000000000005 0  -0.09999999
[...]
<PointData  Vectors="displacement"> 
<DataArray  type="Float64"  Name="displacement"  NumberOfComponents="3" format="ascii">-5.6423728839469749e-34 -9.9261673506363231e-21 0.0000000000000000e+00  1.7632415262334293e-34 1.2407709188295402e-20 0.0000000000000000e+00  1.1053320317575812e-33 -1.3861737608798772e-20 0.0000000000000000e+00  3.3854237303681853e-33 -4.2186211240204381e-20 0.0000000000000000e+00  6.0711405076586313e-34 4.9558010415625466e-20 0.0000000000000000e+00  -2.2569491535787896e-33 -2.7296960214249883e-20 0.0000000000000000e+00  8.3180919000062051e-33 -1.4128309485891056e-20 0.0000000000000000e+00  5.6423728839469741e-34 -3.9704669402545286e-20 0.0000000000000000e+00  3.9599471416982415e-33 3.0088694781616352e-20 0.0000000000000000e+00  0.0000000000000000e+00 -7.4446255129772431e-20 0.0000000000000000e+00  0.0000000000000000e+00 5.9557004103817920e-20 0.0000000000000000e+00  0.0000000000000000e+00 -2.7717265353417329e-04 0.0000000000000000e+00  -9.2652973586526194e-18 -2.7717265353417487e-04 0.0000000000000000e+00  2.1209681991156091e-18 -2.7717265353418088e-04 0.0000000000000000e+00  2.5363954363362040e-17 -2.7717265353418305e-04 0.0000000000000000e+00  3.4578840778114677e-17 -2.7717265353417774e-04 0.0000000000000000e+00  4.1863635700772477e-17 -2.7717265353417373e-04 0.0000000000000000e+00  4.4149278669715839e-17 -2.7717265353417302e-04 0.0000000000000000e+00  3.0413702795383527e-17 -2.7717265353416988e-04 0.0000000000000000e+00  2.5727547242618234e-17 -2.7717265353416961e-04 0.0000000000000000e+00  1.5954339058529972e-17 -2.7717265353416175e-04 0.0000000000000000e+00  -1.7281604935238158e-33 -2.7717265353416869e-04 0.0000000000000000e+00  2.6753117568463842e-34 -5.5434530706834463e-04 0.0000000000000000e+00  -1.5023524743735569e-17 -5.5434530706835016e-04 0.0000000000000000e+00  5.6559216052247467e-18 -5.5434530706836285e-04 0.0000000000000000e+00  4.7178394817169051e-17 -5.5434530706836979e-04 0.0000000000000000e+00  6.7005333091273132e-17 -5.5434530706835754e-04 0.0000000000000000e+00  8.1285865209753606e-17 -5.5434530706834908e-04 0.0000000000000000e+00  8.3669354872721513e-17 -5.5434530706834572e-04 0.0000000000000000e+00  5.8634347597803157e-17 -5.5434530706833921e-04 0.0000000000000000e+00  4.8989921254365061e-17 -5.5434530706833997e-04 0.0000000000000000e+00  3.0294495777367953e-17 -5.5434530706832263e-04 0.0000000000000000e+00  8.8665859604881088e-34 -5.5434530706833477e-04 0.0000000000000000e+00  0.0000000000000000e+00 -8.3151796060251381e-04 0.0000000000000000e+00  -1.9004478229909479e-17 -8.3151796060252584e-04 0.0000000000000000e+00  9.9134137888250534e-18 -8.3151796060254536e-04 0.0000000000000000e+00  6.6132218177574470e-17 -8.3151796060256086e-04 0.0000000000000000e+00  9.6709013232646014e-17 -8.3151796060253929e-04 0.0000000000000000e+00  1.1843026997290789e-16 -8.3151796060252714e-04 0.0000000000000000e+00  1.1967495083762747e-16 -8.3151796060252118e-04 0.0000000000000000e+00  8.3655831680728740e-17 -8.3151796060251012e-04 0.0000000000000000e+00  7.0115285260066318e-17 -8.3151796060250904e-04 0.0000000000000000e+00  4.3818662897009569e-17 -8.3151796060248172e-04 0.0000000000000000e+00  -4.5138983071575861e-33 -8.3151796060250231e-04 0.0000000000000000e+00  -2.8194405446262243e-33 -1.1086906141366823e-03 0.0000000000000000e+00  -2.1914287209854715e-17 -1.1086906141366997e-03 0.0000000000000000e+00  1.4139616147435826e-17 -1.1086906141367263e-03 0.0000000000000000e+00  8.3117362774681899e-17 -1.1086906141367502e-03 0.0000000000000000e+00  1.2424737048686553e-16 -1.1086906141367183e-03 0.0000000000000000e+00  1.5209632023830812e-16 -1.1086906141367055e-03 0.0000000000000000e+00  1.5333360929040008e-16 -1.1086906141366997e-03 0.0000000000000000e+00  1.0660317327253874e-16 -1.1086906141366812e-03 0.0000000000000000e+00  8.9703349699608605e-17 -1.1086906141366719e-03 0.0000000000000000e+00  5.6212742938571588e-17 -1.1086906141366390e-03 0.0000000000000000e+00  8.3874726244335454e-33 -1.1086906141366672e-03 0.0000000000000000e+00  2.5390677977761390e-33 -1.3858632676708566e-03 0.0000000000000000e+00  -2.3711018979234369e-17 -1.3858632676708757e-03 0.0000000000000000e+00  1.8094267163888090e-17 -1.3858632676709086e-03 0.0000000000000000e+00  9.8136724469210837e-17 -1.3858632676709420e-03 0.0000000000000000e+00  1.5007598059460122e-16 -1.3858632676709024e-03 0.0000000000000000e+00  1.8229184206504873e-16 -1.3858632676708924e-03 0.0000000000000000e+00  1.8349757218396577e-16 -1.3858632676708852e-03 0.0000000000000000e+00  1.2875586565135141e-16 -1.3858632676708594e-03 0.0000000000000000e+00  1.0896396166270339e-16 -1.3858632676708295e-03 0.0000000000000000e+00  6.7153560434575366e-17 -1.3858632676707950e-03 0.0000000000000000e+00  -6.8341082167084590e-33 -1.3858632676708293e-03 0.0000000000000000e+00  -3.9050326768730689e-33 -1.6630359212050307e-03 0.0000000000000000e+00  -2.4075385553143594e-17 -1.6630359212050473e-03 0.0000000000000000e+00  2.0959527945075718e-17 -1.6630359212050925e-03 0.0000000000000000e+00  1.1099084310976907e-16 -1.6630359212051347e-03 0.0000000000000000e+00  1.7332578343937664e-16 -1.6630359212050862e-03 0.0000000000000000e+00  2.0979087068371163e-16 -1.6630359212050762e-03 0.0000000000000000e+00  2.1134370139585471e-16 -1.6630359212050703e-03 0.0000000000000000e+00  1.5122081564995024e-16 -1.6630359212050389e-03 0.0000000000000000e+00  1.2778930334170719e-16 -1.6630359212049923e-03 0.0000000000000000e+00  7.5960029715984017e-17 -1.6630359212049491e-03 0.0000000000000000e+00  2.2569491535787900e-33 -1.6630359212049866e-03 0.0000000000000000e+00  -2.2569491535787903e-33 -1.9402085747391999e-03 0.0000000000000000e+00  -2.4187874837414266e-17 -1.9402085747392205e-03 0.0000000000000000e+00  2.1846447702696237e-17 -1.9402085747392732e-03 0.0000000000000000e+00  1.2321730277320494e-16 -1.9402085747393287e-03 0.0000000000000000e+00  1.9354878791666322e-16 -1.9402085747392689e-03 0.0000000000000000e+00  2.3538406932556332e-16 -1.9402085747392561e-03 0.0000000000000000e+00  2.3609165720738709e-16 -1.9402085747392485e-03 0.0000000000000000e+00  1.7245287358117743e-16 -1.9402085747392173e-03 0.0000000000000000e+00  1.4635069029615367e-16 -1.9402085747391505e-03 0.0000000000000000e+00  8.2168203823431958e-17 -1.9402085747391008e-03 0.0000000000000000e+00  0.0000000000000000e+00 -1.9402085747391420e-03 0.0000000000000000e+00  8.6578983266238984e-33 -2.2173812282733651e-03 0.0000000000000000e+00  -2.6229306729063042e-17 -2.2173812282733920e-03 0.0000000000000000e+00  2.1401709610779845e-17 -2.2173812282734648e-03 0.0000000000000000e+00  1.3428273870348606e-16 -2.2173812282735251e-03 0.0000000000000000e+00  2.1185093958381287e-16 -2.2173812282734540e-03 0.0000000000000000e+00  2.5803323772012136e-16 -2.2173812282734419e-03 0.0000000000000000e+00  2.6030465960402221e-16 -2.2173812282734336e-03 0.0000000000000000e+00  1.9204222144290973e-16 -2.2173812282733928e-03 0.0000000000000000e+00  1.6470897077918386e-16 -2.2173812282733065e-03 0.0000000000000000e+00  8.6532847348404517e-17 -2.2173812282732510e-03 0.0000000000000000e+00  -9.7694836277054511e-33 -2.2173812282732957e-03 0.0000000000000000e+00  -6.2066101723416999e-33 -2.4945538818075307e-03 0.0000000000000000e+00  -3.1442319446901560e-17 -2.4945538818075584e-03 0.0000000000000000e+00  1.8368674708193311e-17 -2.4945538818076526e-03 0.0000000000000000e+00  1.4506532398117881e-16 -2.4945538818077206e-03 0.0000000000000000e+00  2.2948786084052464e-16 -2.4945538818076473e-03 0.0000000000000000e+00  2.7628266252470667e-16 -2.4945538818076222e-03 0.0000000000000000e+00  2.8202443250479148e-16 -2.4945538818076391e-03 0.0000000000000000e+00  2.1276170275509062e-16 -2.4945538818075741e-03 0.0000000000000000e+00  1.8234381319086313e-16 -2.4945538818074630e-03 0.0000000000000000e+00  8.9787653762560457e-17 -2.4945538818074062e-03 0.0000000000000000e+00  1.0383618187463945e-32 -2.4945538818074544e-03 0.0000000000000000e+00  -2.2370236027721364e-35 -2.7717265353417011e-03 0.0000000000000000e+00  -3.8534930901592765e-17 -2.7717265353417371e-03 0.0000000000000000e+00  1.3005254524044580e-17 -2.7717265353418528e-03 0.0000000000000000e+00  1.5405487257714425e-16 -2.7717265353419183e-03 0.0000000000000000e+00  2.4819174931022819e-16 -2.7717265353418420e-03 0.0000000000000000e+00  2.9066670186157660e-16 -2.7717265353418038e-03 0.0000000000000000e+00  2.9776590008362646e-16 -2.7717265353418446e-03 0.0000000000000000e+00  2.3701181193348610e-16 -2.7717265353417609e-03 0.0000000000000000e+00  2.0098838315521301e-16 -2.7717265353416165e-03 0.0000000000000000e+00  9.1612343407455748e-17 -2.7717265353415657e-03 0.0000000000000000e+00  -1.5718038748138001e-32 -2.7717265353416104e-03 0.0000000000000000e+00  -4.5138983071575806e-33 -3.0488991888758771e-03 0.0000000000000000e+00  -4.8658545434710610e-17 -3.0488991888759222e-03 0.0000000000000000e+00  5.1222741603653930e-18 -3.0488991888760713e-03 0.0000000000000000e+00  1.6340386340087198e-16 -3.0488991888761138e-03 0.0000000000000000e+00  2.6649338126611993e-16 -3.0488991888760397e-03 0.0000000000000000e+00  3.0339226167524792e-16 -3.0488991888759907e-03 0.0000000000000000e+00  3.0867522582292736e-16 -3.0488991888760432e-03 0.0000000000000000e+00  2.6169289311139884e-16 -3.0488991888759504e-03 0.0000000000000000e+00  2.2138868059345409e-16 -3.0488991888757869e-03 0.0000000000000000e+00  9.2016134657002830e-17 -3.0488991888757179e-03 0.0000000000000000e+00  -1.1284745767893950e-33 -3.0488991888757647e-03 0.0000000000000000e+00  -4.3398257893779561e-33 -3.3260718424100513e-03 0.0000000000000000e+00  -6.3063454453704125e-17 -3.3260718424101125e-03 0.0000000000000000e+00  -3.1265829290541864e-18 -3.3260718424102916e-03 0.0000000000000000e+00  1.7507237193893170e-16 -3.3260718424103033e-03 0.0000000000000000e+00  2.8362098548984144e-16 -3.3260718424102322e-03 0.0000000000000000e+00  3.1469003280101521e-16 -3.3260718424101784e-03 0.0000000000000000e+00  3.1531114139447236e-16 -3.3260718424102369e-03 0.0000000000000000e+00  2.8577591852772964e-16 -3.3260718424101363e-03 0.0000000000000000e+00  2.4147656014362077e-16 -3.3260718424099585e-03 0.0000000000000000e+00  9.4531025609147155e-17 -3.3260718424098783e-03 0.0000000000000000e+00  7.6004339057722292e-34 -3.3260718424099095e-03 0.0000000000000000e+00  1.1284745767893952e-33 -3.6032444959442308e-03 0.0000000000000000e+00  -8.3385440683895917e-17 -3.6032444959443084e-03 0.0000000000000000e+00  -1.0078240718121477e-17 -3.6032444959445040e-03 0.0000000000000000e+00  1.9102121401866951e-16 -3.6032444959444945e-03 0.0000000000000000e+00  2.9849972553973273e-16 -3.6032444959444186e-03 0.0000000000000000e+00  3.2223761081571316e-16 -3.6032444959443809e-03 0.0000000000000000e+00  3.2135254254307705e-16 -3.6032444959444225e-03 0.0000000000000000e+00  3.0878020749707433e-16 -3.6032444959442963e-03 0.0000000000000000e+00  2.6018555437041017e-16 -3.6032444959441410e-03 0.0000000000000000e+00  9.8745085181345292e-17 -3.6032444959440378e-03 0.0000000000000000e+00  -1.0640607468081117e-32 -3.6032444959440747e-03 0.0000000000000000e+00  -3.4489816915165240e-33 -3.8804171494784081e-03 0.0000000000000000e+00  -1.0332835000698036e-16 -3.8804171494785052e-03 0.0000000000000000e+00  -1.7466458235153569e-17 -3.8804171494786987e-03 0.0000000000000000e+00  2.0900052172145278e-16 -3.8804171494786818e-03 0.0000000000000000e+00  3.0897469104358953e-16 -3.8804171494786020e-03 0.0000000000000000e+00  3.2520143940578232e-16 -3.8804171494785803e-03 0.0000000000000000e+00  3.3128474439765659e-16 -3.8804171494785929e-03 0.0000000000000000e+00  3.2669182333082920e-16 -3.8804171494784688e-03 0.0000000000000000e+00  2.7795914569595665e-16 -3.8804171494783192e-03 0.0000000000000000e+00  1.0514945341061549e-16 -3.8804171494781965e-03 0.0000000000000000e+00  8.0605326913528240e-35 -3.8804171494782333e-03 0.0000000000000000e+00  0.0000000000000000e+00 -4.1575898030125945e-03 0.0000000000000000e+00  -1.2274219715631958e-16 -4.1575898030127021e-03 0.0000000000000000e+00  -2.4112523533310895e-17 -4.1575898030128729e-03 0.0000000000000000e+00  2.2493323115724751e-16 -4.1575898030128556e-03 0.0000000000000000e+00  3.1346990970558682e-16 -4.1575898030127923e-03 0.0000000000000000e+00  3.2819629851309917e-16 -4.1575898030127767e-03 0.0000000000000000e+00  3.4266018441613101e-16 -4.1575898030127558e-03 0.0000000000000000e+00  3.4123843439068022e-16 -4.1575898030126440e-03 0.0000000000000000e+00  2.9336661100274436e-16 -4.1575898030124904e-03 0.0000000000000000e+00  1.1137724360022292e-16 -4.1575898030123595e-03 0.0000000000000000e+00  -1.1284745767893950e-33 -4.1575898030124046e-03 0.0000000000000000e+00  -1.2330244462777755e-32 -4.4347624565467814e-03 0.0000000000000000e+00  -1.3663232951865282e-16 -4.4347624565469132e-03 0.0000000000000000e+00  -2.8762899871272482e-17 -4.4347624565470364e-03 0.0000000000000000e+00  2.3424822109785243e-16 -4.4347624565470303e-03 0.0000000000000000e+00  3.1333738874241545e-16 -4.4347624565469991e-03 0.0000000000000000e+00  3.3347146090027070e-16 -4.4347624565469748e-03 0.0000000000000000e+00  3.5495712418613913e-16 -4.4347624565469115e-03 0.0000000000000000e+00  3.5365762871103204e-16 -4.4347624565468022e-03 0.0000000000000000e+00  3.0566401879318302e-16 -4.4347624565466565e-03 0.0000000000000000e+00  1.1497731537977222e-16 -4.4347624565465411e-03 0.0000000000000000e+00  1.0664900613543723e-33 -4.4347624565465827e-03 0.0000000000000000e+00  2.2569491535787999e-33 -4.7119351100809699e-03 0.0000000000000000e+00  -1.4508001655307928e-16 -4.7119351100811347e-03 0.0000000000000000e+00  -2.8837738292446504e-17 -4.7119351100812215e-03 0.0000000000000000e+00  2.3578159603545923e-16 -4.7119351100812241e-03 0.0000000000000000e+00  3.0986731352131680e-16 -4.7119351100812007e-03 0.0000000000000000e+00  3.4385759915491645e-16 -4.7119351100811642e-03 0.0000000000000000e+00  3.6907398940054580e-16 -4.7119351100810463e-03 0.0000000000000000e+00  3.6069021684920534e-16 -4.7119351100809509e-03 0.0000000000000000e+00  3.1445857270366308e-16 -4.7119351100808251e-03 0.0000000000000000e+00  1.1764303611094536e-16 -4.7119351100807167e-03 0.0000000000000000e+00  1.6666427291141837e-32 -4.7119351100807739e-03 0.0000000000000000e+00  -4.3053782840285343e-32 -4.9891077636151663e-03 0.0000000000000000e+00  -1.5667939228584650e-16 -4.9891077636153476e-03 0.0000000000000000e+00  -2.0356050559374090e-17 -4.9891077636154205e-03 0.0000000000000000e+00  2.3321549988012459e-16 -4.9891077636154205e-03 0.0000000000000000e+00  3.0623881944470152e-16 -4.9891077636153953e-03 0.0000000000000000e+00  3.5953064356085233e-16 -4.9891077636153407e-03 0.0000000000000000e+00  3.8636187710407386e-16 -4.9891077636151889e-03 0.0000000000000000e+00  3.5809937156172628e-16 -4.9891077636150761e-03 0.0000000000000000e+00  3.1991256314181683e-16 -4.9891077636149833e-03 0.0000000000000000e+00  1.1750851918675748e-16 -4.9891077636148862e-03 0.0000000000000000e+00  -1.2413220344683359e-32 -4.9891077636149712e-03 0.0000000000000000e+00  -9.0277966143151612e-33 -5.2662804171493731e-03 0.0000000000000000e+00  -1.6674344992047224e-16 -5.2662804171495327e-03 0.0000000000000000e+00  -1.2107193469954531e-17 -5.2662804171496264e-03 0.0000000000000000e+00  2.2993584748574317e-16 -5.2662804171496099e-03 0.0000000000000000e+00  3.0101676072277068e-16 -5.2662804171495856e-03 0.0000000000000000e+00  3.8140458406897759e-16 -5.2662804171495024e-03 0.0000000000000000e+00  4.0344722721824821e-16 -5.2662804171493497e-03 0.0000000000000000e+00  3.5401189558338563e-16 -5.2662804171492092e-03 0.0000000000000000e+00  3.1984278133813921e-16 -5.2662804171491285e-03 0.0000000000000000e+00  1.0805138110255026e-16 -5.2662804171490522e-03 0.0000000000000000e+00  1.5798644075051530e-32 -5.2662804171491580e-03 0.0000000000000000e+00  -3.3319290923921600e-32 -5.5434530706835886e-03 0.0000000000000000e+00  -1.7420218808736133e-16 -5.5434530706837170e-03 0.0000000000000000e+00  -5.4548893655838702e-18 -5.5434530706838462e-03 0.0000000000000000e+00  2.2842667913602263e-16 -5.5434530706838158e-03 0.0000000000000000e+00  2.9796293736985706e-16 -5.5434530706837673e-03 0.0000000000000000e+00  4.0303946970747818e-16 -5.5434530706836667e-03 0.0000000000000000e+00  4.2191603705259481e-16 -5.5434530706835062e-03 0.0000000000000000e+00  3.4904415389374504e-16 -5.5434530706833457e-03 0.0000000000000000e+00  3.1196707693207315e-16 -5.5434530706832781e-03 0.0000000000000000e+00  9.4790164137295813e-17 -5.5434530706832174e-03 0.0000000000000000e+00  -2.0063884070622622e-32 -5.5434530706833388e-03 0.0000000000000000e+00  -6.7708474607363815e-33 -5.8206257242178067e-03 0.0000000000000000e+00  -1.8052960505090608e-16 -5.8206257242179003e-03 0.0000000000000000e+00  -4.3239976678408965e-18 -5.8206257242180573e-03 0.0000000000000000e+00  2.3175687860287731e-16 -5.8206257242180356e-03 0.0000000000000000e+00  2.9523757153209852e-16 -5.8206257242179576e-03 0.0000000000000000e+00  4.2627683510959898e-16 -5.8206257242178292e-03 0.0000000000000000e+00  4.4427828730045656e-16 -5.8206257242176783e-03 0.0000000000000000e+00  3.3713760265917224e-16 -5.8206257242175092e-03 0.0000000000000000e+00  3.0278319432532851e-16 -5.8206257242174493e-03 0.0000000000000000e+00  7.8148599123146348e-17 -5.8206257242173990e-03 0.0000000000000000e+00  -3.4812163622120235e-33 -5.8206257242175074e-03 0.0000000000000000e+00  -3.6066987370255044e-32 -6.0977983777520291e-03 0.0000000000000000e+00  -1.8717682029986799e-16 -6.0977983777520915e-03 0.0000000000000000e+00  -7.5624764529777436e-18 -6.0977983777522641e-03 0.0000000000000000e+00  2.3923823901689643e-16 -6.0977983777522494e-03 0.0000000000000000e+00  2.9702294022596586e-16 -6.0977983777521227e-03 0.0000000000000000e+00  4.4739970923930782e-16 -6.0977983777519987e-03 0.0000000000000000e+00  4.6246818133584585e-16 -6.0977983777518703e-03 0.0000000000000000e+00  3.2686523553003253e-16 -6.0977983777517151e-03 0.0000000000000000e+00  2.9280285615317238e-16 -6.0977983777516049e-03 0.0000000000000000e+00  6.1549130884256048e-17 -6.0977983777515702e-03 0.0000000000000000e+00  -6.4484261530822558e-34 -6.0977983777516761e-03 0.0000000000000000e+00  -2.4826440689366696e-32 -6.3749710312862402e-03 0.0000000000000000e+00  -1.9402440338159675e-16 -6.3749710312863053e-03 0.0000000000000000e+00  -1.4235930783353107e-17 -6.3749710312864813e-03 0.0000000000000000e+00  2.4866200566241658e-16 -6.3749710312864718e-03 0.0000000000000000e+00  3.0589045349732933e-16 -6.3749710312862896e-03 0.0000000000000000e+00  4.6527973746238217e-16 -6.3749710312861751e-03 0.0000000000000000e+00  4.7382426210995285e-16 -6.3749710312860659e-03 0.0000000000000000e+00  3.1840400721323005e-16 -6.3749710312859210e-03 0.0000000000000000e+00  2.8099332536861498e-16 -6.3749710312857762e-03 0.0000000000000000e+00  4.4200054938728944e-17 -6.3749710312857423e-03 0.0000000000000000e+00  -6.7708474607363706e-33 -6.3749710312858508e-03 0.0000000000000000e+00  8.5746228790865338e-33 -6.6521436848204565e-03 0.0000000000000000e+00  -2.0151369147348587e-16 -6.6521436848205094e-03 0.0000000000000000e+00  -2.5534453535620142e-17 -6.6521436848206951e-03 0.0000000000000000e+00  2.6174389886632265e-16 -6.6521436848207029e-03 0.0000000000000000e+00  3.1891145876352766e-16 -6.6521436848204461e-03 0.0000000000000000e+00  4.8086707179186678e-16 -6.6521436848203672e-03 0.0000000000000000e+00  4.7913848879111662e-16 -6.6521436848202709e-03 0.0000000000000000e+00  3.1133629427485443e-16 -6.6521436848201469e-03 0.0000000000000000e+00  2.6866993201526824e-16 -6.6521436848199526e-03 0.0000000000000000e+00  2.6137166372975079e-17 -6.6521436848199101e-03 0.0000000000000000e+00  3.8950942327293951e-33 -6.6521436848200177e-03 0.0000000000000000e+00  -1.3541694921472741e-32 -6.9293163383546720e-03 0.0000000000000000e+00  -2.0873583153129252e-16 -6.9293163383547249e-03 0.0000000000000000e+00  -3.5673726817039650e-17 -6.9293163383549036e-03 0.0000000000000000e+00  2.7597925087214414e-16 -6.9293163383548993e-03 0.0000000000000000e+00  3