<?xml version="1.0"?>
<VTKFile type="UnstructuredGrid"  version="0.1"  >
<UnstructuredGrid>
<Piece  NumberOfPoints="1661" NumberOfCells="3200">
<Points>
<DataArray  type="Float64"  NumberOfComponents="3"  format="ascii">-0.25 -1 0  -0.225 -1 0  -0.2 -1 0  -0.175 -1 0  -0.15 -1 0  -0.125 -1 0  -0.1 -1 0  -0.07500000000000001 -1 0  -0.04999999999999999 -1 0  -0.02499999999999999 -1 0  0 -1 0  0.02500000000000002 -1 0  0.04999999999999999 -1 0  0.07500000000000001 -1 0  0.09999999999999998 -1 0  0.125 -1 0  0.15 -1 0  0.175 -1 0  0.2 -1 0  0.225 -1 0  0.25 -1 0  -0.25 -0.975 0  -0.225 -0.975 0  -0.2 -0.975 0  -0.175 -0.975 0  -0.15 -0.975 0  -0.125 -0.975 0  -0.1 -0.975 0  -0.07500000000000001 -0.975 0  -0.04999999999999999 -0.975 0  -0.02499999999999999 -0.975 0  0 -0.975 0  0.02500000000000002 -0.975 0  0.04999999999999999 -0.975 0  0.07500000000000001 -0.975 0  0.09999999999999998 -0.975 0  0.125 -0.975 0  0.15 -0.975 0  0.175 -0.975 0  0.2 -0.975 0  0.225 -0.975 0  0.25 -0.975 0  -0.25 -0.95 0  -0.225 -0.95 0  -0.2 -0.95 0  -0.175 -0.95 0  -0.15 -0.95 0  -0.125 -0.95 0  -0.1 -0.95 0  -0.07500000000000001 -0.95 0  -0.04999999999999999 -0.95 0  -0.02499999999999999 -0.95 0  0 -0.95 0  0.02500000000000002 -0.95 0  0.04999999999999999 -0.95 0  0.07500000000000001 -0.95 0  0.09999999999999998 -0.95 0  0.125 -0.95 0  0.15 -0.95 0  0.175 -0.95 0  0.2 -0.95 0  0.225 -0.95 0  0.25 -0.95 0  -0.25 -0.925 0  -0.225 -0.925 0  -0.2 -0.925 0  -0.175 -0.925 0  -0.15 -0.925 0  -0.125 -0.925 0  -0.1 -0.925 0  -0.07500000000000001 -0.925 0  -0.04999999999999999 -0.925 0  -0.02499999999999999 -0.925 0  0 -0.925 0  0.02500000000000002 -0.925 0  0.04999999999999999 -0.925 0  0.07500000000000001 -0.925 0  0.09999999999999998 -0.925 0  0.125 -0.925 0  0.15 -0.925 0  0.175 -0.925 0  0.2 -0.925 0  0.225 -0.925 0  0.25 -0.925 0  -0.25 -0.9 0  -0.225 -0.9 0  -0.2 -0.9 0  -0.175 -0.9 0  -0.15 -0.9 0  -0.125 -0.9 0  -0.1 -0.9 0  -0.07500000000000001 -0.9 0  -0.04999999999999999 -0.9 0  -0.02499999999999999 -0.9 0  0 -0.9 0  0.02500000000000002 -0.9 0  0.04999999999999999 -0.9 0  0.07500000000000001 -0.9 0  0.09999999999999998 -0.9 0  0.125 -0.9 0  0.15 -0.9 0  0.175 -0.9 0  0.2 -0.9 0  0.225 -0.9 0  0.25 -0.9 0  -0.25 -0.875 0  -0.225 -0.875 0  -0.2 -0.875 0  -0.175 -0.875 0  -0.15 -0.875 0  -0.125 -0.875 0  -0.1 -0.875 0  -0.07500000000000001 -0.875 0  -0.04999999999999999 -0.875 0  -0.02499999999999999 -0.875 0  0 -0.875 0  0.02500000000000002 -0.875 0  0.04999999999999999 -0.875 0  0.07500000000000001 -0.875 0  0.09999999999999998 -0.875 0  0.125 -0.875 0  0.15 -0.875 0  0.175 -0.875 0  0.2 -0.875 0  0.225 -0.875 0  0.25 -0.875 0  -0.25 -0.85 0  -0.225 -0.85 0  -0.2 -0.85 0  -0.175 -0.85 0  -0.15 -0.85 0  -0.125 -0.85 0  -0.1 -0.85 0  -0.07500000000000001 -0.85 0  -0.04999999999999999 -0.85 0  -0.02499999999999999 -0.85 0  0 -0.85 0  0.02500000000000002 -0.85 0  0.04999999999999999 -0.85 0  0.07500000000000001 -0.85 0  0.09999999999999998 -0.85 0  0.125 -0.85 0  0.15 -0.85 0  0.175 -0.85 0  0.2 -0.85 0  0.225 -0.85 0  0.25 -0.85 0  -0.25 -0.825 0  -0.225 -0.825 0  -0.2 -0.825 0  -0.175 -0.825 0  -0.15 -0.825 0  -0.125 -0.825 0  -0.1 -0.825 0  -0.07500000000000001 -0.825 0  -0.04999999999999999 -0.825 0  -0.02499999999999999 -0.825 0  0 -0.825 0  0.02500000000000002 -0.825 0  0.04999999999999999 -0.825 0  0.07500000000000001 -0.825 0  0.09999999999999998 -0.825 0  0.125 -0.825 0  0.15 -0.825 0  0.175 -0.825 0  0.2 -0.825 0  0.225 -0.825 0  0.25 -0.825 0  -0.25 -0.8 0  -0.225 -0.8 0  -0.2 -0.8 0  -0.175 -0.8 0  -0.15 -0.8 0  -0.125 -0.8 0  -0.1 -0.8 0  -0.07500000000000001 -0.8 0  -0.04999999999999999 -0.8 0  -0.02499999999999999 -0.8 0  0 -0.8 0  0.02500000000000002 -0.8 0  0.04999999999999999 -0.8 0  0.07500000000000001 -0.8 0  0.09999999999999998 -0.8 0  0.125 -0.8 0  0.15 -0.8 0  0.175 -0.8 0  0.2 -0.8 0  0.225 -0.8 0  0.25 -0.8 0  -0.25 -0.775 0  -0.225 -0.775 0  -0.2 -0.775 0  -0.175 -0.775 0  -0.15 -0.775 0  -0.125 -0.775 0  -0.1 -0.775 0  -0.07500000000000001 -0.775 0  -0.04999999999999999 -0.775 0  -0.02499999999999999 -0.775 0  0 -0.775 0  0.02500000000000002 -0.775 0  0.04999999999999999 -0.775 0  0.07500000000000001 -0.775 0  0.09999999999999998 -0.775 0  0.125 -0.775 0  0.15 -0.775 0  0.175 -0.775 0  0.2 -0.775 0  0.225 -0.775 0  0.25 -0.775 0  -0.25 -0.75 0  -0.225 -0.75 0  -0.2 -0.75 0  -0.175 -0.75 0  -0.15 -0.75 0  -0.125 -0.75 0  -0.1 -0.75 0  -0.07500000000000001 -0.75 0  -0.04999999999999999 -0.75 0  -0.02499999999999999 -0.75 0  0 -0.75 0  0.02500000000000002 -0.75 0  0.04999999999999999 -0.75 0  0.07500000000000001 -0.75 0  0.09999999999999998 -0.75 0  0.125 -0.75 0  0.15 -0.75 0  0.175 -0.75 0  0.2 -0.75 0  0.225 -0.75 0  0.25 -0.75 0  -0.25 -0.725 0  -0.225 -0.725 0  -0.2 -0.725 0  -0.175 -0.725 0  -0.15 -0.725 0  -0.125 -0.725 0  -0.1 -0.725 0  -0.07500000000000001 -0.725 0  -0.04999999999999999 -0.725 0  -0.02499999999999999 -0.725 0  0 -0.725 0  0.02500000000000002 -0.725 0  0.04999999999999999 -0.725 0  0.07500000000000001 -0.725 0  0.09999999999999998 -0.725 0  0.125 -0.725 0  0.15 -0.725 0  0.175 -0.725 0  0.2 -0.725 0  0.225 -0.725 0  0.25 -0.725 0  -0.25 -0.7 0  -0.225 -0.7 0  -0.2 -0.7 0  -0.175 -0.7 0  -0.15 -0.7 0  -0.125 -0.7 0  -0.1 -0.7 0  -0.07500000000000001 -0.7 0  -0.04999999999999999 -0.7 0  -0.02499999999999999 -0.7 0  0 -0.7 0  0.02500000000000002 -0.7 0  0.04999999999999999 -0.7 0  0.07500000000000001 -0.7 0  0.09999999999999998 -0.7 0  0.125 -0.7 0  0.15 -0.7 0  0.175 -0.7 0  0.2 -0.7 0  0.225 -0.7 0  0.25 -0.7 0  -0.25 -0.675 0  -0.225 -0.675 0  -0.2 -0.675 0  -0.175 -0.675 0  -0.15 -0.675 0  -0.125 -0.675 0  -0.1 -0.675 0  -0.07500000000000001 -0.675 0  -0.04999999999999999 -0.675 0  -0.02499999999999999 -0.675 0  0 -0.675 0  0.02500000000000002 -0.675 0  0.04999999999999999 -0.675 0  0.07500000000000001 -0.675 0  0.09999999999999998 -0.675 0  0.125 -0.675 0  0.15 -0.675 0  0.175 -0.675 0  0.2 -0.675 0  0.225 -0.675 0  0.25 -0.675 0  -0.25 -0.65 0  -0.225 -0.65 0  -0.2 -0.65 0  -0.175 -0.65 0  -0.15 -0.65 0  -0.125 -0.65 0  -0.1 -0.65 0  -0.07500000000000001 -0.65 0  -0.04999999999999999 -0.65 0  -0.02499999999999999 -0.65 0  0 -0.65 0  0.02500000000000002 -0.65 0  0.04999999999999999 -0.65 0  0.07500000000000001 -0.65 0  0.09999999999999998 -0.65 0  0.125 -0.65 0  0.15 -0.65 0  0.175 -0.65 0  0.2 -0.65 0  0.225 -0.65 0  0.25 -0.65 0  -0.25 -0.625 0  -0.225 -0.625 0  -0.2 -0.625 0  -0.175 -0.625 0  -0.15 -0.625 0  -0.125 -0.625 0  -0.1 -0.625 0  -0.07500000000000001 -0.625 0  -0.04999999999999999 -0.625 0  -0.02499999999999999 -0.625 0  0 -0.625 0  0.02500000000000002 -0.625 0  0.04999999999999999 -0.625 0  0.07500000000000001 -0.625 0  0.09999999999999998 -0.625 0  0.125 -0.625 0  0.15 -0.625 0  0.175 -0.625 0  0.2 -0.625 0  0.225 -0.625 0  0.25 -0.625 0  -0.25 -0.6 0  -0.225 -0.6 0  -0.2 -0.6 0  -0.175 -0.6 0  -0.15 -0.6 0  -0.125 -0.6 0  -0.1 -0.6 0  -0.07500000000000001 -0.6 0  -0.04999999999999999 -0.6 0  -0.02499999999999999 -0.6 0  0 -0.6 0  0.02500000000000002 -0.6 0  0.04999999999999999 -0.6 0  0.07500000000000001 -0.6 0  0.09999999999999998 -0.6 0  0.125 -0.6 0  0.15 -0.6 0  0.175 -0.6 0  0.2 -0.6 0  0.225 -0.6 0  0.25 -0.6 0  -0.25 -0.575 0  -0.225 -0.575 0  -0.2 -0.575 0  -0.175 -0.575 0  -0.15 -0.575 0  -0.125 -0.575 0  -0.1 -0.575 0  -0.07500000000000001 -0.575 0  -0.04999999999999999 -0.575 0  -0.02499999999999999 -0.575 0  0 -0.575 0  0.02500000000000002 -0.575 0  0.04999999999999999 -0.575 0  0.07500000000000001 -0.575 0  0.09999999999999998 -0.575 0  0.125 -0.575 0  0.15 -0.575 0  0.175 -0.575 0  0.2 -0.575 0  0.225 -0.575 0  0.25 -0.575 0  -0.25 -0.55 0  -0.225 -0.55 0  -0.2 -0.55 0  -0.175 -0.55 0  -0.15 -0.55 0  -0.125 -0.55 0  -0.1 -0.55 0  -0.07500000000000001 -0.55 0  -0.04999999999999999 -0.55 0  -0.02499999999999999 -0.55 0  0 -0.55 0  0.02500000000000002 -0.55 0  0.04999999999999999 -0.55 0  0.07500000000000001 -0.55 0  0.09999999999999998 -0.55 0  0.125 -0.55 0  0.15 -0.55 0  0.175 -0.55 0  0.2 -0.55 0  0.225 -0.55 0  0.25 -0.55 0  -0.25 -0.525 0  -0.225 -0.525 0  -0.2 -0.525 0  -0.175 -0.525 0  -0.15 -0.525 0  -0.125 -0.525 0  -0.1 -0.525 0  -0.07500000000000001 -0.525 0  -0.04999999999999999 -0.525 0  -0.02499999999999999 -0.525 0  0 -0.525 0  0.02500000000000002 -0.525 0  0.04999999999999999 -0.525 0  0.07500000000000001 -0.525 0  0.09999999999999998 -0.525 0  0.125 -0.525 0  0.15 -0.525 0  0.175 -0.525 0  0.2 -0.525 0  0.225 -0.525 0  0.25 -0.525 0  -0.25 -0.5 0  -0.225 -0.5 0  -0.2 -0.5 0  -0.175 -0.5 0  -0.15 -0.5 0  -0.125 -0.5 0  -0.1 -0.5 0  -0.07500000000000001 -0.5 0  -0.04999999999999999 -0.5 0  -0.02499999999999999 -0.5 0  0 -0.5 0  0.02500000000000002 -0.5 0  0.04999999999999999 -0.5 0  0.07500000000000001 -0.5 0  0.09999999999999998 -0.5 0  0.125 -0.5 0  0.15 -0.5 0  0.175 -0.5 0  0.2 -0.5 0  0.225 -0.5 0  0.25 -0.5 0  -0.25 -0.475 0  -0.225 -0.475 0  -0.2 -0.475 0  -0.175 -0.475 0  -0.15 -0.475 0  -0.125 -0.475 0  -0.1 -0.475 0  -0.07500000000000001 -0.475 0  -0.04999999999999999 -0.475 0  -0.02499999999999999 -0.475 0  0 -0.475 0  0.02500000000000002 -0.475 0  0.04999999999999999 -0.475 0  0.07500000000000001 -0.475 0  0.09999999999999998 -0.475 0  0.125 -0.475 0  0.15 -0.475 0  0.175 -0.475 0  0.2 -0.475 0  0.225 -0.475 0  0.25 -0.475 0  -0.25 -0.45 0  -0.225 -0.45 0  -0.2 -0.45 0  -0.175 -0.45 0  -0.15 -0.45 0  -0.125 -0.45 0  -0.1 -0.45 0  -0.07500000000000001 -0.45 0  -0.04999999999999999 -0.45 0  -0.02499999999999999 -0.45 0  0 -0.45 0  0.02500000000000002 -0.45 0  0.04999999999999999 -0.45 0  0.07500000000000001 -0.45 0  0.09999999999999998 -0.45 0  0.125 -0.45 0  0.15 -0.45 0  0.175 -0.45 0  0.2 -0.45 0  0.225 -0.45 0  0.25 -0.45 0  -0.25 -0.425 0  -0.225 -0.425 0  -0.2 -0.425 0  -0.175 -0.425 0  -0.15 -0.425 0  -0.125 -0.425 0  -0.1 -0.425 0  -0.07500000000000001 -0.425 0  -0.04999999999999999 -0.425 0  -0.02499999999999999 -0.425 0  0 -0.425 0  0.02500000000000002 -0.425 0  0.04999999999999999 -0.425 0  0.07500000000000001 -0.425 0  0.
[...]
<PointData  Vectors="displacement"> 
<DataArray  type="Float64"  Name="displacement"  NumberOfComponents="3" format="ascii">4.5138983071575895e-33 4.5739779151732272e-18 0.0000000000000000e+00  1.4444474582904291e-32 7.6232965252887146e-19 0.0000000000000000e+00  -2.6942330520846868e-32 4.4935759596330737e-18 0.0000000000000000e+00  5.4166779685891085e-32 -2.5410988417629044e-19 0.0000000000000000e+00  -2.8512891036957683e-32 7.6039694146335637e-19 0.0000000000000000e+00  0.0000000000000000e+00 -3.3034284942917756e-18 0.0000000000000000e+00  7.2955276997075472e-32 -3.7494594670994282e-19 0.0000000000000000e+00  5.7777898331617152e-32 1.2705494208814522e-18 0.0000000000000000e+00  6.5265555373864251e-32 2.0320567469190248e-18 0.0000000000000000e+00  -1.3000027124613864e-31 1.7787691892340338e-18 0.0000000000000000e+00  5.1491431654222192e-32 -1.5953133931193916e-19 0.0000000000000000e+00  6.5000135623069341e-32 1.2705494208814532e-18 0.0000000000000000e+00  5.1486912255734024e-32 -2.3071055963384954e-18 0.0000000000000000e+00  -4.3333423748712850e-32 2.2869889575866132e-18 0.0000000000000000e+00  1.8066273582039178e-31 -3.9026279178651713e-18 0.0000000000000000e+00  4.3333423748712823e-32 3.5575383784680630e-18 0.0000000000000000e+00  -4.9624385078994668e-32 -1.0365567100048818e-18 0.0000000000000000e+00  -1.0833355937178214e-32 1.5246593050577423e-18 0.0000000000000000e+00  5.7909874668775552e-32 -9.8467580118312511e-19 0.0000000000000000e+00  -2.5277830520082525e-32 2.0328790734103251e-18 0.0000000000000000e+00  4.6944542394438901e-32 5.0821976835258049e-19 0.0000000000000000e+00  3.6111186457260631e-33 -1.7759004860030021e-02 0.0000000000000000e+00  -9.8263376899229827e-17 -1.7759004860030014e-02 0.0000000000000000e+00  -1.9643072769161487e-16 -1.7759004860030014e-02 0.0000000000000000e+00  -3.0000510599557807e-16 -1.7759004860030039e-02 0.0000000000000000e+00  -3.9651224351021636e-16 -1.7759004860030056e-02 0.0000000000000000e+00  -4.9093026475339175e-16 -1.7759004860030087e-02 0.0000000000000000e+00  -5.8159254671027192e-16 -1.7759004860030139e-02 0.0000000000000000e+00  -6.6309897776549947e-16 -1.7759004860030177e-02 0.0000000000000000e+00  -7.3517427629215051e-16 -1.7759004860030247e-02 0.0000000000000000e+00  -7.8266031773433954e-16 -1.7759004860030337e-02 0.0000000000000000e+00  -8.0920181398996901e-16 -1.7759004860030424e-02 0.0000000000000000e+00  -8.0896722698837037e-16 -1.7759004860030531e-02 0.0000000000000000e+00  -7.7257479695482639e-16 -1.7759004860030604e-02 0.0000000000000000e+00  -7.1681494303602931e-16 -1.7759004860030691e-02 0.0000000000000000e+00  -6.4190755656367018e-16 -1.7759004860030722e-02 0.0000000000000000e+00  -5.4962615983144224e-16 -1.7759004860030805e-02 0.0000000000000000e+00  -4.5759463027973004e-16 -1.7759004860030826e-02 0.0000000000000000e+00  -3.5710563167899626e-16 -1.7759004860030857e-02 0.0000000000000000e+00  -2.5041922736325261e-16 -1.7759004860030885e-02 0.0000000000000000e+00  -1.3010897721575857e-16 -1.7759004860030916e-02 0.0000000000000000e+00  -2.2173203002766918e-32 -1.7759004860030937e-02 0.0000000000000000e+00  2.1386577640415894e-32 -3.5519262418537159e-02 0.0000000000000000e+00  -1.8466298824465241e-16 -3.5519262418537180e-02 0.0000000000000000e+00  -3.6754064657285275e-16 -3.5519262418537152e-02 0.0000000000000000e+00  -5.4930985370750473e-16 -3.5519262418537215e-02 0.0000000000000000e+00  -7.3504944446956932e-16 -3.5519262418537242e-02 0.0000000000000000e+00  -9.0304303116917688e-16 -3.5519262418537333e-02 0.0000000000000000e+00  -1.0588125058685322e-15 -3.5519262418537402e-02 0.0000000000000000e+00  -1.1984616261975282e-15 -3.5519262418537513e-02 0.0000000000000000e+00  -1.3183410255198590e-15 -3.5519262418537666e-02 0.0000000000000000e+00  -1.4132071962584630e-15 -3.5519262418537867e-02 0.0000000000000000e+00  -1.4636326730304971e-15 -3.5519262418538027e-02 0.0000000000000000e+00  -1.4519493010248636e-15 -3.5519262418538249e-02 0.0000000000000000e+00  -1.3920029491668879e-15 -3.5519262418538429e-02 0.0000000000000000e+00  -1.2884841393149136e-15 -3.5519262418538602e-02 0.0000000000000000e+00  -1.1566339043782621e-15 -3.5519262418538700e-02 0.0000000000000000e+00  -1.0013531568706490e-15 -3.5519262418538818e-02 0.0000000000000000e+00  -8.2705384383297830e-16 -3.5519262418538908e-02 0.0000000000000000e+00  -6.4525326835087926e-16 -3.5519262418538970e-02 0.0000000000000000e+00  -4.3972353781731893e-16 -3.5519262418539074e-02 0.0000000000000000e+00  -2.2215201219449370e-16 -3.5519262418539123e-02 0.0000000000000000e+00  7.9960484298220041e-32 -3.5519262418539144e-02 0.0000000000000000e+00  2.1666711874356403e-32 -5.3282023442428286e-02 0.0000000000000000e+00  -2.6330817467552964e-16 -5.3282023442428356e-02 0.0000000000000000e+00  -5.1664530898835983e-16 -5.3282023442428307e-02 0.0000000000000000e+00  -7.7070529053891823e-16 -5.3282023442428376e-02 0.0000000000000000e+00  -1.0220558660238013e-15 -5.3282023442428467e-02 0.0000000000000000e+00  -1.2483310475095438e-15 -5.3282023442428557e-02 0.0000000000000000e+00  -1.4571872140071174e-15 -5.3282023442428689e-02 0.0000000000000000e+00  -1.6407593744427650e-15 -5.3282023442428869e-02 0.0000000000000000e+00  -1.7935942325523800e-15 -5.3282023442429036e-02 0.0000000000000000e+00  -1.9153067311633294e-15 -5.3282023442429369e-02 0.0000000000000000e+00  -1.9732697890195238e-15 -5.3282023442429695e-02 0.0000000000000000e+00  -1.9605179331044774e-15 -5.3282023442430070e-02 0.0000000000000000e+00  -1.8818037849729898e-15 -5.3282023442430382e-02 0.0000000000000000e+00  -1.7435842851652936e-15 -5.3282023442430597e-02 0.0000000000000000e+00  -1.5787740192880456e-15 -5.3282023442430833e-02 0.0000000000000000e+00  -1.3683079036333453e-15 -5.3282023442430965e-02 0.0000000000000000e+00  -1.1280836977724129e-15 -5.3282023442431117e-02 0.0000000000000000e+00  -8.7004069164585031e-16 -5.3282023442431173e-02 0.0000000000000000e+00  -5.9844127720648368e-16 -5.3282023442431367e-02 0.0000000000000000e+00  -3.0090996353113991e-16 -5.3282023442431416e-02 0.0000000000000000e+00  4.3333423748712790e-32 -5.3282023442431471e-02 0.0000000000000000e+00  -5.4143857546049908e-32 -7.1048534838448377e-02 0.0000000000000000e+00  -3.2476910005565528e-16 -7.1048534838448307e-02 0.0000000000000000e+00  -6.4050271722399873e-16 -7.1048534838448418e-02 0.0000000000000000e+00  -9.5206321146618333e-16 -7.1048534838448446e-02 0.0000000000000000e+00  -1.2596413268114817e-15 -7.1048534838448557e-02 0.0000000000000000e+00  -1.5341543724917636e-15 -7.1048534838448724e-02 0.0000000000000000e+00  -1.7771630414152040e-15 -7.1048534838448862e-02 0.0000000000000000e+00  -1.9848145088776028e-15 -7.1048534838449209e-02 0.0000000000000000e+00  -2.1645932324390555e-15 -7.1048534838449459e-02 0.0000000000000000e+00  -2.3138472327675438e-15 -7.1048534838449820e-02 0.0000000000000000e+00  -2.3827050307989170e-15 -7.1048534838450361e-02 0.0000000000000000e+00  -2.3676651493461800e-15 -7.1048534838450833e-02 0.0000000000000000e+00  -2.2705311752971395e-15 -7.1048534838451236e-02 0.0000000000000000e+00  -2.1197560749707592e-15 -7.1048534838451680e-02 0.0000000000000000e+00  -1.9196994975925453e-15 -7.1048534838451777e-02 0.0000000000000000e+00  -1.6519205134525002e-15 -7.1048534838452151e-02 0.0000000000000000e+00  -1.3681389732942803e-15 -7.1048534838452262e-02 0.0000000000000000e+00  -1.0529642069553595e-15 -7.1048534838452498e-02 0.0000000000000000e+00  -7.0899670472119268e-16 -7.1048534838452707e-02 0.0000000000000000e+00  -3.6006439991294040e-16 -7.1048534838452776e-02 0.0000000000000000e+00  6.7932406281195286e-32 -7.1048534838452818e-02 0.0000000000000000e+00  6.1389016977343209e-32 -8.8820037730540091e-02 0.0000000000000000e+00  -3.6563489693596247e-16 -8.8820037730540188e-02 0.0000000000000000e+00  -7.4514641057513141e-16 -8.8820037730540119e-02 0.0000000000000000e+00  -1.1109660637870945e-15 -8.8820037730540202e-02 0.0000000000000000e+00  -1.4297112491398851e-15 -8.8820037730540286e-02 0.0000000000000000e+00  -1.7451742661731870e-15 -8.8820037730540688e-02 0.0000000000000000e+00  -2.0319969936282569e-15 -8.8820037730540854e-02 0.0000000000000000e+00  -2.2667133797104907e-15 -8.8820037730541174e-02 0.0000000000000000e+00  -2.4698079224669485e-15 -8.8820037730541493e-02 0.0000000000000000e+00  -2.6076994963024680e-15 -8.8820037730542048e-02 0.0000000000000000e+00  -2.6888809974367979e-15 -8.8820037730542631e-02 0.0000000000000000e+00  -2.6791026067913481e-15 -8.8820037730543283e-02 0.0000000000000000e+00  -2.5828352220827439e-15 -8.8820037730543880e-02 0.0000000000000000e+00  -2.4256461726849190e-15 -8.8820037730544338e-02 0.0000000000000000e+00  -2.1685179774303846e-15 -8.8820037730544657e-02 0.0000000000000000e+00  -1.8668638598124549e-15 -8.8820037730544976e-02 0.0000000000000000e+00  -1.5622576084742429e-15 -8.8820037730545184e-02 0.0000000000000000e+00  -1.1901121342634819e-15 -8.8820037730545476e-02 0.0000000000000000e+00  -8.1301966146494735e-16 -8.8820037730545670e-02 0.0000000000000000e+00  -4.1578255785620847e-16 -8.8820037730545795e-02 0.0000000000000000e+00  -4.1051789213766769e-32 -8.8820037730545795e-02 0.0000000000000000e+00  -2.1930362386443892e-32 -1.0659776554612109e-01 0.0000000000000000e+00  -4.1542655056607737e-16 -1.0659776554612106e-01 0.0000000000000000e+00  -8.1161436222295263e-16 -1.0659776554612103e-01 0.0000000000000000e+00  -1.2110504090361782e-15 -1.0659776554612123e-01 0.0000000000000000e+00  -1.5735027512676215e-15 -1.0659776554612152e-01 0.0000000000000000e+00  -1.9152187814660252e-15 -1.0659776554612177e-01 0.0000000000000000e+00  -2.2433980899324641e-15 -1.0659776554612206e-01 0.0000000000000000e+00  -2.4994868518006303e-15 -1.0659776554612233e-01 0.0000000000000000e+00  -2.7058766654759343e-15 -1.0659776554612299e-01 0.0000000000000000e+00  -2.8469200643984668e-15 -1.0659776554612360e-01 0.0000000000000000e+00  -2.9126460747937279e-15 -1.0659776554612416e-01 0.0000000000000000e+00  -2.9078571753771165e-15 -1.0659776554612509e-01 0.0000000000000000e+00  -2.8129141037789737e-15 -1.0659776554612560e-01 0.0000000000000000e+00  -2.6274197546698420e-15 -1.0659776554612625e-01 0.0000000000000000e+00  -2.3592812274262034e-15 -1.0659776554612690e-01 0.0000000000000000e+00  -2.0556507924717277e-15 -1.0659776554612722e-01 0.0000000000000000e+00  -1.6947455785122010e-15 -1.0659776554612754e-01 0.0000000000000000e+00  -1.3093645113688037e-15 -1.0659776554612786e-01 0.0000000000000000e+00  -8.9036143409036338e-16 -1.0659776554612807e-01 0.0000000000000000e+00  -4.4671997046969547e-16 -1.0659776554612814e-01 0.0000000000000000e+00  6.7579506084301989e-32 -1.0659776554612835e-01 0.0000000000000000e+00  1.4444474582904269e-32 -1.2438294211422821e-01 0.0000000000000000e+00  -4.4488406371601686e-16 -1.2438294211422841e-01 0.0000000000000000e+00  -8.6926329628804355e-16 -1.2438294211422830e-01 0.0000000000000000e+00  -1.2854086703958900e-15 -1.2438294211422853e-01 0.0000000000000000e+00  -1.7141081093391678e-15 -1.2438294211422879e-01 0.0000000000000000e+00  -2.0857910970812562e-15 -1.2438294211422896e-01 0.0000000000000000e+00  -2.4041427032283580e-15 -1.2438294211422948e-01 0.0000000000000000e+00  -2.6818165804550083e-15 -1.2438294211422993e-01 0.0000000000000000e+00  -2.8875656424746378e-15 -1.2438294211423047e-01 0.0000000000000000e+00  -3.0336511628533009e-15 -1.2438294211423120e-01 0.0000000000000000e+00  -3.1053747501374726e-15 -1.2438294211423209e-01 0.0000000000000000e+00  -3.0830837069257216e-15 -1.2438294211423298e-01 0.0000000000000000e+00  -2.9835583906970649e-15 -1.2438294211423377e-01 0.0000000000000000e+00  -2.7738090874608076e-15 -1.2438294211423456e-01 0.0000000000000000e+00  -2.5085469781636867e-15 -1.2438294211423521e-01 0.0000000000000000e+00  -2.1794886193916396e-15 -1.2438294211423549e-01 0.0000000000000000e+00  -1.7927294330188436e-15 -1.2438294211423605e-01 0.0000000000000000e+00  -1.3888245707413854e-15 -1.2438294211423621e-01 0.0000000000000000e+00  -9.4868508828831416e-16 -1.2438294211423667e-01 0.0000000000000000e+00  -4.6471391191252789e-16 -1.2438294211423692e-01 0.0000000000000000e+00  6.5000135623069188e-32 -1.2438294211423685e-01 0.0000000000000000e+00  -5.1148199344978080e-32 -1.4217677977846180e-01 0.0000000000000000e+00  -4.6754134033511241e-16 -1.4217677977846177e-01 0.0000000000000000e+00  -9.2814609936684665e-16 -1.4217677977846188e-01 0.0000000000000000e+00  -1.3695181612949692e-15 -1.4217677977846196e-01 0.0000000000000000e+00  -1.8054852261384913e-15 -1.4217677977846244e-01 0.0000000000000000e+00  -2.1990932146602390e-15 -1.4217677977846280e-01 0.0000000000000000e+00  -2.5355922323257365e-15 -1.4217677977846316e-01 0.0000000000000000e+00  -2.8366434810490407e-15 -1.4217677977846385e-01 0.0000000000000000e+00  -3.0397703603768637e-15 -1.4217677977846449e-01 0.0000000000000000e+00  -3.1686602209016413e-15 -1.4217677977846530e-01 0.0000000000000000e+00  -3.2700924874248131e-15 -1.4217677977846629e-01 0.0000000000000000e+00  -3.2424142284165536e-15 -1.4217677977846729e-01 0.0000000000000000e+00  -3.1132783207273738e-15 -1.4217677977846818e-01 0.0000000000000000e+00  -2.9121362978267102e-15 -1.4217677977846913e-01 0.0000000000000000e+00  -2.6216397859125024e-15 -1.4217677977846996e-01 0.0000000000000000e+00  -2.2835281298523306e-15 -1.4217677977847040e-01 0.0000000000000000e+00  -1.8766149877717742e-15 -1.4217677977847074e-01 0.0000000000000000e+00  -1.4316099066141682e-15 -1.4217677977847126e-01 0.0000000000000000e+00  -9.8745242987757910e-16 -1.4217677977847157e-01 0.0000000000000000e+00  -5.2436032126051615e-16 -1.4217677977847198e-01 0.0000000000000000e+00  1.2029784582930395e-31 -1.4217677977847201e-01 0.0000000000000000e+00  2.1666711874356379e-32 -1.5998047752764000e-01 0.0000000000000000e+00  -4.9864128082271104e-16 -1.5998047752763997e-01 0.0000000000000000e+00  -9.8820912946942014e-16 -1.5998047752763994e-01 0.0000000000000000e+00  -1.4333469784183178e-15 -1.5998047752764019e-01 0.0000000000000000e+00  -1.8871952695648683e-15 -1.5998047752764027e-01 0.0000000000000000e+00  -2.3049581371444227e-15 -1.5998047752764097e-01 0.0000000000000000e+00  -2.6558579734275838e-15 -1.5998047752764147e-01 0.0000000000000000e+00  -2.9502442018993633e-15 -1.5998047752764222e-01 0.0000000000000000e+00  -3.1596620633655526e-15 -1.5998047752764305e-01 0.0000000000000000e+00  -3.3348347244333038e-15 -1.5998047752764383e-01 0.0000000000000000e+00  -3.4003917658611120e-15 -1.5998047752764505e-01 0.0000000000000000e+00  -3.3574098514601116e-15 -1.5998047752764610e-01 0.0000000000000000e+00  -3.2258630980149764e-15 -1.5998047752764719e-01 0.0000000000000000e+00  -3.0137082366806253e-15 -1.5998047752764832e-01 0.0000000000000000e+00  -2.7412253464091914e-15 -1.5998047752764910e-01 0.0000000000000000e+00  -2.3885472169279648e-15 -1.5998047752764971e-01 0.0000000000000000e+00  -1.9731212107172333e-15 -1.5998047752765032e-01 0.0000000000000000e+00  -1.4848743115729567e-15 -1.5998047752765046e-01 0.0000000000000000e+00  -1.0036241990921335e-15 -1.5998047752765099e-01 0.0000000000000000e+00  -5.1199169538930005e-16 -1.5998047752765138e-01 0.0000000000000000e+00  -6.6388688324977928e-32 -1.5998047752765149e-01 0.0000000000000000e+00  -1.3965745419658060e-32 -1.7779521914704383e-01 0.0000000000000000e+00  -5.4236148576878028e-16 -1.7779521914704405e-01 0.0000000000000000e+00  -1.0524610323125544e-15 -1.7779521914704385e-01 0.0000000000000000e+00  -1.5258668770702012e-15 -1.7779521914704441e-01 0.0000000000000000e+00  -1.9463935001339046e-15 -1.7779521914704446e-01 0.0000000000000000e+00  -2.3676863374953543e-15 -1.7779521914704505e-01 0.0000000000000000e+00  -2.7310369269047252e-15 -1.7779521914704569e-01 0.0000000000000000e+00  -3.0204203652476481e-15 -1.7779521914704649e-01 0.0000000000000000e+00  -3.2753583483420013e-15 -1.7779521914704732e-01 0.0000000000000000e+00  -3.4381726954824345e-15 -1.7779521914704843e-01 0.0000000000000000e+00  -3.4868717192146435e-15 -1.7779521914704977e-01 0.0000000000000000e+00  -3.4415543023498302e-15 -1.7779521914705090e-01 0.0000000000000000e+00  -3.3224495965742452e-15 -1.7779521914705224e-01 0.0000000000000000e+00  -3.0990631783948733e-15 -1.7779521914705343e-01 0.0000000000000000e+00  -2.8033557878966162e-15 -1.7779521914705390e-01 0.0000000000000000e+00  -2.4667326853336176e-15 -1.7779521914705493e-01 0.0000000000000000e+00  -2.0482349617427894e-15 -1.7779521914705571e-01 0.0000000000000000e+00  -1.5487875105345374e-15 -1.7779521914705607e-01 0.0000000000000000e+00  -1.0404678218422520e-15 -1.7779521914705651e-01 0.0000000000000000e+00  -5.1828920007393730e-16 -1.7779521914705673e-01 0.0000000000000000e+00  1.4341299764454961e-31 -1.7779521914705684e-01 0.0000000000000000e+00  3.6111186457260628e-32 -1.9562217139310809e-01 0.0000000000000000e+00  -5.7715173857182620e-16 -1.9562217139310789e-01 0.0000000000000000e+00  -1.0751895963702874e-15 -1.9562217139310828e-01 0.0000000000000000e+00  -1.5776279932851348e-15 -1.9562217139310845e-01 0.0000000000000000e+00  -2.0326172974905033e-15 -1.9562217139310881e-01 0.0000000000000000e+00  -2.4120612928756076e-15 -1.9562217139310936e-01 0.0000000000000000e+00  -2.7758654738513908e-15 -1.9562217139310992e-01 0.0000000000000000e+00  -3.0847918016227384e-15 -1.9562217139311106e-01 0.0000000000000000e+00  -3.3225598078429274e-15 -1.9562217139311203e-01 0.0000000000000000e+00  -3.4670257835741223e-15 -1.9562217139311305e-01 0.0000000000000000e+00  -3.5420297144629527e-15 -1.9562217139311458e-01 0.0000000000000000e+00  -3.5541228000271042e-15 -1.9562217139311597e-01 0.0000000000000000e+00  -3.4228765537330314e-15 -1.9562217139311727e-01 0.0000000000000000e+00  -3.2027075233381832e-15 -1.9562217139311872e-01 0.0000000000000000e+00  -2.8730768721647313e-15 -1.9562217139311930e-01 0.0000000000000000e+00  -2.4880882868553118e-15 -1.9562217139312030e-01 0.0000000000000000e+00  -2.0729244818843033e-15 -1.9562217139312124e-01 0.0000000000000000e+00  -1.5840723993384065e-15 -1.9562217139312155e-01 0.0000000000000000e+00  -1.0809994169192247e-15 -1.9562217139312219e-01 0.0000000000000000e+00  -5.4178108505168637e-16 -1.9562217139312227e-01 0.0000000000000000e+00  1.4444474582904244e-32 -1.9562217139312255e-01 0.0000000000000000e+00  9.2873457669767291e-32 -2.1346248219436523e-01 0.0000000000000000e+00  -5.5939547723828623e-16 -2.1346248219436528e-01 0.0000000000000000e+00  -1.1097134639311432e-15 -2.1346248219436545e-01 0.0000000000000000e+00  -1.6318767197812647e-15 -2.1346248219436564e-01 0.0000000000000000e+00  -2.1293690752004037e-15 -2.1346248219436625e-01 0.0000000000000000e+00  -2.5116754812415691e-15 -2.1346248219436678e-01 0.0000000000000000e+00  -2.8368667698211227e-15 -2.1346248219436781e-01 0.0000000000000000e+00  -3.1339872424608630e-15 -2.1346248219436853e-01 0.0000000000000000e+00  -3.3692589826538441e-15 -2.1346248219436967e-01 0.0000000000000000e+00  -3.5398337771152566e-15 -2.1346248219437089e-01 0.0000000000000000e+00  -3.6478363327825053e-15 -2.1346248219437233e-01 0.0000000000000000e+00  -3.6372578238353737e-15 -2.1346248219437386e-01 0.0000000000000000e+00  -3.5102213066201115e-15 -2.1346248219437547e-01 0.0000000000000000e+00  -3.2538612016695000e-15 -2.1346248219437700e-01 0.0000000000000000e+00  -2.9212192563928498e-15 -2.1346248219437799e-01 0.0000000000000000e+00  -2.5556767436753096e-15 -2.1346248219437899e-01 0.0000000000000000e+00  -2.1259475032841954e-15 -2.1346248219437977e-01 0.0000000000000000e+00  -1.6491902487810417e-15 -2.1346248219438016e-01 0.0000000000000000e+00  -1.1119970751993862e-15 -2.1346248219438080e-01 0.0000000000000000e+00  -5.4420176979083405e-16 -2.1346248219438102e-01 0.0000000000000000e+00  1.5503021558638531e-31 -2.1346248219438116e-01 0.0000000000000000e+00  3.6111186457260672e-32 -2.3131727888142467e-01 0.0000000000000000e+00  -5.6671982485641410e-16 -2.3131727888142473e-01 0.0000000000000000e+00  -1.1530412718105368e-15 -2.3131727888142484e-01 0.0000000000000000e+00  -1.6676945907872576e-15 -2.3131727888142528e-01 0