<?xml version="1.0"?>
<VTKFile type="UnstructuredGrid"  version="0.1"  >
<UnstructuredGrid>
<Piece  NumberOfPoints="1091" NumberOfCells="2050">
<Points>
<DataArray  type="Float64"  NumberOfComponents="3"  format="ascii">-0.5 -1 0  -0.4 -1 0  -0.3 -1 0  -0.2 -1 0  -0.09999999999999998 -1 0  0 -1 0  0.09999999999999998 -1 0  0.2 -1 0  0.3 -1 0  0.4 -1 0  0.5 -1 0  -0.5 -0.98 0  -0.4 -0.98 0  -0.3 -0.98 0  -0.2 -0.98 0  -0.09999999999999998 -0.98 0  0 -0.98 0  0.09999999999999998 -0.98 0  0.2 -0.98 0  0.3 -0.98 0  0.4 -0.98 0  0.5 -0.98 0  -0.5 -0.96 0  -0.4 -0.96 0  -0.3 -0.96 0  -0.2 -0.96 0  -0.09999999999999998 -0.96 0  0 -0.96 0  0.09999999999999998 -0.96 0  0.2 -0.96 0  0.3 -0.96 0  0.4 -0.96 0  0.5 -0.96 0  -0.5 -0.9399999999999999 0  -0.4 -0.9399999999999999 0  -0.3 -0.9399999999999999 0  -0.2 -0.9399999999999999 0  -0.09999999999999998 -0.9399999999999999 0  0 -0.9399999999999999 0  0.09999999999999998 -0.9399999999999999 0  0.2 -0.9399999999999999 0  0.3 -0.9399999999999999 0  0.4 -0.9399999999999999 0  0.5 -0.9399999999999999 0  -0.5 -0.92 0  -0.4 -0.92 0  -0.3 -0.92 0  -0.2 -0.92 0  -0.09999999999999998 -0.92 0  0 -0.92 0  0.09999999999999998 -0.92 0  0.2 -0.92 0  0.3 -0.92 0  0.4 -0.92 0  0.5 -0.92 0  -0.5 -0.9 0  -0.4 -0.9 0  -0.3 -0.9 0  -0.2 -0.9 0  -0.09999999999999998 -0.9 0  0 -0.9 0  0.09999999999999998 -0.9 0  0.2 -0.9 0  0.3 -0.9 0  0.4 -0.9 0  0.5 -0.9 0  -0.5 -0.88 0  -0.4 -0.88 0  -0.3 -0.88 0  -0.2 -0.88 0  -0.09999999999999998 -0.88 0  0 -0.88 0  0.09999999999999998 -0.88 0  0.2 -0.88 0  0.3 -0.88 0  0.4 -0.88 0  0.5 -0.88 0  -0.5 -0.86 0  -0.4 -0.86 0  -0.3 -0.86 0  -0.2 -0.86 0  -0.09999999999999998 -0.86 0  0 -0.86 0  0.09999999999999998 -0.86 0  0.2 -0.86 0  0.3 -0.86 0  0.4 -0.86 0  0.5 -0.86 0  -0.5 -0.84 0  -0.4 -0.84 0  -0.3 -0.84 0  -0.2 -0.84 0  -0.09999999999999998 -0.84 0  0 -0.84 0  0.09999999999999998 -0.84 0  0.2 -0.84 0  0.3 -0.84 0  0.4 -0.84 0  0.5 -0.84 0  -0.5 -0.8200000000000001 0  -0.4 -0.8200000000000001 0  -0.3 -0.8200000000000001 0  -0.2 -0.8200000000000001 0  -0.09999999999999998 -0.8200000000000001 0  0 -0.8200000000000001 0  0.09999999999999998 -0.8200000000000001 0  0.2 -0.8200000000000001 0  0.3 -0.8200000000000001 0  0.4 -0.8200000000000001 0  0.5 -0.8200000000000001 0  -0.5 -0.8 0  -0.4 -0.8 0  -0.3 -0.8 0  -0.2 -0.8 0  -0.09999999999999998 -0.8 0  0 -0.8 0  0.09999999999999998 -0.8 0  0.2 -0.8 0  0.3 -0.8 0  0.4 -0.8 0  0.5 -0.8 0  -0.5 -0.78 0  -0.4 -0.78 0  -0.3 -0.78 0  -0.2 -0.78 0  -0.09999999999999998 -0.78 0  0 -0.78 0  0.09999999999999998 -0.78 0  0.2 -0.78 0  0.3 -0.78 0  0.4 -0.78 0  0.5 -0.78 0  -0.5 -0.76 0  -0.4 -0.76 0  -0.3 -0.76 0  -0.2 -0.76 0  -0.09999999999999998 -0.76 0  0 -0.76 0  0.09999999999999998 -0.76 0  0.2 -0.76 0  0.3 -0.76 0  0.4 -0.76 0  0.5 -0.76 0  -0.5 -0.74 0  -0.4 -0.74 0  -0.3 -0.74 0  -0.2 -0.74 0  -0.09999999999999998 -0.74 0  0 -0.74 0  0.09999999999999998 -0.74 0  0.2 -0.74 0  0.3 -0.74 0  0.4 -0.74 0  0.5 -0.74 0  -0.5 -0.72 0  -0.4 -0.72 0  -0.3 -0.72 0  -0.2 -0.72 0  -0.09999999999999998 -0.72 0  0 -0.72 0  0.09999999999999998 -0.72 0  0.2 -0.72 0  0.3 -0.72 0  0.4 -0.72 0  0.5 -0.72 0  -0.5 -0.7 0  -0.4 -0.7 0  -0.3 -0.7 0  -0.2 -0.7 0  -0.09999999999999998 -0.7 0  0 -0.7 0  0.09999999999999998 -0.7 0  0.2 -0.7 0  0.3 -0.7 0  0.4 -0.7 0  0.5 -0.7 0  -0.5 -0.6799999999999999 0  -0.4 -0.6799999999999999 0  -0.3 -0.6799999999999999 0  -0.2 -0.6799999999999999 0  -0.09999999999999998 -0.6799999999999999 0  0 -0.6799999999999999 0  0.09999999999999998 -0.6799999999999999 0  0.2 -0.6799999999999999 0  0.3 -0.6799999999999999 0  0.4 -0.6799999999999999 0  0.5 -0.6799999999999999 0  -0.5 -0.6599999999999999 0  -0.4 -0.6599999999999999 0  -0.3 -0.6599999999999999 0  -0.2 -0.6599999999999999 0  -0.09999999999999998 -0.6599999999999999 0  0 -0.6599999999999999 0  0.09999999999999998 -0.6599999999999999 0  0.2 -0.6599999999999999 0  0.3 -0.6599999999999999 0  0.4 -0.6599999999999999 0  0.5 -0.6599999999999999 0  -0.5 -0.64 0  -0.4 -0.64 0  -0.3 -0.64 0  -0.2 -0.64 0  -0.09999999999999998 -0.64 0  0 -0.64 0  0.09999999999999998 -0.64 0  0.2 -0.64 0  0.3 -0.64 0  0.4 -0.64 0  0.5 -0.64 0  -0.5 -0.62 0  -0.4 -0.62 0  -0.3 -0.62 0  -0.2 -0.62 0  -0.09999999999999998 -0.62 0  0 -0.62 0  0.09999999999999998 -0.62 0  0.2 -0.62 0  0.3 -0.62 0  0.4 -0.62 0  0.5 -0.62 0  -0.5 -0.6 0  -0.4 -0.6 0  -0.3 -0.6 0  -0.2 -0.6 0  -0.09999999999999998 -0.6 0  0 -0.6 0  0.09999999999999998 -0.6 0  0.2 -0.6 0  0.3 -0.6 0  0.4 -0.6 0  0.5 -0.6 0  -0.5 -0.5800000000000001 0  -0.4 -0.5800000000000001 0  -0.3 -0.5800000000000001 0  -0.2 -0.5800000000000001 0  -0.09999999999999998 -0.5800000000000001 0  0 -0.5800000000000001 0  0.09999999999999998 -0.5800000000000001 0  0.2 -0.5800000000000001 0  0.3 -0.5800000000000001 0  0.4 -0.5800000000000001 0  0.5 -0.5800000000000001 0  -0.5 -0.5600000000000001 0  -0.4 -0.5600000000000001 0  -0.3 -0.5600000000000001 0  -0.2 -0.5600000000000001 0  -0.09999999999999998 -0.5600000000000001 0  0 -0.5600000000000001 0  0.09999999999999998 -0.5600000000000001 0  0.2 -0.5600000000000001 0  0.3 -0.5600000000000001 0  0.4 -0.5600000000000001 0  0.5 -0.5600000000000001 0  -0.5 -0.54 0  -0.4 -0.54 0  -0.3 -0.54 0  -0.2 -0.54 0  -0.09999999999999998 -0.54 0  0 -0.54 0  0.09999999999999998 -0.54 0  0.2 -0.54 0  0.3 -0.54 0  0.4 -0.54 0  0.5 -0.54 0  -0.5 -0.52 0  -0.4 -0.52 0  -0.3 -0.52 0  -0.2 -0.52 0  -0.09999999999999998 -0.52 0  0 -0.52 0  0.09999999999999998 -0.52 0  0.2 -0.52 0  0.3 -0.52 0  0.4 -0.52 0  0.5 -0.52 0  -0.5 -0.5 0  -0.4 -0.5 0  -0.3 -0.5 0  -0.2 -0.5 0  -0.09999999999999998 -0.5 0  0 -0.5 0  0.09999999999999998 -0.5 0  0.2 -0.5 0  0.3 -0.5 0  0.4 -0.5 0  0.5 -0.5 0  -0.5 -0.48 0  -0.4 -0.48 0  -0.3 -0.48 0  -0.2 -0.48 0  -0.09999999999999998 -0.48 0  0 -0.48 0  0.09999999999999998 -0.48 0  0.2 -0.48 0  0.3 -0.48 0  0.4 -0.48 0  0.5 -0.48 0  -0.5 -0.46 0  -0.4 -0.46 0  -0.3 -0.46 0  -0.2 -0.46 0  -0.09999999999999998 -0.46 0  0 -0.46 0  0.09999999999999998 -0.46 0  0.2 -0.46 0  0.3 -0.46 0  0.4 -0.46 0  0.5 -0.46 0  -0.5 -0.4399999999999999 0  -0.4 -0.4399999999999999 0  -0.3 -0.4399999999999999 0  -0.2 -0.4399999999999999 0  -0.09999999999999998 -0.4399999999999999 0  0 -0.4399999999999999 0  0.09999999999999998 -0.4399999999999999 0  0.2 -0.4399999999999999 0  0.3 -0.4399999999999999 0  0.4 -0.4399999999999999 0  0.5 -0.4399999999999999 0  -0.5 -0.42 0  -0.4 -0.42 0  -0.3 -0.42 0  -0.2 -0.42 0  -0.09999999999999998 -0.42 0  0 -0.42 0  0.09999999999999998 -0.42 0  0.2 -0.42 0  0.3 -0.42 0  0.4 -0.42 0  0.5 -0.42 0  -0.5 -0.4 0  -0.4 -0.4 0  -0.3 -0.4 0  -0.2 -0.4 0  -0.09999999999999998 -0.4 0  0 -0.4 0  0.09999999999999998 -0.4 0  0.2 -0.4 0  0.3 -0.4 0  0.4 -0.4 0  0.5 -0.4 0  -0.5 -0.38 0  -0.4 -0.38 0  -0.3 -0.38 0  -0.2 -0.38 0  -0.09999999999999998 -0.38 0  0 -0.38 0  0.09999999999999998 -0.38 0  0.2 -0.38 0  0.3 -0.38 0  0.4 -0.38 0  0.5 -0.38 0  -0.5 -0.36 0  -0.4 -0.36 0  -0.3 -0.36 0  -0.2 -0.36 0  -0.09999999999999998 -0.36 0  0 -0.36 0  0.09999999999999998 -0.36 0  0.2 -0.36 0  0.3 -0.36 0  0.4 -0.36 0  0.5 -0.36 0  -0.5 -0.34 0  -0.4 -0.34 0  -0.3 -0.34 0  -0.2 -0.34 0  -0.09999999999999998 -0.34 0  0 -0.34 0  0.09999999999999998 -0.34 0  0.2 -0.34 0  0.3 -0.34 0  0.4 -0.34 0  0.5 -0.34 0  -0.5 -0.32 0  -0.4 -0.32 0  -0.3 -0.32 0  -0.2 -0.32 0  -0.09999999999999998 -0.32 0  0 -0.32 0  0.09999999999999998 -0.32 0  0.2 -0.32 0  0.3 -0.32 0  0.4 -0.32 0  0.5 -0.32 0  -0.5 -0.3 0  -0.4 -0.3 0  -0.3 -0.3 0  -0.2 -0.3 0  -0.09999999999999998 -0.3 0  0 -0.3 0  0.09999999999999998 -0.3 0  0.2 -0.3 0  0.3 -0.3 0  0.4 -0.3 0  0.5 -0.3 0  -0.5 -0.28 0  -0.4 -0.28 0  -0.3 -0.28 0  -0.2 -0.28 0  -0.09999999999999998 -0.28 0  0 -0.28 0  0.09999999999999998 -0.28 0  0.2 -0.28 0  0.3 -0.28 0  0.4 -0.28 0  0.5 -0.28 0  -0.5 -0.26 0  -0.4 -0.26 0  -0.3 -0.26 0  -0.2 -0.26 0  -0.09999999999999998 -0.26 0  0 -0.26 0  0.09999999999999998 -0.26 0  0.2 -0.26 0  0.3 -0.26 0  0.4 -0.26 0  0.5 -0.26 0  -0.5 -0.24 0  -0.4 -0.24 0  -0.3 -0.24 0  -0.2 -0.24 0  -0.09999999999999998 -0.24 0  0 -0.24 0  0.09999999999999998 -0.24 0  0.2 -0.24 0  0.3 -0.24 0  0.4 -0.24 0  0.5 -0.24 0  -0.5 -0.22 0  -0.4 -0.22 0  -0.3 -0.22 0  -0.2 -0.22 0  -0.09999999999999998 -0.22 0  0 -0.22 0  0.09999999999999998 -0.22 0  0.2 -0.22 0  0.3 -0.22 0  0.4 -0.22 0  0.5 -0.22 0  -0.5 -0.2 0  -0.4 -0.2 0  -0.3 -0.2 0  -0.2 -0.2 0  -0.09999999999999998 -0.2 0  0 -0.2 0  0.09999999999999998 -0.2 0  0.2 -0.2 0  0.3 -0.2 0  0.4 -0.2 0  0.5 -0.2 0  -0.5 -0.18 0  -0.4 -0.18 0  -0.3 -0.18 0  -0.2 -0.18 0  -0.09999999999999998 -0.18 0  0 -0.18 0  0.09999999999999998 -0.18 0  0.2 -0.18 0  0.3 -0.18 0  0.4 -0.18 0  0.5 -0.18 0  -0.5 -0.16 0  -0.4 -0.16 0  -0.3 -0.16 0  -0.2 -0.16 0  -0.09999999999999998 -0.16 0  0 -0.16 0  0.09999999999999998 -0.16 0  0.2 -0.16 0  0.3 -0.16 0  0.4 -0.16 0  0.5 -0.16 0  -0.5 -0.14 0  -0.4 -0.14 0  -0.3 -0.14 0  -0.2 -0.14 0  -0.09999999999999998 -0.14 0  0 -0.14 0  0.09999999999999998 -0.14 0  0.2 -0.14 0  0.3 -0.14 0  0.4 -0.14 0  0.5 -0.14 0  -0.5 -0.12 0  -0.4 -0.12 0  -0.3 -0.12 0  -0.2 -0.12 0  -0.09999999999999998 -0.12 0  0 -0.12 0  0.09999999999999998 -0.12 0  0.2 -0.12 0  0.3 -0.12 0  0.4 -0.12 0  0.5 -0.12 0  -0.5 -0.09999999999999998 0  -0.4 -0.09999999999999998 0  -0.3 -0.09999999999999998 0  -0.2 -0.09999999999999998 0  -0.09999999999999998 -0.09999999999999998 0  0 -0.09999999999999998 0  0.09999999999999998 -0.09999999999999998 0  0.2 -0.09999999999999998 0  0.3 -0.09999999999999998 0  0.4 -0.09999999999999998 0  0.5 -0.09999999999999998 0  -0.5 -0.07999999999999996 0  -0.4 -0.07999999999999996 0  -0.3 -0.07999999999999996 0  -0.2 -0.07999999999999996 0  -0.09999999999999998 -0.07999999999999996 0  0 -0.07999999999999996 0  0.09999999999999998 -0.07999999999999996 0  0.2 -0.07999999999999996 0  0.3 -0.07999999999999996 0  0.4 -0.07999999999999996 0  0.5 -0.07999999999999996 0  -0.5 -0.06000000000000005 0  -0.4 -0.06000000000000005 0  -0.3 -0.06000000000000005 0  -0.2 -0.06000000000000005 0  -0.09999999
[...]
<PointData  Vectors="displacement"> 
<DataArray  type="Float64"  Name="displacement"  NumberOfComponents="3" format="ascii">4.2317796629602299e-34 -9.9261673506363231e-21 0.0000000000000000e+00  -5.6423728839469741e-34 4.9630836753181608e-21 0.0000000000000000e+00  -1.8954846407009369e-34 -1.3764802380765213e-21 0.0000000000000000e+00  6.7708474607363706e-33 1.4889251025954486e-20 0.0000000000000000e+00  -5.0131387864570360e-34 -2.4852968285800708e-20 0.0000000000000000e+00  -3.3854237303681846e-33 7.4446255129772416e-21 0.0000000000000000e+00  1.2207141491304814e-32 -7.2846823867218725e-21 0.0000000000000000e+00  0.0000000000000000e+00 -3.4741585727227126e-20 0.0000000000000000e+00  3.4011665260529421e-33 -1.1166938269465862e-20 0.0000000000000000e+00  5.6423728839469758e-34 6.9483171454454277e-20 0.0000000000000000e+00  -1.6927118651840920e-33 0.0000000000000000e+00 0.0000000000000000e+00  -5.6423728839469758e-34 -2.7717265353417329e-04 0.0000000000000000e+00  -5.1554579670515739e-18 -2.7717265353417481e-04 0.0000000000000000e+00  4.7368289780248610e-18 -2.7717265353417877e-04 0.0000000000000000e+00  2.4065653853492285e-17 -2.7717265353417915e-04 0.0000000000000000e+00  3.1229165193684797e-17 -2.7717265353417671e-04 0.0000000000000000e+00  3.6451944006842585e-17 -2.7717265353417183e-04 0.0000000000000000e+00  4.1000966499153599e-17 -2.7717265353417297e-04 0.0000000000000000e+00  3.1625453652632970e-17 -2.7717265353416841e-04 0.0000000000000000e+00  2.9289903221676540e-17 -2.7717265353416944e-04 0.0000000000000000e+00  1.7500740716685349e-17 -2.7717265353416191e-04 0.0000000000000000e+00  -2.6449302357150848e-33 -2.7717265353416923e-04 0.0000000000000000e+00  2.8371565769772439e-34 -5.5434530706834583e-04 0.0000000000000000e+00  -7.6708349868014579e-18 -5.5434530706835016e-04 0.0000000000000000e+00  1.0424830678467357e-17 -5.5434530706835797e-04 0.0000000000000000e+00  4.4504127728740368e-17 -5.5434530706836111e-04 0.0000000000000000e+00  5.9953890740640225e-17 -5.5434530706835613e-04 0.0000000000000000e+00  7.1302005757922290e-17 -5.5434530706834398e-04 0.0000000000000000e+00  7.7848588781397249e-17 -5.5434530706834637e-04 0.0000000000000000e+00  6.1070215802706928e-17 -5.5434530706833759e-04 0.0000000000000000e+00  5.5300604835700780e-17 -5.5434530706833889e-04 0.0000000000000000e+00  3.3025242333729282e-17 -5.5434530706832122e-04 0.0000000000000000e+00  7.6575060567851917e-34 -5.5434530706833564e-04 0.0000000000000000e+00  -2.8211864419734926e-34 -8.3151796060251825e-04 0.0000000000000000e+00  -8.7023061691338416e-18 -8.3151796060252617e-04 0.0000000000000000e+00  1.6687230870288243e-17 -8.3151796060253972e-04 0.0000000000000000e+00  6.1999474252734182e-17 -8.3151796060254818e-04 0.0000000000000000e+00  8.6718779962473534e-17 -8.3151796060253636e-04 0.0000000000000000e+00  1.0424102466653144e-16 -8.3151796060251782e-04 0.0000000000000000e+00  1.1129304766612045e-16 -8.3151796060252151e-04 0.0000000000000000e+00  8.7437049215391485e-17 -8.3151796060250709e-04 0.0000000000000000e+00  7.8630234513660684e-17 -8.3151796060250774e-04 0.0000000000000000e+00  4.7479004867042490e-17 -8.3151796060247868e-04 0.0000000000000000e+00  -1.0720508479499268e-32 -8.3151796060250015e-04 0.0000000000000000e+00  3.0866799193780974e-34 -1.1086906141366910e-03 0.0000000000000000e+00  -8.6547056060923457e-18 -1.1086906141366997e-03 0.0000000000000000e+00  2.2742634821910220e-17 -1.1086906141367216e-03 0.0000000000000000e+00  7.7204894430800269e-17 -1.1086906141367324e-03 0.0000000000000000e+00  1.1175766953090962e-16 -1.1086906141367131e-03 0.0000000000000000e+00  1.3410075839933001e-16 -1.1086906141366943e-03 0.0000000000000000e+00  1.4217103427385042e-16 -1.1086906141366986e-03 0.0000000000000000e+00  1.1135957070716381e-16 -1.1086906141366780e-03 0.0000000000000000e+00  9.9875249571236324e-17 -1.1086906141366700e-03 0.0000000000000000e+00  6.0269871092596145e-17 -1.1086906141366342e-03 0.0000000000000000e+00  -4.3334388282784787e-33 -1.1086906141366645e-03 0.0000000000000000e+00  9.1688559364138357e-34 -1.3858632676708674e-03 0.0000000000000000e+00  -7.9819496322908017e-18 -1.3858632676708794e-03 0.0000000000000000e+00  2.8646484549445982e-17 -1.3858632676709047e-03 0.0000000000000000e+00  9.0460070079289181e-17 -1.3858632676709173e-03 0.0000000000000000e+00  1.3497525027767999e-16 -1.3858632676708974e-03 0.0000000000000000e+00  1.6104396698668242e-16 -1.3858632676708774e-03 0.0000000000000000e+00  1.6977927381373412e-16 -1.3858632676708792e-03 0.0000000000000000e+00  1.3445449959700952e-16 -1.3858632676708542e-03 0.0000000000000000e+00  1.1973302857072620e-16 -1.3858632676708275e-03 0.0000000000000000e+00  7.1445853292516439e-17 -1.3858632676707926e-03 0.0000000000000000e+00  -2.5264327043076672e-33 -1.3858632676708282e-03 0.0000000000000000e+00  7.3104373081441842e-35 -1.6630359212050424e-03 0.0000000000000000e+00  -6.0930814337660899e-18 -1.6630359212050558e-03 0.0000000000000000e+00  3.4317448756664426e-17 -1.6630359212050866e-03 0.0000000000000000e+00  1.0110791734791028e-16 -1.6630359212051046e-03 0.0000000000000000e+00  1.5403410153670172e-16 -1.6630359212050805e-03 0.0000000000000000e+00  1.8721862185908566e-16 -1.6630359212050558e-03 0.0000000000000000e+00  1.9418075680657844e-16 -1.6630359212050591e-03 0.0000000000000000e+00  1.5754519709312201e-16 -1.6630359212050322e-03 0.0000000000000000e+00  1.3943328022417270e-16 -1.6630359212049892e-03 0.0000000000000000e+00  7.9548077575405039e-17 -1.6630359212049515e-03 0.0000000000000000e+00  -4.1914769995034669e-33 -1.6630359212049840e-03 0.0000000000000000e+00  -1.1990042378387324e-33 -1.9402085747392158e-03 0.0000000000000000e+00  -4.7368289780248580e-18 -1.9402085747392288e-03 0.0000000000000000e+00  3.9270096412069436e-17 -1.9402085747392691e-03 0.0000000000000000e+00  1.1082738637881461e-16 -1.9402085747392912e-03 0.0000000000000000e+00  1.7056507723606275e-16 -1.9402085747392580e-03 0.0000000000000000e+00  2.1174971490239522e-16 -1.9402085747392342e-03 0.0000000000000000e+00  2.1641127594629934e-16 -1.9402085747392338e-03 0.0000000000000000e+00  1.7837664808113126e-16 -1.9402085747392025e-03 0.0000000000000000e+00  1.5719394598627771e-16 -1.9402085747391492e-03 0.0000000000000000e+00  8.5367259213637117e-17 -1.9402085747391024e-03 0.0000000000000000e+00  -4.5138983071575799e-33 -1.9402085747391414e-03 0.0000000000000000e+00  4.9949413422830180e-34 -2.2173812282733837e-03 0.0000000000000000e+00  -4.9047389604548450e-18 -2.2173812282734024e-03 0.0000000000000000e+00  4.2753526940776971e-17 -2.2173812282734562e-03 0.0000000000000000e+00  1.1925712123124561e-16 -2.2173812282734822e-03 0.0000000000000000e+00  1.8465133117706750e-16 -2.2173812282734358e-03 0.0000000000000000e+00  2.3393712573189197e-16 -2.2173812282734158e-03 0.0000000000000000e+00  2.3841857910064295e-16 -2.2173812282734115e-03 0.0000000000000000e+00  1.9630432598400275e-16 -2.2173812282733733e-03 0.0000000000000000e+00  1.7394943694916108e-16 -2.2173812282733061e-03 0.0000000000000000e+00  9.0394793642848000e-17 -2.2173812282732506e-03 0.0000000000000000e+00  -1.2424343850444186e-32 -2.2173812282732909e-03 0.0000000000000000e+00  -1.5516525430854250e-33 -2.4945538818075528e-03 0.0000000000000000e+00  -7.2507149214481044e-18 -2.4945538818075745e-03 0.0000000000000000e+00  4.3838684047802231e-17 -2.4945538818076395e-03 0.0000000000000000e+00  1.2751787042385505e-16 -2.4945538818076703e-03 0.0000000000000000e+00  1.9664210932519479e-16 -2.4945538818076205e-03 0.0000000000000000e+00  2.5260513731447053e-16 -2.4945538818075901e-03 0.0000000000000000e+00  2.5899082954340804e-16 -2.4945538818076022e-03 0.0000000000000000e+00  2.1281950317956064e-16 -2.4945538818075472e-03 0.0000000000000000e+00  1.8911253261706042e-16 -2.4945538818074656e-03 0.0000000000000000e+00  9.5867762600025099e-17 -2.4945538818074006e-03 0.0000000000000000e+00  1.5954373155703138e-32 -2.4945538818074444e-03 0.0000000000000000e+00  -1.4121389051728321e-33 -2.7717265353417266e-03 0.0000000000000000e+00  -1.1507250122176880e-17 -2.7717265353417540e-03 0.0000000000000000e+00  4.3705637965714971e-17 -2.7717265353418299e-03 0.0000000000000000e+00  1.3446468945938609e-16 -2.7717265353418659e-03 0.0000000000000000e+00  2.0910842327453467e-16 -2.7717265353418051e-03 0.0000000000000000e+00  2.6761535024272278e-16 -2.7717265353417683e-03 0.0000000000000000e+00  2.7499147584574166e-16 -2.7717265353418017e-03 0.0000000000000000e+00  2.3146170525726535e-16 -2.7717265353417227e-03 0.0000000000000000e+00  2.0406776082582347e-16 -2.7717265353416208e-03 0.0000000000000000e+00  9.9029417615144169e-17 -2.7717265353415540e-03 0.0000000000000000e+00  -9.5920339027098579e-33 -2.7717265353415961e-03 0.0000000000000000e+00  -2.8211864419734879e-34 -3.0488991888759065e-03 0.0000000000000000e+00  -1.6251918825723364e-17 -3.0488991888759347e-03 0.0000000000000000e+00  4.0778624159791961e-17 -3.0488991888760332e-03 0.0000000000000000e+00  1.4136151891307886e-16 -3.0488991888760596e-03 0.0000000000000000e+00  2.2313283157581880e-16 -3.0488991888759898e-03 0.0000000000000000e+00  2.8017234489144894e-16 -3.0488991888759399e-03 0.0000000000000000e+00  2.8678914531954776e-16 -3.0488991888759911e-03 0.0000000000000000e+00  2.4894353448406467e-16 -3.0488991888759005e-03 0.0000000000000000e+00  2.1965908152631778e-16 -3.0488991888757834e-03 0.0000000000000000e+00  1.0087860501966755e-16 -3.0488991888757088e-03 0.0000000000000000e+00  7.8993220375257652e-33 -3.0488991888757483e-03 0.0000000000000000e+00  -2.9986273210108397e-34 -3.3260718424100847e-03 0.0000000000000000e+00  -2.4744628989682109e-17 -3.3260718424101277e-03 0.0000000000000000e+00  3.7652041230737701e-17 -3.3260718424102395e-03 0.0000000000000000e+00  1.5022135702481505e-16 -3.3260718424102508e-03 0.0000000000000000e+00  2.3801944085438081e-16 -3.3260718424101762e-03 0.0000000000000000e+00  2.8887257914473153e-16 -3.3260718424101198e-03 0.0000000000000000e+00  2.9399873906386175e-16 -3.3260718424101806e-03 0.0000000000000000e+00  2.6693627821141235e-16 -3.3260718424100721e-03 0.0000000000000000e+00  2.3283064365297160e-16 -3.3260718424099485e-03 0.0000000000000000e+00  1.0281733644864905e-16 -3.3260718424098657e-03 0.0000000000000000e+00  -1.1870854025110299e-32 -3.3260718424099013e-03 0.0000000000000000e+00  -2.8211864419734880e-33 -3.6032444959442607e-03 0.0000000000000000e+00  -3.6511783068931292e-17 -3.6032444959443219e-03 0.0000000000000000e+00  3.4957858068467654e-17 -3.6032444959444390e-03 0.0000000000000000e+00  1.5996973898580506e-16 -3.6032444959444359e-03 0.0000000000000000e+00  2.5208262926147041e-16 -3.6032444959443626e-03 0.0000000000000000e+00  2.9354954936561471e-16 -3.6032444959443141e-03 0.0000000000000000e+00  3.0026837651102884e-16 -3.6032444959443639e-03 0.0000000000000000e+00  2.8501913870208987e-16 -3.6032444959442334e-03 0.0000000000000000e+00  2.4350599606451431e-16 -3.6032444959441115e-03 0.0000000000000000e+00  1.0498392142407588e-16 -3.6032444959440161e-03 0.0000000000000000e+00  8.2055156010288895e-33 -3.6032444959440543e-03 0.0000000000000000e+00  -6.2097624087814727e-33 -3.8804171494784380e-03 0.0000000000000000e+00  -4.7453690709523186e-17 -3.8804171494785074e-03 0.0000000000000000e+00  3.1653757426669507e-17 -3.8804171494786297e-03 0.0000000000000000e+00  1.7201413025005498e-16 -3.8804171494786202e-03 0.0000000000000000e+00  2.6035279277695365e-16 -3.8804171494785473e-03 0.0000000000000000e+00  2.9398503972418073e-16 -3.8804171494785105e-03 0.0000000000000000e+00  3.0793515699131617e-16 -3.8804171494785356e-03 0.0000000000000000e+00  2.9954100509204222e-16 -3.8804171494784111e-03 0.0000000000000000e+00  2.5435021527066941e-16 -3.8804171494782754e-03 0.0000000000000000e+00  1.0861512084761885e-16 -3.8804171494781687e-03 0.0000000000000000e+00  -9.7532445565369127e-33 -3.8804171494781965e-03 0.0000000000000000e+00  -1.6927118651840926e-33 -4.1575898030126179e-03 0.0000000000000000e+00  -5.7805220793396690e-17 -4.1575898030126960e-03 0.0000000000000000e+00  2.6733947119439469e-17 -4.1575898030128200e-03 0.0000000000000000e+00  1.8390213877666927e-16 -4.1575898030127957e-03 0.0000000000000000e+00  2.6421612650134276e-16 -4.1575898030127385e-03 0.0000000000000000e+00  2.9248285162598442e-16 -4.1575898030127012e-03 0.0000000000000000e+00  3.1570172203316890e-16 -4.1575898030126986e-03 0.0000000000000000e+00  3.1279147241081438e-16 -4.1575898030125910e-03 0.0000000000000000e+00  2.6595911809273736e-16 -4.1575898030124445e-03 0.0000000000000000e+00  1.1314074701830781e-16 -4.1575898030123213e-03 0.0000000000000000e+00  1.0156271191104554e-32 -4.1575898030123577e-03 0.0000000000000000e+00  -6.1153386932103794e-34 -4.4347624565467978e-03 0.0000000000000000e+00  -6.7983658807277555e-17 -4.4347624565468959e-03 0.0000000000000000e+00  2.2792456937599836e-17 -4.4347624565470008e-03 0.0000000000000000e+00  1.9184479123420649e-16 -4.4347624565469852e-03 0.0000000000000000e+00  2.6522310316811212e-16 -4.4347624565469305e-03 0.0000000000000000e+00  2.9478299355479685e-16 -4.4347624565468967e-03 0.0000000000000000e+00  3.2108980910827330e-16 -4.4347624565468638e-03 0.0000000000000000e+00  3.2421164856431856e-16 -4.4347624565467527e-03 0.0000000000000000e+00  2.7678470360008426e-16 -4.4347624565466096e-03 0.0000000000000000e+00  1.1661216081335012e-16 -4.4347624565464865e-03 0.0000000000000000e+00  -1.5480528189263205e-32 -4.4347624565465125e-03 0.0000000000000000e+00  -9.0277966143151995e-33 -4.7119351100809804e-03 0.0000000000000000e+00  -7.6942632426474632e-17 -4.7119351100811044e-03 0.0000000000000000e+00  2.1183430882355142e-17 -4.7119351100811868e-03 0.0000000000000000e+00  1.9535433987962882e-16 -4.7119351100811746e-03 0.0000000000000000e+00  2.6396384912682259e-16 -4.7119351100811321e-03 0.0000000000000000e+00  2.9988586902502667e-16 -4.7119351100810879e-03 0.0000000000000000e+00  3.2893980720086489e-16 -4.7119351100810133e-03 0.0000000000000000e+00  3.2837350281037206e-16 -4.7119351100809049e-03 0.0000000000000000e+00  2.8707602593404775e-16 -4.7119351100807678e-03 0.0000000000000000e+00  1.1990540219000192e-16 -4.7119351100806473e-03 0.0000000000000000e+00  2.7143665749066484e-32 -4.7119351100806907e-03 0.0000000000000000e+00  -1.3589667037707656e-32 -4.9891077636151698e-03 0.0000000000000000e+00  -8.5062264724644755e-17 -4.9891077636152964e-03 0.0000000000000000e+00  2.4879617350346108e-17 -4.9891077636153832e-03 0.0000000000000000e+00  1.9654402153626638e-16 -4.9891077636153624e-03 0.0000000000000000e+00  2.5914050638575750e-16 -4.9891077636153285e-03 0.0000000000000000e+00  3.0986787368901773e-16 -4.9891077636152695e-03 0.0000000000000000e+00  3.4141818840397653e-16 -4.9891077636151507e-03 0.0000000000000000e+00  3.2614492162100371e-16 -4.9891077636150354e-03 0.0000000000000000e+00  2.9468760036225577e-16 -4.9891077636149096e-03 0.0000000000000000e+00  1.2141969397458011e-16 -4.9891077636148098e-03 0.0000000000000000e+00  -4.0705690091331794e-32 -4.9891077636148619e-03 0.0000000000000000e+00  -1.2413220344683348e-32 -5.2662804171493636e-03 0.0000000000000000e+00  -9.2757009241322674e-17 -5.2662804171494859e-03 0.0000000000000000e+00  3.0068414551755265e-17 -5.2662804171495891e-03 0.0000000000000000e+00  1.9566639269783706e-16 -5.2662804171495449e-03 0.0000000000000000e+00  2.5079186473477258e-16 -5.2662804171495301e-03 0.0000000000000000e+00  3.2619836928156263e-16 -5.2662804171494382e-03 0.0000000000000000e+00  3.5321112234905863e-16 -5.2662804171493107e-03 0.0000000000000000e+00  3.2302095905982581e-16 -5.2662804171491702e-03 0.0000000000000000e+00  2.9749103954745410e-16 -5.2662804171490496e-03 0.0000000000000000e+00  1.1583770631476195e-16 -5.2662804171489715e-03 0.0000000000000000e+00  3.2725762726892457e-32 -5.2662804171490323e-03 0.0000000000000000e+00  -9.3065905495688583e-33 -5.5434530706835582e-03 0.0000000000000000e+00  -9.9544107478492249e-17 -5.5434530706836675e-03 0.0000000000000000e+00  3.6521149532994581e-17 -5.5434530706837837e-03 0.0000000000000000e+00  1.9159462744257662e-16 -5.5434530706837508e-03 0.0000000000000000e+00  2.4444099316013015e-16 -5.5434530706837161e-03 0.0000000000000000e+00  3.4074031949001255e-16 -5.5434530706835990e-03 0.0000000000000000e+00  3.6610185956764455e-16 -5.5434530706834784e-03 0.0000000000000000e+00  3.2122078580617663e-16 -5.5434530706833128e-03 0.0000000000000000e+00  2.9159335618992179e-16 -5.5434530706831887e-03 0.0000000000000000e+00  1.0753222247983378e-16 -5.5434530706831350e-03 0.0000000000000000e+00  -8.4448916173022027e-33 -5.5434530706831965e-03 0.0000000000000000e+00  -2.2569491535787941e-33 -5.8206257242177572e-03 0.0000000000000000e+00  -1.0636015166060017e-16 -5.8206257242178509e-03 0.0000000000000000e+00  3.8051179476999950e-17 -5.8206257242179680e-03 0.0000000000000000e+00  1.9146833146132870e-16 -5.8206257242179576e-03 0.0000000000000000e+00  2.3889671345814459e-16 -5.8206257242178856e-03 0.0000000000000000e+00  3.5415177266956582e-16 -5.8206257242177598e-03 0.0000000000000000e+00  3.8257816673241954e-16 -5.8206257242176505e-03 0.0000000000000000e+00  3.1681416398124718e-16 -5.8206257242174632e-03 0.0000000000000000e+00  2.8161899275952490e-16 -5.8206257242173478e-03 0.0000000000000000e+00  9.7530240578819538e-17 -5.8206257242173114e-03 0.0000000000000000e+00  -8.1606699581819315e-33 -5.8206257242173556e-03 0.0000000000000000e+00  -1.0062423060062288e-32 -6.0977983777519588e-03 0.0000000000000000e+00  -1.1324758662711819e-16 -6.0977983777520386e-03 0.0000000000000000e+00  3.6133077384700425e-17 -6.0977983777521600e-03 0.0000000000000000e+00  1.9208000755049847e-16 -6.0977983777521540e-03 0.0000000000000000e+00  2.3614586394817966e-16 -6.0977983777520603e-03 0.0000000000000000e+00  3.6736085075828876e-16 -6.0977983777519250e-03 0.0000000000000000e+00  3.9235289607577911e-16 -6.0977983777518200e-03 0.0000000000000000e+00  3.1279040422521639e-16 -6.0977983777516708e-03 0.0000000000000000e+00  2.7437483291922497e-16 -6.0977983777514956e-03 0.0000000000000000e+00  8.2680967813500515e-17 -6.0977983777514618e-03 0.0000000000000000e+00  -1.7330145286408563e-33 -6.0977983777515373e-03 0.0000000000000000e+00  -1.8055593228630322e-32 -6.3749710312861665e-03 0.0000000000000000e+00  -1.1944585908019403e-16 -6.3749710312862298e-03 0.0000000000000000e+00  3.2197151865153807e-17 -6.3749710312863625e-03 0.0000000000000000e+00  1.9200984180954130e-16 -6.3749710312863642e-03 0.0000000000000000e+00  2.3968114266218356e-16 -6.3749710312862220e-03 0.0000000000000000e+00  3.8083691947994557e-16 -6.3749710312860962e-03 0.0000000000000000e+00  3.9589251952725168e-16 -6.3749710312859852e-03 0.0000000000000000e+00  3.0563338476369172e-16 -6.3749710312858690e-03 0.0000000000000000e+00  2.6662434850317448e-16 -6.3749710312856738e-03 0.0000000000000000e+00  6.6254836155651098e-17 -6.3749710312856252e-03 0.0000000000000000e+00  -7.3350847491310672e-33 -6.3749710312857068e-03 0.0000000000000000e+00  1.8206537422200221e-32 -6.6521436848203767e-03 0.0000000000000000e+00  -1.2397825363805104e-16 -6.6521436848204296e-03 0.0000000000000000e+00  2.3784066018157594e-17 -6.6521436848205606e-03 0.0000000000000000e+00  1.9604223449323811e-16 -6.6521436848205754e-03 0.0000000000000000e+00  2.4413956063040191e-16 -6.6521436848203663e-03 0.0000000000000000e+00  3.9698118398128502e-16 -6.6521436848202805e-03 0.0000000000000000e+00  3.9496666488632031e-16 -6.6521436848201781e-03 0.0000000000000000e+00  2.9503214140910002e-16 -6.6521436848200758e-03 0.0000000000000000e+00  2.6070171900525193e-16 -6.6521436848198372e-03 0.0000000000000000e+00  5.1176520484534710e-17 -6.6521436848197895e-03 0.0000000000000000e+00  -1.9748442415229059e-35 -6.6521436848198676e-03 0.0000000000000000e+00  -6.7708474607363706e-33 -6.9293163383545818e-03 0.0000000000000000e+00  -1.2828939275918466e-16 -6.9293163383546191e-03 0.0000000000000000e+00  1.3797873939734848e-17 -6.9293163383547535e-03 0.0000000000000000e+00  1.9954227365836626e-16 -6.9293163383547770e-03 0.0000000000000000e+00  2.4912