<?xml version="1.0"?>
<VTKFile type="UnstructuredGrid"  version="0.1"  >
<UnstructuredGrid>
<Piece  NumberOfPoints="431" NumberOfCells="800">
<Points>
<DataArray  type="Float64"  NumberOfComponents="3"  format="ascii">-0.25 -1 0  -0.2 -1 0  -0.15 -1 0  -0.1 -1 0  -0.04999999999999999 -1 0  0 -1 0  0.04999999999999999 -1 0  0.09999999999999998 -1 0  0.15 -1 0  0.2 -1 0  0.25 -1 0  -0.25 -0.95 0  -0.2 -0.95 0  -0.15 -0.95 0  -0.1 -0.95 0  -0.04999999999999999 -0.95 0  0 -0.95 0  0.04999999999999999 -0.95 0  0.09999999999999998 -0.95 0  0.15 -0.95 0  0.2 -0.95 0  0.25 -0.95 0  -0.25 -0.9 0  -0.2 -0.9 0  -0.15 -0.9 0  -0.1 -0.9 0  -0.04999999999999999 -0.9 0  0 -0.9 0  0.04999999999999999 -0.9 0  0.09999999999999998 -0.9 0  0.15 -0.9 0  0.2 -0.9 0  0.25 -0.9 0  -0.25 -0.85 0  -0.2 -0.85 0  -0.15 -0.85 0  -0.1 -0.85 0  -0.04999999999999999 -0.85 0  0 -0.85 0  0.04999999999999999 -0.85 0  0.09999999999999998 -0.85 0  0.15 -0.85 0  0.2 -0.85 0  0.25 -0.85 0  -0.25 -0.8 0  -0.2 -0.8 0  -0.15 -0.8 0  -0.1 -0.8 0  -0.04999999999999999 -0.8 0  0 -0.8 0  0.04999999999999999 -0.8 0  0.09999999999999998 -0.8 0  0.15 -0.8 0  0.2 -0.8 0  0.25 -0.8 0  -0.25 -0.75 0  -0.2 -0.75 0  -0.15 -0.75 0  -0.1 -0.75 0  -0.04999999999999999 -0.75 0  0 -0.75 0  0.04999999999999999 -0.75 0  0.09999999999999998 -0.75 0  0.15 -0.75 0  0.2 -0.75 0  0.25 -0.75 0  -0.25 -0.7 0  -0.2 -0.7 0  -0.15 -0.7 0  -0.1 -0.7 0  -0.04999999999999999 -0.7 0  0 -0.7 0  0.04999999999999999 -0.7 0  0.09999999999999998 -0.7 0  0.15 -0.7 0  0.2 -0.7 0  0.25 -0.7 0  -0.25 -0.65 0  -0.2 -0.65 0  -0.15 -0.65 0  -0.1 -0.65 0  -0.04999999999999999 -0.65 0  0 -0.65 0  0.04999999999999999 -0.65 0  0.09999999999999998 -0.65 0  0.15 -0.65 0  0.2 -0.65 0  0.25 -0.65 0  -0.25 -0.6 0  -0.2 -0.6 0  -0.15 -0.6 0  -0.1 -0.6 0  -0.04999999999999999 -0.6 0  0 -0.6 0  0.04999999999999999 -0.6 0  0.09999999999999998 -0.6 0  0.15 -0.6 0  0.2 -0.6 0  0.25 -0.6 0  -0.25 -0.55 0  -0.2 -0.55 0  -0.15 -0.55 0  -0.1 -0.55 0  -0.04999999999999999 -0.55 0  0 -0.55 0  0.04999999999999999 -0.55 0  0.09999999999999998 -0.55 0  0.15 -0.55 0  0.2 -0.55 0  0.25 -0.55 0  -0.25 -0.5 0  -0.2 -0.5 0  -0.15 -0.5 0  -0.1 -0.5 0  -0.04999999999999999 -0.5 0  0 -0.5 0  0.04999999999999999 -0.5 0  0.09999999999999998 -0.5 0  0.15 -0.5 0  0.2 -0.5 0  0.25 -0.5 0  -0.25 -0.45 0  -0.2 -0.45 0  -0.15 -0.45 0  -0.1 -0.45 0  -0.04999999999999999 -0.45 0  0 -0.45 0  0.04999999999999999 -0.45 0  0.09999999999999998 -0.45 0  0.15 -0.45 0  0.2 -0.45 0  0.25 -0.45 0  -0.25 -0.4 0  -0.2 -0.4 0  -0.15 -0.4 0  -0.1 -0.4 0  -0.04999999999999999 -0.4 0  0 -0.4 0  0.04999999999999999 -0.4 0  0.09999999999999998 -0.4 0  0.15 -0.4 0  0.2 -0.4 0  0.25 -0.4 0  -0.25 -0.35 0  -0.2 -0.35 0  -0.15 -0.35 0  -0.1 -0.35 0  -0.04999999999999999 -0.35 0  0 -0.35 0  0.04999999999999999 -0.35 0  0.09999999999999998 -0.35 0  0.15 -0.35 0  0.2 -0.35 0  0.25 -0.35 0  -0.25 -0.3 0  -0.2 -0.3 0  -0.15 -0.3 0  -0.1 -0.3 0  -0.04999999999999999 -0.3 0  0 -0.3 0  0.04999999999999999 -0.3 0  0.09999999999999998 -0.3 0  0.15 -0.3 0  0.2 -0.3 0  0.25 -0.3 0  -0.25 -0.25 0  -0.2 -0.25 0  -0.15 -0.25 0  -0.1 -0.25 0  -0.04999999999999999 -0.25 0  0 -0.25 0  0.04999999999999999 -0.25 0  0.09999999999999998 -0.25 0  0.15 -0.25 0  0.2 -0.25 0  0.25 -0.25 0  -0.25 -0.2 0  -0.2 -0.2 0  -0.15 -0.2 0  -0.1 -0.2 0  -0.04999999999999999 -0.2 0  0 -0.2 0  0.04999999999999999 -0.2 0  0.09999999999999998 -0.2 0  0.15 -0.2 0  0.2 -0.2 0  0.25 -0.2 0  -0.25 -0.15 0  -0.2 -0.15 0  -0.15 -0.15 0  -0.1 -0.15 0  -0.04999999999999999 -0.15 0  0 -0.15 0  0.04999999999999999 -0.15 0  0.09999999999999998 -0.15 0  0.15 -0.15 0  0.2 -0.15 0  0.25 -0.15 0  -0.25 -0.09999999999999998 0  -0.2 -0.09999999999999998 0  -0.15 -0.09999999999999998 0  -0.1 -0.09999999999999998 0  -0.04999999999999999 -0.09999999999999998 0  0 -0.09999999999999998 0  0.04999999999999999 -0.09999999999999998 0  0.09999999999999998 -0.09999999999999998 0  0.15 -0.09999999999999998 0  0.2 -0.09999999999999998 0  0.25 -0.09999999999999998 0  -0.25 -0.05000000000000004 0  -0.2 -0.05000000000000004 0  -0.15 -0.05000000000000004 0  -0.1 -0.05000000000000004 0  -0.04999999999999999 -0.05000000000000004 0  0 -0.05000000000000004 0  0.04999999999999999 -0.05000000000000004 0  0.09999999999999998 -0.05000000000000004 0  0.15 -0.05000000000000004 0  0.2 -0.05000000000000004 0  0.25 -0.05000000000000004 0  -0.25 0 0  -0.2 0 0  -0.15 0 0  -0.1 0 0  -0.04999999999999999 0 0  0 0 0  0.04999999999999999 0 0  0.09999999999999998 0 0  0.15 0 0  0.2 0 0  0.25 0 0  -0.225 -0.975 0  -0.175 -0.975 0  -0.125 -0.975 0  -0.07500000000000001 -0.975 0  -0.02499999999999999 -0.975 0  0.02500000000000002 -0.975 0  0.07500000000000001 -0.975 0  0.125 -0.975 0  0.175 -0.975 0  0.225 -0.975 0  -0.225 -0.925 0  -0.175 -0.925 0  -0.125 -0.925 0  -0.07500000000000001 -0.925 0  -0.02499999999999999 -0.925 0  0.02500000000000002 -0.925 0  0.07500000000000001 -0.925 0  0.125 -0.925 0  0.175 -0.925 0  0.225 -0.925 0  -0.225 -0.875 0  -0.175 -0.875 0  -0.125 -0.875 0  -0.07500000000000001 -0.875 0  -0.02499999999999999 -0.875 0  0.02500000000000002 -0.875 0  0.07500000000000001 -0.875 0  0.125 -0.875 0  0.175 -0.875 0  0.225 -0.875 0  -0.225 -0.825 0  -0.175 -0.825 0  -0.125 -0.825 0  -0.07500000000000001 -0.825 0  -0.02499999999999999 -0.825 0  0.02500000000000002 -0.825 0  0.07500000000000001 -0.825 0  0.125 -0.825 0  0.175 -0.825 0  0.225 -0.825 0  -0.225 -0.775 0  -0.175 -0.775 0  -0.125 -0.775 0  -0.07500000000000001 -0.775 0  -0.02499999999999999 -0.775 0  0.02500000000000002 -0.775 0  0.07500000000000001 -0.775 0  0.125 -0.775 0  0.175 -0.775 0  0.225 -0.775 0  -0.225 -0.725 0  -0.175 -0.725 0  -0.125 -0.725 0  -0.07500000000000001 -0.725 0  -0.02499999999999999 -0.725 0  0.02500000000000002 -0.725 0  0.07500000000000001 -0.725 0  0.125 -0.725 0  0.175 -0.725 0  0.225 -0.725 0  -0.225 -0.675 0  -0.175 -0.675 0  -0.125 -0.675 0  -0.07500000000000001 -0.675 0  -0.02499999999999999 -0.675 0  0.02500000000000002 -0.675 0  0.07500000000000001 -0.675 0  0.125 -0.675 0  0.175 -0.675 0  0.225 -0.675 0  -0.225 -0.625 0  -0.175 -0.625 0  -0.125 -0.625 0  -0.07500000000000001 -0.625 0  -0.02499999999999999 -0.625 0  0.02500000000000002 -0.625 0  0.07500000000000001 -0.625 0  0.125 -0.625 0  0.175 -0.625 0  0.225 -0.625 0  -0.225 -0.575 0  -0.175 -0.575 0  -0.125 -0.575 0  -0.07500000000000001 -0.575 0  -0.02499999999999999 -0.575 0  0.02500000000000002 -0.575 0  0.07500000000000001 -0.575 0  0.125 -0.575 0  0.175 -0.575 0  0.225 -0.575 0  -0.225 -0.525 0  -0.175 -0.525 0  -0.125 -0.525 0  -0.07500000000000001 -0.525 0  -0.02499999999999999 -0.525 0  0.02500000000000002 -0.525 0  0.07500000000000001 -0.525 0  0.125 -0.525 0  0.175 -0.525 0  0.225 -0.525 0  -0.225 -0.475 0  -0.175 -0.475 0  -0.125 -0.475 0  -0.07500000000000001 -0.475 0  -0.02499999999999999 -0.475 0  0.02500000000000002 -0.475 0  0.07500000000000001 -0.475 0  0.125 -0.475 0  0.175 -0.475 0  0.225 -0.475 0  -0.225 -0.425 0  -0.175 -0.425 0  -0.125 -0.425 0  -0.07500000000000001 -0.425 0  -0.02499999999999999 -0.425 0  0.02500000000000002 -0.425 0  0.07500000000000001 -0.425 0  0.125 -0.425 0  0.175 -0.425 0  0.225 -0.425 0  -0.225 -0.375 0  -0.175 -0.375 0  -0.125 -0.375 0  -0.07500000000000001 -0.375 0  -0.02499999999999999 -0.375 0  0.02500000000000002 -0.375 0  0.07500000000000001 -0.375 0  0.125 -0.375 0  0.175 -0.375 0  0.225 -0.375 0  -0.225 -0.325 0  -0.175 -0.325 0  -0.125 -0.325 0  -0.07500000000000001 -0.325 0  -0.02499999999999999 -0.325 0  0.02500000000000002 -0.325 0  0.07500000000000001 -0.325 0  0.125 -0.325 0  0.175 -0.325 0  0.225 -0.325 0  -0.225 -0.275 0  -0.175 -0.275 0  -0.125 -0.275 0  -0.07500000000000001 -0.275 0  -0.02499999999999999 -0.275 0  0.02500000000000002 -0.275 0  0.07500000000000001 -0.275 0  0.125 -0.275 0  0.175 -0.275 0  0.225 -0.275 0  -0.225 -0.225 0  -0.175 -0.225 0  -0.125 -0.225 0  -0.07500000000000001 -0.225 0  -0.02499999999999999 -0.225 0  0.02500000000000002 -0.225 0  0.07500000000000001 -0.225 0  0.125 -0.225 0  0.175 -0.225 0  0.225 -0.225 0  -0.225 -0.175 0  -0.175 -0.175 0  -0.125 -0.175 0  -0.07500000000000001 -0.175 0  -0.02499999999999999 -0.175 0  0.02500000000000002 -0.175 0  0.07500000000000001 -0.175 0  0.125 -0.175 0  0.175 -0.175 0  0.225 -0.175 0  -0.225 -0.125 0  -0.175 -0.125 0  -0.125 -0.125 0  -0.07500000000000001 -0.125 0  -0.02499999999999999 -0.125 0  0.02500000000000002 -0.125 0  0.07500000000000001 -0.125 0  0.125 -0.125 0  0.175 -0.125 0  0.225 -0.125 0  -0.225 -0.07499999999999996 0  -0.175 -0.07499999999999996 0  -0.125 -0.07499999999999996 0  -0.07500000000000001 -0.07499999999999996 0  -0.02499999999999999 -0.07499999999999996 0  0.02500000000000002 -0.07499999999999996 0  0.07500000000000001 -0.07499999999999996 0  0.125 -0.07499999999999996 0  0.175 -0.07499999999999996 0  0.225 -0.07499999999999996 0  -0.225 -0.02500000000000002 0  -0.175 -0.02500000000000002 0  -0.125 -0.02500000000000002 0  -0.07500000000000001 -0.02500000000000002 0  -0.02499999999999999 -0.02500000000000002 0  0.02500000000000002 -0.02500000000000002 0  0.07500000000000001 -0.02500000000000002 0  0.125 -0.02500000000000002 0  0.175 -0.02500000000000002 0  0.225 -0.02500000000000002 0  </DataArray>
</Points>
<Cells>
[...]
<PointData  Vectors="displacement"> 
<DataArray  type="Float64"  Name="displacement"  NumberOfComponents="3" format="ascii">-1.9748305093814404e-34 -3.8116482626443477e-19 0.0000000000000000e+00  -5.6423728839469732e-34 -6.3527471044072453e-20 0.0000000000000000e+00  -6.3053516978107447e-33 -9.8542026373442091e-19 0.0000000000000000e+00  9.0277966143151612e-34 4.1292856178647113e-19 0.0000000000000000e+00  -4.5164221738138455e-33 -5.1078317548797584e-19 0.0000000000000000e+00  -4.0625084764418208e-33 2.8587361969832603e-19 0.0000000000000000e+00  -4.8963013131594560e-34 -4.9730098426687985e-19 0.0000000000000000e+00  -5.8680677993048524e-33 6.3527471044072453e-20 0.0000000000000000e+00  -8.9656574761581230e-34 9.1320739625854147e-20 0.0000000000000000e+00  -1.8055593228630322e-33 0.0000000000000000e+00 0.0000000000000000e+00  2.2569491535787889e-33 0.0000000000000000e+00 0.0000000000000000e+00  -3.3854237303681906e-34 -3.6862649255506156e-03 0.0000000000000000e+00  -5.0090545532290533e-18 -3.6862649255506126e-03 0.0000000000000000e+00  -1.3759203046161413e-17 -3.6862649255506082e-03 0.0000000000000000e+00  -2.4472742236281374e-17 -3.6862649255506147e-03 0.0000000000000000e+00  -3.1527762709424864e-17 -3.6862649255506199e-03 0.0000000000000000e+00  -3.8041068545062709e-17 -3.6862649255506291e-03 0.0000000000000000e+00  -3.7880947325639190e-17 -3.6862649255506369e-03 0.0000000000000000e+00  -3.2039334705728026e-17 -3.6862649255506477e-03 0.0000000000000000e+00  -2.2027995559855578e-17 -3.6862649255506564e-03 0.0000000000000000e+00  -1.0943953312979102e-17 -3.6862649255506572e-03 0.0000000000000000e+00  -1.0439930024115262e-33 -3.6862649255506585e-03 0.0000000000000000e+00  -2.3947799214757275e-34 -7.3727026085816322e-03 0.0000000000000000e+00  -1.0681486575309526e-17 -7.3727026085816261e-03 0.0000000000000000e+00  -2.3779228940480510e-17 -7.3727026085816149e-03 0.0000000000000000e+00  -3.8643026657611784e-17 -7.3727026085816149e-03 0.0000000000000000e+00  -5.5626620080160750e-17 -7.3727026085816305e-03 0.0000000000000000e+00  -6.2351737542838882e-17 -7.3727026085816548e-03 0.0000000000000000e+00  -6.0083245103360404e-17 -7.3727026085816877e-03 0.0000000000000000e+00  -5.0516825978401382e-17 -7.3727026085816999e-03 0.0000000000000000e+00  -3.7103648240308542e-17 -7.3727026085817259e-03 0.0000000000000000e+00  -1.9500749598948373e-17 -7.3727026085817294e-03 0.0000000000000000e+00  -7.4156900760445985e-34 -7.3727026085817311e-03 0.0000000000000000e+00  -2.2569491535787913e-33 -1.1059484741466155e-02 0.0000000000000000e+00  -1.5944314879788937e-17 -1.1059484741466138e-02 0.0000000000000000e+00  -3.0449012734801792e-17 -1.1059484741466138e-02 0.0000000000000000e+00  -5.1745246309587486e-17 -1.1059484741466131e-02 0.0000000000000000e+00  -6.7944100054060960e-17 -1.1059484741466150e-02 0.0000000000000000e+00  -7.7268398433296568e-17 -1.1059484741466192e-02 0.0000000000000000e+00  -7.4463631400016759e-17 -1.1059484741466247e-02 0.0000000000000000e+00  -6.4777433797535114e-17 -1.1059484741466275e-02 0.0000000000000000e+00  -4.7045094625897356e-17 -1.1059484741466299e-02 0.0000000000000000e+00  -2.5327344540346676e-17 -1.1059484741466303e-02 0.0000000000000000e+00  -2.2569491535787906e-33 -1.1059484741466315e-02 0.0000000000000000e+00  -2.6639691113436610e-33 -1.4746780892929370e-02 0.0000000000000000e+00  -1.7651609171062327e-17 -1.4746780892929376e-02 0.0000000000000000e+00  -3.7986265704672563e-17 -1.4746780892929344e-02 0.0000000000000000e+00  -5.7967073578801177e-17 -1.4746780892929358e-02 0.0000000000000000e+00  -7.7086406235404599e-17 -1.4746780892929391e-02 0.0000000000000000e+00  -8.3561254930649418e-17 -1.4746780892929428e-02 0.0000000000000000e+00  -8.2112715711929288e-17 -1.4746780892929500e-02 0.0000000000000000e+00  -7.4612268819848017e-17 -1.4746780892929547e-02 0.0000000000000000e+00  -5.6842691082919506e-17 -1.4746780892929575e-02 0.0000000000000000e+00  -2.9447524823180444e-17 -1.4746780892929608e-02 0.0000000000000000e+00  1.3118400591073565e-33 -1.4746780892929592e-02 0.0000000000000000e+00  9.0277966143151612e-34 -1.8434757462601058e-02 0.0000000000000000e+00  -1.9756967914381901e-17 -1.8434757462601047e-02 0.0000000000000000e+00  -4.2003245782753889e-17 -1.8434757462601016e-02 0.0000000000000000e+00  -6.3921321179353335e-17 -1.8434757462601020e-02 0.0000000000000000e+00  -7.9907476901340274e-17 -1.8434757462601054e-02 0.0000000000000000e+00  -8.8170836757538139e-17 -1.8434757462601148e-02 0.0000000000000000e+00  -8.9820241554820837e-17 -1.8434757462601203e-02 0.0000000000000000e+00  -8.1728960918909976e-17 -1.8434757462601269e-02 0.0000000000000000e+00  -5.9628434557734396e-17 -1.8434757462601342e-02 0.0000000000000000e+00  -3.0110102194472228e-17 -1.8434757462601356e-02 0.0000000000000000e+00  -5.7268455674617339e-33 -1.8434757462601373e-02 0.0000000000000000e+00  1.1157064214563774e-33 -2.2123576655106395e-02 0.0000000000000000e+00  -2.1953628095561999e-17 -2.2123576655106395e-02 0.0000000000000000e+00  -4.6526214905758755e-17 -2.2123576655106371e-02 0.0000000000000000e+00  -6.8794173539229289e-17 -2.2123576655106360e-02 0.0000000000000000e+00  -8.0599316528191804e-17 -2.2123576655106472e-02 0.0000000000000000e+00  -9.5305814070015716e-17 -2.2123576655106513e-02 0.0000000000000000e+00  -9.6297455037310073e-17 -2.2123576655106607e-02 0.0000000000000000e+00  -7.8932552212564556e-17 -2.2123576655106669e-02 0.0000000000000000e+00  -5.6729151532677623e-17 -2.2123576655106739e-02 0.0000000000000000e+00  -3.1306182515900515e-17 -2.2123576655106780e-02 0.0000000000000000e+00  -2.9017917688870158e-34 -2.2123576655106777e-02 0.0000000000000000e+00  -1.3541694921472749e-33 -2.5813395480020700e-02 0.0000000000000000e+00  -1.9228182188455881e-17 -2.5813395480020651e-02 0.0000000000000000e+00  -4.4056389811895049e-17 -2.5813395480020641e-02 0.0000000000000000e+00  -6.5081368081781777e-17 -2.5813395480020662e-02 0.0000000000000000e+00  -9.0630991117537545e-17 -2.5813395480020703e-02 0.0000000000000000e+00  -9.9952104432852500e-17 -2.5813395480020825e-02 0.0000000000000000e+00  -9.6034965556500703e-17 -2.5813395480020911e-02 0.0000000000000000e+00  -8.2892016307806355e-17 -2.5813395480021002e-02 0.0000000000000000e+00  -5.9844127722648840e-17 -2.5813395480021085e-02 0.0000000000000000e+00  -3.1414735088938563e-17 -2.5813395480021099e-02 0.0000000000000000e+00  4.0625084764418243e-33 -2.5813395480021133e-02 0.0000000000000000e+00  -2.4770221346057706e-33 -2.9504364783852932e-02 0.0000000000000000e+00  -2.3897563185438257e-17 -2.9504364783852943e-02 0.0000000000000000e+00  -4.7293724491797102e-17 -2.9504364783852915e-02 0.0000000000000000e+00  -7.5410519326806004e-17 -2.9504364783852908e-02 0.0000000000000000e+00  -9.1956651105658514e-17 -2.9504364783852943e-02 0.0000000000000000e+00  -1.0394890393442761e-16 -2.9504364783853088e-02 0.0000000000000000e+00  -1.0020829299804760e-16 -2.9504364783853220e-02 0.0000000000000000e+00  -8.6121739126476412e-17 -2.9504364783853310e-02 0.0000000000000000e+00  -5.6386111931503974e-17 -2.9504364783853401e-02 0.0000000000000000e+00  -2.2328769765925575e-17 -2.9504364783853442e-02 0.0000000000000000e+00  -9.0051263661207324e-35 -2.9504364783853449e-02 0.0000000000000000e+00  2.7083389842945525e-33 -3.3196628320027129e-02 0.0000000000000000e+00  -1.9648740585343199e-17 -3.3196628320027101e-02 0.0000000000000000e+00  -4.4728715562752636e-17 -3.3196628320027032e-02 0.0000000000000000e+00  -6.8784772397160490e-17 -3.3196628320027087e-02 0.0000000000000000e+00  -9.4782028878646008e-17 -3.3196628320027156e-02 0.0000000000000000e+00  -1.0221108405869618e-16 -3.3196628320027295e-02 0.0000000000000000e+00  -9.3136376172490442e-17 -3.3196628320027413e-02 0.0000000000000000e+00  -7.9604797064592735e-17 -3.3196628320027531e-02 0.0000000000000000e+00  -5.8633239292313892e-17 -3.3196628320027684e-02 0.0000000000000000e+00  -3.1959648707492644e-17 -3.3196628320027677e-02 0.0000000000000000e+00  1.2607176912569044e-33 -3.3196628320027642e-02 0.0000000000000000e+00  -9.2363106468231297e-34 -3.6890321862594347e-02 0.0000000000000000e+00  -2.4469889643104118e-17 -3.6890321862594326e-02 0.0000000000000000e+00  -4.3931816305065855e-17 -3.6890321862594319e-02 0.0000000000000000e+00  -6.4444962119656384e-17 -3.6890321862594312e-02 0.0000000000000000e+00  -8.2674835408745936e-17 -3.6890321862594389e-02 0.0000000000000000e+00  -9.7078397244494852e-17 -3.6890321862594576e-02 0.0000000000000000e+00  -8.9304820296592113e-17 -3.6890321862594735e-02 0.0000000000000000e+00  -7.4123843637081767e-17 -3.6890321862594860e-02 0.0000000000000000e+00  -5.8587786074288541e-17 -3.6890321862594992e-02 0.0000000000000000e+00  -3.4150881303084015e-17 -3.6890321862595006e-02 0.0000000000000000e+00  -2.7728232458253700e-33 -3.6890321862594992e-02 0.0000000000000000e+00  4.9652881378733465e-33 -4.0585572369140926e-02 0.0000000000000000e+00  -2.8136739349228372e-17 -4.0585572369140926e-02 0.0000000000000000e+00  -4.9835670497913636e-17 -4.0585572369140864e-02 0.0000000000000000e+00  -7.1387658456768029e-17 -4.0585572369140899e-02 0.0000000000000000e+00  -7.9907476901340336e-17 -4.0585572369141003e-02 0.0000000000000000e+00  -8.6937436438148053e-17 -4.0585572369141169e-02 0.0000000000000000e+00  -8.7662438215041085e-17 -4.0585572369141384e-02 0.0000000000000000e+00  -7.3306196578411913e-17 -4.0585572369141412e-02 0.0000000000000000e+00  -5.9152288095797372e-17 -4.0585572369141586e-02 0.0000000000000000e+00  -3.5632086610269780e-17 -4.0585572369141662e-02 0.0000000000000000e+00  9.0277966143151732e-34 -4.0585572369141690e-02 0.0000000000000000e+00  -4.0451722306546002e-33 -4.4282497198052398e-02 0.0000000000000000e+00  -2.0457762423897895e-17 -4.4282497198052308e-02 0.0000000000000000e+00  -5.4034093668831602e-17 -4.4282497198052391e-02 0.0000000000000000e+00  -6.6940719988801913e-17 -4.4282497198052370e-02 0.0000000000000000e+00  -8.7396168660167774e-17 -4.4282497198052433e-02 0.0000000000000000e+00  -8.6998833076567549e-17 -4.4282497198052669e-02 0.0000000000000000e+00  -8.3192835443909013e-17 -4.4282497198052807e-02 0.0000000000000000e+00  -7.1923990785772307e-17 -4.4282497198053002e-02 0.0000000000000000e+00  -5.0618980042047096e-17 -4.4282497198053092e-02 0.0000000000000000e+00  -2.7625741593751986e-17 -4.4282497198053210e-02 0.0000000000000000e+00  5.3495488447689265e-34 -4.4282497198053189e-02 0.0000000000000000e+00  0.0000000000000000e+00 -4.7981203384960133e-02 0.0000000000000000e+00  -2.4833137377313964e-17 -4.7981203384960106e-02 0.0000000000000000e+00  -5.0909498635353860e-17 -4.7981203384960064e-02 0.0000000000000000e+00  -8.2449680560394828e-17 -4.7981203384960085e-02 0.0000000000000000e+00  -7.7831958020786080e-17 -4.7981203384960217e-02 0.0000000000000000e+00  -8.1190865771929903e-17 -4.7981203384960432e-02 0.0000000000000000e+00  -8.4884254646767817e-17 -4.7981203384960633e-02 0.0000000000000000e+00  -7.2778285746519792e-17 -4.7981203384960779e-02 0.0000000000000000e+00  -4.4421869748300350e-17 -4.7981203384960883e-02 0.0000000000000000e+00  -1.9145328419444136e-17 -4.7981203384960987e-02 0.0000000000000000e+00  -1.1699107526558810e-33 -4.7981203384961042e-02 0.0000000000000000e+00  -9.1274082305449114e-34 -5.1681786982831136e-02 0.0000000000000000e+00  -1.9456105699217770e-17 -5.1681786982831192e-02 0.0000000000000000e+00  -4.3585896491640177e-17 -5.1681786982831088e-02 0.0000000000000000e+00  -5.7669700099290669e-17 -5.1681786982831185e-02 0.0000000000000000e+00  -7.4750771870145390e-17 -5.1681786982831317e-02 0.0000000000000000e+00  -6.7427505548617198e-17 -5.1681786982831483e-02 0.0000000000000000e+00  -6.5032924924034479e-17 -5.1681786982831698e-02 0.0000000000000000e+00  -6.8065744077656894e-17 -5.1681786982831865e-02 0.0000000000000000e+00  -4.8297942945495814e-17 -5.1681786982832024e-02 0.0000000000000000e+00  -2.7942763076251304e-17 -5.1681786982832101e-02 0.0000000000000000e+00  -5.1224685253547268e-33 -5.1681786982832122e-02 0.0000000000000000e+00  -1.5798644075051530e-33 -5.5384332469769627e-02 0.0000000000000000e+00  -2.4906312601532456e-17 -5.5384332469769593e-02 0.0000000000000000e+00  -3.1426624469268697e-17 -5.5384332469769551e-02 0.0000000000000000e+00  -3.4746087544416511e-17 -5.5384332469769662e-02 0.0000000000000000e+00  -5.0504292760154467e-17 -5.5384332469769759e-02 0.0000000000000000e+00  -6.0030914280191991e-17 -5.5384332469770016e-02 0.0000000000000000e+00  -5.7381924637316595e-17 -5.5384332469770182e-02 0.0000000000000000e+00  -6.1345932123817607e-17 -5.5384332469770425e-02 0.0000000000000000e+00  -4.3585896491640128e-17 -5.5384332469770585e-02 0.0000000000000000e+00  -1.9850886139545042e-17 -5.5384332469770682e-02 0.0000000000000000e+00  2.2005254247393198e-33 -5.5384332469770647e-02 0.0000000000000000e+00  -1.9324653548568657e-33 -5.9088912228181092e-02 0.0000000000000000e+00  -1.0364662820957115e-17 -5.9088912228181106e-02 0.0000000000000000e+00  -1.8395051636366730e-17 -5.9088912228181079e-02 0.0000000000000000e+00  -3.0202025819699939e-17 -5.9088912228181106e-02 0.0000000000000000e+00  -1.9490805378817309e-17 -5.9088912228181280e-02 0.0000000000000000e+00  -3.7174218699823670e-17 -5.9088912228181502e-02 0.0000000000000000e+00  -4.3765419532738463e-17 -5.9088912228181710e-02 0.0000000000000000e+00  -2.6405057014266814e-17 -5.9088912228181890e-02 0.0000000000000000e+00  -1.4837730434665721e-17 -5.9088912228182119e-02 0.0000000000000000e+00  -5.8063335285500274e-18 -5.9088912228182210e-02 0.0000000000000000e+00  8.0413197651652006e-34 -5.9088912228182182e-02 0.0000000000000000e+00  -1.1284745767893958e-34 -6.2795586098511130e-02 0.0000000000000000e+00  1.5069178576949898e-17 -6.2795586098511033e-02 0.0000000000000000e+00  7.6357722229545116e-18 -6.2795586098511103e-02 0.0000000000000000e+00  1.4516555373518764e-17 -6.2795586098511172e-02 0.0000000000000000e+00  -1.7142087520974542e-17 -6.2795586098511297e-02 0.0000000000000000e+00  -7.9991008489446294e-18 -6.2795586098511574e-02 0.0000000000000000e+00  -1.6916138380950675e-19 -6.2795586098511783e-02 0.0000000000000000e+00  1.3487506476639235e-17 -6.2795586098512060e-02 0.0000000000000000e+00  1.8525585281532799e-17 -6.2795586098512240e-02 0.0000000000000000e+00  9.6291791054961937e-18 -6.2795586098512310e-02 0.0000000000000000e+00  -1.9879681869519345e-34 -6.2795586098512352e-02 0.0000000000000000e+00  4.1753559341207639e-33 -6.6504401010308883e-02 0.0000000000000000e+00  1.2568294568349289e-17 -6.6504401010308856e-02 0.0000000000000000e+00  4.1510377611085915e-17 -6.6504401010308828e-02 0.0000000000000000e+00  5.9610783864129502e-17 -6.6504401010308953e-02 0.0000000000000000e+00  8.2893116268797959e-17 -6.6504401010309064e-02 0.0000000000000000e+00  6.8492123058291757e-17 -6.6504401010309369e-02 0.0000000000000000e+00  6.8237370344131898e-17 -6.6504401010309577e-02 0.0000000000000000e+00  8.0132037639596947e-17 -6.6504401010309896e-02 0.0000000000000000e+00  6.3963748938202181e-17 -6.6504401010310063e-02 0.0000000000000000e+00  4.0004622099347810e-17 -6.6504401010310105e-02 0.0000000000000000e+00  -4.3945016666669177e-33 -6.6504401010310091e-02 0.0000000000000000e+00  1.0720508479499271e-33 -7.0215390692890914e-02 0.0000000000000000e+00  3.4579580157657939e-17 -7.0215390692890969e-02 0.0000000000000000e+00  9.2402861324969480e-17 -7.0215390692890900e-02 0.0000000000000000e+00  1.4635313531515639e-16 -7.0215390692891039e-02 0.0000000000000000e+00  1.8085056144101038e-16 -7.0215390692891164e-02 0.0000000000000000e+00  2.0497140603595928e-16 -7.0215390692891413e-02 0.0000000000000000e+00  2.0599524889501375e-16 -7.0215390692891802e-02 0.0000000000000000e+00  1.7488912111716670e-16 -7.0215390692891969e-02 0.0000000000000000e+00  1.3560056686288048e-16 -7.0215390692892093e-02 0.0000000000000000e+00  5.7801329928503347e-17 -7.0215390692892191e-02 0.0000000000000000e+00  -1.6715529668692942e-33 -7.0215390692892149e-02 0.0000000000000000e+00  -3.8791313577135460e-33 -7.3928575467388846e-02 0.0000000000000000e+00  6.9666346278360509e-17 -7.3928575467388832e-02 0.0000000000000000e+00  1.4457266348520845e-16 -7.3928575467388874e-02 0.0000000000000000e+00  2.4537245432401492e-16 -7.3928575467388916e-02 0.0000000000000000e+00  3.3985104477010379e-16 -7.3928575467389054e-02 0.0000000000000000e+00  4.1393857252998651e-16 -7.3928575467389332e-02 0.0000000000000000e+00  4.0556698808592673e-16 -7.3928575467389679e-02 0.0000000000000000e+00  3.3033521551654073e-16 -7.3928575467389804e-02 0.0000000000000000e+00  1.9235569133987881e-16 -7.3928575467390040e-02 0.0000000000000000e+00  9.6679827488336969e-17 -7.3928575467389998e-02 0.0000000000000000e+00  1.8055593228630322e-33 -7.3928575467390012e-02 0.0000000000000000e+00  -9.6995129502886509e-19 -1.8431212501685385e-03 0.0000000000000000e+00  -3.7978483590746871e-18 -1.8431212501685368e-03 0.0000000000000000e+00  -1.0442454367774232e-17 -1.8431212501685370e-03 0.0000000000000000e+00  -1.5038373169767000e-17 -1.8431212501685385e-03 0.0000000000000000e+00  -1.8387800082385074e-17 -1.8431212501685426e-03 0.0000000000000000e+00  -2.0299739207497967e-17 -1.8431212501685472e-03 0.0000000000000000e+00  -1.9109584640158798e-17 -1.8431212501685507e-03 0.0000000000000000e+00  -1.4831312000606889e-17 -1.8431212501685548e-03 0.0000000000000000e+00  -8.5207862612266951e-18 -1.8431212501685583e-03 0.0000000000000000e+00  -2.8248971581815900e-18 -1.8431212501685587e-03 0.0000000000000000e+00  -2.6595088826421983e-18 -5.5294501983752598e-03 0.0000000000000000e+00  -1.3054712958869306e-17 -5.5294501983752502e-03 0.0000000000000000e+00  -2.5056626485571731e-17 -5.5294501983752511e-03 0.0000000000000000e+00  -3.8321899330874415e-17 -5.5294501983752624e-03 0.0000000000000000e+00  -4.8849893652543226e-17 -5.5294501983752719e-03 0.0000000000000000e+00  -5.1938507904829442e-17 -5.5294501983752832e-03 0.0000000000000000e+00  -4.6830775993961946e-17 -5.5294501983753014e-03 0.0000000000000000e+00  -3.6005740580107308e-17 -5.5294501983753205e-03 0.0000000000000000e+00  -2.2721517933116216e-17 -5.5294501983753240e-03 0.0000000000000000e+00  -7.5428091028282531e-18 -5.5294501983753240e-03 0.0000000000000000e+00  -6.8062060587541031e-18 -9.2160379572110759e-03 0.0000000000000000e+00  -1.9628786532967375e-17 -9.2160379572110707e-03 0.0000000000000000e+00  -3.4531821375073615e-17 -9.2160379572110672e-03 0.0000000000000000e+00  -5.5557827339249690e-17 -9.2160379572110828e-03 0.0000000000000000e+00  -6.8431963090847082e-17 -9.2160379572111036e-03 0.0000000000000000e+00  -7.1413399009900569e-17 -9.2160379572111348e-03 0.0000000000000000e+00  -6.3779152865961365e-17 -9.2160379572111591e-03 0.0000000000000000e+00  -5.0955492516876931e-17 -9.2160379572111852e-03 0.0000000000000000e+00  -3.2480654356363259e-17 -9.2160379572111956e-03 0.0000000000000000e+00  -1.1505258310980858e-17 -9.2160379572112042e-03 0.0000000000000000e+00  -8.9004233076015346e-18 -1.2903055293781848e-02 0.0000000000000000e+00  -2.4424946826271601e-17 -1.2903055293781839e-02 0.0000000000000000e+00  -4.5059815696742433e-17 -1.2903055293781832e-02 0.0000000000000000e+00  -6.5273564794346573e-17 -1.2903055293781848e-02 0.0000000000000000e+00  -7.8328277753215818e-17 -1.2903055293781886e-02 0.0000000000000000e+00  -8.1301878024355380e-17 -1.2903055293781929e-02 0.0000000000000000e+00  -7.5193350069023834e-17 -1.2903055293781971e-02 0.0000000000000000e+00  -6.2746846157146052e-17 -1.2903055293782009e-02 0.0000000000000000e+00  -4.1223203201374201e-17 -1.2903055293782030e-02 0.0000000000000000e+00  -1.3217355581387191e-17 -1.2903055293782042e-02 0.0000000000000000e+00  -7.8533146831778096e-18 -1.6590670326703829e-02 0.0000000000000000e+00  -2.9110447691723719e-17 -1.6590670326703812e-02 0.0000000000000000e+00  -5.0955492516876931e-17 -1.6590670326703808e-02 0.0000000000000000e+00  -7.1148254289717321e-17 -1.6590670326703829e-02 0.0000000000000000e+00  -8.5487313891950565e-17 -1.6590670326703878e-02 0.0000000000000000e+00  -8.6467454441546438e-17 -1.6590670326703937e-02 0.0000000000