<?xml version="1.0"?>
<VTKFile type="UnstructuredGrid"  version="0.1"  >
<UnstructuredGrid>
<Piece  NumberOfPoints="431" NumberOfCells="800">
<Points>
<DataArray  type="Float64"  NumberOfComponents="3"  format="ascii">-0.25 -1 0  -0.2 -1 0  -0.15 -1 0  -0.1 -1 0  -0.04999999999999999 -1 0  0 -1 0  0.04999999999999999 -1 0  0.09999999999999998 -1 0  0.15 -1 0  0.2 -1 0  0.25 -1 0  -0.25 -0.95 0  -0.2 -0.95 0  -0.15 -0.95 0  -0.1 -0.95 0  -0.04999999999999999 -0.95 0  0 -0.95 0  0.04999999999999999 -0.95 0  0.09999999999999998 -0.95 0  0.15 -0.95 0  0.2 -0.95 0  0.25 -0.95 0  -0.25 -0.9 0  -0.2 -0.9 0  -0.15 -0.9 0  -0.1 -0.9 0  -0.04999999999999999 -0.9 0  0 -0.9 0  0.04999999999999999 -0.9 0  0.09999999999999998 -0.9 0  0.15 -0.9 0  0.2 -0.9 0  0.25 -0.9 0  -0.25 -0.85 0  -0.2 -0.85 0  -0.15 -0.85 0  -0.1 -0.85 0  -0.04999999999999999 -0.85 0  0 -0.85 0  0.04999999999999999 -0.85 0  0.09999999999999998 -0.85 0  0.15 -0.85 0  0.2 -0.85 0  0.25 -0.85 0  -0.25 -0.8 0  -0.2 -0.8 0  -0.15 -0.8 0  -0.1 -0.8 0  -0.04999999999999999 -0.8 0  0 -0.8 0  0.04999999999999999 -0.8 0  0.09999999999999998 -0.8 0  0.15 -0.8 0  0.2 -0.8 0  0.25 -0.8 0  -0.25 -0.75 0  -0.2 -0.75 0  -0.15 -0.75 0  -0.1 -0.75 0  -0.04999999999999999 -0.75 0  0 -0.75 0  0.04999999999999999 -0.75 0  0.09999999999999998 -0.75 0  0.15 -0.75 0  0.2 -0.75 0  0.25 -0.75 0  -0.25 -0.7 0  -0.2 -0.7 0  -0.15 -0.7 0  -0.1 -0.7 0  -0.04999999999999999 -0.7 0  0 -0.7 0  0.04999999999999999 -0.7 0  0.09999999999999998 -0.7 0  0.15 -0.7 0  0.2 -0.7 0  0.25 -0.7 0  -0.25 -0.65 0  -0.2 -0.65 0  -0.15 -0.65 0  -0.1 -0.65 0  -0.04999999999999999 -0.65 0  0 -0.65 0  0.04999999999999999 -0.65 0  0.09999999999999998 -0.65 0  0.15 -0.65 0  0.2 -0.65 0  0.25 -0.65 0  -0.25 -0.6 0  -0.2 -0.6 0  -0.15 -0.6 0  -0.1 -0.6 0  -0.04999999999999999 -0.6 0  0 -0.6 0  0.04999999999999999 -0.6 0  0.09999999999999998 -0.6 0  0.15 -0.6 0  0.2 -0.6 0  0.25 -0.6 0  -0.25 -0.55 0  -0.2 -0.55 0  -0.15 -0.55 0  -0.1 -0.55 0  -0.04999999999999999 -0.55 0  0 -0.55 0  0.04999999999999999 -0.55 0  0.09999999999999998 -0.55 0  0.15 -0.55 0  0.2 -0.55 0  0.25 -0.55 0  -0.25 -0.5 0  -0.2 -0.5 0  -0.15 -0.5 0  -0.1 -0.5 0  -0.04999999999999999 -0.5 0  0 -0.5 0  0.04999999999999999 -0.5 0  0.09999999999999998 -0.5 0  0.15 -0.5 0  0.2 -0.5 0  0.25 -0.5 0  -0.25 -0.45 0  -0.2 -0.45 0  -0.15 -0.45 0  -0.1 -0.45 0  -0.04999999999999999 -0.45 0  0 -0.45 0  0.04999999999999999 -0.45 0  0.09999999999999998 -0.45 0  0.15 -0.45 0  0.2 -0.45 0  0.25 -0.45 0  -0.25 -0.4 0  -0.2 -0.4 0  -0.15 -0.4 0  -0.1 -0.4 0  -0.04999999999999999 -0.4 0  0 -0.4 0  0.04999999999999999 -0.4 0  0.09999999999999998 -0.4 0  0.15 -0.4 0  0.2 -0.4 0  0.25 -0.4 0  -0.25 -0.35 0  -0.2 -0.35 0  -0.15 -0.35 0  -0.1 -0.35 0  -0.04999999999999999 -0.35 0  0 -0.35 0  0.04999999999999999 -0.35 0  0.09999999999999998 -0.35 0  0.15 -0.35 0  0.2 -0.35 0  0.25 -0.35 0  -0.25 -0.3 0  -0.2 -0.3 0  -0.15 -0.3 0  -0.1 -0.3 0  -0.04999999999999999 -0.3 0  0 -0.3 0  0.04999999999999999 -0.3 0  0.09999999999999998 -0.3 0  0.15 -0.3 0  0.2 -0.3 0  0.25 -0.3 0  -0.25 -0.25 0  -0.2 -0.25 0  -0.15 -0.25 0  -0.1 -0.25 0  -0.04999999999999999 -0.25 0  0 -0.25 0  0.04999999999999999 -0.25 0  0.09999999999999998 -0.25 0  0.15 -0.25 0  0.2 -0.25 0  0.25 -0.25 0  -0.25 -0.2 0  -0.2 -0.2 0  -0.15 -0.2 0  -0.1 -0.2 0  -0.04999999999999999 -0.2 0  0 -0.2 0  0.04999999999999999 -0.2 0  0.09999999999999998 -0.2 0  0.15 -0.2 0  0.2 -0.2 0  0.25 -0.2 0  -0.25 -0.15 0  -0.2 -0.15 0  -0.15 -0.15 0  -0.1 -0.15 0  -0.04999999999999999 -0.15 0  0 -0.15 0  0.04999999999999999 -0.15 0  0.09999999999999998 -0.15 0  0.15 -0.15 0  0.2 -0.15 0  0.25 -0.15 0  -0.25 -0.09999999999999998 0  -0.2 -0.09999999999999998 0  -0.15 -0.09999999999999998 0  -0.1 -0.09999999999999998 0  -0.04999999999999999 -0.09999999999999998 0  0 -0.09999999999999998 0  0.04999999999999999 -0.09999999999999998 0  0.09999999999999998 -0.09999999999999998 0  0.15 -0.09999999999999998 0  0.2 -0.09999999999999998 0  0.25 -0.09999999999999998 0  -0.25 -0.05000000000000004 0  -0.2 -0.05000000000000004 0  -0.15 -0.05000000000000004 0  -0.1 -0.05000000000000004 0  -0.04999999999999999 -0.05000000000000004 0  0 -0.05000000000000004 0  0.04999999999999999 -0.05000000000000004 0  0.09999999999999998 -0.05000000000000004 0  0.15 -0.05000000000000004 0  0.2 -0.05000000000000004 0  0.25 -0.05000000000000004 0  -0.25 0 0  -0.2 0 0  -0.15 0 0  -0.1 0 0  -0.04999999999999999 0 0  0 0 0  0.04999999999999999 0 0  0.09999999999999998 0 0  0.15 0 0  0.2 0 0  0.25 0 0  -0.225 -0.975 0  -0.175 -0.975 0  -0.125 -0.975 0  -0.07500000000000001 -0.975 0  -0.02499999999999999 -0.975 0  0.02500000000000002 -0.975 0  0.07500000000000001 -0.975 0  0.125 -0.975 0  0.175 -0.975 0  0.225 -0.975 0  -0.225 -0.925 0  -0.175 -0.925 0  -0.125 -0.925 0  -0.07500000000000001 -0.925 0  -0.02499999999999999 -0.925 0  0.02500000000000002 -0.925 0  0.07500000000000001 -0.925 0  0.125 -0.925 0  0.175 -0.925 0  0.225 -0.925 0  -0.225 -0.875 0  -0.175 -0.875 0  -0.125 -0.875 0  -0.07500000000000001 -0.875 0  -0.02499999999999999 -0.875 0  0.02500000000000002 -0.875 0  0.07500000000000001 -0.875 0  0.125 -0.875 0  0.175 -0.875 0  0.225 -0.875 0  -0.225 -0.825 0  -0.175 -0.825 0  -0.125 -0.825 0  -0.07500000000000001 -0.825 0  -0.02499999999999999 -0.825 0  0.02500000000000002 -0.825 0  0.07500000000000001 -0.825 0  0.125 -0.825 0  0.175 -0.825 0  0.225 -0.825 0  -0.225 -0.775 0  -0.175 -0.775 0  -0.125 -0.775 0  -0.07500000000000001 -0.775 0  -0.02499999999999999 -0.775 0  0.02500000000000002 -0.775 0  0.07500000000000001 -0.775 0  0.125 -0.775 0  0.175 -0.775 0  0.225 -0.775 0  -0.225 -0.725 0  -0.175 -0.725 0  -0.125 -0.725 0  -0.07500000000000001 -0.725 0  -0.02499999999999999 -0.725 0  0.02500000000000002 -0.725 0  0.07500000000000001 -0.725 0  0.125 -0.725 0  0.175 -0.725 0  0.225 -0.725 0  -0.225 -0.675 0  -0.175 -0.675 0  -0.125 -0.675 0  -0.07500000000000001 -0.675 0  -0.02499999999999999 -0.675 0  0.02500000000000002 -0.675 0  0.07500000000000001 -0.675 0  0.125 -0.675 0  0.175 -0.675 0  0.225 -0.675 0  -0.225 -0.625 0  -0.175 -0.625 0  -0.125 -0.625 0  -0.07500000000000001 -0.625 0  -0.02499999999999999 -0.625 0  0.02500000000000002 -0.625 0  0.07500000000000001 -0.625 0  0.125 -0.625 0  0.175 -0.625 0  0.225 -0.625 0  -0.225 -0.575 0  -0.175 -0.575 0  -0.125 -0.575 0  -0.07500000000000001 -0.575 0  -0.02499999999999999 -0.575 0  0.02500000000000002 -0.575 0  0.07500000000000001 -0.575 0  0.125 -0.575 0  0.175 -0.575 0  0.225 -0.575 0  -0.225 -0.525 0  -0.175 -0.525 0  -0.125 -0.525 0  -0.07500000000000001 -0.525 0  -0.02499999999999999 -0.525 0  0.02500000000000002 -0.525 0  0.07500000000000001 -0.525 0  0.125 -0.525 0  0.175 -0.525 0  0.225 -0.525 0  -0.225 -0.475 0  -0.175 -0.475 0  -0.125 -0.475 0  -0.07500000000000001 -0.475 0  -0.02499999999999999 -0.475 0  0.02500000000000002 -0.475 0  0.07500000000000001 -0.475 0  0.125 -0.475 0  0.175 -0.475 0  0.225 -0.475 0  -0.225 -0.425 0  -0.175 -0.425 0  -0.125 -0.425 0  -0.07500000000000001 -0.425 0  -0.02499999999999999 -0.425 0  0.02500000000000002 -0.425 0  0.07500000000000001 -0.425 0  0.125 -0.425 0  0.175 -0.425 0  0.225 -0.425 0  -0.225 -0.375 0  -0.175 -0.375 0  -0.125 -0.375 0  -0.07500000000000001 -0.375 0  -0.02499999999999999 -0.375 0  0.02500000000000002 -0.375 0  0.07500000000000001 -0.375 0  0.125 -0.375 0  0.175 -0.375 0  0.225 -0.375 0  -0.225 -0.325 0  -0.175 -0.325 0  -0.125 -0.325 0  -0.07500000000000001 -0.325 0  -0.02499999999999999 -0.325 0  0.02500000000000002 -0.325 0  0.07500000000000001 -0.325 0  0.125 -0.325 0  0.175 -0.325 0  0.225 -0.325 0  -0.225 -0.275 0  -0.175 -0.275 0  -0.125 -0.275 0  -0.07500000000000001 -0.275 0  -0.02499999999999999 -0.275 0  0.02500000000000002 -0.275 0  0.07500000000000001 -0.275 0  0.125 -0.275 0  0.175 -0.275 0  0.225 -0.275 0  -0.225 -0.225 0  -0.175 -0.225 0  -0.125 -0.225 0  -0.07500000000000001 -0.225 0  -0.02499999999999999 -0.225 0  0.02500000000000002 -0.225 0  0.07500000000000001 -0.225 0  0.125 -0.225 0  0.175 -0.225 0  0.225 -0.225 0  -0.225 -0.175 0  -0.175 -0.175 0  -0.125 -0.175 0  -0.07500000000000001 -0.175 0  -0.02499999999999999 -0.175 0  0.02500000000000002 -0.175 0  0.07500000000000001 -0.175 0  0.125 -0.175 0  0.175 -0.175 0  0.225 -0.175 0  -0.225 -0.125 0  -0.175 -0.125 0  -0.125 -0.125 0  -0.07500000000000001 -0.125 0  -0.02499999999999999 -0.125 0  0.02500000000000002 -0.125 0  0.07500000000000001 -0.125 0  0.125 -0.125 0  0.175 -0.125 0  0.225 -0.125 0  -0.225 -0.07499999999999996 0  -0.175 -0.07499999999999996 0  -0.125 -0.07499999999999996 0  -0.07500000000000001 -0.07499999999999996 0  -0.02499999999999999 -0.07499999999999996 0  0.02500000000000002 -0.07499999999999996 0  0.07500000000000001 -0.07499999999999996 0  0.125 -0.07499999999999996 0  0.175 -0.07499999999999996 0  0.225 -0.07499999999999996 0  -0.225 -0.02500000000000002 0  -0.175 -0.02500000000000002 0  -0.125 -0.02500000000000002 0  -0.07500000000000001 -0.02500000000000002 0  -0.02499999999999999 -0.02500000000000002 0  0.02500000000000002 -0.02500000000000002 0  0.07500000000000001 -0.02500000000000002 0  0.125 -0.02500000000000002 0  0.175 -0.02500000000000002 0  0.225 -0.02500000000000002 0  </DataArray>
</Points>
<Cells>
[...]
<PointData  Vectors="displacement"> 
<DataArray  type="Float64"  Name="displacement"  NumberOfComponents="3" format="ascii">1.5798644075051537e-33 1.2705494208814494e-18 0.0000000000000000e+00  -1.8055593228630316e-33 -1.0799670077492318e-18 0.0000000000000000e+00  -7.4690911051248080e-33 -4.9630836753181612e-19 0.0000000000000000e+00  -2.1666711874356387e-32 -9.5291206566108711e-19 0.0000000000000000e+00  1.0893574270848597e-32 2.5332448897612343e-19 0.0000000000000000e+00  -1.4444474582904252e-32 -1.5246593050577389e-18 0.0000000000000000e+00  1.1682356732059591e-32 -1.5236666883226758e-19 0.0000000000000000e+00  -8.1250169528836417e-33 -1.2070219498373766e-18 0.0000000000000000e+00  9.0059840214268016e-34 -1.9058241313221736e-19 0.0000000000000000e+00  -2.2569491535787903e-34 -1.3976043629695944e-18 0.0000000000000000e+00  2.2569491535787890e-34 7.6232965252886934e-19 0.0000000000000000e+00  -4.5138983071575875e-33 -6.0108746451500925e-03 0.0000000000000000e+00  -2.5112040375118490e-17 -6.0108746451500794e-03 0.0000000000000000e+00  -5.1144406055718146e-17 -6.0108746451500760e-03 0.0000000000000000e+00  -7.3518162758998167e-17 -6.0108746451500612e-03 0.0000000000000000e+00  -9.0100907037113908e-17 -6.0108746451500534e-03 0.0000000000000000e+00  -8.4893614895185543e-17 -6.0108746451500317e-03 0.0000000000000000e+00  -5.9743907958892034e-17 -6.0108746451500248e-03 0.0000000000000000e+00  -3.5158370203691341e-17 -6.0108746451500274e-03 0.0000000000000000e+00  -1.7265297090482411e-17 -6.0108746451500300e-03 0.0000000000000000e+00  -6.1722947096303041e-18 -6.0108746451500309e-03 0.0000000000000000e+00  3.6647103605375857e-34 -6.0108746451500343e-03 0.0000000000000000e+00  -2.6973125228627951e-33 -1.2143405101383448e-02 0.0000000000000000e+00  -4.2318601470881881e-17 -1.2143405101383436e-02 0.0000000000000000e+00  -8.2162489317989733e-17 -1.2143405101383436e-02 0.0000000000000000e+00  -1.2712553142438882e-16 -1.2143405101383410e-02 0.0000000000000000e+00  -1.4257007553808609e-16 -1.2143405101383394e-02 0.0000000000000000e+00  -1.4086620165036641e-16 -1.2143405101383382e-02 0.0000000000000000e+00  -1.1662041353099543e-16 -1.2143405101383370e-02 0.0000000000000000e+00  -7.8898613494332080e-17 -1.2143405101383365e-02 0.0000000000000000e+00  -4.3971305400125445e-17 -1.2143405101383368e-02 0.0000000000000000e+00  -1.7425306488010183e-17 -1.2143405101383360e-02 0.0000000000000000e+00  2.0312542382209121e-33 -1.2143405101383370e-02 0.0000000000000000e+00  -4.5138983071575827e-33 -1.8522146702079124e-02 0.0000000000000000e+00  -5.3809717157476960e-17 -1.8522146702079127e-02 0.0000000000000000e+00  -1.0514580505608246e-16 -1.8522146702079096e-02 0.0000000000000000e+00  -1.5750161503854981e-16 -1.8522146702079106e-02 0.0000000000000000e+00  -1.8572875335327989e-16 -1.8522146702079079e-02 0.0000000000000000e+00  -1.8499856543928980e-16 -1.8522146702079075e-02 0.0000000000000000e+00  -1.5890691428048605e-16 -1.8522146702079037e-02 0.0000000000000000e+00  -1.1534830988265243e-16 -1.8522146702079051e-02 0.0000000000000000e+00  -6.7021963846191412e-17 -1.8522146702079034e-02 0.0000000000000000e+00  -2.4854265926604637e-17 -1.8522146702079051e-02 0.0000000000000000e+00  -3.1597288150103068e-33 -1.8522146702079044e-02 0.0000000000000000e+00  2.1311752890749286e-33 -2.5277269631751548e-02 0.0000000000000000e+00  -5.9178151254735847e-17 -2.5277269631751566e-02 0.0000000000000000e+00  -1.2249540179390461e-16 -2.5277269631751514e-02 0.0000000000000000e+00  -1.8193220185990337e-16 -2.5277269631751503e-02 0.0000000000000000e+00  -2.2441547894305367e-16 -2.5277269631751486e-02 0.0000000000000000e+00  -2.2721763211898196e-16 -2.5277269631751493e-02 0.0000000000000000e+00  -1.9312054582454973e-16 -2.5277269631751514e-02 0.0000000000000000e+00  -1.3620592652613082e-16 -2.5277269631751472e-02 0.0000000000000000e+00  -8.8403342009864665e-17 -2.5277269631751489e-02 0.0000000000000000e+00  -4.6680516062747964e-17 -2.5277269631751472e-02 0.0000000000000000e+00  7.9743949324265064e-33 -2.5277269631751458e-02 0.0000000000000000e+00  1.8055593228630322e-33 -3.2546910902381071e-02 0.0000000000000000e+00  -7.5762352867227070e-17 -3.2546910902381064e-02 0.0000000000000000e+00  -1.4831311999512020e-16 -3.2546910902381071e-02 0.0000000000000000e+00  -2.0497752811193896e-16 -3.2546910902381029e-02 0.0000000000000000e+00  -2.3090147544429799e-16 -3.2546910902381043e-02 0.0000000000000000e+00  -2.4720150774399323e-16 -3.2546910902381078e-02 0.0000000000000000e+00  -2.1292986013876679e-16 -3.2546910902381043e-02 0.0000000000000000e+00  -1.6186615018417864e-16 -3.2546910902381071e-02 0.0000000000000000e+00  -1.0487879567108917e-16 -3.2546910902380988e-02 0.0000000000000000e+00  -5.1975361214947495e-17 -3.2546910902381009e-02 0.0000000000000000e+00  -1.0530206973641113e-32 -3.2546910902381009e-02 0.0000000000000000e+00  -2.3561194473321822e-32 -4.0478994419333662e-02 0.0000000000000000e+00  -8.5416082726187283e-17 -4.0478994419333593e-02 0.0000000000000000e+00  -1.7771630413409453e-16 -4.0478994419333614e-02 0.0000000000000000e+00  -2.3554497583434344e-16 -4.0478994419333628e-02 0.0000000000000000e+00  -2.6549345678426780e-16 -4.0478994419333669e-02 0.0000000000000000e+00  -2.6312740258529590e-16 -4.0478994419333628e-02 0.0000000000000000e+00  -2.4961493839058706e-16 -4.0478994419333662e-02 0.0000000000000000e+00  -1.9364313425925116e-16 -4.0478994419333614e-02 0.0000000000000000e+00  -1.3087824988973205e-16 -4.0478994419333537e-02 0.0000000000000000e+00  -6.1821112294029683e-17 -4.0478994419333572e-02 0.0000000000000000e+00  8.9633123527843505e-33 -4.0478994419333579e-02 0.0000000000000000e+00  1.8055593228630333e-33 -4.9232367666449894e-02 0.0000000000000000e+00  -1.0907789256131053e-16 -4.9232367666449874e-02 0.0000000000000000e+00  -1.9087772658277651e-16 -4.9232367666449901e-02 0.0000000000000000e+00  -2.5633470864507081e-16 -4.9232367666449936e-02 0.0000000000000000e+00  -2.8797824465524818e-16 -4.9232367666449992e-02 0.0000000000000000e+00  -2.9601004029929713e-16 -4.9232367666449950e-02 0.0000000000000000e+00  -2.6895337430305608e-16 -4.9232367666449943e-02 0.0000000000000000e+00  -2.1969891679679349e-16 -4.9232367666449915e-02 0.0000000000000000e+00  -1.5479911649636472e-16 -4.9232367666449908e-02 0.0000000000000000e+00  -7.1481756932529490e-17 -4.9232367666449825e-02 0.0000000000000000e+00  9.0277966143151646e-34 -4.9232367666449922e-02 0.0000000000000000e+00  -1.7251115563859151e-32 -5.8977128153575184e-02 0.0000000000000000e+00  -1.0798881090580985e-16 -5.8977128153575087e-02 0.0000000000000000e+00  -1.9436369515395517e-16 -5.8977128153575246e-02 0.0000000000000000e+00  -2.8057339864966076e-16 -5.8977128153575240e-02 0.0000000000000000e+00  -3.2829952290465056e-16 -5.8977128153575288e-02 0.0000000000000000e+00  -3.3138037124274140e-16 -5.8977128153575281e-02 0.0000000000000000e+00  -2.9517526955806948e-16 -5.8977128153575253e-02 0.0000000000000000e+00  -2.3497569748592974e-16 -5.8977128153575233e-02 0.0000000000000000e+00  -1.5177231812911724e-16 -5.8977128153575142e-02 0.0000000000000000e+00  -7.2460138359734127e-17 -5.8977128153575163e-02 0.0000000000000000e+00  -1.3321289730693566e-33 -5.8977128153575149e-02 0.0000000000000000e+00  -9.0277966143151749e-34 -6.9894045724728557e-02 0.0000000000000000e+00  -9.7302267284549980e-17 -6.9894045724728626e-02 0.0000000000000000e+00  -1.9447179509564241e-16 -6.9894045724728598e-02 0.0000000000000000e+00  -3.0358040785819173e-16 -6.9894045724728696e-02 0.0000000000000000e+00  -3.6581020267017981e-16 -6.9894045724728834e-02 0.0000000000000000e+00  -3.6610705804603146e-16 -6.9894045724728737e-02 0.0000000000000000e+00  -3.2889407258393082e-16 -6.9894045724728696e-02 0.0000000000000000e+00  -2.5314303844648158e-16 -6.9894045724728598e-02 0.0000000000000000e+00  -1.6976420092736990e-16 -6.9894045724728571e-02 0.0000000000000000e+00  -8.4545267477338247e-17 -6.9894045724728571e-02 0.0000000000000000e+00  -6.6280248971114736e-33 -6.9894045724728501e-02 0.0000000000000000e+00  -1.8295018308069976e-33 -8.2173028346465393e-02 0.0000000000000000e+00  -9.8393788060814225e-17 -8.2173028346465365e-02 0.0000000000000000e+00  -2.0409268990582146e-16 -8.2173028346465393e-02 0.0000000000000000e+00  -3.0611741689130280e-16 -8.2173028346465407e-02 0.0000000000000000e+00  -3.7186379940467473e-16 -8.2173028346465601e-02 0.0000000000000000e+00  -3.7842922560995766e-16 -8.2173028346465518e-02 0.0000000000000000e+00  -3.3122404596489053e-16 -8.2173028346465407e-02 0.0000000000000000e+00  -2.7423603236238969e-16 -8.2173028346465407e-02 0.0000000000000000e+00  -1.8387822924802425e-16 -8.2173028346465268e-02 0.0000000000000000e+00  -9.6982863768850351e-17 -8.2173028346465213e-02 0.0000000000000000e+00  -1.3154789352287803e-32 -8.2173028346465227e-02 0.0000000000000000e+00  -9.0277966143151749e-33 -9.6010628399479006e-02 0.0000000000000000e+00  -1.0523302792656666e-16 -9.6010628399478895e-02 0.0000000000000000e+00  -2.1338936830434067e-16 -9.6010628399478909e-02 0.0000000000000000e+00  -2.9320941113540745e-16 -9.6010628399479006e-02 0.0000000000000000e+00  -3.6235100453618329e-16 -9.6010628399479200e-02 0.0000000000000000e+00  -3.7552036997973788e-16 -9.6010628399479117e-02 0.0000000000000000e+00  -3.4307542496468431e-16 -9.6010628399479117e-02 0.0000000000000000e+00  -2.6050267188914399e-16 -9.6010628399478867e-02 0.0000000000000000e+00  -1.8333750110183954e-16 -9.6010628399478853e-02 0.0000000000000000e+00  -1.0612946021796169e-16 -9.6010628399478881e-02 0.0000000000000000e+00  7.2222372914521386e-33 -9.6010628399478784e-02 0.0000000000000000e+00  -4.6448465411292630e-33 -1.1160664197675037e-01 0.0000000000000000e+00  -1.2704066791826913e-16 -1.1160664197675034e-01 0.0000000000000000e+00  -2.0879503736922377e-16 -1.1160664197675035e-01 0.0000000000000000e+00  -2.8970784372224666e-16 -1.1160664197675034e-01 0.0000000000000000e+00  -3.3040218034318926e-16 -1.1160664197675044e-01 0.0000000000000000e+00  -3.7218809922973702e-16 -1.1160664197675045e-01 0.0000000000000000e+00  -3.6277040122603066e-16 -1.1160664197675031e-01 0.0000000000000000e+00  -2.8744807538781543e-16 -1.1160664197675024e-01 0.0000000000000000e+00  -1.9295839591201873e-16 -1.1160664197675017e-01 0.0000000000000000e+00  -9.9879981505426097e-17 -1.1160664197675006e-01 0.0000000000000000e+00  3.1544390904316072e-33 -1.1160664197675019e-01 0.0000000000000000e+00  -1.1736135598609714e-32 -1.2915991226887136e-01 0.0000000000000000e+00  -6.9210823032500630e-17 -1.2915991226887136e-01 0.0000000000000000e+00  -1.5166421818742987e-16 -1.2915991226887125e-01 0.0000000000000000e+00  -2.3228987553953229e-16 -1.2915991226887139e-01 0.0000000000000000e+00  -2.7327665258576110e-16 -1.2915991226887141e-01 0.0000000000000000e+00  -3.2641047372361164e-16 -1.2915991226887127e-01 0.0000000000000000e+00  -3.4623735697840459e-16 -1.2915991226887122e-01 0.0000000000000000e+00  -2.7946537424736519e-16 -1.2915991226887119e-01 0.0000000000000000e+00  -1.8527126676169484e-16 -1.2915991226887111e-01 0.0000000000000000e+00  -8.8017599249096961e-17 -1.2915991226887089e-01 0.0000000000000000e+00  6.3935137741224177e-33 -1.2915991226887105e-01 0.0000000000000000e+00  2.6532554709157216e-33 -1.4886350577183086e-01 0.0000000000000000e+00  -5.5055350350686920e-17 -1.4886350577183100e-01 0.0000000000000000e+00  -1.2453113282389107e-16 -1.4886350577183086e-01 0.0000000000000000e+00  -2.0293759563099511e-16 -1.4886350577183077e-01 0.0000000000000000e+00  -2.6030465958327235e-16 -1.4886350577183097e-01 0.0000000000000000e+00  -2.9761445555558044e-16 -1.4886350577183077e-01 0.0000000000000000e+00  -2.7327665258576061e-16 -1.4886350577183066e-01 0.0000000000000000e+00  -2.4121491147490763e-16 -1.4886350577183072e-01 0.0000000000000000e+00  -1.7454438058689237e-16 -1.4886350577183044e-01 0.0000000000000000e+00  -9.0296592191001549e-17 -1.4886350577183038e-01 0.0000000000000000e+00  1.3412726398411117e-32 -1.4886350577183038e-01 0.0000000000000000e+00  -9.9305762757466767e-33 -1.7089948204819894e-01 0.0000000000000000e+00  -6.7664501817078420e-17 -1.7089948204819888e-01 0.0000000000000000e+00  -1.1733317652589983e-16 -1.7089948204819894e-01 0.0000000000000000e+00  -1.9091253552703503e-16 -1.7089948204819894e-01 0.0000000000000000e+00  -2.3868467124579109e-16 -1.7089948204819894e-01 0.0000000000000000e+00  -2.6631246587604451e-16 -1.7089948204819883e-01 0.0000000000000000e+00  -2.8254078985720593e-16 -1.7089948204819866e-01 0.0000000000000000e+00  -2.5194249802407856e-16 -1.7089948204819855e-01 0.0000000000000000e+00  -1.7641910483384561e-16 -1.7089948204819858e-01 0.0000000000000000e+00  -7.9623666568638120e-17 -1.7089948204819849e-01 0.0000000000000000e+00  -1.0833355937178189e-32 -1.7089948204819841e-01 0.0000000000000000e+00  -1.0686201595493201e-32 -1.9543351913994694e-01 0.0000000000000000e+00  -7.3435220199471419e-17 -1.9543351913994669e-01 0.0000000000000000e+00  -1.6332102085696928e-16 -1.9543351913994692e-01 0.0000000000000000e+00  -1.5231281783755424e-16 -1.9543351913994705e-01 0.0000000000000000e+00  -1.6835770767680422e-16 -1.9543351913994703e-01 0.0000000000000000e+00  -1.9630949410432829e-16 -1.9543351913994661e-01 0.0000000000000000e+00  -2.4052690741916503e-16 -1.9543351913994653e-01 0.0000000000000000e+00  -2.3347725995625973e-16 -1.9543351913994642e-01 0.0000000000000000e+00  -1.8258080151002752e-16 -1.9543351913994614e-01 0.0000000000000000e+00  -1.0080972273491965e-16 -1.9543351913994625e-01 0.0000000000000000e+00  8.8171770081264961e-33 -1.9543351913994636e-01 0.0000000000000000e+00  9.0277966143151664e-34 -2.2260968285451699e-01 0.0000000000000000e+00  -1.1157215340836494e-16 -2.2260968285451679e-01 0.0000000000000000e+00  -1.3528104847970143e-16 -2.2260968285451713e-01 0.0000000000000000e+00  -1.3798957556397303e-16 -2.2260968285451682e-01 0.0000000000000000e+00  -6.1769104791695994e-17 -2.2260968285451693e-01 0.0000000000000000e+00  -1.4663099473318823e-16 -2.2260968285451654e-01 0.0000000000000000e+00  -1.9025194906890657e-16 -2.2260968285451643e-01 0.0000000000000000e+00  -2.3706317212048017e-16 -2.2260968285451638e-01 0.0000000000000000e+00  -2.1025438658200374e-16 -2.2260968285451641e-01 0.0000000000000000e+00  -1.3456523208354611e-16 -2.2260968285451632e-01 0.0000000000000000e+00  2.9486744866414908e-33 -2.2260968285451621e-01 0.0000000000000000e+00  -2.4262203400972006e-32 -2.5254563537428049e-01 0.0000000000000000e+00  -1.0459214559810831e-16 -2.5254563537428043e-01 0.0000000000000000e+00  -1.7295990669984882e-16 -2.5254563537428060e-01 0.0000000000000000e+00  -1.8139170215146647e-16 -2.5254563537428065e-01 0.0000000000000000e+00  -1.7808874221443946e-16 -2.5254563537428038e-01 0.0000000000000000e+00  -1.9214764634936322e-16 -2.5254563537427993e-01 0.0000000000000000e+00  -2.3718478455487879e-16 -2.5254563537427954e-01 0.0000000000000000e+00  -2.0765998798150606e-16 -2.5254563537427976e-01 0.0000000000000000e+00  -1.5317761737105350e-16 -2.5254563537427976e-01 0.0000000000000000e+00  -1.0014363480727313e-16 -2.5254563537427965e-01 0.0000000000000000e+00  -4.1511743360467042e-33 -2.5254563537427999e-01 0.0000000000000000e+00  1.0833355937178210e-32 -2.8532856483290120e-01 0.0000000000000000e+00  -8.8201470177947585e-17 -2.8532856483290164e-01 0.0000000000000000e+00  -1.2318199787824561e-16 -2.8532856483290181e-01 0.0000000000000000e+00  -1.7739195063641645e-16 -2.8532856483290159e-01 0.0000000000000000e+00  -2.5173890624188501e-16 -2.8532856483290137e-01 0.0000000000000000e+00  -3.2514553035621338e-16 -2.8532856483290087e-01 0.0000000000000000e+00  -2.9576144045674113e-16 -2.8532856483290053e-01 0.0000000000000000e+00  -1.9903044268377523e-16 -2.8532856483290087e-01 0.0000000000000000e+00  -1.0377594401990914e-16 -2.8532856483290042e-01 0.0000000000000000e+00  -7.3696884039881263e-17 -2.8532856483290081e-01 0.0000000000000000e+00  7.5607796644889587e-33 -2.8532856483290081e-01 0.0000000000000000e+00  -1.8055593228630353e-33 -3.2101208242547902e-01 0.0000000000000000e+00  3.1989648799639792e-17 -3.2101208242547907e-01 0.0000000000000000e+00  -9.3432486444303151e-17 -3.2101208242547918e-01 0.0000000000000000e+00  -2.8207636714529008e-16 -3.2101208242547913e-01 0.0000000000000000e+00  -5.0297954623497548e-16 -3.2101208242547913e-01 0.0000000000000000e+00  -5.3016762981524427e-16 -3.2101208242547824e-01 0.0000000000000000e+00  -3.6027825980173152e-16 -3.2101208242547868e-01 0.0000000000000000e+00  -2.0391062685201699e-16 -3.2101208242547796e-01 0.0000000000000000e+00  -1.3933892834887829e-16 -3.2101208242547818e-01 0.0000000000000000e+00  -2.8435243377457534e-17 -3.2101208242547835e-01 0.0000000000000000e+00  7.2222372914521290e-33 -3.2101208242547824e-01 0.0000000000000000e+00  -5.7234005488057762e-18 -2.9975945950025157e-03 0.0000000000000000e+00  -1.8385203562600390e-17 -2.9975945950025105e-03 0.0000000000000000e+00  -3.0551746018977411e-17 -2.9975945950025031e-03 0.0000000000000000e+00  -4.5620725994596293e-17 -2.9975945950024988e-03 0.0000000000000000e+00  -4.4172338671400774e-17 -2.9975945950024888e-03 0.0000000000000000e+00  -3.8249144539325556e-17 -2.9975945950024754e-03 0.0000000000000000e+00  -2.2124623111835303e-17 -2.9975945950024767e-03 0.0000000000000000e+00  -1.1728843672920122e-17 -2.9975945950024806e-03 0.0000000000000000e+00  -7.4351628126641317e-18 -2.9975945950024797e-03 0.0000000000000000e+00  -2.6415694840642044e-18 -2.9975945950024827e-03 0.0000000000000000e+00  -1.7642013246478043e-17 -9.0534210894566963e-03 0.0000000000000000e+00  -4.9481573308822820e-17 -9.0534210894566841e-03 0.0000000000000000e+00  -8.4223954568209113e-17 -9.0534210894566737e-03 0.0000000000000000e+00  -1.1080714022880010e-16 -9.0534210894566477e-03 0.0000000000000000e+00  -1.1843993611154401e-16 -9.0534210894566355e-03 0.0000000000000000e+00  -1.0233251420913309e-16 -9.0534210894566130e-03 0.0000000000000000e+00  -6.9687881518699365e-17 -9.0534210894566078e-03 0.0000000000000000e+00  -4.3691176432258459e-17 -9.0534210894566130e-03 0.0000000000000000e+00  -1.9678421664877913e-17 -9.0534210894566078e-03 0.0000000000000000e+00  -6.9740981828631424e-18 -9.0534210894566182e-03 0.0000000000000000e+00  -2.6504937053713623e-17 -1.5292621267519764e-02 0.0000000000000000e+00  -6.7145200326602447e-17 -1.5292621267519750e-02 0.0000000000000000e+00  -1.2212473412390305e-16 -1.5292621267519717e-02 0.0000000000000000e+00  -1.5755214001315569e-16 -1.5292621267519709e-02 0.0000000000000000e+00  -1.6686870998826409e-16 -1.5292621267519690e-02 0.0000000000000000e+00  -1.4995038542192973e-16 -1.5292621267519667e-02 0.0000000000000000e+00  -1.1973948540992007e-16 -1.5292621267519665e-02 0.0000000000000000e+00  -7.6854358543490708e-17 -1.5292621267519660e-02 0.0000000000000000e+00  -3.7811479603600110e-17 -1.5292621267519664e-02 0.0000000000000000e+00  -1.0140223822942068e-17 -1.5292621267519667e-02 0.0000000000000000e+00  -2.8795487169466676e-17 -2.1842224404265895e-02 0.0000000000000000e+00  -8.3171155136106479e-17 -2.1842224404265892e-02 0.0000000000000000e+00  -1.4160152361780145e-16 -2.1842224404265871e-02 0.0000000000000000e+00  -1.9213589635872693e-16 -2.1842224404265864e-02 0.0000000000000000e+00  -2.1055988642052265e-16 -2.1842224404265847e-02 0.0000000000000000e+00  -1.9577393306729044e-16 -2.1842224404265812e-02 0.0000000000000000e+00  -1.4803288264786010e-16 -2.1842224404265798e-02 0.0000000000000000e+00  -1.0159514519790225e-16 -2.1842224404265816e-02 0.0000000000000000e+00  -5.6580016903826823e-17 -2.1842224404265795e-02 0.0000000000000000e+00  -1.6251229247193085e-17 -2.1842224404265805e-02 0.0000000000000000e+00  -3.4685473181402961e-17 -2.8836109032257074e-02 0.0000000000000000e+00  -9.6847746192399963e-17 -2.8836109032257053e-02 0.0000000000000000e+00  -1.6844790913641796e-16 -2.8836109032257043e-02 0.0000000000000000e+00  -2.1337549457178700e-16 -2.8836109032257050e-02 0.0000000000000000e+00  -2.3898547108729304e-16 -2.8836109032257046e-02 0.0000000000000000e+00  -2.2340508976374943e-16 -2.88361