<?xml version="1.0"?>
<VTKFile type="UnstructuredGrid"  version="0.1"  >
<UnstructuredGrid>
<Piece  NumberOfPoints="1661" NumberOfCells="3200">
<Points>
<DataArray  type="Float64"  NumberOfComponents="3"  format="ascii">-0.25 -1 0  -0.225 -1 0  -0.2 -1 0  -0.175 -1 0  -0.15 -1 0  -0.125 -1 0  -0.1 -1 0  -0.07500000000000001 -1 0  -0.04999999999999999 -1 0  -0.02499999999999999 -1 0  0 -1 0  0.02500000000000002 -1 0  0.04999999999999999 -1 0  0.07500000000000001 -1 0  0.09999999999999998 -1 0  0.125 -1 0  0.15 -1 0  0.175 -1 0  0.2 -1 0  0.225 -1 0  0.25 -1 0  -0.25 -0.975 0  -0.225 -0.975 0  -0.2 -0.975 0  -0.175 -0.975 0  -0.15 -0.975 0  -0.125 -0.975 0  -0.1 -0.975 0  -0.07500000000000001 -0.975 0  -0.04999999999999999 -0.975 0  -0.02499999999999999 -0.975 0  0 -0.975 0  0.02500000000000002 -0.975 0  0.04999999999999999 -0.975 0  0.07500000000000001 -0.975 0  0.09999999999999998 -0.975 0  0.125 -0.975 0  0.15 -0.975 0  0.175 -0.975 0  0.2 -0.975 0  0.225 -0.975 0  0.25 -0.975 0  -0.25 -0.95 0  -0.225 -0.95 0  -0.2 -0.95 0  -0.175 -0.95 0  -0.15 -0.95 0  -0.125 -0.95 0  -0.1 -0.95 0  -0.07500000000000001 -0.95 0  -0.04999999999999999 -0.95 0  -0.02499999999999999 -0.95 0  0 -0.95 0  0.02500000000000002 -0.95 0  0.04999999999999999 -0.95 0  0.07500000000000001 -0.95 0  0.09999999999999998 -0.95 0  0.125 -0.95 0  0.15 -0.95 0  0.175 -0.95 0  0.2 -0.95 0  0.225 -0.95 0  0.25 -0.95 0  -0.25 -0.925 0  -0.225 -0.925 0  -0.2 -0.925 0  -0.175 -0.925 0  -0.15 -0.925 0  -0.125 -0.925 0  -0.1 -0.925 0  -0.07500000000000001 -0.925 0  -0.04999999999999999 -0.925 0  -0.02499999999999999 -0.925 0  0 -0.925 0  0.02500000000000002 -0.925 0  0.04999999999999999 -0.925 0  0.07500000000000001 -0.925 0  0.09999999999999998 -0.925 0  0.125 -0.925 0  0.15 -0.925 0  0.175 -0.925 0  0.2 -0.925 0  0.225 -0.925 0  0.25 -0.925 0  -0.25 -0.9 0  -0.225 -0.9 0  -0.2 -0.9 0  -0.175 -0.9 0  -0.15 -0.9 0  -0.125 -0.9 0  -0.1 -0.9 0  -0.07500000000000001 -0.9 0  -0.04999999999999999 -0.9 0  -0.02499999999999999 -0.9 0  0 -0.9 0  0.02500000000000002 -0.9 0  0.04999999999999999 -0.9 0  0.07500000000000001 -0.9 0  0.09999999999999998 -0.9 0  0.125 -0.9 0  0.15 -0.9 0  0.175 -0.9 0  0.2 -0.9 0  0.225 -0.9 0  0.25 -0.9 0  -0.25 -0.875 0  -0.225 -0.875 0  -0.2 -0.875 0  -0.175 -0.875 0  -0.15 -0.875 0  -0.125 -0.875 0  -0.1 -0.875 0  -0.07500000000000001 -0.875 0  -0.04999999999999999 -0.875 0  -0.02499999999999999 -0.875 0  0 -0.875 0  0.02500000000000002 -0.875 0  0.04999999999999999 -0.875 0  0.07500000000000001 -0.875 0  0.09999999999999998 -0.875 0  0.125 -0.875 0  0.15 -0.875 0  0.175 -0.875 0  0.2 -0.875 0  0.225 -0.875 0  0.25 -0.875 0  -0.25 -0.85 0  -0.225 -0.85 0  -0.2 -0.85 0  -0.175 -0.85 0  -0.15 -0.85 0  -0.125 -0.85 0  -0.1 -0.85 0  -0.07500000000000001 -0.85 0  -0.04999999999999999 -0.85 0  -0.02499999999999999 -0.85 0  0 -0.85 0  0.02500000000000002 -0.85 0  0.04999999999999999 -0.85 0  0.07500000000000001 -0.85 0  0.09999999999999998 -0.85 0  0.125 -0.85 0  0.15 -0.85 0  0.175 -0.85 0  0.2 -0.85 0  0.225 -0.85 0  0.25 -0.85 0  -0.25 -0.825 0  -0.225 -0.825 0  -0.2 -0.825 0  -0.175 -0.825 0  -0.15 -0.825 0  -0.125 -0.825 0  -0.1 -0.825 0  -0.07500000000000001 -0.825 0  -0.04999999999999999 -0.825 0  -0.02499999999999999 -0.825 0  0 -0.825 0  0.02500000000000002 -0.825 0  0.04999999999999999 -0.825 0  0.07500000000000001 -0.825 0  0.09999999999999998 -0.825 0  0.125 -0.825 0  0.15 -0.825 0  0.175 -0.825 0  0.2 -0.825 0  0.225 -0.825 0  0.25 -0.825 0  -0.25 -0.8 0  -0.225 -0.8 0  -0.2 -0.8 0  -0.175 -0.8 0  -0.15 -0.8 0  -0.125 -0.8 0  -0.1 -0.8 0  -0.07500000000000001 -0.8 0  -0.04999999999999999 -0.8 0  -0.02499999999999999 -0.8 0  0 -0.8 0  0.02500000000000002 -0.8 0  0.04999999999999999 -0.8 0  0.07500000000000001 -0.8 0  0.09999999999999998 -0.8 0  0.125 -0.8 0  0.15 -0.8 0  0.175 -0.8 0  0.2 -0.8 0  0.225 -0.8 0  0.25 -0.8 0  -0.25 -0.775 0  -0.225 -0.775 0  -0.2 -0.775 0  -0.175 -0.775 0  -0.15 -0.775 0  -0.125 -0.775 0  -0.1 -0.775 0  -0.07500000000000001 -0.775 0  -0.04999999999999999 -0.775 0  -0.02499999999999999 -0.775 0  0 -0.775 0  0.02500000000000002 -0.775 0  0.04999999999999999 -0.775 0  0.07500000000000001 -0.775 0  0.09999999999999998 -0.775 0  0.125 -0.775 0  0.15 -0.775 0  0.175 -0.775 0  0.2 -0.775 0  0.225 -0.775 0  0.25 -0.775 0  -0.25 -0.75 0  -0.225 -0.75 0  -0.2 -0.75 0  -0.175 -0.75 0  -0.15 -0.75 0  -0.125 -0.75 0  -0.1 -0.75 0  -0.07500000000000001 -0.75 0  -0.04999999999999999 -0.75 0  -0.02499999999999999 -0.75 0  0 -0.75 0  0.02500000000000002 -0.75 0  0.04999999999999999 -0.75 0  0.07500000000000001 -0.75 0  0.09999999999999998 -0.75 0  0.125 -0.75 0  0.15 -0.75 0  0.175 -0.75 0  0.2 -0.75 0  0.225 -0.75 0  0.25 -0.75 0  -0.25 -0.725 0  -0.225 -0.725 0  -0.2 -0.725 0  -0.175 -0.725 0  -0.15 -0.725 0  -0.125 -0.725 0  -0.1 -0.725 0  -0.07500000000000001 -0.725 0  -0.04999999999999999 -0.725 0  -0.02499999999999999 -0.725 0  0 -0.725 0  0.02500000000000002 -0.725 0  0.04999999999999999 -0.725 0  0.07500000000000001 -0.725 0  0.09999999999999998 -0.725 0  0.125 -0.725 0  0.15 -0.725 0  0.175 -0.725 0  0.2 -0.725 0  0.225 -0.725 0  0.25 -0.725 0  -0.25 -0.7 0  -0.225 -0.7 0  -0.2 -0.7 0  -0.175 -0.7 0  -0.15 -0.7 0  -0.125 -0.7 0  -0.1 -0.7 0  -0.07500000000000001 -0.7 0  -0.04999999999999999 -0.7 0  -0.02499999999999999 -0.7 0  0 -0.7 0  0.02500000000000002 -0.7 0  0.04999999999999999 -0.7 0  0.07500000000000001 -0.7 0  0.09999999999999998 -0.7 0  0.125 -0.7 0  0.15 -0.7 0  0.175 -0.7 0  0.2 -0.7 0  0.225 -0.7 0  0.25 -0.7 0  -0.25 -0.675 0  -0.225 -0.675 0  -0.2 -0.675 0  -0.175 -0.675 0  -0.15 -0.675 0  -0.125 -0.675 0  -0.1 -0.675 0  -0.07500000000000001 -0.675 0  -0.04999999999999999 -0.675 0  -0.02499999999999999 -0.675 0  0 -0.675 0  0.02500000000000002 -0.675 0  0.04999999999999999 -0.675 0  0.07500000000000001 -0.675 0  0.09999999999999998 -0.675 0  0.125 -0.675 0  0.15 -0.675 0  0.175 -0.675 0  0.2 -0.675 0  0.225 -0.675 0  0.25 -0.675 0  -0.25 -0.65 0  -0.225 -0.65 0  -0.2 -0.65 0  -0.175 -0.65 0  -0.15 -0.65 0  -0.125 -0.65 0  -0.1 -0.65 0  -0.07500000000000001 -0.65 0  -0.04999999999999999 -0.65 0  -0.02499999999999999 -0.65 0  0 -0.65 0  0.02500000000000002 -0.65 0  0.04999999999999999 -0.65 0  0.07500000000000001 -0.65 0  0.09999999999999998 -0.65 0  0.125 -0.65 0  0.15 -0.65 0  0.175 -0.65 0  0.2 -0.65 0  0.225 -0.65 0  0.25 -0.65 0  -0.25 -0.625 0  -0.225 -0.625 0  -0.2 -0.625 0  -0.175 -0.625 0  -0.15 -0.625 0  -0.125 -0.625 0  -0.1 -0.625 0  -0.07500000000000001 -0.625 0  -0.04999999999999999 -0.625 0  -0.02499999999999999 -0.625 0  0 -0.625 0  0.02500000000000002 -0.625 0  0.04999999999999999 -0.625 0  0.07500000000000001 -0.625 0  0.09999999999999998 -0.625 0  0.125 -0.625 0  0.15 -0.625 0  0.175 -0.625 0  0.2 -0.625 0  0.225 -0.625 0  0.25 -0.625 0  -0.25 -0.6 0  -0.225 -0.6 0  -0.2 -0.6 0  -0.175 -0.6 0  -0.15 -0.6 0  -0.125 -0.6 0  -0.1 -0.6 0  -0.07500000000000001 -0.6 0  -0.04999999999999999 -0.6 0  -0.02499999999999999 -0.6 0  0 -0.6 0  0.02500000000000002 -0.6 0  0.04999999999999999 -0.6 0  0.07500000000000001 -0.6 0  0.09999999999999998 -0.6 0  0.125 -0.6 0  0.15 -0.6 0  0.175 -0.6 0  0.2 -0.6 0  0.225 -0.6 0  0.25 -0.6 0  -0.25 -0.575 0  -0.225 -0.575 0  -0.2 -0.575 0  -0.175 -0.575 0  -0.15 -0.575 0  -0.125 -0.575 0  -0.1 -0.575 0  -0.07500000000000001 -0.575 0  -0.04999999999999999 -0.575 0  -0.02499999999999999 -0.575 0  0 -0.575 0  0.02500000000000002 -0.575 0  0.04999999999999999 -0.575 0  0.07500000000000001 -0.575 0  0.09999999999999998 -0.575 0  0.125 -0.575 0  0.15 -0.575 0  0.175 -0.575 0  0.2 -0.575 0  0.225 -0.575 0  0.25 -0.575 0  -0.25 -0.55 0  -0.225 -0.55 0  -0.2 -0.55 0  -0.175 -0.55 0  -0.15 -0.55 0  -0.125 -0.55 0  -0.1 -0.55 0  -0.07500000000000001 -0.55 0  -0.04999999999999999 -0.55 0  -0.02499999999999999 -0.55 0  0 -0.55 0  0.02500000000000002 -0.55 0  0.04999999999999999 -0.55 0  0.07500000000000001 -0.55 0  0.09999999999999998 -0.55 0  0.125 -0.55 0  0.15 -0.55 0  0.175 -0.55 0  0.2 -0.55 0  0.225 -0.55 0  0.25 -0.55 0  -0.25 -0.525 0  -0.225 -0.525 0  -0.2 -0.525 0  -0.175 -0.525 0  -0.15 -0.525 0  -0.125 -0.525 0  -0.1 -0.525 0  -0.07500000000000001 -0.525 0  -0.04999999999999999 -0.525 0  -0.02499999999999999 -0.525 0  0 -0.525 0  0.02500000000000002 -0.525 0  0.04999999999999999 -0.525 0  0.07500000000000001 -0.525 0  0.09999999999999998 -0.525 0  0.125 -0.525 0  0.15 -0.525 0  0.175 -0.525 0  0.2 -0.525 0  0.225 -0.525 0  0.25 -0.525 0  -0.25 -0.5 0  -0.225 -0.5 0  -0.2 -0.5 0  -0.175 -0.5 0  -0.15 -0.5 0  -0.125 -0.5 0  -0.1 -0.5 0  -0.07500000000000001 -0.5 0  -0.04999999999999999 -0.5 0  -0.02499999999999999 -0.5 0  0 -0.5 0  0.02500000000000002 -0.5 0  0.04999999999999999 -0.5 0  0.07500000000000001 -0.5 0  0.09999999999999998 -0.5 0  0.125 -0.5 0  0.15 -0.5 0  0.175 -0.5 0  0.2 -0.5 0  0.225 -0.5 0  0.25 -0.5 0  -0.25 -0.475 0  -0.225 -0.475 0  -0.2 -0.475 0  -0.175 -0.475 0  -0.15 -0.475 0  -0.125 -0.475 0  -0.1 -0.475 0  -0.07500000000000001 -0.475 0  -0.04999999999999999 -0.475 0  -0.02499999999999999 -0.475 0  0 -0.475 0  0.02500000000000002 -0.475 0  0.04999999999999999 -0.475 0  0.07500000000000001 -0.475 0  0.09999999999999998 -0.475 0  0.125 -0.475 0  0.15 -0.475 0  0.175 -0.475 0  0.2 -0.475 0  0.225 -0.475 0  0.25 -0.475 0  -0.25 -0.45 0  -0.225 -0.45 0  -0.2 -0.45 0  -0.175 -0.45 0  -0.15 -0.45 0  -0.125 -0.45 0  -0.1 -0.45 0  -0.07500000000000001 -0.45 0  -0.04999999999999999 -0.45 0  -0.02499999999999999 -0.45 0  0 -0.45 0  0.02500000000000002 -0.45 0  0.04999999999999999 -0.45 0  0.07500000000000001 -0.45 0  0.09999999999999998 -0.45 0  0.125 -0.45 0  0.15 -0.45 0  0.175 -0.45 0  0.2 -0.45 0  0.225 -0.45 0  0.25 -0.45 0  -0.25 -0.425 0  -0.225 -0.425 0  -0.2 -0.425 0  -0.175 -0.425 0  -0.15 -0.425 0  -0.125 -0.425 0  -0.1 -0.425 0  -0.07500000000000001 -0.425 0  -0.04999999999999999 -0.425 0  -0.02499999999999999 -0.425 0  0 -0.425 0  0.02500000000000002 -0.425 0  0.04999999999999999 -0.425 0  0.07500000000000001 -0.425 0  0.
[...]
<PointData  Vectors="displacement"> 
<DataArray  type="Float64"  Name="displacement"  NumberOfComponents="3" format="ascii">-1.1736135598609732e-32 1.0164395367051616e-18 0.0000000000000000e+00  5.4166779685891090e-33 2.5410988417629049e-19 0.0000000000000000e+00  2.1835983060874843e-32 1.0204100036454163e-18 0.0000000000000000e+00  0.0000000000000000e+00 8.8938459461701651e-19 0.0000000000000000e+00  1.8494726286923069e-32 -5.1270445981382195e-19 0.0000000000000000e+00  -1.4444474582904288e-32 2.5410988417629044e-19 0.0000000000000000e+00  8.5191813308784937e-32 -8.7003014348073140e-19 0.0000000000000000e+00  2.1666711874356431e-32 1.5246593050577425e-18 0.0000000000000000e+00  7.5387461218452258e-33 6.3576479578142312e-19 0.0000000000000000e+00  -7.2222372914521468e-33 -1.2705494208814527e-19 0.0000000000000000e+00  6.1402713096258204e-32 9.5076556095224574e-20 0.0000000000000000e+00  4.3333423748712894e-32 1.7787691892340346e-18 0.0000000000000000e+00  -2.8502342342632181e-32 -1.2766084611947606e-18 0.0000000000000000e+00  0.0000000000000000e+00 1.2705494208814517e-19 0.0000000000000000e+00  7.5001723696220215e-32 -1.1754538207818602e-18 0.0000000000000000e+00  4.3333423748712823e-32 1.2705494208814510e-19 0.0000000000000000e+00  2.2053328970612932e-32 8.8332539330032566e-19 0.0000000000000000e+00  4.1527864425849822e-32 0.0000000000000000e+00 0.0000000000000000e+00  -3.6203095784921375e-33 1.1752582143153429e-18 0.0000000000000000e+00  1.4444474582904299e-32 -3.8116482626443592e-19 0.0000000000000000e+00  5.4166779685891036e-33 1.7787691892340319e-18 0.0000000000000000e+00  -3.6111186457260631e-33 -8.2699219448952484e-03 0.0000000000000000e+00  -7.7425390957753584e-17 -8.2699219448952432e-03 0.0000000000000000e+00  -1.5569624499058882e-16 -8.2699219448952432e-03 0.0000000000000000e+00  -2.3236741999498840e-16 -8.2699219448952466e-03 0.0000000000000000e+00  -3.0624220840813536e-16 -8.2699219448952501e-03 0.0000000000000000e+00  -3.7545301194305490e-16 -8.2699219448952657e-03 0.0000000000000000e+00  -4.4441965093701578e-16 -8.2699219448952744e-03 0.0000000000000000e+00  -5.0371336232365196e-16 -8.2699219448952900e-03 0.0000000000000000e+00  -5.4970975341551820e-16 -8.2699219448953230e-03 0.0000000000000000e+00  -5.8377456874664831e-16 -8.2699219448953525e-03 0.0000000000000000e+00  -6.0264404129351527e-16 -8.2699219448953750e-03 0.0000000000000000e+00  -5.9573980444806294e-16 -8.2699219448954253e-03 0.0000000000000000e+00  -5.6708008383599069e-16 -8.2699219448954565e-03 0.0000000000000000e+00  -5.2400943029887584e-16 -8.2699219448954930e-03 0.0000000000000000e+00  -4.6986094282225228e-16 -8.2699219448955121e-03 0.0000000000000000e+00  -4.0064778343331087e-16 -8.2699219448955259e-03 0.0000000000000000e+00  -3.2774285873200599e-16 -8.2699219448955381e-03 0.0000000000000000e+00  -2.5232749006468996e-16 -8.2699219448955519e-03 0.0000000000000000e+00  -1.7330992504772817e-16 -8.2699219448955693e-03 0.0000000000000000e+00  -9.0047251429002357e-17 -8.2699219448955797e-03 0.0000000000000000e+00  1.5441587665989247e-33 -8.2699219448955901e-03 0.0000000000000000e+00  3.4687024042812723e-33 -1.6555493268326314e-02 0.0000000000000000e+00  -1.4347590018028143e-16 -1.6555493268326307e-02 0.0000000000000000e+00  -2.8630429185811384e-16 -1.6555493268326310e-02 0.0000000000000000e+00  -4.2710286962478640e-16 -1.6555493268326303e-02 0.0000000000000000e+00  -5.6511030208524649e-16 -1.6555493268326327e-02 0.0000000000000000e+00  -6.9002712127677297e-16 -1.6555493268326338e-02 0.0000000000000000e+00  -8.0588841001218391e-16 -1.6555493268326383e-02 0.0000000000000000e+00  -9.0978882290759748e-16 -1.6555493268326414e-02 0.0000000000000000e+00  -9.9457958243820730e-16 -1.6555493268326484e-02 0.0000000000000000e+00  -1.0567578253552710e-15 -1.6555493268326560e-02 0.0000000000000000e+00  -1.0838100154032159e-15 -1.6555493268326608e-02 0.0000000000000000e+00  -1.0681603437825931e-15 -1.6555493268326723e-02 0.0000000000000000e+00  -1.0240307476475831e-15 -1.6555493268326785e-02 0.0000000000000000e+00  -9.4726447816808227e-16 -1.6555493268326869e-02 0.0000000000000000e+00  -8.5208044360574244e-16 -1.6555493268326903e-02 0.0000000000000000e+00  -7.2977930596605329e-16 -1.6555493268326945e-02 0.0000000000000000e+00  -5.9950199226231504e-16 -1.6555493268326987e-02 0.0000000000000000e+00  -4.6084194293136724e-16 -1.6555493268327014e-02 0.0000000000000000e+00  -3.0884153341382315e-16 -1.6555493268327059e-02 0.0000000000000000e+00  -1.5597776563297682e-16 -1.6555493268327073e-02 0.0000000000000000e+00  7.7381113836987104e-33 -1.6555493268327087e-02 0.0000000000000000e+00  7.2222372914521344e-33 -2.4872342471649943e-02 0.0000000000000000e+00  -2.0145882365507202e-16 -2.4872342471649912e-02 0.0000000000000000e+00  -3.9780840421356291e-16 -2.4872342471649937e-02 0.0000000000000000e+00  -5.8671243353290999e-16 -2.4872342471649930e-02 0.0000000000000000e+00  -7.6999776875946771e-16 -2.4872342471649961e-02 0.0000000000000000e+00  -9.4330802805852545e-16 -2.4872342471650009e-02 0.0000000000000000e+00  -1.1008898061905411e-15 -2.4872342471650051e-02 0.0000000000000000e+00  -1.2404127192735416e-15 -2.4872342471650134e-02 0.0000000000000000e+00  -1.3521140706825679e-15 -2.4872342471650190e-02 0.0000000000000000e+00  -1.4334202393362569e-15 -2.4872342471650336e-02 0.0000000000000000e+00  -1.4676558824697703e-15 -2.4872342471650471e-02 0.0000000000000000e+00  -1.4473328420136855e-15 -2.4872342471650634e-02 0.0000000000000000e+00  -1.3914624494584287e-15 -2.4872342471650748e-02 0.0000000000000000e+00  -1.2932277961628704e-15 -2.4872342471650877e-02 0.0000000000000000e+00  -1.1641864408683851e-15 -2.4872342471650957e-02 0.0000000000000000e+00  -1.0008980394275322e-15 -2.4872342471651043e-02 0.0000000000000000e+00  -8.1891110828715916e-16 -2.4872342471651068e-02 0.0000000000000000e+00  -6.2622296222130807e-16 -2.4872342471651147e-02 0.0000000000000000e+00  -4.2418417119910478e-16 -2.4872342471651199e-02 0.0000000000000000e+00  -2.1294141634105270e-16 -2.4872342471651251e-02 0.0000000000000000e+00  -7.2222372914521317e-33 -2.4872342471651245e-02 0.0000000000000000e+00  -2.7525963466030063e-32 -3.3236056289035622e-02 0.0000000000000000e+00  -2.4362898073790824e-16 -3.3236056289035650e-02 0.0000000000000000e+00  -4.8321789929719719e-16 -3.3236056289035656e-02 0.0000000000000000e+00  -7.1729040685039503e-16 -3.3236056289035663e-02 0.0000000000000000e+00  -9.4668523936701059e-16 -3.3236056289035705e-02 0.0000000000000000e+00  -1.1545073772697319e-15 -3.3236056289035754e-02 0.0000000000000000e+00  -1.3410878766299878e-15 -3.3236056289035816e-02 0.0000000000000000e+00  -1.5045009241681901e-15 -3.3236056289035962e-02 0.0000000000000000e+00  -1.6338225187317159e-15 -3.3236056289036073e-02 0.0000000000000000e+00  -1.7318890335877187e-15 -3.3236056289036212e-02 0.0000000000000000e+00  -1.7772030162958480e-15 -3.3236056289036461e-02 0.0000000000000000e+00  -1.7595816545151178e-15 -3.3236056289036663e-02 0.0000000000000000e+00  -1.6848456912103025e-15 -3.3236056289036864e-02 0.0000000000000000e+00  -1.5689669047248107e-15 -3.3236056289037037e-02 0.0000000000000000e+00  -1.4187549520867250e-15 -3.3236056289037169e-02 0.0000000000000000e+00  -1.2182776100844677e-15 -3.3236056289037273e-02 0.0000000000000000e+00  -9.9667346913105083e-16 -3.3236056289037336e-02 0.0000000000000000e+00  -7.6129825942951875e-16 -3.3236056289037426e-02 0.0000000000000000e+00  -5.1170791226794746e-16 -3.3236056289037495e-02 0.0000000000000000e+00  -2.5988949974214717e-16 -3.3236056289037509e-02 0.0000000000000000e+00  5.0383304180975536e-32 -3.3236056289037565e-02 0.0000000000000000e+00  -1.0833355937178214e-32 -4.1662158772439818e-02 0.0000000000000000e+00  -2.7707252008724700e-16 -4.1662158772439860e-02 0.0000000000000000e+00  -5.5628229994663180e-16 -4.1662158772439756e-02 0.0000000000000000e+00  -8.2856071769940537e-16 -4.1662158772439825e-02 0.0000000000000000e+00  -1.0836748904760975e-15 -4.1662158772439881e-02 0.0000000000000000e+00  -1.3234436814186308e-15 -4.1662158772440006e-02 0.0000000000000000e+00  -1.5392483348540619e-15 -4.1662158772440096e-02 0.0000000000000000e+00  -1.7137446566585783e-15 -4.1662158772440241e-02 0.0000000000000000e+00  -1.8593602134289558e-15 -4.1662158772440422e-02 0.0000000000000000e+00  -1.9638247755798175e-15 -4.1662158772440609e-02 0.0000000000000000e+00  -2.0143350609514952e-15 -4.1662158772440908e-02 0.0000000000000000e+00  -2.0005814965060995e-15 -4.1662158772441213e-02 0.0000000000000000e+00  -1.9194204378761607e-15 -4.1662158772441470e-02 0.0000000000000000e+00  -1.7898340218604139e-15 -4.1662158772441657e-02 0.0000000000000000e+00  -1.6091106417389256e-15 -4.1662158772441858e-02 0.0000000000000000e+00  -1.3910695728384344e-15 -4.1662158772442025e-02 0.0000000000000000e+00  -1.1490710226726749e-15 -4.1662158772442108e-02 0.0000000000000000e+00  -8.7183688641398609e-16 -4.1662158772442233e-02 0.0000000000000000e+00  -5.8872579494692048e-16 -4.1662158772442281e-02 0.0000000000000000e+00  -2.9674469531199282e-16 -4.1662158772442413e-02 0.0000000000000000e+00  2.4129960286504521e-33 -4.1662158772442358e-02 0.0000000000000000e+00  -1.4444474582904252e-32 -5.0166090340646924e-02 0.0000000000000000e+00  -3.1169396977769482e-16 -5.0166090340646854e-02 0.0000000000000000e+00  -6.1271046950981551e-16 -5.0166090340646889e-02 0.0000000000000000e+00  -9.1280208252150926e-16 -5.0166090340646917e-02 0.0000000000000000e+00  -1.1919640070659820e-15 -5.0166090340647007e-02 0.0000000000000000e+00  -1.4581756454526521e-15 -5.0166090340647090e-02 0.0000000000000000e+00  -1.6971690845631802e-15 -5.0166090340647222e-02 0.0000000000000000e+00  -1.8933164287631742e-15 -5.0166090340647437e-02 0.0000000000000000e+00  -2.0448184970444043e-15 -5.0166090340647548e-02 0.0000000000000000e+00  -2.1490268408354166e-15 -5.0166090340647895e-02 0.0000000000000000e+00  -2.1916420468289640e-15 -5.0166090340648235e-02 0.0000000000000000e+00  -2.1772740058884030e-15 -5.0166090340648645e-02 0.0000000000000000e+00  -2.0989630038452654e-15 -5.0166090340648922e-02 0.0000000000000000e+00  -1.9542577708919973e-15 -5.0166090340649214e-02 0.0000000000000000e+00  -1.7606811784303607e-15 -5.0166090340649463e-02 0.0000000000000000e+00  -1.5217886957021788e-15 -5.0166090340649630e-02 0.0000000000000000e+00  -1.2549408059619777e-15 -5.0166090340649838e-02 0.0000000000000000e+00  -9.6206566194599133e-16 -5.0166090340649908e-02 0.0000000000000000e+00  -6.4719711291888630e-16 -5.0166090340650012e-02 0.0000000000000000e+00  -3.2654038033642636e-16 -5.0166090340650109e-02 0.0000000000000000e+00  4.9523912855671696e-32 -5.0166090340650130e-02 0.0000000000000000e+00  2.8888949165808538e-32 -5.8763186783346286e-02 0.0000000000000000e+00  -3.3063617036373034e-16 -5.8763186783346300e-02 0.0000000000000000e+00  -6.6247311019964978e-16 -5.8763186783346300e-02 0.0000000000000000e+00  -9.8088775813529341e-16 -5.8763186783346334e-02 0.0000000000000000e+00  -1.3014153059941971e-15 -5.8763186783346438e-02 0.0000000000000000e+00  -1.5836263480610477e-15 -5.8763186783346487e-02 0.0000000000000000e+00  -1.8307806124944019e-15 -5.8763186783346723e-02 0.0000000000000000e+00  -2.0348764828806998e-15 -5.8763186783346931e-02 0.0000000000000000e+00  -2.1957260156463337e-15 -5.8763186783347257e-02 0.0000000000000000e+00  -2.3027797031730344e-15 -5.8763186783347549e-02 0.0000000000000000e+00  -2.3492079000191872e-15 -5.8763186783347937e-02 0.0000000000000000e+00  -2.3286872776745229e-15 -5.8763186783348374e-02 0.0000000000000000e+00  -2.2450195890578485e-15 -5.8763186783348777e-02 0.0000000000000000e+00  -2.0821293447458944e-15 -5.8763186783349144e-02 0.0000000000000000e+00  -1.8728855397834032e-15 -5.8763186783349471e-02 0.0000000000000000e+00  -1.6240700889336817e-15 -5.8763186783349637e-02 0.0000000000000000e+00  -1.3361152793121630e-15 -5.8763186783349866e-02 0.0000000000000000e+00  -1.0290667998798488e-15 -5.8763186783349963e-02 0.0000000000000000e+00  -6.9227202659507314e-16 -5.8763186783350151e-02 0.0000000000000000e+00  -3.3957644717449492e-16 -5.8763186783350192e-02 0.0000000000000000e+00  1.4444474582904263e-32 -5.8763186783350269e-02 0.0000000000000000e+00  0.0000000000000000e+00 -6.7468658213684335e-02 0.0000000000000000e+00  -3.6123565561951734e-16 -6.7468658213684474e-02 0.0000000000000000e+00  -7.1597293881102750e-16 -6.7468658213684349e-02 0.0000000000000000e+00  -1.0537041816420159e-15 -6.7468658213684501e-02 0.0000000000000000e+00  -1.3815983297790386e-15 -6.7468658213684571e-02 0.0000000000000000e+00  -1.6829948006333536e-15 -6.7468658213684668e-02 0.0000000000000000e+00  -1.9362861555857159e-15 -6.7468658213684932e-02 0.0000000000000000e+00  -2.1598215623611468e-15 -6.7468658213685292e-02 0.0000000000000000e+00  -2.3142035517406789e-15 -6.7468658213685501e-02 0.0000000000000000e+00  -2.4139930870971361e-15 -6.7468658213685931e-02 0.0000000000000000e+00  -2.4835062388402044e-15 -6.7468658213686361e-02 0.0000000000000000e+00  -2.4646212248896052e-15 -6.7468658213686972e-02 0.0000000000000000e+00  -2.3652267242192669e-15 -6.7468658213687360e-02 0.0000000000000000e+00  -2.1928075715194142e-15 -6.7468658213687804e-02 0.0000000000000000e+00  -1.9693647377434445e-15 -6.7468658213688137e-02 0.0000000000000000e+00  -1.7090796205501808e-15 -6.7468658213688512e-02 0.0000000000000000e+00  -1.4057316417617599e-15 -6.7468658213688665e-02 0.0000000000000000e+00  -1.0706597250208525e-15 -6.7468658213688831e-02 0.0000000000000000e+00  -7.1735121306759853e-16 -6.7468658213688998e-02 0.0000000000000000e+00  -3.6265155872480635e-16 -6.7468658213689164e-02 0.0000000000000000e+00  7.7791665734497089e-32 -6.7468658213689095e-02 0.0000000000000000e+00  1.0833355937178189e-32 -7.6297567965748325e-02 0.0000000000000000e+00  -3.9503405731091284e-16 -7.6297567965748270e-02 0.0000000000000000e+00  -7.7118498403017424e-16 -7.6297567965748436e-02 0.0000000000000000e+00  -1.1180893769785090e-15 -7.6297567965748381e-02 0.0000000000000000e+00  -1.4548630652607372e-15 -7.6297567965748450e-02 0.0000000000000000e+00  -1.7516347167119163e-15 -7.6297567965748714e-02 0.0000000000000000e+00  -2.0315728910545617e-15 -7.6297567965749019e-02 0.0000000000000000e+00  -2.2623479586062143e-15 -7.6297567965749311e-02 0.0000000000000000e+00  -2.4195946001569450e-15 -7.6297567965749796e-02 0.0000000000000000e+00  -2.5365541312073550e-15 -7.6297567965750060e-02 0.0000000000000000e+00  -2.5866154048043209e-15 -7.6297567965750684e-02 0.0000000000000000e+00  -2.5649673899407546e-15 -7.6297567965751212e-02 0.0000000000000000e+00  -2.4600001283805038e-15 -7.6297567965751864e-02 0.0000000000000000e+00  -2.2870796099674573e-15 -7.6297567965752294e-02 0.0000000000000000e+00  -2.0583309897558916e-15 -7.6297567965752738e-02 0.0000000000000000e+00  -1.7758011425436334e-15 -7.6297567965752974e-02 0.0000000000000000e+00  -1.4634434981325323e-15 -7.6297567965753196e-02 0.0000000000000000e+00  -1.1074433651556102e-15 -7.6297567965753502e-02 0.0000000000000000e+00  -7.4495791829889646e-16 -7.6297567965753627e-02 0.0000000000000000e+00  -3.7816238901272902e-16 -7.6297567965753751e-02 0.0000000000000000e+00  2.3141222600669072e-32 -7.6297567965753779e-02 0.0000000000000000e+00  3.6206583277154249e-32 -8.5264811436958021e-02 0.0000000000000000e+00  -4.1512477963400020e-16 -8.5264811436958091e-02 0.0000000000000000e+00  -8.1118196245618424e-16 -8.5264811436958007e-02 0.0000000000000000e+00  -1.1704890100695860e-15 -8.5264811436958229e-02 0.0000000000000000e+00  -1.5053997880017086e-15 -8.5264811436958396e-02 0.0000000000000000e+00  -1.8169636233743549e-15 -8.5264811436958549e-02 0.0000000000000000e+00  -2.0959497694646795e-15 -8.5264811436958771e-02 0.0000000000000000e+00  -2.3297192714966368e-15 -8.5264811436959284e-02 0.0000000000000000e+00  -2.5171578141440781e-15 -8.5264811436959617e-02 0.0000000000000000e+00  -2.6355846783907566e-15 -8.5264811436960158e-02 0.0000000000000000e+00  -2.6683389607234100e-15 -8.5264811436960741e-02 0.0000000000000000e+00  -2.6292844786640214e-15 -8.5264811436961435e-02 0.0000000000000000e+00  -2.5250389755180567e-15 -8.5264811436961963e-02 0.0000000000000000e+00  -2.3503359572511978e-15 -8.5264811436962726e-02 0.0000000000000000e+00  -2.1173265329342536e-15 -8.5264811436962920e-02 0.0000000000000000e+00  -1.8333236845145197e-15 -8.5264811436963378e-02 0.0000000000000000e+00  -1.5084279487752155e-15 -8.5264811436963725e-02 0.0000000000000000e+00  -1.1484174264827922e-15 -8.5264811436964016e-02 0.0000000000000000e+00  -7.7247365676647181e-16 -8.5264811436964127e-02 0.0000000000000000e+00  -3.9166128631205446e-16 -8.5264811436964238e-02 0.0000000000000000e+00  8.4603351128439342e-32 -8.5264811436964266e-02 0.0000000000000000e+00  0.0000000000000000e+00 -9.4385094879317427e-02 0.0000000000000000e+00  -4.3139365791005126e-16 -9.4385094879317358e-02 0.0000000000000000e+00  -8.3268866187164593e-16 -9.4385094879317538e-02 0.0000000000000000e+00  -1.2131795962714838e-15 -9.4385094879317635e-02 0.0000000000000000e+00  -1.5618916396298350e-15 -9.4385094879317788e-02 0.0000000000000000e+00  -1.8766790182724389e-15 -9.4385094879318079e-02 0.0000000000000000e+00  -2.1463717673239155e-15 -9.4385094879318371e-02 0.0000000000000000e+00  -2.3679057361003200e-15 -9.4385094879318773e-02 0.0000000000000000e+00  -2.5701842136671457e-15 -9.4385094879319384e-02 0.0000000000000000e+00  -2.6939565338378650e-15 -9.4385094879319870e-02 0.0000000000000000e+00  -2.7280101285373536e-15 -9.4385094879320647e-02 0.0000000000000000e+00  -2.7035422730113311e-15 -9.4385094879321327e-02 0.0000000000000000e+00  -2.5848858057372497e-15 -9.4385094879322118e-02 0.0000000000000000e+00  -2.3992493400055475e-15 -9.4385094879322590e-02 0.0000000000000000e+00  -2.1732412277744040e-15 -9.4385094879323117e-02 0.0000000000000000e+00  -1.8783280872170035e-15 -9.4385094879323519e-02 0.0000000000000000e+00  -1.5425861679437311e-15 -9.4385094879323853e-02 0.0000000000000000e+00  -1.1859345385870451e-15 -9.4385094879324172e-02 0.0000000000000000e+00  -8.0166916758729744e-16 -9.4385094879324394e-02 0.0000000000000000e+00  -4.0080567190456536e-16 -9.4385094879324435e-02 0.0000000000000000e+00  2.8888949165808489e-32 -9.4385094879324477e-02 0.0000000000000000e+00  1.8506983059346095e-32 -1.0367291414783403e-01 0.0000000000000000e+00  -4.2499643618070720e-16 -1.0367291414783411e-01 0.0000000000000000e+00  -8.4436864455560753e-16 -1.0367291414783410e-01 0.0000000000000000e+00  -1.2563375223435244e-15 -1.0367291414783426e-01 0.0000000000000000e+00  -1.6264830412089670e-15 -1.0367291414783456e-01 0.0000000000000000e+00  -1.9359313990794538e-15 -1.0367291414783471e-01 0.0000000000000000e+00  -2.1911858180952705e-15 -1.0367291414783524e-01 0.0000000000000000e+00  -2.4209922583817930e-15 -1.0367291414783558e-01 0.0000000000000000e+00  -2.6099649922097802e-15 -1.0367291414783605e-01 0.0000000000000000e+00  -2.7431283466197468e-15 -1.0367291414783683e-01 0.0000000000000000e+00  -2.8006127518761951e-15 -1.0367291414783758e-01 0.0000000000000000e+00  -2.7562736821962213e-15 -1.0367291414783845e-01 0.0000000000000000e+00  -2.6497457707524077e-15 -1.0367291414783912e-01 0.0000000000000000e+00  -2.4603935398687906e-15 -1.0367291414783987e-01 0.0000000000000000e+00  -2.2107737857137625e-15 -1.0367291414784033e-01 0.0000000000000000e+00  -1.9210033054319756e-15 -1.0367291414784077e-01 0.0000000000000000e+00  -1.5837181957575121e-15 -1.0367291414784120e-01 0.0000000000000000e+00  -1.2210438068274727e-15 -1.0367291414784147e-01 0.0000000000000000e+00  -8.2772125353505319e-16 -1.0367291414784181e-01 0.0000000000000000e+00  -4.0996196084256311e-16 -1.0367291414784188e-01 0.0000000000000000e+00  5.3048597970372808e-32 -1.0367291414784194e-01 0.0000000000000000e+00  1.4444474582904269e-32 -1.1314253341910772e-01 0.0000000000000000e+00  -4.4104180865402889e-16 -1.1314253341910768e-01 0.0000000000000000e+00  -8.7928492572209839e-16 -1.1314253341910778e-01 0.0000000000000000e+00  -1.2761276963468989e-15 -1.1314253341910802e-01 0.00000