<?xml version="1.0"?>
<VTKFile type="UnstructuredGrid"  version="0.1"  >
<UnstructuredGrid>
<Piece  NumberOfPoints="1091" NumberOfCells="2050">
<Points>
<DataArray  type="Float64"  NumberOfComponents="3"  format="ascii">-0.5 -1 0  -0.4 -1 0  -0.3 -1 0  -0.2 -1 0  -0.09999999999999998 -1 0  0 -1 0  0.09999999999999998 -1 0  0.2 -1 0  0.3 -1 0  0.4 -1 0  0.5 -1 0  -0.5 -0.98 0  -0.4 -0.98 0  -0.3 -0.98 0  -0.2 -0.98 0  -0.09999999999999998 -0.98 0  0 -0.98 0  0.09999999999999998 -0.98 0  0.2 -0.98 0  0.3 -0.98 0  0.4 -0.98 0  0.5 -0.98 0  -0.5 -0.96 0  -0.4 -0.96 0  -0.3 -0.96 0  -0.2 -0.96 0  -0.09999999999999998 -0.96 0  0 -0.96 0  0.09999999999999998 -0.96 0  0.2 -0.96 0  0.3 -0.96 0  0.4 -0.96 0  0.5 -0.96 0  -0.5 -0.9399999999999999 0  -0.4 -0.9399999999999999 0  -0.3 -0.9399999999999999 0  -0.2 -0.9399999999999999 0  -0.09999999999999998 -0.9399999999999999 0  0 -0.9399999999999999 0  0.09999999999999998 -0.9399999999999999 0  0.2 -0.9399999999999999 0  0.3 -0.9399999999999999 0  0.4 -0.9399999999999999 0  0.5 -0.9399999999999999 0  -0.5 -0.92 0  -0.4 -0.92 0  -0.3 -0.92 0  -0.2 -0.92 0  -0.09999999999999998 -0.92 0  0 -0.92 0  0.09999999999999998 -0.92 0  0.2 -0.92 0  0.3 -0.92 0  0.4 -0.92 0  0.5 -0.92 0  -0.5 -0.9 0  -0.4 -0.9 0  -0.3 -0.9 0  -0.2 -0.9 0  -0.09999999999999998 -0.9 0  0 -0.9 0  0.09999999999999998 -0.9 0  0.2 -0.9 0  0.3 -0.9 0  0.4 -0.9 0  0.5 -0.9 0  -0.5 -0.88 0  -0.4 -0.88 0  -0.3 -0.88 0  -0.2 -0.88 0  -0.09999999999999998 -0.88 0  0 -0.88 0  0.09999999999999998 -0.88 0  0.2 -0.88 0  0.3 -0.88 0  0.4 -0.88 0  0.5 -0.88 0  -0.5 -0.86 0  -0.4 -0.86 0  -0.3 -0.86 0  -0.2 -0.86 0  -0.09999999999999998 -0.86 0  0 -0.86 0  0.09999999999999998 -0.86 0  0.2 -0.86 0  0.3 -0.86 0  0.4 -0.86 0  0.5 -0.86 0  -0.5 -0.84 0  -0.4 -0.84 0  -0.3 -0.84 0  -0.2 -0.84 0  -0.09999999999999998 -0.84 0  0 -0.84 0  0.09999999999999998 -0.84 0  0.2 -0.84 0  0.3 -0.84 0  0.4 -0.84 0  0.5 -0.84 0  -0.5 -0.8200000000000001 0  -0.4 -0.8200000000000001 0  -0.3 -0.8200000000000001 0  -0.2 -0.8200000000000001 0  -0.09999999999999998 -0.8200000000000001 0  0 -0.8200000000000001 0  0.09999999999999998 -0.8200000000000001 0  0.2 -0.8200000000000001 0  0.3 -0.8200000000000001 0  0.4 -0.8200000000000001 0  0.5 -0.8200000000000001 0  -0.5 -0.8 0  -0.4 -0.8 0  -0.3 -0.8 0  -0.2 -0.8 0  -0.09999999999999998 -0.8 0  0 -0.8 0  0.09999999999999998 -0.8 0  0.2 -0.8 0  0.3 -0.8 0  0.4 -0.8 0  0.5 -0.8 0  -0.5 -0.78 0  -0.4 -0.78 0  -0.3 -0.78 0  -0.2 -0.78 0  -0.09999999999999998 -0.78 0  0 -0.78 0  0.09999999999999998 -0.78 0  0.2 -0.78 0  0.3 -0.78 0  0.4 -0.78 0  0.5 -0.78 0  -0.5 -0.76 0  -0.4 -0.76 0  -0.3 -0.76 0  -0.2 -0.76 0  -0.09999999999999998 -0.76 0  0 -0.76 0  0.09999999999999998 -0.76 0  0.2 -0.76 0  0.3 -0.76 0  0.4 -0.76 0  0.5 -0.76 0  -0.5 -0.74 0  -0.4 -0.74 0  -0.3 -0.74 0  -0.2 -0.74 0  -0.09999999999999998 -0.74 0  0 -0.74 0  0.09999999999999998 -0.74 0  0.2 -0.74 0  0.3 -0.74 0  0.4 -0.74 0  0.5 -0.74 0  -0.5 -0.72 0  -0.4 -0.72 0  -0.3 -0.72 0  -0.2 -0.72 0  -0.09999999999999998 -0.72 0  0 -0.72 0  0.09999999999999998 -0.72 0  0.2 -0.72 0  0.3 -0.72 0  0.4 -0.72 0  0.5 -0.72 0  -0.5 -0.7 0  -0.4 -0.7 0  -0.3 -0.7 0  -0.2 -0.7 0  -0.09999999999999998 -0.7 0  0 -0.7 0  0.09999999999999998 -0.7 0  0.2 -0.7 0  0.3 -0.7 0  0.4 -0.7 0  0.5 -0.7 0  -0.5 -0.6799999999999999 0  -0.4 -0.6799999999999999 0  -0.3 -0.6799999999999999 0  -0.2 -0.6799999999999999 0  -0.09999999999999998 -0.6799999999999999 0  0 -0.6799999999999999 0  0.09999999999999998 -0.6799999999999999 0  0.2 -0.6799999999999999 0  0.3 -0.6799999999999999 0  0.4 -0.6799999999999999 0  0.5 -0.6799999999999999 0  -0.5 -0.6599999999999999 0  -0.4 -0.6599999999999999 0  -0.3 -0.6599999999999999 0  -0.2 -0.6599999999999999 0  -0.09999999999999998 -0.6599999999999999 0  0 -0.6599999999999999 0  0.09999999999999998 -0.6599999999999999 0  0.2 -0.6599999999999999 0  0.3 -0.6599999999999999 0  0.4 -0.6599999999999999 0  0.5 -0.6599999999999999 0  -0.5 -0.64 0  -0.4 -0.64 0  -0.3 -0.64 0  -0.2 -0.64 0  -0.09999999999999998 -0.64 0  0 -0.64 0  0.09999999999999998 -0.64 0  0.2 -0.64 0  0.3 -0.64 0  0.4 -0.64 0  0.5 -0.64 0  -0.5 -0.62 0  -0.4 -0.62 0  -0.3 -0.62 0  -0.2 -0.62 0  -0.09999999999999998 -0.62 0  0 -0.62 0  0.09999999999999998 -0.62 0  0.2 -0.62 0  0.3 -0.62 0  0.4 -0.62 0  0.5 -0.62 0  -0.5 -0.6 0  -0.4 -0.6 0  -0.3 -0.6 0  -0.2 -0.6 0  -0.09999999999999998 -0.6 0  0 -0.6 0  0.09999999999999998 -0.6 0  0.2 -0.6 0  0.3 -0.6 0  0.4 -0.6 0  0.5 -0.6 0  -0.5 -0.5800000000000001 0  -0.4 -0.5800000000000001 0  -0.3 -0.5800000000000001 0  -0.2 -0.5800000000000001 0  -0.09999999999999998 -0.5800000000000001 0  0 -0.5800000000000001 0  0.09999999999999998 -0.5800000000000001 0  0.2 -0.5800000000000001 0  0.3 -0.5800000000000001 0  0.4 -0.5800000000000001 0  0.5 -0.5800000000000001 0  -0.5 -0.5600000000000001 0  -0.4 -0.5600000000000001 0  -0.3 -0.5600000000000001 0  -0.2 -0.5600000000000001 0  -0.09999999999999998 -0.5600000000000001 0  0 -0.5600000000000001 0  0.09999999999999998 -0.5600000000000001 0  0.2 -0.5600000000000001 0  0.3 -0.5600000000000001 0  0.4 -0.5600000000000001 0  0.5 -0.5600000000000001 0  -0.5 -0.54 0  -0.4 -0.54 0  -0.3 -0.54 0  -0.2 -0.54 0  -0.09999999999999998 -0.54 0  0 -0.54 0  0.09999999999999998 -0.54 0  0.2 -0.54 0  0.3 -0.54 0  0.4 -0.54 0  0.5 -0.54 0  -0.5 -0.52 0  -0.4 -0.52 0  -0.3 -0.52 0  -0.2 -0.52 0  -0.09999999999999998 -0.52 0  0 -0.52 0  0.09999999999999998 -0.52 0  0.2 -0.52 0  0.3 -0.52 0  0.4 -0.52 0  0.5 -0.52 0  -0.5 -0.5 0  -0.4 -0.5 0  -0.3 -0.5 0  -0.2 -0.5 0  -0.09999999999999998 -0.5 0  0 -0.5 0  0.09999999999999998 -0.5 0  0.2 -0.5 0  0.3 -0.5 0  0.4 -0.5 0  0.5 -0.5 0  -0.5 -0.48 0  -0.4 -0.48 0  -0.3 -0.48 0  -0.2 -0.48 0  -0.09999999999999998 -0.48 0  0 -0.48 0  0.09999999999999998 -0.48 0  0.2 -0.48 0  0.3 -0.48 0  0.4 -0.48 0  0.5 -0.48 0  -0.5 -0.46 0  -0.4 -0.46 0  -0.3 -0.46 0  -0.2 -0.46 0  -0.09999999999999998 -0.46 0  0 -0.46 0  0.09999999999999998 -0.46 0  0.2 -0.46 0  0.3 -0.46 0  0.4 -0.46 0  0.5 -0.46 0  -0.5 -0.4399999999999999 0  -0.4 -0.4399999999999999 0  -0.3 -0.4399999999999999 0  -0.2 -0.4399999999999999 0  -0.09999999999999998 -0.4399999999999999 0  0 -0.4399999999999999 0  0.09999999999999998 -0.4399999999999999 0  0.2 -0.4399999999999999 0  0.3 -0.4399999999999999 0  0.4 -0.4399999999999999 0  0.5 -0.4399999999999999 0  -0.5 -0.42 0  -0.4 -0.42 0  -0.3 -0.42 0  -0.2 -0.42 0  -0.09999999999999998 -0.42 0  0 -0.42 0  0.09999999999999998 -0.42 0  0.2 -0.42 0  0.3 -0.42 0  0.4 -0.42 0  0.5 -0.42 0  -0.5 -0.4 0  -0.4 -0.4 0  -0.3 -0.4 0  -0.2 -0.4 0  -0.09999999999999998 -0.4 0  0 -0.4 0  0.09999999999999998 -0.4 0  0.2 -0.4 0  0.3 -0.4 0  0.4 -0.4 0  0.5 -0.4 0  -0.5 -0.38 0  -0.4 -0.38 0  -0.3 -0.38 0  -0.2 -0.38 0  -0.09999999999999998 -0.38 0  0 -0.38 0  0.09999999999999998 -0.38 0  0.2 -0.38 0  0.3 -0.38 0  0.4 -0.38 0  0.5 -0.38 0  -0.5 -0.36 0  -0.4 -0.36 0  -0.3 -0.36 0  -0.2 -0.36 0  -0.09999999999999998 -0.36 0  0 -0.36 0  0.09999999999999998 -0.36 0  0.2 -0.36 0  0.3 -0.36 0  0.4 -0.36 0  0.5 -0.36 0  -0.5 -0.34 0  -0.4 -0.34 0  -0.3 -0.34 0  -0.2 -0.34 0  -0.09999999999999998 -0.34 0  0 -0.34 0  0.09999999999999998 -0.34 0  0.2 -0.34 0  0.3 -0.34 0  0.4 -0.34 0  0.5 -0.34 0  -0.5 -0.32 0  -0.4 -0.32 0  -0.3 -0.32 0  -0.2 -0.32 0  -0.09999999999999998 -0.32 0  0 -0.32 0  0.09999999999999998 -0.32 0  0.2 -0.32 0  0.3 -0.32 0  0.4 -0.32 0  0.5 -0.32 0  -0.5 -0.3 0  -0.4 -0.3 0  -0.3 -0.3 0  -0.2 -0.3 0  -0.09999999999999998 -0.3 0  0 -0.3 0  0.09999999999999998 -0.3 0  0.2 -0.3 0  0.3 -0.3 0  0.4 -0.3 0  0.5 -0.3 0  -0.5 -0.28 0  -0.4 -0.28 0  -0.3 -0.28 0  -0.2 -0.28 0  -0.09999999999999998 -0.28 0  0 -0.28 0  0.09999999999999998 -0.28 0  0.2 -0.28 0  0.3 -0.28 0  0.4 -0.28 0  0.5 -0.28 0  -0.5 -0.26 0  -0.4 -0.26 0  -0.3 -0.26 0  -0.2 -0.26 0  -0.09999999999999998 -0.26 0  0 -0.26 0  0.09999999999999998 -0.26 0  0.2 -0.26 0  0.3 -0.26 0  0.4 -0.26 0  0.5 -0.26 0  -0.5 -0.24 0  -0.4 -0.24 0  -0.3 -0.24 0  -0.2 -0.24 0  -0.09999999999999998 -0.24 0  0 -0.24 0  0.09999999999999998 -0.24 0  0.2 -0.24 0  0.3 -0.24 0  0.4 -0.24 0  0.5 -0.24 0  -0.5 -0.22 0  -0.4 -0.22 0  -0.3 -0.22 0  -0.2 -0.22 0  -0.09999999999999998 -0.22 0  0 -0.22 0  0.09999999999999998 -0.22 0  0.2 -0.22 0  0.3 -0.22 0  0.4 -0.22 0  0.5 -0.22 0  -0.5 -0.2 0  -0.4 -0.2 0  -0.3 -0.2 0  -0.2 -0.2 0  -0.09999999999999998 -0.2 0  0 -0.2 0  0.09999999999999998 -0.2 0  0.2 -0.2 0  0.3 -0.2 0  0.4 -0.2 0  0.5 -0.2 0  -0.5 -0.18 0  -0.4 -0.18 0  -0.3 -0.18 0  -0.2 -0.18 0  -0.09999999999999998 -0.18 0  0 -0.18 0  0.09999999999999998 -0.18 0  0.2 -0.18 0  0.3 -0.18 0  0.4 -0.18 0  0.5 -0.18 0  -0.5 -0.16 0  -0.4 -0.16 0  -0.3 -0.16 0  -0.2 -0.16 0  -0.09999999999999998 -0.16 0  0 -0.16 0  0.09999999999999998 -0.16 0  0.2 -0.16 0  0.3 -0.16 0  0.4 -0.16 0  0.5 -0.16 0  -0.5 -0.14 0  -0.4 -0.14 0  -0.3 -0.14 0  -0.2 -0.14 0  -0.09999999999999998 -0.14 0  0 -0.14 0  0.09999999999999998 -0.14 0  0.2 -0.14 0  0.3 -0.14 0  0.4 -0.14 0  0.5 -0.14 0  -0.5 -0.12 0  -0.4 -0.12 0  -0.3 -0.12 0  -0.2 -0.12 0  -0.09999999999999998 -0.12 0  0 -0.12 0  0.09999999999999998 -0.12 0  0.2 -0.12 0  0.3 -0.12 0  0.4 -0.12 0  0.5 -0.12 0  -0.5 -0.09999999999999998 0  -0.4 -0.09999999999999998 0  -0.3 -0.09999999999999998 0  -0.2 -0.09999999999999998 0  -0.09999999999999998 -0.09999999999999998 0  0 -0.09999999999999998 0  0.09999999999999998 -0.09999999999999998 0  0.2 -0.09999999999999998 0  0.3 -0.09999999999999998 0  0.4 -0.09999999999999998 0  0.5 -0.09999999999999998 0  -0.5 -0.07999999999999996 0  -0.4 -0.07999999999999996 0  -0.3 -0.07999999999999996 0  -0.2 -0.07999999999999996 0  -0.09999999999999998 -0.07999999999999996 0  0 -0.07999999999999996 0  0.09999999999999998 -0.07999999999999996 0  0.2 -0.07999999999999996 0  0.3 -0.07999999999999996 0  0.4 -0.07999999999999996 0  0.5 -0.07999999999999996 0  -0.5 -0.06000000000000005 0  -0.4 -0.06000000000000005 0  -0.3 -0.06000000000000005 0  -0.2 -0.06000000000000005 0  -0.09999999
[...]
<PointData  Vectors="displacement"> 
<DataArray  type="Float64"  Name="displacement"  NumberOfComponents="3" format="ascii">7.0529661049337133e-35 -9.9261673506363231e-21 0.0000000000000000e+00  -4.9370762734536024e-34 -2.9778502051908966e-20 0.0000000000000000e+00  -4.3750430369666970e-34 -2.1131879711315610e-21 0.0000000000000000e+00  4.2317796629602316e-33 -9.9261673506363246e-21 0.0000000000000000e+00  1.1117467885021012e-33 -3.5049080259865532e-20 0.0000000000000000e+00  2.8211864419734869e-33 5.7075462266158849e-20 0.0000000000000000e+00  -3.2451909277349327e-33 -5.9653939331851502e-20 0.0000000000000000e+00  1.9748305093814410e-33 2.2333876538931723e-20 0.0000000000000000e+00  2.8470058687770159e-33 -3.7843513024300974e-20 0.0000000000000000e+00  -4.5138983071575806e-33 6.9483171454454277e-20 0.0000000000000000e+00  2.2569491535787893e-33 -4.9630836753181600e-20 0.0000000000000000e+00  -2.8211864419734879e-34 -2.7717265353417275e-04 0.0000000000000000e+00  -7.8787514359296400e-18 -2.7717265353417552e-04 0.0000000000000000e+00  2.9693554787618572e-18 -2.7717265353417893e-04 0.0000000000000000e+00  2.4127620497604535e-17 -2.7717265353418213e-04 0.0000000000000000e+00  3.2375619959117415e-17 -2.7717265353417747e-04 0.0000000000000000e+00  4.0397118410253782e-17 -2.7717265353417318e-04 0.0000000000000000e+00  4.5466046426666816e-17 -2.7717265353417286e-04 0.0000000000000000e+00  3.2893340316065484e-17 -2.7717265353416977e-04 0.0000000000000000e+00  2.9071473938603950e-17 -2.7717265353416961e-04 0.0000000000000000e+00  1.8066497420888565e-17 -2.7717265353416077e-04 0.0000000000000000e+00  -4.3378942335893047e-33 -2.7717265353416896e-04 0.0000000000000000e+00  -7.1215874823891976e-34 -5.5434530706834442e-04 0.0000000000000000e+00  -1.2195567144914754e-17 -5.5434530706835179e-04 0.0000000000000000e+00  6.9554194483396052e-18 -5.5434530706835927e-04 0.0000000000000000e+00  4.4644018714462396e-17 -5.5434530706836740e-04 0.0000000000000000e+00  6.3155312090868575e-17 -5.5434530706835743e-04 0.0000000000000000e+00  7.8634978732925006e-17 -5.5434530706834702e-04 0.0000000000000000e+00  8.5947769028468470e-17 -5.5434530706834702e-04 0.0000000000000000e+00  6.3273742788045245e-17 -5.5434530706833911e-04 0.0000000000000000e+00  5.5032360442551453e-17 -5.5434530706833954e-04 0.0000000000000000e+00  3.4121075903272340e-17 -5.5434530706831959e-04 0.0000000000000000e+00  2.7405811150599592e-33 -5.5434530706833509e-04 0.0000000000000000e+00  -1.4105932209867464e-33 -8.3151796060251478e-04 0.0000000000000000e+00  -1.4871381390020998e-17 -8.3151796060252823e-04 0.0000000000000000e+00  1.1638705793794599e-17 -8.3151796060254145e-04 0.0000000000000000e+00  6.2706281563823601e-17 -8.3151796060255609e-04 0.0000000000000000e+00  9.1618307850877597e-17 -8.3151796060253799e-04 0.0000000000000000e+00  1.1464133286748327e-16 -8.3151796060252584e-04 0.0000000000000000e+00  1.2286805680772524e-16 -8.3151796060252335e-04 0.0000000000000000e+00  9.0501015128405262e-17 -8.3151796060250980e-04 0.0000000000000000e+00  7.8630234513660660e-17 -8.3151796060250774e-04 0.0000000000000000e+00  4.8763146125734683e-17 -8.3151796060247825e-04 0.0000000000000000e+00  1.1284745767893965e-33 -8.3151796060250080e-04 0.0000000000000000e+00  -1.3263020493068846e-33 -1.1086906141366849e-03 0.0000000000000000e+00  -1.6531145401837152e-17 -1.1086906141367010e-03 0.0000000000000000e+00  1.6454491808068243e-17 -1.1086906141367216e-03 0.0000000000000000e+00  7.8756231998085841e-17 -1.1086906141367437e-03 0.0000000000000000e+00  1.1799836231882243e-16 -1.1086906141367175e-03 0.0000000000000000e+00  1.4724609296664484e-16 -1.1086906141367060e-03 0.0000000000000000e+00  1.5682886660777177e-16 -1.1086906141367034e-03 0.0000000000000000e+00  1.1532600702939469e-16 -1.1086906141366819e-03 0.0000000000000000e+00  9.9968501689615098e-17 -1.1086906141366693e-03 0.0000000000000000e+00  6.1754355624856696e-17 -1.1086906141366351e-03 0.0000000000000000e+00  -5.9207460678442551e-33 -1.1086906141366650e-03 0.0000000000000000e+00  9.8741525469072082e-34 -1.3858632676708590e-03 0.0000000000000000e+00  -1.7487344754853892e-17 -1.3858632676708787e-03 0.0000000000000000e+00  2.0946442548637000e-17 -1.3858632676709039e-03 0.0000000000000000e+00  9.2561033195184221e-17 -1.3858632676709336e-03 0.0000000000000000e+00  1.4269192303874985e-16 -1.3858632676709039e-03 0.0000000000000000e+00  1.7689723920541066e-16 -1.3858632676708898e-03 0.0000000000000000e+00  1.8682684250370008e-16 -1.3858632676708889e-03 0.0000000000000000e+00  1.3936629069782265e-16 -1.3858632676708586e-03 0.0000000000000000e+00  1.2054845553476968e-16 -1.3858632676708288e-03 0.0000000000000000e+00  7.3109946243619660e-17 -1.3858632676707894e-03 0.0000000000000000e+00  -1.1901419500489940e-32 -1.3858632676708284e-03 0.0000000000000000e+00  -1.3968614234821859e-33 -1.6630359212050354e-03 0.0000000000000000e+00  -1.7079021271397115e-17 -1.6630359212050543e-03 0.0000000000000000e+00  2.5037031788110648e-17 -1.6630359212050838e-03 0.0000000000000000e+00  1.0468544831808797e-16 -1.6630359212051230e-03 0.0000000000000000e+00  1.6449484974082478e-16 -1.6630359212050881e-03 0.0000000000000000e+00  2.0489342496549388e-16 -1.6630359212050714e-03 0.0000000000000000e+00  2.1350570022977504e-16 -1.6630359212050719e-03 0.0000000000000000e+00  1.6299100988584811e-16 -1.6630359212050367e-03 0.0000000000000000e+00  1.4110541526051239e-16 -1.6630359212049892e-03 0.0000000000000000e+00  8.1128716420548174e-17 -1.6630359212049437e-03 0.0000000000000000e+00  -2.3375544804923184e-33 -1.6630359212049862e-03 0.0000000000000000e+00  1.4105932209867439e-34 -1.9402085747392067e-03 0.0000000000000000e+00  -1.6296105663204934e-17 -1.9402085747392273e-03 0.0000000000000000e+00  2.7744584194446511e-17 -1.9402085747392674e-03 0.0000000000000000e+00  1.1576672217630982e-16 -1.9402085747393170e-03 0.0000000000000000e+00  1.8433534673210981e-16 -1.9402085747392717e-03 0.0000000000000000e+00  2.3049098914563528e-16 -1.9402085747392518e-03 0.0000000000000000e+00  2.3750320110502194e-16 -1.9402085747392498e-03 0.0000000000000000e+00  1.8507149235730721e-16 -1.9402085747392136e-03 0.0000000000000000e+00  1.6018748283324458e-16 -1.9402085747391468e-03 0.0000000000000000e+00  8.7057519483917588e-17 -1.9402085747390926e-03 0.0000000000000000e+00  1.1284745767893950e-33 -1.9402085747391459e-03 0.0000000000000000e+00  2.6639687158842765e-33 -2.2173812282733707e-03 0.0000000000000000e+00  -1.7374264497755362e-17 -2.2173812282734011e-03 0.0000000000000000e+00  2.8737953730881061e-17 -2.2173812282734566e-03 0.0000000000000000e+00  1.2567005234348149e-16 -2.2173812282735125e-03 0.0000000000000000e+00  2.0213441790136670e-16 -2.2173812282734549e-03 0.0000000000000000e+00  2.5368747933782009e-16 -2.2173812282734345e-03 0.0000000000000000e+00  2.6047096720663140e-16 -2.2173812282734349e-03 0.0000000000000000e+00  2.0453693775482419e-16 -2.2173812282733863e-03 0.0000000000000000e+00  1.7869440073610664e-16 -2.2173812282733031e-03 0.0000000000000000e+00  9.0890778043874079e-17 -2.2173812282732424e-03 0.0000000000000000e+00  2.2011377742433275e-33 -2.2173812282732996e-03 0.0000000000000000e+00  -2.5390677977761499e-33 -2.4945538818075385e-03 0.0000000000000000e+00  -2.0994864329894523e-17 -2.4945538818075671e-03 0.0000000000000000e+00  2.7299392968310829e-17 -2.4945538818076408e-03 0.0000000000000000e+00  1.3512550321779004e-16 -2.4945538818077076e-03 0.0000000000000000e+00  2.1945119702305532e-16 -2.4945538818076417e-03 0.0000000000000000e+00  2.7286348215731170e-16 -2.4945538818076148e-03 0.0000000000000000e+00  2.8166687115918172e-16 -2.4945538818076330e-03 0.0000000000000000e+00  2.2380976466321682e-16 -2.4945538818075654e-03 0.0000000000000000e+00  1.9600598274521427e-16 -2.4945538818074622e-03 0.0000000000000000e+00  9.4029590160791654e-17 -2.4945538818073967e-03 0.0000000000000000e+00  7.8135931069651852e-34 -2.4945538818074544e-03 0.0000000000000000e+00  -3.9030554469980184e-33 -2.7717265353417119e-03 0.0000000000000000e+00  -2.6478597961462735e-17 -2.7717265353417462e-03 0.0000000000000000e+00  2.3748725652603130e-17 -2.7717265353418403e-03 0.0000000000000000e+00  1.4318029682519634e-16 -2.7717265353419045e-03 0.0000000000000000e+00  2.3707148751950814e-16 -2.7717265353418307e-03 0.0000000000000000e+00  2.8720099017055930e-16 -2.7717265353417986e-03 0.0000000000000000e+00  2.9831479097015740e-16 -2.7717265353418333e-03 0.0000000000000000e+00  2.4577428597941387e-16 -2.7717265353417462e-03 0.0000000000000000e+00  2.1361532543120361e-16 -2.7717265353416187e-03 0.0000000000000000e+00  9.5954216330824572e-17 -2.7717265353415553e-03 0.0000000000000000e+00  -2.6599757881464311e-33 -2.7717265353416108e-03 0.0000000000000000e+00  5.6423728839469758e-34 -3.0488991888758905e-03 0.0000000000000000e+00  -3.3838280143390286e-17 -3.0488991888759352e-03 0.0000000000000000e+00  1.8559928451194025e-17 -3.0488991888760553e-03 0.0000000000000000e+00  1.5213199550121816e-16 -3.0488991888761004e-03 0.0000000000000000e+00  2.5376669197644562e-16 -3.0488991888760254e-03 0.0000000000000000e+00  3.0063902738296570e-16 -3.0488991888759829e-03 0.0000000000000000e+00  3.1087048617736960e-16 -3.0488991888760275e-03 0.0000000000000000e+00  2.6715322598637104e-16 -3.0488991888759317e-03 0.0000000000000000e+00  2.3163322891418492e-16 -3.0488991888757795e-03 0.0000000000000000e+00  9.6537923817379091e-17 -3.0488991888757101e-03 0.0000000000000000e+00  5.6423728839469746e-33 -3.0488991888757634e-03 0.0000000000000000e+00  9.0414809223838314e-33 -3.3260718424100665e-03 0.0000000000000000e+00  -4.4823127941309884e-17 -3.3260718424101211e-03 0.0000000000000000e+00  1.3570700372916083e-17 -3.3260718424102708e-03 0.0000000000000000e+00  1.6290071249003350e-16 -3.3260718424102955e-03 0.0000000000000000e+00  2.7031637728110015e-16 -3.3260718424102131e-03 0.0000000000000000e+00  3.1046471645527093e-16 -3.3260718424101684e-03 0.0000000000000000e+00  3.1926324641197389e-16 -3.3260718424102222e-03 0.0000000000000000e+00  2.8929371945881369e-16 -3.3260718424101133e-03 0.0000000000000000e+00  2.4839807467971508e-16 -3.3260718424099529e-03 0.0000000000000000e+00  9.8599570805790396e-17 -3.3260718424098687e-03 0.0000000000000000e+00  -4.9700435979651189e-33 -3.3260718424099117e-03 0.0000000000000000e+00  -4.5138983071575806e-33 -3.6032444959442429e-03 0.0000000000000000e+00  -6.0827297565109634e-17 -3.6032444959443206e-03 0.0000000000000000e+00  6.3529504196739536e-18 -3.6032444959444793e-03 0.0000000000000000e+00  1.7763766309531957e-16 -3.6032444959444823e-03 0.0000000000000000e+00  2.8611868802761620e-16 -3.6032444959444034e-03 0.0000000000000000e+00  3.1645010624491079e-16 -3.6032444959443670e-03 0.0000000000000000e+00  3.2566978396456165e-16 -3.6032444959444043e-03 0.0000000000000000e+00  3.1003521273965504e-16 -3.6032444959442785e-03 0.0000000000000000e+00  2.6440666545011417e-16 -3.6032444959441263e-03 0.0000000000000000e+00  1.0264018942631284e-16 -3.6032444959440226e-03 0.0000000000000000e+00  6.3860340713055491e-33 -3.6032444959440656e-03 0.0000000000000000e+00  -2.2206340558070170e-33 -3.8804171494784194e-03 0.0000000000000000e+00  -7.7694752701588270e-17 -3.8804171494785157e-03 0.0000000000000000e+00  4.5924963249367013e-19 -3.8804171494786735e-03 0.0000000000000000e+00  1.9463463296600082e-16 -3.8804171494786679e-03 0.0000000000000000e+00  2.9628783790524112e-16 -3.8804171494785920e-03 0.0000000000000000e+00  3.2021016865036159e-16 -3.8804171494785664e-03 0.0000000000000000e+00  3.3401218908044883e-16 -3.8804171494785755e-03 0.0000000000000000e+00  3.2575607993257281e-16 -3.8804171494784558e-03 0.0000000000000000e+00  2.8067883152238279e-16 -3.8804171494783001e-03 0.0000000000000000e+00  1.0941611978308222e-16 -3.8804171494781761e-03 0.0000000000000000e+00  -1.9828910420727943e-32 -3.8804171494782103e-03 0.0000000000000000e+00  -2.3697966112577297e-32 -4.1575898030126032e-03 0.0000000000000000e+00  -9.4285873818185208e-17 -4.1575898030127081e-03 0.0000000000000000e+00  -3.9913824626223839e-18 -4.1575898030128530e-03 0.0000000000000000e+00  2.0984708756027149e-16 -4.1575898030128417e-03 0.0000000000000000e+00  3.0088975061877040e-16 -4.1575898030127810e-03 0.0000000000000000e+00  3.2250620763850616e-16 -4.1575898030127663e-03 0.0000000000000000e+00  3.4379107611387423e-16 -4.1575898030127342e-03 0.0000000000000000e+00  3.3862889229108305e-16 -4.1575898030126275e-03 0.0000000000000000e+00  2.9602753264449260e-16 -4.1575898030124757e-03 0.0000000000000000e+00  1.1680194212420864e-16 -4.1575898030123352e-03 0.0000000000000000e+00  2.4826440689366690e-32 -4.1575898030123768e-03 0.0000000000000000e+00  7.0451289677239946e-33 -4.4347624565467926e-03 0.0000000000000000e+00  -1.0783797687378435e-16 -4.4347624565469115e-03 0.0000000000000000e+00  -6.8352424672408311e-18 -4.4347624565470329e-03 0.0000000000000000e+00  2.1868771348610863e-16 -4.4347624565470147e-03 0.0000000000000000e+00  3.0009231679955427e-16 -4.4347624565469887e-03 0.0000000000000000e+00  3.2806753335789001e-16 -4.4347624565469626e-03 0.0000000000000000e+00  3.5526310361886165e-16 -4.4347624565468950e-03 0.0000000000000000e+00  3.5049443115176472e-16 -4.4347624565467831e-03 0.0000000000000000e+00  3.0684376334919258e-16 -4.4347624565466382e-03 0.0000000000000000e+00  1.2382555191639490e-16 -4.4347624565465107e-03 0.0000000000000000e+00  -1.2370079902317849e-32 -4.4347624565465472e-03 0.0000000000000000e+00  -6.7708474607363993e-33 -4.7119351100809830e-03 0.0000000000000000e+00  -1.1777747118009960e-16 -4.7119351100811330e-03 0.0000000000000000e+00  -5.4964662662361995e-18 -4.7119351100812197e-03 0.0000000000000000e+00  2.2087261839695938e-16 -4.7119351100812076e-03 0.0000000000000000e+00  2.9591290383011492e-16 -4.7119351100811998e-03 0.0000000000000000e+00  3.3820314066620115e-16 -4.7119351100811504e-03 0.0000000000000000e+00  3.6783499776110713e-16 -4.7119351100810419e-03 0.0000000000000000e+00  3.5491972307672034e-16 -4.7119351100809326e-03 0.0000000000000000e+00  3.1505312238299151e-16 -4.7119351100808086e-03 0.0000000000000000e+00  1.2782368346670030e-16 -4.7119351100806768e-03 0.0000000000000000e+00  1.5194677881934612e-32 -4.7119351100807366e-03 0.0000000000000000e+00  -2.2724907202383343e-32 -4.9891077636151811e-03 0.0000000000000000e+00  -1.2779246332094913e-16 -4.9891077636153346e-03 0.0000000000000000e+00  1.3304608208742069e-19 -4.9891077636154187e-03 0.0000000000000000e+00  2.2105694581686719e-16 -4.9891077636154083e-03 0.0000000000000000e+00  2.9047285871734317e-16 -4.9891077636153953e-03 0.0000000000000000e+00  3.5137263415728356e-16 -4.9891077636153303e-03 0.0000000000000000e+00  3.8460858073628521e-16 -4.9891077636151854e-03 0.0000000000000000e+00  3.5003722511267628e-16 -4.9891077636150570e-03 0.0000000000000000e+00  3.2210458745912410e-16 -4.9891077636149564e-03 0.0000000000000000e+00  1.2717467120196784e-16 -4.9891077636148359e-03 0.0000000000000000e+00  -2.1521622285912062e-32 -4.9891077636149200e-03 0.0000000000000000e+00  3.8368135610839437e-32 -5.2662804171493827e-03 0.0000000000000000e+00  -1.3781874610503312e-16 -5.2662804171495275e-03 0.0000000000000000e+00  6.7853501864580392e-18 -5.2662804171496281e-03 0.0000000000000000e+00  2.1988909973073064e-16 -5.2662804171495995e-03 0.0000000000000000e+00  2.8418643133871317e-16 -5.2662804171495891e-03 0.0000000000000000e+00  3.7111862206711248e-16 -5.2662804171494946e-03 0.0000000000000000e+00  4.0153976850231548e-16 -5.2662804171493384e-03 0.0000000000000000e+00  3.4464932400615710e-16 -5.2662804171491866e-03 0.0000000000000000e+00  3.2356807163658696e-16 -5.2662804171491008e-03 0.0000000000000000e+00  1.1934991664377052e-16 -5.2662804171490028e-03 0.0000000000000000e+00  1.6927118651840924e-32 -5.2662804171491016e-03 0.0000000000000000e+00  -3.0150639319508173e-32 -5.5434530706835903e-03 0.0000000000000000e+00  -1.4620540785903542e-16 -5.5434530706837144e-03 0.0000000000000000e+00  1.2173716510998201e-17 -5.5434530706838367e-03 0.0000000000000000e+00  2.1668411928425247e-16 -5.5434530706838106e-03 0.0000000000000000e+00  2.8098812825603251e-16 -5.5434530706837733e-03 0.0000000000000000e+00  3.9264510127992936e-16 -5.5434530706836580e-03 0.0000000000000000e+00  4.1899696743477955e-16 -5.5434530706835019e-03 0.0000000000000000e+00  3.3886060272247765e-16 -5.5434530706833293e-03 0.0000000000000000e+00  3.1657899463693110e-16 -5.5434530706832390e-03 0.0000000000000000e+00  1.0833403249179835e-16 -5.5434530706831662e-03 0.0000000000000000e+00  -1.3988525436344622e-32 -5.5434530706832703e-03 0.0000000000000000e+00  9.0277966143151763e-33 -5.8206257242178032e-03 0.0000000000000000e+00  -1.5319068525110644e-16 -5.8206257242178951e-03 0.0000000000000000e+00  1.2971993003522700e-17 -5.8206257242180417e-03 0.0000000000000000e+00  2.1749138073640050e-16 -5.8206257242180209e-03 0.0000000000000000e+00  2.7718072357879728e-16 -5.8206257242179593e-03 0.0000000000000000e+00  4.1239702314872953e-16 -5.8206257242178240e-03 0.0000000000000000e+00  4.3993142233725767e-16 -5.8206257242176731e-03 0.0000000000000000e+00  3.2979063949437133e-16 -5.8206257242174875e-03 0.0000000000000000e+00  3.0805715920916728e-16 -5.8206257242174033e-03 0.0000000000000000e+00  9.5804658272747162e-17 -5.8206257242173504e-03 0.0000000000000000e+00  -2.5341660941897651e-32 -5.8206257242174398e-03 0.0000000000000000e+00  -1.3519373226455012e-32 -6.0977983777520126e-03 0.0000000000000000e+00  -1.5875033952005718e-16 -6.0977983777520881e-03 0.0000000000000000e+00  1.0578891354313589e-17 -6.0977983777522407e-03 0.0000000000000000e+00  2.2311423984348306e-16 -6.0977983777522260e-03 0.0000000000000000e+00  2.7667426546697872e-16 -6.0977983777521271e-03 0.0000000000000000e+00  4.3253887230441119e-16 -6.0977983777519900e-03 0.0000000000000000e+00  4.5574935419043138e-16 -6.0977983777518452e-03 0.0000000000000000e+00  3.1995559550552251e-16 -6.0977983777516891e-03 0.0000000000000000e+00  2.9807322183216810e-16 -6.0977983777515685e-03 0.0000000000000000e+00  7.8132134280288950e-17 -6.0977983777515165e-03 0.0000000000000000e+00  1.1405653758264243e-32 -6.0977983777516171e-03 0.0000000000000000e+00  2.2569491535787903e-33 -6.3749710312862350e-03 0.0000000000000000e+00  -1.6529412165107660e-16 -6.3749710312862775e-03 0.0000000000000000e+00  6.2531658581083829e-18 -6.3749710312864492e-03 0.0000000000000000e+00  2.3000277521968591e-16 -6.3749710312864388e-03 0.0000000000000000e+00  2.8193877773229417e-16 -6.3749710312862931e-03 0.0000000000000000e+00  4.5007570382965079e-16 -6.3749710312861621e-03 0.0000000000000000e+00  4.6452974596912768e-16 -6.3749710312860502e-03 0.0000000000000000e+00  3.1062044921596690e-16 -6.3749710312858985e-03 0.0000000000000000e+00  2.8684735298046096e-16 -6.3749710312857415e-03 0.0000000000000000e+00  6.1250180073740081e-17 -6.3749710312856764e-03 0.0000000000000000e+00  -1.6927118651840926e-33 -6.3749710312857840e-03 0.0000000000000000e+00  4.3304088334394730e-33 -6.6521436848204453e-03 0.0000000000000000e+00  -1.7193091268581024e-16 -6.6521436848204869e-03 0.0000000000000000e+00  -2.9561176363796822e-18 -6.6521436848206656e-03 0.0000000000000000e+00  2.3932633209054964e-16 -6.6521436848206708e-03 0.0000000000000000e+00  2.9017350503264652e-16 -6.6521436848204479e-03 0.0000000000000000e+00  4.6666990428686705e-16 -6.6521436848203446e-03 0.0000000000000000e+00  4.6768923933269344e-16 -6.6521436848202440e-03 0.0000000000000000e+00  2.9974725598782488e-16 -6.6521436848201122e-03 0.0000000000000000e+00  2.7995909996488857e-16 -6.6521436848199188e-03 0.0000000000000000e+00  4.5466082903251513e-17 -6.6521436848198294e-03 0.0000000000000000e+00  5.5647161078465376e-33 -6.6521436848199587e-03 0.0000000000000000e+00  -3.1597288150103066e-32 -6.9293163383546555e-03 0.0000000000000000e+00  -1.7824243369414965e-16 -6.9293163383546954e-03 0.0000000000000000e+00  -1.3317228965700903e-17 -6.9293163383548646e-03 0.0000000000000000e+00  2.4947437098705377e-16 -6.9293163383548698e-03 0.0000000000000000e+00  3.0160091