<?xml version="1.0"?>
<VTKFile type="UnstructuredGrid"  version="0.1"  >
<UnstructuredGrid>
<Piece  NumberOfPoints="431" NumberOfCells="800">
<Points>
<DataArray  type="Float64"  NumberOfComponents="3"  format="ascii">-0.25 -1 0  -0.2 -1 0  -0.15 -1 0  -0.1 -1 0  -0.04999999999999999 -1 0  0 -1 0  0.04999999999999999 -1 0  0.09999999999999998 -1 0  0.15 -1 0  0.2 -1 0  0.25 -1 0  -0.25 -0.95 0  -0.2 -0.95 0  -0.15 -0.95 0  -0.1 -0.95 0  -0.04999999999999999 -0.95 0  0 -0.95 0  0.04999999999999999 -0.95 0  0.09999999999999998 -0.95 0  0.15 -0.95 0  0.2 -0.95 0  0.25 -0.95 0  -0.25 -0.9 0  -0.2 -0.9 0  -0.15 -0.9 0  -0.1 -0.9 0  -0.04999999999999999 -0.9 0  0 -0.9 0  0.04999999999999999 -0.9 0  0.09999999999999998 -0.9 0  0.15 -0.9 0  0.2 -0.9 0  0.25 -0.9 0  -0.25 -0.85 0  -0.2 -0.85 0  -0.15 -0.85 0  -0.1 -0.85 0  -0.04999999999999999 -0.85 0  0 -0.85 0  0.04999999999999999 -0.85 0  0.09999999999999998 -0.85 0  0.15 -0.85 0  0.2 -0.85 0  0.25 -0.85 0  -0.25 -0.8 0  -0.2 -0.8 0  -0.15 -0.8 0  -0.1 -0.8 0  -0.04999999999999999 -0.8 0  0 -0.8 0  0.04999999999999999 -0.8 0  0.09999999999999998 -0.8 0  0.15 -0.8 0  0.2 -0.8 0  0.25 -0.8 0  -0.25 -0.75 0  -0.2 -0.75 0  -0.15 -0.75 0  -0.1 -0.75 0  -0.04999999999999999 -0.75 0  0 -0.75 0  0.04999999999999999 -0.75 0  0.09999999999999998 -0.75 0  0.15 -0.75 0  0.2 -0.75 0  0.25 -0.75 0  -0.25 -0.7 0  -0.2 -0.7 0  -0.15 -0.7 0  -0.1 -0.7 0  -0.04999999999999999 -0.7 0  0 -0.7 0  0.04999999999999999 -0.7 0  0.09999999999999998 -0.7 0  0.15 -0.7 0  0.2 -0.7 0  0.25 -0.7 0  -0.25 -0.65 0  -0.2 -0.65 0  -0.15 -0.65 0  -0.1 -0.65 0  -0.04999999999999999 -0.65 0  0 -0.65 0  0.04999999999999999 -0.65 0  0.09999999999999998 -0.65 0  0.15 -0.65 0  0.2 -0.65 0  0.25 -0.65 0  -0.25 -0.6 0  -0.2 -0.6 0  -0.15 -0.6 0  -0.1 -0.6 0  -0.04999999999999999 -0.6 0  0 -0.6 0  0.04999999999999999 -0.6 0  0.09999999999999998 -0.6 0  0.15 -0.6 0  0.2 -0.6 0  0.25 -0.6 0  -0.25 -0.55 0  -0.2 -0.55 0  -0.15 -0.55 0  -0.1 -0.55 0  -0.04999999999999999 -0.55 0  0 -0.55 0  0.04999999999999999 -0.55 0  0.09999999999999998 -0.55 0  0.15 -0.55 0  0.2 -0.55 0  0.25 -0.55 0  -0.25 -0.5 0  -0.2 -0.5 0  -0.15 -0.5 0  -0.1 -0.5 0  -0.04999999999999999 -0.5 0  0 -0.5 0  0.04999999999999999 -0.5 0  0.09999999999999998 -0.5 0  0.15 -0.5 0  0.2 -0.5 0  0.25 -0.5 0  -0.25 -0.45 0  -0.2 -0.45 0  -0.15 -0.45 0  -0.1 -0.45 0  -0.04999999999999999 -0.45 0  0 -0.45 0  0.04999999999999999 -0.45 0  0.09999999999999998 -0.45 0  0.15 -0.45 0  0.2 -0.45 0  0.25 -0.45 0  -0.25 -0.4 0  -0.2 -0.4 0  -0.15 -0.4 0  -0.1 -0.4 0  -0.04999999999999999 -0.4 0  0 -0.4 0  0.04999999999999999 -0.4 0  0.09999999999999998 -0.4 0  0.15 -0.4 0  0.2 -0.4 0  0.25 -0.4 0  -0.25 -0.35 0  -0.2 -0.35 0  -0.15 -0.35 0  -0.1 -0.35 0  -0.04999999999999999 -0.35 0  0 -0.35 0  0.04999999999999999 -0.35 0  0.09999999999999998 -0.35 0  0.15 -0.35 0  0.2 -0.35 0  0.25 -0.35 0  -0.25 -0.3 0  -0.2 -0.3 0  -0.15 -0.3 0  -0.1 -0.3 0  -0.04999999999999999 -0.3 0  0 -0.3 0  0.04999999999999999 -0.3 0  0.09999999999999998 -0.3 0  0.15 -0.3 0  0.2 -0.3 0  0.25 -0.3 0  -0.25 -0.25 0  -0.2 -0.25 0  -0.15 -0.25 0  -0.1 -0.25 0  -0.04999999999999999 -0.25 0  0 -0.25 0  0.04999999999999999 -0.25 0  0.09999999999999998 -0.25 0  0.15 -0.25 0  0.2 -0.25 0  0.25 -0.25 0  -0.25 -0.2 0  -0.2 -0.2 0  -0.15 -0.2 0  -0.1 -0.2 0  -0.04999999999999999 -0.2 0  0 -0.2 0  0.04999999999999999 -0.2 0  0.09999999999999998 -0.2 0  0.15 -0.2 0  0.2 -0.2 0  0.25 -0.2 0  -0.25 -0.15 0  -0.2 -0.15 0  -0.15 -0.15 0  -0.1 -0.15 0  -0.04999999999999999 -0.15 0  0 -0.15 0  0.04999999999999999 -0.15 0  0.09999999999999998 -0.15 0  0.15 -0.15 0  0.2 -0.15 0  0.25 -0.15 0  -0.25 -0.09999999999999998 0  -0.2 -0.09999999999999998 0  -0.15 -0.09999999999999998 0  -0.1 -0.09999999999999998 0  -0.04999999999999999 -0.09999999999999998 0  0 -0.09999999999999998 0  0.04999999999999999 -0.09999999999999998 0  0.09999999999999998 -0.09999999999999998 0  0.15 -0.09999999999999998 0  0.2 -0.09999999999999998 0  0.25 -0.09999999999999998 0  -0.25 -0.05000000000000004 0  -0.2 -0.05000000000000004 0  -0.15 -0.05000000000000004 0  -0.1 -0.05000000000000004 0  -0.04999999999999999 -0.05000000000000004 0  0 -0.05000000000000004 0  0.04999999999999999 -0.05000000000000004 0  0.09999999999999998 -0.05000000000000004 0  0.15 -0.05000000000000004 0  0.2 -0.05000000000000004 0  0.25 -0.05000000000000004 0  -0.25 0 0  -0.2 0 0  -0.15 0 0  -0.1 0 0  -0.04999999999999999 0 0  0 0 0  0.04999999999999999 0 0  0.09999999999999998 0 0  0.15 0 0  0.2 0 0  0.25 0 0  -0.225 -0.975 0  -0.175 -0.975 0  -0.125 -0.975 0  -0.07500000000000001 -0.975 0  -0.02499999999999999 -0.975 0  0.02500000000000002 -0.975 0  0.07500000000000001 -0.975 0  0.125 -0.975 0  0.175 -0.975 0  0.225 -0.975 0  -0.225 -0.925 0  -0.175 -0.925 0  -0.125 -0.925 0  -0.07500000000000001 -0.925 0  -0.02499999999999999 -0.925 0  0.02500000000000002 -0.925 0  0.07500000000000001 -0.925 0  0.125 -0.925 0  0.175 -0.925 0  0.225 -0.925 0  -0.225 -0.875 0  -0.175 -0.875 0  -0.125 -0.875 0  -0.07500000000000001 -0.875 0  -0.02499999999999999 -0.875 0  0.02500000000000002 -0.875 0  0.07500000000000001 -0.875 0  0.125 -0.875 0  0.175 -0.875 0  0.225 -0.875 0  -0.225 -0.825 0  -0.175 -0.825 0  -0.125 -0.825 0  -0.07500000000000001 -0.825 0  -0.02499999999999999 -0.825 0  0.02500000000000002 -0.825 0  0.07500000000000001 -0.825 0  0.125 -0.825 0  0.175 -0.825 0  0.225 -0.825 0  -0.225 -0.775 0  -0.175 -0.775 0  -0.125 -0.775 0  -0.07500000000000001 -0.775 0  -0.02499999999999999 -0.775 0  0.02500000000000002 -0.775 0  0.07500000000000001 -0.775 0  0.125 -0.775 0  0.175 -0.775 0  0.225 -0.775 0  -0.225 -0.725 0  -0.175 -0.725 0  -0.125 -0.725 0  -0.07500000000000001 -0.725 0  -0.02499999999999999 -0.725 0  0.02500000000000002 -0.725 0  0.07500000000000001 -0.725 0  0.125 -0.725 0  0.175 -0.725 0  0.225 -0.725 0  -0.225 -0.675 0  -0.175 -0.675 0  -0.125 -0.675 0  -0.07500000000000001 -0.675 0  -0.02499999999999999 -0.675 0  0.02500000000000002 -0.675 0  0.07500000000000001 -0.675 0  0.125 -0.675 0  0.175 -0.675 0  0.225 -0.675 0  -0.225 -0.625 0  -0.175 -0.625 0  -0.125 -0.625 0  -0.07500000000000001 -0.625 0  -0.02499999999999999 -0.625 0  0.02500000000000002 -0.625 0  0.07500000000000001 -0.625 0  0.125 -0.625 0  0.175 -0.625 0  0.225 -0.625 0  -0.225 -0.575 0  -0.175 -0.575 0  -0.125 -0.575 0  -0.07500000000000001 -0.575 0  -0.02499999999999999 -0.575 0  0.02500000000000002 -0.575 0  0.07500000000000001 -0.575 0  0.125 -0.575 0  0.175 -0.575 0  0.225 -0.575 0  -0.225 -0.525 0  -0.175 -0.525 0  -0.125 -0.525 0  -0.07500000000000001 -0.525 0  -0.02499999999999999 -0.525 0  0.02500000000000002 -0.525 0  0.07500000000000001 -0.525 0  0.125 -0.525 0  0.175 -0.525 0  0.225 -0.525 0  -0.225 -0.475 0  -0.175 -0.475 0  -0.125 -0.475 0  -0.07500000000000001 -0.475 0  -0.02499999999999999 -0.475 0  0.02500000000000002 -0.475 0  0.07500000000000001 -0.475 0  0.125 -0.475 0  0.175 -0.475 0  0.225 -0.475 0  -0.225 -0.425 0  -0.175 -0.425 0  -0.125 -0.425 0  -0.07500000000000001 -0.425 0  -0.02499999999999999 -0.425 0  0.02500000000000002 -0.425 0  0.07500000000000001 -0.425 0  0.125 -0.425 0  0.175 -0.425 0  0.225 -0.425 0  -0.225 -0.375 0  -0.175 -0.375 0  -0.125 -0.375 0  -0.07500000000000001 -0.375 0  -0.02499999999999999 -0.375 0  0.02500000000000002 -0.375 0  0.07500000000000001 -0.375 0  0.125 -0.375 0  0.175 -0.375 0  0.225 -0.375 0  -0.225 -0.325 0  -0.175 -0.325 0  -0.125 -0.325 0  -0.07500000000000001 -0.325 0  -0.02499999999999999 -0.325 0  0.02500000000000002 -0.325 0  0.07500000000000001 -0.325 0  0.125 -0.325 0  0.175 -0.325 0  0.225 -0.325 0  -0.225 -0.275 0  -0.175 -0.275 0  -0.125 -0.275 0  -0.07500000000000001 -0.275 0  -0.02499999999999999 -0.275 0  0.02500000000000002 -0.275 0  0.07500000000000001 -0.275 0  0.125 -0.275 0  0.175 -0.275 0  0.225 -0.275 0  -0.225 -0.225 0  -0.175 -0.225 0  -0.125 -0.225 0  -0.07500000000000001 -0.225 0  -0.02499999999999999 -0.225 0  0.02500000000000002 -0.225 0  0.07500000000000001 -0.225 0  0.125 -0.225 0  0.175 -0.225 0  0.225 -0.225 0  -0.225 -0.175 0  -0.175 -0.175 0  -0.125 -0.175 0  -0.07500000000000001 -0.175 0  -0.02499999999999999 -0.175 0  0.02500000000000002 -0.175 0  0.07500000000000001 -0.175 0  0.125 -0.175 0  0.175 -0.175 0  0.225 -0.175 0  -0.225 -0.125 0  -0.175 -0.125 0  -0.125 -0.125 0  -0.07500000000000001 -0.125 0  -0.02499999999999999 -0.125 0  0.02500000000000002 -0.125 0  0.07500000000000001 -0.125 0  0.125 -0.125 0  0.175 -0.125 0  0.225 -0.125 0  -0.225 -0.07499999999999996 0  -0.175 -0.07499999999999996 0  -0.125 -0.07499999999999996 0  -0.07500000000000001 -0.07499999999999996 0  -0.02499999999999999 -0.07499999999999996 0  0.02500000000000002 -0.07499999999999996 0  0.07500000000000001 -0.07499999999999996 0  0.125 -0.07499999999999996 0  0.175 -0.07499999999999996 0  0.225 -0.07499999999999996 0  -0.225 -0.02500000000000002 0  -0.175 -0.02500000000000002 0  -0.125 -0.02500000000000002 0  -0.07500000000000001 -0.02500000000000002 0  -0.02499999999999999 -0.02500000000000002 0  0.02500000000000002 -0.02500000000000002 0  0.07500000000000001 -0.02500000000000002 0  0.125 -0.02500000000000002 0  0.175 -0.02500000000000002 0  0.225 -0.02500000000000002 0  </DataArray>
</Points>
<Cells>
[...]
<PointData  Vectors="displacement"> 
<DataArray  type="Float64"  Name="displacement"  NumberOfComponents="3" format="ascii">7.0529661049337208e-34 -1.2705494208814493e-19 0.0000000000000000e+00  -1.6927118651840920e-33 -2.5410988417628981e-19 0.0000000000000000e+00  -1.5833908905576199e-33 -9.2313356360917804e-20 0.0000000000000000e+00  -1.3541694921472742e-33 2.2234614865425365e-19 0.0000000000000000e+00  -2.2306720831791416e-33 -2.5464904391060592e-19 0.0000000000000000e+00  -5.4166779685890947e-33 -2.2234614865425360e-19 0.0000000000000000e+00  5.0977516575316249e-33 -1.0459698845733027e-19 0.0000000000000000e+00  -3.1597288150103054e-33 -9.5291206566108680e-20 0.0000000000000000e+00  -1.3484606183774628e-33 -5.9557004103817920e-20 0.0000000000000000e+00  2.2569491535787903e-33 -2.5410988417628991e-19 0.0000000000000000e+00  0.0000000000000000e+00 3.8116482626443467e-19 0.0000000000000000e+00  -1.4670169498262158e-33 -3.6788087595504824e-03 0.0000000000000000e+00  -5.8379929909385154e-18 -3.6788087595504794e-03 0.0000000000000000e+00  -1.3125555537456612e-17 -3.6788087595504763e-03 0.0000000000000000e+00  -2.2954214949960314e-17 -3.6788087595504802e-03 0.0000000000000000e+00  -2.9965006619579130e-17 -3.6788087595504859e-03 0.0000000000000000e+00  -3.6437617455055048e-17 -3.6788087595504932e-03 0.0000000000000000e+00  -3.7880240129758922e-17 -3.6788087595505049e-03 0.0000000000000000e+00  -3.2414610294466770e-17 -3.6788087595505149e-03 0.0000000000000000e+00  -2.3496647611091179e-17 -3.6788087595505253e-03 0.0000000000000000e+00  -1.2202151850046121e-17 -3.6788087595505288e-03 0.0000000000000000e+00  -9.5914176541546730e-34 -3.6788087595505323e-03 0.0000000000000000e+00  6.6881489999982135e-34 -7.3578362463241672e-03 0.0000000000000000e+00  -9.9573179939326064e-18 -7.3578362463241637e-03 0.0000000000000000e+00  -2.3164439180704418e-17 -7.3578362463241585e-03 0.0000000000000000e+00  -3.6394547870344655e-17 -7.3578362463241568e-03 0.0000000000000000e+00  -5.1564754616666504e-17 -7.3578362463241741e-03 0.0000000000000000e+00  -5.8495851946468120e-17 -7.3578362463241924e-03 0.0000000000000000e+00  -5.8378626225639963e-17 -7.3578362463242218e-03 0.0000000000000000e+00  -5.0595613630338502e-17 -7.3578362463242444e-03 0.0000000000000000e+00  -3.5749900056318710e-17 -7.3578362463242609e-03 0.0000000000000000e+00  -1.9562098841560126e-17 -7.3578362463242765e-03 0.0000000000000000e+00  4.8363196148116949e-34 -7.3578362463242748e-03 0.0000000000000000e+00  -2.7083389842945494e-33 -1.1037299839018227e-02 0.0000000000000000e+00  -1.6145663110620938e-17 -1.1037299839018225e-02 0.0000000000000000e+00  -2.9988530471601709e-17 -1.1037299839018213e-02 0.0000000000000000e+00  -4.6262721297875909e-17 -1.1037299839018222e-02 0.0000000000000000e+00  -6.1051722599303881e-17 -1.1037299839018237e-02 0.0000000000000000e+00  -7.1992986007354464e-17 -1.1037299839018274e-02 0.0000000000000000e+00  -7.1479735196902089e-17 -1.1037299839018315e-02 0.0000000000000000e+00  -6.1127533774371655e-17 -1.1037299839018362e-02 0.0000000000000000e+00  -4.4623655931917366e-17 -1.1037299839018379e-02 0.0000000000000000e+00  -2.3193799759147972e-17 -1.1037299839018397e-02 0.0000000000000000e+00  -4.5138983071575815e-34 -1.1037299839018406e-02 0.0000000000000000e+00  -1.5983814668061965e-33 -1.4717414227591784e-02 0.0000000000000000e+00  -1.5728036376779896e-17 -1.4717414227591770e-02 0.0000000000000000e+00  -3.3367153455943834e-17 -1.4717414227591772e-02 0.0000000000000000e+00  -5.1476178798460894e-17 -1.4717414227591786e-02 0.0000000000000000e+00  -6.8973167798836854e-17 -1.4717414227591801e-02 0.0000000000000000e+00  -7.5983449017792331e-17 -1.4717414227591850e-02 0.0000000000000000e+00  -7.4459239839885304e-17 -1.4717414227591928e-02 0.0000000000000000e+00  -6.8283355045892190e-17 -1.4717414227591962e-02 0.0000000000000000e+00  -4.9377177984550894e-17 -1.4717414227591995e-02 0.0000000000000000e+00  -2.8495570502684605e-17 -1.4717414227592028e-02 0.0000000000000000e+00  5.2530078543321559e-33 -1.4717414227592025e-02 0.0000000000000000e+00  -1.3541694921472742e-33 -1.8398390089630973e-02 0.0000000000000000e+00  -1.8138220708388333e-17 -1.8398390089630973e-02 0.0000000000000000e+00  -3.7357650788388275e-17 -1.8398390089630973e-02 0.0000000000000000e+00  -5.7152169839856693e-17 -1.8398390089630959e-02 0.0000000000000000e+00  -7.2643160819400219e-17 -1.8398390089631012e-02 0.0000000000000000e+00  -7.8375016788613778e-17 -1.8398390089631060e-02 0.0000000000000000e+00  -8.0096651799307387e-17 -1.8398390089631133e-02 0.0000000000000000e+00  -7.2412772818661653e-17 -1.8398390089631213e-02 0.0000000000000000e+00  -5.4618846790940792e-17 -1.8398390089631258e-02 0.0000000000000000e+00  -2.9709829326250251e-17 -1.8398390089631275e-02 0.0000000000000000e+00  2.2913815995972892e-33 -1.8398390089631320e-02 0.0000000000000000e+00  8.9109875932937054e-34 -2.2080432791451540e-02 0.0000000000000000e+00  -1.8527068521341120e-17 -2.2080432791451551e-02 0.0000000000000000e+00  -3.7791739616759454e-17 -2.2080432791451526e-02 0.0000000000000000e+00  -5.9642369403783918e-17 -2.2080432791451540e-02 0.0000000000000000e+00  -6.8751562918360953e-17 -2.2080432791451596e-02 0.0000000000000000e+00  -8.4033054168828120e-17 -2.2080432791451648e-02 0.0000000000000000e+00  -8.5019248818945986e-17 -2.2080432791451745e-02 0.0000000000000000e+00  -7.2627836041551706e-17 -2.2080432791451814e-02 0.0000000000000000e+00  -5.6591446434017839e-17 -2.2080432791451870e-02 0.0000000000000000e+00  -3.0416711449501675e-17 -2.2080432791451932e-02 0.0000000000000000e+00  -9.3502179219692849e-34 -2.2080432791451929e-02 0.0000000000000000e+00  -2.7083389842945497e-33 -2.5763741121947226e-02 0.0000000000000000e+00  -1.4703240982291315e-17 -2.5763741121947226e-02 0.0000000000000000e+00  -3.3211568601829078e-17 -2.5763741121947209e-02 0.0000000000000000e+00  -4.9643009626587518e-17 -2.5763741121947230e-02 0.0000000000000000e+00  -7.5583479233518908e-17 -2.5763741121947254e-02 0.0000000000000000e+00  -8.7563291466332221e-17 -2.5763741121947372e-02 0.0000000000000000e+00  -8.5908297531380725e-17 -2.5763741121947448e-02 0.0000000000000000e+00  -7.3072411170423577e-17 -2.5763741121947563e-02 0.0000000000000000e+00  -5.2233891827283100e-17 -2.5763741121947625e-02 0.0000000000000000e+00  -2.6051010822547989e-17 -2.5763741121947667e-02 0.0000000000000000e+00  4.5138983071575823e-34 -2.5763741121947705e-02 0.0000000000000000e+00  -2.2660950078165089e-33 -2.9448506066990114e-02 0.0000000000000000e+00  -2.1408233686955112e-17 -2.9448506066990100e-02 0.0000000000000000e+00  -3.4874392440251168e-17 -2.9448506066990079e-02 0.0000000000000000e+00  -5.7238919127786404e-17 -2.9448506066990097e-02 0.0000000000000000e+00  -7.3611246469131507e-17 -2.9448506066990152e-02 0.0000000000000000e+00  -8.6906948126126455e-17 -2.9448506066990249e-02 0.0000000000000000e+00  -8.6308788759349321e-17 -2.9448506066990378e-02 0.0000000000000000e+00  -7.4987538887325842e-17 -2.9448506066990499e-02 0.0000000000000000e+00  -4.7922224309061284e-17 -2.9448506066990593e-02 0.0000000000000000e+00  -2.0903293040910925e-17 -2.9448506066990628e-02 0.0000000000000000e+00  3.5371254745359124e-33 -2.9448506066990631e-02 0.0000000000000000e+00  -3.6111186457260700e-33 -3.3134909631939234e-02 0.0000000000000000e+00  -1.7060553864163102e-17 -3.3134909631939248e-02 0.0000000000000000e+00  -3.6506363747535958e-17 -3.3134909631939227e-02 0.0000000000000000e+00  -5.3832162300322464e-17 -3.3134909631939234e-02 0.0000000000000000e+00  -7.2470200912687414e-17 -3.3134909631939276e-02 0.0000000000000000e+00  -7.7112839488324741e-17 -3.3134909631939415e-02 0.0000000000000000e+00  -7.7701562466115811e-17 -3.3134909631939539e-02 0.0000000000000000e+00  -7.0264962102098437e-17 -3.3134909631939671e-02 0.0000000000000000e+00  -5.3581722135343516e-17 -3.3134909631939789e-02 0.0000000000000000e+00  -3.1388339410638425e-17 -3.3134909631939782e-02 0.0000000000000000e+00  1.0359043966621417e-33 -3.3134909631939845e-02 0.0000000000000000e+00  6.7531413758911006e-34 -3.6823123719517015e-02 0.0000000000000000e+00  -1.7694252259880169e-17 -3.6823123719517015e-02 0.0000000000000000e+00  -3.5629740782848691e-17 -3.6823123719517008e-02 0.0000000000000000e+00  -5.3995353932051243e-17 -3.6823123719517008e-02 0.0000000000000000e+00  -6.4859965017321637e-17 -3.6823123719517119e-02 0.0000000000000000e+00  -7.5601527567968534e-17 -3.6823123719517202e-02 0.0000000000000000e+00  -7.3775425167813257e-17 -3.6823123719517369e-02 0.0000000000000000e+00  -6.9107345919796827e-17 -3.6823123719517535e-02 0.0000000000000000e+00  -5.5219887475112864e-17 -3.6823123719517598e-02 0.0000000000000000e+00  -3.2060406784567973e-17 -3.6823123719517646e-02 0.0000000000000000e+00  -7.3028426183656557e-33 -3.6823123719517667e-02 0.0000000000000000e+00  -1.7491355940235652e-33 -4.0513309069971776e-02 0.0000000000000000e+00  -2.0148305121838964e-17 -4.0513309069971776e-02 0.0000000000000000e+00  -3.3102295344050902e-17 -4.0513309069971748e-02 0.0000000000000000e+00  -5.1241791013930434e-17 -4.0513309069971824e-02 0.0000000000000000e+00  -5.9844127722648828e-17 -4.0513309069971921e-02 0.0000000000000000e+00  -7.6398402095853281e-17 -4.0513309069972026e-02 0.0000000000000000e+00  -8.0986226668130607e-17 -4.0513309069972213e-02 0.0000000000000000e+00  -6.7999996026848515e-17 -4.0513309069972296e-02 0.0000000000000000e+00  -5.3271651267560185e-17 -4.0513309069972470e-02 0.0000000000000000e+00  -2.6600130693170070e-17 -4.0513309069972525e-02 0.0000000000000000e+00  1.1284745767893967e-33 -4.0513309069972567e-02 0.0000000000000000e+00  -3.4349804599824432e-34 -4.4205614270060860e-02 0.0000000000000000e+00  -5.2530509985036505e-18 -4.4205614270060770e-02 0.0000000000000000e+00  -2.2861448607016913e-17 -4.4205614270060853e-02 0.0000000000000000e+00  -3.7158003708569369e-17 -4.4205614270060811e-02 0.0000000000000000e+00  -6.2317165807080856e-17 -4.4205614270060908e-02 0.0000000000000000e+00  -6.8719132935852374e-17 -4.4205614270061061e-02 0.0000000000000000e+00  -6.8281162424778992e-17 -4.4205614270061283e-02 0.0000000000000000e+00  -5.8509954820551495e-17 -4.4205614270061387e-02 0.0000000000000000e+00  -4.0992173515582893e-17 -4.4205614270061512e-02 0.0000000000000000e+00  -2.2342042222408496e-17 -4.4205614270061609e-02 0.0000000000000000e+00  2.3699225570810334e-33 -4.4205614270061658e-02 0.0000000000000000e+00  -1.0720508479499259e-33 -4.7900174836963405e-02 0.0000000000000000e+00  -3.6004043879297597e-18 -4.7900174836963356e-02 0.0000000000000000e+00  -1.3954351223622534e-17 -4.7900174836963329e-02 0.0000000000000000e+00  -3.9149600812049974e-17 -4.7900174836963384e-02 0.0000000000000000e+00  -4.3585896491640195e-17 -4.7900174836963412e-02 0.0000000000000000e+00  -5.6417261001093566e-17 -4.7900174836963634e-02 0.0000000000000000e+00  -6.1509711355554621e-17 -4.7900174836963828e-02 0.0000000000000000e+00  -5.0871832561919311e-17 -4.7900174836963995e-02 0.0000000000000000e+00  -3.2149830257488127e-17 -4.7900174836964189e-02 0.0000000000000000e+00  -1.6947123287524424e-17 -4.7900174836964168e-02 0.0000000000000000e+00  -1.5816276490313868e-33 -4.7900174836964210e-02 0.0000000000000000e+00  1.6974571502119235e-34 -5.1597112382772356e-02 0.0000000000000000e+00  1.1157146553048063e-18 -5.1597112382772377e-02 0.0000000000000000e+00  -5.1887972013857325e-18 -5.1597112382772266e-02 0.0000000000000000e+00  -1.9053765771878289e-17 -5.1597112382772307e-02 0.0000000000000000e+00  -3.3893723281681965e-17 -5.1597112382772432e-02 0.0000000000000000e+00  -3.2252827446443607e-17 -5.1597112382772599e-02 0.0000000000000000e+00  -3.9780778543957270e-17 -5.1597112382772752e-02 0.0000000000000000e+00  -4.1526155241081565e-17 -5.1597112382772974e-02 0.0000000000000000e+00  -3.4996210233398335e-17 -5.1597112382773098e-02 0.0000000000000000e+00  -2.5763868393713017e-17 -5.1597112382773209e-02 0.0000000000000000e+00  4.2559612610342967e-33 -5.1597112382773196e-02 0.0000000000000000e+00  6.4887288165390219e-34 -5.5296533864715260e-02 0.0000000000000000e+00  2.0726226233440380e-18 -5.5296533864715308e-02 0.0000000000000000e+00  3.0544823017855607e-18 -5.5296533864715225e-02 0.0000000000000000e+00  -1.9850856390040621e-19 -5.5296533864715225e-02 0.0000000000000000e+00  -1.0723514216197179e-17 -5.5296533864715267e-02 0.0000000000000000e+00  -1.8140313590928799e-17 -5.5296533864715502e-02 0.0000000000000000e+00  -2.4588713292060722e-17 -5.5296533864715676e-02 0.0000000000000000e+00  -3.2739567123278089e-17 -5.5296533864715912e-02 0.0000000000000000e+00  -3.5283820969423012e-17 -5.5296533864716065e-02 0.0000000000000000e+00  -2.3294863716496838e-17 -5.5296533864716120e-02 0.0000000000000000e+00  -2.7083389842945473e-33 -5.5296533864716231e-02 0.0000000000000000e+00  9.2058529539868642e-35 -5.8998530925727412e-02 0.0000000000000000e+00  3.4850612978764106e-18 -5.8998530925727329e-02 0.0000000000000000e+00  1.2778757436377778e-17 -5.8998530925727363e-02 0.0000000000000000e+00  1.3539433244286444e-17 -5.8998530925727363e-02 0.0000000000000000e+00  2.6194720544991074e-17 -5.8998530925727509e-02 0.0000000000000000e+00  5.9742108402673145e-19 -5.8998530925727558e-02 0.0000000000000000e+00  -1.6206882232943784e-17 -5.8998530925727863e-02 0.0000000000000000e+00  -1.1682956228909055e-17 -5.8998530925727967e-02 0.0000000000000000e+00  -1.9095179075880850e-17 -5.8998530925728175e-02 0.0000000000000000e+00  -1.6316983341385912e-17 -5.8998530925728293e-02 0.0000000000000000e+00  1.4119219978514608e-33 -5.8998530925728369e-02 0.0000000000000000e+00  3.8368135610839457e-33 -6.2703179329442568e-02 0.0000000000000000e+00  2.5511981016999887e-17 -6.2703179329442499e-02 0.0000000000000000e+00  2.9576063082706860e-17 -6.2703179329442457e-02 0.0000000000000000e+00  5.6265175121732054e-17 -6.2703179329442457e-02 0.0000000000000000e+00  5.2677866702428217e-17 -6.2703179329442568e-02 0.0000000000000000e+00  4.6070972230508302e-17 -6.2703179329442763e-02 0.0000000000000000e+00  2.3307547545491440e-17 -6.2703179329442998e-02 0.0000000000000000e+00  7.8996579182190197e-18 -6.2703179329443207e-02 0.0000000000000000e+00  1.0488227936850499e-17 -6.2703179329443373e-02 0.0000000000000000e+00  7.3491795875673069e-18 -6.2703179329443484e-02 0.0000000000000000e+00  -8.0853507985858854e-34 -6.2703179329443540e-02 0.0000000000000000e+00  4.3164152562194384e-33 -6.6410538493085133e-02 0.0000000000000000e+00  1.6844209624250094e-17 -6.6410538493085119e-02 0.0000000000000000e+00  5.8114528655520257e-17 -6.6410538493085050e-02 0.0000000000000000e+00  9.1431775216879029e-17 -6.6410538493085106e-02 0.0000000000000000e+00  1.1755416571498630e-16 -6.6410538493085106e-02 0.0000000000000000e+00  1.1244555935169682e-16 -6.6410538493085314e-02 0.0000000000000000e+00  9.0116925222927602e-17 -6.6410538493085480e-02 0.0000000000000000e+00  6.1184989265070783e-17 -6.6410538493085758e-02 0.0000000000000000e+00  5.4232896217856030e-17 -6.6410538493085980e-02 0.0000000000000000e+00  4.1885459675474412e-17 -6.6410538493086063e-02 0.0000000000000000e+00  5.0610069635831540e-33 -6.6410538493086091e-02 0.0000000000000000e+00  -2.2569491535787937e-33 -7.0120651121143227e-02 0.0000000000000000e+00  2.9279898430800258e-17 -7.0120651121143199e-02 0.0000000000000000e+00  8.0090606581293896e-17 -7.0120651121143157e-02 0.0000000000000000e+00  1.2652916984369617e-16 -7.0120651121143171e-02 0.0000000000000000e+00  1.7049664743220707e-16 -7.0120651121143185e-02 0.0000000000000000e+00  1.9975029514456240e-16 -7.0120651121143282e-02 0.0000000000000000e+00  1.9665541393251938e-16 -7.0120651121143587e-02 0.0000000000000000e+00  1.6086089387365866e-16 -7.0120651121143809e-02 0.0000000000000000e+00  1.2038009507214900e-16 -7.0120651121144045e-02 0.0000000000000000e+00  6.3668925388494413e-17 -7.0120651121144142e-02 0.0000000000000000e+00  -2.0298436449999277e-32 -7.0120651121144156e-02 0.0000000000000000e+00  5.9809152569837954e-33 -7.3833542942081054e-02 0.0000000000000000e+00  4.2652865068383969e-17 -7.3833542942081068e-02 0.0000000000000000e+00  8.8273259678376400e-17 -7.3833542942081040e-02 0.0000000000000000e+00  1.5293297014654665e-16 -7.3833542942081012e-02 0.0000000000000000e+00  2.2566109372734890e-16 -7.3833542942081068e-02 0.0000000000000000e+00  3.1198325909895538e-16 -7.3833542942081221e-02 0.0000000000000000e+00  3.6266871371483743e-16 -7.3833542942081359e-02 0.0000000000000000e+00  3.5344508656090798e-16 -7.3833542942081651e-02 0.0000000000000000e+00  2.3109871044367064e-16 -7.3833542942081873e-02 0.0000000000000000e+00  1.1658449785358281e-16 -7.3833542942081942e-02 0.0000000000000000e+00  7.2222372914521290e-33 -7.3833542942081998e-02 0.0000000000000000e+00  -1.3888877054349504e-18 -1.8393901835601870e-03 0.0000000000000000e+00  -4.2134709420437477e-18 -1.8393901835601868e-03 0.0000000000000000e+00  -9.4587448983462266e-18 -1.8393901835601879e-03 0.0000000000000000e+00  -1.4090034311173663e-17 -1.8393901835601885e-03 0.0000000000000000e+00  -1.7555430531330612e-17 -1.8393901835601920e-03 0.0000000000000000e+00  -2.0174657965938477e-17 -1.8393901835601963e-03 0.0000000000000000e+00  -1.9247150813770905e-17 -1.8393901835602022e-03 0.0000000000000000e+00  -1.5209661796540746e-17 -1.8393901835602054e-03 0.0000000000000000e+00  -9.4292369372099209e-18 -1.8393901835602093e-03 0.0000000000000000e+00  -3.2734136435424525e-18 -1.8393901835602113e-03 0.0000000000000000e+00  -3.6559386320233147e-18 -5.5182800018165447e-03 0.0000000000000000e+00  -1.2633593186002560e-17 -5.5182800018165430e-03 0.0000000000000000e+00  -2.4214386939838236e-17 -5.5182800018165447e-03 0.0000000000000000e+00  -3.6216300466540666e-17 -5.5182800018165534e-03 0.0000000000000000e+00  -4.5480935469609217e-17 -5.5182800018165586e-03 0.0000000000000000e+00  -4.9837636493929936e-17 -5.5182800018165742e-03 0.0000000000000000e+00  -4.7205941467335387e-17 -5.5182800018165933e-03 0.0000000000000000e+00  -3.6005740580107308e-17 -5.5182800018166115e-03 0.0000000000000000e+00  -2.3849391971255862e-17 -5.5182800018166176e-03 0.0000000000000000e+00  -8.0267377485809628e-18 -5.5182800018166254e-03 0.0000000000000000e+00  -6.2826517465422499e-18 -9.1974974986782487e-03 0.0000000000000000e+00  -1.9932864703818712e-17 -9.1974974986782417e-03 0.0000000000000000e+00  -3.3479021942906725e-17 -9.1974974986782400e-03 0.0000000000000000e+00  -5.0069352057303443e-17 -9.1974974986782435e-03 0.0000000000000000e+00  -6.2957406043579324e-17 -9.1974974986782729e-03 0.0000000000000000e+00  -6.7064457537709792e-17 -9.1974974986782990e-03 0.0000000000000000e+00  -6.2264347354856194e-17 -9.1974974986783319e-03 0.0000000000000000e+00  -4.9481573311843276e-17 -9.1974974986783614e-03 0.0000000000000000e+00  -3.1148410699917086e-17 -9.1974974986783701e-03 0.0000000000000000e+00  -1.1508208515593526e-17 -9.1974974986783874e-03 0.0000000000000000e+00  -7.5915375270718907e-18 -1.2877258881367062e-02 0.0000000000000000e+00  -2.4846066599138369e-17 -1.2877258881367055e-02 0.0000000000000000e+00  -4.0006378422341441e-17 -1.2877258881367044e-02 0.0000000000000000e+00  -5.6851169337011516e-17 -1.2877258881367055e-02 0.0000000000000000e+00  -7.1590361387347850e-17 -1.2877258881367084e-02 0.0000000000000000e+00  -7.6376310055990359e-17 -1.2877258881367131e-02 0.0000000000000000e+00  -7.0992815459608132e-17 -1.2877258881367178e-02 0.0000000000000000e+00  -5.6851169337011504e-17 -1.2877258881367223e-02 0.0000000000000000e+00  -3.8003401906758128e-17 -1.2877258881367246e-02 0.0000000000000000e+00  -1.2416699500687893e-17 -1.2877258881367261e-02 0.0000000000000000e+00  -8.9004233076015208e-18 -1.6557777003867770e-02 0.0000000000000000e+00  -2.5217951521394361e-17 -1.6557777003867756e-02 0.0000000000000000e+00  -4.4217576151008889e-17 -1.6557777003867749e-02 0.0000000000000000e+00  -6.4956482631664353e-17 -1.6557777003867766e-02 0.0000000000000000e+00  -7.6222678888881990e-17 -1.6557777003867808e-02 0.0000000000000000e+00  -7.8494181178886611e-17 -1.6557777003867867e-02 0.0000000000000000e+00  -7.