<?xml version="1.0"?>
<VTKFile type="UnstructuredGrid"  version="0.1"  >
<UnstructuredGrid>
<Piece  NumberOfPoints="1661" NumberOfCells="3200">
<Points>
<DataArray  type="Float64"  NumberOfComponents="3"  format="ascii">-0.25 -1 0  -0.225 -1 0  -0.2 -1 0  -0.175 -1 0  -0.15 -1 0  -0.125 -1 0  -0.1 -1 0  -0.07500000000000001 -1 0  -0.04999999999999999 -1 0  -0.02499999999999999 -1 0  0 -1 0  0.02500000000000002 -1 0  0.04999999999999999 -1 0  0.07500000000000001 -1 0  0.09999999999999998 -1 0  0.125 -1 0  0.15 -1 0  0.175 -1 0  0.2 -1 0  0.225 -1 0  0.25 -1 0  -0.25 -0.975 0  -0.225 -0.975 0  -0.2 -0.975 0  -0.175 -0.975 0  -0.15 -0.975 0  -0.125 -0.975 0  -0.1 -0.975 0  -0.07500000000000001 -0.975 0  -0.04999999999999999 -0.975 0  -0.02499999999999999 -0.975 0  0 -0.975 0  0.02500000000000002 -0.975 0  0.04999999999999999 -0.975 0  0.07500000000000001 -0.975 0  0.09999999999999998 -0.975 0  0.125 -0.975 0  0.15 -0.975 0  0.175 -0.975 0  0.2 -0.975 0  0.225 -0.975 0  0.25 -0.975 0  -0.25 -0.95 0  -0.225 -0.95 0  -0.2 -0.95 0  -0.175 -0.95 0  -0.15 -0.95 0  -0.125 -0.95 0  -0.1 -0.95 0  -0.07500000000000001 -0.95 0  -0.04999999999999999 -0.95 0  -0.02499999999999999 -0.95 0  0 -0.95 0  0.02500000000000002 -0.95 0  0.04999999999999999 -0.95 0  0.07500000000000001 -0.95 0  0.09999999999999998 -0.95 0  0.125 -0.95 0  0.15 -0.95 0  0.175 -0.95 0  0.2 -0.95 0  0.225 -0.95 0  0.25 -0.95 0  -0.25 -0.925 0  -0.225 -0.925 0  -0.2 -0.925 0  -0.175 -0.925 0  -0.15 -0.925 0  -0.125 -0.925 0  -0.1 -0.925 0  -0.07500000000000001 -0.925 0  -0.04999999999999999 -0.925 0  -0.02499999999999999 -0.925 0  0 -0.925 0  0.02500000000000002 -0.925 0  0.04999999999999999 -0.925 0  0.07500000000000001 -0.925 0  0.09999999999999998 -0.925 0  0.125 -0.925 0  0.15 -0.925 0  0.175 -0.925 0  0.2 -0.925 0  0.225 -0.925 0  0.25 -0.925 0  -0.25 -0.9 0  -0.225 -0.9 0  -0.2 -0.9 0  -0.175 -0.9 0  -0.15 -0.9 0  -0.125 -0.9 0  -0.1 -0.9 0  -0.07500000000000001 -0.9 0  -0.04999999999999999 -0.9 0  -0.02499999999999999 -0.9 0  0 -0.9 0  0.02500000000000002 -0.9 0  0.04999999999999999 -0.9 0  0.07500000000000001 -0.9 0  0.09999999999999998 -0.9 0  0.125 -0.9 0  0.15 -0.9 0  0.175 -0.9 0  0.2 -0.9 0  0.225 -0.9 0  0.25 -0.9 0  -0.25 -0.875 0  -0.225 -0.875 0  -0.2 -0.875 0  -0.175 -0.875 0  -0.15 -0.875 0  -0.125 -0.875 0  -0.1 -0.875 0  -0.07500000000000001 -0.875 0  -0.04999999999999999 -0.875 0  -0.02499999999999999 -0.875 0  0 -0.875 0  0.02500000000000002 -0.875 0  0.04999999999999999 -0.875 0  0.07500000000000001 -0.875 0  0.09999999999999998 -0.875 0  0.125 -0.875 0  0.15 -0.875 0  0.175 -0.875 0  0.2 -0.875 0  0.225 -0.875 0  0.25 -0.875 0  -0.25 -0.85 0  -0.225 -0.85 0  -0.2 -0.85 0  -0.175 -0.85 0  -0.15 -0.85 0  -0.125 -0.85 0  -0.1 -0.85 0  -0.07500000000000001 -0.85 0  -0.04999999999999999 -0.85 0  -0.02499999999999999 -0.85 0  0 -0.85 0  0.02500000000000002 -0.85 0  0.04999999999999999 -0.85 0  0.07500000000000001 -0.85 0  0.09999999999999998 -0.85 0  0.125 -0.85 0  0.15 -0.85 0  0.175 -0.85 0  0.2 -0.85 0  0.225 -0.85 0  0.25 -0.85 0  -0.25 -0.825 0  -0.225 -0.825 0  -0.2 -0.825 0  -0.175 -0.825 0  -0.15 -0.825 0  -0.125 -0.825 0  -0.1 -0.825 0  -0.07500000000000001 -0.825 0  -0.04999999999999999 -0.825 0  -0.02499999999999999 -0.825 0  0 -0.825 0  0.02500000000000002 -0.825 0  0.04999999999999999 -0.825 0  0.07500000000000001 -0.825 0  0.09999999999999998 -0.825 0  0.125 -0.825 0  0.15 -0.825 0  0.175 -0.825 0  0.2 -0.825 0  0.225 -0.825 0  0.25 -0.825 0  -0.25 -0.8 0  -0.225 -0.8 0  -0.2 -0.8 0  -0.175 -0.8 0  -0.15 -0.8 0  -0.125 -0.8 0  -0.1 -0.8 0  -0.07500000000000001 -0.8 0  -0.04999999999999999 -0.8 0  -0.02499999999999999 -0.8 0  0 -0.8 0  0.02500000000000002 -0.8 0  0.04999999999999999 -0.8 0  0.07500000000000001 -0.8 0  0.09999999999999998 -0.8 0  0.125 -0.8 0  0.15 -0.8 0  0.175 -0.8 0  0.2 -0.8 0  0.225 -0.8 0  0.25 -0.8 0  -0.25 -0.775 0  -0.225 -0.775 0  -0.2 -0.775 0  -0.175 -0.775 0  -0.15 -0.775 0  -0.125 -0.775 0  -0.1 -0.775 0  -0.07500000000000001 -0.775 0  -0.04999999999999999 -0.775 0  -0.02499999999999999 -0.775 0  0 -0.775 0  0.02500000000000002 -0.775 0  0.04999999999999999 -0.775 0  0.07500000000000001 -0.775 0  0.09999999999999998 -0.775 0  0.125 -0.775 0  0.15 -0.775 0  0.175 -0.775 0  0.2 -0.775 0  0.225 -0.775 0  0.25 -0.775 0  -0.25 -0.75 0  -0.225 -0.75 0  -0.2 -0.75 0  -0.175 -0.75 0  -0.15 -0.75 0  -0.125 -0.75 0  -0.1 -0.75 0  -0.07500000000000001 -0.75 0  -0.04999999999999999 -0.75 0  -0.02499999999999999 -0.75 0  0 -0.75 0  0.02500000000000002 -0.75 0  0.04999999999999999 -0.75 0  0.07500000000000001 -0.75 0  0.09999999999999998 -0.75 0  0.125 -0.75 0  0.15 -0.75 0  0.175 -0.75 0  0.2 -0.75 0  0.225 -0.75 0  0.25 -0.75 0  -0.25 -0.725 0  -0.225 -0.725 0  -0.2 -0.725 0  -0.175 -0.725 0  -0.15 -0.725 0  -0.125 -0.725 0  -0.1 -0.725 0  -0.07500000000000001 -0.725 0  -0.04999999999999999 -0.725 0  -0.02499999999999999 -0.725 0  0 -0.725 0  0.02500000000000002 -0.725 0  0.04999999999999999 -0.725 0  0.07500000000000001 -0.725 0  0.09999999999999998 -0.725 0  0.125 -0.725 0  0.15 -0.725 0  0.175 -0.725 0  0.2 -0.725 0  0.225 -0.725 0  0.25 -0.725 0  -0.25 -0.7 0  -0.225 -0.7 0  -0.2 -0.7 0  -0.175 -0.7 0  -0.15 -0.7 0  -0.125 -0.7 0  -0.1 -0.7 0  -0.07500000000000001 -0.7 0  -0.04999999999999999 -0.7 0  -0.02499999999999999 -0.7 0  0 -0.7 0  0.02500000000000002 -0.7 0  0.04999999999999999 -0.7 0  0.07500000000000001 -0.7 0  0.09999999999999998 -0.7 0  0.125 -0.7 0  0.15 -0.7 0  0.175 -0.7 0  0.2 -0.7 0  0.225 -0.7 0  0.25 -0.7 0  -0.25 -0.675 0  -0.225 -0.675 0  -0.2 -0.675 0  -0.175 -0.675 0  -0.15 -0.675 0  -0.125 -0.675 0  -0.1 -0.675 0  -0.07500000000000001 -0.675 0  -0.04999999999999999 -0.675 0  -0.02499999999999999 -0.675 0  0 -0.675 0  0.02500000000000002 -0.675 0  0.04999999999999999 -0.675 0  0.07500000000000001 -0.675 0  0.09999999999999998 -0.675 0  0.125 -0.675 0  0.15 -0.675 0  0.175 -0.675 0  0.2 -0.675 0  0.225 -0.675 0  0.25 -0.675 0  -0.25 -0.65 0  -0.225 -0.65 0  -0.2 -0.65 0  -0.175 -0.65 0  -0.15 -0.65 0  -0.125 -0.65 0  -0.1 -0.65 0  -0.07500000000000001 -0.65 0  -0.04999999999999999 -0.65 0  -0.02499999999999999 -0.65 0  0 -0.65 0  0.02500000000000002 -0.65 0  0.04999999999999999 -0.65 0  0.07500000000000001 -0.65 0  0.09999999999999998 -0.65 0  0.125 -0.65 0  0.15 -0.65 0  0.175 -0.65 0  0.2 -0.65 0  0.225 -0.65 0  0.25 -0.65 0  -0.25 -0.625 0  -0.225 -0.625 0  -0.2 -0.625 0  -0.175 -0.625 0  -0.15 -0.625 0  -0.125 -0.625 0  -0.1 -0.625 0  -0.07500000000000001 -0.625 0  -0.04999999999999999 -0.625 0  -0.02499999999999999 -0.625 0  0 -0.625 0  0.02500000000000002 -0.625 0  0.04999999999999999 -0.625 0  0.07500000000000001 -0.625 0  0.09999999999999998 -0.625 0  0.125 -0.625 0  0.15 -0.625 0  0.175 -0.625 0  0.2 -0.625 0  0.225 -0.625 0  0.25 -0.625 0  -0.25 -0.6 0  -0.225 -0.6 0  -0.2 -0.6 0  -0.175 -0.6 0  -0.15 -0.6 0  -0.125 -0.6 0  -0.1 -0.6 0  -0.07500000000000001 -0.6 0  -0.04999999999999999 -0.6 0  -0.02499999999999999 -0.6 0  0 -0.6 0  0.02500000000000002 -0.6 0  0.04999999999999999 -0.6 0  0.07500000000000001 -0.6 0  0.09999999999999998 -0.6 0  0.125 -0.6 0  0.15 -0.6 0  0.175 -0.6 0  0.2 -0.6 0  0.225 -0.6 0  0.25 -0.6 0  -0.25 -0.575 0  -0.225 -0.575 0  -0.2 -0.575 0  -0.175 -0.575 0  -0.15 -0.575 0  -0.125 -0.575 0  -0.1 -0.575 0  -0.07500000000000001 -0.575 0  -0.04999999999999999 -0.575 0  -0.02499999999999999 -0.575 0  0 -0.575 0  0.02500000000000002 -0.575 0  0.04999999999999999 -0.575 0  0.07500000000000001 -0.575 0  0.09999999999999998 -0.575 0  0.125 -0.575 0  0.15 -0.575 0  0.175 -0.575 0  0.2 -0.575 0  0.225 -0.575 0  0.25 -0.575 0  -0.25 -0.55 0  -0.225 -0.55 0  -0.2 -0.55 0  -0.175 -0.55 0  -0.15 -0.55 0  -0.125 -0.55 0  -0.1 -0.55 0  -0.07500000000000001 -0.55 0  -0.04999999999999999 -0.55 0  -0.02499999999999999 -0.55 0  0 -0.55 0  0.02500000000000002 -0.55 0  0.04999999999999999 -0.55 0  0.07500000000000001 -0.55 0  0.09999999999999998 -0.55 0  0.125 -0.55 0  0.15 -0.55 0  0.175 -0.55 0  0.2 -0.55 0  0.225 -0.55 0  0.25 -0.55 0  -0.25 -0.525 0  -0.225 -0.525 0  -0.2 -0.525 0  -0.175 -0.525 0  -0.15 -0.525 0  -0.125 -0.525 0  -0.1 -0.525 0  -0.07500000000000001 -0.525 0  -0.04999999999999999 -0.525 0  -0.02499999999999999 -0.525 0  0 -0.525 0  0.02500000000000002 -0.525 0  0.04999999999999999 -0.525 0  0.07500000000000001 -0.525 0  0.09999999999999998 -0.525 0  0.125 -0.525 0  0.15 -0.525 0  0.175 -0.525 0  0.2 -0.525 0  0.225 -0.525 0  0.25 -0.525 0  -0.25 -0.5 0  -0.225 -0.5 0  -0.2 -0.5 0  -0.175 -0.5 0  -0.15 -0.5 0  -0.125 -0.5 0  -0.1 -0.5 0  -0.07500000000000001 -0.5 0  -0.04999999999999999 -0.5 0  -0.02499999999999999 -0.5 0  0 -0.5 0  0.02500000000000002 -0.5 0  0.04999999999999999 -0.5 0  0.07500000000000001 -0.5 0  0.09999999999999998 -0.5 0  0.125 -0.5 0  0.15 -0.5 0  0.175 -0.5 0  0.2 -0.5 0  0.225 -0.5 0  0.25 -0.5 0  -0.25 -0.475 0  -0.225 -0.475 0  -0.2 -0.475 0  -0.175 -0.475 0  -0.15 -0.475 0  -0.125 -0.475 0  -0.1 -0.475 0  -0.07500000000000001 -0.475 0  -0.04999999999999999 -0.475 0  -0.02499999999999999 -0.475 0  0 -0.475 0  0.02500000000000002 -0.475 0  0.04999999999999999 -0.475 0  0.07500000000000001 -0.475 0  0.09999999999999998 -0.475 0  0.125 -0.475 0  0.15 -0.475 0  0.175 -0.475 0  0.2 -0.475 0  0.225 -0.475 0  0.25 -0.475 0  -0.25 -0.45 0  -0.225 -0.45 0  -0.2 -0.45 0  -0.175 -0.45 0  -0.15 -0.45 0  -0.125 -0.45 0  -0.1 -0.45 0  -0.07500000000000001 -0.45 0  -0.04999999999999999 -0.45 0  -0.02499999999999999 -0.45 0  0 -0.45 0  0.02500000000000002 -0.45 0  0.04999999999999999 -0.45 0  0.07500000000000001 -0.45 0  0.09999999999999998 -0.45 0  0.125 -0.45 0  0.15 -0.45 0  0.175 -0.45 0  0.2 -0.45 0  0.225 -0.45 0  0.25 -0.45 0  -0.25 -0.425 0  -0.225 -0.425 0  -0.2 -0.425 0  -0.175 -0.425 0  -0.15 -0.425 0  -0.125 -0.425 0  -0.1 -0.425 0  -0.07500000000000001 -0.425 0  -0.04999999999999999 -0.425 0  -0.02499999999999999 -0.425 0  0 -0.425 0  0.02500000000000002 -0.425 0  0.04999999999999999 -0.425 0  0.07500000000000001 -0.425 0  0.
[...]
<PointData  Vectors="displacement"> 
<DataArray  type="Float64"  Name="displacement"  NumberOfComponents="3" format="ascii">-9.0277966143151766e-34 5.0821976835258078e-19 0.0000000000000000e+00  1.8055593228630363e-32 -1.0164395367051619e-18 0.0000000000000000e+00  8.4917711903402159e-33 3.7362093907795200e-18 0.0000000000000000e+00  4.6944542394438934e-32 1.2705494208814522e-19 0.0000000000000000e+00  -1.5071134363387430e-32 -2.5296096563184933e-19 0.0000000000000000e+00  4.3333423748712861e-32 -5.0821976835258088e-19 0.0000000000000000e+00  -1.2157199741372943e-31 2.2289019762159252e-19 0.0000000000000000e+00  1.5166698312049502e-31 -6.3527471044072612e-19 0.0000000000000000e+00  1.1614213288076936e-31 2.0326325125128529e-18 0.0000000000000000e+00  -7.2222372914521465e-32 -8.8938459461701690e-19 0.0000000000000000e+00  1.1374922620180163e-31 -4.7832814109328055e-20 0.0000000000000000e+00  7.2222372914521495e-33 -6.3527471044072660e-19 0.0000000000000000e+00  -7.2250914800921016e-32 -1.3233943058149218e-19 0.0000000000000000e+00  2.1666711874356425e-32 7.6232965252887108e-19 0.0000000000000000e+00  -5.5371259615188278e-33 -1.0251907677093201e-18 0.0000000000000000e+00  -3.6111186457260686e-33 1.2705494208814509e-18 0.0000000000000000e+00  4.3304881103886233e-32 2.4087592707597500e-18 0.0000000000000000e+00  -2.5277830520082498e-32 -1.9058241313221781e-18 0.0000000000000000e+00  4.3312638544781137e-32 2.5887444450459577e-18 0.0000000000000000e+00  -1.8055593228630374e-32 -2.7952087259391969e-18 0.0000000000000000e+00  1.2638915260041243e-32 3.0493186101154828e-18 0.0000000000000000e+00  -3.6111186457260631e-33 -1.3159703270219427e-02 0.0000000000000000e+00  -8.6302701242910062e-17 -1.3159703270219423e-02 0.0000000000000000e+00  -1.7334785416103340e-16 -1.3159703270219423e-02 0.0000000000000000e+00  -2.6250748767357840e-16 -1.3159703270219434e-02 0.0000000000000000e+00  -3.4969991312586618e-16 -1.3159703270219446e-02 0.0000000000000000e+00  -4.3470063848265571e-16 -1.3159703270219475e-02 0.0000000000000000e+00  -5.1551450864838076e-16 -1.3159703270219503e-02 0.0000000000000000e+00  -5.8211233766010098e-16 -1.3159703270219522e-02 0.0000000000000000e+00  -6.4596774742848950e-16 -1.3159703270219579e-02 0.0000000000000000e+00  -6.8815254559721699e-16 -1.3159703270219631e-02 0.0000000000000000e+00  -7.1104302581457941e-16 -1.3159703270219696e-02 0.0000000000000000e+00  -7.0562073016011745e-16 -1.3159703270219784e-02 0.0000000000000000e+00  -6.7004172972956914e-16 -1.3159703270219836e-02 0.0000000000000000e+00  -6.1797323162939109e-16 -1.3159703270219881e-02 0.0000000000000000e+00  -5.5082072719054240e-16 -1.3159703270219918e-02 0.0000000000000000e+00  -4.7597059781351661e-16 -1.3159703270219959e-02 0.0000000000000000e+00  -3.9704805499416866e-16 -1.3159703270219996e-02 0.0000000000000000e+00  -3.0686643634773049e-16 -1.3159703270220015e-02 0.0000000000000000e+00  -2.1279347320882031e-16 -1.3159703270220046e-02 0.0000000000000000e+00  -1.0921929274211929e-16 -1.3159703270220051e-02 0.0000000000000000e+00  3.4920998427053045e-33 -1.3159703270220079e-02 0.0000000000000000e+00  4.3093402525702588e-32 -2.6327749961656832e-02 0.0000000000000000e+00  -1.6384314153079456e-16 -2.6327749961656852e-02 0.0000000000000000e+00  -3.2243409199865626e-16 -2.6327749961656838e-02 0.0000000000000000e+00  -4.8504443837165677e-16 -2.6327749961656849e-02 0.0000000000000000e+00  -6.4590197649659589e-16 -2.6327749961656884e-02 0.0000000000000000e+00  -7.9137411485740711e-16 -2.6327749961656929e-02 0.0000000000000000e+00  -9.3199662317362428e-16 -2.6327749961657015e-02 0.0000000000000000e+00  -1.0592187394184643e-15 -2.6327749961657043e-02 0.0000000000000000e+00  -1.1606950790215606e-15 -2.6327749961657158e-02 0.0000000000000000e+00  -1.2395853937489375e-15 -2.6327749961657328e-02 0.0000000000000000e+00  -1.2768765112649891e-15 -2.6327749961657425e-02 0.0000000000000000e+00  -1.2616209137891468e-15 -2.6327749961657612e-02 0.0000000000000000e+00  -1.2087735479990796e-15 -2.6327749961657713e-02 0.0000000000000000e+00  -1.1112058795426799e-15 -2.6327749961657855e-02 0.0000000000000000e+00  -9.9762702210882138e-16 -2.6327749961657966e-02 0.0000000000000000e+00  -8.7020360210454172e-16 -2.6327749961657976e-02 0.0000000000000000e+00  -7.2048560358553552e-16 -2.6327749961658081e-02 0.0000000000000000e+00  -5.5526184267683859e-16 -2.6327749961658101e-02 0.0000000000000000e+00  -3.7607969714619898e-16 -2.6327749961658181e-02 0.0000000000000000e+00  -1.8934074470885405e-16 -2.6327749961658226e-02 0.0000000000000000e+00  3.0694508488671566e-32 -2.6327749961658237e-02 0.0000000000000000e+00  3.2500067811534605e-32 -3.9512470645370598e-02 0.0000000000000000e+00  -2.3359372642688765e-16 -3.9512470645370598e-02 0.0000000000000000e+00  -4.5536052392989379e-16 -3.9512470645370605e-02 0.0000000000000000e+00  -6.7127361292141660e-16 -3.9512470645370605e-02 0.0000000000000000e+00  -8.8712216777551126e-16 -3.9512470645370723e-02 0.0000000000000000e+00  -1.0860508603575506e-15 -3.9512470645370772e-02 0.0000000000000000e+00  -1.2764441114982217e-15 -3.9512470645370827e-02 0.0000000000000000e+00  -1.4497494036199035e-15 -3.9512470645370980e-02 0.0000000000000000e+00  -1.5778267489353031e-15 -3.9512470645371112e-02 0.0000000000000000e+00  -1.6744670768864034e-15 -3.9512470645371320e-02 0.0000000000000000e+00  -1.7267696489385763e-15 -3.9512470645371577e-02 0.0000000000000000e+00  -1.7109324941332268e-15 -3.9512470645371847e-02 0.0000000000000000e+00  -1.6370655169824765e-15 -3.9512470645372111e-02 0.0000000000000000e+00  -1.5183842352490304e-15 -3.9512470645372284e-02 0.0000000000000000e+00  -1.3678232244301498e-15 -3.9512470645372340e-02 0.0000000000000000e+00  -1.1845714505529293e-15 -3.9512470645372527e-02 0.0000000000000000e+00  -9.7379129974626068e-16 -3.9512470645372604e-02 0.0000000000000000e+00  -7.4932514894616316e-16 -3.9512470645372715e-02 0.0000000000000000e+00  -5.1066412455264265e-16 -3.9512470645372777e-02 0.0000000000000000e+00  -2.5794682901714041e-16 -3.9512470645372881e-02 0.0000000000000000e+00  2.5277830520082460e-32 -3.9512470645372867e-02 0.0000000000000000e+00  -4.6390884555201522e-32 -5.2722170211709031e-02 0.0000000000000000e+00  -2.8101842692546448e-16 -5.2722170211709003e-02 0.0000000000000000e+00  -5.5528061161604883e-16 -5.2722170211709100e-02 0.0000000000000000e+00  -8.2774827852047264e-16 -5.2722170211709135e-02 0.0000000000000000e+00  -1.0978630078231615e-15 -5.2722170211709128e-02 0.0000000000000000e+00  -1.3404392769798372e-15 -5.2722170211709295e-02 0.0000000000000000e+00  -1.5618279575648950e-15 -5.2722170211709392e-02 0.0000000000000000e+00  -1.7572179671188701e-15 -5.2722170211709621e-02 0.0000000000000000e+00  -1.9083963706291981e-15 -5.2722170211709815e-02 0.0000000000000000e+00  -2.0274307581172645e-15 -5.2722170211710079e-02 0.0000000000000000e+00  -2.0877272810044233e-15 -5.2722170211710453e-02 0.0000000000000000e+00  -2.0662927919003346e-15 -5.2722170211710835e-02 0.0000000000000000e+00  -1.9810395314461690e-15 -5.2722170211711133e-02 0.0000000000000000e+00  -1.8488603262762623e-15 -5.2722170211711362e-02 0.0000000000000000e+00  -1.6691827003807849e-15 -5.2722170211711654e-02 0.0000000000000000e+00  -1.4328410826187731e-15 -5.2722170211711765e-02 0.0000000000000000e+00  -1.1814541229432638e-15 -5.2722170211711925e-02 0.0000000000000000e+00  -9.1159587592750046e-16 -5.2722170211712029e-02 0.0000000000000000e+00  -6.1496475485631744e-16 -5.2722170211712209e-02 0.0000000000000000e+00  -3.1099203134333993e-16 -5.2722170211712251e-02 0.0000000000000000e+00  1.2524115642101085e-32 -5.2722170211712299e-02 0.0000000000000000e+00  7.9444610205973567e-32 -6.5965115078949907e-02 0.0000000000000000e+00  -3.1419034711151299e-16 -6.5965115078950018e-02 0.0000000000000000e+00  -6.4216770362086363e-16 -6.5965115078949935e-02 0.0000000000000000e+00  -9.6516595651279856e-16 -6.5965115078950032e-02 0.0000000000000000e+00  -1.2569861219936718e-15 -6.5965115078950115e-02 0.0000000000000000e+00  -1.5433736875804595e-15 -6.5965115078950268e-02 0.0000000000000000e+00  -1.7917006090629948e-15 -6.5965115078950434e-02 0.0000000000000000e+00  -1.9929248183469483e-15 -6.5965115078950670e-02 0.0000000000000000e+00  -2.1758126659648428e-15 -6.5965115078950934e-02 0.0000000000000000e+00  -2.3044027309455125e-15 -6.5965115078951322e-02 0.0000000000000000e+00  -2.3645333902513314e-15 -6.5965115078951753e-02 0.0000000000000000e+00  -2.3439016229897554e-15 -6.5965115078952280e-02 0.0000000000000000e+00  -2.2470435924311234e-15 -6.5965115078952752e-02 0.0000000000000000e+00  -2.1029917938167512e-15 -6.5965115078953029e-02 0.0000000000000000e+00  -1.8907639652691917e-15 -6.5965115078953307e-02 0.0000000000000000e+00  -1.6370723653421810e-15 -6.5965115078953529e-02 0.0000000000000000e+00  -1.3604945586549858e-15 -6.5965115078953709e-02 0.0000000000000000e+00  -1.0264489443679492e-15 -6.5965115078953945e-02 0.0000000000000000e+00  -6.9636631188665186e-16 -6.5965115078954042e-02 0.0000000000000000e+00  -3.5331594575583315e-16 -6.5965115078954140e-02 0.0000000000000000e+00  2.6885025171244260e-32 -6.5965115078954153e-02 0.0000000000000000e+00  -5.0731428048223225e-32 -7.9249520460658099e-02 0.0000000000000000e+00  -3.5703957545680056e-16 -7.9249520460658002e-02 0.0000000000000000e+00  -7.0092002193042434e-16 -7.9249520460658002e-02 0.0000000000000000e+00  -1.0456861633195521e-15 -7.9249520460658099e-02 0.0000000000000000e+00  -1.3807605552309225e-15 -7.9249520460658210e-02 0.0000000000000000e+00  -1.6982952033810830e-15 -7.9249520460658446e-02 0.0000000000000000e+00  -1.9752021345948046e-15 -7.9249520460658654e-02 0.0000000000000000e+00  -2.2050766606026761e-15 -7.9249520460658932e-02 0.0000000000000000e+00  -2.3813876655022033e-15 -7.9249520460659251e-02 0.0000000000000000e+00  -2.5044594491184592e-15 -7.9249520460659764e-02 0.0000000000000000e+00  -2.5565604249633880e-15 -7.9249520460660292e-02 0.0000000000000000e+00  -2.5506358924576432e-15 -7.9249520460660944e-02 0.0000000000000000e+00  -2.4625188213983808e-15 -7.9249520460661388e-02 0.0000000000000000e+00  -2.2959616865801653e-15 -7.9249520460661860e-02 0.0000000000000000e+00  -2.0623847375693375e-15 -7.9249520460662234e-02 0.0000000000000000e+00  -1.7918242742371656e-15 -7.9249520460662443e-02 0.0000000000000000e+00  -1.4730789288817615e-15 -7.9249520460662873e-02 0.0000000000000000e+00  -1.1294779077421996e-15 -7.9249520460662914e-02 0.0000000000000000e+00  -7.6129602530239237e-16 -7.9249520460663261e-02 0.0000000000000000e+00  -3.8210354628895458e-16 -7.9249520460663164e-02 0.0000000000000000e+00  -1.3928600490657668e-32 -7.9249520460663345e-02 0.0000000000000000e+00  5.7777898331617076e-32 -9.2583537711204020e-02 0.0000000000000000e+00  -3.8238896252371639e-16 -9.2583537711204117e-02 0.0000000000000000e+00  -7.5652674739365009e-16 -9.2583537711203992e-02 0.0000000000000000e+00  -1.1288273537767232e-15 -9.2583537711204061e-02 0.0000000000000000e+00  -1.5003336418482378e-15 -9.2583537711204297e-02 0.0000000000000000e+00  -1.8411750973198796e-15 -9.2583537711204422e-02 0.0000000000000000e+00  -2.1343252487653212e-15 -9.2583537711204866e-02 0.0000000000000000e+00  -2.3725163905423423e-15 -9.2583537711205102e-02 0.0000000000000000e+00  -2.5476994257952334e-15 -9.2583537711205546e-02 0.0000000000000000e+00  -2.6678678251029291e-15 -9.2583537711206212e-02 0.0000000000000000e+00  -2.7224993919227184e-15 -9.2583537711206615e-02 0.0000000000000000e+00  -2.6962580279947050e-15 -9.2583537711207461e-02 0.0000000000000000e+00  -2.6212073861457403e-15 -9.2583537711208030e-02 0.0000000000000000e+00  -2.4364435345350804e-15 -9.2583537711208669e-02 0.0000000000000000e+00  -2.1963475903110576e-15 -9.2583537711209113e-02 0.0000000000000000e+00  -1.9026057981075692e-15 -9.2583537711209418e-02 0.0000000000000000e+00  -1.5687463538331810e-15 -9.2583537711209765e-02 0.0000000000000000e+00  -1.2080231376544527e-15 -9.2583537711209918e-02 0.0000000000000000e+00  -8.1031716292265278e-16 -9.2583537711210168e-02 0.0000000000000000e+00  -3.9576004421073878e-16 -9.2583537711210306e-02 0.0000000000000000e+00  9.3889084788877715e-32 -9.2583537711210279e-02 0.0000000000000000e+00  -3.4098799563318724e-32 -1.0597524176878066e-01 0.0000000000000000e+00  -4.1373787776750691e-16 -1.0597524176878084e-01 0.0000000000000000e+00  -8.2318105598399137e-16 -1.0597524176878091e-01 0.0000000000000000e+00  -1.2141785450836737e-15 -1.0597524176878095e-01 0.0000000000000000e+00  -1.5990683874777633e-15 -1.0597524176878099e-01 0.0000000000000000e+00  -1.9468273371146961e-15 -1.0597524176878126e-01 0.0000000000000000e+00  -2.2432899899907753e-15 -1.0597524176878179e-01 0.0000000000000000e+00  -2.5058493301691239e-15 -1.0597524176878213e-01 0.0000000000000000e+00  -2.6735277579246303e-15 -1.0597524176878273e-01 0.0000000000000000e+00  -2.7888362414640005e-15 -1.0597524176878328e-01 0.0000000000000000e+00  -2.8696495524717060e-15 -1.0597524176878410e-01 0.0000000000000000e+00  -2.8466489339457829e-15 -1.0597524176878487e-01 0.0000000000000000e+00  -2.7331989257385723e-15 -1.0597524176878552e-01 0.0000000000000000e+00  -2.5475620274343103e-15 -1.0597524176878620e-01 0.0000000000000000e+00  -2.2991776598454981e-15 -1.0597524176878682e-01 0.0000000000000000e+00  -1.9988299437170729e-15 -1.0597524176878712e-01 0.0000000000000000e+00  -1.6431191137172216e-15 -1.0597524176878749e-01 0.0000000000000000e+00  -1.2489050315561022e-15 -1.0597524176878773e-01 0.0000000000000000e+00  -8.3536932440975507e-16 -1.0597524176878800e-01 0.0000000000000000e+00  -4.3634960704144916e-16 -1.0597524176878821e-01 0.0000000000000000e+00  1.3565511276659227e-31 -1.0597524176878817e-01 0.0000000000000000e+00  7.9444610205973391e-32 -1.1943261871511503e-01 0.0000000000000000e+00  -4.4924164212444056e-16 -1.1943261871511499e-01 0.0000000000000000e+00  -8.8950037021198319e-16 -1.1943261871511508e-01 0.0000000000000000e+00  -1.2884281700344447e-15 -1.1943261871511519e-01 0.0000000000000000e+00  -1.6814945930178535e-15 -1.1943261871511529e-01 0.0000000000000000e+00  -2.0369775741638408e-15 -1.1943261871511572e-01 0.0000000000000000e+00  -2.3398940800162019e-15 -1.1943261871511607e-01 0.0000000000000000e+00  -2.5904337035311200e-15 -1.1943261871511671e-01 0.0000000000000000e+00  -2.7798984651913354e-15 -1.1943261871511722e-01 0.0000000000000000e+00  -2.9282234612324826e-15 -1.1943261871511783e-01 0.0000000000000000e+00  -2.9861527892976646e-15 -1.1943261871511858e-01 0.0000000000000000e+00  -2.9569656901485476e-15 -1.1943261871511963e-01 0.0000000000000000e+00  -2.8438297108165053e-15 -1.1943261871512051e-01 0.0000000000000000e+00  -2.6460577875595107e-15 -1.1943261871512116e-01 0.0000000000000000e+00  -2.3976296817414139e-15 -1.1943261871512166e-01 0.0000000000000000e+00  -2.0762070067877355e-15 -1.1943261871512238e-01 0.0000000000000000e+00  -1.7192755226391776e-15 -1.1943261871512266e-01 0.0000000000000000e+00  -1.2956994136120924e-15 -1.1943261871512303e-01 0.0000000000000000e+00  -8.7545754291558877e-16 -1.1943261871512326e-01 0.0000000000000000e+00  -4.4539726933552924e-16 -1.1943261871512340e-01 0.0000000000000000e+00  -7.9167781286354699e-32 -1.1943261871512353e-01 0.0000000000000000e+00  4.3590529812084461e-32 -1.3296355347090719e-01 0.0000000000000000e+00  -4.8632921168942639e-16 -1.3296355347090733e-01 0.0000000000000000e+00  -9.3917229341942036e-16 -1.3296355347090719e-01 0.0000000000000000e+00  -1.3490675457358967e-15 -1.3296355347090738e-01 0.0000000000000000e+00  -1.7192214726683312e-15 -1.3296355347090758e-01 0.0000000000000000e+00  -2.0961566449159310e-15 -1.3296355347090805e-01 0.0000000000000000e+00  -2.4177632958815326e-15 -1.3296355347090838e-01 0.0000000000000000e+00  -2.6723943975984455e-15 -1.3296355347090905e-01 0.0000000000000000e+00  -2.8915619621940486e-15 -1.3296355347090974e-01 0.0000000000000000e+00  -3.0220419699393785e-15 -1.3296355347091035e-01 0.0000000000000000e+00  -3.0734975421847349e-15 -1.3296355347091146e-01 0.0000000000000000e+00  -3.0517297609573159e-15 -1.3296355347091263e-01 0.0000000000000000e+00  -2.9245172428557867e-15 -1.3296355347091335e-01 0.0000000000000000e+00  -2.7183622087413463e-15 -1.3296355347091426e-01 0.0000000000000000e+00  -2.4549496758235501e-15 -1.3296355347091476e-01 0.0000000000000000e+00  -2.1444366446934033e-15 -1.3296355347091537e-01 0.0000000000000000e+00  -1.7687496807527867e-15 -1.3296355347091596e-01 0.0000000000000000e+00  -1.3526089996074041e-15 -1.3296355347091632e-01 0.0000000000000000e+00  -9.1894598092919394e-16 -1.3296355347091651e-01 0.0000000000000000e+00  -4.6876718258137814e-16 -1.3296355347091668e-01 0.0000000000000000e+00  1.4186537536780986e-31 -1.3296355347091682e-01 0.0000000000000000e+00  7.2222372914521262e-33 -1.4657581764584429e-01 0.0000000000000000e+00  -5.1120402218969088e-16 -1.4657581764584435e-01 0.0000000000000000e+00  -9.5046031388672794e-16 -1.4657581764584443e-01 0.0000000000000000e+00  -1.3890276744053192e-15 -1.4657581764584471e-01 0.0000000000000000e+00  -1.7708309836716192e-15 -1.4657581764584479e-01 0.0000000000000000e+00  -2.1061528589429429e-15 -1.4657581764584529e-01 0.0000000000000000e+00  -2.4674917445053084e-15 -1.4657581764584576e-01 0.0000000000000000e+00  -2.7487957943688422e-15 -1.4657581764584621e-01 0.0000000000000000e+00  -2.9645328009592793e-15 -1.4657581764584707e-01 0.0000000000000000e+00  -3.0947502702553275e-15 -1.4657581764584796e-01 0.0000000000000000e+00  -3.1434382044594117e-15 -1.4657581764584901e-01 0.0000000000000000e+00  -3.1405068096643472e-15 -1.4657581764585009e-01 0.0000000000000000e+00  -3.0025839804348371e-15 -1.4657581764585115e-01 0.0000000000000000e+00  -2.7846558634410560e-15 -1.4657581764585215e-01 0.0000000000000000e+00  -2.5162963927337219e-15 -1.4657581764585270e-01 0.0000000000000000e+00  -2.1679139596729397e-15 -1.4657581764585348e-01 0.0000000000000000e+00  -1.8134846218236894e-15 -1.4657581764585398e-01 0.0000000000000000e+00  -1.4030518673568526e-15 -1.4657581764585453e-01 0.0000000000000000e+00  -9.4782028875477599e-16 -1.4657581764585478e-01 0.0000000000000000e+00  -4.7922004148080918e-16 -1.4657581764585487e-01 0.0000000000000000e+00  3.6111186457260612e-32 -1.4657581764585506e-01 0.0000000000000000e+00  4.9878576294091304e-32 -1.6027705756180685e-01 0.0000000000000000e+00  -4.8841776271938849e-16 -1.6027705756180680e-01 0.0000000000000000e+00  -9.6576487907563611e-16 -1.6027705756180727e-01 0.0000000000000000e+00  -1.4337295266599694e-15 -1.6027705756180727e-01 0.0000000000000000e+00  -1.8472780324988470e-15 -1.6027705756180777e-01 0.0000000000000000e+00  -2.1903425022689966e-15 -1.6027705756180805e-01 0.0000000000000000e+00  -2.5219716396725540e-15 -1.6027705756180860e-01 0.0000000000000000e+00  -2.8028735444548489e-15 -1.6027705756180924e-01 0.0000000000000000e+00  -3.0086375771695887e-15 -1.6027705756180999e-01 0.0000000000000000e+00  -3.1809816779654559e-15 -1.6027705756181101e-01 0.0000000000000000e+00  -3.2350258800578996e-15 -1.6027705756181215e-01 0.0000000000000000e+00  -3.1816220464121149e-15 -1.6027705756181354e-01 0.0000000000000000e+00  -3.0605255491817131e-15 -1.6027705756181468e-01 0.0000000000000000e+00  -2.8445722413417360e-15 -1.6027705756181562e-01 0.0000000000000000e+00  -2.5624709843779956e-15 -1.6027705756181648e-01 0.0000000000000000e+00  -2.2341660118938843e-15 -1.6027705756181707e-01 0.0000000000000000e+00  -1.8498872771884495e-15 -1.6027705756181784e-01 0.0000000000000000e+00  -1.4252483785698444e-15 -1.6027705756181815e-01 0.0000000000000000e+00  -9.5638720913386352e-16 -1.6027705756181840e-01 0.0000000000000000e+00  -4.6880499605743277e-16 -1.6027705756181873e-01 0.0000000000000000e+00  1.2543282882804291e-32 -1.6027705756181881e-01 0.0000000000000000e+00  1.4444474582904269e-32 -1.7407478246764951e-01 0.0000000000000000e+00  -4.8707513032879053e-16 -1.7407478246764968e-01 0.0000000000000000e+00  -9.9970826076689956e-16 -1.7407478246764960e-01 0.0000000000000000e+00  -1.4428251636769636e-15 -1.7407478246765004e-