<?xml version="1.0"?>
<VTKFile type="UnstructuredGrid"  version="0.1"  >
<UnstructuredGrid>
<Piece  NumberOfPoints="1091" NumberOfCells="2050">
<Points>
<DataArray  type="Float64"  NumberOfComponents="3"  format="ascii">-0.5 -1 0  -0.4 -1 0  -0.3 -1 0  -0.2 -1 0  -0.09999999999999998 -1 0  0 -1 0  0.09999999999999998 -1 0  0.2 -1 0  0.3 -1 0  0.4 -1 0  0.5 -1 0  -0.5 -0.98 0  -0.4 -0.98 0  -0.3 -0.98 0  -0.2 -0.98 0  -0.09999999999999998 -0.98 0  0 -0.98 0  0.09999999999999998 -0.98 0  0.2 -0.98 0  0.3 -0.98 0  0.4 -0.98 0  0.5 -0.98 0  -0.5 -0.96 0  -0.4 -0.96 0  -0.3 -0.96 0  -0.2 -0.96 0  -0.09999999999999998 -0.96 0  0 -0.96 0  0.09999999999999998 -0.96 0  0.2 -0.96 0  0.3 -0.96 0  0.4 -0.96 0  0.5 -0.96 0  -0.5 -0.9399999999999999 0  -0.4 -0.9399999999999999 0  -0.3 -0.9399999999999999 0  -0.2 -0.9399999999999999 0  -0.09999999999999998 -0.9399999999999999 0  0 -0.9399999999999999 0  0.09999999999999998 -0.9399999999999999 0  0.2 -0.9399999999999999 0  0.3 -0.9399999999999999 0  0.4 -0.9399999999999999 0  0.5 -0.9399999999999999 0  -0.5 -0.92 0  -0.4 -0.92 0  -0.3 -0.92 0  -0.2 -0.92 0  -0.09999999999999998 -0.92 0  0 -0.92 0  0.09999999999999998 -0.92 0  0.2 -0.92 0  0.3 -0.92 0  0.4 -0.92 0  0.5 -0.92 0  -0.5 -0.9 0  -0.4 -0.9 0  -0.3 -0.9 0  -0.2 -0.9 0  -0.09999999999999998 -0.9 0  0 -0.9 0  0.09999999999999998 -0.9 0  0.2 -0.9 0  0.3 -0.9 0  0.4 -0.9 0  0.5 -0.9 0  -0.5 -0.88 0  -0.4 -0.88 0  -0.3 -0.88 0  -0.2 -0.88 0  -0.09999999999999998 -0.88 0  0 -0.88 0  0.09999999999999998 -0.88 0  0.2 -0.88 0  0.3 -0.88 0  0.4 -0.88 0  0.5 -0.88 0  -0.5 -0.86 0  -0.4 -0.86 0  -0.3 -0.86 0  -0.2 -0.86 0  -0.09999999999999998 -0.86 0  0 -0.86 0  0.09999999999999998 -0.86 0  0.2 -0.86 0  0.3 -0.86 0  0.4 -0.86 0  0.5 -0.86 0  -0.5 -0.84 0  -0.4 -0.84 0  -0.3 -0.84 0  -0.2 -0.84 0  -0.09999999999999998 -0.84 0  0 -0.84 0  0.09999999999999998 -0.84 0  0.2 -0.84 0  0.3 -0.84 0  0.4 -0.84 0  0.5 -0.84 0  -0.5 -0.8200000000000001 0  -0.4 -0.8200000000000001 0  -0.3 -0.8200000000000001 0  -0.2 -0.8200000000000001 0  -0.09999999999999998 -0.8200000000000001 0  0 -0.8200000000000001 0  0.09999999999999998 -0.8200000000000001 0  0.2 -0.8200000000000001 0  0.3 -0.8200000000000001 0  0.4 -0.8200000000000001 0  0.5 -0.8200000000000001 0  -0.5 -0.8 0  -0.4 -0.8 0  -0.3 -0.8 0  -0.2 -0.8 0  -0.09999999999999998 -0.8 0  0 -0.8 0  0.09999999999999998 -0.8 0  0.2 -0.8 0  0.3 -0.8 0  0.4 -0.8 0  0.5 -0.8 0  -0.5 -0.78 0  -0.4 -0.78 0  -0.3 -0.78 0  -0.2 -0.78 0  -0.09999999999999998 -0.78 0  0 -0.78 0  0.09999999999999998 -0.78 0  0.2 -0.78 0  0.3 -0.78 0  0.4 -0.78 0  0.5 -0.78 0  -0.5 -0.76 0  -0.4 -0.76 0  -0.3 -0.76 0  -0.2 -0.76 0  -0.09999999999999998 -0.76 0  0 -0.76 0  0.09999999999999998 -0.76 0  0.2 -0.76 0  0.3 -0.76 0  0.4 -0.76 0  0.5 -0.76 0  -0.5 -0.74 0  -0.4 -0.74 0  -0.3 -0.74 0  -0.2 -0.74 0  -0.09999999999999998 -0.74 0  0 -0.74 0  0.09999999999999998 -0.74 0  0.2 -0.74 0  0.3 -0.74 0  0.4 -0.74 0  0.5 -0.74 0  -0.5 -0.72 0  -0.4 -0.72 0  -0.3 -0.72 0  -0.2 -0.72 0  -0.09999999999999998 -0.72 0  0 -0.72 0  0.09999999999999998 -0.72 0  0.2 -0.72 0  0.3 -0.72 0  0.4 -0.72 0  0.5 -0.72 0  -0.5 -0.7 0  -0.4 -0.7 0  -0.3 -0.7 0  -0.2 -0.7 0  -0.09999999999999998 -0.7 0  0 -0.7 0  0.09999999999999998 -0.7 0  0.2 -0.7 0  0.3 -0.7 0  0.4 -0.7 0  0.5 -0.7 0  -0.5 -0.6799999999999999 0  -0.4 -0.6799999999999999 0  -0.3 -0.6799999999999999 0  -0.2 -0.6799999999999999 0  -0.09999999999999998 -0.6799999999999999 0  0 -0.6799999999999999 0  0.09999999999999998 -0.6799999999999999 0  0.2 -0.6799999999999999 0  0.3 -0.6799999999999999 0  0.4 -0.6799999999999999 0  0.5 -0.6799999999999999 0  -0.5 -0.6599999999999999 0  -0.4 -0.6599999999999999 0  -0.3 -0.6599999999999999 0  -0.2 -0.6599999999999999 0  -0.09999999999999998 -0.6599999999999999 0  0 -0.6599999999999999 0  0.09999999999999998 -0.6599999999999999 0  0.2 -0.6599999999999999 0  0.3 -0.6599999999999999 0  0.4 -0.6599999999999999 0  0.5 -0.6599999999999999 0  -0.5 -0.64 0  -0.4 -0.64 0  -0.3 -0.64 0  -0.2 -0.64 0  -0.09999999999999998 -0.64 0  0 -0.64 0  0.09999999999999998 -0.64 0  0.2 -0.64 0  0.3 -0.64 0  0.4 -0.64 0  0.5 -0.64 0  -0.5 -0.62 0  -0.4 -0.62 0  -0.3 -0.62 0  -0.2 -0.62 0  -0.09999999999999998 -0.62 0  0 -0.62 0  0.09999999999999998 -0.62 0  0.2 -0.62 0  0.3 -0.62 0  0.4 -0.62 0  0.5 -0.62 0  -0.5 -0.6 0  -0.4 -0.6 0  -0.3 -0.6 0  -0.2 -0.6 0  -0.09999999999999998 -0.6 0  0 -0.6 0  0.09999999999999998 -0.6 0  0.2 -0.6 0  0.3 -0.6 0  0.4 -0.6 0  0.5 -0.6 0  -0.5 -0.5800000000000001 0  -0.4 -0.5800000000000001 0  -0.3 -0.5800000000000001 0  -0.2 -0.5800000000000001 0  -0.09999999999999998 -0.5800000000000001 0  0 -0.5800000000000001 0  0.09999999999999998 -0.5800000000000001 0  0.2 -0.5800000000000001 0  0.3 -0.5800000000000001 0  0.4 -0.5800000000000001 0  0.5 -0.5800000000000001 0  -0.5 -0.5600000000000001 0  -0.4 -0.5600000000000001 0  -0.3 -0.5600000000000001 0  -0.2 -0.5600000000000001 0  -0.09999999999999998 -0.5600000000000001 0  0 -0.5600000000000001 0  0.09999999999999998 -0.5600000000000001 0  0.2 -0.5600000000000001 0  0.3 -0.5600000000000001 0  0.4 -0.5600000000000001 0  0.5 -0.5600000000000001 0  -0.5 -0.54 0  -0.4 -0.54 0  -0.3 -0.54 0  -0.2 -0.54 0  -0.09999999999999998 -0.54 0  0 -0.54 0  0.09999999999999998 -0.54 0  0.2 -0.54 0  0.3 -0.54 0  0.4 -0.54 0  0.5 -0.54 0  -0.5 -0.52 0  -0.4 -0.52 0  -0.3 -0.52 0  -0.2 -0.52 0  -0.09999999999999998 -0.52 0  0 -0.52 0  0.09999999999999998 -0.52 0  0.2 -0.52 0  0.3 -0.52 0  0.4 -0.52 0  0.5 -0.52 0  -0.5 -0.5 0  -0.4 -0.5 0  -0.3 -0.5 0  -0.2 -0.5 0  -0.09999999999999998 -0.5 0  0 -0.5 0  0.09999999999999998 -0.5 0  0.2 -0.5 0  0.3 -0.5 0  0.4 -0.5 0  0.5 -0.5 0  -0.5 -0.48 0  -0.4 -0.48 0  -0.3 -0.48 0  -0.2 -0.48 0  -0.09999999999999998 -0.48 0  0 -0.48 0  0.09999999999999998 -0.48 0  0.2 -0.48 0  0.3 -0.48 0  0.4 -0.48 0  0.5 -0.48 0  -0.5 -0.46 0  -0.4 -0.46 0  -0.3 -0.46 0  -0.2 -0.46 0  -0.09999999999999998 -0.46 0  0 -0.46 0  0.09999999999999998 -0.46 0  0.2 -0.46 0  0.3 -0.46 0  0.4 -0.46 0  0.5 -0.46 0  -0.5 -0.4399999999999999 0  -0.4 -0.4399999999999999 0  -0.3 -0.4399999999999999 0  -0.2 -0.4399999999999999 0  -0.09999999999999998 -0.4399999999999999 0  0 -0.4399999999999999 0  0.09999999999999998 -0.4399999999999999 0  0.2 -0.4399999999999999 0  0.3 -0.4399999999999999 0  0.4 -0.4399999999999999 0  0.5 -0.4399999999999999 0  -0.5 -0.42 0  -0.4 -0.42 0  -0.3 -0.42 0  -0.2 -0.42 0  -0.09999999999999998 -0.42 0  0 -0.42 0  0.09999999999999998 -0.42 0  0.2 -0.42 0  0.3 -0.42 0  0.4 -0.42 0  0.5 -0.42 0  -0.5 -0.4 0  -0.4 -0.4 0  -0.3 -0.4 0  -0.2 -0.4 0  -0.09999999999999998 -0.4 0  0 -0.4 0  0.09999999999999998 -0.4 0  0.2 -0.4 0  0.3 -0.4 0  0.4 -0.4 0  0.5 -0.4 0  -0.5 -0.38 0  -0.4 -0.38 0  -0.3 -0.38 0  -0.2 -0.38 0  -0.09999999999999998 -0.38 0  0 -0.38 0  0.09999999999999998 -0.38 0  0.2 -0.38 0  0.3 -0.38 0  0.4 -0.38 0  0.5 -0.38 0  -0.5 -0.36 0  -0.4 -0.36 0  -0.3 -0.36 0  -0.2 -0.36 0  -0.09999999999999998 -0.36 0  0 -0.36 0  0.09999999999999998 -0.36 0  0.2 -0.36 0  0.3 -0.36 0  0.4 -0.36 0  0.5 -0.36 0  -0.5 -0.34 0  -0.4 -0.34 0  -0.3 -0.34 0  -0.2 -0.34 0  -0.09999999999999998 -0.34 0  0 -0.34 0  0.09999999999999998 -0.34 0  0.2 -0.34 0  0.3 -0.34 0  0.4 -0.34 0  0.5 -0.34 0  -0.5 -0.32 0  -0.4 -0.32 0  -0.3 -0.32 0  -0.2 -0.32 0  -0.09999999999999998 -0.32 0  0 -0.32 0  0.09999999999999998 -0.32 0  0.2 -0.32 0  0.3 -0.32 0  0.4 -0.32 0  0.5 -0.32 0  -0.5 -0.3 0  -0.4 -0.3 0  -0.3 -0.3 0  -0.2 -0.3 0  -0.09999999999999998 -0.3 0  0 -0.3 0  0.09999999999999998 -0.3 0  0.2 -0.3 0  0.3 -0.3 0  0.4 -0.3 0  0.5 -0.3 0  -0.5 -0.28 0  -0.4 -0.28 0  -0.3 -0.28 0  -0.2 -0.28 0  -0.09999999999999998 -0.28 0  0 -0.28 0  0.09999999999999998 -0.28 0  0.2 -0.28 0  0.3 -0.28 0  0.4 -0.28 0  0.5 -0.28 0  -0.5 -0.26 0  -0.4 -0.26 0  -0.3 -0.26 0  -0.2 -0.26 0  -0.09999999999999998 -0.26 0  0 -0.26 0  0.09999999999999998 -0.26 0  0.2 -0.26 0  0.3 -0.26 0  0.4 -0.26 0  0.5 -0.26 0  -0.5 -0.24 0  -0.4 -0.24 0  -0.3 -0.24 0  -0.2 -0.24 0  -0.09999999999999998 -0.24 0  0 -0.24 0  0.09999999999999998 -0.24 0  0.2 -0.24 0  0.3 -0.24 0  0.4 -0.24 0  0.5 -0.24 0  -0.5 -0.22 0  -0.4 -0.22 0  -0.3 -0.22 0  -0.2 -0.22 0  -0.09999999999999998 -0.22 0  0 -0.22 0  0.09999999999999998 -0.22 0  0.2 -0.22 0  0.3 -0.22 0  0.4 -0.22 0  0.5 -0.22 0  -0.5 -0.2 0  -0.4 -0.2 0  -0.3 -0.2 0  -0.2 -0.2 0  -0.09999999999999998 -0.2 0  0 -0.2 0  0.09999999999999998 -0.2 0  0.2 -0.2 0  0.3 -0.2 0  0.4 -0.2 0  0.5 -0.2 0  -0.5 -0.18 0  -0.4 -0.18 0  -0.3 -0.18 0  -0.2 -0.18 0  -0.09999999999999998 -0.18 0  0 -0.18 0  0.09999999999999998 -0.18 0  0.2 -0.18 0  0.3 -0.18 0  0.4 -0.18 0  0.5 -0.18 0  -0.5 -0.16 0  -0.4 -0.16 0  -0.3 -0.16 0  -0.2 -0.16 0  -0.09999999999999998 -0.16 0  0 -0.16 0  0.09999999999999998 -0.16 0  0.2 -0.16 0  0.3 -0.16 0  0.4 -0.16 0  0.5 -0.16 0  -0.5 -0.14 0  -0.4 -0.14 0  -0.3 -0.14 0  -0.2 -0.14 0  -0.09999999999999998 -0.14 0  0 -0.14 0  0.09999999999999998 -0.14 0  0.2 -0.14 0  0.3 -0.14 0  0.4 -0.14 0  0.5 -0.14 0  -0.5 -0.12 0  -0.4 -0.12 0  -0.3 -0.12 0  -0.2 -0.12 0  -0.09999999999999998 -0.12 0  0 -0.12 0  0.09999999999999998 -0.12 0  0.2 -0.12 0  0.3 -0.12 0  0.4 -0.12 0  0.5 -0.12 0  -0.5 -0.09999999999999998 0  -0.4 -0.09999999999999998 0  -0.3 -0.09999999999999998 0  -0.2 -0.09999999999999998 0  -0.09999999999999998 -0.09999999999999998 0  0 -0.09999999999999998 0  0.09999999999999998 -0.09999999999999998 0  0.2 -0.09999999999999998 0  0.3 -0.09999999999999998 0  0.4 -0.09999999999999998 0  0.5 -0.09999999999999998 0  -0.5 -0.07999999999999996 0  -0.4 -0.07999999999999996 0  -0.3 -0.07999999999999996 0  -0.2 -0.07999999999999996 0  -0.09999999999999998 -0.07999999999999996 0  0 -0.07999999999999996 0  0.09999999999999998 -0.07999999999999996 0  0.2 -0.07999999999999996 0  0.3 -0.07999999999999996 0  0.4 -0.07999999999999996 0  0.5 -0.07999999999999996 0  -0.5 -0.06000000000000005 0  -0.4 -0.06000000000000005 0  -0.3 -0.06000000000000005 0  -0.2 -0.06000000000000005 0  -0.09999999
[...]
<PointData  Vectors="displacement"> 
<DataArray  type="Float64"  Name="displacement"  NumberOfComponents="3" format="ascii">-7.0529661049337250e-35 0.0000000000000000e+00 0.0000000000000000e+00  -2.1158898314801154e-34 -3.7223127564886203e-20 0.0000000000000000e+00  4.7056508231354654e-34 -1.5121895573235022e-20 0.0000000000000000e+00  -2.8211864419734879e-34 2.9778502051908972e-20 0.0000000000000000e+00  -1.7032663199384146e-33 -2.5010275673252586e-20 0.0000000000000000e+00  -1.1284745767893948e-33 9.9261673506363216e-21 0.0000000000000000e+00  -2.0475642223385703e-33 -3.7802315552386724e-20 0.0000000000000000e+00  1.1002627123696599e-32 4.9630836753181608e-21 0.0000000000000000e+00  5.7116720140251910e-34 -3.3500814808397585e-20 0.0000000000000000e+00  2.8211864419734880e-33 -3.4741585727227138e-20 0.0000000000000000e+00  -1.6927118651840920e-33 1.9852334701272640e-20 0.0000000000000000e+00  -2.8211864419734879e-34 -2.7717265353417302e-04 0.0000000000000000e+00  -6.5157787092151328e-18 -2.7717265353417524e-04 0.0000000000000000e+00  4.8075279179953792e-18 -2.7717265353417920e-04 0.0000000000000000e+00  2.6333716575469462e-17 -2.7717265353418099e-04 0.0000000000000000e+00  3.2653649301587033e-17 -2.7717265353417709e-04 0.0000000000000000e+00  3.9154828546662491e-17 -2.7717265353417253e-04 0.0000000000000000e+00  4.4670683351998461e-17 -2.7717265353417346e-04 0.0000000000000000e+00  3.2676244829004538e-17 -2.7717265353416901e-04 0.0000000000000000e+00  2.9543306019290607e-17 -2.7717265353416961e-04 0.0000000000000000e+00  1.8707688352318830e-17 -2.7717265353416115e-04 0.0000000000000000e+00  -1.1642872595373372e-33 -2.7717265353416885e-04 0.0000000000000000e+00  1.3938972563028118e-33 -5.5434530706834518e-04 0.0000000000000000e+00  -9.9685505358433664e-18 -5.5434530706835168e-04 0.0000000000000000e+00  1.0799679839603598e-17 -5.5434530706836014e-04 0.0000000000000000e+00  4.8324123493282326e-17 -5.5434530706836502e-04 0.0000000000000000e+00  6.3654234898696379e-17 -5.5434530706835656e-04 0.0000000000000000e+00  7.6456198413123984e-17 -5.5434530706834550e-04 0.0000000000000000e+00  8.4251431481853950e-17 -5.5434530706834702e-04 0.0000000000000000e+00  6.3078103053659046e-17 -5.5434530706833802e-04 0.0000000000000000e+00  5.5924378587257951e-17 -5.5434530706833976e-04 0.0000000000000000e+00  3.5225746840311737e-17 -5.5434530706832024e-04 0.0000000000000000e+00  2.6599757881464308e-33 -5.5434530706833477e-04 0.0000000000000000e+00  2.8211864419734926e-34 -8.3151796060251652e-04 0.0000000000000000e+00  -1.1657203277946686e-17 -8.3151796060252931e-04 0.0000000000000000e+00  1.7245400389288792e-17 -8.3151796060254178e-04 0.0000000000000000e+00  6.7545832799753185e-17 -8.3151796060255306e-04 0.0000000000000000e+00  9.2042590486585457e-17 -8.3151796060253636e-04 0.0000000000000000e+00  1.1170439079476764e-16 -8.3151796060252281e-04 0.0000000000000000e+00  1.2034018124806447e-16 -8.3151796060252291e-04 0.0000000000000000e+00  8.9940946035610683e-17 -8.3151796060250741e-04 0.0000000000000000e+00  7.9661341649838158e-17 -8.3151796060250904e-04 0.0000000000000000e+00  5.0091481948163763e-17 -8.3151796060247738e-04 0.0000000000000000e+00  2.2569491535787930e-33 -8.3151796060249917e-04 0.0000000000000000e+00  -3.2269670176500933e-33 -1.1086906141366895e-03 0.0000000000000000e+00  -1.2189714227106710e-17 -1.1086906141367029e-03 0.0000000000000000e+00  2.3446653884328735e-17 -1.1086906141367240e-03 0.0000000000000000e+00  8.3931209141580675e-17 -1.1086906141367400e-03 0.0000000000000000e+00  1.1867606579945514e-16 -1.1086906141367164e-03 0.0000000000000000e+00  1.4377178645029158e-16 -1.1086906141367012e-03 0.0000000000000000e+00  1.5338693512214500e-16 -1.1086906141367014e-03 0.0000000000000000e+00  1.1433647679386957e-16 -1.1086906141366778e-03 0.0000000000000000e+00  1.0113112286803385e-16 -1.1086906141366713e-03 0.0000000000000000e+00  6.3036811656291425e-17 -1.1086906141366342e-03 0.0000000000000000e+00  5.9689448987090185e-33 -1.1086906141366639e-03 0.0000000000000000e+00  0.0000000000000000e+00 -1.3858632676708661e-03 0.0000000000000000e+00  -1.1606978603691543e-17 -1.3858632676708805e-03 0.0000000000000000e+00  2.9494653322753248e-17 -1.3858632676709084e-03 0.0000000000000000e+00  9.7835896947821971e-17 -1.3858632676709279e-03 0.0000000000000000e+00  1.4355672257231809e-16 -1.3858632676709015e-03 0.0000000000000000e+00  1.7319273735728913e-16 -1.3858632676708848e-03 0.0000000000000000e+00  1.8227417188227146e-16 -1.3858632676708837e-03 0.0000000000000000e+00  1.3857061276158900e-16 -1.3858632676708546e-03 0.0000000000000000e+00  1.2190659098014051e-16 -1.3858632676708288e-03 0.0000000000000000e+00  7.3371370682388814e-17 -1.3858632676707924e-03 0.0000000000000000e+00  -2.0370652281719794e-32 -1.3858632676708262e-03 0.0000000000000000e+00  -9.9342291609896497e-34 -1.6630359212050421e-03 0.0000000000000000e+00  -9.6651472443008050e-18 -1.6630359212050575e-03 0.0000000000000000e+00  3.4315746253615304e-17 -1.6630359212050892e-03 0.0000000000000000e+00  1.0968356509187290e-16 -1.6630359212051159e-03 0.0000000000000000e+00  1.6406244997404046e-16 -1.6630359212050840e-03 0.0000000000000000e+00  2.0092363065735718e-16 -1.6630359212050653e-03 0.0000000000000000e+00  2.0825037998732252e-16 -1.6630359212050671e-03 0.0000000000000000e+00  1.6214840076936564e-16 -1.6630359212050315e-03 0.0000000000000000e+00  1.4185461918272724e-16 -1.6630359212049914e-03 0.0000000000000000e+00  8.1441720673809064e-17 -1.6630359212049509e-03 0.0000000000000000e+00  -7.5769007298716515e-33 -1.6630359212049814e-03 0.0000000000000000e+00  -3.5264830524668600e-34 -1.9402085747392129e-03 0.0000000000000000e+00  -7.8917691742093271e-18 -1.9402085747392333e-03 0.0000000000000000e+00  3.8091685613007119e-17 -1.9402085747392711e-03 0.0000000000000000e+00  1.2015724288519431e-16 -1.9402085747393073e-03 0.0000000000000000e+00  1.8220660941871157e-16 -1.9402085747392654e-03 0.0000000000000000e+00  2.2666753947260876e-16 -1.9402085747392442e-03 0.0000000000000000e+00  2.3210031128696253e-16 -1.9402085747392424e-03 0.0000000000000000e+00  1.8376769795443856e-16 -1.9402085747392041e-03 0.0000000000000000e+00  1.6032052891533192e-16 -1.9402085747391505e-03 0.0000000000000000e+00  8.7361728026352464e-17 -1.9402085747390995e-03 0.0000000000000000e+00  1.1284745767893949e-32 -1.9402085747391392e-03 0.0000000000000000e+00  -1.1654863131993710e-33 -2.2173812282733777e-03 0.0000000000000000e+00  -8.2143330878248217e-18 -2.2173812282734089e-03 0.0000000000000000e+00  4.0639341542606630e-17 -2.2173812282734601e-03 0.0000000000000000e+00  1.2898391919918493e-16 -2.2173812282735013e-03 0.0000000000000000e+00  1.9845901988370162e-16 -2.2173812282734471e-03 0.0000000000000000e+00  2.4961894906751340e-16 -2.2173812282734245e-03 0.0000000000000000e+00  2.5568130825148458e-16 -2.2173812282734241e-03 0.0000000000000000e+00  2.0215275061593580e-16 -2.2173812282733755e-03 0.0000000000000000e+00  1.7812375777465355e-16 -2.2173812282733078e-03 0.0000000000000000e+00  9.2876078176029830e-17 -2.2173812282732471e-03 0.0000000000000000e+00  -1.7530170084726669e-32 -2.2173812282732914e-03 0.0000000000000000e+00  -3.2443644082695252e-33 -2.4945538818075454e-03 0.0000000000000000e+00  -1.1611511555562467e-17 -2.4945538818075767e-03 0.0000000000000000e+00  4.1693315974142700e-17 -2.4945538818076434e-03 0.0000000000000000e+00  1.3674018133654657e-16 -2.4945538818076925e-03 0.0000000000000000e+00  2.1378010777407959e-16 -2.4945538818076309e-03 0.0000000000000000e+00  2.6873125794372967e-16 -2.4945538818076014e-03 0.0000000000000000e+00  2.7676079688220816e-16 -2.4945538818076174e-03 0.0000000000000000e+00  2.2093205914876073e-16 -2.4945538818075532e-03 0.0000000000000000e+00  1.9497903329910206e-16 -2.4945538818074648e-03 0.0000000000000000e+00  9.7281741399435555e-17 -2.4945538818073988e-03 0.0000000000000000e+00  -7.3559240146514795e-33 -2.4945538818074487e-03 0.0000000000000000e+00  2.8346455976663617e-33 -2.7717265353417219e-03 0.0000000000000000e+00  -1.5942252281678219e-17 -2.7717265353417557e-03 0.0000000000000000e+00  3.9814040064658214e-17 -2.7717265353418394e-03 0.0000000000000000e+00  1.4378012185902425e-16 -2.7717265353418884e-03 0.0000000000000000e+00  2.2929556767500850e-16 -2.7717265353418177e-03 0.0000000000000000e+00  2.8355360232172984e-16 -2.7717265353417800e-03 0.0000000000000000e+00  2.9273437380172475e-16 -2.7717265353418181e-03 0.0000000000000000e+00  2.4262077681981345e-16 -2.7717265353417318e-03 0.0000000000000000e+00  2.1275041609467618e-16 -2.7717265353416165e-03 0.0000000000000000e+00  9.9168322847954662e-17 -2.7717265353415553e-03 0.0000000000000000e+00  4.6751089609846368e-33 -2.7717265353416052e-03 0.0000000000000000e+00  -1.9748305093814416e-33 -3.0488991888759044e-03 0.0000000000000000e+00  -2.2323190295691790e-17 -3.0488991888759378e-03 0.0000000000000000e+00  3.4791550465858355e-17 -3.0488991888760549e-03 0.0000000000000000e+00  1.5155043413986503e-16 -3.0488991888760826e-03 0.0000000000000000e+00  2.4490665444743689e-16 -3.0488991888760080e-03 0.0000000000000000e+00  2.9598285977829957e-16 -3.0488991888759590e-03 0.0000000000000000e+00  3.0461732031926098e-16 -3.0488991888760085e-03 0.0000000000000000e+00  2.6330804764399575e-16 -3.0488991888759139e-03 0.0000000000000000e+00  2.3070190633957307e-16 -3.0488991888757803e-03 0.0000000000000000e+00  9.9825135680576447e-17 -3.0488991888757088e-03 0.0000000000000000e+00  -2.2569491535787900e-33 -3.0488991888757565e-03 0.0000000000000000e+00  2.6110762044175194e-33 -3.3260718424100773e-03 0.0000000000000000e+00  -3.2097318746616233e-17 -3.3260718424101272e-03 0.0000000000000000e+00  2.9868845428624107e-17 -3.3260718424102686e-03 0.0000000000000000e+00  1.6204401146746672e-16 -3.3260718424102777e-03 0.0000000000000000e+00  2.6103641305550338e-16 -3.3260718424101901e-03 0.0000000000000000e+00  3.0505845226010020e-16 -3.3260718424101428e-03 0.0000000000000000e+00  3.1225789718868004e-16 -3.3260718424102009e-03 0.0000000000000000e+00  2.8451687562424127e-16 -3.3260718424100891e-03 0.0000000000000000e+00  2.4629428350670787e-16 -3.3260718424099459e-03 0.0000000000000000e+00  1.0193480069015339e-16 -3.3260718424098709e-03 0.0000000000000000e+00  -2.4844006224114146e-32 -3.3260718424099013e-03 0.0000000000000000e+00  -1.0156271191104556e-32 -3.6032444959442603e-03 0.0000000000000000e+00  -4.6095172118634483e-17 -3.6032444959443245e-03 0.0000000000000000e+00  2.3715464132081279e-17 -3.6032444959444732e-03 0.0000000000000000e+00  1.7447169936469542e-16 -3.6032444959444633e-03 0.0000000000000000e+00  2.7574615887269562e-16 -3.6032444959443787e-03 0.0000000000000000e+00  3.1131120132428432e-16 -3.6032444959443397e-03 0.0000000000000000e+00  3.1828104900738680e-16 -3.6032444959443800e-03 0.0000000000000000e+00  3.0506826728157054e-16 -3.6032444959442603e-03 0.0000000000000000e+00  2.5966872791576359e-16 -3.6032444959441154e-03 0.0000000000000000e+00  1.0534300852054714e-16 -3.6032444959440179e-03 0.0000000000000000e+00  3.1843205636567447e-32 -3.6032444959440539e-03 0.0000000000000000e+00  -8.9860553634415656e-33 -3.8804171494784346e-03 0.0000000000000000e+00  -6.0996117206457833e-17 -3.8804171494785243e-03 0.0000000000000000e+00  1.7564394874413596e-17 -3.8804171494786605e-03 0.0000000000000000e+00  1.8986776151430555e-16 -3.8804171494786453e-03 0.0000000000000000e+00  2.8546725811590456e-16 -3.8804171494785651e-03 0.0000000000000000e+00  3.1377536515314747e-16 -3.8804171494785347e-03 0.0000000000000000e+00  3.2689422368877246e-16 -3.8804171494785495e-03 0.0000000000000000e+00  3.2080940784229837e-16 -3.8804171494784315e-03 0.0000000000000000e+00  2.7446204078570561e-16 -3.8804171494782854e-03 0.0000000000000000e+00  1.1162106487474164e-16 -3.8804171494781700e-03 0.0000000000000000e+00  -1.4025326882953910e-32 -3.8804171494782034e-03 0.0000000000000000e+00  -2.2569491535787903e-33 -4.1575898030126162e-03 0.0000000000000000e+00  -7.5462281051034137e-17 -4.1575898030127151e-03 0.0000000000000000e+00  1.2944968018098710e-17 -4.1575898030128513e-03 0.0000000000000000e+00  2.0304318578920710e-16 -4.1575898030128226e-03 0.0000000000000000e+00  2.9044641062335668e-16 -4.1575898030127558e-03 0.0000000000000000e+00  3.1505167635327344e-16 -4.1575898030127342e-03 0.0000000000000000e+00  3.3599124955149938e-16 -4.1575898030127107e-03 0.0000000000000000e+00  3.3451071702927280e-16 -4.1575898030126084e-03 0.0000000000000000e+00  2.8751258339089838e-16 -4.1575898030124566e-03 0.0000000000000000e+00  1.1716879480408083e-16 -4.1575898030123308e-03 0.0000000000000000e+00  6.7708474607363706e-33 -4.1575898030123603e-03 0.0000000000000000e+00  8.0978026694775474e-33 -4.4347624565468013e-03 0.0000000000000000e+00  -8.8062157758905346e-17 -4.4347624565469158e-03 0.0000000000000000e+00  9.6208948109460300e-18 -4.4347624565470329e-03 0.0000000000000000e+00  2.1145577021723697e-16 -4.4347624565469991e-03 0.0000000000000000e+00  2.8994884110173346e-16 -4.4347624565469652e-03 0.0000000000000000e+00  3.1938758203983435e-16 -4.4347624565469271e-03 0.0000000000000000e+00  3.4452434490728215e-16 -4.4347624565468768e-03 0.0000000000000000e+00  3.4657863860517120e-16 -4.4347624565467710e-03 0.0000000000000000e+00  3.0033801781962142e-16 -4.4347624565466261e-03 0.0000000000000000e+00  1.2224496781207348e-16 -4.4347624565464943e-03 0.0000000000000000e+00  1.0812851810549879e-32 -4.4347624565465290e-03 0.0000000000000000e+00  -1.3541694921472799e-32 -4.7119351100809830e-03 0.0000000000000000e+00  -9.9349551871083980e-17 -4.7119351100811243e-03 0.0000000000000000e+00  8.9265605700522997e-18 -4.7119351100812189e-03 0.0000000000000000e+00  2.1496675965927178e-16 -4.7119351100811937e-03 0.0000000000000000e+00  2.8649632050753062e-16 -4.7119351100811651e-03 0.0000000000000000e+00  3.2775902322233937e-16 -4.7119351100811131e-03 0.0000000000000000e+00  3.5558228513886914e-16 -4.7119351100810194e-03 0.0000000000000000e+00  3.5064759389974032e-16 -4.7119351100809179e-03 0.0000000000000000e+00  3.1141098588584828e-16 -4.7119351100807869e-03 0.0000000000000000e+00  1.2556131738764362e-16 -4.7119351100806577e-03 0.0000000000000000e+00  6.6065154028169910e-33 -4.7119351100807097e-03 0.0000000000000000e+00  -2.2357021936676408e-33 -4.9891077636151715e-03 0.0000000000000000e+00  -1.1046544120068328e-16 -4.9891077636153311e-03 0.0000000000000000e+00  1.4169407742309440e-17 -4.9891077636154144e-03 0.0000000000000000e+00  2.1452545312503477e-16 -4.9891077636153910e-03 0.0000000000000000e+00  2.8189138642270495e-16 -4.9891077636153641e-03 0.0000000000000000e+00  3.3844295024808817e-16 -4.9891077636152930e-03 0.0000000000000000e+00  3.7057560196749064e-16 -4.9891077636151698e-03 0.0000000000000000e+00  3.4803967903065353e-16 -4.9891077636150449e-03 0.0000000000000000e+00  3.1890758095276163e-16 -4.9891077636149330e-03 0.0000000000000000e+00  1.2653631753636834e-16 -4.9891077636148203e-03 0.0000000000000000e+00  -6.6096368069093212e-33 -4.9891077636148870e-03 0.0000000000000000e+00  -2.2569491535787903e-33 -5.2662804171493731e-03 0.0000000000000000e+00  -1.1963144379761672e-16 -5.2662804171495197e-03 0.0000000000000000e+00  2.0223004477286694e-17 -5.2662804171496255e-03 0.0000000000000000e+00  2.1229650582153030e-16 -5.2662804171495761e-03 0.0000000000000000e+00  2.7440754430528807e-16 -5.2662804171495587e-03 0.0000000000000000e+00  3.5671834717764965e-16 -5.2662804171494651e-03 0.0000000000000000e+00  3.8567691211011339e-16 -5.2662804171493219e-03 0.0000000000000000e+00  3.4468550068170062e-16 -5.2662804171491736e-03 0.0000000000000000e+00  3.1984278133813921e-16 -5.2662804171490695e-03 0.0000000000000000e+00  1.1881545918754129e-16 -5.2662804171489767e-03 0.0000000000000000e+00  -2.2569491535787900e-33 -5.2662804171490704e-03 0.0000000000000000e+00  4.1219102227637162e-33 -5.5434530706835782e-03 0.0000000000000000e+00  -1.2838927498646444e-16 -5.5434530706837005e-03 0.0000000000000000e+00  2.7074877704788357e-17 -5.5434530706838271e-03 0.0000000000000000e+00  2.0766344452664493e-16 -5.5434530706837811e-03 0.0000000000000000e+00  2.6873957332386013e-16 -5.5434530706837569e-03 0.0000000000000000e+00  3.7642007316507576e-16 -5.5434530706836224e-03 0.0000000000000000e+00  4.0162002369588424e-16 -5.5434530706834871e-03 0.0000000000000000e+00  3.4013006639388843e-16 -5.5434530706833162e-03 0.0000000000000000e+00  3.1348671265091530e-16 -5.5434530706832148e-03 0.0000000000000000e+00  1.0923326988421318e-16 -5.5434530706831480e-03 0.0000000000000000e+00  -1.7573027780132024e-33 -5.5434530706832356e-03 0.0000000000000000e+00  -1.9184067805419749e-32 -5.8206257242177867e-03 0.0000000000000000e+00  -1.3438859337083848e-16 -5.8206257242178813e-03 0.0000000000000000e+00  2.7340969868963244e-17 -5.8206257242180183e-03 0.0000000000000000e+00  2.0655339072379902e-16 -5.8206257242179931e-03 0.0000000000000000e+00  2.6280758902329141e-16 -5.8206257242179229e-03 0.0000000000000000e+00  3.9430052423819044e-16 -5.8206257242177928e-03 0.0000000000000000e+00  4.2125507856423663e-16 -5.8206257242176583e-03 0.0000000000000000e+00  3.3132112418572739e-16 -5.8206257242174797e-03 0.0000000000000000e+00  3.0419245636572010e-16 -5.8206257242173678e-03 0.0000000000000000e+00  9.8607018574698697e-17 -5.8206257242173279e-03 0.0000000000000000e+00  -6.9950492579183624e-33 -5.8206257242174042e-03 0.0000000000000000e+00  6.6558219596189649e-33 -6.0977983777520022e-03 0.0000000000000000e+00  -1.3831920927580956e-16 -6.0977983777520612e-03 0.0000000000000000e+00  2.3669759835880898e-17 -6.0977983777522147e-03 0.0000000000000000e+00  2.0925434623518633e-16 -6.0977983777521973e-03 0.0000000000000000e+00  2.6081403187453374e-16 -6.0977983777520959e-03 0.0000000000000000e+00  4.1098254031298028e-16 -6.0977983777519553e-03 0.0000000000000000e+00  4.3572591883627592e-16 -6.0977983777518270e-03 0.0000000000000000e+00  3.2530903334800095e-16 -6.0977983777516795e-03 0.0000000000000000e+00  2.9562795984542222e-16 -6.0977983777515260e-03 0.0000000000000000e+00  8.2432983031074334e-17 -6.0977983777514887e-03 0.0000000000000000e+00  -4.9572276051819858e-33 -6.0977983777515728e-03 0.0000000000000000e+00  2.0312542382209112e-32 -6.3749710312862072e-03 0.0000000000000000e+00  -1.4328907658525208e-16 -6.3749710312862602e-03 0.0000000000000000e+00  1.7828174999713302e-17 -6.3749710312864189e-03 0.0000000000000000e+00  2.1350012664604828e-16 -6.3749710312864076e-03 0.0000000000000000e+00  2.6301806958321667e-16 -6.3749710312862567e-03 0.0000000000000000e+00  4.2943367401725827e-16 -6.3749710312861266e-03 0.0000000000000000e+00  4.4178952001297249e-16 -6.3749710312860138e-03 0.0000000000000000e+00  3.1753906501265870e-16 -6.3749710312858907e-03 0.0000000000000000e+00  2.8897609029385964e-16 -6.3749710312856955e-03 0.0000000000000000e+00  6.4343093695177519e-17 -6.3749710312856495e-03 0.0000000000000000e+00  6.2066101723416726e-33 -6.3749710312857345e-03 0.0000000000000000e+00  -2.2314947216776805e-32 -6.6521436848204253e-03 0.0000000000000000e+00  -1.4998030897940274e-16 -6.6521436848204583e-03 0.0000000000000000e+00  8.3673512562786381e-18 -6.6521436848206361e-03 0.0000000000000000e+00  2.1978008516988707e-16 -6.6521436848206213e-03 0.0000000000000000e+00  2.6768871715987380e-16 -6.6521436848204080e-03 0.0000000000000000e+00  4.4605433274536397e-16 -6.6521436848203152e-03 0.0000000000000000e+00  4.4131583810480496e-16 -6.6521436848202111e-03 0.0000000000000000e+00  3.0837843268953219e-16 -6.6521436848200983e-03 0.0000000000000000e+00  2.8060977846009724e-16 -6.6521436848198676e-03 0.0000000000000000e+00  4.9385093218515142e-17 -6.6521436848198104e-03 0.0000000000000000e+00  -5.0068525870714080e-33 -6.6521436848199014e-03 0.0000000000000000e+00  1.1284745767893952e-32 -6.9293163383546260e-03 0.0000000000000000e+00  -1.5450763950231049e-16 -6.9293163383546659e-03 0.0000000000000000e+00  -1.0738387015632609e-18 -6.9293163383548221e-03 0.0000000000000000e+00  2.2814754603552407e-16 -6.9293163383548290e-03 0.0000000000000000e+00  2.75122666