<?xml version="1.0"?>
<VTKFile type="UnstructuredGrid"  version="0.1"  >
<UnstructuredGrid>
<Piece  NumberOfPoints="1661" NumberOfCells="3200">
<Points>
<DataArray  type="Float64"  NumberOfComponents="3"  format="ascii">-0.25 -1 0  -0.225 -1 0  -0.2 -1 0  -0.175 -1 0  -0.15 -1 0  -0.125 -1 0  -0.1 -1 0  -0.07500000000000001 -1 0  -0.04999999999999999 -1 0  -0.02499999999999999 -1 0  0 -1 0  0.02500000000000002 -1 0  0.04999999999999999 -1 0  0.07500000000000001 -1 0  0.09999999999999998 -1 0  0.125 -1 0  0.15 -1 0  0.175 -1 0  0.2 -1 0  0.225 -1 0  0.25 -1 0  -0.25 -0.975 0  -0.225 -0.975 0  -0.2 -0.975 0  -0.175 -0.975 0  -0.15 -0.975 0  -0.125 -0.975 0  -0.1 -0.975 0  -0.07500000000000001 -0.975 0  -0.04999999999999999 -0.975 0  -0.02499999999999999 -0.975 0  0 -0.975 0  0.02500000000000002 -0.975 0  0.04999999999999999 -0.975 0  0.07500000000000001 -0.975 0  0.09999999999999998 -0.975 0  0.125 -0.975 0  0.15 -0.975 0  0.175 -0.975 0  0.2 -0.975 0  0.225 -0.975 0  0.25 -0.975 0  -0.25 -0.95 0  -0.225 -0.95 0  -0.2 -0.95 0  -0.175 -0.95 0  -0.15 -0.95 0  -0.125 -0.95 0  -0.1 -0.95 0  -0.07500000000000001 -0.95 0  -0.04999999999999999 -0.95 0  -0.02499999999999999 -0.95 0  0 -0.95 0  0.02500000000000002 -0.95 0  0.04999999999999999 -0.95 0  0.07500000000000001 -0.95 0  0.09999999999999998 -0.95 0  0.125 -0.95 0  0.15 -0.95 0  0.175 -0.95 0  0.2 -0.95 0  0.225 -0.95 0  0.25 -0.95 0  -0.25 -0.925 0  -0.225 -0.925 0  -0.2 -0.925 0  -0.175 -0.925 0  -0.15 -0.925 0  -0.125 -0.925 0  -0.1 -0.925 0  -0.07500000000000001 -0.925 0  -0.04999999999999999 -0.925 0  -0.02499999999999999 -0.925 0  0 -0.925 0  0.02500000000000002 -0.925 0  0.04999999999999999 -0.925 0  0.07500000000000001 -0.925 0  0.09999999999999998 -0.925 0  0.125 -0.925 0  0.15 -0.925 0  0.175 -0.925 0  0.2 -0.925 0  0.225 -0.925 0  0.25 -0.925 0  -0.25 -0.9 0  -0.225 -0.9 0  -0.2 -0.9 0  -0.175 -0.9 0  -0.15 -0.9 0  -0.125 -0.9 0  -0.1 -0.9 0  -0.07500000000000001 -0.9 0  -0.04999999999999999 -0.9 0  -0.02499999999999999 -0.9 0  0 -0.9 0  0.02500000000000002 -0.9 0  0.04999999999999999 -0.9 0  0.07500000000000001 -0.9 0  0.09999999999999998 -0.9 0  0.125 -0.9 0  0.15 -0.9 0  0.175 -0.9 0  0.2 -0.9 0  0.225 -0.9 0  0.25 -0.9 0  -0.25 -0.875 0  -0.225 -0.875 0  -0.2 -0.875 0  -0.175 -0.875 0  -0.15 -0.875 0  -0.125 -0.875 0  -0.1 -0.875 0  -0.07500000000000001 -0.875 0  -0.04999999999999999 -0.875 0  -0.02499999999999999 -0.875 0  0 -0.875 0  0.02500000000000002 -0.875 0  0.04999999999999999 -0.875 0  0.07500000000000001 -0.875 0  0.09999999999999998 -0.875 0  0.125 -0.875 0  0.15 -0.875 0  0.175 -0.875 0  0.2 -0.875 0  0.225 -0.875 0  0.25 -0.875 0  -0.25 -0.85 0  -0.225 -0.85 0  -0.2 -0.85 0  -0.175 -0.85 0  -0.15 -0.85 0  -0.125 -0.85 0  -0.1 -0.85 0  -0.07500000000000001 -0.85 0  -0.04999999999999999 -0.85 0  -0.02499999999999999 -0.85 0  0 -0.85 0  0.02500000000000002 -0.85 0  0.04999999999999999 -0.85 0  0.07500000000000001 -0.85 0  0.09999999999999998 -0.85 0  0.125 -0.85 0  0.15 -0.85 0  0.175 -0.85 0  0.2 -0.85 0  0.225 -0.85 0  0.25 -0.85 0  -0.25 -0.825 0  -0.225 -0.825 0  -0.2 -0.825 0  -0.175 -0.825 0  -0.15 -0.825 0  -0.125 -0.825 0  -0.1 -0.825 0  -0.07500000000000001 -0.825 0  -0.04999999999999999 -0.825 0  -0.02499999999999999 -0.825 0  0 -0.825 0  0.02500000000000002 -0.825 0  0.04999999999999999 -0.825 0  0.07500000000000001 -0.825 0  0.09999999999999998 -0.825 0  0.125 -0.825 0  0.15 -0.825 0  0.175 -0.825 0  0.2 -0.825 0  0.225 -0.825 0  0.25 -0.825 0  -0.25 -0.8 0  -0.225 -0.8 0  -0.2 -0.8 0  -0.175 -0.8 0  -0.15 -0.8 0  -0.125 -0.8 0  -0.1 -0.8 0  -0.07500000000000001 -0.8 0  -0.04999999999999999 -0.8 0  -0.02499999999999999 -0.8 0  0 -0.8 0  0.02500000000000002 -0.8 0  0.04999999999999999 -0.8 0  0.07500000000000001 -0.8 0  0.09999999999999998 -0.8 0  0.125 -0.8 0  0.15 -0.8 0  0.175 -0.8 0  0.2 -0.8 0  0.225 -0.8 0  0.25 -0.8 0  -0.25 -0.775 0  -0.225 -0.775 0  -0.2 -0.775 0  -0.175 -0.775 0  -0.15 -0.775 0  -0.125 -0.775 0  -0.1 -0.775 0  -0.07500000000000001 -0.775 0  -0.04999999999999999 -0.775 0  -0.02499999999999999 -0.775 0  0 -0.775 0  0.02500000000000002 -0.775 0  0.04999999999999999 -0.775 0  0.07500000000000001 -0.775 0  0.09999999999999998 -0.775 0  0.125 -0.775 0  0.15 -0.775 0  0.175 -0.775 0  0.2 -0.775 0  0.225 -0.775 0  0.25 -0.775 0  -0.25 -0.75 0  -0.225 -0.75 0  -0.2 -0.75 0  -0.175 -0.75 0  -0.15 -0.75 0  -0.125 -0.75 0  -0.1 -0.75 0  -0.07500000000000001 -0.75 0  -0.04999999999999999 -0.75 0  -0.02499999999999999 -0.75 0  0 -0.75 0  0.02500000000000002 -0.75 0  0.04999999999999999 -0.75 0  0.07500000000000001 -0.75 0  0.09999999999999998 -0.75 0  0.125 -0.75 0  0.15 -0.75 0  0.175 -0.75 0  0.2 -0.75 0  0.225 -0.75 0  0.25 -0.75 0  -0.25 -0.725 0  -0.225 -0.725 0  -0.2 -0.725 0  -0.175 -0.725 0  -0.15 -0.725 0  -0.125 -0.725 0  -0.1 -0.725 0  -0.07500000000000001 -0.725 0  -0.04999999999999999 -0.725 0  -0.02499999999999999 -0.725 0  0 -0.725 0  0.02500000000000002 -0.725 0  0.04999999999999999 -0.725 0  0.07500000000000001 -0.725 0  0.09999999999999998 -0.725 0  0.125 -0.725 0  0.15 -0.725 0  0.175 -0.725 0  0.2 -0.725 0  0.225 -0.725 0  0.25 -0.725 0  -0.25 -0.7 0  -0.225 -0.7 0  -0.2 -0.7 0  -0.175 -0.7 0  -0.15 -0.7 0  -0.125 -0.7 0  -0.1 -0.7 0  -0.07500000000000001 -0.7 0  -0.04999999999999999 -0.7 0  -0.02499999999999999 -0.7 0  0 -0.7 0  0.02500000000000002 -0.7 0  0.04999999999999999 -0.7 0  0.07500000000000001 -0.7 0  0.09999999999999998 -0.7 0  0.125 -0.7 0  0.15 -0.7 0  0.175 -0.7 0  0.2 -0.7 0  0.225 -0.7 0  0.25 -0.7 0  -0.25 -0.675 0  -0.225 -0.675 0  -0.2 -0.675 0  -0.175 -0.675 0  -0.15 -0.675 0  -0.125 -0.675 0  -0.1 -0.675 0  -0.07500000000000001 -0.675 0  -0.04999999999999999 -0.675 0  -0.02499999999999999 -0.675 0  0 -0.675 0  0.02500000000000002 -0.675 0  0.04999999999999999 -0.675 0  0.07500000000000001 -0.675 0  0.09999999999999998 -0.675 0  0.125 -0.675 0  0.15 -0.675 0  0.175 -0.675 0  0.2 -0.675 0  0.225 -0.675 0  0.25 -0.675 0  -0.25 -0.65 0  -0.225 -0.65 0  -0.2 -0.65 0  -0.175 -0.65 0  -0.15 -0.65 0  -0.125 -0.65 0  -0.1 -0.65 0  -0.07500000000000001 -0.65 0  -0.04999999999999999 -0.65 0  -0.02499999999999999 -0.65 0  0 -0.65 0  0.02500000000000002 -0.65 0  0.04999999999999999 -0.65 0  0.07500000000000001 -0.65 0  0.09999999999999998 -0.65 0  0.125 -0.65 0  0.15 -0.65 0  0.175 -0.65 0  0.2 -0.65 0  0.225 -0.65 0  0.25 -0.65 0  -0.25 -0.625 0  -0.225 -0.625 0  -0.2 -0.625 0  -0.175 -0.625 0  -0.15 -0.625 0  -0.125 -0.625 0  -0.1 -0.625 0  -0.07500000000000001 -0.625 0  -0.04999999999999999 -0.625 0  -0.02499999999999999 -0.625 0  0 -0.625 0  0.02500000000000002 -0.625 0  0.04999999999999999 -0.625 0  0.07500000000000001 -0.625 0  0.09999999999999998 -0.625 0  0.125 -0.625 0  0.15 -0.625 0  0.175 -0.625 0  0.2 -0.625 0  0.225 -0.625 0  0.25 -0.625 0  -0.25 -0.6 0  -0.225 -0.6 0  -0.2 -0.6 0  -0.175 -0.6 0  -0.15 -0.6 0  -0.125 -0.6 0  -0.1 -0.6 0  -0.07500000000000001 -0.6 0  -0.04999999999999999 -0.6 0  -0.02499999999999999 -0.6 0  0 -0.6 0  0.02500000000000002 -0.6 0  0.04999999999999999 -0.6 0  0.07500000000000001 -0.6 0  0.09999999999999998 -0.6 0  0.125 -0.6 0  0.15 -0.6 0  0.175 -0.6 0  0.2 -0.6 0  0.225 -0.6 0  0.25 -0.6 0  -0.25 -0.575 0  -0.225 -0.575 0  -0.2 -0.575 0  -0.175 -0.575 0  -0.15 -0.575 0  -0.125 -0.575 0  -0.1 -0.575 0  -0.07500000000000001 -0.575 0  -0.04999999999999999 -0.575 0  -0.02499999999999999 -0.575 0  0 -0.575 0  0.02500000000000002 -0.575 0  0.04999999999999999 -0.575 0  0.07500000000000001 -0.575 0  0.09999999999999998 -0.575 0  0.125 -0.575 0  0.15 -0.575 0  0.175 -0.575 0  0.2 -0.575 0  0.225 -0.575 0  0.25 -0.575 0  -0.25 -0.55 0  -0.225 -0.55 0  -0.2 -0.55 0  -0.175 -0.55 0  -0.15 -0.55 0  -0.125 -0.55 0  -0.1 -0.55 0  -0.07500000000000001 -0.55 0  -0.04999999999999999 -0.55 0  -0.02499999999999999 -0.55 0  0 -0.55 0  0.02500000000000002 -0.55 0  0.04999999999999999 -0.55 0  0.07500000000000001 -0.55 0  0.09999999999999998 -0.55 0  0.125 -0.55 0  0.15 -0.55 0  0.175 -0.55 0  0.2 -0.55 0  0.225 -0.55 0  0.25 -0.55 0  -0.25 -0.525 0  -0.225 -0.525 0  -0.2 -0.525 0  -0.175 -0.525 0  -0.15 -0.525 0  -0.125 -0.525 0  -0.1 -0.525 0  -0.07500000000000001 -0.525 0  -0.04999999999999999 -0.525 0  -0.02499999999999999 -0.525 0  0 -0.525 0  0.02500000000000002 -0.525 0  0.04999999999999999 -0.525 0  0.07500000000000001 -0.525 0  0.09999999999999998 -0.525 0  0.125 -0.525 0  0.15 -0.525 0  0.175 -0.525 0  0.2 -0.525 0  0.225 -0.525 0  0.25 -0.525 0  -0.25 -0.5 0  -0.225 -0.5 0  -0.2 -0.5 0  -0.175 -0.5 0  -0.15 -0.5 0  -0.125 -0.5 0  -0.1 -0.5 0  -0.07500000000000001 -0.5 0  -0.04999999999999999 -0.5 0  -0.02499999999999999 -0.5 0  0 -0.5 0  0.02500000000000002 -0.5 0  0.04999999999999999 -0.5 0  0.07500000000000001 -0.5 0  0.09999999999999998 -0.5 0  0.125 -0.5 0  0.15 -0.5 0  0.175 -0.5 0  0.2 -0.5 0  0.225 -0.5 0  0.25 -0.5 0  -0.25 -0.475 0  -0.225 -0.475 0  -0.2 -0.475 0  -0.175 -0.475 0  -0.15 -0.475 0  -0.125 -0.475 0  -0.1 -0.475 0  -0.07500000000000001 -0.475 0  -0.04999999999999999 -0.475 0  -0.02499999999999999 -0.475 0  0 -0.475 0  0.02500000000000002 -0.475 0  0.04999999999999999 -0.475 0  0.07500000000000001 -0.475 0  0.09999999999999998 -0.475 0  0.125 -0.475 0  0.15 -0.475 0  0.175 -0.475 0  0.2 -0.475 0  0.225 -0.475 0  0.25 -0.475 0  -0.25 -0.45 0  -0.225 -0.45 0  -0.2 -0.45 0  -0.175 -0.45 0  -0.15 -0.45 0  -0.125 -0.45 0  -0.1 -0.45 0  -0.07500000000000001 -0.45 0  -0.04999999999999999 -0.45 0  -0.02499999999999999 -0.45 0  0 -0.45 0  0.02500000000000002 -0.45 0  0.04999999999999999 -0.45 0  0.07500000000000001 -0.45 0  0.09999999999999998 -0.45 0  0.125 -0.45 0  0.15 -0.45 0  0.175 -0.45 0  0.2 -0.45 0  0.225 -0.45 0  0.25 -0.45 0  -0.25 -0.425 0  -0.225 -0.425 0  -0.2 -0.425 0  -0.175 -0.425 0  -0.15 -0.425 0  -0.125 -0.425 0  -0.1 -0.425 0  -0.07500000000000001 -0.425 0  -0.04999999999999999 -0.425 0  -0.02499999999999999 -0.425 0  0 -0.425 0  0.02500000000000002 -0.425 0  0.04999999999999999 -0.425 0  0.07500000000000001 -0.425 0  0.
[...]
<PointData  Vectors="displacement"> 
<DataArray  type="Float64"  Name="displacement"  NumberOfComponents="3" format="ascii">5.8680677993048668e-33 1.0164395367051616e-18 0.0000000000000000e+00  0.0000000000000000e+00 -1.6517142471458882e-18 0.0000000000000000e+00  1.7463144075815925e-32 1.8055698410807511e-18 0.0000000000000000e+00  2.8888949165808576e-32 -5.0821976835258088e-19 0.0000000000000000e+00  4.3751774697542015e-32 -1.1440543140872473e-18 0.0000000000000000e+00  0.0000000000000000e+00 1.0164395367051618e-18 0.0000000000000000e+00  8.1160084072852302e-32 -1.0860804702432410e-19 0.0000000000000000e+00  2.1666711874356431e-32 -6.3527471044072612e-19 0.0000000000000000e+00  7.2645843682286135e-32 1.9085251159906613e-18 0.0000000000000000e+00  -9.3889084788877912e-32 0.0000000000000000e+00 0.0000000000000000e+00  8.2153328946352024e-32 5.2399102568572113e-19 0.0000000000000000e+00  4.3333423748712894e-32 6.3527471044072660e-19 0.0000000000000000e+00  -5.7767178777114366e-32 -7.6545190536541183e-19 0.0000000000000000e+00  5.0555661040164985e-32 1.9058241313221777e-18 0.0000000000000000e+00  2.0795935735392289e-33 -6.0571705028889400e-19 0.0000000000000000e+00  7.9444610205973512e-32 2.5410988417629020e-19 0.0000000000000000e+00  -7.2115174521048325e-33 -1.3017727789050952e-19 0.0000000000000000e+00  1.0833355937178214e-32 -2.5410988417629039e-19 0.0000000000000000e+00  -3.5667041125076928e-33 1.4134862307306150e-18 0.0000000000000000e+00  1.0833355937178224e-32 7.6232965252887185e-19 0.0000000000000000e+00  7.2222372914521386e-33 1.5246593050577414e-18 0.0000000000000000e+00  -1.6250033905767283e-32 -1.0792044405597339e-02 0.0000000000000000e+00  -8.2454753992491475e-17 -1.0792044405597334e-02 0.0000000000000000e+00  -1.6520095762082830e-16 -1.0792044405597332e-02 0.0000000000000000e+00  -2.4860552714669541e-16 -1.0792044405597345e-02 0.0000000000000000e+00  -3.3005733882361667e-16 -1.0792044405597350e-02 0.0000000000000000e+00  -4.0847548777274097e-16 -1.0792044405597379e-02 0.0000000000000000e+00  -4.8486694407062658e-16 -1.0792044405597405e-02 0.0000000000000000e+00  -5.4772040303886505e-16 -1.0792044405597410e-02 0.0000000000000000e+00  -6.0092330125459404e-16 -1.0792044405597452e-02 0.0000000000000000e+00  -6.4210833054959141e-16 -1.0792044405597494e-02 0.0000000000000000e+00  -6.6001177109746095e-16 -1.0792044405597546e-02 0.0000000000000000e+00  -6.4916029685519991e-16 -1.0792044405597606e-02 0.0000000000000000e+00  -6.1677543507538253e-16 -1.0792044405597652e-02 0.0000000000000000e+00  -5.6924868424282149e-16 -1.0792044405597698e-02 0.0000000000000000e+00  -5.0912445809240818e-16 -1.0792044405597728e-02 0.0000000000000000e+00  -4.3467797699267203e-16 -1.0792044405597749e-02 0.0000000000000000e+00  -3.5956667334218273e-16 -1.0792044405597770e-02 0.0000000000000000e+00  -2.7654187700363325e-16 -1.0792044405597783e-02 0.0000000000000000e+00  -1.9083465701662002e-16 -1.0792044405597811e-02 0.0000000000000000e+00  -9.8762279326202936e-17 -1.0792044405597825e-02 0.0000000000000000e+00  -7.4620381390198688e-33 -1.0792044405597837e-02 0.0000000000000000e+00  1.4455225818606190e-32 -2.1596061880465173e-02 0.0000000000000000e+00  -1.5524363962724463e-16 -2.1596061880465190e-02 0.0000000000000000e+00  -3.0707517522906631e-16 -2.1596061880465183e-02 0.0000000000000000e+00  -4.5726275335683237e-16 -2.1596061880465176e-02 0.0000000000000000e+00  -6.0559299451944802e-16 -2.1596061880465228e-02 0.0000000000000000e+00  -7.4436847892632252e-16 -2.1596061880465249e-02 0.0000000000000000e+00  -8.7666837986091268e-16 -2.1596061880465308e-02 0.0000000000000000e+00  -9.9133467188386298e-16 -2.1596061880465364e-02 0.0000000000000000e+00  -1.0848125320111633e-15 -2.1596061880465426e-02 0.0000000000000000e+00  -1.1557348979318704e-15 -2.1596061880465527e-02 0.0000000000000000e+00  -1.1865049600105417e-15 -2.1596061880465631e-02 0.0000000000000000e+00  -1.1667268576586420e-15 -2.1596061880465804e-02 0.0000000000000000e+00  -1.1165102477650238e-15 -2.1596061880465884e-02 0.0000000000000000e+00  -1.0264542246661351e-15 -2.1596061880465988e-02 0.0000000000000000e+00  -9.1930784889983992e-16 -2.1596061880466064e-02 0.0000000000000000e+00  -7.9121540277383187e-16 -2.1596061880466089e-02 0.0000000000000000e+00  -6.5163816013345772e-16 -2.1596061880466151e-02 0.0000000000000000e+00  -5.0194468752760005e-16 -2.1596061880466200e-02 0.0000000000000000e+00  -3.3910951708756172e-16 -2.1596061880466238e-02 0.0000000000000000e+00  -1.7147542342610063e-16 -2.1596061880466293e-02 0.0000000000000000e+00  2.8373075073561948e-32 -2.1596061880466290e-02 0.0000000000000000e+00  7.2222372914521344e-33 -3.2424007339708065e-02 0.0000000000000000e+00  -2.1859172631264811e-16 -3.2424007339708044e-02 0.0000000000000000e+00  -4.2953550470012354e-16 -3.2424007339708058e-02 0.0000000000000000e+00  -6.3546550723596724e-16 -3.2424007339708086e-02 0.0000000000000000e+00  -8.3344129302018410e-16 -3.2424007339708107e-02 0.0000000000000000e+00  -1.0228893833323972e-15 -3.2424007339708190e-02 0.0000000000000000e+00  -1.1968825544129658e-15 -3.2424007339708280e-02 0.0000000000000000e+00  -1.3497107382931814e-15 -3.2424007339708356e-02 0.0000000000000000e+00  -1.4731860053775219e-15 -3.2424007339708481e-02 0.0000000000000000e+00  -1.5653143403047476e-15 -3.2424007339708641e-02 0.0000000000000000e+00  -1.6100770592719252e-15 -3.2424007339708849e-02 0.0000000000000000e+00  -1.5902530925721632e-15 -3.2424007339709050e-02 0.0000000000000000e+00  -1.5172907815878268e-15 -3.2424007339709224e-02 0.0000000000000000e+00  -1.3992936987848704e-15 -3.2424007339709369e-02 0.0000000000000000e+00  -1.2526883948710661e-15 -3.2424007339709467e-02 0.0000000000000000e+00  -1.0828993231137561e-15 -3.2424007339709585e-02 0.0000000000000000e+00  -8.8825722088252716e-16 -3.2424007339709633e-02 0.0000000000000000e+00  -6.8124583254249617e-16 -3.2424007339709703e-02 0.0000000000000000e+00  -4.6482974927526772e-16 -3.2424007339709807e-02 0.0000000000000000e+00  -2.3467751253322475e-16 -3.2424007339709841e-02 0.0000000000000000e+00  7.2222372914521317e-33 -3.2424007339709869e-02 0.0000000000000000e+00  2.0779801386660963e-33 -4.3287799413829181e-02 0.0000000000000000e+00  -2.6782922375924717e-16 -4.3287799413829237e-02 0.0000000000000000e+00  -5.2953283840201327e-16 -4.3287799413829195e-02 0.0000000000000000e+00  -7.8191390324309741e-16 -4.3287799413829257e-02 0.0000000000000000e+00  -1.0281385454318746e-15 -4.3287799413829264e-02 0.0000000000000000e+00  -1.2548241231598350e-15 -4.3287799413829459e-02 0.0000000000000000e+00  -1.4515660170391342e-15 -4.3287799413829466e-02 0.0000000000000000e+00  -1.6307144972734066e-15 -4.3287799413829688e-02 0.0000000000000000e+00  -1.7793250402490424e-15 -4.3287799413829792e-02 0.0000000000000000e+00  -1.8895855545684556e-15 -4.3287799413830041e-02 0.0000000000000000e+00  -1.9442797008657016e-15 -4.3287799413830333e-02 0.0000000000000000e+00  -1.9268442927392658e-15 -4.3287799413830631e-02 0.0000000000000000e+00  -1.8398610075965188e-15 -4.3287799413830923e-02 0.0000000000000000e+00  -1.7082324970098215e-15 -4.3287799413831103e-02 0.0000000000000000e+00  -1.5386033380691606e-15 -4.3287799413831235e-02 0.0000000000000000e+00  -1.3194125568323466e-15 -4.3287799413831408e-02 0.0000000000000000e+00  -1.0850365399988597e-15 -4.3287799413831492e-02 0.0000000000000000e+00  -8.2980748933282220e-16 -4.3287799413831630e-02 0.0000000000000000e+00  -5.5969931427055327e-16 -4.3287799413831700e-02 0.0000000000000000e+00  -2.8537664921041569e-16 -4.3287799413831790e-02 0.0000000000000000e+00  1.5329527369705950e-32 -4.3287799413831790e-02 0.0000000000000000e+00  -2.5277830520082498e-32 -5.4199302365778586e-02 0.0000000000000000e+00  -3.0461808739540770e-16 -5.4199302365778648e-02 0.0000000000000000e+00  -6.1184566997627941e-16 -5.4199302365778627e-02 0.0000000000000000e+00  -9.0927884111931540e-16 -5.4199302365778718e-02 0.0000000000000000e+00  -1.1754247159871170e-15 -5.4199302365778766e-02 0.0000000000000000e+00  -1.4281249428465031e-15 -5.4199302365778891e-02 0.0000000000000000e+00  -1.6648198798770066e-15 -5.4199302365779016e-02 0.0000000000000000e+00  -1.8550101793679194e-15 -5.4199302365779224e-02 0.0000000000000000e+00  -2.0183239761627732e-15 -5.4199302365779412e-02 0.0000000000000000e+00  -2.1391188525016986e-15 -5.4199302365779675e-02 0.0000000000000000e+00  -2.2004216138066369e-15 -5.4199302365780071e-02 0.0000000000000000e+00  -2.1814882815657002e-15 -5.4199302365780494e-02 0.0000000000000000e+00  -2.0959882926164219e-15 -5.4199302365780855e-02 0.0000000000000000e+00  -1.9527323877203376e-15 -5.4199302365781125e-02 0.0000000000000000e+00  -1.7454045925544445e-15 -5.4199302365781334e-02 0.0000000000000000e+00  -1.5096717211177489e-15 -5.4199302365781472e-02 0.0000000000000000e+00  -1.2564899343631737e-15 -5.4199302365781632e-02 0.0000000000000000e+00  -9.5361024021646470e-16 -5.4199302365781785e-02 0.0000000000000000e+00  -6.4838345026814976e-16 -5.4199302365781930e-02 0.0000000000000000e+00  -3.2764075732679755e-16 -5.4199302365781979e-02 0.0000000000000000e+00  -1.2390739015223888e-32 -5.4199302365782021e-02 0.0000000000000000e+00  -6.5351669639185822e-32 -6.5170308079282174e-02 0.0000000000000000e+00  -3.4050155132820001e-16 -6.5170308079282160e-02 0.0000000000000000e+00  -6.7194923755698923e-16 -6.5170308079282188e-02 0.0000000000000000e+00  -9.9786496046276681e-16 -6.5170308079282285e-02 0.0000000000000000e+00  -1.2969290504488377e-15 -6.5170308079282452e-02 0.0000000000000000e+00  -1.5739138192165326e-15 -6.5170308079282618e-02 0.0000000000000000e+00  -1.8368342092291444e-15 -6.5170308079282743e-02 0.0000000000000000e+00  -2.0511423436333817e-15 -6.5170308079282854e-02 0.0000000000000000e+00  -2.2184270034016268e-15 -6.5170308079283257e-02 0.0000000000000000e+00  -2.3323643419449179e-15 -6.5170308079283618e-02 0.0000000000000000e+00  -2.3845016248838214e-15 -6.5170308079284048e-02 0.0000000000000000e+00  -2.3737255713084548e-15 -6.5170308079284631e-02 0.0000000000000000e+00  -2.2883789313636148e-15 -6.5170308079284922e-02 0.0000000000000000e+00  -2.1333523492900885e-15 -6.5170308079285394e-02 0.0000000000000000e+00  -1.9185780338873054e-15 -6.5170308079285588e-02 0.0000000000000000e+00  -1.6723644317661975e-15 -6.5170308079285824e-02 0.0000000000000000e+00  -1.3758665211418727e-15 -6.5170308079286046e-02 0.0000000000000000e+00  -1.0617512980606761e-15 -6.5170308079286268e-02 0.0000000000000000e+00  -7.0957579532912032e-16 -6.5170308079286351e-02 0.0000000000000000e+00  -3.5768633169882820e-16 -6.5170308079286463e-02 0.0000000000000000e+00  5.6746150147123744e-33 -6.5170308079286532e-02 0.0000000000000000e+00  1.8055593228630336e-32 -7.6212518142313113e-02 0.0000000000000000e+00  -3.6442426403083683e-16 -7.6212518142313140e-02 0.0000000000000000e+00  -7.2067963752906733e-16 -7.6212518142313126e-02 0.0000000000000000e+00  -1.0660346497549185e-15 -7.6212518142313279e-02 0.0000000000000000e+00  -1.4115110458358921e-15 -7.6212518142313432e-02 0.0000000000000000e+00  -1.7233707247551016e-15 -7.6212518142313557e-02 0.0000000000000000e+00  -1.9786613327289525e-15 -7.6212518142313737e-02 0.0000000000000000e+00  -2.2088575171529061e-15 -7.6212518142314153e-02 0.0000000000000000e+00  -2.3825227148899742e-15 -7.6212518142314348e-02 0.0000000000000000e+00  -2.4940213361995837e-15 -7.6212518142314861e-02 0.0000000000000000e+00  -2.5487676782834349e-15 -7.6212518142315389e-02 0.0000000000000000e+00  -2.5336709194904647e-15 -7.6212518142315944e-02 0.0000000000000000e+00  -2.4447882813045223e-15 -7.6212518142316471e-02 0.0000000000000000e+00  -2.2716024014007397e-15 -7.6212518142316971e-02 0.0000000000000000e+00  -2.0605875760387143e-15 -7.6212518142317262e-02 0.0000000000000000e+00  -1.7855858809391253e-15 -7.6212518142317456e-02 0.0000000000000000e+00  -1.4658352093424697e-15 -7.6212518142317831e-02 0.0000000000000000e+00  -1.1324254337413067e-15 -7.6212518142318011e-02 0.0000000000000000e+00  -7.6448278764527745e-16 -7.6212518142318220e-02 0.0000000000000000e+00  -3.7196839176546578e-16 -7.6212518142318331e-02 0.0000000000000000e+00  1.2277803395468624e-31 -7.6212518142318331e-02 0.0000000000000000e+00  -6.8197599126637447e-32 -8.7337526049647660e-02 0.0000000000000000e+00  -3.8980636918065433e-16 -8.7337526049647549e-02 0.0000000000000000e+00  -7.7369830767451333e-16 -8.7337526049647576e-02 0.0000000000000000e+00  -1.1425082837419312e-15 -8.7337526049647701e-02 0.0000000000000000e+00  -1.5008325654652300e-15 -8.7337526049647868e-02 0.0000000000000000e+00  -1.8282098994199366e-15 -8.7337526049648076e-02 0.0000000000000000e+00  -2.1040572650915787e-15 -8.7337526049648437e-02 0.0000000000000000e+00  -2.3522916817388564e-15 -8.7337526049648742e-02 0.0000000000000000e+00  -2.5148370435208884e-15 -8.7337526049649089e-02 0.0000000000000000e+00  -2.6137923435525114e-15 -8.7337526049649686e-02 0.0000000000000000e+00  -2.6893934706464880e-15 -8.7337526049650102e-02 0.0000000000000000e+00  -2.6651614284030432e-15 -8.7337526049650976e-02 0.0000000000000000e+00  -2.5745082113348304e-15 -8.7337526049651532e-02 0.0000000000000000e+00  -2.4047612603048642e-15 -8.7337526049652101e-02 0.0000000000000000e+00  -2.1621069337801419e-15 -8.7337526049652420e-02 0.0000000000000000e+00  -1.8604235352673411e-15 -8.7337526049652808e-02 0.0000000000000000e+00  -1.5384783701594396e-15 -8.7337526049653086e-02 0.0000000000000000e+00  -1.1754403404717029e-15 -8.7337526049653322e-02 0.0000000000000000e+00  -7.9415622163970928e-16 -8.7337526049653572e-02 0.0000000000000000e+00  -4.0988981544110240e-16 -8.7337526049653738e-02 0.0000000000000000e+00  7.7186338621249979e-32 -8.7337526049653794e-02 0.0000000000000000e+00  6.1389016977343077e-32 -9.8556799548544113e-02 0.0000000000000000e+00  -4.1948754715590103e-16 -9.8556799548544100e-02 0.0000000000000000e+00  -8.2145145691691810e-16 -9.8556799548544113e-02 0.0000000000000000e+00  -1.1939430666794747e-15 -9.8556799548544224e-02 0.0000000000000000e+00  -1.5690706536582533e-15 -9.8556799548544266e-02 0.0000000000000000e+00  -1.9034475161056795e-15 -9.8556799548544655e-02 0.0000000000000000e+00  -2.2048448992902828e-15 -9.8556799548544946e-02 0.0000000000000000e+00  -2.4555626067437052e-15 -9.8556799548545376e-02 0.0000000000000000e+00  -2.6226670724239666e-15 -9.8556799548545959e-02 0.0000000000000000e+00  -2.7497580357988738e-15 -9.8556799548546389e-02 0.0000000000000000e+00  -2.8006532893543277e-15 -9.8556799548547167e-02 0.0000000000000000e+00  -2.7755575684627611e-15 -9.8556799548547860e-02 0.0000000000000000e+00  -2.6721965146166390e-15 -9.8556799548548596e-02 0.0000000000000000e+00  -2.4972244476949713e-15 -9.8556799548549193e-02 0.0000000000000000e+00  -2.2504786361132832e-15 -9.8556799548549928e-02 0.0000000000000000e+00  -1.9469832871677899e-15 -9.8556799548550025e-02 0.0000000000000000e+00  -1.6054462840375851e-15 -9.8556799548550358e-02 0.0000000000000000e+00  -1.2143947449670557e-15 -9.8556799548550761e-02 0.0000000000000000e+00  -8.1662019907985125e-16 -9.8556799548550816e-02 0.0000000000000000e+00  -4.1563669870591252e-16 -9.8556799548551136e-02 0.0000000000000000e+00  3.1615802186128485e-32 -9.8556799548551094e-02 0.0000000000000000e+00  7.6020795072477498e-33 -1.0988166315168925e-01 0.0000000000000000e+00  -4.3782591456485876e-16 -1.0988166315168928e-01 0.0000000000000000e+00  -8.6566433306891313e-16 -1.0988166315168928e-01 0.0000000000000000e+00  -1.2642528910514345e-15 -1.0988166315168948e-01 0.0000000000000000e+00  -1.6195533264283791e-15 -1.0988166315168964e-01 0.0000000000000000e+00  -1.9730042513288275e-15 -1.0988166315169003e-01 0.0000000000000000e+00  -2.2843679678336997e-15 -1.0988166315169014e-01 0.0000000000000000e+00  -2.5178587747034850e-15 -1.0988166315169086e-01 0.0000000000000000e+00  -2.7137189784333633e-15 -1.0988166315169130e-01 0.0000000000000000e+00  -2.8255433009288876e-15 -1.0988166315169207e-01 0.0000000000000000e+00  -2.8791338470226551e-15 -1.0988166315169273e-01 0.0000000000000000e+00  -2.8566178115113371e-15 -1.0988166315169365e-01 0.0000000000000000e+00  -2.7453246988855357e-15 -1.0988166315169431e-01 0.0000000000000000e+00  -2.5571041207224224e-15 -1.0988166315169516e-01 0.0000000000000000e+00  -2.3123658527319031e-15 -1.0988166315169567e-01 0.0000000000000000e+00  -2.0108091784731094e-15 -1.0988166315169604e-01 0.0000000000000000e+00  -1.6579088734661374e-15 -1.0988166315169648e-01 0.0000000000000000e+00  -1.2588065402090624e-15 -1.0988166315169681e-01 0.0000000000000000e+00  -8.5369562708111145e-16 -1.0988166315169701e-01 0.0000000000000000e+00  -4.4004392422481654e-16 -1.0988166315169712e-01 0.0000000000000000e+00  6.9643002453288478e-32 -1.0988166315169721e-01 0.0000000000000000e+00  -2.1666711874356379e-32 -1.2132328084166687e-01 0.0000000000000000e+00  -4.6429294610348827e-16 -1.2132328084166685e-01 0.0000000000000000e+00  -8.9160212712843699e-16 -1.2132328084166689e-01 0.0000000000000000e+00  -1.3072819503021198e-15 -1.2132328084166712e-01 0.0000000000000000e+00  -1.6820472378369005e-15 -1.2132328084166738e-01 0.0000000000000000e+00  -2.0240861199617351e-15 -1.2132328084166778e-01 0.0000000000000000e+00  -2.3270669795768048e-15 -1.2132328084166823e-01 0.0000000000000000e+00  -2.5644082902273510e-15 -1.2132328084166855e-01 0.0000000000000000e+00  -2.7664937077796763e-15 -1.2132328084166931e-01 0.0000000000000000e+00  -2.9014878909671933e-15 -1.2132328084167002e-01 0.0000000000000000e+00  -2.9449667115130435e-15 -1.2132328084167085e-01 0.0000000000000000e+00  -2.9314704306608759e-15 -1.2132328084167172e-01 0.0000000000000000e+00  -2.8002208895875561e-15 -1.2132328084167265e-01 0.0000000000000000e+00  -2.6080016576033844e-15 -1.2132328084167350e-01 0.0000000000000000e+00  -2.3662806986507557e-15 -1.2132328084167406e-01 0.0000000000000000e+00  -2.0645055278302548e-15 -1.2132328084167457e-01 0.0000000000000000e+00  -1.7071142791988355e-15 -1.2132328084167500e-01 0.0000000000000000e+00  -1.3116358587379412e-15 -1.2132328084167525e-01 0.0000000000000000e+00  -8.8987872000790578e-16 -1.2132328084167557e-01 0.0000000000000000e+00  -4.4374641991832599e-16 -1.2132328084167565e-01 0.0000000000000000e+00  3.6111186457260612e-32 -1.2132328084167589e-01 0.0000000000000000e+00  7.3689389864347559e-32 -1.3289263899131493e-01 0.0000000000000000e+00  -4.5877211142030844e-16 -1.3289263899131482e-01 0.0000000000000000e+00  -9.1236350787982593e-16 -1.3289263899131515e-01 0.0000000000000000e+00  -1.3550327691082491e-15 -1.3289263899131518e-01 0.0000000000000000e+00  -1.7434567643772343e-15 -1.3289263899131559e-01 0.0000000000000000e+00  -2.0642292122463747e-15 -1.3289263899131581e-01 0.0000000000000000e+00  -2.3745233192047730e-15 -1.3289263899131643e-01 0.0000000000000000e+00  -2.6312500674309308e-15 -1.3289263899131695e-01 0.0000000000000000e+00  -2.8123280830570597e-15 -1.3289263899131756e-01 0.0000000000000000e+00  -2.9714368156469916e-15 -1.3289263899131853e-01 0.0000000000000000e+00  -3.0212616234852969e-15 -1.3289263899131928e-01 0.0000000000000000e+00  -2.9711695579573825e-15 -1.3289263899132039e-01 0.0000000000000000e+00  -2.8789176471392810e-15 -1.3289263899132128e-01 0.0000000000000000e+00  -2.6751622739668461e-15 -1.3289263899132223e-01 0.0000000000000000e+00  -2.4067488169454771e-15 -1.3289263899132292e-01 0.0000000000000000e+00  -2.1109050193721771e-15 -1.3289263899132339e-01 0.0000000000000000e+00  -1.7423548601904079e-15 -1.3289263899132389e-01 0.0000000000000000e+00  -1.3468510744866570e-15 -1.3289263899132425e-01 0.0000000000000000e+00  -9.0976910927922090e-16 -1.3289263899132461e-01 0.0000000000000000e+00  -4.4373173772934928e-16 -1.3289263899132475e-01 0.0000000000000000e+00  1.0901095414013517e-31 -1.3289263899132489e-01 0.0000000000000000e+00  7.9444610205973479e-32 -1.4460052952444399e-01 0.0000000000000000e+00  -4.7493278712461462e-16 -1.4460052952444413e-01 0.0000000000000000e+00  -9.3798319406081231e-16 -1.4460052952444413e-01 0.0000000000000000e+00  -1.3564662173465125e-15 -1.4460052952444435e-01 0.0