<?xml version="1.0"?>
<VTKFile type="UnstructuredGrid"  version="0.1"  >
<UnstructuredGrid>
<Piece  NumberOfPoints="1661" NumberOfCells="3200">
<Points>
<DataArray  type="Float64"  NumberOfComponents="3"  format="ascii">-0.25 -1 0  -0.225 -1 0  -0.2 -1 0  -0.175 -1 0  -0.15 -1 0  -0.125 -1 0  -0.1 -1 0  -0.07500000000000001 -1 0  -0.04999999999999999 -1 0  -0.02499999999999999 -1 0  0 -1 0  0.02500000000000002 -1 0  0.04999999999999999 -1 0  0.07500000000000001 -1 0  0.09999999999999998 -1 0  0.125 -1 0  0.15 -1 0  0.175 -1 0  0.2 -1 0  0.225 -1 0  0.25 -1 0  -0.25 -0.975 0  -0.225 -0.975 0  -0.2 -0.975 0  -0.175 -0.975 0  -0.15 -0.975 0  -0.125 -0.975 0  -0.1 -0.975 0  -0.07500000000000001 -0.975 0  -0.04999999999999999 -0.975 0  -0.02499999999999999 -0.975 0  0 -0.975 0  0.02500000000000002 -0.975 0  0.04999999999999999 -0.975 0  0.07500000000000001 -0.975 0  0.09999999999999998 -0.975 0  0.125 -0.975 0  0.15 -0.975 0  0.175 -0.975 0  0.2 -0.975 0  0.225 -0.975 0  0.25 -0.975 0  -0.25 -0.95 0  -0.225 -0.95 0  -0.2 -0.95 0  -0.175 -0.95 0  -0.15 -0.95 0  -0.125 -0.95 0  -0.1 -0.95 0  -0.07500000000000001 -0.95 0  -0.04999999999999999 -0.95 0  -0.02499999999999999 -0.95 0  0 -0.95 0  0.02500000000000002 -0.95 0  0.04999999999999999 -0.95 0  0.07500000000000001 -0.95 0  0.09999999999999998 -0.95 0  0.125 -0.95 0  0.15 -0.95 0  0.175 -0.95 0  0.2 -0.95 0  0.225 -0.95 0  0.25 -0.95 0  -0.25 -0.925 0  -0.225 -0.925 0  -0.2 -0.925 0  -0.175 -0.925 0  -0.15 -0.925 0  -0.125 -0.925 0  -0.1 -0.925 0  -0.07500000000000001 -0.925 0  -0.04999999999999999 -0.925 0  -0.02499999999999999 -0.925 0  0 -0.925 0  0.02500000000000002 -0.925 0  0.04999999999999999 -0.925 0  0.07500000000000001 -0.925 0  0.09999999999999998 -0.925 0  0.125 -0.925 0  0.15 -0.925 0  0.175 -0.925 0  0.2 -0.925 0  0.225 -0.925 0  0.25 -0.925 0  -0.25 -0.9 0  -0.225 -0.9 0  -0.2 -0.9 0  -0.175 -0.9 0  -0.15 -0.9 0  -0.125 -0.9 0  -0.1 -0.9 0  -0.07500000000000001 -0.9 0  -0.04999999999999999 -0.9 0  -0.02499999999999999 -0.9 0  0 -0.9 0  0.02500000000000002 -0.9 0  0.04999999999999999 -0.9 0  0.07500000000000001 -0.9 0  0.09999999999999998 -0.9 0  0.125 -0.9 0  0.15 -0.9 0  0.175 -0.9 0  0.2 -0.9 0  0.225 -0.9 0  0.25 -0.9 0  -0.25 -0.875 0  -0.225 -0.875 0  -0.2 -0.875 0  -0.175 -0.875 0  -0.15 -0.875 0  -0.125 -0.875 0  -0.1 -0.875 0  -0.07500000000000001 -0.875 0  -0.04999999999999999 -0.875 0  -0.02499999999999999 -0.875 0  0 -0.875 0  0.02500000000000002 -0.875 0  0.04999999999999999 -0.875 0  0.07500000000000001 -0.875 0  0.09999999999999998 -0.875 0  0.125 -0.875 0  0.15 -0.875 0  0.175 -0.875 0  0.2 -0.875 0  0.225 -0.875 0  0.25 -0.875 0  -0.25 -0.85 0  -0.225 -0.85 0  -0.2 -0.85 0  -0.175 -0.85 0  -0.15 -0.85 0  -0.125 -0.85 0  -0.1 -0.85 0  -0.07500000000000001 -0.85 0  -0.04999999999999999 -0.85 0  -0.02499999999999999 -0.85 0  0 -0.85 0  0.02500000000000002 -0.85 0  0.04999999999999999 -0.85 0  0.07500000000000001 -0.85 0  0.09999999999999998 -0.85 0  0.125 -0.85 0  0.15 -0.85 0  0.175 -0.85 0  0.2 -0.85 0  0.225 -0.85 0  0.25 -0.85 0  -0.25 -0.825 0  -0.225 -0.825 0  -0.2 -0.825 0  -0.175 -0.825 0  -0.15 -0.825 0  -0.125 -0.825 0  -0.1 -0.825 0  -0.07500000000000001 -0.825 0  -0.04999999999999999 -0.825 0  -0.02499999999999999 -0.825 0  0 -0.825 0  0.02500000000000002 -0.825 0  0.04999999999999999 -0.825 0  0.07500000000000001 -0.825 0  0.09999999999999998 -0.825 0  0.125 -0.825 0  0.15 -0.825 0  0.175 -0.825 0  0.2 -0.825 0  0.225 -0.825 0  0.25 -0.825 0  -0.25 -0.8 0  -0.225 -0.8 0  -0.2 -0.8 0  -0.175 -0.8 0  -0.15 -0.8 0  -0.125 -0.8 0  -0.1 -0.8 0  -0.07500000000000001 -0.8 0  -0.04999999999999999 -0.8 0  -0.02499999999999999 -0.8 0  0 -0.8 0  0.02500000000000002 -0.8 0  0.04999999999999999 -0.8 0  0.07500000000000001 -0.8 0  0.09999999999999998 -0.8 0  0.125 -0.8 0  0.15 -0.8 0  0.175 -0.8 0  0.2 -0.8 0  0.225 -0.8 0  0.25 -0.8 0  -0.25 -0.775 0  -0.225 -0.775 0  -0.2 -0.775 0  -0.175 -0.775 0  -0.15 -0.775 0  -0.125 -0.775 0  -0.1 -0.775 0  -0.07500000000000001 -0.775 0  -0.04999999999999999 -0.775 0  -0.02499999999999999 -0.775 0  0 -0.775 0  0.02500000000000002 -0.775 0  0.04999999999999999 -0.775 0  0.07500000000000001 -0.775 0  0.09999999999999998 -0.775 0  0.125 -0.775 0  0.15 -0.775 0  0.175 -0.775 0  0.2 -0.775 0  0.225 -0.775 0  0.25 -0.775 0  -0.25 -0.75 0  -0.225 -0.75 0  -0.2 -0.75 0  -0.175 -0.75 0  -0.15 -0.75 0  -0.125 -0.75 0  -0.1 -0.75 0  -0.07500000000000001 -0.75 0  -0.04999999999999999 -0.75 0  -0.02499999999999999 -0.75 0  0 -0.75 0  0.02500000000000002 -0.75 0  0.04999999999999999 -0.75 0  0.07500000000000001 -0.75 0  0.09999999999999998 -0.75 0  0.125 -0.75 0  0.15 -0.75 0  0.175 -0.75 0  0.2 -0.75 0  0.225 -0.75 0  0.25 -0.75 0  -0.25 -0.725 0  -0.225 -0.725 0  -0.2 -0.725 0  -0.175 -0.725 0  -0.15 -0.725 0  -0.125 -0.725 0  -0.1 -0.725 0  -0.07500000000000001 -0.725 0  -0.04999999999999999 -0.725 0  -0.02499999999999999 -0.725 0  0 -0.725 0  0.02500000000000002 -0.725 0  0.04999999999999999 -0.725 0  0.07500000000000001 -0.725 0  0.09999999999999998 -0.725 0  0.125 -0.725 0  0.15 -0.725 0  0.175 -0.725 0  0.2 -0.725 0  0.225 -0.725 0  0.25 -0.725 0  -0.25 -0.7 0  -0.225 -0.7 0  -0.2 -0.7 0  -0.175 -0.7 0  -0.15 -0.7 0  -0.125 -0.7 0  -0.1 -0.7 0  -0.07500000000000001 -0.7 0  -0.04999999999999999 -0.7 0  -0.02499999999999999 -0.7 0  0 -0.7 0  0.02500000000000002 -0.7 0  0.04999999999999999 -0.7 0  0.07500000000000001 -0.7 0  0.09999999999999998 -0.7 0  0.125 -0.7 0  0.15 -0.7 0  0.175 -0.7 0  0.2 -0.7 0  0.225 -0.7 0  0.25 -0.7 0  -0.25 -0.675 0  -0.225 -0.675 0  -0.2 -0.675 0  -0.175 -0.675 0  -0.15 -0.675 0  -0.125 -0.675 0  -0.1 -0.675 0  -0.07500000000000001 -0.675 0  -0.04999999999999999 -0.675 0  -0.02499999999999999 -0.675 0  0 -0.675 0  0.02500000000000002 -0.675 0  0.04999999999999999 -0.675 0  0.07500000000000001 -0.675 0  0.09999999999999998 -0.675 0  0.125 -0.675 0  0.15 -0.675 0  0.175 -0.675 0  0.2 -0.675 0  0.225 -0.675 0  0.25 -0.675 0  -0.25 -0.65 0  -0.225 -0.65 0  -0.2 -0.65 0  -0.175 -0.65 0  -0.15 -0.65 0  -0.125 -0.65 0  -0.1 -0.65 0  -0.07500000000000001 -0.65 0  -0.04999999999999999 -0.65 0  -0.02499999999999999 -0.65 0  0 -0.65 0  0.02500000000000002 -0.65 0  0.04999999999999999 -0.65 0  0.07500000000000001 -0.65 0  0.09999999999999998 -0.65 0  0.125 -0.65 0  0.15 -0.65 0  0.175 -0.65 0  0.2 -0.65 0  0.225 -0.65 0  0.25 -0.65 0  -0.25 -0.625 0  -0.225 -0.625 0  -0.2 -0.625 0  -0.175 -0.625 0  -0.15 -0.625 0  -0.125 -0.625 0  -0.1 -0.625 0  -0.07500000000000001 -0.625 0  -0.04999999999999999 -0.625 0  -0.02499999999999999 -0.625 0  0 -0.625 0  0.02500000000000002 -0.625 0  0.04999999999999999 -0.625 0  0.07500000000000001 -0.625 0  0.09999999999999998 -0.625 0  0.125 -0.625 0  0.15 -0.625 0  0.175 -0.625 0  0.2 -0.625 0  0.225 -0.625 0  0.25 -0.625 0  -0.25 -0.6 0  -0.225 -0.6 0  -0.2 -0.6 0  -0.175 -0.6 0  -0.15 -0.6 0  -0.125 -0.6 0  -0.1 -0.6 0  -0.07500000000000001 -0.6 0  -0.04999999999999999 -0.6 0  -0.02499999999999999 -0.6 0  0 -0.6 0  0.02500000000000002 -0.6 0  0.04999999999999999 -0.6 0  0.07500000000000001 -0.6 0  0.09999999999999998 -0.6 0  0.125 -0.6 0  0.15 -0.6 0  0.175 -0.6 0  0.2 -0.6 0  0.225 -0.6 0  0.25 -0.6 0  -0.25 -0.575 0  -0.225 -0.575 0  -0.2 -0.575 0  -0.175 -0.575 0  -0.15 -0.575 0  -0.125 -0.575 0  -0.1 -0.575 0  -0.07500000000000001 -0.575 0  -0.04999999999999999 -0.575 0  -0.02499999999999999 -0.575 0  0 -0.575 0  0.02500000000000002 -0.575 0  0.04999999999999999 -0.575 0  0.07500000000000001 -0.575 0  0.09999999999999998 -0.575 0  0.125 -0.575 0  0.15 -0.575 0  0.175 -0.575 0  0.2 -0.575 0  0.225 -0.575 0  0.25 -0.575 0  -0.25 -0.55 0  -0.225 -0.55 0  -0.2 -0.55 0  -0.175 -0.55 0  -0.15 -0.55 0  -0.125 -0.55 0  -0.1 -0.55 0  -0.07500000000000001 -0.55 0  -0.04999999999999999 -0.55 0  -0.02499999999999999 -0.55 0  0 -0.55 0  0.02500000000000002 -0.55 0  0.04999999999999999 -0.55 0  0.07500000000000001 -0.55 0  0.09999999999999998 -0.55 0  0.125 -0.55 0  0.15 -0.55 0  0.175 -0.55 0  0.2 -0.55 0  0.225 -0.55 0  0.25 -0.55 0  -0.25 -0.525 0  -0.225 -0.525 0  -0.2 -0.525 0  -0.175 -0.525 0  -0.15 -0.525 0  -0.125 -0.525 0  -0.1 -0.525 0  -0.07500000000000001 -0.525 0  -0.04999999999999999 -0.525 0  -0.02499999999999999 -0.525 0  0 -0.525 0  0.02500000000000002 -0.525 0  0.04999999999999999 -0.525 0  0.07500000000000001 -0.525 0  0.09999999999999998 -0.525 0  0.125 -0.525 0  0.15 -0.525 0  0.175 -0.525 0  0.2 -0.525 0  0.225 -0.525 0  0.25 -0.525 0  -0.25 -0.5 0  -0.225 -0.5 0  -0.2 -0.5 0  -0.175 -0.5 0  -0.15 -0.5 0  -0.125 -0.5 0  -0.1 -0.5 0  -0.07500000000000001 -0.5 0  -0.04999999999999999 -0.5 0  -0.02499999999999999 -0.5 0  0 -0.5 0  0.02500000000000002 -0.5 0  0.04999999999999999 -0.5 0  0.07500000000000001 -0.5 0  0.09999999999999998 -0.5 0  0.125 -0.5 0  0.15 -0.5 0  0.175 -0.5 0  0.2 -0.5 0  0.225 -0.5 0  0.25 -0.5 0  -0.25 -0.475 0  -0.225 -0.475 0  -0.2 -0.475 0  -0.175 -0.475 0  -0.15 -0.475 0  -0.125 -0.475 0  -0.1 -0.475 0  -0.07500000000000001 -0.475 0  -0.04999999999999999 -0.475 0  -0.02499999999999999 -0.475 0  0 -0.475 0  0.02500000000000002 -0.475 0  0.04999999999999999 -0.475 0  0.07500000000000001 -0.475 0  0.09999999999999998 -0.475 0  0.125 -0.475 0  0.15 -0.475 0  0.175 -0.475 0  0.2 -0.475 0  0.225 -0.475 0  0.25 -0.475 0  -0.25 -0.45 0  -0.225 -0.45 0  -0.2 -0.45 0  -0.175 -0.45 0  -0.15 -0.45 0  -0.125 -0.45 0  -0.1 -0.45 0  -0.07500000000000001 -0.45 0  -0.04999999999999999 -0.45 0  -0.02499999999999999 -0.45 0  0 -0.45 0  0.02500000000000002 -0.45 0  0.04999999999999999 -0.45 0  0.07500000000000001 -0.45 0  0.09999999999999998 -0.45 0  0.125 -0.45 0  0.15 -0.45 0  0.175 -0.45 0  0.2 -0.45 0  0.225 -0.45 0  0.25 -0.45 0  -0.25 -0.425 0  -0.225 -0.425 0  -0.2 -0.425 0  -0.175 -0.425 0  -0.15 -0.425 0  -0.125 -0.425 0  -0.1 -0.425 0  -0.07500000000000001 -0.425 0  -0.04999999999999999 -0.425 0  -0.02499999999999999 -0.425 0  0 -0.425 0  0.02500000000000002 -0.425 0  0.04999999999999999 -0.425 0  0.07500000000000001 -0.425 0  0.
[...]
<PointData  Vectors="displacement"> 
<DataArray  type="Float64"  Name="displacement"  NumberOfComponents="3" format="ascii">4.5138983071575881e-33 1.0164395367051616e-18 0.0000000000000000e+00  7.2222372914521454e-33 -1.5246593050577429e-18 0.0000000000000000e+00  1.5177983057817395e-32 1.8194664753716420e-18 0.0000000000000000e+00  2.8888949165808576e-32 1.2705494208814522e-18 0.0000000000000000e+00  7.3603079362054923e-33 2.5603918502051018e-19 0.0000000000000000e+00  1.4444474582904288e-32 5.0821976835258088e-19 0.0000000000000000e+00  2.6785705082149414e-32 3.7428436377861379e-19 0.0000000000000000e+00  5.7777898331617152e-32 5.8445273360546800e-18 0.0000000000000000e+00  1.3010266878010989e-31 1.2649805276219672e-18 0.0000000000000000e+00  -2.8888949165808587e-32 -1.0164395367051621e-18 0.0000000000000000e+00  1.9865121590432102e-32 -1.0803652923400798e-18 0.0000000000000000e+00  5.0555661040165051e-32 -1.2705494208814532e-18 0.0000000000000000e+00  -6.4888099684663583e-32 1.0051969692783962e-18 0.0000000000000000e+00  1.0833355937178213e-31 2.0328790734103227e-18 0.0000000000000000e+00  2.1734972050706983e-32 -2.1810580807924857e-18 0.0000000000000000e+00  8.6666847497425646e-32 2.7952087259391923e-18 0.0000000000000000e+00  -1.4332435667432232e-32 2.5298559755938822e-18 0.0000000000000000e+00  -3.6111186457260713e-33 -1.0164395367051616e-18 0.0000000000000000e+00  1.4426087469908394e-32 1.5246593050577422e-18 0.0000000000000000e+00  3.6111186457260748e-33 3.5575383784680691e-18 0.0000000000000000e+00  7.2222372914521386e-33 6.0986372202309655e-18 0.0000000000000000e+00  1.0833355937178189e-32 -1.8356873757675581e-02 0.0000000000000000e+00  -9.3918845541665995e-17 -1.8356873757675567e-02 0.0000000000000000e+00  -1.8828383115140969e-16 -1.8356873757675567e-02 0.0000000000000000e+00  -2.8954006597916853e-16 -1.8356873757675571e-02 0.0000000000000000e+00  -3.8803085453261215e-16 -1.8356873757675602e-02 0.0000000000000000e+00  -4.8491457274927481e-16 -1.8356873757675651e-02 0.0000000000000000e+00  -5.7850627230475898e-16 -1.8356873757675658e-02 0.0000000000000000e+00  -6.6012516519857949e-16 -1.8356873757675730e-02 0.0000000000000000e+00  -7.3132743453976510e-16 -1.8356873757675807e-02 0.0000000000000000e+00  -7.8047702865866485e-16 -1.8356873757675887e-02 0.0000000000000000e+00  -8.0360435859797890e-16 -1.8356873757675977e-02 0.0000000000000000e+00  -8.0492696435151581e-16 -1.8356873757676088e-02 0.0000000000000000e+00  -7.6826279068827589e-16 -1.8356873757676175e-02 0.0000000000000000e+00  -7.0717634297498425e-16 -1.8356873757676244e-02 0.0000000000000000e+00  -6.2753733627747447e-16 -1.8356873757676303e-02 0.0000000000000000e+00  -5.4280805842217632e-16 -1.8356873757676355e-02 0.0000000000000000e+00  -4.4866628229187515e-16 -1.8356873757676407e-02 0.0000000000000000e+00  -3.4624310295872263e-16 -1.8356873757676435e-02 0.0000000000000000e+00  -2.4287672828387275e-16 -1.8356873757676462e-02 0.0000000000000000e+00  -1.2594124672407334e-16 -1.8356873757676490e-02 0.0000000000000000e+00  3.0891991539609661e-33 -1.8356873757676518e-02 0.0000000000000000e+00  -3.5367677157552087e-33 -3.6714078343322624e-02 0.0000000000000000e+00  -1.7923172388451552e-16 -3.6714078343322645e-02 0.0000000000000000e+00  -3.5737247950477977e-16 -3.6714078343322659e-02 0.0000000000000000e+00  -5.4024972734445044e-16 -3.6714078343322708e-02 0.0000000000000000e+00  -7.2397510333997621e-16 -3.6714078343322729e-02 0.0000000000000000e+00  -8.9299640302332497e-16 -3.6714078343322791e-02 0.0000000000000000e+00  -1.0504401645719924e-15 -3.6714078343322874e-02 0.0000000000000000e+00  -1.1968099581542404e-15 -3.6714078343322992e-02 0.0000000000000000e+00  -1.3175032855243720e-15 -3.6714078343323145e-02 0.0000000000000000e+00  -1.4122113982310164e-15 -3.6714078343323318e-02 0.0000000000000000e+00  -1.4606143199710678e-15 -3.6714078343323485e-02 0.0000000000000000e+00  -1.4402825154868460e-15 -3.6714078343323749e-02 0.0000000000000000e+00  -1.3836792536566087e-15 -3.6714078343323901e-02 0.0000000000000000e+00  -1.2790613735340011e-15 -3.6714078343324102e-02 0.0000000000000000e+00  -1.1471495878044910e-15 -3.6714078343324297e-02 0.0000000000000000e+00  -9.8444853769153870e-16 -3.6714078343324318e-02 0.0000000000000000e+00  -8.1279692463076830e-16 -3.6714078343324422e-02 0.0000000000000000e+00  -6.3262341220622987e-16 -3.6714078343324498e-02 0.0000000000000000e+00  -4.2969389010221495e-16 -3.6714078343324581e-02 0.0000000000000000e+00  -2.1833821687736356e-16 -3.6714078343324651e-02 0.0000000000000000e+00  4.4107234887082672e-32 -3.6714078343324651e-02 0.0000000000000000e+00  0.0000000000000000e+00 -5.5071944074799956e-02 0.0000000000000000e+00  -2.5536641574883672e-16 -5.5071944074799949e-02 0.0000000000000000e+00  -5.0076245602540147e-16 -5.5071944074799956e-02 0.0000000000000000e+00  -7.5226918329567868e-16 -5.5071944074799983e-02 0.0000000000000000e+00  -1.0012650847742608e-15 -5.5071944074800060e-02 0.0000000000000000e+00  -1.2293827659542239e-15 -5.5071944074800212e-02 0.0000000000000000e+00  -1.4494040182052970e-15 -5.5071944074800316e-02 0.0000000000000000e+00  -1.6407317423112088e-15 -5.5071944074800538e-02 0.0000000000000000e+00  -1.7935942325523792e-15 -5.5071944074800726e-02 0.0000000000000000e+00  -1.9165845512074380e-15 -5.5071944074801010e-02 0.0000000000000000e+00  -1.9770575840514001e-15 -5.5071944074801378e-02 0.0000000000000000e+00  -1.9602768615311760e-15 -5.5071944074801718e-02 0.0000000000000000e+00  -1.8766149877717778e-15 -5.5071944074802044e-02 0.0000000000000000e+00  -1.7395485287232165e-15 -5.5071944074802336e-02 0.0000000000000000e+00  -1.5737594609289771e-15 -5.5071944074802537e-02 0.0000000000000000e+00  -1.3612033601209471e-15 -5.5071944074802669e-02 0.0000000000000000e+00  -1.1172297880019083e-15 -5.5071944074802766e-02 0.0000000000000000e+00  -8.5798258652878317e-16 -5.5071944074802912e-02 0.0000000000000000e+00  -5.9065808140466542e-16 -5.5071944074803050e-02 0.0000000000000000e+00  -3.0144193082094489e-16 -5.5071944074803154e-02 0.0000000000000000e+00  3.9722305102986723e-32 -5.5071944074803168e-02 0.0000000000000000e+00  1.4370418438802448e-32 -7.3430800250527492e-02 0.0000000000000000e+00  -3.1247317368564857e-16 -7.3430800250527548e-02 0.0000000000000000e+00  -6.2051680656170434e-16 -7.3430800250527589e-02 0.0000000000000000e+00  -9.2825419930853727e-16 -7.3430800250527603e-02 0.0000000000000000e+00  -1.2388726255139203e-15 -7.3430800250527742e-02 0.0000000000000000e+00  -1.5237767780893383e-15 -7.3430800250527908e-02 0.0000000000000000e+00  -1.7693798456133857e-15 -7.3430800250528006e-02 0.0000000000000000e+00  -1.9777907196951546e-15 -7.3430800250528325e-02 0.0000000000000000e+00  -2.1654580319725903e-15 -7.3430800250528561e-02 0.0000000000000000e+00  -2.3048834127192827e-15 -7.3430800250528935e-02 0.0000000000000000e+00  -2.3830806024387591e-15 -7.3430800250529504e-02 0.0000000000000000e+00  -2.3772339715611812e-15 -7.3430800250530046e-02 0.0000000000000000e+00  -2.2761523722651175e-15 -7.3430800250530504e-02 0.0000000000000000e+00  -2.1247958164708159e-15 -7.3430800250530823e-02 0.0000000000000000e+00  -1.9270518094838863e-15 -7.3430800250531100e-02 0.0000000000000000e+00  -1.6563373622660703e-15 -7.3430800250531364e-02 0.0000000000000000e+00  -1.3631430802176699e-15 -7.3430800250531503e-02 0.0000000000000000e+00  -1.0496337457832414e-15 -7.3430800250531697e-02 0.0000000000000000e+00  -7.1688894502292409e-16 -7.3430800250531850e-02 0.0000000000000000e+00  -3.6522758146008649e-16 -7.3430800250531988e-02 0.0000000000000000e+00  1.8337806332195112e-32 -7.3430800250532044e-02 0.0000000000000000e+00  1.4444474582904285e-32 -9.1790974641731915e-02 0.0000000000000000e+00  -3.5135547999418819e-16 -9.1790974641732012e-02 0.0000000000000000e+00  -7.1705393822794316e-16 -9.1790974641731873e-02 0.0000000000000000e+00  -1.0822344638064257e-15 -9.1790974641732040e-02 0.0000000000000000e+00  -1.4126111896134941e-15 -9.1790974641732123e-02 0.0000000000000000e+00  -1.7376177729055511e-15 -9.1790974641732387e-02 0.0000000000000000e+00  -2.0203387046242216e-15 -9.1790974641732692e-02 0.0000000000000000e+00  -2.2687576663334939e-15 -9.1790974641732914e-02 0.0000000000000000e+00  -2.4778609902211877e-15 -9.1790974641733358e-02 0.0000000000000000e+00  -2.6118918486232523e-15 -9.1790974641733802e-02 0.0000000000000000e+00  -2.6951230090543689e-15 -9.1790974641734455e-02 0.0000000000000000e+00  -2.6933414115154352e-15 -9.1790974641735162e-02 0.0000000000000000e+00  -2.5950069049645775e-15 -9.1790974641735745e-02 0.0000000000000000e+00  -2.4337549125178228e-15 -9.1790974641736245e-02 0.0000000000000000e+00  -2.1711187282988864e-15 -9.1790974641736564e-02 0.0000000000000000e+00  -1.8753184281105793e-15 -9.1790974641736883e-02 0.0000000000000000e+00  -1.5702484806309409e-15 -9.1790974641737202e-02 0.0000000000000000e+00  -1.1910784598481868e-15 -9.1790974641737424e-02 0.0000000000000000e+00  -8.1550596012386097e-16 -9.1790974641737480e-02 0.0000000000000000e+00  -4.1612006432756272e-16 -9.1790974641737716e-02 0.0000000000000000e+00  1.4771599967058735e-31 -9.1790974641737813e-02 0.0000000000000000e+00  -7.8374218196563281e-33 -1.1015279298704704e-01 0.0000000000000000e+00  -3.9917272305181100e-16 -1.1015279298704697e-01 0.0000000000000000e+00  -7.8610277598365885e-16 -1.1015279298704697e-01 0.0000000000000000e+00  -1.1847879919476712e-15 -1.1015279298704703e-01 0.0000000000000000e+00  -1.5609631580313588e-15 -1.1015279298704743e-01 0.0000000000000000e+00  -1.9102446847329635e-15 -1.1015279298704753e-01 0.0000000000000000e+00  -2.2499516488975384e-15 -1.1015279298704800e-01 0.0000000000000000e+00  -2.5081348471359812e-15 -1.1015279298704825e-01 0.0000000000000000e+00  -2.7162238567697545e-15 -1.1015279298704876e-01 0.0000000000000000e+00  -2.8555680597338181e-15 -1.1015279298704939e-01 0.0000000000000000e+00  -2.9250419876634133e-15 -1.1015279298705011e-01 0.0000000000000000e+00  -2.9202748194355913e-15 -1.1015279298705094e-01 0.0000000000000000e+00  -2.8262766041518208e-15 -1.1015279298705176e-01 0.0000000000000000e+00  -2.6410935527630759e-15 -1.1015279298705227e-01 0.0000000000000000e+00  -2.3806174534176465e-15 -1.1015279298705301e-01 0.0000000000000000e+00  -2.0578326295273706e-15 -1.1015279298705308e-01 0.0000000000000000e+00  -1.7014884666273741e-15 -1.1015279298705348e-01 0.0000000000000000e+00  -1.3151548487381044e-15 -1.1015279298705374e-01 0.0000000000000000e+00  -8.9753538296953300e-16 -1.1015279298705402e-01 0.0000000000000000e+00  -4.4985590915796161e-16 -1.1015279298705417e-01 0.0000000000000000e+00  -8.7698595681918705e-33 -1.1015279298705427e-01 0.0000000000000000e+00  7.2222372914521344e-32 -1.2851657849024864e-01 0.0000000000000000e+00  -4.3077860833937904e-16 -1.2851657849024870e-01 0.0000000000000000e+00  -8.4601654950172914e-16 -1.2851657849024861e-01 0.0000000000000000e+00  -1.2716538276678942e-15 -1.2851657849024878e-01 0.0000000000000000e+00  -1.7023673181950257e-15 -1.2851657849024894e-01 0.0000000000000000e+00  -2.0892252737945254e-15 -1.2851657849024925e-01 0.0000000000000000e+00  -2.4248978920332066e-15 -1.2851657849024981e-01 0.0000000000000000e+00  -2.6990222379614704e-15 -1.2851657849025025e-01 0.0000000000000000e+00  -2.9126448289471624e-15 -1.2851657849025080e-01 0.0000000000000000e+00  -3.0647588294242139e-15 -1.2851657849025158e-01 0.0000000000000000e+00  -3.1143601081092818e-15 -1.2851657849025244e-01 0.0000000000000000e+00  -3.0686621153133427e-15 -1.2851657849025341e-01 0.0000000000000000e+00  -2.9878823883647406e-15 -1.2851657849025419e-01 0.0000000000000000e+00  -2.7910734631108237e-15 -1.2851657849025497e-01 0.0000000000000000e+00  -2.5161882927920342e-15 -1.2851657849025569e-01 0.0000000000000000e+00  -2.1983413000910001e-15 -1.2851657849025599e-01 0.0000000000000000e+00  -1.8005126288206625e-15 -1.2851657849025647e-01 0.0000000000000000e+00  -1.4049493081084979e-15 -1.2851657849025666e-01 0.0000000000000000e+00  -9.5733308362366704e-16 -1.2851657849025722e-01 0.0000000000000000e+00  -4.6200751436560362e-16 -1.2851657849025727e-01 0.0000000000000000e+00  1.2277803395468624e-31 -1.2851657849025738e-01 0.0000000000000000e+00  -1.1934579847161552e-31 -1.4688265132189759e-01 0.0000000000000000e+00  -4.6844655106180173e-16 -1.4688265132189743e-01 0.0000000000000000e+00  -9.2965949855053523e-16 -1.4688265132189776e-01 0.0000000000000000e+00  -1.3754636580880240e-15 -1.4688265132189782e-01 0.0000000000000000e+00  -1.8186734190249054e-15 -1.4688265132189823e-01 0.0000000000000000e+00  -2.2159370298890246e-15 -1.4688265132189834e-01 0.0000000000000000e+00  -2.5476994257952330e-15 -1.4688265132189898e-01 0.0000000000000000e+00  -2.8420376441935021e-15 -1.4688265132189965e-01 0.0000000000000000e+00  -3.0484183557122174e-15 -1.4688265132190034e-01 0.0000000000000000e+00  -3.1869268111839604e-15 -1.4688265132190112e-01 0.0000000000000000e+00  -3.2725992294436828e-15 -1.4688265132190209e-01 0.0000000000000000e+00  -3.2378541634228647e-15 -1.4688265132190320e-01 0.0000000000000000e+00  -3.1262503137304031e-15 -1.4688265132190417e-01 0.0000000000000000e+00  -2.9172660400209858e-15 -1.4688265132190503e-01 0.0000000000000000e+00  -2.6382871769330605e-15 -1.4688265132190598e-01 0.0000000000000000e+00  -2.3009352303066420e-15 -1.4688265132190623e-01 0.0000000000000000e+00  -1.8852629831071275e-15 -1.4688265132190687e-01 0.0000000000000000e+00  -1.4344054573629831e-15 -1.4688265132190714e-01 0.0000000000000000e+00  -9.7616780940189557e-16 -1.4688265132190756e-01 0.0000000000000000e+00  -5.1691446671262091e-16 -1.4688265132190795e-01 0.0000000000000000e+00  7.9184595053765679e-32 -1.4688265132190784e-01 0.0000000000000000e+00  -4.3333423748712757e-32 -1.6525132812566054e-01 0.0000000000000000e+00  -5.2236695223448471e-16 -1.6525132812566062e-01 0.0000000000000000e+00  -1.0241185788502053e-15 -1.6525132812566060e-01 0.0000000000000000e+00  -1.4669588641010799e-15 -1.6525132812566073e-01 0.0000000000000000e+00  -1.9125970668008824e-15 -1.6525132812566082e-01 0.0000000000000000e+00  -2.3215114938750901e-15 -1.6525132812566146e-01 0.0000000000000000e+00  -2.6574591454261057e-15 -1.6525132812566193e-01 0.0000000000000000e+00  -2.9540075849386389e-15 -1.6525132812566287e-01 0.0000000000000000e+00  -3.1637635061112775e-15 -1.6525132812566354e-01 0.0000000000000000e+00  -3.3108662845108143e-15 -1.6525132812566445e-01 0.0000000000000000e+00  -3.3913113707589895e-15 -1.6525132812566562e-01 0.0000000000000000e+00  -3.3957779607122827e-15 -1.6525132812566681e-01 0.0000000000000000e+00  -3.2540685603471520e-15 -1.6525132812566792e-01 0.0000000000000000e+00  -3.0177357201024040e-15 -1.6525132812566917e-01 0.0000000000000000e+00  -2.7362780850151950e-15 -1.6525132812566959e-01 0.0000000000000000e+00  -2.3748487208419822e-15 -1.6525132812567048e-01 0.0000000000000000e+00  -1.9643380904547647e-15 -1.6525132812567092e-01 0.0000000000000000e+00  -1.4763073911938720e-15 -1.6525132812567125e-01 0.0000000000000000e+00  -9.9706735009065524e-16 -1.6525132812567164e-01 0.0000000000000000e+00  -5.0814073757307827e-16 -1.6525132812567211e-01 0.0000000000000000e+00  1.0475153421123863e-31 -1.6525132812567220e-01 0.0000000000000000e+00  9.4311971911210785e-32 -1.8362292153006710e-01 0.0000000000000000e+00  -5.6866383110383498e-16 -1.8362292153006718e-01 0.0000000000000000e+00  -1.0870530136539698e-15 -1.8362292153006698e-01 0.0000000000000000e+00  -1.5553149729254257e-15 -1.8362292153006740e-01 0.0000000000000000e+00  -1.9739589852653436e-15 -1.8362292153006757e-01 0.0000000000000000e+00  -2.3751879856140330e-15 -1.8362292153006832e-01 0.0000000000000000e+00  -2.7433603202576021e-15 -1.8362292153006882e-01 0.0000000000000000e+00  -3.0158157194403357e-15 -1.8362292153006948e-01 0.0000000000000000e+00  -3.2552225173085443e-15 -1.8362292153007062e-01 0.0000000000000000e+00  -3.3903384712837568e-15 -1.8362292153007159e-01 0.0000000000000000e+00  -3.4730349266780825e-15 -1.8362292153007292e-01 0.0000000000000000e+00  -3.4678053280828553e-15 -1.8362292153007431e-01 0.0000000000000000e+00  -3.3246110147931642e-15 -1.8362292153007545e-01 0.0000000000000000e+00  -3.1031169262083199e-15 -1.8362292153007678e-01 0.0000000000000000e+00  -2.7997884898207822e-15 -1.8362292153007750e-01 0.0000000000000000e+00  -2.4376135559747898e-15 -1.8362292153007825e-01 0.0000000000000000e+00  -2.0386989030641495e-15 -1.8362292153007906e-01 0.0000000000000000e+00  -1.5568216616210256e-15 -1.8362292153007959e-01 0.0000000000000000e+00  -1.0301248912690764e-15 -1.8362292153007992e-01 0.0000000000000000e+00  -5.1740330543944609e-16 -1.8362292153008014e-01 0.0000000000000000e+00  4.4365171933205991e-32 -1.8362292153008020e-01 0.0000000000000000e+00  -5.7777898331617010e-32 -2.0199773966646056e-01 0.0000000000000000e+00  -5.8536631980010724e-16 -2.0199773966646048e-01 0.0000000000000000e+00  -1.1129585303069634e-15 -2.0199773966646087e-01 0.0000000000000000e+00  -1.6076681272437808e-15 -2.0199773966646101e-01 0.0000000000000000e+00  -2.0477335789814910e-15 -2.0199773966646134e-01 0.0000000000000000e+00  -2.4295412304129038e-15 -2.0199773966646187e-01 0.0000000000000000e+00  -2.7921657808285664e-15 -2.0199773966646264e-01 0.0000000000000000e+00  -3.0580289693343042e-15 -2.0199773966646337e-01 0.0000000000000000e+00  -3.3121822134405010e-15 -2.0199773966646445e-01 0.0000000000000000e+00  -3.4794624357551768e-15 -2.0199773966646567e-01 0.0000000000000000e+00  -3.5314224076844318e-15 -2.0199773966646686e-01 0.0000000000000000e+00  -3.5021583657734939e-15 -2.0199773966646845e-01 0.0000000000000000e+00  -3.3761773789221202e-15 -2.0199773966647003e-01 0.0000000000000000e+00  -3.1687776380409494e-15 -2.0199773966647130e-01 0.0000000000000000e+00  -2.8660444642391968e-15 -2.0199773966647216e-01 0.0000000000000000e+00  -2.5042657071525974e-15 -2.0199773966647303e-01 0.0000000000000000e+00  -2.0755188804849069e-15 -2.0199773966647366e-01 0.0000000000000000e+00  -1.6004828894418269e-15 -2.0199773966647450e-01 0.0000000000000000e+00  -1.0861882141204368e-15 -2.0199773966647475e-01 0.0000000000000000e+00  -5.4408354041080169e-16 -2.0199773966647502e-01 0.0000000000000000e+00  -1.4444474582904244e-32 -2.0199773966647516e-01 0.0000000000000000e+00  8.2040101732589090e-32 -2.2037608569388134e-01 0.0000000000000000e+00  -5.6474011010309550e-16 -2.2037608569388129e-01 0.0000000000000000e+00  -1.1279958665697890e-15 -2.2037608569388137e-01 0.0000000000000000e+00  -1.6439839132507580e-15 -2.2037608569388170e-01 0.0000000000000000e+00  -2.1339779185904397e-15 -2.2037608569388212e-01 0.0000000000000000e+00  -2.5197129245426444e-15 -2.2037608569388267e-01 0.0000000000000000e+00  -2.8526341597538435e-15 -2.2037608569388362e-01 0.0000000000000000e+00  -3.1623866641895759e-15 -2.2037608569388448e-01 0.0000000000000000e+00  -3.3934733695928350e-15 -2.2037608569388539e-01 0.0000000000000000e+00  -3.5882568974520465e-15 -2.2037608569388681e-01 0.0000000000000000e+00  -3.6452580858333408e-15 -2.2037608569388811e-01 0.0000000000000000e+00  -3.5640195337485660e-15 -2.2037608569389008e-01 0.0000000000000000e+00  -3.4540093369403135e-15 -2.2037608569389158e-01 0.0000000000000000e+00  -3.2282930283783939e-15 -2.2037608569389303e-01 0.0000000000000000e+00  -2.9067732197743356e-15 -2.2037608569389397e-01 0.0000000000000000e+00  -2.5535044877115186e-15 -2.2037608569389505e-01 0.0000000000000000e+00  -2.1173062641951978e-15 -2.2037608569389619e-01 0.0000000000000000e+00  -1.6206735764541883e-15 -2.2037608569389650e-01 0.0000000000000000e+00  -1.1067474717809720e-15 -2.2037608569389699e-01 0.0000000000000000e+00  -5.4816524598639657e-16 -2.2037608569389702e-01 0.0000000000000000e+00  1.2607938018450452e-31 -2.2037608569389738e-01 0.0000000000000000e+00  5.7777898331617076e-32 -2.3875825733161679e-01 0.0000000000000000e+00  -5.7987994711818203e-16 -2.3875825733161693e-01 0.0000000000000000e+00  -1.1448138528108278e-15 -2.3875825733161724e-01 0.0000000000000000e+00  -1.6597223362394106e-15 -2.3875825733161740e-01 0.0000