<?xml version="1.0"?>
<VTKFile type="UnstructuredGrid"  version="0.1"  >
<UnstructuredGrid>
<Piece  NumberOfPoints="15776" NumberOfCells="31038">
<Points>
<DataArray  type="Float64"  NumberOfComponents="3"  format="ascii">-0.05 0 0  -0.05 -0.1 0  0.05 -0.1 0  0.05 0 0  0 -0.1 0  0.05 -0.05 0  0 0 0  -0.05 -0.05 0  0 -0.05 0  -0.025 -0.1 0  -0.025 0 0  -0.05 -0.025 0  0.025 -0.1 0  0.05 -0.025 0  0.025 0 0  0.025 -0.06875000000000001 0  0.025 -0.03750000000000001 0  -0.02083333333333333 -0.02916666666666667 0  -0.05 -0.07500000000000001 0  -0.02083333333333333 -0.07083333333333333 0  0.05 -0.07500000000000001 0  0.003472222222222224 -0.02569444444444444 0  0.002378144654088049 -0.07627751572327045 0  -0.02083333333333333 -0.05 0  0.03125 -0.01875 0  -0.01233019290593089 -0.08678347112328397 0  -0.0125 -0.0130952380952381 0  -0.03690476190476191 -0.03750000000000001 0  -0.03541666666666667 -0.06041666666666666 0  -0.03385416666666667 -0.01614583333333334 0  0.05 -0.08750000000000001 0  0.03750000000000001 -0.1 0  -0.03385416666666666 -0.08385416666666666 0  0.03348214285714286 -0.08348214285714287 0  0.0125 0 0  0.0125 -0.1 0  0.01719551374627341 -0.0830513925183794 0  0.01029527261028368 -0.06231463651962176 0  0.0328125 -0.05312500000000001 0  -0.01041666666666666 -0.03958333333333333 0  -0.01041666666666667 -0.06041666666666667 0  0.01470753125203114 -0.04816506250406229 0  0.01799242424242424 -0.02474747474747475 0  0.03750000000000001 -0.03125 0  0.05 -0.0625 0  0.00625 -0.01223723723723724 0  0.05 -0.0125 0  0.03750000000000001 0 0  0.03765012642225032 -0.07127449431099875 0  0.02021617032392894 -0.01201127655869035 0  0.006028532990060553 -0.03846042534778643 0  -0.05 -0.0625 0  -0.03750000000000001 0 0  -0.05 -0.03750000000000001 0  -0.0125 -0.1 0  -0.0125 0 0  -0.05 -0.0125 0  -0.03750000000000001 -0.1 0  0.05 -0.03750000000000001 0  -0.05 -0.08750000000000001 0  -0.008680555555555554 -0.02743055555555555 0  0.006250000000000001 -0.08914373740925415 0  -0.009584768711776409 -0.07507825100308022 0  -0.03268229166666667 -0.07200520833333332 0  0.03939012096774194 -0.04309475806451613 0  0.02190003906503893 -0.05743439453251947 0  -0.03834537706133037 -0.04910019455252918 0  0.01284084887861751 -0.07298400536762802 0  -0.02264613483542079 -0.0820413651645792 0  -0.02366071428571428 -0.01123511904761905 0  -0.03199404761904762 -0.02730654761904763 0  -0.0244047619047619 -0.06041666666666667 0  -0.01041666666666666 -0.05 0  -0.02083333333333332 -0.03958333333333333 0  2.405987640392848e-05 -0.0604407265430706 0  -0.002910133850527605 -0.01736173448892657 0  -0.02961483445283294 -0.04429487938443922 0  0.0390625 -0.0109375 0  0.040625 -0.021875 0  0.028125 -0.028125 0  -0.04176917540113871 -0.06803243885869564 0  0.03965658412817928 -0.06102022076500465 0  0.01533845899304755 -0.03450745320159019 0  0.02948377458963575 -0.008744075527611174 0  0.02448333984417315 -0.04800472330961902 0  -0.002638588467448458 -0.08480290334513936 0  0.01875 -0.09260679016400503 0  0.02801599660666901 -0.09111197895245939 0  0.0427726833976834 -0.08125000000000002 0  0.04010991573299855 -0.09061756875992701 0  -0.03125000000000001 -0.09292674731182796 0  -0.04078102849914793 -0.09075246902758297 0  -0.04292674731182795 -0.08125000000000002 0  -0.04292674731182796 -0.01875 0  -0.04075246902758298 -0.009218971500852071 0  -0.002501899107215252 -0.03451361758785813 0  -0.01875 -0.09331034417873318 0  -0.04137052725919914 -0.02906901041666667 0  -0.02515071191829004 -0.02065873579545455 0  -0.004560476962080258 -0.008160345583815167 0  -0.01571003401360544 -0.02162698412698413 0  -0.006250000000000001 -0.09347094524847423 0  -0.03184688459542486 -0.007177652942204195 0  -0.043423574176247 -0.05645164743293771 0  -0.002931194584325539 -0.06897337298686135 0  0.04141166808534667 -0.05159229946940671 0  0.03072628767995273 -0.06184751883997637 0  0.01331794183364191 -0.01736907532119644 0  -0.02991071428571428 -0.05329326110353833 0  0.0302193738423544 -0.07555280640245397 0  -0.02844810693838604 -0.03529440998727736 0  -0.05 -0.04375 0  0.009435764744425919 -0.08043238240966273 0  0.02057363836381549 -0.07561467685960577 0  0.025334823172674 -0.08341820123348352 0  0.005194622404326759 -0.06864849887959712 0  0.01732194592699554 -0.06627651681808928 0  0.006285662925187238 -0.05520590615175079 0  -0.01875 0 0  0.03186492887377232 -0.04533174938342453 0  -0.0008783629089698517 -0.04219661564043644 0  0.05 -0.00625 0  0.03375689409777979 -0.03792049068961304 0  0.05 -0.06875000000000001 0  0.01439721346977286 -0.05583102001882564 0  0.007184194424042271 -0.04772337119454249 0  0.01846824474048517 -0.04149541481145257 0  -0.01682300313953808 -0.07723258764373991 0  0.01091777409106017 -0.0280645394299259 0  -0.005208333333333333 -0.05520833333333334 0  -0.01562499999999999 -0.034375 0  -0.015625 -0.05520833333333333 0  -0.01562499999999999 -0.04479166666666667 0  -0.01741071428571429 -0.06383928571428571 0  -0.01017446891572471 -0.06775731747543173 0  0.02462121212121212 -0.02174873737373738 0  -0.01727537722908093 -0.007335299088771311 0  -0.04246234479210493 -0.04269936147867359 0  0.02155204304257197 -0.03095624460965786 0  0.01316725552433098 -0.00805546078058521 0  0.01875 0 0  -0.02717633928571428 -0.0671875 0  -0.02899339936689958 -0.07835247286481212 0  0.034375 -0.025 0  0.04269000268040276 -0.03649499463919448 0  0.04375 0 0  0.04375 -0.02812499999999999 0  -0.03761497647442349 -0.02322577938762476 0  0.05 -0.05625 0  -0.02487731781150031 -0.08912078797260026 0  -0.03695888676976247 -0.07756467740738612 0  0.002206599034779407 -0.006587679234291101 0  0.003888413565608712 -0.01876506087328944 0  0.04375 -0.1 0  0.05 -0.09375 0  -0.008944539808483216 -0.02059134745263918 0  -0.04331057662916364 -0.07455691519284439 0  0.0439453125 -0.0158203125 0  -0.0001289479518082485 -0.09093484953796985 0  -0.04345238095238095 -0.03556995462159739 0  -0.01996941165388946 -0.01664836497274012 0  -0.04375 -0.1 0  -0.05 -0.09375 0  -0.04375 0 0  -0.05 -0.00625 0  0.005594154517873918 -0.03190847365283561 0  0.01173248358540133 -0.04209249512146222 0  0.03419217537052396 -0.09402564429600242 0  0.01187454317038147 -0.09313287027544383 0  0.00625 -0.1 0  0.02629142191479375 -0.01446643061282435 0  0.021875 -0.005713666436405997 0  0.04321758283034931 -0.06704044172466167 0  0.03164035608931087 -0.06843232885197728 0  0.04337196116786825 -0.07463925880684733 0  0.03637679552963742 -0.07765509762578199 0  0.003626010873625676 -0.08324593924595615 0  -0.01086143623908221 -0.006877234301934964 0  0.05 -0.04375 0  0.01179919481827354 -0.08623489346281316 0  -0.01250448524457812 -0.09373974299368953 0  -0.05 -0.06875000000000001 0  -0.03125 0 0  -0.03125 -0.1 0  0.03125 0 0  0.05 -0.03125 0  -0.05 -0.03125 0  0.03125 -0.1 0  -0.00625 -0.1 0  -0.01875 -0.1 0  -0.05 -0.01875 0  0.01875 -0.1 0  -0.00625 0 0  0.00625 0 0  0.05 -0.01875 0  -0.05 -0.05625 0  -0.05 -0.08125000000000002 0  0.05 -0.08125000000000002 0  -0.005208333333333331 -0.04663513209089385 0  -0.008645094114120339 -0.03363601830115741 0  -0.01475694444444444 -0.0282986111111111 0  -0.002375017943413014 -0.02816654106277556 0  0.01949511126133643 -0.01820257885343882 0  -0.01184447766846871 -0.08072281861600734 0  -0.003534735552586339 -0.07499381884380991 0  -7.74643124966494e-05 -0.01210497681433211 0  -0.0189894669743643 -0.08708512345290294 0  -0.03573478741405032 -0.06660859450219164 0  0.04359375 -0.006406250000000002 0  0.03517259397916334 -0.00591284371726238 0  0.01965556274601837 -0.05175082112889391 0  0.0278582381998454 -0.05655080703154879 0  0.02250150625287546 -0.06335204673888746 0  -0.04398521510889171 -0.06244044890584508 0  -0.04409485128436456 -0.05055827494263457 0  -0.03770557434490081 -0.05497182533168162 0  -0.03656642640981419 -0.04343156897269072 0  0.009194419875177533 -0.02206075900562258 0  0.04451331908599852 -0.04636519166703897 0  -0.01485520520633521 -0.0715431557666749 0  0.03646473132841593 -0.0487266977067035 0  0.04405668594067944 -0.05696201317865261 0  -0.005203169869815907 -0.063408387077611 0  -0.02247505510150612 -0.07631841748069951 0  -0.02804244587606518 -0.08423194559419436 0  -0.02935822174816368 -0.01244339991380455 0  -0.03106530920251624 -0.021416390819467 0  -0.02607827560230913 -0.005825920664671352 0  -0.03361300586943999 -0.03280621050224407 0  -0.02666093500983432 -0.02972007434472025 0  0.02285652838955744 -0.08859591663874328 0  0.03188089108105607 -0.03248232675683183 0  0.004333204611837944 -0.09457186870462708 0  -0.02704324561419352 -0.07289471972323462 0  0.007922643115429704 -0.005561362357538799 0  0.0335055138043014 -0.01319301380430141 0  0.03678783220616013 -0.0177615033815196 0  -0.02428736139211932 -0.05463634003970875 0  -0.02991071428571428 -0.06211553281168236 0  0.01197199101441062 -0.06755294829741498 0  0.007340105850365504 -0.07377496925579345 0  0.0155154430127655 -0.07780260757679426 0  0.03658895737846099 -0.06574341599602251 0  -0.02410709817404581 -0.09456977129140082 0  0.01071697988857716 -0.05184278466318995 0  0.01728938824664831 -0.06065342293474459 0  -0.001242172060814776 -0.02269478175693585 0  -0.03834687844188856 -0.07228526864991387 0  0.03504935696459177 -0.08867226036471411 0  0.03924608506562968 -0.08530978616477196 0  0.04446421559415197 -0.08718473081338503 0  0.02679267124047066 -0.0428532372923227 0  -0.007808666799817795 -0.01546134924060014 0  -0.02636641232583814 -0.04890574755055194 0  -0.02267804660897878 -0.04479166666666666 0  0.03489498531895979 -0.05823382415106163 0  1.202993820196636e-05 -0.0552203632715353 0  0.005332838990544739 -0.06042849285714701 0  -0.04436969017718883 -0.02424446436705185 0  -0.01009042364871584 -0.04479166666666667 0  -0.01041666666666667 -0.05520833333333333 0  -0.015625 -0.05 0  -0.01562499999999999 -0.03958333333333334 0  -0.02083333333333332 -0.034375 0  0.04436432681906392 -0.09436432681906393 0  -0.02240513392857143 -0.06518787202380952 0  0.04537177
[...]
<PointData  Vectors="displacement"> 
<DataArray  type="Float64"  Name="displacement"  NumberOfComponents="3" format="ascii">-9.1381120959370900e-22 -2.2572185634244960e-02 0.0000000000000000e+00  -1.1641479988385213e-21 -2.7484045843825268e-04 0.0000000000000000e+00  4.9905132805042378e-22 -2.6808015179229376e-04 0.0000000000000000e+00  3.5715866833130737e-21 -2.2574315224421874e-02 0.0000000000000000e+00  3.4245378853225768e-24 -1.6421744989207345e-20 0.0000000000000000e+00  6.3822947845564357e-22 -1.1069064219367288e-02 0.0000000000000000e+00  -3.1089792747336464e-08 -2.3935318015567485e-02 0.0000000000000000e+00  -3.7969287316970097e-22 -1.1069126969375620e-02 0.0000000000000000e+00  1.7237462334206278e-08 -1.1149423169161315e-02 0.0000000000000000e+00  2.8759775734322872e-23 -9.0998043294062123e-20 0.0000000000000000e+00  7.9267086541778286e-05 -2.3827671093232274e-02 0.0000000000000000e+00  -5.8458259321283035e-22 -1.7005294116050899e-02 0.0000000000000000e+00  1.9201826087252967e-22 1.2856898592949022e-20 0.0000000000000000e+00  1.7907541318824467e-21 -1.7005232871912652e-02 0.0000000000000000e+00  -7.9181502943600259e-05 -2.3827674496428662e-02 0.0000000000000000e+00  1.1347651987866245e-05 -6.8381369308990721e-03 0.0000000000000000e+00  3.6128966974252593e-05 -1.4083404857130562e-02 0.0000000000000000e+00  -3.7851320571202234e-05 -1.6157696253721113e-02 0.0000000000000000e+00  -1.7536734199955506e-22 -5.4431049822950984e-03 0.0000000000000000e+00  -9.9378515887724859e-06 -6.3769973139606237e-03 0.0000000000000000e+00  2.0584653485831440e-23 -5.4430071228797382e-03 0.0000000000000000e+00  6.4174574516965515e-06 -1.7095209793851519e-02 0.0000000000000000e+00  1.1670150240849505e-06 -5.1766768945486295e-03 0.0000000000000000e+00  -2.2561444746701604e-05 -1.1122305275885373e-02 0.0000000000000000e+00  4.8791070157517410e-05 -1.8719554764509073e-02 0.0000000000000000e+00  -3.1222182665798401e-06 -2.8700125541878175e-03 0.0000000000000000e+00  -5.7030291600506985e-06 -2.0355220475724935e-02 0.0000000000000000e+00  -3.0794153805494799e-05 -1.4028109683156891e-02 0.0000000000000000e+00  -1.3118423775739813e-05 -8.7004670699121680e-03 0.0000000000000000e+00  -4.9129381677636040e-05 -1.9359870459361592e-02 0.0000000000000000e+00  2.5498264234686443e-22 -2.7155281260270140e-03 0.0000000000000000e+00  5.0697358237479437e-23 -3.3698479055119624e-20 0.0000000000000000e+00  -5.4329867062249704e-06 -3.5049206615079516e-03 0.0000000000000000e+00  5.5459626768071568e-06 -3.5860893521977868e-03 0.0000000000000000e+00  -3.9773125007347898e-05 -2.3910660539947219e-02 0.0000000000000000e+00  2.6633864417424962e-23 5.4546154326886323e-20 0.0000000000000000e+00  5.0264882107330887e-06 -3.6840852867916539e-03 0.0000000000000000e+00  8.5481308892552043e-06 -8.3001740025466647e-03 0.0000000000000000e+00  1.9460123010301496e-05 -1.0369583444999792e-02 0.0000000000000000e+00  -1.8101623885738818e-05 -1.3627810469858115e-02 0.0000000000000000e+00  -9.3096392487714927e-06 -8.7321802862556641e-03 0.0000000000000000e+00  1.9211549379179877e-05 -1.1566595198574533e-02 0.0000000000000000e+00  3.2544310758616342e-05 -1.7290439973614392e-02 0.0000000000000000e+00  3.7610530533654898e-05 -1.5534861761396436e-02 0.0000000000000000e+00  1.9278129584296476e-24 -8.2216884193529790e-03 0.0000000000000000e+00  1.1709248685150319e-06 -2.0602894396879214e-02 0.0000000000000000e+00  5.1959622758771295e-21 -2.0052342242766356e-02 0.0000000000000000e+00  -1.1727191836055108e-04 -2.3636564982183167e-02 0.0000000000000000e+00  7.5576903276840001e-06 -6.2678627110951983e-03 0.0000000000000000e+00  8.9748767164994429e-06 -2.0600212027434697e-02 0.0000000000000000e+00  1.0971224688282042e-05 -1.3908459931000868e-02 0.0000000000000000e+00  1.6707462639299128e-22 -8.2217625507374197e-03 0.0000000000000000e+00  1.1726749680158060e-04 -2.3636581731807313e-02 0.0000000000000000e+00  -1.7957554806060769e-21 -1.3997331361695529e-02 0.0000000000000000e+00  5.1557757738072169e-23 -4.2236115139028719e-20 0.0000000000000000e+00  3.9734623420233828e-05 -2.3910700726813852e-02 0.0000000000000000e+00  -4.4492281702414370e-22 -2.0052445596119978e-02 0.0000000000000000e+00  -1.6449911972987047e-23 -1.2031935614527668e-20 0.0000000000000000e+00  2.6182893889986771e-21 -1.3997273362416612e-02 0.0000000000000000e+00  -1.3644374529704123e-22 -2.7157377468215150e-03 0.0000000000000000e+00  -1.6590413015610856e-05 -1.6644781999926854e-02 0.0000000000000000e+00  1.4172654758362970e-06 -2.3564443284490159e-03 0.0000000000000000e+00  -4.7095342474070178e-06 -5.4405528702147670e-03 0.0000000000000000e+00  -9.1029620579807691e-06 -6.1086080813318819e-03 0.0000000000000000e+00  2.1252763023532286e-05 -1.2691127064543239e-02 0.0000000000000000e+00  1.7432785943197369e-05 -9.3997029924676682e-03 0.0000000000000000e+00  -1.7822080721971282e-05 -1.1289417285478649e-02 0.0000000000000000e+00  6.6381336800621030e-06 -5.9036046082229952e-03 0.0000000000000000e+00  -6.1206037850791772e-06 -3.9035313983740395e-03 0.0000000000000000e+00  -9.7858453126883435e-06 -2.0779318522097676e-02 0.0000000000000000e+00  -4.7636757161052791e-05 -1.6545004264409736e-02 0.0000000000000000e+00  -1.5920577989208188e-05 -8.7154137477906141e-03 0.0000000000000000e+00  -1.3575612837207620e-05 -1.1142161565763864e-02 0.0000000000000000e+00  -3.1424357504873859e-05 -1.3596762712889499e-02 0.0000000000000000e+00  1.6915958739279355e-08 -8.7311088365927651e-03 0.0000000000000000e+00  -3.1538187823922626e-06 -1.9251723906851918e-02 0.0000000000000000e+00  -2.9201290503996063e-05 -1.2438673986350965e-02 0.0000000000000000e+00  4.6517251205193334e-05 -2.0627281942156146e-02 0.0000000000000000e+00  4.3654728960774331e-05 -1.7819407870182307e-02 0.0000000000000000e+00  4.5974004919123794e-05 -1.6370806476238953e-02 0.0000000000000000e+00  -6.1250701821442561e-06 -6.9862245103765007e-03 0.0000000000000000e+00  9.8510811393846511e-06 -8.5595618975558996e-03 0.0000000000000000e+00  2.7892580571930066e-05 -1.4855581434899519e-02 0.0000000000000000e+00  3.6915934407974619e-06 -2.1384249871017853e-02 0.0000000000000000e+00  2.5620295581148301e-05 -1.1580441898799188e-02 0.0000000000000000e+00  -8.2963793261263386e-07 -3.3034263778365558e-03 0.0000000000000000e+00  2.4773819852637660e-06 -1.6026116542767286e-03 0.0000000000000000e+00  3.3173083869845002e-06 -1.9262083084455139e-03 0.0000000000000000e+00  3.6875303845809646e-06 -4.0734224200924844e-03 0.0000000000000000e+00  3.4502724080779165e-06 -2.0344875318302471e-03 0.0000000000000000e+00  -2.6435796850280345e-06 -1.5323171406847410e-03 0.0000000000000000e+00  -3.4833708307460110e-06 -2.0056057800547059e-03 0.0000000000000000e+00  -3.6559542628875204e-06 -4.0735515438765904e-03 0.0000000000000000e+00  -4.0712415014628565e-05 -1.8573079962254081e-02 0.0000000000000000e+00  -4.4537518961896193e-05 -2.1037468580969089e-02 0.0000000000000000e+00  -4.8426488195155976e-06 -1.4881117285633790e-02 0.0000000000000000e+00  -2.2638365244973796e-06 -1.4499380651426751e-03 0.0000000000000000e+00  -3.1694233879803652e-05 -1.6043934874286601e-02 0.0000000000000000e+00  -4.1364283367025244e-05 -1.8289021544581497e-02 0.0000000000000000e+00  3.6298483425548703e-06 -2.1700488868858815e-02 0.0000000000000000e+00  -2.5873900304227600e-05 -1.8103231031543557e-02 0.0000000000000000e+00  -9.0070828406040075e-07 -1.4158363982304067e-03 0.0000000000000000e+00  4.9534460840100659e-06 -2.1774144733574800e-02 0.0000000000000000e+00  -7.9671577786840796e-06 -9.5925817190891001e-03 0.0000000000000000e+00  -1.9696512888191578e-06 -6.8014795465790121e-03 0.0000000000000000e+00  1.2471039144267414e-05 -1.0707957471056392e-02 0.0000000000000000e+00  1.4353271906227581e-05 -8.3824969752258893e-03 0.0000000000000000e+00  1.5714632147777306e-05 -1.9222605520055974e-02 0.0000000000000000e+00  -2.0606993061043437e-05 -1.0336740615930236e-02 0.0000000000000000e+00  8.3001904390139018e-06 -5.3257501852496288e-03 0.0000000000000000e+00  -3.9403964263741840e-05 -1.4602027141218192e-02 0.0000000000000000e+00  -3.3901343523004285e-22 -1.2522734954376323e-02 0.0000000000000000e+00  3.6061007798020763e-06 -4.2601144712543842e-03 0.0000000000000000e+00  8.0224460069159381e-06 -5.3170647182742654e-03 0.0000000000000000e+00  5.8343131278687145e-06 -3.6016543720346190e-03 0.0000000000000000e+00  3.4893528383383751e-06 -6.8738138204266297e-03 0.0000000000000000e+00  1.0890668226388949e-05 -7.3990813001395548e-03 0.0000000000000000e+00  7.0920377416166066e-06 -9.9327413627432540e-03 0.0000000000000000e+00  5.9579615031935503e-05 -2.3877973647008253e-02 0.0000000000000000e+00  2.7116367439320052e-05 -1.2186689795073397e-02 0.0000000000000000e+00  -1.4935058983338495e-06 -1.3006335285700629e-02 0.0000000000000000e+00  3.8664563678168590e-21 -2.1523227607400941e-02 0.0000000000000000e+00  3.3999724391115679e-05 -1.3941006482546293e-02 0.0000000000000000e+00  -3.3105825701121896e-23 -6.8248086182098565e-03 0.0000000000000000e+00  1.4460559008162436e-05 -9.7798163586438301e-03 0.0000000000000000e+00  1.0348546812640718e-05 -1.1682640321145243e-02 0.0000000000000000e+00  2.7672880830199935e-05 -1.3144398409502945e-02 0.0000000000000000e+00  -6.6788019047588259e-06 -4.9618400144802888e-03 0.0000000000000000e+00  2.0901374072446631e-05 -1.6478259215016611e-02 0.0000000000000000e+00  -5.9477585198590498e-06 -9.9328204499869871e-03 0.0000000000000000e+00  -2.8392634342585785e-05 -1.4887188246263894e-02 0.0000000000000000e+00  -1.5716012986188751e-05 -9.9218135460269665e-03 0.0000000000000000e+00  -2.2348429311094050e-05 -1.2363853968590379e-02 0.0000000000000000e+00  -1.2078926886292020e-05 -7.9483613810503884e-03 0.0000000000000000e+00  -6.8260907705670885e-06 -7.0716592814756233e-03 0.0000000000000000e+00  4.1619005743972866e-05 -1.8012933133873425e-02 0.0000000000000000e+00  1.4181677376883650e-05 -2.1877915580715265e-02 0.0000000000000000e+00  -1.6216805781734446e-05 -1.2777052642186778e-02 0.0000000000000000e+00  3.8179581501755603e-05 -1.5707132424542938e-02 0.0000000000000000e+00  -9.4488448289852573e-06 -2.1704196365033041e-02 0.0000000000000000e+00  -5.9584056200376557e-05 -2.3877996962584736e-02 0.0000000000000000e+00  -1.2095076548556724e-05 -7.1854797017930367e-03 0.0000000000000000e+00  -7.4920177735171657e-06 -4.7102100911118735e-03 0.0000000000000000e+00  4.9141215408478451e-05 -1.7099975588694753e-02 0.0000000000000000e+00  2.0455441781069965e-05 -1.4247434886772501e-02 0.0000000000000000e+00  -1.3163673645671657e-04 -2.3425528117514499e-02 0.0000000000000000e+00  2.5285655769248381e-05 -1.6261678557440186e-02 0.0000000000000000e+00  -4.8027179224532438e-05 -1.7512446907160879e-02 0.0000000000000000e+00  -5.9431778732812634e-23 -9.6358646522293340e-03 0.0000000000000000e+00  -3.9461285598140920e-06 -2.3591319867338131e-03 0.0000000000000000e+00  -6.2731079505112034e-06 -4.8808438831641114e-03 0.0000000000000000e+00  -2.7122847339192648e-06 -2.2128873477811256e-02 0.0000000000000000e+00  4.9647147044160923e-06 -1.8883262611876749e-02 0.0000000000000000e+00  -9.0439496021583350e-24 2.7260720090357059e-20 0.0000000000000000e+00  2.7348029897584234e-22 -1.3693702813315492e-03 0.0000000000000000e+00  -1.3485159850402741e-05 -1.8397679691603240e-02 0.0000000000000000e+00  -4.0580140867926200e-06 -5.5410809789699714e-03 0.0000000000000000e+00  4.0988056086467713e-05 -1.9290132694298818e-02 0.0000000000000000e+00  -2.6467088120084274e-08 -1.9669594726923353e-03 0.0000000000000000e+00  -1.9300494530134265e-05 -1.4466416682829577e-02 0.0000000000000000e+00  -2.4309086647090633e-05 -1.9374066000745153e-02 0.0000000000000000e+00  -7.9801553630935233e-23 2.4683746244822212e-20 0.0000000000000000e+00  -1.1455287542059959e-22 -1.3696496367853292e-03 0.0000000000000000e+00  1.3173548819856622e-04 -2.3425603333540834e-02 0.0000000000000000e+00  -2.0886200359519843e-21 -2.1523753744742781e-02 0.0000000000000000e+00  1.0924427566001514e-05 -1.5525107225118193e-02 0.0000000000000000e+00  1.9004651466634961e-05 -1.3018795687174831e-02 0.0000000000000000e+00  2.1862239136382878e-06 -1.2940653676979915e-03 0.0000000000000000e+00  1.6764445066906017e-06 -1.4889546199063368e-03 0.0000000000000000e+00  4.3954416375085658e-23 -1.8003728947235087e-20 0.0000000000000000e+00  2.9125641376694484e-05 -1.9894077476081299e-02 0.0000000000000000e+00  -2.5649763483779502e-05 -2.2286229221953412e-02 0.0000000000000000e+00  5.3204073167777132e-06 -7.2066249928894269e-03 0.0000000000000000e+00  1.0759214328090106e-05 -6.9034586289520314e-03 0.0000000000000000e+00  4.0046416193128872e-06 -5.5228601879419963e-03 0.0000000000000000e+00  6.4032960247735759e-06 -4.8610504619492441e-03 0.0000000000000000e+00  1.2380407827407258e-06 -3.6439567277160210e-03 0.0000000000000000e+00  1.1716065398933940e-05 -2.2032362519502514e-02 0.0000000000000000e+00  -8.6936125324736276e-23 -1.2522737482515705e-02 0.0000000000000000e+00  3.1198959934269141e-06 -2.9897451849564007e-03 0.0000000000000000e+00  -1.6100493350199196e-06 -1.3571924660697888e-03 0.0000000000000000e+00  5.5893113278849913e-23 -6.8248912599643318e-03 0.0000000000000000e+00  9.8581532918673895e-05 -2.3752621632107326e-02 0.0000000000000000e+00  -7.0783915492278755e-23 -3.6241364732046723e-20 0.0000000000000000e+00  -9.8554120734226374e-05 -2.3752613047672042e-02 0.0000000000000000e+00  -1.1417801650136423e-21 -1.5492279380050662e-02 0.0000000000000000e+00  -1.1940311296636756e-21 -1.5492310284415929e-02 0.0000000000000000e+00  1.4130760511572872e-22 -5.8656158627144252e-20 0.0000000000000000e+00  3.9610109265225277e-23 2.6309676900058820e-20 0.0000000000000000e+00  2.9644494762459870e-23 2.4077571607506765e-20 0.0000000000000000e+00  -2.8893990452610407e-22 -1.8530340188309027e-02 0.0000000000000000e+00  3.3827005363456553e-23 -6.9277706984359020e-20 0.0000000000000000e+00  1.9898576026985955e-05 -2.3929264481253262e-02 0.0000000000000000e+00  -1.9871118519717434e-05 -2.3929284270023561e-02 0.0000000000000000e+00  0.0000000000000000e+00 -1.8530248730862581e-02 0.0000000000000000e+00  -4.5997159480278108e-22 -9.6358862199738184e-03 0.0000000000000000e+00  -2.1849467045064587e-22 -4.0740579911341199e-03 0.0000000000000000e+00  2.1175719294252640e-22 -4.0739176711458401e-03 0.0000000000000000e+00  -7.8432303629719868e-06 -1.1942453163365872e-02 0.0000000000000000e+00  -1.6621956564705093e-05 -1.5090081562537811e-02 0.0000000000000000e+00  -2.7967765302923367e-05 -1.6405504026557372e-02 0.0000000000000000e+00  -4.5909031104365904e-06 -1.6468297399245043e-02 0.0000000000000000e+00  2.7109075148408171e-05 -1.8970239873256297e-02 0.0000000000000000e+00  -4.3145078759459061e-06 -4.1957863728860996e-03 0.0000000000000000e+00  -1.8240908927612544e-06 -5.4606229339377857e-03 0.0000000000000000e+00  -2.0262762395165604e-08 -2.0644354711469935e-02 0.0000000000000000e+00  -4.1428212340504630e-06 -2.8031138261502709e-03 0.0000000000000000e+00  -1.0036111883299687e-05 -7.3074867022395931e-03 0.0000000000000000e+00  4.0022586207118990e-05 -2.1685399776378681e-02 0.0000000000000000e+00  -9.9515783879782301e-06 -2.2059665912882439e-02 0.0000000000000000e+00  2.0587729185305149e-05 -1.0716368400287784e-02 0.0000000000000000e+00  1.8510249016499458e-05 -9.5918649275037460e-03 0.0000000000000000e+00  1.3880544434120046e-05 -8.0527481976922950e-03 0.0000000000000000e+00  -5.7195935712363162e-06 -8.2366199093482344e-03 0.0000000000000000e+00  -9.2678029676098052e-06 -1.0943332596754281e-02 0.0000000000000000e+00  -1.4543915843103478e-05 -9.9369474444987328e-03 0.0000000000000000e+00  -2.4865979709941340e-05 -1.2619781066255002e-02 0.0000000000000000e+00  1.5065404885563433e-05 -1.8016692724692758e-02 0.0000000000000000e+00  1.0347140162703061e-05 -1.1915297210800172e-02 0.0000000000000000e+00  -7.8937692475771366e-06 -6.2229271784646220e-03 0.0000000000000000e+00  2.0178509302439925e-05 -1.1380111297247891e-02 0.0000000000000000e+00  7.0885469656875680e-06 -9.4758689196052480e-03 0.0000000000000000e+00  -4.3374972489828722e-06 -8.0547940737984176e-03 0.0000000000000000e+00  -8.0486960980937934e-06 -5.1608154604209245e-03 0.0000000000000000e+00  -5.6221342032238729e-06 -3.4233629731682661e-03 0.0000000000000000e+00  -2.7166202264354412e-05 -2.0394780266732512e-02 0.0000000000000000e+00  -5.0135058175949708e-05 -1.8037711445643270e-02 0.0000000000000000e+00  2.5260052796604151e-05 -2.2216454055322538e-02 0.0000000000000000e+00  -4.0505965854869465e-05 -1.5178882586679310e-02 0.0000000000000000e+00  -4.3949925049454119e-05 -1.5983685433422105e-02 0.0000000000000000e+00  4.0214666717080970e-06 -2.4735491509652731e-03 0.0000000000000000e+00  4.2008421760879139e-05 -1.5268540850024681e-02 0.0000000000000000e+00  5.3804726791804630e-07 -1.1769363943315452e-03 0.0000000000000000e+00  -9.5732025256750258e-06 -5.9149564331662571e-03 0.0000000000000000e+00  -1.1795460917495744e-05 -2.2398842881635447e-02 0.0000000000000000e+00  4.0734819244982969e-05 -2.0137470714067025e-02 0.0000000000000000e+00  5.2793142987862755e-05 -1.8901947083889748e-02 0.0000000000000000e+00  -1.9973913188032035e-05 -1.0038509968021313e-02 0.0000000000000000e+00  -1.4425947816685070e-05 -8.3229975067901588e-03 0.0000000000000000e+00  7.8786764735127787e-06 -7.1164445159803613e-03 0.0000000000000000e+00  3.8928793080054442e-06 -5.7300842505278934e-03 0.0000000000000000e+00  6.1398439479657060e-06 -4.8367475679207024e-03 0.0000000000000000e+00  9.9446939722589799e-06 -7.5002963656452667e-03 0.0000000000000000e+00  -2.0543422187820897e-06 -1.1764251210507699e-03 0.0000000000000000e+00  1.3059665313291665e-05 -1.0710309343285764e-02 0.0000000000000000e+00  1.3644752505904269e-05 -8.6710667924094070e-03 0.0000000000000000e+00  -2.0708179393473988e-06 -1.7865796803295555e-02 0.0000000000000000e+00  -6.9860728579701187e-06 -6.0438490283311105e-03 0.0000000000000000e+00  4.0180473545160353e-06 -2.4558999710890071e-03 0.0000000000000000e+00  4.3709490154197306e-06 -3.1878327539584905e-03 0.0000000000000000e+00  3.0527021035805878e-06 -2.7819475018517653e-03 0.0000000000000000e+00  3.1077762865956041e-05 -1.2790530295953072e-02 0.0000000000000000e+00  -6.3998100401564454e-06 -1.9743631095932395e-02 0.0000000000000000e+00  -2.5042791217365750e-05 -1.1364221728217520e-02 0.0000000000000000e+00  -2.7983556446793753e-05 -1.2343984009106704e-02 0.0000000000000000e+00  1.4647351999515697e-05 -9.1964282138765289e-03 0.0000000000000000e+00  1.0736464598415015e-08 -9.9315522617571591e-03 0.0000000000000000e+00  4.9846936320875278e-06 -8.7326975618006904e-03 0.0000000000000000e+00  -2.7267399620711283e-05 -1.7205905142235457e-02 0.0000000000000000e+00  -1.5470525292032209e-05 -1.2375198676449567e-02 0.0000000000000000e+00  -1.1331235600772653e-05 -9.9285742831749305e-03 0.0000000000000000e+00  -1.8922424982100322e-05 -1.1133504965367722e-02 0.0000000000000000e+00  -2.5705640191452441e-05 -1.3614529041383043e-02 0.0000000000000000e+00  -3.5401389421670632e-05 -1.4865576703458117e-02 0.0000000000000000e+00  3.4030550370908709e-06 -1.2250370820253674e-03 0.0000000000000000e+00  -1.2875997570859347e-05 -7.6390174590310360e-03 0.0000000000000000e+00  1.1028828186485401e-05 -1.3148011988681679e-02 0.0000000000000000e+00  -1.5572089436777631e-05 -9.0595029074668956e-03 0.0000000000000000e+00  1.8854913255049779e-05 -1.4773098907322861e-02 0.0000000000000000e+00  2.9956281067628176e-05 -1.6121411512397443e-02 0.0000000000000000e+00  3.3730014524756009e-05 -1.4509493544473052e-02 0.0000000000000000e+00  5.1206014103871529e-06 -8.3148338583011305e-03 0.0000000000000000e+00  -2.6607326017712720e-06 -4.4459816392034427e-03 0.0000000000000000e+00  -5.3474287089669468e-06 -3.8643793421259923e-03 0.0000000000000000e+00  -3.3155391289820874e-05 -1.3301382090007379e-02 0.0000000000000000e+00  -2.3198040609009919e-05 -1.1396950701230297e-02 0.0000000000000000e+00  -3.2194788927851206e-05 -1.3392512359543680e-02 0.0000000000000000e+00  -1.6743917420074235e-07 -4.2741416487213982e-03 0.0000000000000000e+00  -2.3