<?xml version="1.0"?>
<VTKFile type="UnstructuredGrid"  version="0.1"  >
<UnstructuredGrid>
<Piece  NumberOfPoints="1661" NumberOfCells="3200">
<Points>
<DataArray  type="Float64"  NumberOfComponents="3"  format="ascii">-0.25 -1 0  -0.225 -1 0  -0.2 -1 0  -0.175 -1 0  -0.15 -1 0  -0.125 -1 0  -0.1 -1 0  -0.07500000000000001 -1 0  -0.04999999999999999 -1 0  -0.02499999999999999 -1 0  0 -1 0  0.02500000000000002 -1 0  0.04999999999999999 -1 0  0.07500000000000001 -1 0  0.09999999999999998 -1 0  0.125 -1 0  0.15 -1 0  0.175 -1 0  0.2 -1 0  0.225 -1 0  0.25 -1 0  -0.25 -0.975 0  -0.225 -0.975 0  -0.2 -0.975 0  -0.175 -0.975 0  -0.15 -0.975 0  -0.125 -0.975 0  -0.1 -0.975 0  -0.07500000000000001 -0.975 0  -0.04999999999999999 -0.975 0  -0.02499999999999999 -0.975 0  0 -0.975 0  0.02500000000000002 -0.975 0  0.04999999999999999 -0.975 0  0.07500000000000001 -0.975 0  0.09999999999999998 -0.975 0  0.125 -0.975 0  0.15 -0.975 0  0.175 -0.975 0  0.2 -0.975 0  0.225 -0.975 0  0.25 -0.975 0  -0.25 -0.95 0  -0.225 -0.95 0  -0.2 -0.95 0  -0.175 -0.95 0  -0.15 -0.95 0  -0.125 -0.95 0  -0.1 -0.95 0  -0.07500000000000001 -0.95 0  -0.04999999999999999 -0.95 0  -0.02499999999999999 -0.95 0  0 -0.95 0  0.02500000000000002 -0.95 0  0.04999999999999999 -0.95 0  0.07500000000000001 -0.95 0  0.09999999999999998 -0.95 0  0.125 -0.95 0  0.15 -0.95 0  0.175 -0.95 0  0.2 -0.95 0  0.225 -0.95 0  0.25 -0.95 0  -0.25 -0.925 0  -0.225 -0.925 0  -0.2 -0.925 0  -0.175 -0.925 0  -0.15 -0.925 0  -0.125 -0.925 0  -0.1 -0.925 0  -0.07500000000000001 -0.925 0  -0.04999999999999999 -0.925 0  -0.02499999999999999 -0.925 0  0 -0.925 0  0.02500000000000002 -0.925 0  0.04999999999999999 -0.925 0  0.07500000000000001 -0.925 0  0.09999999999999998 -0.925 0  0.125 -0.925 0  0.15 -0.925 0  0.175 -0.925 0  0.2 -0.925 0  0.225 -0.925 0  0.25 -0.925 0  -0.25 -0.9 0  -0.225 -0.9 0  -0.2 -0.9 0  -0.175 -0.9 0  -0.15 -0.9 0  -0.125 -0.9 0  -0.1 -0.9 0  -0.07500000000000001 -0.9 0  -0.04999999999999999 -0.9 0  -0.02499999999999999 -0.9 0  0 -0.9 0  0.02500000000000002 -0.9 0  0.04999999999999999 -0.9 0  0.07500000000000001 -0.9 0  0.09999999999999998 -0.9 0  0.125 -0.9 0  0.15 -0.9 0  0.175 -0.9 0  0.2 -0.9 0  0.225 -0.9 0  0.25 -0.9 0  -0.25 -0.875 0  -0.225 -0.875 0  -0.2 -0.875 0  -0.175 -0.875 0  -0.15 -0.875 0  -0.125 -0.875 0  -0.1 -0.875 0  -0.07500000000000001 -0.875 0  -0.04999999999999999 -0.875 0  -0.02499999999999999 -0.875 0  0 -0.875 0  0.02500000000000002 -0.875 0  0.04999999999999999 -0.875 0  0.07500000000000001 -0.875 0  0.09999999999999998 -0.875 0  0.125 -0.875 0  0.15 -0.875 0  0.175 -0.875 0  0.2 -0.875 0  0.225 -0.875 0  0.25 -0.875 0  -0.25 -0.85 0  -0.225 -0.85 0  -0.2 -0.85 0  -0.175 -0.85 0  -0.15 -0.85 0  -0.125 -0.85 0  -0.1 -0.85 0  -0.07500000000000001 -0.85 0  -0.04999999999999999 -0.85 0  -0.02499999999999999 -0.85 0  0 -0.85 0  0.02500000000000002 -0.85 0  0.04999999999999999 -0.85 0  0.07500000000000001 -0.85 0  0.09999999999999998 -0.85 0  0.125 -0.85 0  0.15 -0.85 0  0.175 -0.85 0  0.2 -0.85 0  0.225 -0.85 0  0.25 -0.85 0  -0.25 -0.825 0  -0.225 -0.825 0  -0.2 -0.825 0  -0.175 -0.825 0  -0.15 -0.825 0  -0.125 -0.825 0  -0.1 -0.825 0  -0.07500000000000001 -0.825 0  -0.04999999999999999 -0.825 0  -0.02499999999999999 -0.825 0  0 -0.825 0  0.02500000000000002 -0.825 0  0.04999999999999999 -0.825 0  0.07500000000000001 -0.825 0  0.09999999999999998 -0.825 0  0.125 -0.825 0  0.15 -0.825 0  0.175 -0.825 0  0.2 -0.825 0  0.225 -0.825 0  0.25 -0.825 0  -0.25 -0.8 0  -0.225 -0.8 0  -0.2 -0.8 0  -0.175 -0.8 0  -0.15 -0.8 0  -0.125 -0.8 0  -0.1 -0.8 0  -0.07500000000000001 -0.8 0  -0.04999999999999999 -0.8 0  -0.02499999999999999 -0.8 0  0 -0.8 0  0.02500000000000002 -0.8 0  0.04999999999999999 -0.8 0  0.07500000000000001 -0.8 0  0.09999999999999998 -0.8 0  0.125 -0.8 0  0.15 -0.8 0  0.175 -0.8 0  0.2 -0.8 0  0.225 -0.8 0  0.25 -0.8 0  -0.25 -0.775 0  -0.225 -0.775 0  -0.2 -0.775 0  -0.175 -0.775 0  -0.15 -0.775 0  -0.125 -0.775 0  -0.1 -0.775 0  -0.07500000000000001 -0.775 0  -0.04999999999999999 -0.775 0  -0.02499999999999999 -0.775 0  0 -0.775 0  0.02500000000000002 -0.775 0  0.04999999999999999 -0.775 0  0.07500000000000001 -0.775 0  0.09999999999999998 -0.775 0  0.125 -0.775 0  0.15 -0.775 0  0.175 -0.775 0  0.2 -0.775 0  0.225 -0.775 0  0.25 -0.775 0  -0.25 -0.75 0  -0.225 -0.75 0  -0.2 -0.75 0  -0.175 -0.75 0  -0.15 -0.75 0  -0.125 -0.75 0  -0.1 -0.75 0  -0.07500000000000001 -0.75 0  -0.04999999999999999 -0.75 0  -0.02499999999999999 -0.75 0  0 -0.75 0  0.02500000000000002 -0.75 0  0.04999999999999999 -0.75 0  0.07500000000000001 -0.75 0  0.09999999999999998 -0.75 0  0.125 -0.75 0  0.15 -0.75 0  0.175 -0.75 0  0.2 -0.75 0  0.225 -0.75 0  0.25 -0.75 0  -0.25 -0.725 0  -0.225 -0.725 0  -0.2 -0.725 0  -0.175 -0.725 0  -0.15 -0.725 0  -0.125 -0.725 0  -0.1 -0.725 0  -0.07500000000000001 -0.725 0  -0.04999999999999999 -0.725 0  -0.02499999999999999 -0.725 0  0 -0.725 0  0.02500000000000002 -0.725 0  0.04999999999999999 -0.725 0  0.07500000000000001 -0.725 0  0.09999999999999998 -0.725 0  0.125 -0.725 0  0.15 -0.725 0  0.175 -0.725 0  0.2 -0.725 0  0.225 -0.725 0  0.25 -0.725 0  -0.25 -0.7 0  -0.225 -0.7 0  -0.2 -0.7 0  -0.175 -0.7 0  -0.15 -0.7 0  -0.125 -0.7 0  -0.1 -0.7 0  -0.07500000000000001 -0.7 0  -0.04999999999999999 -0.7 0  -0.02499999999999999 -0.7 0  0 -0.7 0  0.02500000000000002 -0.7 0  0.04999999999999999 -0.7 0  0.07500000000000001 -0.7 0  0.09999999999999998 -0.7 0  0.125 -0.7 0  0.15 -0.7 0  0.175 -0.7 0  0.2 -0.7 0  0.225 -0.7 0  0.25 -0.7 0  -0.25 -0.675 0  -0.225 -0.675 0  -0.2 -0.675 0  -0.175 -0.675 0  -0.15 -0.675 0  -0.125 -0.675 0  -0.1 -0.675 0  -0.07500000000000001 -0.675 0  -0.04999999999999999 -0.675 0  -0.02499999999999999 -0.675 0  0 -0.675 0  0.02500000000000002 -0.675 0  0.04999999999999999 -0.675 0  0.07500000000000001 -0.675 0  0.09999999999999998 -0.675 0  0.125 -0.675 0  0.15 -0.675 0  0.175 -0.675 0  0.2 -0.675 0  0.225 -0.675 0  0.25 -0.675 0  -0.25 -0.65 0  -0.225 -0.65 0  -0.2 -0.65 0  -0.175 -0.65 0  -0.15 -0.65 0  -0.125 -0.65 0  -0.1 -0.65 0  -0.07500000000000001 -0.65 0  -0.04999999999999999 -0.65 0  -0.02499999999999999 -0.65 0  0 -0.65 0  0.02500000000000002 -0.65 0  0.04999999999999999 -0.65 0  0.07500000000000001 -0.65 0  0.09999999999999998 -0.65 0  0.125 -0.65 0  0.15 -0.65 0  0.175 -0.65 0  0.2 -0.65 0  0.225 -0.65 0  0.25 -0.65 0  -0.25 -0.625 0  -0.225 -0.625 0  -0.2 -0.625 0  -0.175 -0.625 0  -0.15 -0.625 0  -0.125 -0.625 0  -0.1 -0.625 0  -0.07500000000000001 -0.625 0  -0.04999999999999999 -0.625 0  -0.02499999999999999 -0.625 0  0 -0.625 0  0.02500000000000002 -0.625 0  0.04999999999999999 -0.625 0  0.07500000000000001 -0.625 0  0.09999999999999998 -0.625 0  0.125 -0.625 0  0.15 -0.625 0  0.175 -0.625 0  0.2 -0.625 0  0.225 -0.625 0  0.25 -0.625 0  -0.25 -0.6 0  -0.225 -0.6 0  -0.2 -0.6 0  -0.175 -0.6 0  -0.15 -0.6 0  -0.125 -0.6 0  -0.1 -0.6 0  -0.07500000000000001 -0.6 0  -0.04999999999999999 -0.6 0  -0.02499999999999999 -0.6 0  0 -0.6 0  0.02500000000000002 -0.6 0  0.04999999999999999 -0.6 0  0.07500000000000001 -0.6 0  0.09999999999999998 -0.6 0  0.125 -0.6 0  0.15 -0.6 0  0.175 -0.6 0  0.2 -0.6 0  0.225 -0.6 0  0.25 -0.6 0  -0.25 -0.575 0  -0.225 -0.575 0  -0.2 -0.575 0  -0.175 -0.575 0  -0.15 -0.575 0  -0.125 -0.575 0  -0.1 -0.575 0  -0.07500000000000001 -0.575 0  -0.04999999999999999 -0.575 0  -0.02499999999999999 -0.575 0  0 -0.575 0  0.02500000000000002 -0.575 0  0.04999999999999999 -0.575 0  0.07500000000000001 -0.575 0  0.09999999999999998 -0.575 0  0.125 -0.575 0  0.15 -0.575 0  0.175 -0.575 0  0.2 -0.575 0  0.225 -0.575 0  0.25 -0.575 0  -0.25 -0.55 0  -0.225 -0.55 0  -0.2 -0.55 0  -0.175 -0.55 0  -0.15 -0.55 0  -0.125 -0.55 0  -0.1 -0.55 0  -0.07500000000000001 -0.55 0  -0.04999999999999999 -0.55 0  -0.02499999999999999 -0.55 0  0 -0.55 0  0.02500000000000002 -0.55 0  0.04999999999999999 -0.55 0  0.07500000000000001 -0.55 0  0.09999999999999998 -0.55 0  0.125 -0.55 0  0.15 -0.55 0  0.175 -0.55 0  0.2 -0.55 0  0.225 -0.55 0  0.25 -0.55 0  -0.25 -0.525 0  -0.225 -0.525 0  -0.2 -0.525 0  -0.175 -0.525 0  -0.15 -0.525 0  -0.125 -0.525 0  -0.1 -0.525 0  -0.07500000000000001 -0.525 0  -0.04999999999999999 -0.525 0  -0.02499999999999999 -0.525 0  0 -0.525 0  0.02500000000000002 -0.525 0  0.04999999999999999 -0.525 0  0.07500000000000001 -0.525 0  0.09999999999999998 -0.525 0  0.125 -0.525 0  0.15 -0.525 0  0.175 -0.525 0  0.2 -0.525 0  0.225 -0.525 0  0.25 -0.525 0  -0.25 -0.5 0  -0.225 -0.5 0  -0.2 -0.5 0  -0.175 -0.5 0  -0.15 -0.5 0  -0.125 -0.5 0  -0.1 -0.5 0  -0.07500000000000001 -0.5 0  -0.04999999999999999 -0.5 0  -0.02499999999999999 -0.5 0  0 -0.5 0  0.02500000000000002 -0.5 0  0.04999999999999999 -0.5 0  0.07500000000000001 -0.5 0  0.09999999999999998 -0.5 0  0.125 -0.5 0  0.15 -0.5 0  0.175 -0.5 0  0.2 -0.5 0  0.225 -0.5 0  0.25 -0.5 0  -0.25 -0.475 0  -0.225 -0.475 0  -0.2 -0.475 0  -0.175 -0.475 0  -0.15 -0.475 0  -0.125 -0.475 0  -0.1 -0.475 0  -0.07500000000000001 -0.475 0  -0.04999999999999999 -0.475 0  -0.02499999999999999 -0.475 0  0 -0.475 0  0.02500000000000002 -0.475 0  0.04999999999999999 -0.475 0  0.07500000000000001 -0.475 0  0.09999999999999998 -0.475 0  0.125 -0.475 0  0.15 -0.475 0  0.175 -0.475 0  0.2 -0.475 0  0.225 -0.475 0  0.25 -0.475 0  -0.25 -0.45 0  -0.225 -0.45 0  -0.2 -0.45 0  -0.175 -0.45 0  -0.15 -0.45 0  -0.125 -0.45 0  -0.1 -0.45 0  -0.07500000000000001 -0.45 0  -0.04999999999999999 -0.45 0  -0.02499999999999999 -0.45 0  0 -0.45 0  0.02500000000000002 -0.45 0  0.04999999999999999 -0.45 0  0.07500000000000001 -0.45 0  0.09999999999999998 -0.45 0  0.125 -0.45 0  0.15 -0.45 0  0.175 -0.45 0  0.2 -0.45 0  0.225 -0.45 0  0.25 -0.45 0  -0.25 -0.425 0  -0.225 -0.425 0  -0.2 -0.425 0  -0.175 -0.425 0  -0.15 -0.425 0  -0.125 -0.425 0  -0.1 -0.425 0  -0.07500000000000001 -0.425 0  -0.04999999999999999 -0.425 0  -0.02499999999999999 -0.425 0  0 -0.425 0  0.02500000000000002 -0.425 0  0.04999999999999999 -0.425 0  0.07500000000000001 -0.425 0  0.
[...]
<PointData  Vectors="displacement"> 
<DataArray  type="Float64"  Name="displacement"  NumberOfComponents="3" format="ascii">2.7083389842945535e-33 7.1150767569361306e-18 0.0000000000000000e+00  0.0000000000000000e+00 -3.1763735522036309e-18 0.0000000000000000e+00  3.6957542389852769e-32 4.4240927881786194e-18 0.0000000000000000e+00  6.5000135623069298e-32 2.2869889575866140e-18 0.0000000000000000e+00  -2.9309170771741387e-32 -2.7913662372340866e-18 0.0000000000000000e+00  5.7777898331617152e-32 3.9387032047325020e-18 0.0000000000000000e+00  -8.1522991550963538e-32 7.4544280879121542e-19 0.0000000000000000e+00  1.9500040686920789e-31 1.2705494208814522e-19 0.0000000000000000e+00  5.0253193553150101e-32 2.2869916407117175e-18 0.0000000000000000e+00  1.0833355937178219e-31 -2.4140438996747602e-18 0.0000000000000000e+00  -5.8678692480891447e-32 5.2052627008831472e-22 0.0000000000000000e+00  4.3333423748712894e-32 6.3527471044072660e-19 0.0000000000000000e+00  -5.0499615049893067e-32 -2.7805155848451732e-18 0.0000000000000000e+00  7.2222372914521413e-33 1.3976043629695969e-18 0.0000000000000000e+00  1.0872922112754193e-32 2.8504693722401032e-18 0.0000000000000000e+00  -1.8055593228630342e-32 6.3527471044072545e-19 0.0000000000000000e+00  -2.1610664394806753e-32 1.2852429524078366e-18 0.0000000000000000e+00  -2.7083389842945537e-32 7.6232965252887117e-19 0.0000000000000000e+00  3.6071570729645848e-32 -4.4469229730850806e-19 0.0000000000000000e+00  -2.8888949165808598e-32 1.2705494208814532e-18 0.0000000000000000e+00  1.2638915260041243e-32 1.0164395367051610e-18 0.0000000000000000e+00  -3.6111186457260631e-33 -1.4323216489922031e-02 0.0000000000000000e+00  -8.7079802049236325e-17 -1.4323216489922007e-02 0.0000000000000000e+00  -1.7651609170444671e-16 -1.4323216489922019e-02 0.0000000000000000e+00  -2.6965383955166491e-16 -1.4323216489922037e-02 0.0000000000000000e+00  -3.5820479452499185e-16 -1.4323216489922031e-02 0.0000000000000000e+00  -4.4279431868516934e-16 -1.4323216489922085e-02 0.0000000000000000e+00  -5.2133906123663589e-16 -1.4323216489922094e-02 0.0000000000000000e+00  -5.8929968590241072e-16 -1.4323216489922134e-02 0.0000000000000000e+00  -6.4720206261417753e-16 -1.4323216489922196e-02 0.0000000000000000e+00  -6.9174375233653253e-16 -1.4323216489922252e-02 0.0000000000000000e+00  -7.1935964936603842e-16 -1.4323216489922326e-02 0.0000000000000000e+00  -7.1573164701450640e-16 -1.4323216489922406e-02 0.0000000000000000e+00  -6.8312200796886863e-16 -1.4323216489922467e-02 0.0000000000000000e+00  -6.2892294787482621e-16 -1.4323216489922529e-02 0.0000000000000000e+00  -5.6066489384329062e-16 -1.4323216489922580e-02 0.0000000000000000e+00  -4.8211062081221064e-16 -1.4323216489922616e-02 0.0000000000000000e+00  -4.0361083276266723e-16 -1.4323216489922651e-02 0.0000000000000000e+00  -3.1275030607121197e-16 -1.4323216489922659e-02 0.0000000000000000e+00  -2.1909775264744711e-16 -1.4323216489922692e-02 0.0000000000000000e+00  -1.1539066012410164e-16 -1.4323216489922725e-02 0.0000000000000000e+00  6.6557959511496337e-33 -1.4323216489922732e-02 0.0000000000000000e+00  3.6087531001872400e-32 -2.8652983273823783e-02 0.0000000000000000e+00  -1.6565356298417348e-16 -2.8652983273823821e-02 0.0000000000000000e+00  -3.3151954172929029e-16 -2.8652983273823790e-02 0.0000000000000000e+00  -4.9758403160792025e-16 -2.8652983273823811e-02 0.0000000000000000e+00  -6.6178227655032414e-16 -2.8652983273823863e-02 0.0000000000000000e+00  -8.0833253271661598e-16 -2.8652983273823891e-02 0.0000000000000000e+00  -9.4463427652663335e-16 -2.8652983273823977e-02 0.0000000000000000e+00  -1.0715472659411108e-15 -2.8652983273824061e-02 0.0000000000000000e+00  -1.1722785358674319e-15 -2.8652983273824165e-02 0.0000000000000000e+00  -1.2511246646126116e-15 -2.8652983273824286e-02 0.0000000000000000e+00  -1.2910105786412089e-15 -2.8652983273824428e-02 0.0000000000000000e+00  -1.2811366764082289e-15 -2.8652983273824626e-02 0.0000000000000000e+00  -1.2283396374453166e-15 -2.8652983273824761e-02 0.0000000000000000e+00  -1.1332733700236386e-15 -2.8652983273824918e-02 0.0000000000000000e+00  -1.0167405706247559e-15 -2.8652983273825022e-02 0.0000000000000000e+00  -8.8105557015992150e-16 -2.8652983273825049e-02 0.0000000000000000e+00  -7.3198967231357230e-16 -2.8652983273825126e-02 0.0000000000000000e+00  -5.7110899942706739e-16 -2.8652983273825199e-02 0.0000000000000000e+00  -3.8824094058654047e-16 -2.8652983273825271e-02 0.0000000000000000e+00  -1.9728984098686886e-16 -2.8652983273825317e-02 0.0000000000000000e+00  4.6428668302192290e-32 -2.8652983273825351e-02 0.0000000000000000e+00  2.5277830520082471e-32 -4.2995840547563051e-02 0.0000000000000000e+00  -2.3908825343044928e-16 -4.2995840547563016e-02 0.0000000000000000e+00  -4.6662215957936071e-16 -4.2995840547563030e-02 0.0000000000000000e+00  -6.9188016430643929e-16 -4.2995840547563079e-02 0.0000000000000000e+00  -9.1173284048816311e-16 -4.2995840547563141e-02 0.0000000000000000e+00  -1.1096952689261723e-15 -4.2995840547563259e-02 0.0000000000000000e+00  -1.2980640998366051e-15 -4.2995840547563322e-02 0.0000000000000000e+00  -1.4649958735968852e-15 -4.2995840547563495e-02 0.0000000000000000e+00  -1.5972847384398484e-15 -4.2995840547563668e-02 0.0000000000000000e+00  -1.6980233454077469e-15 -4.2995840547563891e-02 0.0000000000000000e+00  -1.7493449514546085e-15 -4.2995840547564133e-02 0.0000000000000000e+00  -1.7314203780318102e-15 -4.2995840547564369e-02 0.0000000000000000e+00  -1.6625771032217701e-15 -4.2995840547564633e-02 0.0000000000000000e+00  -1.5477352912490161e-15 -4.2995840547564848e-02 0.0000000000000000e+00  -1.3953576451889707e-15 -4.2995840547564980e-02 0.0000000000000000e+00  -1.2053522755553846e-15 -4.2995840547565160e-02 0.0000000000000000e+00  -9.9565451295345154e-16 -4.2995840547565230e-02 0.0000000000000000e+00  -7.7093162479183606e-16 -4.2995840547565320e-02 0.0000000000000000e+00  -5.2752771545658257e-16 -4.2995840547565389e-02 0.0000000000000000e+00  -2.6492825672819211e-16 -4.2995840547565528e-02 0.0000000000000000e+00  5.7777898331617054e-32 -4.2995840547565556e-02 0.0000000000000000e+00  -4.5720852775232818e-33 -5.7358308326297146e-02 0.0000000000000000e+00  -2.8831668840939838e-16 -5.7358308326297243e-02 0.0000000000000000e+00  -5.7019690877396445e-16 -5.7358308326297243e-02 0.0000000000000000e+00  -8.4839536738362989e-16 -5.7358308326297257e-02 0.0000000000000000e+00  -1.1249690682024134e-15 -5.7358308326297305e-02 0.0000000000000000e+00  -1.3681128620529704e-15 -5.7358308326297493e-02 0.0000000000000000e+00  -1.5869071440374202e-15 -5.7358308326297590e-02 0.0000000000000000e+00  -1.7732827732128433e-15 -5.7358308326297860e-02 0.0000000000000000e+00  -1.9246113618829862e-15 -5.7358308326298089e-02 0.0000000000000000e+00  -2.0498502926644115e-15 -5.7358308326298332e-02 0.0000000000000000e+00  -2.1086303890743163e-15 -5.7358308326298756e-02 0.0000000000000000e+00  -2.0981879951773606e-15 -5.7358308326299089e-02 0.0000000000000000e+00  -2.0147667132540508e-15 -5.7358308326299422e-02 0.0000000000000000e+00  -1.8806756386059416e-15 -5.7358308326299776e-02 0.0000000000000000e+00  -1.6994360383351481e-15 -5.7358308326300012e-02 0.0000000000000000e+00  -1.4620403161289133e-15 -5.7358308326300192e-02 0.0000000000000000e+00  -1.2089981076611265e-15 -5.7358308326300268e-02 0.0000000000000000e+00  -9.3170082260866518e-16 -5.7358308326300449e-02 0.0000000000000000e+00  -6.2779046335121800e-16 -5.7358308326300601e-02 0.0000000000000000e+00  -3.1881725100382360e-16 -5.7358308326300692e-02 0.0000000000000000e+00  8.1930969676697433e-32 -5.7358308326300712e-02 0.0000000000000000e+00  5.0555661040164996e-32 -7.1746876392967604e-02 0.0000000000000000e+00  -3.2602223206932027e-16 -7.1746876392967715e-02 0.0000000000000000e+00  -6.6130139330033396e-16 -7.1746876392967673e-02 0.0000000000000000e+00  -9.8792268510046873e-16 -7.1746876392967701e-02 0.0000000000000000e+00  -1.2823355583204276e-15 -7.1746876392967868e-02 0.0000000000000000e+00  -1.5720994973804861e-15 -7.1746876392968048e-02 0.0000000000000000e+00  -1.8207498094578552e-15 -7.1746876392968215e-02 0.0000000000000000e+00  -2.0180315293484560e-15 -7.1746876392968492e-02 0.0000000000000000e+00  -2.1932804072564735e-15 -7.1746876392968742e-02 0.0000000000000000e+00  -2.3140811825517955e-15 -7.1746876392969117e-02 0.0000000000000000e+00  -2.3848384567011681e-15 -7.1746876392969616e-02 0.0000000000000000e+00  -2.3828143170517816e-15 -7.1746876392970158e-02 0.0000000000000000e+00  -2.2924207177140615e-15 -7.1746876392970574e-02 0.0000000000000000e+00  -2.1420222295645689e-15 -7.1746876392970949e-02 0.0000000000000000e+00  -1.9210473758792462e-15 -7.1746876392971295e-02 0.0000000000000000e+00  -1.6674017046908037e-15 -7.1746876392971531e-02 0.0000000000000000e+00  -1.3896746750251871e-15 -7.1746876392971698e-02 0.0000000000000000e+00  -1.0563747980733230e-15 -7.1746876392971934e-02 0.0000000000000000e+00  -7.1737823805301857e-16 -7.1746876392972059e-02 0.0000000000000000e+00  -3.6435947242170167e-16 -7.1746876392972184e-02 0.0000000000000000e+00  -3.4809032590137305e-32 -7.1746876392972239e-02 0.0000000000000000e+00  -5.0160185272033608e-32 -8.6167994293320851e-02 0.0000000000000000e+00  -3.7124623857586976e-16 -8.6167994293320810e-02 0.0000000000000000e+00  -7.2556680863618350e-16 -8.6167994293320754e-02 0.0000000000000000e+00  -1.0822307441353263e-15 -8.6167994293320838e-02 0.0000000000000000e+00  -1.4151363366889558e-15 -8.6167994293321115e-02 0.0000000000000000e+00  -1.7199352752510833e-15 -8.6167994293321296e-02 0.0000000000000000e+00  -2.0130371141869761e-15 -8.6167994293321490e-02 0.0000000000000000e+00  -2.2384795425854831e-15 -8.6167994293321851e-02 0.0000000000000000e+00  -2.4104665498173299e-15 -8.6167994293322295e-02 0.0000000000000000e+00  -2.5321330341915894e-15 -8.6167994293322711e-02 0.0000000000000000e+00  -2.5889037719104050e-15 -8.6167994293323294e-02 0.0000000000000000e+00  -2.5824728477272166e-15 -8.6167994293323918e-02 0.0000000000000000e+00  -2.4939390766204037e-15 -8.6167994293324432e-02 0.0000000000000000e+00  -2.3254324331839246e-15 -8.6167994293325001e-02 0.0000000000000000e+00  -2.0963382536301351e-15 -8.6167994293325292e-02 0.0000000000000000e+00  -1.8300214520079569e-15 -8.6167994293325625e-02 0.0000000000000000e+00  -1.5051065391055405e-15 -8.6167994293326014e-02 0.0000000000000000e+00  -1.1524658950640757e-15 -8.6167994293326097e-02 0.0000000000000000e+00  -7.7556054707040915e-16 -8.6167994293326389e-02 0.0000000000000000e+00  -3.8881761389166853e-16 -8.6167994293326375e-02 0.0000000000000000e+00  3.4047690088274286e-32 -8.6167994293326486e-02 0.0000000000000000e+00  5.4166779685891008e-32 -1.0062806139286695e-01 0.0000000000000000e+00  -3.9095169569067776e-16 -1.0062806139286708e-01 0.0000000000000000e+00  -7.7817173852529225e-16 -1.0062806139286699e-01 0.0000000000000000e+00  -1.1578737861422697e-15 -1.0062806139286712e-01 0.0000000000000000e+00  -1.5345323390555216e-15 -1.0062806139286735e-01 0.0000000000000000e+00  -1.8738855036117967e-15 -1.0062806139286749e-01 0.0000000000000000e+00  -2.1602692347713838e-15 -1.0062806139286788e-01 0.0000000000000000e+00  -2.4022694531757560e-15 -1.0062806139286835e-01 0.0000000000000000e+00  -2.5943986006061425e-15 -1.0062806139286862e-01 0.0000000000000000e+00  -2.7213137020278058e-15 -1.0062806139286933e-01 0.0000000000000000e+00  -2.7721463690165600e-15 -1.0062806139286984e-01 0.0000000000000000e+00  -2.7449432694954629e-15 -1.0062806139287067e-01 0.0000000000000000e+00  -2.6445569735511953e-15 -1.0062806139287132e-01 0.0000000000000000e+00  -2.4531151849154708e-15 -1.0062806139287199e-01 0.0000000000000000e+00  -2.2297504722938619e-15 -1.0062806139287248e-01 0.0000000000000000e+00  -1.9454902942344045e-15 -1.0062806139287273e-01 0.0000000000000000e+00  -1.6042031347081309e-15 -1.0062806139287316e-01 0.0000000000000000e+00  -1.2350391906496013e-15 -1.0062806139287346e-01 0.0000000000000000e+00  -8.2674835405982510e-16 -1.0062806139287366e-01 0.0000000000000000e+00  -3.9938872865437729e-16 -1.0062806139287374e-01 0.0000000000000000e+00  1.3000027124613838e-31 -1.0062806139287381e-01 0.0000000000000000e+00  7.6722299017467125e-32 -1.1513341701108512e-01 0.0000000000000000e+00  -4.2080983656976828e-16 -1.1513341701108507e-01 0.0000000000000000e+00  -8.3577469919109938e-16 -1.1513341701108526e-01 0.0000000000000000e+00  -1.2342851342383712e-15 -1.1513341701108513e-01 0.0000000000000000e+00  -1.6250123734838231e-15 -1.1513341701108538e-01 0.0000000000000000e+00  -1.9793217587454529e-15 -1.1513341701108579e-01 0.0000000000000000e+00  -2.2726931741309787e-15 -1.1513341701108612e-01 0.0000000000000000e+00  -2.5509091514457624e-15 -1.1513341701108662e-01 0.0000000000000000e+00  -2.7163353348346318e-15 -1.1513341701108724e-01 0.0000000000000000e+00  -2.8413736782697444e-15 -1.1513341701108781e-01 0.0000000000000000e+00  -2.9227347330245333e-15 -1.1513341701108870e-01 0.0000000000000000e+00  -2.8950748038023958e-15 -1.1513341701108958e-01 0.0000000000000000e+00  -2.7768713021821110e-15 -1.1513341701109028e-01 0.0000000000000000e+00  -2.5886342166092558e-15 -1.1513341701109088e-01 0.0000000000000000e+00  -2.3390665383298195e-15 -1.1513341701109145e-01 0.0000000000000000e+00  -2.0416825736052770e-15 -1.1513341701109193e-01 0.0000000000000000e+00  -1.6889534889945975e-15 -1.1513341701109230e-01 0.0000000000000000e+00  -1.2791728007677018e-15 -1.1513341701109263e-01 0.0000000000000000e+00  -8.5234101525538758e-16 -1.1513341701109302e-01 0.0000000000000000e+00  -4.4632602062932949e-16 -1.1513341701109314e-01 0.0000000000000000e+00  5.6187769339512762e-32 -1.1513341701109310e-01 0.0000000000000000e+00  -1.4444474582904252e-32 -1.2969033064806479e-01 0.0000000000000000e+00  -4.5987642284342107e-16 -1.2969033064806479e-01 0.0000000000000000e+00  -9.0787736029960972e-16 -1.2969033064806482e-01 0.0000000000000000e+00  -1.3170089279771714e-15 -1.2969033064806493e-01 0.0000000000000000e+00  -1.7014660572454357e-15 -1.2969033064806512e-01 0.0000000000000000e+00  -2.0665539033834604e-15 -1.2969033064806565e-01 0.0000000000000000e+00  -2.3875298979193786e-15 -1.2969033064806576e-01 0.0000000000000000e+00  -2.6417479026484344e-15 -1.2969033064806665e-01 0.0000000000000000e+00  -2.8342629892802310e-15 -1.2969033064806720e-01 0.0000000000000000e+00  -2.9738159725146225e-15 -1.2969033064806784e-01 0.0000000000000000e+00  -3.0384731610765554e-15 -1.2969033064806879e-01 0.0000000000000000e+00  -3.0095742325433772e-15 -1.2969033064806976e-01 0.0000000000000000e+00  -2.8899567830346942e-15 -1.2969033064807067e-01 0.0000000000000000e+00  -2.7031784851269701e-15 -1.2969033064807142e-01 0.0000000000000000e+00  -2.4375726101965792e-15 -1.2969033064807203e-01 0.0000000000000000e+00  -2.1121876942142300e-15 -1.2969033064807262e-01 0.0000000000000000e+00  -1.7586509264004592e-15 -1.2969033064807295e-01 0.0000000000000000e+00  -1.3306156947785852e-15 -1.2969033064807348e-01 0.0000000000000000e+00  -8.9829476967340249e-16 -1.2969033064807359e-01 0.0000000000000000e+00  -4.5772369352787096e-16 -1.2969033064807392e-01 0.0000000000000000e+00  2.2261805889460148e-32 -1.2969033064807392e-01 0.0000000000000000e+00  3.6743481233018488e-32 -1.4430499231863414e-01 0.0000000000000000e+00  -4.9410294511316776e-16 -1.4430499231863433e-01 0.0000000000000000e+00  -9.5473868502305668e-16 -1.4430499231863425e-01 0.0000000000000000e+00  -1.3763775071851527e-15 -1.4430499231863450e-01 0.0000000000000000e+00  -1.7523000548260596e-15 -1.4430499231863475e-01 0.0000000000000000e+00  -2.1301008610849767e-15 -1.4430499231863517e-01 0.0000000000000000e+00  -2.4592736734912293e-15 -1.4430499231863581e-01 0.0000000000000000e+00  -2.7204329982493809e-15 -1.4430499231863622e-01 0.0000000000000000e+00  -2.9455021440367309e-15 -1.4430499231863711e-01 0.0000000000000000e+00  -3.0672817955374475e-15 -1.4430499231863775e-01 0.0000000000000000e+00  -3.1245207146633189e-15 -1.4430499231863894e-01 0.0000000000000000e+00  -3.0876641239965380e-15 -1.4430499231863983e-01 0.0000000000000000e+00  -2.9538461082860782e-15 -1.4430499231864088e-01 0.0000000000000000e+00  -2.7535487397620687e-15 -1.4430499231864183e-01 0.0000000000000000e+00  -2.5006759511592340e-15 -1.4430499231864238e-01 0.0000000000000000e+00  -2.2049000018473048e-15 -1.4430499231864305e-01 0.0000000000000000e+00  -1.8166295577582346e-15 -1.4430499231864360e-01 0.0000000000000000e+00  -1.3792242695641740e-15 -1.4430499231864405e-01 0.0000000000000000e+00  -9.4668206057512245e-16 -1.4430499231864435e-01 0.0000000000000000e+00  -4.7995381538389043e-16 -1.4430499231864441e-01 0.0000000000000000e+00  2.6825452796822229e-32 -1.4430499231864455e-01 0.0000000000000000e+00  -7.2222372914521257e-32 -1.5898350300886357e-01 0.0000000000000000e+00  -5.2083898293147742e-16 -1.5898350300886355e-01 0.0000000000000000e+00  -9.6600023496854247e-16 -1.5898350300886388e-01 0.0000000000000000e+00  -1.4051874727582868e-15 -1.5898350300886402e-01 0.0000000000000000e+00  -1.8188189901761180e-15 -1.5898350300886435e-01 0.0000000000000000e+00  -2.1749565076631100e-15 -1.5898350300886471e-01 0.0000000000000000e+00  -2.5150562155373628e-15 -1.5898350300886530e-01 0.0000000000000000e+00  -2.8027620026878119e-15 -1.5898350300886599e-01 0.0000000000000000e+00  -3.0216095701726129e-15 -1.5898350300886691e-01 0.0000000000000000e+00  -3.1667114510047326e-15 -1.5898350300886760e-01 0.0000000000000000e+00  -3.1827325332644282e-15 -1.5898350300886871e-01 0.0000000000000000e+00  -3.1395628859421389e-15 -1.5898350300886999e-01 0.0000000000000000e+00  -3.0354463627091818e-15 -1.5898350300887096e-01 0.0000000000000000e+00  -2.8188302388419128e-15 -1.5898350300887210e-01 0.0000000000000000e+00  -2.5684546146000721e-15 -1.5898350300887287e-01 0.0000000000000000e+00  -2.2583726726566867e-15 -1.5898350300887351e-01 0.0000000000000000e+00  -1.8679669924364174e-15 -1.5898350300887415e-01 0.0000000000000000e+00  -1.4291532100944775e-15 -1.5898350300887459e-01 0.0000000000000000e+00  -9.8760106729740328e-16 -1.5898350300887495e-01 0.0000000000000000e+00  -5.0629096922715722e-16 -1.5898350300887518e-01 0.0000000000000000e+00  2.8888949165808489e-32 -1.5898350300887512e-01 0.0000000000000000e+00  1.2266518649700735e-31 -1.7373186526964166e-01 0.0000000000000000e+00  -4.9314183119929935e-16 -1.7373186526964163e-01 0.0000000000000000e+00  -9.8289871983380544e-16 -1.7373186526964185e-01 0.0000000000000000e+00  -1.4650785097506271e-15 -1.7373186526964204e-01 0.0000000000000000e+00  -1.8967651466623614e-15 -1.7373186526964260e-01 0.0000000000000000e+00  -2.2583781201548102e-15 -1.7373186526964279e-01 0.0000000000000000e+00  -2.5743730864077182e-15 -1.7373186526964352e-01 0.0000000000000000e+00  -2.8296063928835770e-15 -1.7373186526964415e-01 0.0000000000000000e+00  -3.0622551482487835e-15 -1.7373186526964504e-01 0.0000000000000000e+00  -3.2287748510031164e-15 -1.7373186526964621e-01 0.0000000000000000e+00  -3.2880522795809656e-15 -1.7373186526964748e-01 0.0000000000000000e+00  -3.2462576354884694e-15 -1.7373186526964859e-01 0.0000000000000000e+00  -3.1227911155962623e-15 -1.7373186526964979e-01 0.0000000000000000e+00  -2.9079288430313441e-15 -1.7373186526965095e-01 0.0000000000000000e+00  -2.6167879823642390e-15 -1.7373186526965187e-01 0.0000000000000000e+00  -2.2861443043245526e-15 -1.7373186526965245e-01 0.0000000000000000e+00  -1.9022616989381841e-15 -1.7373186526965334e-01 0.0000000000000000e+00  -1.4847611443500840e-15 -1.7373186526965376e-01 0.0000000000000000e+00  -1.0008162851692444e-15 -1.7373186526965403e-01 0.0000000000000000e+00  -4.9571239289469885e-16 -1.7373186526965431e-01 0.0000000000000000e+00  3.4799485177020958e-32 -1.7373186526965440e-01 0.0000000000000000e+00  4.3333423748712807e-32 -1.8855597396181906e-01 0.0000000000000000e+00  -4.9284922424117611e-16 -1.8855597396181908e-01 0.0000000000000000e+00  -1.0181933507962193e-15 -1.8855597396181917e-01 0.0000000000000000e+00  -1.4824667023413068e-15 -1.8855597396181942e-01 0.00