<?xml version="1.0"?>
<VTKFile type="UnstructuredGrid"  version="0.1"  >
<UnstructuredGrid>
<Piece  NumberOfPoints="1661" NumberOfCells="3200">
<Points>
<DataArray  type="Float64"  NumberOfComponents="3"  format="ascii">-0.25 -1 0  -0.225 -1 0  -0.2 -1 0  -0.175 -1 0  -0.15 -1 0  -0.125 -1 0  -0.1 -1 0  -0.07500000000000001 -1 0  -0.04999999999999999 -1 0  -0.02499999999999999 -1 0  0 -1 0  0.02500000000000002 -1 0  0.04999999999999999 -1 0  0.07500000000000001 -1 0  0.09999999999999998 -1 0  0.125 -1 0  0.15 -1 0  0.175 -1 0  0.2 -1 0  0.225 -1 0  0.25 -1 0  -0.25 -0.975 0  -0.225 -0.975 0  -0.2 -0.975 0  -0.175 -0.975 0  -0.15 -0.975 0  -0.125 -0.975 0  -0.1 -0.975 0  -0.07500000000000001 -0.975 0  -0.04999999999999999 -0.975 0  -0.02499999999999999 -0.975 0  0 -0.975 0  0.02500000000000002 -0.975 0  0.04999999999999999 -0.975 0  0.07500000000000001 -0.975 0  0.09999999999999998 -0.975 0  0.125 -0.975 0  0.15 -0.975 0  0.175 -0.975 0  0.2 -0.975 0  0.225 -0.975 0  0.25 -0.975 0  -0.25 -0.95 0  -0.225 -0.95 0  -0.2 -0.95 0  -0.175 -0.95 0  -0.15 -0.95 0  -0.125 -0.95 0  -0.1 -0.95 0  -0.07500000000000001 -0.95 0  -0.04999999999999999 -0.95 0  -0.02499999999999999 -0.95 0  0 -0.95 0  0.02500000000000002 -0.95 0  0.04999999999999999 -0.95 0  0.07500000000000001 -0.95 0  0.09999999999999998 -0.95 0  0.125 -0.95 0  0.15 -0.95 0  0.175 -0.95 0  0.2 -0.95 0  0.225 -0.95 0  0.25 -0.95 0  -0.25 -0.925 0  -0.225 -0.925 0  -0.2 -0.925 0  -0.175 -0.925 0  -0.15 -0.925 0  -0.125 -0.925 0  -0.1 -0.925 0  -0.07500000000000001 -0.925 0  -0.04999999999999999 -0.925 0  -0.02499999999999999 -0.925 0  0 -0.925 0  0.02500000000000002 -0.925 0  0.04999999999999999 -0.925 0  0.07500000000000001 -0.925 0  0.09999999999999998 -0.925 0  0.125 -0.925 0  0.15 -0.925 0  0.175 -0.925 0  0.2 -0.925 0  0.225 -0.925 0  0.25 -0.925 0  -0.25 -0.9 0  -0.225 -0.9 0  -0.2 -0.9 0  -0.175 -0.9 0  -0.15 -0.9 0  -0.125 -0.9 0  -0.1 -0.9 0  -0.07500000000000001 -0.9 0  -0.04999999999999999 -0.9 0  -0.02499999999999999 -0.9 0  0 -0.9 0  0.02500000000000002 -0.9 0  0.04999999999999999 -0.9 0  0.07500000000000001 -0.9 0  0.09999999999999998 -0.9 0  0.125 -0.9 0  0.15 -0.9 0  0.175 -0.9 0  0.2 -0.9 0  0.225 -0.9 0  0.25 -0.9 0  -0.25 -0.875 0  -0.225 -0.875 0  -0.2 -0.875 0  -0.175 -0.875 0  -0.15 -0.875 0  -0.125 -0.875 0  -0.1 -0.875 0  -0.07500000000000001 -0.875 0  -0.04999999999999999 -0.875 0  -0.02499999999999999 -0.875 0  0 -0.875 0  0.02500000000000002 -0.875 0  0.04999999999999999 -0.875 0  0.07500000000000001 -0.875 0  0.09999999999999998 -0.875 0  0.125 -0.875 0  0.15 -0.875 0  0.175 -0.875 0  0.2 -0.875 0  0.225 -0.875 0  0.25 -0.875 0  -0.25 -0.85 0  -0.225 -0.85 0  -0.2 -0.85 0  -0.175 -0.85 0  -0.15 -0.85 0  -0.125 -0.85 0  -0.1 -0.85 0  -0.07500000000000001 -0.85 0  -0.04999999999999999 -0.85 0  -0.02499999999999999 -0.85 0  0 -0.85 0  0.02500000000000002 -0.85 0  0.04999999999999999 -0.85 0  0.07500000000000001 -0.85 0  0.09999999999999998 -0.85 0  0.125 -0.85 0  0.15 -0.85 0  0.175 -0.85 0  0.2 -0.85 0  0.225 -0.85 0  0.25 -0.85 0  -0.25 -0.825 0  -0.225 -0.825 0  -0.2 -0.825 0  -0.175 -0.825 0  -0.15 -0.825 0  -0.125 -0.825 0  -0.1 -0.825 0  -0.07500000000000001 -0.825 0  -0.04999999999999999 -0.825 0  -0.02499999999999999 -0.825 0  0 -0.825 0  0.02500000000000002 -0.825 0  0.04999999999999999 -0.825 0  0.07500000000000001 -0.825 0  0.09999999999999998 -0.825 0  0.125 -0.825 0  0.15 -0.825 0  0.175 -0.825 0  0.2 -0.825 0  0.225 -0.825 0  0.25 -0.825 0  -0.25 -0.8 0  -0.225 -0.8 0  -0.2 -0.8 0  -0.175 -0.8 0  -0.15 -0.8 0  -0.125 -0.8 0  -0.1 -0.8 0  -0.07500000000000001 -0.8 0  -0.04999999999999999 -0.8 0  -0.02499999999999999 -0.8 0  0 -0.8 0  0.02500000000000002 -0.8 0  0.04999999999999999 -0.8 0  0.07500000000000001 -0.8 0  0.09999999999999998 -0.8 0  0.125 -0.8 0  0.15 -0.8 0  0.175 -0.8 0  0.2 -0.8 0  0.225 -0.8 0  0.25 -0.8 0  -0.25 -0.775 0  -0.225 -0.775 0  -0.2 -0.775 0  -0.175 -0.775 0  -0.15 -0.775 0  -0.125 -0.775 0  -0.1 -0.775 0  -0.07500000000000001 -0.775 0  -0.04999999999999999 -0.775 0  -0.02499999999999999 -0.775 0  0 -0.775 0  0.02500000000000002 -0.775 0  0.04999999999999999 -0.775 0  0.07500000000000001 -0.775 0  0.09999999999999998 -0.775 0  0.125 -0.775 0  0.15 -0.775 0  0.175 -0.775 0  0.2 -0.775 0  0.225 -0.775 0  0.25 -0.775 0  -0.25 -0.75 0  -0.225 -0.75 0  -0.2 -0.75 0  -0.175 -0.75 0  -0.15 -0.75 0  -0.125 -0.75 0  -0.1 -0.75 0  -0.07500000000000001 -0.75 0  -0.04999999999999999 -0.75 0  -0.02499999999999999 -0.75 0  0 -0.75 0  0.02500000000000002 -0.75 0  0.04999999999999999 -0.75 0  0.07500000000000001 -0.75 0  0.09999999999999998 -0.75 0  0.125 -0.75 0  0.15 -0.75 0  0.175 -0.75 0  0.2 -0.75 0  0.225 -0.75 0  0.25 -0.75 0  -0.25 -0.725 0  -0.225 -0.725 0  -0.2 -0.725 0  -0.175 -0.725 0  -0.15 -0.725 0  -0.125 -0.725 0  -0.1 -0.725 0  -0.07500000000000001 -0.725 0  -0.04999999999999999 -0.725 0  -0.02499999999999999 -0.725 0  0 -0.725 0  0.02500000000000002 -0.725 0  0.04999999999999999 -0.725 0  0.07500000000000001 -0.725 0  0.09999999999999998 -0.725 0  0.125 -0.725 0  0.15 -0.725 0  0.175 -0.725 0  0.2 -0.725 0  0.225 -0.725 0  0.25 -0.725 0  -0.25 -0.7 0  -0.225 -0.7 0  -0.2 -0.7 0  -0.175 -0.7 0  -0.15 -0.7 0  -0.125 -0.7 0  -0.1 -0.7 0  -0.07500000000000001 -0.7 0  -0.04999999999999999 -0.7 0  -0.02499999999999999 -0.7 0  0 -0.7 0  0.02500000000000002 -0.7 0  0.04999999999999999 -0.7 0  0.07500000000000001 -0.7 0  0.09999999999999998 -0.7 0  0.125 -0.7 0  0.15 -0.7 0  0.175 -0.7 0  0.2 -0.7 0  0.225 -0.7 0  0.25 -0.7 0  -0.25 -0.675 0  -0.225 -0.675 0  -0.2 -0.675 0  -0.175 -0.675 0  -0.15 -0.675 0  -0.125 -0.675 0  -0.1 -0.675 0  -0.07500000000000001 -0.675 0  -0.04999999999999999 -0.675 0  -0.02499999999999999 -0.675 0  0 -0.675 0  0.02500000000000002 -0.675 0  0.04999999999999999 -0.675 0  0.07500000000000001 -0.675 0  0.09999999999999998 -0.675 0  0.125 -0.675 0  0.15 -0.675 0  0.175 -0.675 0  0.2 -0.675 0  0.225 -0.675 0  0.25 -0.675 0  -0.25 -0.65 0  -0.225 -0.65 0  -0.2 -0.65 0  -0.175 -0.65 0  -0.15 -0.65 0  -0.125 -0.65 0  -0.1 -0.65 0  -0.07500000000000001 -0.65 0  -0.04999999999999999 -0.65 0  -0.02499999999999999 -0.65 0  0 -0.65 0  0.02500000000000002 -0.65 0  0.04999999999999999 -0.65 0  0.07500000000000001 -0.65 0  0.09999999999999998 -0.65 0  0.125 -0.65 0  0.15 -0.65 0  0.175 -0.65 0  0.2 -0.65 0  0.225 -0.65 0  0.25 -0.65 0  -0.25 -0.625 0  -0.225 -0.625 0  -0.2 -0.625 0  -0.175 -0.625 0  -0.15 -0.625 0  -0.125 -0.625 0  -0.1 -0.625 0  -0.07500000000000001 -0.625 0  -0.04999999999999999 -0.625 0  -0.02499999999999999 -0.625 0  0 -0.625 0  0.02500000000000002 -0.625 0  0.04999999999999999 -0.625 0  0.07500000000000001 -0.625 0  0.09999999999999998 -0.625 0  0.125 -0.625 0  0.15 -0.625 0  0.175 -0.625 0  0.2 -0.625 0  0.225 -0.625 0  0.25 -0.625 0  -0.25 -0.6 0  -0.225 -0.6 0  -0.2 -0.6 0  -0.175 -0.6 0  -0.15 -0.6 0  -0.125 -0.6 0  -0.1 -0.6 0  -0.07500000000000001 -0.6 0  -0.04999999999999999 -0.6 0  -0.02499999999999999 -0.6 0  0 -0.6 0  0.02500000000000002 -0.6 0  0.04999999999999999 -0.6 0  0.07500000000000001 -0.6 0  0.09999999999999998 -0.6 0  0.125 -0.6 0  0.15 -0.6 0  0.175 -0.6 0  0.2 -0.6 0  0.225 -0.6 0  0.25 -0.6 0  -0.25 -0.575 0  -0.225 -0.575 0  -0.2 -0.575 0  -0.175 -0.575 0  -0.15 -0.575 0  -0.125 -0.575 0  -0.1 -0.575 0  -0.07500000000000001 -0.575 0  -0.04999999999999999 -0.575 0  -0.02499999999999999 -0.575 0  0 -0.575 0  0.02500000000000002 -0.575 0  0.04999999999999999 -0.575 0  0.07500000000000001 -0.575 0  0.09999999999999998 -0.575 0  0.125 -0.575 0  0.15 -0.575 0  0.175 -0.575 0  0.2 -0.575 0  0.225 -0.575 0  0.25 -0.575 0  -0.25 -0.55 0  -0.225 -0.55 0  -0.2 -0.55 0  -0.175 -0.55 0  -0.15 -0.55 0  -0.125 -0.55 0  -0.1 -0.55 0  -0.07500000000000001 -0.55 0  -0.04999999999999999 -0.55 0  -0.02499999999999999 -0.55 0  0 -0.55 0  0.02500000000000002 -0.55 0  0.04999999999999999 -0.55 0  0.07500000000000001 -0.55 0  0.09999999999999998 -0.55 0  0.125 -0.55 0  0.15 -0.55 0  0.175 -0.55 0  0.2 -0.55 0  0.225 -0.55 0  0.25 -0.55 0  -0.25 -0.525 0  -0.225 -0.525 0  -0.2 -0.525 0  -0.175 -0.525 0  -0.15 -0.525 0  -0.125 -0.525 0  -0.1 -0.525 0  -0.07500000000000001 -0.525 0  -0.04999999999999999 -0.525 0  -0.02499999999999999 -0.525 0  0 -0.525 0  0.02500000000000002 -0.525 0  0.04999999999999999 -0.525 0  0.07500000000000001 -0.525 0  0.09999999999999998 -0.525 0  0.125 -0.525 0  0.15 -0.525 0  0.175 -0.525 0  0.2 -0.525 0  0.225 -0.525 0  0.25 -0.525 0  -0.25 -0.5 0  -0.225 -0.5 0  -0.2 -0.5 0  -0.175 -0.5 0  -0.15 -0.5 0  -0.125 -0.5 0  -0.1 -0.5 0  -0.07500000000000001 -0.5 0  -0.04999999999999999 -0.5 0  -0.02499999999999999 -0.5 0  0 -0.5 0  0.02500000000000002 -0.5 0  0.04999999999999999 -0.5 0  0.07500000000000001 -0.5 0  0.09999999999999998 -0.5 0  0.125 -0.5 0  0.15 -0.5 0  0.175 -0.5 0  0.2 -0.5 0  0.225 -0.5 0  0.25 -0.5 0  -0.25 -0.475 0  -0.225 -0.475 0  -0.2 -0.475 0  -0.175 -0.475 0  -0.15 -0.475 0  -0.125 -0.475 0  -0.1 -0.475 0  -0.07500000000000001 -0.475 0  -0.04999999999999999 -0.475 0  -0.02499999999999999 -0.475 0  0 -0.475 0  0.02500000000000002 -0.475 0  0.04999999999999999 -0.475 0  0.07500000000000001 -0.475 0  0.09999999999999998 -0.475 0  0.125 -0.475 0  0.15 -0.475 0  0.175 -0.475 0  0.2 -0.475 0  0.225 -0.475 0  0.25 -0.475 0  -0.25 -0.45 0  -0.225 -0.45 0  -0.2 -0.45 0  -0.175 -0.45 0  -0.15 -0.45 0  -0.125 -0.45 0  -0.1 -0.45 0  -0.07500000000000001 -0.45 0  -0.04999999999999999 -0.45 0  -0.02499999999999999 -0.45 0  0 -0.45 0  0.02500000000000002 -0.45 0  0.04999999999999999 -0.45 0  0.07500000000000001 -0.45 0  0.09999999999999998 -0.45 0  0.125 -0.45 0  0.15 -0.45 0  0.175 -0.45 0  0.2 -0.45 0  0.225 -0.45 0  0.25 -0.45 0  -0.25 -0.425 0  -0.225 -0.425 0  -0.2 -0.425 0  -0.175 -0.425 0  -0.15 -0.425 0  -0.125 -0.425 0  -0.1 -0.425 0  -0.07500000000000001 -0.425 0  -0.04999999999999999 -0.425 0  -0.02499999999999999 -0.425 0  0 -0.425 0  0.02500000000000002 -0.425 0  0.04999999999999999 -0.425 0  0.07500000000000001 -0.425 0  0.
[...]
<PointData  Vectors="displacement"> 
<DataArray  type="Float64"  Name="displacement"  NumberOfComponents="3" format="ascii">3.6111186457260713e-33 1.5246593050577423e-18 0.0000000000000000e+00  1.4444474582904291e-32 1.5246593050577429e-18 0.0000000000000000e+00  -1.8055593228630360e-33 1.6477437802056333e-19 0.0000000000000000e+00  1.0833355937178215e-32 1.9058241313221785e-18 0.0000000000000000e+00  -6.5474736697921987e-33 -2.6567377870021347e-18 0.0000000000000000e+00  7.2222372914521440e-33 5.0821976835258088e-19 0.0000000000000000e+00  1.3090414260203071e-31 2.2147033886897099e-18 0.0000000000000000e+00  -2.1666711874356431e-32 7.6232965252887127e-19 0.0000000000000000e+00  1.3693863939329316e-31 1.9104920690719348e-18 0.0000000000000000e+00  -1.5888922041194722e-31 -2.5410988417629054e-19 0.0000000000000000e+00  -5.5070613993730754e-32 9.0557992345275761e-19 0.0000000000000000e+00  2.1666711874356447e-32 -1.6517142471458891e-18 0.0000000000000000e+00  3.6081416454534318e-32 1.4064525769081769e-18 0.0000000000000000e+00  6.5000135623069276e-32 -5.0821976835258068e-19 0.0000000000000000e+00  -5.7753805289200150e-33 1.7165535040844844e-18 0.0000000000000000e+00  3.9722305102986756e-32 6.3527471044072545e-19 0.0000000000000000e+00  -1.4474245376691799e-32 -4.9937131929551666e-19 0.0000000000000000e+00  -1.8055593228630358e-32 0.0000000000000000e+00 0.0000000000000000e+00  6.0581969046098432e-35 3.3351922298138110e-19 0.0000000000000000e+00  -1.4444474582904299e-32 1.0164395367051625e-18 0.0000000000000000e+00  1.9861152551493381e-32 -5.0821976835258049e-19 0.0000000000000000e+00  -7.2222372914521262e-33 -1.3776610050661801e-02 0.0000000000000000e+00  -8.6495585452594862e-17 -1.3776610050661798e-02 0.0000000000000000e+00  -1.7425306488772289e-16 -1.3776610050661789e-02 0.0000000000000000e+00  -2.6606650137109542e-16 -1.3776610050661810e-02 0.0000000000000000e+00  -3.5483241364644426e-16 -1.3776610050661813e-02 0.0000000000000000e+00  -4.3946165433163680e-16 -1.3776610050661855e-02 0.0000000000000000e+00  -5.1875635277581273e-16 -1.3776610050661879e-02 0.0000000000000000e+00  -5.8478525863537254e-16 -1.3776610050661909e-02 0.0000000000000000e+00  -6.4587247434103326e-16 -1.3776610050661954e-02 0.0000000000000000e+00  -6.8915962472623392e-16 -1.3776610050662018e-02 0.0000000000000000e+00  -7.1070357179207084e-16 -1.3776610050662092e-02 0.0000000000000000e+00  -7.0184967537464534e-16 -1.3776610050662169e-02 0.0000000000000000e+00  -6.6737256487416896e-16 -1.3776610050662236e-02 0.0000000000000000e+00  -6.1917307796234408e-16 -1.3776610050662278e-02 0.0000000000000000e+00  -5.5506390247189868e-16 -1.3776610050662328e-02 0.0000000000000000e+00  -4.7893985327157250e-16 -1.3776610050662363e-02 0.0000000000000000e+00  -4.0055574656009015e-16 -1.3776610050662394e-02 0.0000000000000000e+00  -3.1003467389114361e-16 -1.3776610050662420e-02 0.0000000000000000e+00  -2.1682472346737747e-16 -1.3776610050662443e-02 0.0000000000000000e+00  -1.1269862713989504e-16 -1.3776610050662465e-02 0.0000000000000000e+00  -1.0178311710182464e-32 -1.3776610050662474e-02 0.0000000000000000e+00  1.7752615469702462e-32 -2.7560612975898541e-02 0.0000000000000000e+00  -1.6112750935072611e-16 -2.7560612975898548e-02 0.0000000000000000e+00  -3.2524631163367649e-16 -2.7560612975898541e-02 0.0000000000000000e+00  -4.8947653598102580e-16 -2.7560612975898562e-02 0.0000000000000000e+00  -6.5595809989928846e-16 -2.7560612975898593e-02 0.0000000000000000e+00  -8.0258281737644673e-16 -2.7560612975898652e-02 0.0000000000000000e+00  -9.4146077225625024e-16 -2.7560612975898773e-02 0.0000000000000000e+00  -1.0651380091035138e-15 -2.7560612975898797e-02 0.0000000000000000e+00  -1.1634505154043252e-15 -2.7560612975898870e-02 0.0000000000000000e+00  -1.2413076573513643e-15 -2.7560612975899030e-02 0.0000000000000000e+00  -1.2757955118480699e-15 -2.7560612975899176e-02 0.0000000000000000e+00  -1.2586527339394457e-15 -2.7560612975899353e-02 0.0000000000000000e+00  -1.2046117002439402e-15 -2.7560612975899467e-02 0.0000000000000000e+00  -1.1108079041589782e-15 -2.7560612975899620e-02 0.0000000000000000e+00  -1.0045860409055923e-15 -2.7560612975899661e-02 0.0000000000000000e+00  -8.7506257691768565e-16 -2.7560612975899755e-02 0.0000000000000000e+00  -7.2018097293952512e-16 -2.7560612975899828e-02 0.0000000000000000e+00  -5.5850898416423585e-16 -2.7560612975899880e-02 0.0000000000000000e+00  -3.8094419452233572e-16 -2.7560612975899953e-02 0.0000000000000000e+00  -1.9561808001386345e-16 -2.7560612975900012e-02 0.0000000000000000e+00  3.7658808734000419e-32 -2.7560612975900015e-02 0.0000000000000000e+00  5.7777898331617076e-32 -4.1359390256387976e-02 0.0000000000000000e+00  -2.3057382281690605e-16 -4.1359390256387935e-02 0.0000000000000000e+00  -4.5409428640044333e-16 -4.1359390256387983e-02 0.0000000000000000e+00  -6.8135393248418827e-16 -4.1359390256387969e-02 0.0000000000000000e+00  -9.0244982644134367e-16 -4.1359390256388059e-02 0.0000000000000000e+00  -1.1013096657869647e-15 -4.1359390256388122e-02 0.0000000000000000e+00  -1.2885513049677174e-15 -4.1359390256388212e-02 0.0000000000000000e+00  -1.4541925310522420e-15 -4.1359390256388379e-02 0.0000000000000000e+00  -1.5843127454368187e-15 -4.1359390256388490e-02 0.0000000000000000e+00  -1.6824970675855147e-15 -4.1359390256388774e-02 0.0000000000000000e+00  -1.7306385320515211e-15 -4.1359390256388948e-02 0.0000000000000000e+00  -1.7143176056744140e-15 -4.1359390256389253e-02 0.0000000000000000e+00  -1.6370655169824769e-15 -4.1359390256389475e-02 0.0000000000000000e+00  -1.5150152325333826e-15 -4.1359390256389662e-02 0.0000000000000000e+00  -1.3660762689139846e-15 -4.1359390256389780e-02 0.0000000000000000e+00  -1.1942223980027796e-15 -4.1359390256389940e-02 0.0000000000000000e+00  -9.8176367044604023e-16 -4.1359390256390058e-02 0.0000000000000000e+00  -7.5515241142799336e-16 -4.1359390256390162e-02 0.0000000000000000e+00  -5.2104171895506722e-16 -4.1359390256390197e-02 0.0000000000000000e+00  -2.6309294799095381e-16 -4.1359390256390308e-02 0.0000000000000000e+00  7.9444610205973446e-32 -4.1359390256390335e-02 0.0000000000000000e+00  -5.8559014327738420e-32 -5.5180300602507525e-02 0.0000000000000000e+00  -2.8353604425906958e-16 -5.5180300602507587e-02 0.0000000000000000e+00  -5.6006465666391672e-16 -5.5180300602507587e-02 0.0000000000000000e+00  -8.3389646270420093e-16 -5.5180300602507566e-02 0.0000000000000000e+00  -1.1084297771235483e-15 -5.5180300602507656e-02 0.0000000000000000e+00  -1.3508168713822631e-15 -5.5180300602507858e-02 0.0000000000000000e+00  -1.5670167547661068e-15 -5.5180300602507906e-02 0.0000000000000000e+00  -1.7586122674281833e-15 -5.5180300602508149e-02 0.0000000000000000e+00  -1.9155309667808642e-15 -5.5180300602508350e-02 0.0000000000000000e+00  -2.0379729090802629e-15 -5.5180300602508676e-02 0.0000000000000000e+00  -2.0937938610714768e-15 -5.5180300602509079e-02 0.0000000000000000e+00  -2.0737362350422908e-15 -5.5180300602509412e-02 0.0000000000000000e+00  -1.9855797289972295e-15 -5.5180300602509710e-02 0.0000000000000000e+00  -1.8484089285506884e-15 -5.5180300602509995e-02 0.0000000000000000e+00  -1.6711049401407302e-15 -5.5180300602510210e-02 0.0000000000000000e+00  -1.4438105446026651e-15 -5.5180300602510404e-02 0.0000000000000000e+00  -1.1905138106991292e-15 -5.5180300602510564e-02 0.0000000000000000e+00  -9.1869619980570318e-16 -5.5180300602510647e-02 0.0000000000000000e+00  -6.1979865144640514e-16 -5.5180300602510855e-02 0.0000000000000000e+00  -3.1823068397199386e-16 -5.5180300602510890e-02 0.0000000000000000e+00  3.4406793116965222e-32 -5.5180300602510918e-02 0.0000000000000000e+00  5.7777898331617141e-32 -6.9030668612893115e-02 0.0000000000000000e+00  -3.2293846610707335e-16 -6.9030668612893156e-02 0.0000000000000000e+00  -6.5211289825652040e-16 -6.9030668612893115e-02 0.0000000000000000e+00  -9.6623570576351370e-16 -6.9030668612893170e-02 0.0000000000000000e+00  -1.2622965316292869e-15 -6.9030668612893253e-02 0.0000000000000000e+00  -1.5521666966916195e-15 -6.9030668612893462e-02 0.0000000000000000e+00  -1.7982909051233460e-15 -6.9030668612893697e-02 0.0000000000000000e+00  -1.9998466774126472e-15 -6.9030668612893864e-02 0.0000000000000000e+00  -2.1860492013805392e-15 -6.9030668612894183e-02 0.0000000000000000e+00  -2.3086542665215685e-15 -6.9030668612894530e-02 0.0000000000000000e+00  -2.3704328459748317e-15 -6.9030668612895002e-02 0.0000000000000000e+00  -2.3508320501238220e-15 -6.9030668612895515e-02 0.0000000000000000e+00  -2.2628288286599828e-15 -6.9030668612895960e-02 0.0000000000000000e+00  -2.1161436685724906e-15 -6.9030668612896293e-02 0.0000000000000000e+00  -1.8933647161376889e-15 -6.9030668612896501e-02 0.0000000000000000e+00  -1.6471796291537857e-15 -6.9030668612896876e-02 0.0000000000000000e+00  -1.3734832272027854e-15 -6.9030668612897028e-02 0.0000000000000000e+00  -1.0407771983192084e-15 -6.9030668612897222e-02 0.0000000000000000e+00  -7.0723035602668944e-16 -6.9030668612897292e-02 0.0000000000000000e+00  -3.6021110558803801e-16 -6.9030668612897458e-02 0.0000000000000000e+00  2.3861506764135481e-32 -6.9030668612897583e-02 0.0000000000000000e+00  -3.9810188607015870e-32 -8.2917773485375892e-02 0.0000000000000000e+00  -3.6464373968393061e-16 -8.2917773485375795e-02 0.0000000000000000e+00  -7.1648641353406154e-16 -8.2917773485375837e-02 0.0000000000000000e+00  -1.0645718768370410e-15 -8.2917773485375892e-02 0.0000000000000000e+00  -1.3885437510327416e-15 -8.2917773485376156e-02 0.0000000000000000e+00  -1.6937233532087278e-15 -8.2917773485376295e-02 0.0000000000000000e+00  -1.9786613327289446e-15 -8.2917773485376545e-02 0.0000000000000000e+00  -2.2153461550634105e-15 -8.2917773485376919e-02 0.0000000000000000e+00  -2.3919274098171664e-15 -8.2917773485377155e-02 0.0000000000000000e+00  -2.5165666425879556e-15 -8.2917773485377627e-02 0.0000000000000000e+00  -2.5719748399759912e-15 -8.2917773485378141e-02 0.0000000000000000e+00  -2.5652031343480066e-15 -8.2917773485378876e-02 0.0000000000000000e+00  -2.4765476486932783e-15 -8.2917773485379265e-02 0.0000000000000000e+00  -2.3108119160700896e-15 -8.2917773485379806e-02 0.0000000000000000e+00  -2.0749479776678486e-15 -8.2917773485380250e-02 0.0000000000000000e+00  -1.8030258572029741e-15 -8.2917773485380458e-02 0.0000000000000000e+00  -1.4991117006581990e-15 -8.2917773485380847e-02 0.0000000000000000e+00  -1.1533929222870334e-15 -8.2917773485380972e-02 0.0000000000000000e+00  -7.7510191139627253e-16 -8.2917773485381235e-02 0.0000000000000000e+00  -3.8409118923810032e-16 -8.2917773485381263e-02 0.0000000000000000e+00  7.2738247006767797e-32 -8.2917773485381388e-02 0.0000000000000000e+00  1.0833355937178202e-32 -9.6848837797636297e-02 0.0000000000000000e+00  -3.9090521605612151e-16 -9.6848837797636395e-02 0.0000000000000000e+00  -7.7638847136957412e-16 -9.6848837797636297e-02 0.0000000000000000e+00  -1.1490163386680152e-15 -9.6848837797636492e-02 0.0000000000000000e+00  -1.5125930290047972e-15 -9.6848837797636575e-02 0.0000000000000000e+00  -1.8486225692054676e-15 -9.6848837797636811e-02 0.0000000000000000e+00  -2.1516212394360286e-15 -9.6848837797637158e-02 0.0000000000000000e+00  -2.3948785394339010e-15 -9.6848837797637546e-02 0.0000000000000000e+00  -2.5684546146000812e-15 -9.6848837797637963e-02 0.0000000000000000e+00  -2.6822292637413392e-15 -9.6848837797638587e-02 0.0000000000000000e+00  -2.7354705593041692e-15 -9.6848837797639128e-02 0.0000000000000000e+00  -2.7128830927956878e-15 -9.6848837797639906e-02 0.0000000000000000e+00  -2.6194777870786687e-15 -9.6848837797640572e-02 0.0000000000000000e+00  -2.4360266501721272e-15 -9.6848837797641099e-02 0.0000000000000000e+00  -2.2226158761421938e-15 -9.6848837797641446e-02 0.0000000000000000e+00  -1.9332160086188732e-15 -9.6848837797641876e-02 0.0000000000000000e+00  -1.5972847384398480e-15 -9.6848837797642209e-02 0.0000000000000000e+00  -1.2331555711111835e-15 -9.6848837797642529e-02 0.0000000000000000e+00  -8.3020755219396682e-16 -9.6848837797642723e-02 0.0000000000000000e+00  -4.0657195332311306e-16 -9.6848837797642862e-02 0.0000000000000000e+00  9.3889084788877715e-32 -9.6848837797642862e-02 0.0000000000000000e+00  -1.7049399781659362e-32 -1.1083101637480956e-01 0.0000000000000000e+00  -4.2024407986558772e-16 -1.1083101637480937e-01 0.0000000000000000e+00  -8.3361270035726076e-16 -1.1083101637480952e-01 0.0000000000000000e+00  -1.2279072376785492e-15 -1.1083101637480948e-01 0.0000000000000000e+00  -1.6121484804224875e-15 -1.1083101637480977e-01 0.0000000000000000e+00  -1.9615121943715557e-15 -1.1083101637480991e-01 0.0000000000000000e+00  -2.2553971834602737e-15 -1.1083101637481041e-01 0.0000000000000000e+00  -2.5137981857805407e-15 -1.1083101637481088e-01 0.0000000000000000e+00  -2.6817433534932160e-15 -1.1083101637481145e-01 0.0000000000000000e+00  -2.8010196463056732e-15 -1.1083101637481213e-01 0.0000000000000000e+00  -2.8772033408919884e-15 -1.1083101637481285e-01 0.0000000000000000e+00  -2.8509686487150198e-15 -1.1083101637481363e-01 0.0000000000000000e+00  -2.7479005178086748e-15 -1.1083101637481441e-01 0.0000000000000000e+00  -2.5680487131644447e-15 -1.1083101637481493e-01 0.0000000000000000e+00  -2.3289051438107799e-15 -1.1083101637481560e-01 0.0000000000000000e+00  -2.0416513718167393e-15 -1.1083101637481597e-01 0.0000000000000000e+00  -1.6872238899275251e-15 -1.1083101637481640e-01 0.0000000000000000e+00  -1.2802423760934668e-15 -1.1083101637481664e-01 0.0000000000000000e+00  -8.6109711053243285e-16 -1.1083101637481693e-01 0.0000000000000000e+00  -4.4893137793299335e-16 -1.1083101637481708e-01 0.0000000000000000e+00  3.2537095883585502e-32 -1.1083101637481718e-01 0.0000000000000000e+00  -2.1666711874356379e-32 -1.2487138526114788e-01 0.0000000000000000e+00  -4.5598387633973851e-16 -1.2487138526114792e-01 0.0000000000000000e+00  -8.9549991697588562e-16 -1.2487138526114791e-01 0.0000000000000000e+00  -1.3001950354398458e-15 -1.2487138526114812e-01 0.0000000000000000e+00  -1.7088979282367543e-15 -1.2487138526114810e-01 0.0000000000000000e+00  -2.0668272237226186e-15 -1.2487138526114862e-01 0.0000000000000000e+00  -2.3529519210121647e-15 -1.2487138526114905e-01 0.0000000000000000e+00  -2.5877581227431755e-15 -1.2487138526114966e-01 0.0000000000000000e+00  -2.7779766153619961e-15 -1.2487138526115028e-01 0.0000000000000000e+00  -2.9287643884077977e-15 -1.2487138526115089e-01 0.0000000000000000e+00  -2.9891795876650363e-15 -1.2487138526115171e-01 0.0000000000000000e+00  -2.9639436339711159e-15 -1.2487138526115268e-01 0.0000000000000000e+00  -2.8600103091412540e-15 -1.2487138526115353e-01 0.0000000000000000e+00  -2.6658364885547553e-15 -1.2487138526115428e-01 0.0000000000000000e+00  -2.4289786648320729e-15 -1.2487138526115485e-01 0.0000000000000000e+00  -2.1262684770641662e-15 -1.2487138526115538e-01 0.0000000000000000e+00  -1.7694338955842299e-15 -1.2487138526115581e-01 0.0000000000000000e+00  -1.3342910927961090e-15 -1.2487138526115617e-01 0.0000000000000000e+00  -8.9967888204403846e-16 -1.2487138526115654e-01 0.0000000000000000e+00  -4.5871199977048787e-16 -1.2487138526115665e-01 0.0000000000000000e+00  1.5114859011178193e-31 -1.2487138526115664e-01 0.0000000000000000e+00  1.4433422512306864e-32 -1.3897693081269277e-01 0.0000000000000000e+00  -4.8528353748916522e-16 -1.3897693081269286e-01 0.0000000000000000e+00  -9.4782028875477383e-16 -1.3897693081269277e-01 0.0000000000000000e+00  -1.3757686874636877e-15 -1.3897693081269313e-01 0.0000000000000000e+00  -1.7609210251759888e-15 -1.3897693081269322e-01 0.0000000000000000e+00  -2.1271137921379248e-15 -1.3897693081269372e-01 0.0000000000000000e+00  -2.4443558815377487e-15 -1.3897693081269424e-01 0.0000000000000000e+00  -2.6819342174527541e-15 -1.3897693081269474e-01 0.0000000000000000e+00  -2.8844831050748192e-15 -1.3897693081269541e-01 0.0000000000000000e+00  -3.0073944278401230e-15 -1.3897693081269627e-01 0.0000000000000000e+00  -3.0825779372868510e-15 -1.3897693081269713e-01 0.0000000000000000e+00  -3.0758808080867193e-15 -1.3897693081269821e-01 0.0000000000000000e+00  -2.9436188403650695e-15 -1.3897693081269910e-01 0.0000000000000000e+00  -2.7362257241059345e-15 -1.3897693081270016e-01 0.0000000000000000e+00  -2.4873796583311287e-15 -1.3897693081270060e-01 0.0000000000000000e+00  -2.1968075670339330e-15 -1.3897693081270121e-01 0.0000000000000000e+00  -1.8107578438358376e-15 -1.3897693081270196e-01 0.0000000000000000e+00  -1.3812304115524241e-15 -1.3897693081270224e-01 0.0000000000000000e+00  -9.4324978150062006e-16 -1.3897693081270240e-01 0.0000000000000000e+00  -4.8193818157015400e-16 -1.3897693081270274e-01 0.0000000000000000e+00  -1.7023845044137181e-32 -1.3897693081270279e-01 0.0000000000000000e+00  0.0000000000000000e+00 -1.5315453892772501e-01 0.0000000000000000e+00  -5.0918029389202382e-16 -1.5315453892772485e-01 0.0000000000000000e+00  -9.6038547963997575e-16 -1.5315453892772504e-01 0.0000000000000000e+00  -1.4116145951740259e-15 -1.5315453892772526e-01 0.0000000000000000e+00  -1.8158738766023470e-15 -1.5315453892772554e-01 0.0000000000000000e+00  -2.1715465759220744e-15 -1.5315453892772601e-01 0.0000000000000000e+00  -2.4998020105470775e-15 -1.5315453892772660e-01 0.0000000000000000e+00  -2.7549608115473273e-15 -1.5315453892772718e-01 0.0000000000000000e+00  -2.9576144046909960e-15 -1.5315453892772796e-01 0.0000000000000000e+00  -3.0793160403249476e-15 -1.5315453892772879e-01 0.0000000000000000e+00  -3.1508430504653080e-15 -1.5315453892772990e-01 0.0000000000000000e+00  -3.1435881254258719e-15 -1.5315453892773087e-01 0.0000000000000000e+00  -3.0146911739043328e-15 -1.5315453892773212e-01 0.0000000000000000e+00  -2.8206612448053101e-15 -1.5315453892773301e-01 0.0000000000000000e+00  -2.5469157012179562e-15 -1.5315453892773348e-01 0.0000000000000000e+00  -2.2174644060208625e-15 -1.5315453892773434e-01 0.0000000000000000e+00  -1.8428878059638909e-15 -1.5315453892773498e-01 0.0000000000000000e+00  -1.4409943974530744e-15 -1.5315453892773537e-01 0.0000000000000000e+00  -9.8068267102912004e-16 -1.5315453892773589e-01 0.0000000000000000e+00  -4.8412840773881169e-16 -1.5315453892773598e-01 0.0000000000000000e+00  3.6111186457260612e-32 -1.5315453892773614e-01 0.0000000000000000e+00  -2.1441016958998524e-33 -1.6741098443156022e-01 0.0000000000000000e+00  -4.9234977181344572e-16 -1.6741098443156030e-01 0.0000000000000000e+00  -9.8441211901749245e-16 -1.6741098443156049e-01 0.0000000000000000e+00  -1.4688620077098453e-15 -1.6741098443156049e-01 0.0000000000000000e+00  -1.8833282827886060e-15 -1.6741098443156122e-01 0.0000000000000000e+00  -2.2211114962407493e-15 -1.6741098443156141e-01 0.0000000000000000e+00  -2.5490506750663836e-15 -1.6741098443156233e-01 0.0000000000000000e+00  -2.8253848638593538e-15 -1.6741098443156271e-01 0.0000000000000000e+00  -3.0328519641085828e-15 -1.6741098443156371e-01 0.0000000000000000e+00  -3.1912548887301633e-15 -1.6741098443156463e-01 0.0000000000000000e+00  -3.2514165337169352e-15 -1.6741098443156560e-01 0.0000000000000000e+00  -3.2072534490068789e-15 -1.6741098443156691e-01 0.0000000000000000e+00  -3.1080895235261610e-15 -1.6741098443156810e-01 0.0000000000000000e+00  -2.8918511484859503e-15 -1.6741098443156921e-01 0.0000000000000000e+00  -2.5987064613682246e-15 -1.6741098443156993e-01 0.0000000000000000e+00  -2.2517432475856999e-15 -1.6741098443157051e-01 0.0000000000000000e+00  -1.8673724427571164e-15 -1.6741098443157168e-01 0.0000000000000000e+00  -1.4675690768179545e-15 -1.6741098443157190e-01 0.0000000000000000e+00  -1.0067347569768762e-15 -1.6741098443157237e-01 0.0000000000000000e+00  -4.8918489608828164e-16 -1.6741098443157257e-01 0.0000000000000000e+00  6.6399406746717092e-32 -1.6741098443157260e-01 0.0000000000000000e+00  7.2222372914521344e-32 -1.8175292063202592e-01 0.0000000000000000e+00  -5.0390194547929720e-16 -1.8175292063202594e-01 0.0000000000000000e+00  -1.0248955471811181e-15 -1.8175292063202600e-01 0.0000000000000000e+00  -1.4840744681977282e-15 -1.8175292063202617e-01 