<?xml version="1.0"?>
<VTKFile type="UnstructuredGrid"  version="0.1"  >
<UnstructuredGrid>
<Piece  NumberOfPoints="1091" NumberOfCells="2050">
<Points>
<DataArray  type="Float64"  NumberOfComponents="3"  format="ascii">-0.5 -1 0  -0.4 -1 0  -0.3 -1 0  -0.2 -1 0  -0.09999999999999998 -1 0  0 -1 0  0.09999999999999998 -1 0  0.2 -1 0  0.3 -1 0  0.4 -1 0  0.5 -1 0  -0.5 -0.98 0  -0.4 -0.98 0  -0.3 -0.98 0  -0.2 -0.98 0  -0.09999999999999998 -0.98 0  0 -0.98 0  0.09999999999999998 -0.98 0  0.2 -0.98 0  0.3 -0.98 0  0.4 -0.98 0  0.5 -0.98 0  -0.5 -0.96 0  -0.4 -0.96 0  -0.3 -0.96 0  -0.2 -0.96 0  -0.09999999999999998 -0.96 0  0 -0.96 0  0.09999999999999998 -0.96 0  0.2 -0.96 0  0.3 -0.96 0  0.4 -0.96 0  0.5 -0.96 0  -0.5 -0.9399999999999999 0  -0.4 -0.9399999999999999 0  -0.3 -0.9399999999999999 0  -0.2 -0.9399999999999999 0  -0.09999999999999998 -0.9399999999999999 0  0 -0.9399999999999999 0  0.09999999999999998 -0.9399999999999999 0  0.2 -0.9399999999999999 0  0.3 -0.9399999999999999 0  0.4 -0.9399999999999999 0  0.5 -0.9399999999999999 0  -0.5 -0.92 0  -0.4 -0.92 0  -0.3 -0.92 0  -0.2 -0.92 0  -0.09999999999999998 -0.92 0  0 -0.92 0  0.09999999999999998 -0.92 0  0.2 -0.92 0  0.3 -0.92 0  0.4 -0.92 0  0.5 -0.92 0  -0.5 -0.9 0  -0.4 -0.9 0  -0.3 -0.9 0  -0.2 -0.9 0  -0.09999999999999998 -0.9 0  0 -0.9 0  0.09999999999999998 -0.9 0  0.2 -0.9 0  0.3 -0.9 0  0.4 -0.9 0  0.5 -0.9 0  -0.5 -0.88 0  -0.4 -0.88 0  -0.3 -0.88 0  -0.2 -0.88 0  -0.09999999999999998 -0.88 0  0 -0.88 0  0.09999999999999998 -0.88 0  0.2 -0.88 0  0.3 -0.88 0  0.4 -0.88 0  0.5 -0.88 0  -0.5 -0.86 0  -0.4 -0.86 0  -0.3 -0.86 0  -0.2 -0.86 0  -0.09999999999999998 -0.86 0  0 -0.86 0  0.09999999999999998 -0.86 0  0.2 -0.86 0  0.3 -0.86 0  0.4 -0.86 0  0.5 -0.86 0  -0.5 -0.84 0  -0.4 -0.84 0  -0.3 -0.84 0  -0.2 -0.84 0  -0.09999999999999998 -0.84 0  0 -0.84 0  0.09999999999999998 -0.84 0  0.2 -0.84 0  0.3 -0.84 0  0.4 -0.84 0  0.5 -0.84 0  -0.5 -0.8200000000000001 0  -0.4 -0.8200000000000001 0  -0.3 -0.8200000000000001 0  -0.2 -0.8200000000000001 0  -0.09999999999999998 -0.8200000000000001 0  0 -0.8200000000000001 0  0.09999999999999998 -0.8200000000000001 0  0.2 -0.8200000000000001 0  0.3 -0.8200000000000001 0  0.4 -0.8200000000000001 0  0.5 -0.8200000000000001 0  -0.5 -0.8 0  -0.4 -0.8 0  -0.3 -0.8 0  -0.2 -0.8 0  -0.09999999999999998 -0.8 0  0 -0.8 0  0.09999999999999998 -0.8 0  0.2 -0.8 0  0.3 -0.8 0  0.4 -0.8 0  0.5 -0.8 0  -0.5 -0.78 0  -0.4 -0.78 0  -0.3 -0.78 0  -0.2 -0.78 0  -0.09999999999999998 -0.78 0  0 -0.78 0  0.09999999999999998 -0.78 0  0.2 -0.78 0  0.3 -0.78 0  0.4 -0.78 0  0.5 -0.78 0  -0.5 -0.76 0  -0.4 -0.76 0  -0.3 -0.76 0  -0.2 -0.76 0  -0.09999999999999998 -0.76 0  0 -0.76 0  0.09999999999999998 -0.76 0  0.2 -0.76 0  0.3 -0.76 0  0.4 -0.76 0  0.5 -0.76 0  -0.5 -0.74 0  -0.4 -0.74 0  -0.3 -0.74 0  -0.2 -0.74 0  -0.09999999999999998 -0.74 0  0 -0.74 0  0.09999999999999998 -0.74 0  0.2 -0.74 0  0.3 -0.74 0  0.4 -0.74 0  0.5 -0.74 0  -0.5 -0.72 0  -0.4 -0.72 0  -0.3 -0.72 0  -0.2 -0.72 0  -0.09999999999999998 -0.72 0  0 -0.72 0  0.09999999999999998 -0.72 0  0.2 -0.72 0  0.3 -0.72 0  0.4 -0.72 0  0.5 -0.72 0  -0.5 -0.7 0  -0.4 -0.7 0  -0.3 -0.7 0  -0.2 -0.7 0  -0.09999999999999998 -0.7 0  0 -0.7 0  0.09999999999999998 -0.7 0  0.2 -0.7 0  0.3 -0.7 0  0.4 -0.7 0  0.5 -0.7 0  -0.5 -0.6799999999999999 0  -0.4 -0.6799999999999999 0  -0.3 -0.6799999999999999 0  -0.2 -0.6799999999999999 0  -0.09999999999999998 -0.6799999999999999 0  0 -0.6799999999999999 0  0.09999999999999998 -0.6799999999999999 0  0.2 -0.6799999999999999 0  0.3 -0.6799999999999999 0  0.4 -0.6799999999999999 0  0.5 -0.6799999999999999 0  -0.5 -0.6599999999999999 0  -0.4 -0.6599999999999999 0  -0.3 -0.6599999999999999 0  -0.2 -0.6599999999999999 0  -0.09999999999999998 -0.6599999999999999 0  0 -0.6599999999999999 0  0.09999999999999998 -0.6599999999999999 0  0.2 -0.6599999999999999 0  0.3 -0.6599999999999999 0  0.4 -0.6599999999999999 0  0.5 -0.6599999999999999 0  -0.5 -0.64 0  -0.4 -0.64 0  -0.3 -0.64 0  -0.2 -0.64 0  -0.09999999999999998 -0.64 0  0 -0.64 0  0.09999999999999998 -0.64 0  0.2 -0.64 0  0.3 -0.64 0  0.4 -0.64 0  0.5 -0.64 0  -0.5 -0.62 0  -0.4 -0.62 0  -0.3 -0.62 0  -0.2 -0.62 0  -0.09999999999999998 -0.62 0  0 -0.62 0  0.09999999999999998 -0.62 0  0.2 -0.62 0  0.3 -0.62 0  0.4 -0.62 0  0.5 -0.62 0  -0.5 -0.6 0  -0.4 -0.6 0  -0.3 -0.6 0  -0.2 -0.6 0  -0.09999999999999998 -0.6 0  0 -0.6 0  0.09999999999999998 -0.6 0  0.2 -0.6 0  0.3 -0.6 0  0.4 -0.6 0  0.5 -0.6 0  -0.5 -0.5800000000000001 0  -0.4 -0.5800000000000001 0  -0.3 -0.5800000000000001 0  -0.2 -0.5800000000000001 0  -0.09999999999999998 -0.5800000000000001 0  0 -0.5800000000000001 0  0.09999999999999998 -0.5800000000000001 0  0.2 -0.5800000000000001 0  0.3 -0.5800000000000001 0  0.4 -0.5800000000000001 0  0.5 -0.5800000000000001 0  -0.5 -0.5600000000000001 0  -0.4 -0.5600000000000001 0  -0.3 -0.5600000000000001 0  -0.2 -0.5600000000000001 0  -0.09999999999999998 -0.5600000000000001 0  0 -0.5600000000000001 0  0.09999999999999998 -0.5600000000000001 0  0.2 -0.5600000000000001 0  0.3 -0.5600000000000001 0  0.4 -0.5600000000000001 0  0.5 -0.5600000000000001 0  -0.5 -0.54 0  -0.4 -0.54 0  -0.3 -0.54 0  -0.2 -0.54 0  -0.09999999999999998 -0.54 0  0 -0.54 0  0.09999999999999998 -0.54 0  0.2 -0.54 0  0.3 -0.54 0  0.4 -0.54 0  0.5 -0.54 0  -0.5 -0.52 0  -0.4 -0.52 0  -0.3 -0.52 0  -0.2 -0.52 0  -0.09999999999999998 -0.52 0  0 -0.52 0  0.09999999999999998 -0.52 0  0.2 -0.52 0  0.3 -0.52 0  0.4 -0.52 0  0.5 -0.52 0  -0.5 -0.5 0  -0.4 -0.5 0  -0.3 -0.5 0  -0.2 -0.5 0  -0.09999999999999998 -0.5 0  0 -0.5 0  0.09999999999999998 -0.5 0  0.2 -0.5 0  0.3 -0.5 0  0.4 -0.5 0  0.5 -0.5 0  -0.5 -0.48 0  -0.4 -0.48 0  -0.3 -0.48 0  -0.2 -0.48 0  -0.09999999999999998 -0.48 0  0 -0.48 0  0.09999999999999998 -0.48 0  0.2 -0.48 0  0.3 -0.48 0  0.4 -0.48 0  0.5 -0.48 0  -0.5 -0.46 0  -0.4 -0.46 0  -0.3 -0.46 0  -0.2 -0.46 0  -0.09999999999999998 -0.46 0  0 -0.46 0  0.09999999999999998 -0.46 0  0.2 -0.46 0  0.3 -0.46 0  0.4 -0.46 0  0.5 -0.46 0  -0.5 -0.4399999999999999 0  -0.4 -0.4399999999999999 0  -0.3 -0.4399999999999999 0  -0.2 -0.4399999999999999 0  -0.09999999999999998 -0.4399999999999999 0  0 -0.4399999999999999 0  0.09999999999999998 -0.4399999999999999 0  0.2 -0.4399999999999999 0  0.3 -0.4399999999999999 0  0.4 -0.4399999999999999 0  0.5 -0.4399999999999999 0  -0.5 -0.42 0  -0.4 -0.42 0  -0.3 -0.42 0  -0.2 -0.42 0  -0.09999999999999998 -0.42 0  0 -0.42 0  0.09999999999999998 -0.42 0  0.2 -0.42 0  0.3 -0.42 0  0.4 -0.42 0  0.5 -0.42 0  -0.5 -0.4 0  -0.4 -0.4 0  -0.3 -0.4 0  -0.2 -0.4 0  -0.09999999999999998 -0.4 0  0 -0.4 0  0.09999999999999998 -0.4 0  0.2 -0.4 0  0.3 -0.4 0  0.4 -0.4 0  0.5 -0.4 0  -0.5 -0.38 0  -0.4 -0.38 0  -0.3 -0.38 0  -0.2 -0.38 0  -0.09999999999999998 -0.38 0  0 -0.38 0  0.09999999999999998 -0.38 0  0.2 -0.38 0  0.3 -0.38 0  0.4 -0.38 0  0.5 -0.38 0  -0.5 -0.36 0  -0.4 -0.36 0  -0.3 -0.36 0  -0.2 -0.36 0  -0.09999999999999998 -0.36 0  0 -0.36 0  0.09999999999999998 -0.36 0  0.2 -0.36 0  0.3 -0.36 0  0.4 -0.36 0  0.5 -0.36 0  -0.5 -0.34 0  -0.4 -0.34 0  -0.3 -0.34 0  -0.2 -0.34 0  -0.09999999999999998 -0.34 0  0 -0.34 0  0.09999999999999998 -0.34 0  0.2 -0.34 0  0.3 -0.34 0  0.4 -0.34 0  0.5 -0.34 0  -0.5 -0.32 0  -0.4 -0.32 0  -0.3 -0.32 0  -0.2 -0.32 0  -0.09999999999999998 -0.32 0  0 -0.32 0  0.09999999999999998 -0.32 0  0.2 -0.32 0  0.3 -0.32 0  0.4 -0.32 0  0.5 -0.32 0  -0.5 -0.3 0  -0.4 -0.3 0  -0.3 -0.3 0  -0.2 -0.3 0  -0.09999999999999998 -0.3 0  0 -0.3 0  0.09999999999999998 -0.3 0  0.2 -0.3 0  0.3 -0.3 0  0.4 -0.3 0  0.5 -0.3 0  -0.5 -0.28 0  -0.4 -0.28 0  -0.3 -0.28 0  -0.2 -0.28 0  -0.09999999999999998 -0.28 0  0 -0.28 0  0.09999999999999998 -0.28 0  0.2 -0.28 0  0.3 -0.28 0  0.4 -0.28 0  0.5 -0.28 0  -0.5 -0.26 0  -0.4 -0.26 0  -0.3 -0.26 0  -0.2 -0.26 0  -0.09999999999999998 -0.26 0  0 -0.26 0  0.09999999999999998 -0.26 0  0.2 -0.26 0  0.3 -0.26 0  0.4 -0.26 0  0.5 -0.26 0  -0.5 -0.24 0  -0.4 -0.24 0  -0.3 -0.24 0  -0.2 -0.24 0  -0.09999999999999998 -0.24 0  0 -0.24 0  0.09999999999999998 -0.24 0  0.2 -0.24 0  0.3 -0.24 0  0.4 -0.24 0  0.5 -0.24 0  -0.5 -0.22 0  -0.4 -0.22 0  -0.3 -0.22 0  -0.2 -0.22 0  -0.09999999999999998 -0.22 0  0 -0.22 0  0.09999999999999998 -0.22 0  0.2 -0.22 0  0.3 -0.22 0  0.4 -0.22 0  0.5 -0.22 0  -0.5 -0.2 0  -0.4 -0.2 0  -0.3 -0.2 0  -0.2 -0.2 0  -0.09999999999999998 -0.2 0  0 -0.2 0  0.09999999999999998 -0.2 0  0.2 -0.2 0  0.3 -0.2 0  0.4 -0.2 0  0.5 -0.2 0  -0.5 -0.18 0  -0.4 -0.18 0  -0.3 -0.18 0  -0.2 -0.18 0  -0.09999999999999998 -0.18 0  0 -0.18 0  0.09999999999999998 -0.18 0  0.2 -0.18 0  0.3 -0.18 0  0.4 -0.18 0  0.5 -0.18 0  -0.5 -0.16 0  -0.4 -0.16 0  -0.3 -0.16 0  -0.2 -0.16 0  -0.09999999999999998 -0.16 0  0 -0.16 0  0.09999999999999998 -0.16 0  0.2 -0.16 0  0.3 -0.16 0  0.4 -0.16 0  0.5 -0.16 0  -0.5 -0.14 0  -0.4 -0.14 0  -0.3 -0.14 0  -0.2 -0.14 0  -0.09999999999999998 -0.14 0  0 -0.14 0  0.09999999999999998 -0.14 0  0.2 -0.14 0  0.3 -0.14 0  0.4 -0.14 0  0.5 -0.14 0  -0.5 -0.12 0  -0.4 -0.12 0  -0.3 -0.12 0  -0.2 -0.12 0  -0.09999999999999998 -0.12 0  0 -0.12 0  0.09999999999999998 -0.12 0  0.2 -0.12 0  0.3 -0.12 0  0.4 -0.12 0  0.5 -0.12 0  -0.5 -0.09999999999999998 0  -0.4 -0.09999999999999998 0  -0.3 -0.09999999999999998 0  -0.2 -0.09999999999999998 0  -0.09999999999999998 -0.09999999999999998 0  0 -0.09999999999999998 0  0.09999999999999998 -0.09999999999999998 0  0.2 -0.09999999999999998 0  0.3 -0.09999999999999998 0  0.4 -0.09999999999999998 0  0.5 -0.09999999999999998 0  -0.5 -0.07999999999999996 0  -0.4 -0.07999999999999996 0  -0.3 -0.07999999999999996 0  -0.2 -0.07999999999999996 0  -0.09999999999999998 -0.07999999999999996 0  0 -0.07999999999999996 0  0.09999999999999998 -0.07999999999999996 0  0.2 -0.07999999999999996 0  0.3 -0.07999999999999996 0  0.4 -0.07999999999999996 0  0.5 -0.07999999999999996 0  -0.5 -0.06000000000000005 0  -0.4 -0.06000000000000005 0  -0.3 -0.06000000000000005 0  -0.2 -0.06000000000000005 0  -0.09999999
[...]
<PointData  Vectors="displacement"> 
<DataArray  type="Float64"  Name="displacement"  NumberOfComponents="3" format="ascii">9.8741525469072048e-34 0.0000000000000000e+00 0.0000000000000000e+00  -9.5215042416605186e-34 -2.2333876538931723e-20 0.0000000000000000e+00  2.4795583962657606e-35 -2.7723475217597542e-21 0.0000000000000000e+00  3.1033050861708370e-33 -4.4667753077863458e-20 0.0000000000000000e+00  1.1531040047770446e-33 5.4519257817938348e-20 0.0000000000000000e+00  2.2569491535787896e-33 -1.2407709188295402e-20 0.0000000000000000e+00  4.7781090296041213e-33 -1.4484546448914382e-20 0.0000000000000000e+00  1.6927118651840923e-33 -1.9852334701272643e-20 0.0000000000000000e+00  2.2691237552018365e-33 -2.0782912890394799e-20 0.0000000000000000e+00  0.0000000000000000e+00 -2.9778502051908972e-20 0.0000000000000000e+00  8.4635593259204598e-34 -1.9852334701272640e-20 0.0000000000000000e+00  -5.6423728839469758e-34 -2.7717265353417318e-04 0.0000000000000000e+00  -9.6314185591591079e-18 -2.7717265353417487e-04 0.0000000000000000e+00  2.5451618389387337e-18 -2.7717265353418105e-04 0.0000000000000000e+00  2.5533081057352810e-17 -2.7717265353418273e-04 0.0000000000000000e+00  3.5203977860179255e-17 -2.7717265353417812e-04 0.0000000000000000e+00  4.3509150370934461e-17 -2.7717265353417356e-04 0.0000000000000000e+00  4.5768726263415582e-17 -2.7717265353417286e-04 0.0000000000000000e+00  3.1685403947705120e-17 -2.7717265353416982e-04 0.0000000000000000e+00  2.6697102941874309e-17 -2.7717265353416939e-04 0.0000000000000000e+00  1.6972701126095718e-17 -2.7717265353416175e-04 0.0000000000000000e+00  -2.0454417744720835e-33 -2.7717265353416841e-04 0.0000000000000000e+00  -7.2070226597519559e-36 -5.5434530706834420e-04 0.0000000000000000e+00  -1.5341669973602910e-17 -5.5434530706835060e-04 0.0000000000000000e+00  6.2319771725499325e-18 -5.5434530706836350e-04 0.0000000000000000e+00  4.7885742734082692e-17 -5.5434530706836925e-04 0.0000000000000000e+00  6.8269270871103506e-17 -5.5434530706835905e-04 0.0000000000000000e+00  8.3872651313415886e-17 -5.5434530706834919e-04 0.0000000000000000e+00  8.6912353123602211e-17 -5.5434530706834583e-04 0.0000000000000000e+00  6.1209563821317924e-17 -5.5434530706833911e-04 0.0000000000000000e+00  5.1019166819791487e-17 -5.5434530706833986e-04 0.0000000000000000e+00  3.1920571396689904e-17 -5.5434530706832165e-04 0.0000000000000000e+00  4.8363196148117000e-34 -5.5434530706833444e-04 0.0000000000000000e+00  -8.4635593259204769e-34 -8.3151796060251337e-04 0.0000000000000000e+00  -1.9091482234156997e-17 -8.3151796060252693e-04 0.0000000000000000e+00  1.0838131939451880e-17 -8.3151796060254633e-04 0.0000000000000000e+00  6.7878448004971709e-17 -8.3151796060256075e-04 0.0000000000000000e+00  9.8522513347522513e-17 -8.3151796060254070e-04 0.0000000000000000e+00  1.2164955005415727e-16 -8.3151796060252714e-04 0.0000000000000000e+00  1.2413199458755578e-16 -8.3151796060252118e-04 0.0000000000000000e+00  8.7252098098217524e-17 -8.3151796060250936e-04 0.0000000000000000e+00  7.2842729942858262e-17 -8.3151796060250904e-04 0.0000000000000000e+00  4.5781399870031747e-17 -8.3151796060248063e-04 0.0000000000000000e+00  -6.7708474607363788e-33 -8.3151796060250112e-04 0.0000000000000000e+00  -1.3929608057244155e-33 -1.1086906141366819e-03 0.0000000000000000e+00  -2.1439992262520316e-17 -1.1086906141367008e-03 0.0000000000000000e+00  1.5758280808888408e-17 -1.1086906141367274e-03 0.0000000000000000e+00  8.4996446785958360e-17 -1.1086906141367493e-03 0.0000000000000000e+00  1.2688542483325486e-16 -1.1086906141367201e-03 0.0000000000000000e+00  1.5600558474499768e-16 -1.1086906141367079e-03 0.0000000000000000e+00  1.5874686918450844e-16 -1.1086906141366992e-03 0.0000000000000000e+00  1.1124315538533729e-16 -1.1086906141366808e-03 0.0000000000000000e+00  9.2775482785299966e-17 -1.1086906141366717e-03 0.0000000000000000e+00  5.8020696009070714e-17 -1.1086906141366374e-03 0.0000000000000000e+00  5.8591059318631299e-33 -1.1086906141366656e-03 0.0000000000000000e+00  -2.2569491535787903e-33 -1.3858632676708557e-03 0.0000000000000000e+00  -2.3087566270029040e-17 -1.3858632676708768e-03 0.0000000000000000e+00  2.0256265997808554e-17 -1.3858632676709108e-03 0.0000000000000000e+00  1.0011142215987095e-16 -1.3858632676709416e-03 0.0000000000000000e+00  1.5333560960574299e-16 -1.3858632676709045e-03 0.0000000000000000e+00  1.8681125116595557e-16 -1.3858632676708935e-03 0.0000000000000000e+00  1.8971123998645460e-16 -1.3858632676708850e-03 0.0000000000000000e+00  1.3459742019300187e-16 -1.3858632676708579e-03 0.0000000000000000e+00  1.1234416368573676e-16 -1.3858632676708306e-03 0.0000000000000000e+00  6.8780450071955502e-17 -1.3858632676707922e-03 0.0000000000000000e+00  -3.0342626708258347e-33 -1.3858632676708284e-03 0.0000000000000000e+00  -2.5390677977761390e-33 -1.6630359212050293e-03 0.0000000000000000e+00  -2.2890489944679707e-17 -1.6630359212050508e-03 0.0000000000000000e+00  2.3633224731686534e-17 -1.6630359212050951e-03 0.0000000000000000e+00  1.1324935048389656e-16 -1.6630359212051319e-03 0.0000000000000000e+00  1.7650225864921352e-16 -1.6630359212050881e-03 0.0000000000000000e+00  2.1482686439460665e-16 -1.6630359212050771e-03 0.0000000000000000e+00  2.1759686725396323e-16 -1.6630359212050719e-03 0.0000000000000000e+00  1.5813271766293113e-16 -1.6630359212050374e-03 0.0000000000000000e+00  1.3233370980296421e-16 -1.6630359212049908e-03 0.0000000000000000e+00  7.7798951778987264e-17 -1.6630359212049485e-03 0.0000000000000000e+00  2.8211864419734873e-33 -1.6630359212049834e-03 0.0000000000000000e+00  -1.9748305093814416e-33 -1.9402085747391995e-03 0.0000000000000000e+00  -2.2579473953084922e-17 -1.9402085747392223e-03 0.0000000000000000e+00  2.4830325963182255e-17 -1.9402085747392771e-03 0.0000000000000000e+00  1.2559550149051729e-16 -1.9402085747393281e-03 0.0000000000000000e+00  1.9717429365354524e-16 -1.9402085747392711e-03 0.0000000000000000e+00  2.4011713632401248e-16 -1.9402085747392596e-03 0.0000000000000000e+00  2.4285204095223288e-16 -1.9402085747392485e-03 0.0000000000000000e+00  1.8001484444662646e-16 -1.9402085747392145e-03 0.0000000000000000e+00  1.5147296445651897e-16 -1.9402085747391479e-03 0.0000000000000000e+00  8.4847889208323994e-17 -1.9402085747390974e-03 0.0000000000000000e+00  -7.8993220375257652e-33 -1.9402085747391405e-03 0.0000000000000000e+00  0.0000000000000000e+00 -2.2173812282733638e-03 0.0000000000000000e+00  -2.4077407743710306e-17 -2.2173812282733928e-03 0.0000000000000000e+00  2.4162415814093660e-17 -2.2173812282734683e-03 0.0000000000000000e+00  1.3674825375928610e-16 -2.2173812282735243e-03 0.0000000000000000e+00  2.1575916824513051e-16 -2.2173812282734579e-03 0.0000000000000000e+00  2.6300115964883484e-16 -2.2173812282734414e-03 0.0000000000000000e+00  2.6745588651622090e-16 -2.2173812282734354e-03 0.0000000000000000e+00  1.9963020337990646e-16 -2.2173812282733898e-03 0.0000000000000000e+00  1.7044554364668723e-16 -2.2173812282733052e-03 0.0000000000000000e+00  8.9922112674828566e-17 -2.2173812282732484e-03 0.0000000000000000e+00  1.2126748917238445e-32 -2.2173812282732931e-03 0.0000000000000000e+00  -6.7708474607363993e-33 -2.4945538818075303e-03 0.0000000000000000e+00  -2.8628011142019348e-17 -2.4945538818075606e-03 0.0000000000000000e+00  2.1133538601572340e-17 -2.4945538818076543e-03 0.0000000000000000e+00  1.4653507586961537e-16 -2.4945538818077206e-03 0.0000000000000000e+00  2.3336282798132066e-16 -2.4945538818076491e-03 0.0000000000000000e+00  2.8225882228221882e-16 -2.4945538818076244e-03 0.0000000000000000e+00  2.8953322076260013e-16 -2.4945538818076378e-03 0.0000000000000000e+00  2.2030603869427297e-16 -2.4945538818075723e-03 0.0000000000000000e+00  1.8861360980923249e-16 -2.4945538818074626e-03 0.0000000000000000e+00  9.4029590160791727e-17 -2.4945538818074028e-03 0.0000000000000000e+00  -1.1788044090822747e-32 -2.4945538818074509e-03 0.0000000000000000e+00  4.5148417520598239e-33 -2.7717265353417015e-03 0.0000000000000000e+00  -3.5720538688041206e-17 -2.7717265353417392e-03 0.0000000000000000e+00  1.5666176165792816e-17 -2.7717265353418572e-03 0.0000000000000000e+00  1.5484764245017125e-16 -2.7717265353419201e-03 0.0000000000000000e+00  2.5213427891458398e-16 -2.7717265353418442e-03 0.0000000000000000e+00  2.9690281787890630e-16 -2.7717265353418064e-03 0.0000000000000000e+00  3.0568055021150378e-16 -2.7717265353418442e-03 0.0000000000000000e+00  2.4479396715949776e-16 -2.7717265353417570e-03 0.0000000000000000e+00  2.0742868261413885e-16 -2.7717265353416156e-03 0.0000000000000000e+00  9.5645149592087406e-17 -2.7717265353415623e-03 0.0000000000000000e+00  0.0000000000000000e+00 -2.7717265353416056e-03 0.0000000000000000e+00  -1.1284745767893952e-33 -3.0488991888758758e-03 0.0000000000000000e+00  -4.5777563630911902e-17 -3.0488991888759256e-03 0.0000000000000000e+00  8.4484262125506870e-18 -3.0488991888760713e-03 0.0000000000000000e+00  1.6407115717238588e-16 -3.0488991888761151e-03 0.0000000000000000e+00  2.7034132342149153e-16 -3.0488991888760406e-03 0.0000000000000000e+00  3.1041607986913216e-16 -3.0488991888759911e-03 0.0000000000000000e+00  3.1720680583678274e-16 -3.0488991888760445e-03 0.0000000000000000e+00  2.7021393452676041e-16 -3.0488991888759451e-03 0.0000000000000000e+00  2.2804098469782488e-16 -3.0488991888757821e-03 0.0000000000000000e+00  9.5494504267872888e-17 -3.0488991888757092e-03 0.0000000000000000e+00  0.0000000000000000e+00 -3.0488991888757600e-03 0.0000000000000000e+00  1.8302831103533378e-34 -3.3260718424100548e-03 0.0000000000000000e+00  -5.9952701095001244e-17 -3.3260718424101168e-03 0.0000000000000000e+00  8.6479953356819190e-19 -3.3260718424102929e-03 0.0000000000000000e+00  1.7682256196118733e-16 -3.3260718424103055e-03 0.0000000000000000e+00  2.8708018362411421e-16 -3.3260718424102326e-03 0.0000000000000000e+00  3.2115633936118936e-16 -3.3260718424101810e-03 0.0000000000000000e+00  3.2437575404189982e-16 -3.3260718424102369e-03 0.0000000000000000e+00  2.9487703468642440e-16 -3.3260718424101272e-03 0.0000000000000000e+00  2.4827334397775812e-16 -3.3260718424099537e-03 0.0000000000000000e+00  9.7833651031443091e-17 -3.3260718424098696e-03 0.0000000000000000e+00  -1.0970701911159087e-32 -3.3260718424099069e-03 0.0000000000000000e+00  -9.0277966143151612e-33 -3.6032444959442317e-03 0.0000000000000000e+00  -7.9359150929831534e-17 -3.6032444959443123e-03 0.0000000000000000e+00  -5.5214124066276097e-18 -3.6032444959445062e-03 0.0000000000000000e+00  1.9197211628740495e-16 -3.6032444959444971e-03 0.0000000000000000e+00  3.0236370661540305e-16 -3.6032444959444212e-03 0.0000000000000000e+00  3.2870697655721342e-16 -3.6032444959443804e-03 0.0000000000000000e+00  3.3027910311312885e-16 -3.6032444959444268e-03 0.0000000000000000e+00  3.1680974643555262e-16 -3.6032444959442946e-03 0.0000000000000000e+00  2.6731651254354089e-16 -3.6032444959441328e-03 0.0000000000000000e+00  1.0316846378098524e-16 -3.6032444959440322e-03 0.0000000000000000e+00  -4.3966139942880828e-33 -3.6032444959440682e-03 0.0000000000000000e+00  -1.5858261886789659e-32 -3.8804171494784111e-03 0.0000000000000000e+00  -9.9233158604268842e-17 -3.8804171494785096e-03 0.0000000000000000e+00  -1.2986222439809822e-17 -3.8804171494787008e-03 0.0000000000000000e+00  2.0959250038290255e-16 -3.8804171494786800e-03 0.0000000000000000e+00  3.1178825609729630e-16 -3.8804171494786089e-03 0.0000000000000000e+00  3.3223139480946280e-16 -3.8804171494785846e-03 0.0000000000000000e+00  3.4026535493855740e-16 -3.8804171494785968e-03 0.0000000000000000e+00  3.3420805501975650e-16 -3.8804171494784640e-03 0.0000000000000000e+00  2.8452288386908798e-16 -3.8804171494783136e-03 0.0000000000000000e+00  1.0878895809028969e-16 -3.8804171494781869e-03 0.0000000000000000e+00  -5.6423728839469746e-33 -3.8804171494782290e-03 0.0000000000000000e+00  7.8993220375257666e-33 -4.1575898030125963e-03 0.0000000000000000e+00  -1.1846491128810315e-16 -4.1575898030127090e-03 0.0000000000000000e+00  -2.0942284858571762e-17 -4.1575898030128799e-03 0.0000000000000000e+00  2.2564626685714005e-16 -4.1575898030128513e-03 0.0000000000000000e+00  3.1764570004158690e-16 -4.1575898030127983e-03 0.0000000000000000e+00  3.3469870178267200e-16 -4.1575898030127819e-03 0.0000000000000000e+00  3.5193183326159723e-16 -4.1575898030127584e-03 0.0000000000000000e+00  3.4857341626457015e-16 -4.1575898030126344e-03 0.0000000000000000e+00  2.9922063861459044e-16 -4.1575898030124818e-03 0.0000000000000000e+00  1.1458799376336631e-16 -4.1575898030123525e-03 0.0000000000000000e+00  -1.5798644075051530e-32 -4.1575898030123942e-03 0.0000000000000000e+00  -1.1565855477196987e-32 -4.4347624565467866e-03 0.0000000000000000e+00  -1.3364971798864644e-16 -4.4347624565469175e-03 0.0000000000000000e+00  -2.6447066504938461e-17 -4.4347624565470398e-03 0.0000000000000000e+00  2.3465868549720088e-16 -4.4347624565470320e-03 0.0000000000000000e+00  3.1824829252266048e-16 -4.4347624565470060e-03 0.0000000000000000e+00  3.4066869227054424e-16 -4.4347624565469774e-03 0.0000000000000000e+00  3.6358661336101178e-16 -4.4347624565469158e-03 0.0000000000000000e+00  3.6089876872943615e-16 -4.4347624565467952e-03 0.0000000000000000e+00  3.1280900917028372e-16 -4.4347624565466495e-03 0.0000000000000000e+00  1.1982104820291846e-16 -4.4347624565465272e-03 0.0000000000000000e+00  -2.6017594618557014e-33 -4.4347624565465715e-03 0.0000000000000000e+00  -1.8055593228630399e-32 -4.7119351100809734e-03 0.0000000000000000e+00  -1.4323955871244141e-16 -4.7119351100811399e-03 0.0000000000000000e+00  -2.6733947119439321e-17 -4.7119351100812223e-03 0.0000000000000000e+00  2.3600573657643492e-16 -4.7119351100812267e-03 0.0000000000000000e+00  3.1538174230791290e-16 -4.7119351100812119e-03 0.0000000000000000e+00  3.5097556454659267e-16 -4.7119351100811668e-03 0.0000000000000000e+00  3.7771782704616235e-16 -4.7119351100810471e-03 0.0000000000000000e+00  3.6649310385113088e-16 -4.7119351100809448e-03 0.0000000000000000e+00  3.2234986844747261e-16 -4.7119351100808182e-03 0.0000000000000000e+00  1.2358174706846906e-16 -4.7119351100807054e-03 0.0000000000000000e+00  4.8273443158767565e-33 -4.7119351100807635e-03 0.0000000000000000e+00  2.2621574871733215e-32 -4.9891077636151689e-03 0.0000000000000000e+00  -1.5500676050421183e-16 -4.9891077636153476e-03 0.0000000000000000e+00  -2.0422573600417769e-17 -4.9891077636154231e-03 0.0000000000000000e+00  2.3401186257915360e-16 -4.9891077636154213e-03 0.0000000000000000e+00  3.1142761664611043e-16 -4.9891077636154031e-03 0.0000000000000000e+00  3.6735652922641943e-16 -4.9891077636153389e-03 0.0000000000000000e+00  3.9461603736880870e-16 -4.9891077636151941e-03 0.0000000000000000e+00  3.6466491827621388e-16 -4.9891077636150692e-03 0.0000000000000000e+00  3.2861133486332944e-16 -4.9891077636149712e-03 0.0000000000000000e+00  1.2323002978895570e-16 -4.9891077636148766e-03 0.0000000000000000e+00  -1.1929588383202190e-32 -4.9891077636149547e-03 0.0000000000000000e+00  -2.4826440689366696e-32 -5.2662804171493766e-03 0.0000000000000000e+00  -1.6474620486630495e-16 -5.2662804171495405e-03 0.0000000000000000e+00  -1.2240239552041939e-17 -5.2662804171496307e-03 0.0000000000000000e+00  2.3058325954192888e-16 -5.2662804171496099e-03 0.0000000000000000e+00  3.0627208096522340e-16 -5.2662804171495969e-03 0.0000000000000000e+00  3.8955340491338196e-16 -5.2662804171495041e-03 0.0000000000000000e+00  4.1145716785666014e-16 -5.2662804171493445e-03 0.0000000000000000e+00  3.6185836523791653e-16 -5.2662804171492005e-03 0.0000000000000000e+00  3.2809163842755885e-16 -5.2662804171491199e-03 0.0000000000000000e+00  1.1392838933604756e-16 -5.2662804171490383e-03 0.0000000000000000e+00  9.0277966143151599e-33 -5.2662804171491415e-03 0.0000000000000000e+00  1.0104167173383507e-32 -5.5434530706835903e-03 0.0000000000000000e+00  -1.7278820928795102e-16 -5.5434530706837222e-03 0.0000000000000000e+00  -6.6523041043705857e-18 -5.5434530706838462e-03 0.0000000000000000e+00  2.2760598102961050e-16 -5.5434530706838271e-03 0.0000000000000000e+00  3.0316732590901048e-16 -5.5434530706837803e-03 0.0000000000000000e+00  4.1168042873686116e-16 -5.5434530706836649e-03 0.0000000000000000e+00  4.3015593098958643e-16 -5.5434530706835071e-03 0.0000000000000000e+00  3.5689678270506871e-16 -5.5434530706833405e-03 0.0000000000000000e+00  3.2005378410894863e-16 -5.5434530706832659e-03 0.0000000000000000e+00  1.0024890041460343e-16 -5.5434530706832009e-03 0.0000000000000000e+00  1.2881332268374332e-32 -5.5434530706833240e-03 0.0000000000000000e+00  0.0000000000000000e+00 -5.8206257242178093e-03 0.0000000000000000e+00  -1.7982862059792135e-16 -5.8206257242179047e-03 0.0000000000000000e+00  -5.3883663245402000e-18 -5.8206257242180582e-03 0.0000000000000000e+00  2.3082775672106529e-16 -5.8206257242180391e-03 0.0000000000000000e+00  3.0010206890841970e-16 -5.8206257242179715e-03 0.0000000000000000e+00  4.3446528602925606e-16 -5.8206257242178336e-03 0.0000000000000000e+00  4.5256456360046419e-16 -5.8206257242176818e-03 0.0000000000000000e+00  3.4607520709346021e-16 -5.8206257242175014e-03 0.0000000000000000e+00  3.1079688207043315e-16 -5.8206257242174320e-03 0.0000000000000000e+00  8.3816752003512423e-17 -5.8206257242173860e-03 0.0000000000000000e+00  -2.2352211006724720e-32 -5.8206257242174857e-03 0.0000000000000000e+00  -1.7784343144543095e-32 -6.0977983777520273e-03 0.0000000000000000e+00  -1.8561090574739249e-16 -6.0977983777521002e-03 0.0000000000000000e+00  -7.7454420460285269e-18 -6.0977983777522685e-03 0.0000000000000000e+00  2.3765894313481046e-16 -6.0977983777522546e-03 0.0000000000000000e+00  3.0138818221535851e-16 -6.0977983777521358e-03 0.0000000000000000e+00  4.5382209748621235e-16 -6.0977983777520057e-03 0.0000000000000000e+00  4.7065051538422168e-16 -6.0977983777518669e-03 0.0000000000000000e+00  3.3632567632992391e-16 -6.0977983777517047e-03 0.0000000000000000e+00  3.0070134094276707e-16 -6.0977983777515989e-03 0.0000000000000000e+00  6.6777559420380918e-17 -6.0977983777515459e-03 0.0000000000000000e+00  1.1204140440980422e-32 -6.0977983777516596e-03 0.0000000000000000e+00  -2.4826440689366696e-32 -6.3749710312862411e-03 0.0000000000000000e+00  -1.9185924834499956e-16 -6.3749710312863027e-03 0.0000000000000000e+00  -1.3437654290828680e-17 -6.3749710312864857e-03 0.0000000000000000e+00  2.4720783552396775e-16 -6.3749710312864822e-03 0.0000000000000000e+00  3.0961605413732756e-16 -6.3749710312863087e-03 0.0000000000000000e+00  4.7080528829103206e-16 -6.3749710312861812e-03 0.0000000000000000e+00  4.8247537571318424e-16 -6.3749710312860728e-03 0.0000000000000000e+00  3.2777908128880593e-16 -6.3749710312859089e-03 0.0000000000000000e+00  2.8924218245803442e-16 -6.3749710312857736e-03 0.0000000000000000e+00  4.9978670991371243e-17 -6.3749710312857233e-03 0.0000000000000000e+00  1.1284745767893950e-33 -6.3749710312858299e-03 0.0000000000000000e+00  5.2622516312922195e-32 -6.6521436848204591e-03 0.0000000000000000e+00  -1.9874970197552130e-16 -6.6521436848205068e-03 0.0000000000000000e+00  -2.4505425244475317e-17 -6.6521436848207003e-03 0.0000000000000000e+00  2.6177166901761752e-16 -6.6521436848207141e-03 0.0000000000000000e+00  3.2183847256945067e-16 -6.6521436848204574e-03 0.0000000000000000e+00  4.8561707618573527e-16 -6.6521436848203707e-03 0.0000000000000000e+00  4.8793181701901306e-16 -6.6521436848202735e-03 0.0000000000000000e+00  3.2029902633359522e-16 -6.6521436848201330e-03 0.0000000000000000e+00  2.7804344426733286e-16 -6.6521436848199457e-03 0.0000000000000000e+00  3.2798538635341862e-17 -6.6521436848198928e-03 0.0000000000000000e+00  3.9715179443176293e-33 -6.6521436848200012e-03 0.0000000000000000e+00  -1.1284745767893952e-32 -6.9293163383546720e-03 0.0000000000000000e+00  -2.0860915722713031e-16 -6.9293163383547206e-03 0.0000000000000000e+00  -3.4746111987638584e-17 -6.9293163383549114e-03 0.0000000000000000e+00  2.7742881293430463e-16 -6.9293163383549131e-03 0.0000000000000000e+00  3