<?xml version="1.0"?>
<VTKFile type="UnstructuredGrid"  version="0.1"  >
<UnstructuredGrid>
<Piece  NumberOfPoints="1091" NumberOfCells="2050">
<Points>
<DataArray  type="Float64"  NumberOfComponents="3"  format="ascii">-0.5 -1 0  -0.4 -1 0  -0.3 -1 0  -0.2 -1 0  -0.09999999999999998 -1 0  0 -1 0  0.09999999999999998 -1 0  0.2 -1 0  0.3 -1 0  0.4 -1 0  0.5 -1 0  -0.5 -0.98 0  -0.4 -0.98 0  -0.3 -0.98 0  -0.2 -0.98 0  -0.09999999999999998 -0.98 0  0 -0.98 0  0.09999999999999998 -0.98 0  0.2 -0.98 0  0.3 -0.98 0  0.4 -0.98 0  0.5 -0.98 0  -0.5 -0.96 0  -0.4 -0.96 0  -0.3 -0.96 0  -0.2 -0.96 0  -0.09999999999999998 -0.96 0  0 -0.96 0  0.09999999999999998 -0.96 0  0.2 -0.96 0  0.3 -0.96 0  0.4 -0.96 0  0.5 -0.96 0  -0.5 -0.9399999999999999 0  -0.4 -0.9399999999999999 0  -0.3 -0.9399999999999999 0  -0.2 -0.9399999999999999 0  -0.09999999999999998 -0.9399999999999999 0  0 -0.9399999999999999 0  0.09999999999999998 -0.9399999999999999 0  0.2 -0.9399999999999999 0  0.3 -0.9399999999999999 0  0.4 -0.9399999999999999 0  0.5 -0.9399999999999999 0  -0.5 -0.92 0  -0.4 -0.92 0  -0.3 -0.92 0  -0.2 -0.92 0  -0.09999999999999998 -0.92 0  0 -0.92 0  0.09999999999999998 -0.92 0  0.2 -0.92 0  0.3 -0.92 0  0.4 -0.92 0  0.5 -0.92 0  -0.5 -0.9 0  -0.4 -0.9 0  -0.3 -0.9 0  -0.2 -0.9 0  -0.09999999999999998 -0.9 0  0 -0.9 0  0.09999999999999998 -0.9 0  0.2 -0.9 0  0.3 -0.9 0  0.4 -0.9 0  0.5 -0.9 0  -0.5 -0.88 0  -0.4 -0.88 0  -0.3 -0.88 0  -0.2 -0.88 0  -0.09999999999999998 -0.88 0  0 -0.88 0  0.09999999999999998 -0.88 0  0.2 -0.88 0  0.3 -0.88 0  0.4 -0.88 0  0.5 -0.88 0  -0.5 -0.86 0  -0.4 -0.86 0  -0.3 -0.86 0  -0.2 -0.86 0  -0.09999999999999998 -0.86 0  0 -0.86 0  0.09999999999999998 -0.86 0  0.2 -0.86 0  0.3 -0.86 0  0.4 -0.86 0  0.5 -0.86 0  -0.5 -0.84 0  -0.4 -0.84 0  -0.3 -0.84 0  -0.2 -0.84 0  -0.09999999999999998 -0.84 0  0 -0.84 0  0.09999999999999998 -0.84 0  0.2 -0.84 0  0.3 -0.84 0  0.4 -0.84 0  0.5 -0.84 0  -0.5 -0.8200000000000001 0  -0.4 -0.8200000000000001 0  -0.3 -0.8200000000000001 0  -0.2 -0.8200000000000001 0  -0.09999999999999998 -0.8200000000000001 0  0 -0.8200000000000001 0  0.09999999999999998 -0.8200000000000001 0  0.2 -0.8200000000000001 0  0.3 -0.8200000000000001 0  0.4 -0.8200000000000001 0  0.5 -0.8200000000000001 0  -0.5 -0.8 0  -0.4 -0.8 0  -0.3 -0.8 0  -0.2 -0.8 0  -0.09999999999999998 -0.8 0  0 -0.8 0  0.09999999999999998 -0.8 0  0.2 -0.8 0  0.3 -0.8 0  0.4 -0.8 0  0.5 -0.8 0  -0.5 -0.78 0  -0.4 -0.78 0  -0.3 -0.78 0  -0.2 -0.78 0  -0.09999999999999998 -0.78 0  0 -0.78 0  0.09999999999999998 -0.78 0  0.2 -0.78 0  0.3 -0.78 0  0.4 -0.78 0  0.5 -0.78 0  -0.5 -0.76 0  -0.4 -0.76 0  -0.3 -0.76 0  -0.2 -0.76 0  -0.09999999999999998 -0.76 0  0 -0.76 0  0.09999999999999998 -0.76 0  0.2 -0.76 0  0.3 -0.76 0  0.4 -0.76 0  0.5 -0.76 0  -0.5 -0.74 0  -0.4 -0.74 0  -0.3 -0.74 0  -0.2 -0.74 0  -0.09999999999999998 -0.74 0  0 -0.74 0  0.09999999999999998 -0.74 0  0.2 -0.74 0  0.3 -0.74 0  0.4 -0.74 0  0.5 -0.74 0  -0.5 -0.72 0  -0.4 -0.72 0  -0.3 -0.72 0  -0.2 -0.72 0  -0.09999999999999998 -0.72 0  0 -0.72 0  0.09999999999999998 -0.72 0  0.2 -0.72 0  0.3 -0.72 0  0.4 -0.72 0  0.5 -0.72 0  -0.5 -0.7 0  -0.4 -0.7 0  -0.3 -0.7 0  -0.2 -0.7 0  -0.09999999999999998 -0.7 0  0 -0.7 0  0.09999999999999998 -0.7 0  0.2 -0.7 0  0.3 -0.7 0  0.4 -0.7 0  0.5 -0.7 0  -0.5 -0.6799999999999999 0  -0.4 -0.6799999999999999 0  -0.3 -0.6799999999999999 0  -0.2 -0.6799999999999999 0  -0.09999999999999998 -0.6799999999999999 0  0 -0.6799999999999999 0  0.09999999999999998 -0.6799999999999999 0  0.2 -0.6799999999999999 0  0.3 -0.6799999999999999 0  0.4 -0.6799999999999999 0  0.5 -0.6799999999999999 0  -0.5 -0.6599999999999999 0  -0.4 -0.6599999999999999 0  -0.3 -0.6599999999999999 0  -0.2 -0.6599999999999999 0  -0.09999999999999998 -0.6599999999999999 0  0 -0.6599999999999999 0  0.09999999999999998 -0.6599999999999999 0  0.2 -0.6599999999999999 0  0.3 -0.6599999999999999 0  0.4 -0.6599999999999999 0  0.5 -0.6599999999999999 0  -0.5 -0.64 0  -0.4 -0.64 0  -0.3 -0.64 0  -0.2 -0.64 0  -0.09999999999999998 -0.64 0  0 -0.64 0  0.09999999999999998 -0.64 0  0.2 -0.64 0  0.3 -0.64 0  0.4 -0.64 0  0.5 -0.64 0  -0.5 -0.62 0  -0.4 -0.62 0  -0.3 -0.62 0  -0.2 -0.62 0  -0.09999999999999998 -0.62 0  0 -0.62 0  0.09999999999999998 -0.62 0  0.2 -0.62 0  0.3 -0.62 0  0.4 -0.62 0  0.5 -0.62 0  -0.5 -0.6 0  -0.4 -0.6 0  -0.3 -0.6 0  -0.2 -0.6 0  -0.09999999999999998 -0.6 0  0 -0.6 0  0.09999999999999998 -0.6 0  0.2 -0.6 0  0.3 -0.6 0  0.4 -0.6 0  0.5 -0.6 0  -0.5 -0.5800000000000001 0  -0.4 -0.5800000000000001 0  -0.3 -0.5800000000000001 0  -0.2 -0.5800000000000001 0  -0.09999999999999998 -0.5800000000000001 0  0 -0.5800000000000001 0  0.09999999999999998 -0.5800000000000001 0  0.2 -0.5800000000000001 0  0.3 -0.5800000000000001 0  0.4 -0.5800000000000001 0  0.5 -0.5800000000000001 0  -0.5 -0.5600000000000001 0  -0.4 -0.5600000000000001 0  -0.3 -0.5600000000000001 0  -0.2 -0.5600000000000001 0  -0.09999999999999998 -0.5600000000000001 0  0 -0.5600000000000001 0  0.09999999999999998 -0.5600000000000001 0  0.2 -0.5600000000000001 0  0.3 -0.5600000000000001 0  0.4 -0.5600000000000001 0  0.5 -0.5600000000000001 0  -0.5 -0.54 0  -0.4 -0.54 0  -0.3 -0.54 0  -0.2 -0.54 0  -0.09999999999999998 -0.54 0  0 -0.54 0  0.09999999999999998 -0.54 0  0.2 -0.54 0  0.3 -0.54 0  0.4 -0.54 0  0.5 -0.54 0  -0.5 -0.52 0  -0.4 -0.52 0  -0.3 -0.52 0  -0.2 -0.52 0  -0.09999999999999998 -0.52 0  0 -0.52 0  0.09999999999999998 -0.52 0  0.2 -0.52 0  0.3 -0.52 0  0.4 -0.52 0  0.5 -0.52 0  -0.5 -0.5 0  -0.4 -0.5 0  -0.3 -0.5 0  -0.2 -0.5 0  -0.09999999999999998 -0.5 0  0 -0.5 0  0.09999999999999998 -0.5 0  0.2 -0.5 0  0.3 -0.5 0  0.4 -0.5 0  0.5 -0.5 0  -0.5 -0.48 0  -0.4 -0.48 0  -0.3 -0.48 0  -0.2 -0.48 0  -0.09999999999999998 -0.48 0  0 -0.48 0  0.09999999999999998 -0.48 0  0.2 -0.48 0  0.3 -0.48 0  0.4 -0.48 0  0.5 -0.48 0  -0.5 -0.46 0  -0.4 -0.46 0  -0.3 -0.46 0  -0.2 -0.46 0  -0.09999999999999998 -0.46 0  0 -0.46 0  0.09999999999999998 -0.46 0  0.2 -0.46 0  0.3 -0.46 0  0.4 -0.46 0  0.5 -0.46 0  -0.5 -0.4399999999999999 0  -0.4 -0.4399999999999999 0  -0.3 -0.4399999999999999 0  -0.2 -0.4399999999999999 0  -0.09999999999999998 -0.4399999999999999 0  0 -0.4399999999999999 0  0.09999999999999998 -0.4399999999999999 0  0.2 -0.4399999999999999 0  0.3 -0.4399999999999999 0  0.4 -0.4399999999999999 0  0.5 -0.4399999999999999 0  -0.5 -0.42 0  -0.4 -0.42 0  -0.3 -0.42 0  -0.2 -0.42 0  -0.09999999999999998 -0.42 0  0 -0.42 0  0.09999999999999998 -0.42 0  0.2 -0.42 0  0.3 -0.42 0  0.4 -0.42 0  0.5 -0.42 0  -0.5 -0.4 0  -0.4 -0.4 0  -0.3 -0.4 0  -0.2 -0.4 0  -0.09999999999999998 -0.4 0  0 -0.4 0  0.09999999999999998 -0.4 0  0.2 -0.4 0  0.3 -0.4 0  0.4 -0.4 0  0.5 -0.4 0  -0.5 -0.38 0  -0.4 -0.38 0  -0.3 -0.38 0  -0.2 -0.38 0  -0.09999999999999998 -0.38 0  0 -0.38 0  0.09999999999999998 -0.38 0  0.2 -0.38 0  0.3 -0.38 0  0.4 -0.38 0  0.5 -0.38 0  -0.5 -0.36 0  -0.4 -0.36 0  -0.3 -0.36 0  -0.2 -0.36 0  -0.09999999999999998 -0.36 0  0 -0.36 0  0.09999999999999998 -0.36 0  0.2 -0.36 0  0.3 -0.36 0  0.4 -0.36 0  0.5 -0.36 0  -0.5 -0.34 0  -0.4 -0.34 0  -0.3 -0.34 0  -0.2 -0.34 0  -0.09999999999999998 -0.34 0  0 -0.34 0  0.09999999999999998 -0.34 0  0.2 -0.34 0  0.3 -0.34 0  0.4 -0.34 0  0.5 -0.34 0  -0.5 -0.32 0  -0.4 -0.32 0  -0.3 -0.32 0  -0.2 -0.32 0  -0.09999999999999998 -0.32 0  0 -0.32 0  0.09999999999999998 -0.32 0  0.2 -0.32 0  0.3 -0.32 0  0.4 -0.32 0  0.5 -0.32 0  -0.5 -0.3 0  -0.4 -0.3 0  -0.3 -0.3 0  -0.2 -0.3 0  -0.09999999999999998 -0.3 0  0 -0.3 0  0.09999999999999998 -0.3 0  0.2 -0.3 0  0.3 -0.3 0  0.4 -0.3 0  0.5 -0.3 0  -0.5 -0.28 0  -0.4 -0.28 0  -0.3 -0.28 0  -0.2 -0.28 0  -0.09999999999999998 -0.28 0  0 -0.28 0  0.09999999999999998 -0.28 0  0.2 -0.28 0  0.3 -0.28 0  0.4 -0.28 0  0.5 -0.28 0  -0.5 -0.26 0  -0.4 -0.26 0  -0.3 -0.26 0  -0.2 -0.26 0  -0.09999999999999998 -0.26 0  0 -0.26 0  0.09999999999999998 -0.26 0  0.2 -0.26 0  0.3 -0.26 0  0.4 -0.26 0  0.5 -0.26 0  -0.5 -0.24 0  -0.4 -0.24 0  -0.3 -0.24 0  -0.2 -0.24 0  -0.09999999999999998 -0.24 0  0 -0.24 0  0.09999999999999998 -0.24 0  0.2 -0.24 0  0.3 -0.24 0  0.4 -0.24 0  0.5 -0.24 0  -0.5 -0.22 0  -0.4 -0.22 0  -0.3 -0.22 0  -0.2 -0.22 0  -0.09999999999999998 -0.22 0  0 -0.22 0  0.09999999999999998 -0.22 0  0.2 -0.22 0  0.3 -0.22 0  0.4 -0.22 0  0.5 -0.22 0  -0.5 -0.2 0  -0.4 -0.2 0  -0.3 -0.2 0  -0.2 -0.2 0  -0.09999999999999998 -0.2 0  0 -0.2 0  0.09999999999999998 -0.2 0  0.2 -0.2 0  0.3 -0.2 0  0.4 -0.2 0  0.5 -0.2 0  -0.5 -0.18 0  -0.4 -0.18 0  -0.3 -0.18 0  -0.2 -0.18 0  -0.09999999999999998 -0.18 0  0 -0.18 0  0.09999999999999998 -0.18 0  0.2 -0.18 0  0.3 -0.18 0  0.4 -0.18 0  0.5 -0.18 0  -0.5 -0.16 0  -0.4 -0.16 0  -0.3 -0.16 0  -0.2 -0.16 0  -0.09999999999999998 -0.16 0  0 -0.16 0  0.09999999999999998 -0.16 0  0.2 -0.16 0  0.3 -0.16 0  0.4 -0.16 0  0.5 -0.16 0  -0.5 -0.14 0  -0.4 -0.14 0  -0.3 -0.14 0  -0.2 -0.14 0  -0.09999999999999998 -0.14 0  0 -0.14 0  0.09999999999999998 -0.14 0  0.2 -0.14 0  0.3 -0.14 0  0.4 -0.14 0  0.5 -0.14 0  -0.5 -0.12 0  -0.4 -0.12 0  -0.3 -0.12 0  -0.2 -0.12 0  -0.09999999999999998 -0.12 0  0 -0.12 0  0.09999999999999998 -0.12 0  0.2 -0.12 0  0.3 -0.12 0  0.4 -0.12 0  0.5 -0.12 0  -0.5 -0.09999999999999998 0  -0.4 -0.09999999999999998 0  -0.3 -0.09999999999999998 0  -0.2 -0.09999999999999998 0  -0.09999999999999998 -0.09999999999999998 0  0 -0.09999999999999998 0  0.09999999999999998 -0.09999999999999998 0  0.2 -0.09999999999999998 0  0.3 -0.09999999999999998 0  0.4 -0.09999999999999998 0  0.5 -0.09999999999999998 0  -0.5 -0.07999999999999996 0  -0.4 -0.07999999999999996 0  -0.3 -0.07999999999999996 0  -0.2 -0.07999999999999996 0  -0.09999999999999998 -0.07999999999999996 0  0 -0.07999999999999996 0  0.09999999999999998 -0.07999999999999996 0  0.2 -0.07999999999999996 0  0.3 -0.07999999999999996 0  0.4 -0.07999999999999996 0  0.5 -0.07999999999999996 0  -0.5 -0.06000000000000005 0  -0.4 -0.06000000000000005 0  -0.3 -0.06000000000000005 0  -0.2 -0.06000000000000005 0  -0.09999999
[...]
<PointData  Vectors="displacement"> 
<DataArray  type="Float64"  Name="displacement"  NumberOfComponents="3" format="ascii">-1.2695338988880697e-33 -1.9852334701272645e-19 0.0000000000000000e+00  8.4635593259204615e-34 9.9261673506363213e-20 0.0000000000000000e+00  2.6007812511943085e-34 -1.1686511091725734e-19 0.0000000000000000e+00  4.5138983071575806e-33 -7.9409338805090597e-20 0.0000000000000000e+00  -3.3765535575485528e-33 -1.1835653934713341e-19 0.0000000000000000e+00  -2.5390677977761383e-33 -1.0918784085699953e-19 0.0000000000000000e+00  1.7208135270084380e-33 1.4694895893747202e-19 0.0000000000000000e+00  5.6423728839469741e-34 -1.4889251025954481e-19 0.0000000000000000e+00  -1.3853086122279135e-35 -2.4815418376590804e-21 0.0000000000000000e+00  0.0000000000000000e+00 1.1911400820763589e-19 0.0000000000000000e+00  0.0000000000000000e+00 -1.1911400820763584e-19 0.0000000000000000e+00  -1.6927118651840926e-33 -8.0788422921084185e-04 0.0000000000000000e+00  -2.3081842204164818e-17 -8.0788422921085161e-04 0.0000000000000000e+00  -3.1248931466969977e-17 -8.0788422921085638e-04 0.0000000000000000e+00  -3.5888304510214228e-17 -8.0788422921086061e-04 0.0000000000000000e+00  -3.6872964157121805e-17 -8.0788422921087243e-04 0.0000000000000000e+00  -3.7772604155052004e-17 -8.0788422921088078e-04 0.0000000000000000e+00  -3.2711515787610115e-17 -8.0788422921088847e-04 0.0000000000000000e+00  -1.3736430987700767e-17 -8.0788422921087611e-04 0.0000000000000000e+00  -1.0931782392625827e-17 -8.0788422921085400e-04 0.0000000000000000e+00  -1.2823818628605650e-17 -8.0788422921085226e-04 0.0000000000000000e+00  2.3274421568118497e-33 -8.0788422921085009e-04 0.0000000000000000e+00  -5.7449188664287145e-33 -1.6164348503119191e-03 0.0000000000000000e+00  -4.2136568222430110e-17 -1.6164348503119386e-03 0.0000000000000000e+00  -5.9981034611815947e-17 -1.6164348503119506e-03 0.0000000000000000e+00  -6.9125869024812089e-17 -1.6164348503119584e-03 0.0000000000000000e+00  -7.1462376841201412e-17 -1.6164348503119831e-03 0.0000000000000000e+00  -7.2266884484481957e-17 -1.6164348503119998e-03 0.0000000000000000e+00  -6.0968367116556795e-17 -1.6164348503120154e-03 0.0000000000000000e+00  -2.9782872255808601e-17 -1.6164348503119933e-03 0.0000000000000000e+00  -2.1999534186584669e-17 -1.6164348503119460e-03 0.0000000000000000e+00  -2.2703197098033323e-17 -1.6164348503119417e-03 0.0000000000000000e+00  -4.0302663456764080e-34 -1.6164348503119414e-03 0.0000000000000000e+00  5.6423728839469855e-33 -2.4263176201297881e-03 0.0000000000000000e+00  -5.7923255230405174e-17 -2.4263176201298202e-03 0.0000000000000000e+00  -8.5074193938490712e-17 -2.4263176201298363e-03 0.0000000000000000e+00  -9.9152592675644116e-17 -2.4263176201298488e-03 0.0000000000000000e+00  -1.0340518493640797e-16 -2.4263176201298896e-03 0.0000000000000000e+00  -1.0375646838769965e-16 -2.4263176201299130e-03 0.0000000000000000e+00  -8.7411275931429929e-17 -2.4263176201299395e-03 0.0000000000000000e+00  -4.6689735633654851e-17 -2.4263176201299048e-03 0.0000000000000000e+00  -3.4059797014377552e-17 -2.4263176201298324e-03 0.0000000000000000e+00  -3.0618826899395660e-17 -2.4263176201298267e-03 0.0000000000000000e+00  -2.2569491535787930e-33 -2.4263176201298254e-03 0.0000000000000000e+00  -1.9819909153231391e-32 -3.2381970257899079e-03 0.0000000000000000e+00  -7.1377804330737534e-17 -3.2381970257899504e-03 0.0000000000000000e+00  -1.0702748307250134e-16 -3.2381970257899747e-03 0.0000000000000000e+00  -1.2693229013846913e-16 -3.2381970257899903e-03 0.0000000000000000e+00  -1.3368116924487603e-16 -3.2381970257900411e-03 0.0000000000000000e+00  -1.3253734298173232e-16 -3.2381970257900827e-03 0.0000000000000000e+00  -1.1067802358492621e-16 -3.2381970257901178e-03 0.0000000000000000e+00  -6.4244626887959015e-17 -3.2381970257900675e-03 0.0000000000000000e+00  -4.6208012697305172e-17 -3.2381970257899704e-03 0.0000000000000000e+00  -3.7777536912228467e-17 -3.2381970257899565e-03 0.0000000000000000e+00  7.9966819246679247e-33 -3.2381970257899647e-03 0.0000000000000000e+00  4.5138983071575806e-33 -4.0527356509331555e-03 0.0000000000000000e+00  -8.3180951740753196e-17 -4.0527356509332101e-03 0.0000000000000000e+00  -1.2707563915373973e-16 -4.0527356509332431e-03 0.0000000000000000e+00  -1.5273691606913197e-16 -4.0527356509332552e-03 0.0000000000000000e+00  -1.6284840447499282e-16 -4.0527356509333246e-03 0.0000000000000000e+00  -1.5724383826706070e-16 -4.0527356509333775e-03 0.0000000000000000e+00  -1.3253572563190535e-16 -4.0527356509334278e-03 0.0000000000000000e+00  -8.2280686390934083e-17 -4.0527356509333619e-03 0.0000000000000000e+00  -5.7873226718620814e-17 -4.0527356509332353e-03 0.0000000000000000e+00  -4.3646176640845397e-17 -4.0527356509332249e-03 0.0000000000000000e+00  -1.3630384199897854e-33 -4.0527356509332318e-03 0.0000000000000000e+00  -1.8083056823639439e-32 -4.8705935432165172e-03 0.0000000000000000e+00  -9.3276685740650141e-17 -4.8705935432165901e-03 0.0000000000000000e+00  -1.4493246279927770e-16 -4.8705935432166222e-03 0.0000000000000000e+00  -1.7625996808024904e-16 -4.8705935432166491e-03 0.0000000000000000e+00  -1.8885891352308194e-16 -4.8705935432167315e-03 0.0000000000000000e+00  -1.8149592852382550e-16 -4.8705935432167983e-03 0.0000000000000000e+00  -1.5220471790799985e-16 -4.8705935432168555e-03 0.0000000000000000e+00  -9.9938261696554568e-17 -4.8705935432167722e-03 0.0000000000000000e+00  -6.8420492569373743e-17 -4.8705935432166282e-03 0.0000000000000000e+00  -4.6627104408152012e-17 -4.8705935432166092e-03 0.0000000000000000e+00  4.0302663456764120e-35 -4.8705935432166196e-03 0.0000000000000000e+00  -1.1284745767893952e-32 -5.6924275835324384e-03 0.0000000000000000e+00  -1.0299068080205549e-16 -5.6924275835325252e-03 0.0000000000000000e+00  -1.6059031049979299e-16 -5.6924275835325581e-03 0.0000000000000000e+00  -1.9630949411997719e-16 -5.6924275835325989e-03 0.0000000000000000e+00  -2.1400462303760302e-16 -5.6924275835326960e-03 0.0000000000000000e+00  -2.0396852109160473e-16 -5.6924275835327741e-03 0.0000000000000000e+00  -1.7050339400611059e-16 -5.6924275835328365e-03 0.0000000000000000e+00  -1.1528027758836713e-16 -5.6924275835327446e-03 0.0000000000000000e+00  -7.8231096267398479e-17 -5.6924275835325685e-03 0.0000000000000000e+00  -5.1160784475509097e-17 -5.6924275835325468e-03 0.0000000000000000e+00  -5.6423728839469749e-34 -5.6924275835325598e-03 0.0000000000000000e+00  -5.3279374317685530e-33 -6.5188908573862647e-03 0.0000000000000000e+00  -1.1276480925297984e-16 -6.5188908573863566e-03 0.0000000000000000e+00  -1.7360850636381224e-16 -6.5188908573863974e-03 0.0000000000000000e+00  -2.1326626179997279e-16 -6.5188908573864269e-03 0.0000000000000000e+00  -2.3643951862959250e-16 -6.5188908573865553e-03 0.0000000000000000e+00  -2.2500825420253400e-16 -6.5188908573866455e-03 0.0000000000000000e+00  -1.8571569983376677e-16 -6.5188908573867140e-03 0.0000000000000000e+00  -1.2863738659420879e-16 -6.5188908573866012e-03 0.0000000000000000e+00  -8.8030771751149424e-17 -6.5188908573864113e-03 0.0000000000000000e+00  -5.6422850801808829e-17 -6.5188908573863835e-03 0.0000000000000000e+00  7.0281376205852466e-33 -6.5188908573863991e-03 0.0000000000000000e+00  -1.4670169498262200e-32 -7.3506320288779349e-03 0.0000000000000000e+00  -1.1986343175735346e-16 -7.3506320288780468e-03 0.0000000000000000e+00  -1.8490495027104595e-16 -7.3506320288780885e-03 0.0000000000000000e+00  -2.2774598770676240e-16 -7.3506320288781327e-03 0.0000000000000000e+00  -2.5649621550426924e-16 -7.3506320288782741e-03 0.0000000000000000e+00  -2.4450543735614114e-16 -7.3506320288783816e-03 0.0000000000000000e+00  -1.9994331523698880e-16 -7.3506320288784528e-03 0.0000000000000000e+00  -1.4066443667427645e-16 -7.3506320288783339e-03 0.0000000000000000e+00  -9.7248370625767512e-17 -7.3506320288781093e-03 0.0000000000000000e+00  -6.2780658693821812e-17 -7.3506320288780746e-03 0.0000000000000000e+00  -3.6020622378841517e-33 -7.3506320288780963e-03 0.0000000000000000e+00  9.0583524915131318e-33 -8.1882947177416201e-03 0.0000000000000000e+00  -1.2575893453915719e-16 -8.1882947177417398e-03 0.0000000000000000e+00  -1.9477946417597180e-16 -8.1882947177418022e-03 0.0000000000000000e+00  -2.4265572354705578e-16 -8.1882947177418335e-03 0.0000000000000000e+00  -2.7332238719826281e-16 -8.1882947177420087e-03 0.0000000000000000e+00  -2.6503233955202168e-16 -8.1882947177421249e-03 0.0000000000000000e+00  -2.1489441301627196e-16 -8.1882947177422030e-03 0.0000000000000000e+00  -1.4896726527233106e-16 -8.1882947177420503e-03 0.0000000000000000e+00  -1.0592441214493860e-16 -8.1882947177418196e-03 0.0000000000000000e+00  -6.6423494591312750e-17 -8.1882947177417797e-03 0.0000000000000000e+00  -2.4987651343193746e-33 -8.1882947177418005e-03 0.0000000000000000e+00  0.0000000000000000e+00 -9.0325168799052103e-03 0.0000000000000000e+00  -1.2908742701867387e-16 -9.0325168799053474e-03 0.0000000000000000e+00  -2.0329441342956629e-16 -9.0325168799054115e-03 0.0000000000000000e+00  -2.5537320122754228e-16 -9.0325168799054462e-03 0.0000000000000000e+00  -2.8742683103330296e-16 -9.0325168799056423e-03 0.0000000000000000e+00  -2.8406389681062546e-16 -9.0325168799057793e-03 0.0000000000000000e+00  -2.2857316902617479e-16 -9.0325168799058747e-03 0.0000000000000000e+00  -1.5615935192193826e-16 -9.0325168799056856e-03 0.0000000000000000e+00  -1.1202480111760123e-16 -9.0325168799054376e-03 0.0000000000000000e+00  -6.9850672209101174e-17 -9.0325168799053768e-03 0.0000000000000000e+00  3.3854237303681853e-33 -9.0325168799054185e-03 0.0000000000000000e+00  5.9278401764062898e-33 -9.8839301920416369e-03 0.0000000000000000e+00  -1.3291400714457822e-16 -9.8839301920417948e-03 0.0000000000000000e+00  -2.1051216338280835e-16 -9.8839301920418694e-03 0.0000000000000000e+00  -2.6507068585414354e-16 -9.8839301920419058e-03 0.0000000000000000e+00  -2.9917074633380789e-16 -9.8839301920421261e-03 0.0000000000000000e+00  -2.9999334756271879e-16 -9.8839301920422840e-03 0.0000000000000000e+00  -2.4152229608521964e-16 -9.8839301920423776e-03 0.0000000000000000e+00  -1.6391831064138074e-16 -9.8839301920421625e-03 0.0000000000000000e+00  -1.1698076767535738e-16 -9.8839301920418798e-03 0.0000000000000000e+00  -7.3728292835246808e-17 -9.8839301920418329e-03 0.0000000000000000e+00  9.2878835317082072e-33 -9.8839301920418659e-03 0.0000000000000000e+00  -6.7708474607363706e-33 -1.0743159440593725e-02 0.0000000000000000e+00  -1.3655668944682337e-16 -1.0743159440593890e-02 0.0000000000000000e+00  -2.1678196000117776e-16 -1.0743159440593989e-02 0.0000000000000000e+00  -2.7329693933466962e-16 -1.0743159440594018e-02 0.0000000000000000e+00  -3.0909840083499786e-16 -1.0743159440594247e-02 0.0000000000000000e+00  -3.1365613852107533e-16 -1.0743159440594443e-02 0.0000000000000000e+00  -2.5286382359321767e-16 -1.0743159440594554e-02 0.0000000000000000e+00  -1.7201279790955782e-16 -1.0743159440594294e-02 0.0000000000000000e+00  -1.2114333003363412e-16 -1.0743159440593997e-02 0.0000000000000000e+00  -7.6937292919715903e-17 -1.0743159440593938e-02 0.0000000000000000e+00  -3.6412168435026568e-33 -1.0743159440593977e-02 0.0000000000000000e+00  1.1379269645390000e-32 -1.1610821915765367e-02 0.0000000000000000e+00  -1.3896217140602931e-16 -1.1610821915765566e-02 0.0000000000000000e+00  -2.2240298374508336e-16 -1.1610821915765642e-02 0.0000000000000000e+00  -2.7997677623007772e-16 -1.1610821915765708e-02 0.0000000000000000e+00  -3.1777456283783890e-16 -1.1610821915765950e-02 0.0000000000000000e+00  -3.2278003940235290e-16 -1.1610821915766177e-02 0.0000000000000000e+00  -2.6356428861516420e-16 -1.1610821915766267e-02 0.0000000000000000e+00  -1.7980874869242443e-16 -1.1610821915765989e-02 0.0000000000000000e+00  -1.2422875175436579e-16 -1.1610821915765658e-02 0.0000000000000000e+00  -8.0713930595403040e-17 -1.1610821915765601e-02 0.0000000000000000e+00  1.9990121074554997e-32 -1.1610821915765632e-02 0.0000000000000000e+00  0.0000000000000000e+00 -1.2487526810983288e-02 0.0000000000000000e+00  -1.4229929142566480e-16 -1.2487526810983494e-02 0.0000000000000000e+00  -2.2735912352712699e-16 -1.2487526810983607e-02 0.0000000000000000e+00  -2.8414937859621660e-16 -1.2487526810983656e-02 0.0000000000000000e+00  -3.2453173932700334e-16 -1.2487526810983918e-02 0.0000000000000000e+00  -3.3003139571408242e-16 -1.2487526810984159e-02 0.0000000000000000e+00  -2.7373399851472054e-16 -1.2487526810984273e-02 0.0000000000000000e+00  -1.8772393028071184e-16 -1.2487526810983951e-02 0.0000000000000000e+00  -1.2878860746061518e-16 -1.2487526810983592e-02 0.0000000000000000e+00  -8.2434716708677471e-17 -1.2487526810983522e-02 0.0000000000000000e+00  4.5138983071575799e-33 -1.2487526810983571e-02 0.0000000000000000e+00  1.8337632234233347e-32 -1.3373874628345059e-02 0.0000000000000000e+00  -1.4464561249593640e-16 -1.3373874628345293e-02 0.0000000000000000e+00  -2.3106076696332842e-16 -1.3373874628345406e-02 0.0000000000000000e+00  -2.8743318533231164e-16 -1.3373874628345495e-02 0.0000000000000000e+00  -3.2926382850499040e-16 -1.3373874628345744e-02 0.0000000000000000e+00  -3.3763801728647765e-16 -1.3373874628346015e-02 0.0000000000000000e+00  -2.8409679026723586e-16 -1.3373874628346126e-02 0.0000000000000000e+00  -1.9518237126356919e-16 -1.3373874628345765e-02 0.0000000000000000e+00  -1.3291199658280867e-16 -1.3373874628345385e-02 0.0000000000000000e+00  -8.2789750888767507e-17 -1.3373874628345318e-02 0.0000000000000000e+00  -3.1624136362415522e-33 -1.3373874628345363e-02 0.0000000000000000e+00  -1.3541694921472799e-32 -1.4270456590581350e-02 0.0000000000000000e+00  -1.4676284846105413e-16 -1.4270456590581605e-02 0.0000000000000000e+00  -2.3383680464875697e-16 -1.4270456590581725e-02 0.0000000000000000e+00  -2.8860503648627422e-16 -1.4270456590581806e-02 0.0000000000000000e+00  -3.3241492149241865e-16 -1.4270456590582105e-02 0.0000000000000000e+00  -3.4419021436013504e-16 -1.4270456590582377e-02 0.0000000000000000e+00  -2.9586122504188187e-16 -1.4270456590582513e-02 0.0000000000000000e+00  -2.0320449484802978e-16 -1.4270456590582103e-02 0.0000000000000000e+00  -1.3759459501877523e-16 -1.4270456590581676e-02 0.0000000000000000e+00  -8.2576361885567450e-17 -1.4270456590581617e-02 0.0000000000000000e+00  1.2676502757278666e-32 -1.4270456590581675e-02 0.0000000000000000e+00  -1.5912806127047409e-32 -1.5177854060071747e-02 0.0000000000000000e+00  -1.4660358315129887e-16 -1.5177854060072007e-02 0.0000000000000000e+00  -2.3436067359697686e-16 -1.5177854060072143e-02 0.0000000000000000e+00  -2.8643472440378064e-16 -1.5177854060072254e-02 0.0000000000000000e+00  -3.3486035785375621e-16 -1.5177854060072537e-02 0.0000000000000000e+00  -3.4955469124772125e-16 -1.5177854060072849e-02 0.0000000000000000e+00  -3.0492254793376091e-16 -1.5177854060072944e-02 0.0000000000000000e+00  -2.1417956392517935e-16 -1.5177854060072542e-02 0.0000000000000000e+00  -1.3973707368649013e-16 -1.5177854060072089e-02 0.0000000000000000e+00  -8.2903524792070854e-17 -1.5177854060072027e-02 0.0000000000000000e+00  1.5959854728878606e-32 -1.5177854060072059e-02 0.0000000000000000e+00  2.2569491535787903e-33 -1.6096637965465760e-02 0.0000000000000000e+00  -1.4949290856766526e-16 -1.6096637965466041e-02 0.0000000000000000e+00  -2.3176627499627238e-16 -1.6096637965466159e-02 0.0000000000000000e+00  -2.8316810431202668e-16 -1.6096637965466294e-02 0.0000000000000000e+00  -3.3487698861401698e-16 -1.6096637965466638e-02 0.0000000000000000e+00  -3.5448273950817426e-16 -1.6096637965466926e-02 0.0000000000000000e+00  -3.1366448135191036e-16 -1.6096637965467057e-02 0.0000000000000000e+00  -2.2365067101858028e-16 -1.6096637965466593e-02 0.0000000000000000e+00  -1.4528632163945435e-16 -1.6096637965466107e-02 0.0000000000000000e+00  -8.5525572454436999e-17 -1.6096637965466044e-02 0.0000000000000000e+00  -2.2569491535787900e-33 -1.6096637965466089e-02 0.0000000000000000e+00  -2.2147438087194742e-32 -1.7027368236471527e-02 0.0000000000000000e+00  -1.5157852729679496e-16 -1.7027368236471808e-02 0.0000000000000000e+00  -2.2677704691799376e-16 -1.7027368236471961e-02 0.0000000000000000e+00  -2.7874709292420071e-16 -1.7027368236472083e-02 0.0000000000000000e+00  -3.3430946392011179e-16 -1.7027368236472447e-02 0.0000000000000000e+00  -3.5732693689599390e-16 -1.7027368236472763e-02 0.0000000000000000e+00  -3.2189873969851659e-16 -1.7027368236472887e-02 0.0000000000000000e+00  -2.3198932076761552e-16 -1.7027368236472395e-02 0.0000000000000000e+00  -1.5205088337558563e-16 -1.7027368236471874e-02 0.0000000000000000e+00  -8.7410458180256998e-17 -1.7027368236471815e-02 0.0000000000000000e+00  -1.7097937103578411e-32 -1.7027368236471878e-02 0.0000000000000000e+00  -1.1284745767893971e-32 -1.7970593247385782e-02 0.0000000000000000e+00  -1.5109342777827804e-16 -1.7970593247386080e-02 0.0000000000000000e+00  -2.2484787872772684e-16 -1.7970593247386223e-02 0.0000000000000000e+00  -2.7515308860495203e-16 -1.7970593247386358e-02 0.0000000000000000e+00  -3.3115169831556943e-16 -1.7970593247386750e-02 0.0000000000000000e+00  -3.5712409786085355e-16 -1.7970593247387055e-02 0.0000000000000000e+00  -3.2780060012299284e-16 -1.7970593247387198e-02 0.0000000000000000e+00  -2.4492588376398874e-16 -1.7970593247386677e-02 0.0000000000000000e+00  -1.5893725243784775e-16 -1.7970593247386112e-02 0.0000000000000000e+00  -8.9063956214932879e-17 -1.7970593247386077e-02 0.0000000000000000e+00  1.8190102399375451e-32 -1.7970593247386139e-02 0.0000000000000000e+00  -1.1316488060682973e-32 -1.8926849269948840e-02 0.0000000000000000e+00  -1.5015636471956850e-16 -1.8926849269949184e-02 0.0000000000000000e+00  -2.2368746708285021e-16 -1.8926849269949312e-02 0.0000000000000000e+00  -2.7253682093528327e-16 -1.8926849269949423e-02 0.0000000000000000e+00  -3.2587179518993525e-16 -1.8926849269949853e-02 0.0000000000000000e+00  -3.5583415212505244e-16 -1.8926849269950176e-02 0.0000000000000000e+00  -3.3221606697226889e-16 -1.8926849269950339e-02 0.0000000000000000e+00  -2.5283314977840486e-16 -1.8926849269949763e-02 0.0000000000000000e+00  -1.6368039337649665e-16 -1.8926849269949194e-02 0.0000000000000000e+00  -9.0356879964353851e-17 -1.8926849269949138e-02 0.0000000000000000e+00  1.1526561748634533e-32 -1.8926849269949180e-02 0.0000000000000000e+00  -4.5138983071575806e-33 -1.9896659936117448e-02 0.0000000000000000e+00  -1.5104828524701670e-16 -1.9896659936117771e-02 0.0000000000000000e+00  -2.2538006305607655e-16 -1.9896659936117937e-02 0.0000000000000000e+00  -2.6786500894675997e-16 -1.9896659936118041e-02 0.0000000000000000e+00  -3.1651328023950043e-16 -1.9896659936118506e-02 0.0000000000000000e+00  -3.5201530618818063e-16 -1.9896659936118836e-02 0.0000000000000000e+00  -3.3471120072266606e-16 -1.9896659936118957e-02 0.0000000000000000e+00  -2.5659497537252742e-16 -1.9896659936118399e-02 0.0000000000000000e+00  -1.6763806343013963e-16 -1.9896659936117791e-02 0.0000000000000000e+00  -9.7729560928205375e-17 -1.9896659936117726e-02 0.0000000000000000e+00  -3.3854237303681853e-33 -1.9896659936117767e-02 0.0000000000000000e+00  -6.1580048010704289e-33 -2.0880535711356514e-02 0.0000000000000000e+00  -1.5268238327418852e-16 -2.0880535711356847e-02 0.0000000000000000e+00  -2.2715539671393079e-16 -2.0880535711357000e-02 0.0000000000000000e+00  -2.6212608185752653e-16 -2.0880535711357121e-02 0.0000000000000000e+00  -3.0640512704731096e-16 -2.0880535711357600e-02 0.0000000000000000e+00  -3.4796583394739195e-16 -2.0880535711357926e-02 0.0000000000000000e+00  -3.3587341552508411e-16 -2.0880535711358075e-02 0.0000000000000000e+00  -2.5679867095575926e-16 -2.0880535711357482e-02 0.0000000000000000e+00  -1.7374155244589960e-16 -2.0880535711356847e-02 0.0000000000000000e+00  -1.0374040561465143e-16 -2.0880535711356778e-02 0.0000000000000000e+00  7.4910888116685078e-33 -2.0880535711356830e-02 0.0000000000000000e+00  -9.0277966143151612e-33 -2.1878973379058069e-02 0.0000000000000000e+00  -1.5424630653356724e-16 -2.187897337