<?xml version="1.0"?>
<VTKFile type="UnstructuredGrid"  version="0.1"  >
<UnstructuredGrid>
<Piece  NumberOfPoints="1091" NumberOfCells="2050">
<Points>
<DataArray  type="Float64"  NumberOfComponents="3"  format="ascii">-0.5 -1 0  -0.4 -1 0  -0.3 -1 0  -0.2 -1 0  -0.09999999999999998 -1 0  0 -1 0  0.09999999999999998 -1 0  0.2 -1 0  0.3 -1 0  0.4 -1 0  0.5 -1 0  -0.5 -0.98 0  -0.4 -0.98 0  -0.3 -0.98 0  -0.2 -0.98 0  -0.09999999999999998 -0.98 0  0 -0.98 0  0.09999999999999998 -0.98 0  0.2 -0.98 0  0.3 -0.98 0  0.4 -0.98 0  0.5 -0.98 0  -0.5 -0.96 0  -0.4 -0.96 0  -0.3 -0.96 0  -0.2 -0.96 0  -0.09999999999999998 -0.96 0  0 -0.96 0  0.09999999999999998 -0.96 0  0.2 -0.96 0  0.3 -0.96 0  0.4 -0.96 0  0.5 -0.96 0  -0.5 -0.9399999999999999 0  -0.4 -0.9399999999999999 0  -0.3 -0.9399999999999999 0  -0.2 -0.9399999999999999 0  -0.09999999999999998 -0.9399999999999999 0  0 -0.9399999999999999 0  0.09999999999999998 -0.9399999999999999 0  0.2 -0.9399999999999999 0  0.3 -0.9399999999999999 0  0.4 -0.9399999999999999 0  0.5 -0.9399999999999999 0  -0.5 -0.92 0  -0.4 -0.92 0  -0.3 -0.92 0  -0.2 -0.92 0  -0.09999999999999998 -0.92 0  0 -0.92 0  0.09999999999999998 -0.92 0  0.2 -0.92 0  0.3 -0.92 0  0.4 -0.92 0  0.5 -0.92 0  -0.5 -0.9 0  -0.4 -0.9 0  -0.3 -0.9 0  -0.2 -0.9 0  -0.09999999999999998 -0.9 0  0 -0.9 0  0.09999999999999998 -0.9 0  0.2 -0.9 0  0.3 -0.9 0  0.4 -0.9 0  0.5 -0.9 0  -0.5 -0.88 0  -0.4 -0.88 0  -0.3 -0.88 0  -0.2 -0.88 0  -0.09999999999999998 -0.88 0  0 -0.88 0  0.09999999999999998 -0.88 0  0.2 -0.88 0  0.3 -0.88 0  0.4 -0.88 0  0.5 -0.88 0  -0.5 -0.86 0  -0.4 -0.86 0  -0.3 -0.86 0  -0.2 -0.86 0  -0.09999999999999998 -0.86 0  0 -0.86 0  0.09999999999999998 -0.86 0  0.2 -0.86 0  0.3 -0.86 0  0.4 -0.86 0  0.5 -0.86 0  -0.5 -0.84 0  -0.4 -0.84 0  -0.3 -0.84 0  -0.2 -0.84 0  -0.09999999999999998 -0.84 0  0 -0.84 0  0.09999999999999998 -0.84 0  0.2 -0.84 0  0.3 -0.84 0  0.4 -0.84 0  0.5 -0.84 0  -0.5 -0.8200000000000001 0  -0.4 -0.8200000000000001 0  -0.3 -0.8200000000000001 0  -0.2 -0.8200000000000001 0  -0.09999999999999998 -0.8200000000000001 0  0 -0.8200000000000001 0  0.09999999999999998 -0.8200000000000001 0  0.2 -0.8200000000000001 0  0.3 -0.8200000000000001 0  0.4 -0.8200000000000001 0  0.5 -0.8200000000000001 0  -0.5 -0.8 0  -0.4 -0.8 0  -0.3 -0.8 0  -0.2 -0.8 0  -0.09999999999999998 -0.8 0  0 -0.8 0  0.09999999999999998 -0.8 0  0.2 -0.8 0  0.3 -0.8 0  0.4 -0.8 0  0.5 -0.8 0  -0.5 -0.78 0  -0.4 -0.78 0  -0.3 -0.78 0  -0.2 -0.78 0  -0.09999999999999998 -0.78 0  0 -0.78 0  0.09999999999999998 -0.78 0  0.2 -0.78 0  0.3 -0.78 0  0.4 -0.78 0  0.5 -0.78 0  -0.5 -0.76 0  -0.4 -0.76 0  -0.3 -0.76 0  -0.2 -0.76 0  -0.09999999999999998 -0.76 0  0 -0.76 0  0.09999999999999998 -0.76 0  0.2 -0.76 0  0.3 -0.76 0  0.4 -0.76 0  0.5 -0.76 0  -0.5 -0.74 0  -0.4 -0.74 0  -0.3 -0.74 0  -0.2 -0.74 0  -0.09999999999999998 -0.74 0  0 -0.74 0  0.09999999999999998 -0.74 0  0.2 -0.74 0  0.3 -0.74 0  0.4 -0.74 0  0.5 -0.74 0  -0.5 -0.72 0  -0.4 -0.72 0  -0.3 -0.72 0  -0.2 -0.72 0  -0.09999999999999998 -0.72 0  0 -0.72 0  0.09999999999999998 -0.72 0  0.2 -0.72 0  0.3 -0.72 0  0.4 -0.72 0  0.5 -0.72 0  -0.5 -0.7 0  -0.4 -0.7 0  -0.3 -0.7 0  -0.2 -0.7 0  -0.09999999999999998 -0.7 0  0 -0.7 0  0.09999999999999998 -0.7 0  0.2 -0.7 0  0.3 -0.7 0  0.4 -0.7 0  0.5 -0.7 0  -0.5 -0.6799999999999999 0  -0.4 -0.6799999999999999 0  -0.3 -0.6799999999999999 0  -0.2 -0.6799999999999999 0  -0.09999999999999998 -0.6799999999999999 0  0 -0.6799999999999999 0  0.09999999999999998 -0.6799999999999999 0  0.2 -0.6799999999999999 0  0.3 -0.6799999999999999 0  0.4 -0.6799999999999999 0  0.5 -0.6799999999999999 0  -0.5 -0.6599999999999999 0  -0.4 -0.6599999999999999 0  -0.3 -0.6599999999999999 0  -0.2 -0.6599999999999999 0  -0.09999999999999998 -0.6599999999999999 0  0 -0.6599999999999999 0  0.09999999999999998 -0.6599999999999999 0  0.2 -0.6599999999999999 0  0.3 -0.6599999999999999 0  0.4 -0.6599999999999999 0  0.5 -0.6599999999999999 0  -0.5 -0.64 0  -0.4 -0.64 0  -0.3 -0.64 0  -0.2 -0.64 0  -0.09999999999999998 -0.64 0  0 -0.64 0  0.09999999999999998 -0.64 0  0.2 -0.64 0  0.3 -0.64 0  0.4 -0.64 0  0.5 -0.64 0  -0.5 -0.62 0  -0.4 -0.62 0  -0.3 -0.62 0  -0.2 -0.62 0  -0.09999999999999998 -0.62 0  0 -0.62 0  0.09999999999999998 -0.62 0  0.2 -0.62 0  0.3 -0.62 0  0.4 -0.62 0  0.5 -0.62 0  -0.5 -0.6 0  -0.4 -0.6 0  -0.3 -0.6 0  -0.2 -0.6 0  -0.09999999999999998 -0.6 0  0 -0.6 0  0.09999999999999998 -0.6 0  0.2 -0.6 0  0.3 -0.6 0  0.4 -0.6 0  0.5 -0.6 0  -0.5 -0.5800000000000001 0  -0.4 -0.5800000000000001 0  -0.3 -0.5800000000000001 0  -0.2 -0.5800000000000001 0  -0.09999999999999998 -0.5800000000000001 0  0 -0.5800000000000001 0  0.09999999999999998 -0.5800000000000001 0  0.2 -0.5800000000000001 0  0.3 -0.5800000000000001 0  0.4 -0.5800000000000001 0  0.5 -0.5800000000000001 0  -0.5 -0.5600000000000001 0  -0.4 -0.5600000000000001 0  -0.3 -0.5600000000000001 0  -0.2 -0.5600000000000001 0  -0.09999999999999998 -0.5600000000000001 0  0 -0.5600000000000001 0  0.09999999999999998 -0.5600000000000001 0  0.2 -0.5600000000000001 0  0.3 -0.5600000000000001 0  0.4 -0.5600000000000001 0  0.5 -0.5600000000000001 0  -0.5 -0.54 0  -0.4 -0.54 0  -0.3 -0.54 0  -0.2 -0.54 0  -0.09999999999999998 -0.54 0  0 -0.54 0  0.09999999999999998 -0.54 0  0.2 -0.54 0  0.3 -0.54 0  0.4 -0.54 0  0.5 -0.54 0  -0.5 -0.52 0  -0.4 -0.52 0  -0.3 -0.52 0  -0.2 -0.52 0  -0.09999999999999998 -0.52 0  0 -0.52 0  0.09999999999999998 -0.52 0  0.2 -0.52 0  0.3 -0.52 0  0.4 -0.52 0  0.5 -0.52 0  -0.5 -0.5 0  -0.4 -0.5 0  -0.3 -0.5 0  -0.2 -0.5 0  -0.09999999999999998 -0.5 0  0 -0.5 0  0.09999999999999998 -0.5 0  0.2 -0.5 0  0.3 -0.5 0  0.4 -0.5 0  0.5 -0.5 0  -0.5 -0.48 0  -0.4 -0.48 0  -0.3 -0.48 0  -0.2 -0.48 0  -0.09999999999999998 -0.48 0  0 -0.48 0  0.09999999999999998 -0.48 0  0.2 -0.48 0  0.3 -0.48 0  0.4 -0.48 0  0.5 -0.48 0  -0.5 -0.46 0  -0.4 -0.46 0  -0.3 -0.46 0  -0.2 -0.46 0  -0.09999999999999998 -0.46 0  0 -0.46 0  0.09999999999999998 -0.46 0  0.2 -0.46 0  0.3 -0.46 0  0.4 -0.46 0  0.5 -0.46 0  -0.5 -0.4399999999999999 0  -0.4 -0.4399999999999999 0  -0.3 -0.4399999999999999 0  -0.2 -0.4399999999999999 0  -0.09999999999999998 -0.4399999999999999 0  0 -0.4399999999999999 0  0.09999999999999998 -0.4399999999999999 0  0.2 -0.4399999999999999 0  0.3 -0.4399999999999999 0  0.4 -0.4399999999999999 0  0.5 -0.4399999999999999 0  -0.5 -0.42 0  -0.4 -0.42 0  -0.3 -0.42 0  -0.2 -0.42 0  -0.09999999999999998 -0.42 0  0 -0.42 0  0.09999999999999998 -0.42 0  0.2 -0.42 0  0.3 -0.42 0  0.4 -0.42 0  0.5 -0.42 0  -0.5 -0.4 0  -0.4 -0.4 0  -0.3 -0.4 0  -0.2 -0.4 0  -0.09999999999999998 -0.4 0  0 -0.4 0  0.09999999999999998 -0.4 0  0.2 -0.4 0  0.3 -0.4 0  0.4 -0.4 0  0.5 -0.4 0  -0.5 -0.38 0  -0.4 -0.38 0  -0.3 -0.38 0  -0.2 -0.38 0  -0.09999999999999998 -0.38 0  0 -0.38 0  0.09999999999999998 -0.38 0  0.2 -0.38 0  0.3 -0.38 0  0.4 -0.38 0  0.5 -0.38 0  -0.5 -0.36 0  -0.4 -0.36 0  -0.3 -0.36 0  -0.2 -0.36 0  -0.09999999999999998 -0.36 0  0 -0.36 0  0.09999999999999998 -0.36 0  0.2 -0.36 0  0.3 -0.36 0  0.4 -0.36 0  0.5 -0.36 0  -0.5 -0.34 0  -0.4 -0.34 0  -0.3 -0.34 0  -0.2 -0.34 0  -0.09999999999999998 -0.34 0  0 -0.34 0  0.09999999999999998 -0.34 0  0.2 -0.34 0  0.3 -0.34 0  0.4 -0.34 0  0.5 -0.34 0  -0.5 -0.32 0  -0.4 -0.32 0  -0.3 -0.32 0  -0.2 -0.32 0  -0.09999999999999998 -0.32 0  0 -0.32 0  0.09999999999999998 -0.32 0  0.2 -0.32 0  0.3 -0.32 0  0.4 -0.32 0  0.5 -0.32 0  -0.5 -0.3 0  -0.4 -0.3 0  -0.3 -0.3 0  -0.2 -0.3 0  -0.09999999999999998 -0.3 0  0 -0.3 0  0.09999999999999998 -0.3 0  0.2 -0.3 0  0.3 -0.3 0  0.4 -0.3 0  0.5 -0.3 0  -0.5 -0.28 0  -0.4 -0.28 0  -0.3 -0.28 0  -0.2 -0.28 0  -0.09999999999999998 -0.28 0  0 -0.28 0  0.09999999999999998 -0.28 0  0.2 -0.28 0  0.3 -0.28 0  0.4 -0.28 0  0.5 -0.28 0  -0.5 -0.26 0  -0.4 -0.26 0  -0.3 -0.26 0  -0.2 -0.26 0  -0.09999999999999998 -0.26 0  0 -0.26 0  0.09999999999999998 -0.26 0  0.2 -0.26 0  0.3 -0.26 0  0.4 -0.26 0  0.5 -0.26 0  -0.5 -0.24 0  -0.4 -0.24 0  -0.3 -0.24 0  -0.2 -0.24 0  -0.09999999999999998 -0.24 0  0 -0.24 0  0.09999999999999998 -0.24 0  0.2 -0.24 0  0.3 -0.24 0  0.4 -0.24 0  0.5 -0.24 0  -0.5 -0.22 0  -0.4 -0.22 0  -0.3 -0.22 0  -0.2 -0.22 0  -0.09999999999999998 -0.22 0  0 -0.22 0  0.09999999999999998 -0.22 0  0.2 -0.22 0  0.3 -0.22 0  0.4 -0.22 0  0.5 -0.22 0  -0.5 -0.2 0  -0.4 -0.2 0  -0.3 -0.2 0  -0.2 -0.2 0  -0.09999999999999998 -0.2 0  0 -0.2 0  0.09999999999999998 -0.2 0  0.2 -0.2 0  0.3 -0.2 0  0.4 -0.2 0  0.5 -0.2 0  -0.5 -0.18 0  -0.4 -0.18 0  -0.3 -0.18 0  -0.2 -0.18 0  -0.09999999999999998 -0.18 0  0 -0.18 0  0.09999999999999998 -0.18 0  0.2 -0.18 0  0.3 -0.18 0  0.4 -0.18 0  0.5 -0.18 0  -0.5 -0.16 0  -0.4 -0.16 0  -0.3 -0.16 0  -0.2 -0.16 0  -0.09999999999999998 -0.16 0  0 -0.16 0  0.09999999999999998 -0.16 0  0.2 -0.16 0  0.3 -0.16 0  0.4 -0.16 0  0.5 -0.16 0  -0.5 -0.14 0  -0.4 -0.14 0  -0.3 -0.14 0  -0.2 -0.14 0  -0.09999999999999998 -0.14 0  0 -0.14 0  0.09999999999999998 -0.14 0  0.2 -0.14 0  0.3 -0.14 0  0.4 -0.14 0  0.5 -0.14 0  -0.5 -0.12 0  -0.4 -0.12 0  -0.3 -0.12 0  -0.2 -0.12 0  -0.09999999999999998 -0.12 0  0 -0.12 0  0.09999999999999998 -0.12 0  0.2 -0.12 0  0.3 -0.12 0  0.4 -0.12 0  0.5 -0.12 0  -0.5 -0.09999999999999998 0  -0.4 -0.09999999999999998 0  -0.3 -0.09999999999999998 0  -0.2 -0.09999999999999998 0  -0.09999999999999998 -0.09999999999999998 0  0 -0.09999999999999998 0  0.09999999999999998 -0.09999999999999998 0  0.2 -0.09999999999999998 0  0.3 -0.09999999999999998 0  0.4 -0.09999999999999998 0  0.5 -0.09999999999999998 0  -0.5 -0.07999999999999996 0  -0.4 -0.07999999999999996 0  -0.3 -0.07999999999999996 0  -0.2 -0.07999999999999996 0  -0.09999999999999998 -0.07999999999999996 0  0 -0.07999999999999996 0  0.09999999999999998 -0.07999999999999996 0  0.2 -0.07999999999999996 0  0.3 -0.07999999999999996 0  0.4 -0.07999999999999996 0  0.5 -0.07999999999999996 0  -0.5 -0.06000000000000005 0  -0.4 -0.06000000000000005 0  -0.3 -0.06000000000000005 0  -0.2 -0.06000000000000005 0  -0.09999999
[...]
<PointData  Vectors="displacement"> 
<DataArray  type="Float64"  Name="displacement"  NumberOfComponents="3" format="ascii">7.0529661049336940e-35 -9.9261673506363231e-21 0.0000000000000000e+00  1.0579449157400577e-34 -2.9778502051908966e-20 0.0000000000000000e+00  -5.7966565174924001e-34 -2.3012423135166632e-20 0.0000000000000000e+00  4.2317796629602316e-33 -3.7223127564886215e-20 0.0000000000000000e+00  -1.1490381538672458e-33 -2.8607134757686881e-22 0.0000000000000000e+00  3.9496610187628819e-33 3.2260043889568043e-20 0.0000000000000000e+00  -3.9893339531031355e-33 -5.5497841429912718e-20 0.0000000000000000e+00  3.6675423745655329e-33 -2.7296960214249883e-20 0.0000000000000000e+00  -2.2680735095381049e-33 -8.0650109723920108e-21 0.0000000000000000e+00  1.1284745767893952e-33 -9.9261673506363246e-21 0.0000000000000000e+00  -4.2317796629602296e-33 2.9778502051908960e-20 0.0000000000000000e+00  -1.4105932209867440e-33 -2.7717265353417291e-04 0.0000000000000000e+00  -8.1032861279102826e-18 -2.7717265353417503e-04 0.0000000000000000e+00  3.7470438184375785e-18 -2.7717265353418007e-04 0.0000000000000000e+00  2.5879795501767044e-17 -2.7717265353418256e-04 0.0000000000000000e+00  3.3804231370026239e-17 -2.7717265353417720e-04 0.0000000000000000e+00  4.1214240786861577e-17 -2.7717265353417318e-04 0.0000000000000000e+00  4.5722330084059970e-17 -2.7717265353417259e-04 0.0000000000000000e+00  3.2262882801035902e-17 -2.7717265353416977e-04 0.0000000000000000e+00  2.7946292698614067e-17 -2.7717265353416923e-04 0.0000000000000000e+00  1.8141931648115630e-17 -2.7717265353416131e-04 0.0000000000000000e+00  1.8689911257717899e-33 -2.7717265353416814e-04 0.0000000000000000e+00  2.6886497819004460e-34 -5.5434530706834463e-04 0.0000000000000000e+00  -1.2831857604649444e-17 -5.5434530706835114e-04 0.0000000000000000e+00  8.2684209580385583e-18 -5.5434530706836209e-04 0.0000000000000000e+00  4.8178015388764140e-17 -5.5434530706836773e-04 0.0000000000000000e+00  6.5737237621377419e-17 -5.5434530706835645e-04 0.0000000000000000e+00  8.0218238465377922e-17 -5.5434530706834789e-04 0.0000000000000000e+00  8.6114076631077689e-17 -5.5434530706834583e-04 0.0000000000000000e+00  6.2209374131345955e-17 -5.5434530706833867e-04 0.0000000000000000e+00  5.3089742834353475e-17 -5.5434530706833921e-04 0.0000000000000000e+00  3.3847117510886600e-17 -5.5434530706832122e-04 0.0000000000000000e+00  -7.0529661049337196e-33 -5.5434530706833412e-04 0.0000000000000000e+00  -4.0907203408615639e-33 -8.3151796060251478e-04 0.0000000000000000e+00  -1.5797782603592522e-17 -8.3151796060252747e-04 0.0000000000000000e+00  1.3452480612452479e-17 -8.3151796060254417e-04 0.0000000000000000e+00  6.7628986601057782e-17 -8.3151796060255772e-04 0.0000000000000000e+00  9.5236596202391238e-17 -8.3151796060253755e-04 0.0000000000000000e+00  1.1715181357186020e-16 -8.3151796060252671e-04 0.0000000000000000e+00  1.2286805680772539e-16 -8.3151796060252096e-04 0.0000000000000000e+00  8.8600208347092928e-17 -8.3151796060250969e-04 0.0000000000000000e+00  7.5969312871912510e-17 -8.3151796060250774e-04 0.0000000000000000e+00  4.8064972453292960e-17 -8.3151796060247966e-04 0.0000000000000000e+00  1.1848983056288664e-32 -8.3151796060249841e-04 0.0000000000000000e+00  -2.5616455160378449e-33 -1.1086906141366836e-03 0.0000000000000000e+00  -1.7638124721911657e-17 -1.1086906141367005e-03 0.0000000000000000e+00  1.8731967584672128e-17 -1.1086906141367255e-03 0.0000000000000000e+00  8.4945664857402270e-17 -1.1086906141367463e-03 0.0000000000000000e+00  1.2258429446077278e-16 -1.1086906141367168e-03 0.0000000000000000e+00  1.5075934107176556e-16 -1.1086906141367062e-03 0.0000000000000000e+00  1.5679155023729917e-16 -1.1086906141367003e-03 0.0000000000000000e+00  1.1295612369221276e-16 -1.1086906141366802e-03 0.0000000000000000e+00  9.6439614899424034e-17 -1.1086906141366695e-03 0.0000000000000000e+00  6.0633480727888010e-17 -1.1086906141366364e-03 0.0000000000000000e+00  -1.5679414836438038e-32 -1.1086906141366630e-03 0.0000000000000000e+00  -1.9748305093814416e-33 -1.3858632676708562e-03 0.0000000000000000e+00  -1.8656313716609276e-17 -1.3858632676708785e-03 0.0000000000000000e+00  2.3657256471168020e-17 -1.3858632676709080e-03 0.0000000000000000e+00  1.0026121825668822e-16 -1.3858632676709364e-03 0.0000000000000000e+00  1.4748158199389676e-16 -1.3858632676708998e-03 0.0000000000000000e+00  1.8072023522039118e-16 -1.3858632676708919e-03 0.0000000000000000e+00  1.8696196743082015e-16 -1.3858632676708854e-03 0.0000000000000000e+00  1.3672927577394938e-16 -1.3858632676708570e-03 0.0000000000000000e+00  1.1590704421601133e-16 -1.3858632676708297e-03 0.0000000000000000e+00  7.1158479548582725e-17 -1.3858632676707902e-03 0.0000000000000000e+00  -1.6692093405897785e-33 -1.3858632676708254e-03 0.0000000000000000e+00  5.5050549089013952e-34 -1.6630359212050322e-03 0.0000000000000000e+00  -1.7947619171033777e-17 -1.6630359212050528e-03 0.0000000000000000e+00  2.7818885293808839e-17 -1.6630359212050914e-03 0.0000000000000000e+00  1.1319685658827755e-16 -1.6630359212051274e-03 0.0000000000000000e+00  1.7049855419501907e-16 -1.6630359212050836e-03 0.0000000000000000e+00  2.0872521572457603e-16 -1.6630359212050740e-03 0.0000000000000000e+00  2.1400462303760292e-16 -1.6630359212050699e-03 0.0000000000000000e+00  1.5971399369518438e-16 -1.6630359212050361e-03 0.0000000000000000e+00  1.3537948744606120e-16 -1.6630359212049892e-03 0.0000000000000000e+00  7.9377565969943300e-17 -1.6630359212049433e-03 0.0000000000000000e+00  -7.4156900760445953e-33 -1.6630359212049799e-03 0.0000000000000000e+00  5.6423728839469758e-34 -1.9402085747392028e-03 0.0000000000000000e+00  -1.7179842412836438e-17 -1.9402085747392238e-03 0.0000000000000000e+00  3.0456017514613114e-17 -1.9402085747392717e-03 0.0000000000000000e+00  1.2481385575825386e-16 -1.9402085747393222e-03 0.0000000000000000e+00  1.9112069691856801e-16 -1.9402085747392654e-03 0.0000000000000000e+00  2.3451699832332250e-16 -1.9402085747392559e-03 0.0000000000000000e+00  2.3870888250100860e-16 -1.9402085747392487e-03 0.0000000000000000e+00  1.8116078974330856e-16 -1.9402085747392136e-03 0.0000000000000000e+00  1.5459954738557316e-16 -1.9402085747391472e-03 0.0000000000000000e+00  8.4798162141365581e-17 -1.9402085747390919e-03 0.0000000000000000e+00  9.0277966143151599e-33 -1.9402085747391386e-03 0.0000000000000000e+00  -2.6639687158842765e-33 -2.2173812282733694e-03 0.0000000000000000e+00  -1.8284513349875801e-17 -2.2173812282733976e-03 0.0000000000000000e+00  3.1856221279804777e-17 -2.2173812282734631e-03 0.0000000000000000e+00  1.3548030277182032e-16 -2.2173812282735156e-03 0.0000000000000000e+00  2.0944779472610901e-16 -2.2173812282734492e-03 0.0000000000000000e+00  2.5707707049951354e-16 -2.2173812282734393e-03 0.0000000000000000e+00  2.6223382779428976e-16 -2.2173812282734336e-03 0.0000000000000000e+00  2.0122946876517279e-16 -2.2173812282733894e-03 0.0000000000000000e+00  1.7309399221823963e-16 -2.2173812282733039e-03 0.0000000000000000e+00  8.9270182568525942e-17 -2.2173812282732454e-03 0.0000000000000000e+00  -3.4906966678852856e-32 -2.2173812282732931e-03 0.0000000000000000e+00  -2.2569491535787999e-33 -2.4945538818075376e-03 0.0000000000000000e+00  -2.1530089021746966e-17 -2.4945538818075641e-03 0.0000000000000000e+00  3.0529918148995783e-17 -2.4945538818076508e-03 0.0000000000000000e+00  1.4551027133967063e-16 -2.4945538818077120e-03 0.0000000000000000e+00  2.2717618516425575e-16 -2.4945538818076395e-03 0.0000000000000000e+00  2.7586377525063444e-16 -2.4945538818076174e-03 0.0000000000000000e+00  2.8390370841427619e-16 -2.4945538818076378e-03 0.0000000000000000e+00  2.2199418189219223e-16 -2.4945538818075671e-03 0.0000000000000000e+00  1.9059267028028277e-16 -2.4945538818074626e-03 0.0000000000000000e+00  9.2898407121263264e-17 -2.4945538818073980e-03 0.0000000000000000e+00  1.4738211252393548e-32 -2.4945538818074509e-03 0.0000000000000000e+00  -2.2827810450689821e-33 -2.7717265353417102e-03 0.0000000000000000e+00  -2.7424697253336808e-17 -2.7717265353417470e-03 0.0000000000000000e+00  2.6542693376438793e-17 -2.7717265353418511e-03 0.0000000000000000e+00  1.5423843722452268e-16 -2.7717265353419084e-03 0.0000000000000000e+00  2.4549912528173251e-16 -2.7717265353418325e-03 0.0000000000000000e+00  2.9011489498573675e-16 -2.7717265353417999e-03 0.0000000000000000e+00  3.0046596974646145e-16 -2.7717265353418424e-03 0.0000000000000000e+00  2.4534257510231155e-16 -2.7717265353417509e-03 0.0000000000000000e+00  2.0846199717224910e-16 -2.7717265353416148e-03 0.0000000000000000e+00  9.4691310412624545e-17 -2.7717265353415549e-03 0.0000000000000000e+00  -1.6685302671100341e-32 -2.7717265353416048e-03 0.0000000000000000e+00  1.1284745767893952e-33 -3.0488991888758849e-03 0.0000000000000000e+00  -3.5658777847631182e-17 -3.0488991888759326e-03 0.0000000000000000e+00  1.9690820148937062e-17 -3.0488991888760635e-03 0.0000000000000000e+00  1.6384494451776488e-16 -3.0488991888761034e-03 0.0000000000000000e+00  2.6341045408275054e-16 -3.0488991888760241e-03 0.0000000000000000e+00  3.0337094033456924e-16 -3.0488991888759837e-03 0.0000000000000000e+00  3.1236725460085323e-16 -3.0488991888760358e-03 0.0000000000000000e+00  2.6867195372475554e-16 -3.0488991888759360e-03 0.0000000000000000e+00  2.2790793861573766e-16 -3.0488991888757803e-03 0.0000000000000000e+00  9.4631761133872686e-17 -3.0488991888757045e-03 0.0000000000000000e+00  1.2413220344683345e-32 -3.0488991888757591e-03 0.0000000000000000e+00  -5.0113869490972020e-33 -3.3260718424100643e-03 0.0000000000000000e+00  -4.8923666459600060e-17 -3.3260718424101233e-03 0.0000000000000000e+00  1.2240239552041943e-17 -3.3260718424102825e-03 0.0000000000000000e+00  1.7593931533171624e-16 -3.3260718424102968e-03 0.0000000000000000e+00  2.8066071016339644e-16 -3.3260718424102131e-03 0.0000000000000000e+00  3.1359980748528690e-16 -3.3260718424101684e-03 0.0000000000000000e+00  3.1981729072055244e-16 -3.3260718424102313e-03 0.0000000000000000e+00  2.9146124418431470e-16 -3.3260718424101190e-03 0.0000000000000000e+00  2.4694704084694936e-16 -3.3260718424099542e-03 0.0000000000000000e+00  9.6449492148652495e-17 -3.3260718424098618e-03 0.0000000000000000e+00  -3.5050874128365566e-33 -3.3260718424099069e-03 0.0000000000000000e+00  -6.7708474607363706e-33 -3.6032444959442377e-03 0.0000000000000000e+00  -6.6929789441146121e-17 -3.6032444959443249e-03 0.0000000000000000e+00  5.6877200092368960e-18 -3.6032444959444901e-03 0.0000000000000000e+00  1.9029452197982153e-16 -3.6032444959444841e-03 0.0000000000000000e+00  2.9689285767863554e-16 -3.6032444959444021e-03 0.0000000000000000e+00  3.2127302672057923e-16 -3.6032444959443709e-03 0.0000000000000000e+00  3.2609075008366694e-16 -3.6032444959444168e-03 0.0000000000000000e+00  3.1095139872387322e-16 -3.6032444959442841e-03 0.0000000000000000e+00  2.6461479762827159e-16 -3.6032444959441306e-03 0.0000000000000000e+00  1.0091320902108574e-16 -3.6032444959440192e-03 0.0000000000000000e+00  -1.4123352520494318e-32 -3.6032444959440634e-03 0.0000000000000000e+00  1.1150683131223500e-33 -3.8804171494784189e-03 0.0000000000000000e+00  -8.5977617242429276e-17 -3.8804171494785252e-03 0.0000000000000000e+00  -1.1217836749606748e-18 -3.8804171494786852e-03 0.0000000000000000e+00  2.0718780175535240e-16 -3.8804171494786657e-03 0.0000000000000000e+00  3.0700240016029306e-16 -3.8804171494785894e-03 0.0000000000000000e+00  3.2399891792503775e-16 -3.8804171494785690e-03 0.0000000000000000e+00  3.3540917294236673e-16 -3.8804171494785833e-03 0.0000000000000000e+00  3.2728431633243190e-16 -3.8804171494784532e-03 0.0000000000000000e+00  2.8109397380344165e-16 -3.8804171494783019e-03 0.0000000000000000e+00  1.0578748958087502e-16 -3.8804171494781813e-03 0.0000000000000000e+00  -4.5945036340711080e-33 -3.8804171494782156e-03 0.0000000000000000e+00  -1.5798644075051533e-32 -4.1575898030126015e-03 0.0000000000000000e+00  -1.0398046596164275e-16 -4.1575898030127203e-03 0.0000000000000000e+00  -7.1491480671658003e-18 -4.1575898030128651e-03 0.0000000000000000e+00  2.2160206428324371e-16 -4.1575898030128391e-03 0.0000000000000000e+00  3.1273362819042600e-16 -4.1575898030127775e-03 0.0000000000000000e+00  3.2674810885189009e-16 -4.1575898030127697e-03 0.0000000000000000e+00  3.4609443641001216e-16 -4.1575898030127472e-03 0.0000000000000000e+00  3.4044105446487011e-16 -4.1575898030126292e-03 0.0000000000000000e+00  2.9496316398779328e-16 -4.1575898030124783e-03 0.0000000000000000e+00  1.1218685222284711e-16 -4.1575898030123447e-03 0.0000000000000000e+00  1.1284745767893950e-33 -4.1575898030123811e-03 0.0000000000000000e+00  -2.6008151514067580e-33 -4.4347624565467900e-03 0.0000000000000000e+00  -1.1804513633202815e-16 -4.4347624565469253e-03 0.0000000000000000e+00  -1.0801678789471769e-17 -4.4347624565470398e-03 0.0000000000000000e+00  2.3016246170569677e-16 -4.4347624565470155e-03 0.0000000000000000e+00  3.1285274356037765e-16 -4.4347624565469826e-03 0.0000000000000000e+00  3.3271427956451398e-16 -4.4347624565469609e-03 0.0000000000000000e+00  3.5741294076748651e-16 -4.4347624565469054e-03 0.0000000000000000e+00  3.5215552226968161e-16 -4.4347624565467874e-03 0.0000000000000000e+00  3.0690404985513854e-16 -4.4347624565466435e-03 0.0000000000000000e+00  1.1769851161531068e-16 -4.4347624565465159e-03 0.0000000000000000e+00  -8.3023623503326285e-33 -4.4347624565465567e-03 0.0000000000000000e+00  -1.1284745767893999e-33 -4.7119351100809838e-03 0.0000000000000000e+00  -1.2929477767881692e-16 -4.7119351100811408e-03 0.0000000000000000e+00  -1.0419171303470440e-17 -4.7119351100812249e-03 0.0000000000000000e+00  2.3282037233595133e-16 -4.7119351100812059e-03 0.0000000000000000e+00  3.0926954812857884e-16 -4.7119351100811911e-03 0.0000000000000000e+00  3.4252713833404206e-16 -4.7119351100811530e-03 0.0000000000000000e+00  3.7017161957776714e-16 -4.7119351100810402e-03 0.0000000000000000e+00  3.5746648207971617e-16 -4.7119351100809326e-03 0.0000000000000000e+00  3.1591376422649447e-16 -4.7119351100808077e-03 0.0000000000000000e+00  1.2131938098941235e-16 -4.7119351100806880e-03 0.0000000000000000e+00  2.1441208454347611e-32 -4.7119351100807488e-03 0.0000000000000000e+00  4.5236095694018372e-35 -4.9891077636151819e-03 0.0000000000000000e+00  -1.3857833820823299e-16 -4.9891077636153407e-03 0.0000000000000000e+00  -4.7231359141031193e-18 -4.9891077636154257e-03 0.0000000000000000e+00  2.3058786745592536e-16 -4.9891077636154031e-03 0.0000000000000000e+00  3.0460900493913072e-16 -4.9891077636153927e-03 0.0000000000000000e+00  3.5867984432277802e-16 -4.9891077636153268e-03 0.0000000000000000e+00  3.8668804751429340e-16 -4.9891077636151863e-03 0.0000000000000000e+00  3.5470642187040928e-16 -4.9891077636150614e-03 0.0000000000000000e+00  3.2096559998716900e-16 -4.9891077636149590e-03 0.0000000000000000e+00  1.2163353915348551e-16 -4.9891077636148575e-03 0.0000000000000000e+00  -4.1108716725899436e-33 -4.9891077636149399e-03 0.0000000000000000e+00  -1.8055593228630322e-32 -5.2662804171493809e-03 0.0000000000000000e+00  -1.4808776713575111e-16 -5.2662804171495475e-03 0.0000000000000000e+00  2.1287373133985793e-18 -5.2662804171496333e-03 0.0000000000000000e+00  2.2666738289104705e-16 -5.2662804171495995e-03 0.0000000000000000e+00  2.9835583908102230e-16 -5.2662804171495813e-03 0.0000000000000000e+00  3.7969023184040916e-16 -5.2662804171494911e-03 0.0000000000000000e+00  4.0255923092385100e-16 -5.2662804171493402e-03 0.0000000000000000e+00  3.5065564886071930e-16 -5.2662804171491962e-03 0.0000000000000000e+00  3.2117324215901345e-16 -5.2662804171491008e-03 0.0000000000000000e+00  1.1199859066542890e-16 -5.2662804171490236e-03 0.0000000000000000e+00  -5.6423728839469746e-33 -5.2662804171491251e-03 0.0000000000000000e+00  8.7758025646395696e-33 -5.5434530706835999e-03 0.0000000000000000e+00  -1.5638605521479044e-16 -5.5434530706837265e-03 0.0000000000000000e+00  9.7123639923811073e-18 -5.5434530706838488e-03 0.0000000000000000e+00  2.2498746487170188e-16 -5.5434530706838089e-03 0.0000000000000000e+00  2.9411811348203428e-16 -5.5434530706837655e-03 0.0000000000000000e+00  4.0213825493337461e-16 -5.5434530706836562e-03 0.0000000000000000e+00  4.1982854770554799e-16 -5.5434530706834993e-03 0.0000000000000000e+00  3.4412808768179589e-16 -5.5434530706833379e-03 0.0000000000000000e+00  3.1277055053717927e-16 -5.5434530706832529e-03 0.0000000000000000e+00  9.9564077146994781e-17 -5.5434530706831861e-03 0.0000000000000000e+00  -7.7648642279541409e-35 -5.5434530706833041e-03 0.0000000000000000e+00  -1.8055593228630353e-32 -5.8206257242178145e-03 0.0000000000000000e+00  -1.6423991882587427e-16 -5.8206257242179090e-03 0.0000000000000000e+00  1.2373285634129362e-17 -5.8206257242180513e-03 0.0000000000000000e+00  2.2767130691727932e-16 -5.8206257242180209e-03 0.0000000000000000e+00  2.8997393590951530e-16 -5.8206257242179498e-03 0.0000000000000000e+00  4.2360211448336083e-16 -5.8206257242178188e-03 0.0000000000000000e+00  4.4146145228126303e-16 -5.8206257242176774e-03 0.0000000000000000e+00  3.3128364001123315e-16 -5.8206257242174987e-03 0.0000000000000000e+00  3.0245217073583818e-16 -5.8206257242174155e-03 0.0000000000000000e+00  8.5168558541747512e-17 -5.8206257242173678e-03 0.0000000000000000e+00  1.0870809919135809e-33 -5.8206257242174719e-03 0.0000000000000000e+00  -2.4971536560964242e-32 -6.0977983777520291e-03 0.0000000000000000e+00  -1.7041857442905721e-16 -6.0977983777521002e-03 0.0000000000000000e+00  8.5923924917328213e-18 -6.0977983777522615e-03 0.0000000000000000e+00  2.3490663413068985e-16 -6.0977983777522286e-03 0.0000000000000000e+00  2.9057695635938891e-16 -6.0977983777521193e-03 0.0000000000000000e+00  4.4194330226991899e-16 -6.0977983777519848e-03 0.0000000000000000e+00  4.5867636799635459e-16 -6.0977983777518556e-03 0.0000000000000000e+00  3.2017195071484626e-16 -6.0977983777516960e-03 0.0000000000000000e+00  2.9167244667624834e-16 -6.0977983777515858e-03 0.0000000000000000e+00  6.9956904910426505e-17 -6.0977983777515269e-03 0.0000000000000000e+00  -5.7632808743172667e-33 -6.0977983777516431e-03 0.0000000000000000e+00  -4.5138983071575806e-33 -6.3749710312862437e-03 0.0000000000000000e+00  -1.7853249816055651e-16 -6.3749710312863027e-03 0.0000000000000000e+00  1.4635069029615402e-18 -6.3749710312864718e-03 0.0000000000000000e+00  2.4382230566181758e-16 -6.3749710312864579e-03 0.0000000000000000e+00  2.9718973971328106e-16 -6.3749710312862792e-03 0.0000000000000000e+00  4.5845714771582384e-16 -6.3749710312861621e-03 0.0000000000000000e+00  4.6890766368000249e-16 -6.3749710312860520e-03 0.0000000000000000e+00  3.1006762844368113e-16 -6.3749710312859037e-03 0.0000000000000000e+00  2.8072723320444030e-16 -6.3749710312857579e-03 0.0000000000000000e+00  5.2544948265131571e-17 -6.3749710312856912e-03 0.0000000000000000e+00  1.6927118651840926e-33 -6.3749710312858152e-03 0.0000000000000000e+00  -2.8148599089924601e-32 -6.6521436848204617e-03 0.0000000000000000e+00  -1.8502035989763946e-16 -6.6521436848205068e-03 0.0000000000000000e+00  -8.6604684058775066e-18 -6.6521436848206925e-03 0.0000000000000000e+00  2.5565791613396110e-16 -6.6521436848206864e-03 0.0000000000000000e+00  3.0800168003235954e-16 -6.6521436848204392e-03 0.0000000000000000e+00  4.7307745393266789e-16 -6.6521436848203446e-03 0.0000000000000000e+00  4.7352634178318743e-16 -6.6521436848202553e-03 0.0000000000000000e+00  3.0037196934579492e-16 -6.6521436848201217e-03 0.0000000000000000e+00  2.7084232507435202e-16 -6.6521436848199300e-03 0.0000000000000000e+00  3.5870819030015729e-17 -6.6521436848198624e-03 0.0000000000000000e+00  8.9031371233857783e-34 -6.6521436848199847e-03 0.0000000000000000e+00  -2.0312542382209112e-32 -6.9293163383546755e-03 0.0000000000000000e+00  -1.9110486205720271e-16 -6.9293163383547145e-03 0.0000000000000000e+00  -1.8369486684087008e-17 -6.9293163383548932e-03 0.0000000000000000e+00  2.6774965820680746e-16 -6.9293163383548784e-03 0.0000000000000000e+00  