<?xml version="1.0"?>
<VTKFile type="UnstructuredGrid"  version="0.1"  >
<UnstructuredGrid>
<Piece  NumberOfPoints="1091" NumberOfCells="2050">
<Points>
<DataArray  type="Float64"  NumberOfComponents="3"  format="ascii">-0.5 -1 0  -0.4 -1 0  -0.3 -1 0  -0.2 -1 0  -0.09999999999999998 -1 0  0 -1 0  0.09999999999999998 -1 0  0.2 -1 0  0.3 -1 0  0.4 -1 0  0.5 -1 0  -0.5 -0.98 0  -0.4 -0.98 0  -0.3 -0.98 0  -0.2 -0.98 0  -0.09999999999999998 -0.98 0  0 -0.98 0  0.09999999999999998 -0.98 0  0.2 -0.98 0  0.3 -0.98 0  0.4 -0.98 0  0.5 -0.98 0  -0.5 -0.96 0  -0.4 -0.96 0  -0.3 -0.96 0  -0.2 -0.96 0  -0.09999999999999998 -0.96 0  0 -0.96 0  0.09999999999999998 -0.96 0  0.2 -0.96 0  0.3 -0.96 0  0.4 -0.96 0  0.5 -0.96 0  -0.5 -0.9399999999999999 0  -0.4 -0.9399999999999999 0  -0.3 -0.9399999999999999 0  -0.2 -0.9399999999999999 0  -0.09999999999999998 -0.9399999999999999 0  0 -0.9399999999999999 0  0.09999999999999998 -0.9399999999999999 0  0.2 -0.9399999999999999 0  0.3 -0.9399999999999999 0  0.4 -0.9399999999999999 0  0.5 -0.9399999999999999 0  -0.5 -0.92 0  -0.4 -0.92 0  -0.3 -0.92 0  -0.2 -0.92 0  -0.09999999999999998 -0.92 0  0 -0.92 0  0.09999999999999998 -0.92 0  0.2 -0.92 0  0.3 -0.92 0  0.4 -0.92 0  0.5 -0.92 0  -0.5 -0.9 0  -0.4 -0.9 0  -0.3 -0.9 0  -0.2 -0.9 0  -0.09999999999999998 -0.9 0  0 -0.9 0  0.09999999999999998 -0.9 0  0.2 -0.9 0  0.3 -0.9 0  0.4 -0.9 0  0.5 -0.9 0  -0.5 -0.88 0  -0.4 -0.88 0  -0.3 -0.88 0  -0.2 -0.88 0  -0.09999999999999998 -0.88 0  0 -0.88 0  0.09999999999999998 -0.88 0  0.2 -0.88 0  0.3 -0.88 0  0.4 -0.88 0  0.5 -0.88 0  -0.5 -0.86 0  -0.4 -0.86 0  -0.3 -0.86 0  -0.2 -0.86 0  -0.09999999999999998 -0.86 0  0 -0.86 0  0.09999999999999998 -0.86 0  0.2 -0.86 0  0.3 -0.86 0  0.4 -0.86 0  0.5 -0.86 0  -0.5 -0.84 0  -0.4 -0.84 0  -0.3 -0.84 0  -0.2 -0.84 0  -0.09999999999999998 -0.84 0  0 -0.84 0  0.09999999999999998 -0.84 0  0.2 -0.84 0  0.3 -0.84 0  0.4 -0.84 0  0.5 -0.84 0  -0.5 -0.8200000000000001 0  -0.4 -0.8200000000000001 0  -0.3 -0.8200000000000001 0  -0.2 -0.8200000000000001 0  -0.09999999999999998 -0.8200000000000001 0  0 -0.8200000000000001 0  0.09999999999999998 -0.8200000000000001 0  0.2 -0.8200000000000001 0  0.3 -0.8200000000000001 0  0.4 -0.8200000000000001 0  0.5 -0.8200000000000001 0  -0.5 -0.8 0  -0.4 -0.8 0  -0.3 -0.8 0  -0.2 -0.8 0  -0.09999999999999998 -0.8 0  0 -0.8 0  0.09999999999999998 -0.8 0  0.2 -0.8 0  0.3 -0.8 0  0.4 -0.8 0  0.5 -0.8 0  -0.5 -0.78 0  -0.4 -0.78 0  -0.3 -0.78 0  -0.2 -0.78 0  -0.09999999999999998 -0.78 0  0 -0.78 0  0.09999999999999998 -0.78 0  0.2 -0.78 0  0.3 -0.78 0  0.4 -0.78 0  0.5 -0.78 0  -0.5 -0.76 0  -0.4 -0.76 0  -0.3 -0.76 0  -0.2 -0.76 0  -0.09999999999999998 -0.76 0  0 -0.76 0  0.09999999999999998 -0.76 0  0.2 -0.76 0  0.3 -0.76 0  0.4 -0.76 0  0.5 -0.76 0  -0.5 -0.74 0  -0.4 -0.74 0  -0.3 -0.74 0  -0.2 -0.74 0  -0.09999999999999998 -0.74 0  0 -0.74 0  0.09999999999999998 -0.74 0  0.2 -0.74 0  0.3 -0.74 0  0.4 -0.74 0  0.5 -0.74 0  -0.5 -0.72 0  -0.4 -0.72 0  -0.3 -0.72 0  -0.2 -0.72 0  -0.09999999999999998 -0.72 0  0 -0.72 0  0.09999999999999998 -0.72 0  0.2 -0.72 0  0.3 -0.72 0  0.4 -0.72 0  0.5 -0.72 0  -0.5 -0.7 0  -0.4 -0.7 0  -0.3 -0.7 0  -0.2 -0.7 0  -0.09999999999999998 -0.7 0  0 -0.7 0  0.09999999999999998 -0.7 0  0.2 -0.7 0  0.3 -0.7 0  0.4 -0.7 0  0.5 -0.7 0  -0.5 -0.6799999999999999 0  -0.4 -0.6799999999999999 0  -0.3 -0.6799999999999999 0  -0.2 -0.6799999999999999 0  -0.09999999999999998 -0.6799999999999999 0  0 -0.6799999999999999 0  0.09999999999999998 -0.6799999999999999 0  0.2 -0.6799999999999999 0  0.3 -0.6799999999999999 0  0.4 -0.6799999999999999 0  0.5 -0.6799999999999999 0  -0.5 -0.6599999999999999 0  -0.4 -0.6599999999999999 0  -0.3 -0.6599999999999999 0  -0.2 -0.6599999999999999 0  -0.09999999999999998 -0.6599999999999999 0  0 -0.6599999999999999 0  0.09999999999999998 -0.6599999999999999 0  0.2 -0.6599999999999999 0  0.3 -0.6599999999999999 0  0.4 -0.6599999999999999 0  0.5 -0.6599999999999999 0  -0.5 -0.64 0  -0.4 -0.64 0  -0.3 -0.64 0  -0.2 -0.64 0  -0.09999999999999998 -0.64 0  0 -0.64 0  0.09999999999999998 -0.64 0  0.2 -0.64 0  0.3 -0.64 0  0.4 -0.64 0  0.5 -0.64 0  -0.5 -0.62 0  -0.4 -0.62 0  -0.3 -0.62 0  -0.2 -0.62 0  -0.09999999999999998 -0.62 0  0 -0.62 0  0.09999999999999998 -0.62 0  0.2 -0.62 0  0.3 -0.62 0  0.4 -0.62 0  0.5 -0.62 0  -0.5 -0.6 0  -0.4 -0.6 0  -0.3 -0.6 0  -0.2 -0.6 0  -0.09999999999999998 -0.6 0  0 -0.6 0  0.09999999999999998 -0.6 0  0.2 -0.6 0  0.3 -0.6 0  0.4 -0.6 0  0.5 -0.6 0  -0.5 -0.5800000000000001 0  -0.4 -0.5800000000000001 0  -0.3 -0.5800000000000001 0  -0.2 -0.5800000000000001 0  -0.09999999999999998 -0.5800000000000001 0  0 -0.5800000000000001 0  0.09999999999999998 -0.5800000000000001 0  0.2 -0.5800000000000001 0  0.3 -0.5800000000000001 0  0.4 -0.5800000000000001 0  0.5 -0.5800000000000001 0  -0.5 -0.5600000000000001 0  -0.4 -0.5600000000000001 0  -0.3 -0.5600000000000001 0  -0.2 -0.5600000000000001 0  -0.09999999999999998 -0.5600000000000001 0  0 -0.5600000000000001 0  0.09999999999999998 -0.5600000000000001 0  0.2 -0.5600000000000001 0  0.3 -0.5600000000000001 0  0.4 -0.5600000000000001 0  0.5 -0.5600000000000001 0  -0.5 -0.54 0  -0.4 -0.54 0  -0.3 -0.54 0  -0.2 -0.54 0  -0.09999999999999998 -0.54 0  0 -0.54 0  0.09999999999999998 -0.54 0  0.2 -0.54 0  0.3 -0.54 0  0.4 -0.54 0  0.5 -0.54 0  -0.5 -0.52 0  -0.4 -0.52 0  -0.3 -0.52 0  -0.2 -0.52 0  -0.09999999999999998 -0.52 0  0 -0.52 0  0.09999999999999998 -0.52 0  0.2 -0.52 0  0.3 -0.52 0  0.4 -0.52 0  0.5 -0.52 0  -0.5 -0.5 0  -0.4 -0.5 0  -0.3 -0.5 0  -0.2 -0.5 0  -0.09999999999999998 -0.5 0  0 -0.5 0  0.09999999999999998 -0.5 0  0.2 -0.5 0  0.3 -0.5 0  0.4 -0.5 0  0.5 -0.5 0  -0.5 -0.48 0  -0.4 -0.48 0  -0.3 -0.48 0  -0.2 -0.48 0  -0.09999999999999998 -0.48 0  0 -0.48 0  0.09999999999999998 -0.48 0  0.2 -0.48 0  0.3 -0.48 0  0.4 -0.48 0  0.5 -0.48 0  -0.5 -0.46 0  -0.4 -0.46 0  -0.3 -0.46 0  -0.2 -0.46 0  -0.09999999999999998 -0.46 0  0 -0.46 0  0.09999999999999998 -0.46 0  0.2 -0.46 0  0.3 -0.46 0  0.4 -0.46 0  0.5 -0.46 0  -0.5 -0.4399999999999999 0  -0.4 -0.4399999999999999 0  -0.3 -0.4399999999999999 0  -0.2 -0.4399999999999999 0  -0.09999999999999998 -0.4399999999999999 0  0 -0.4399999999999999 0  0.09999999999999998 -0.4399999999999999 0  0.2 -0.4399999999999999 0  0.3 -0.4399999999999999 0  0.4 -0.4399999999999999 0  0.5 -0.4399999999999999 0  -0.5 -0.42 0  -0.4 -0.42 0  -0.3 -0.42 0  -0.2 -0.42 0  -0.09999999999999998 -0.42 0  0 -0.42 0  0.09999999999999998 -0.42 0  0.2 -0.42 0  0.3 -0.42 0  0.4 -0.42 0  0.5 -0.42 0  -0.5 -0.4 0  -0.4 -0.4 0  -0.3 -0.4 0  -0.2 -0.4 0  -0.09999999999999998 -0.4 0  0 -0.4 0  0.09999999999999998 -0.4 0  0.2 -0.4 0  0.3 -0.4 0  0.4 -0.4 0  0.5 -0.4 0  -0.5 -0.38 0  -0.4 -0.38 0  -0.3 -0.38 0  -0.2 -0.38 0  -0.09999999999999998 -0.38 0  0 -0.38 0  0.09999999999999998 -0.38 0  0.2 -0.38 0  0.3 -0.38 0  0.4 -0.38 0  0.5 -0.38 0  -0.5 -0.36 0  -0.4 -0.36 0  -0.3 -0.36 0  -0.2 -0.36 0  -0.09999999999999998 -0.36 0  0 -0.36 0  0.09999999999999998 -0.36 0  0.2 -0.36 0  0.3 -0.36 0  0.4 -0.36 0  0.5 -0.36 0  -0.5 -0.34 0  -0.4 -0.34 0  -0.3 -0.34 0  -0.2 -0.34 0  -0.09999999999999998 -0.34 0  0 -0.34 0  0.09999999999999998 -0.34 0  0.2 -0.34 0  0.3 -0.34 0  0.4 -0.34 0  0.5 -0.34 0  -0.5 -0.32 0  -0.4 -0.32 0  -0.3 -0.32 0  -0.2 -0.32 0  -0.09999999999999998 -0.32 0  0 -0.32 0  0.09999999999999998 -0.32 0  0.2 -0.32 0  0.3 -0.32 0  0.4 -0.32 0  0.5 -0.32 0  -0.5 -0.3 0  -0.4 -0.3 0  -0.3 -0.3 0  -0.2 -0.3 0  -0.09999999999999998 -0.3 0  0 -0.3 0  0.09999999999999998 -0.3 0  0.2 -0.3 0  0.3 -0.3 0  0.4 -0.3 0  0.5 -0.3 0  -0.5 -0.28 0  -0.4 -0.28 0  -0.3 -0.28 0  -0.2 -0.28 0  -0.09999999999999998 -0.28 0  0 -0.28 0  0.09999999999999998 -0.28 0  0.2 -0.28 0  0.3 -0.28 0  0.4 -0.28 0  0.5 -0.28 0  -0.5 -0.26 0  -0.4 -0.26 0  -0.3 -0.26 0  -0.2 -0.26 0  -0.09999999999999998 -0.26 0  0 -0.26 0  0.09999999999999998 -0.26 0  0.2 -0.26 0  0.3 -0.26 0  0.4 -0.26 0  0.5 -0.26 0  -0.5 -0.24 0  -0.4 -0.24 0  -0.3 -0.24 0  -0.2 -0.24 0  -0.09999999999999998 -0.24 0  0 -0.24 0  0.09999999999999998 -0.24 0  0.2 -0.24 0  0.3 -0.24 0  0.4 -0.24 0  0.5 -0.24 0  -0.5 -0.22 0  -0.4 -0.22 0  -0.3 -0.22 0  -0.2 -0.22 0  -0.09999999999999998 -0.22 0  0 -0.22 0  0.09999999999999998 -0.22 0  0.2 -0.22 0  0.3 -0.22 0  0.4 -0.22 0  0.5 -0.22 0  -0.5 -0.2 0  -0.4 -0.2 0  -0.3 -0.2 0  -0.2 -0.2 0  -0.09999999999999998 -0.2 0  0 -0.2 0  0.09999999999999998 -0.2 0  0.2 -0.2 0  0.3 -0.2 0  0.4 -0.2 0  0.5 -0.2 0  -0.5 -0.18 0  -0.4 -0.18 0  -0.3 -0.18 0  -0.2 -0.18 0  -0.09999999999999998 -0.18 0  0 -0.18 0  0.09999999999999998 -0.18 0  0.2 -0.18 0  0.3 -0.18 0  0.4 -0.18 0  0.5 -0.18 0  -0.5 -0.16 0  -0.4 -0.16 0  -0.3 -0.16 0  -0.2 -0.16 0  -0.09999999999999998 -0.16 0  0 -0.16 0  0.09999999999999998 -0.16 0  0.2 -0.16 0  0.3 -0.16 0  0.4 -0.16 0  0.5 -0.16 0  -0.5 -0.14 0  -0.4 -0.14 0  -0.3 -0.14 0  -0.2 -0.14 0  -0.09999999999999998 -0.14 0  0 -0.14 0  0.09999999999999998 -0.14 0  0.2 -0.14 0  0.3 -0.14 0  0.4 -0.14 0  0.5 -0.14 0  -0.5 -0.12 0  -0.4 -0.12 0  -0.3 -0.12 0  -0.2 -0.12 0  -0.09999999999999998 -0.12 0  0 -0.12 0  0.09999999999999998 -0.12 0  0.2 -0.12 0  0.3 -0.12 0  0.4 -0.12 0  0.5 -0.12 0  -0.5 -0.09999999999999998 0  -0.4 -0.09999999999999998 0  -0.3 -0.09999999999999998 0  -0.2 -0.09999999999999998 0  -0.09999999999999998 -0.09999999999999998 0  0 -0.09999999999999998 0  0.09999999999999998 -0.09999999999999998 0  0.2 -0.09999999999999998 0  0.3 -0.09999999999999998 0  0.4 -0.09999999999999998 0  0.5 -0.09999999999999998 0  -0.5 -0.07999999999999996 0  -0.4 -0.07999999999999996 0  -0.3 -0.07999999999999996 0  -0.2 -0.07999999999999996 0  -0.09999999999999998 -0.07999999999999996 0  0 -0.07999999999999996 0  0.09999999999999998 -0.07999999999999996 0  0.2 -0.07999999999999996 0  0.3 -0.07999999999999996 0  0.4 -0.07999999999999996 0  0.5 -0.07999999999999996 0  -0.5 -0.06000000000000005 0  -0.4 -0.06000000000000005 0  -0.3 -0.06000000000000005 0  -0.2 -0.06000000000000005 0  -0.09999999
[...]
<PointData  Vectors="displacement"> 
<DataArray  type="Float64"  Name="displacement"  NumberOfComponents="3" format="ascii">-1.4105932209867450e-34 -2.9778502051908972e-20 0.0000000000000000e+00  -6.3476694944403457e-34 1.2407709188295402e-20 0.0000000000000000e+00  8.4415188068425453e-34 -1.3764802380765214e-20 0.0000000000000000e+00  1.4105932209867440e-33 2.4815418376590811e-21 0.0000000000000000e+00  -5.5138505272104038e-34 -3.9992189781881414e-20 0.0000000000000000e+00  1.6927118651840923e-33 3.9704669402545286e-20 0.0000000000000000e+00  2.4933337206894593e-33 -5.5778953591210024e-20 0.0000000000000000e+00  3.3854237303681846e-33 1.2407709188295402e-20 0.0000000000000000e+00  5.6367067690768014e-33 -2.0782912890394799e-20 0.0000000000000000e+00  -1.6927118651840926e-33 9.9261673506363246e-21 0.0000000000000000e+00  -1.9748305093814406e-33 1.9852334701272640e-20 0.0000000000000000e+00  -5.6423728839469758e-34 -2.7717265353417270e-04 0.0000000000000000e+00  -6.9523248327969172e-18 -2.7717265353417524e-04 0.0000000000000000e+00  3.9591406383491424e-18 -2.7717265353417861e-04 0.0000000000000000e+00  2.5151030301579508e-17 -2.7717265353418094e-04 0.0000000000000000e+00  3.2823661161182992e-17 -2.7717265353417698e-04 0.0000000000000000e+00  3.9224035888414178e-17 -2.7717265353417221e-04 0.0000000000000000e+00  4.3554965705588686e-17 -2.7717265353417313e-04 0.0000000000000000e+00  3.2293272303677295e-17 -2.7717265353416928e-04 0.0000000000000000e+00  2.9542993472396450e-17 -2.7717265353416961e-04 0.0000000000000000e+00  1.8783122579545922e-17 -2.7717265353416066e-04 0.0000000000000000e+00  9.5195788850037761e-34 -2.7717265353416841e-04 0.0000000000000000e+00  7.0014361057372694e-34 -5.5434530706834431e-04 0.0000000000000000e+00  -1.0816937815489609e-17 -5.5434530706835114e-04 0.0000000000000000e+00  9.0380313969219753e-18 -5.5434530706835905e-04 0.0000000000000000e+00  4.6319591210589976e-17 -5.5434530706836480e-04 0.0000000000000000e+00  6.3650077208631113e-17 -5.5434530706835656e-04 0.0000000000000000e+00  7.6517247475638175e-17 -5.5434530706834463e-04 0.0000000000000000e+00  8.2571724695500357e-17 -5.5434530706834648e-04 0.0000000000000000e+00  6.2435438271940793e-17 -5.5434530706833845e-04 0.0000000000000000e+00  5.6098322220831477e-17 -5.5434530706833997e-04 0.0000000000000000e+00  3.5057836857881766e-17 -5.5434530706831937e-04 0.0000000000000000e+00  -1.2090799037029224e-33 -5.5434530706833444e-04 0.0000000000000000e+00  -1.1284745767893970e-33 -8.3151796060251576e-04 0.0000000000000000e+00  -1.2946712498100021e-17 -8.3151796060252812e-04 0.0000000000000000e+00  1.4734751052125479e-17 -8.3151796060254113e-04 0.0000000000000000e+00  6.5001326479831436e-17 -8.3151796060255306e-04 0.0000000000000000e+00  9.1909269905807623e-17 -8.3151796060253668e-04 0.0000000000000000e+00  1.1169097909046896e-16 -8.3151796060252140e-04 0.0000000000000000e+00  1.1821144393466592e-16 -8.3151796060252270e-04 0.0000000000000000e+00  8.9229737216152188e-17 -8.3151796060250795e-04 0.0000000000000000e+00  7.9927433814012961e-17 -8.3151796060250839e-04 0.0000000000000000e+00  4.9810538187154503e-17 -8.3151796060247694e-04 0.0000000000000000e+00  -6.7708474607363788e-33 -8.3151796060249885e-04 0.0000000000000000e+00  -9.9596286273000355e-34 -1.1086906141366858e-03 0.0000000000000000e+00  -1.4153502652573727e-17 -1.1086906141367018e-03 0.0000000000000000e+00  2.0676508220463778e-17 -1.1086906141367214e-03 0.0000000000000000e+00  8.1246741598872968e-17 -1.1086906141367400e-03 0.0000000000000000e+00  1.1825198141280148e-16 -1.1086906141367157e-03 0.0000000000000000e+00  1.4355993213067854e-16 -1.1086906141366997e-03 0.0000000000000000e+00  1.5139033929848675e-16 -1.1086906141367021e-03 0.0000000000000000e+00  1.1362135410264988e-16 -1.1086906141366791e-03 0.0000000000000000e+00  1.0150249769838859e-16 -1.1086906141366713e-03 0.0000000000000000e+00  6.2428277819754723e-17 -1.1086906141366327e-03 0.0000000000000000e+00  6.1537304219662079e-33 -1.1086906141366637e-03 0.0000000000000000e+00  -1.5516525430854185e-33 -1.3858632676708620e-03 0.0000000000000000e+00  -1.4033604744783034e-17 -1.3858632676708789e-03 0.0000000000000000e+00  2.6293231972524875e-17 -1.3858632676709045e-03 0.0000000000000000e+00  9.5067148252572779e-17 -1.3858632676709299e-03 0.0000000000000000e+00  1.4235930783353129e-16 -1.3858632676708998e-03 0.0000000000000000e+00  1.7305761243016920e-16 -1.3858632676708828e-03 0.0000000000000000e+00  1.8118693593021329e-16 -1.3858632676708854e-03 0.0000000000000000e+00  1.3730771440427475e-16 -1.3858632676708557e-03 0.0000000000000000e+00  1.2191659542186000e-16 -1.3858632676708297e-03 0.0000000000000000e+00  7.3080753148191718e-17 -1.3858632676707902e-03 0.0000000000000000e+00  -7.1590055322689003e-33 -1.3858632676708254e-03 0.0000000000000000e+00  -1.3419342334639535e-34 -1.6630359212050369e-03 0.0000000000000000e+00  -1.2603911447493969e-17 -1.6630359212050562e-03 0.0000000000000000e+00  3.0705748253994306e-17 -1.6630359212050866e-03 0.0000000000000000e+00  1.0708069693437278e-16 -1.6630359212051178e-03 0.0000000000000000e+00  1.6348037336490804e-16 -1.6630359212050849e-03 0.0000000000000000e+00  1.9989215254812805e-16 -1.6630359212050632e-03 0.0000000000000000e+00  2.0851647215149713e-16 -1.6630359212050677e-03 0.0000000000000000e+00  1.6129718719878028e-16 -1.6630359212050335e-03 0.0000000000000000e+00  1.4157558609926101e-16 -1.6630359212049892e-03 0.0000000000000000e+00  8.1734585356922421e-17 -1.6630359212049480e-03 0.0000000000000000e+00  -5.0781355955522772e-33 -1.6630359212049801e-03 0.0000000000000000e+00  -2.6801271198748135e-33 -1.9402085747392088e-03 0.0000000000000000e+00  -1.1196944617831153e-17 -1.9402085747392301e-03 0.0000000000000000e+00  3.3638072750509885e-17 -1.9402085747392674e-03 0.0000000000000000e+00  1.1777904416788192e-16 -1.9402085747393097e-03 0.0000000000000000e+00  1.8204030181610196e-16 -1.9402085747392654e-03 0.0000000000000000e+00  2.2507503997225493e-16 -1.9402085747392435e-03 0.0000000000000000e+00  2.3245987027272120e-16 -1.9402085747392426e-03 0.0000000000000000e+00  1.8341944838768677e-16 -1.9402085747392082e-03 0.0000000000000000e+00  1.5972182154593853e-16 -1.9402085747391462e-03 0.0000000000000000e+00  8.7680916688560364e-17 -1.9402085747390969e-03 0.0000000000000000e+00  7.8993220375257652e-33 -1.9402085747391392e-03 0.0000000000000000e+00  1.3319843579421382e-33 -2.2173812282733742e-03 0.0000000000000000e+00  -1.1713930616365581e-17 -2.2173812282734015e-03 0.0000000000000000e+00  3.5835130672231508e-17 -2.2173812282734557e-03 0.0000000000000000e+00  1.2706951249350134e-16 -2.2173812282735026e-03 0.0000000000000000e+00  1.9877500432865934e-16 -2.2173812282734462e-03 0.0000000000000000e+00  2.4880661989863577e-16 -2.2173812282734223e-03 0.0000000000000000e+00  2.5564804673096295e-16 -2.2173812282734271e-03 0.0000000000000000e+00  2.0166206609990591e-16 -2.2173812282733781e-03 0.0000000000000000e+00  1.7761236189663025e-16 -2.2173812282733039e-03 0.0000000000000000e+00  9.2628749320141323e-17 -2.2173812282732450e-03 0.0000000000000000e+00  -2.0243104117212673e-32 -2.2173812282732922e-03 0.0000000000000000e+00  -3.9496610187628997e-33 -2.4945538818075407e-03 0.0000000000000000e+00  -1.5172269694766527e-17 -2.4945538818075706e-03 0.0000000000000000e+00  3.6034699795362457e-17 -2.4945538818076387e-03 0.0000000000000000e+00  1.3549381038728726e-16 -2.4945538818076959e-03 0.0000000000000000e+00  2.1486942257117008e-16 -2.4945538818076317e-03 0.0000000000000000e+00  2.6828534568423366e-16 -2.4945538818075996e-03 0.0000000000000000e+00  2.7664438156038161e-16 -2.4945538818076222e-03 0.0000000000000000e+00  2.2010220536777838e-16 -2.4945538818075567e-03 0.0000000000000000e+00  1.9417244142644714e-16 -2.4945538818074622e-03 0.0000000000000000e+00  9.6291956239848297e-17 -2.4945538818073980e-03 0.0000000000000000e+00  -9.7213570995048359e-34 -2.4945538818074470e-03 0.0000000000000000e+00  2.2197161171670442e-33 -2.7717265353417180e-03 0.0000000000000000e+00  -2.0172904238321464e-17 -2.7717265353417501e-03 0.0000000000000000e+00  3.3826966370724632e-17 -2.7717265353418372e-03 0.0000000000000000e+00  1.4264567469471721e-16 -2.7717265353418906e-03 0.0000000000000000e+00  2.3183383745983250e-16 -2.7717265353418212e-03 0.0000000000000000e+00  2.8376516756009582e-16 -2.7717265353417813e-03 0.0000000000000000e+00  2.9284810646887810e-16 -2.7717265353418208e-03 0.0000000000000000e+00  2.4100933708164006e-16 -2.7717265353417379e-03 0.0000000000000000e+00  2.1204761912281068e-16 -2.7717265353416178e-03 0.0000000000000000e+00  9.7884823421600022e-17 -2.7717265353415553e-03 0.0000000000000000e+00  4.8363196148116940e-34 -2.7717265353416026e-03 0.0000000000000000e+00  1.1284745767893952e-33 -3.0488991888758961e-03 0.0000000000000000e+00  -2.6635825633893525e-17 -3.0488991888759326e-03 0.0000000000000000e+00  2.9203615018187048e-17 -3.0488991888760523e-03 0.0000000000000000e+00  1.5161604915717042e-16 -3.0488991888760917e-03 0.0000000000000000e+00  2.4859868322536286e-16 -3.0488991888760111e-03 0.0000000000000000e+00  2.9667192082198522e-16 -3.0488991888759608e-03 0.0000000000000000e+00  3.0504972008604540e-16 -3.0488991888760145e-03 0.0000000000000000e+00  2.6231229962383848e-16 -3.0488991888759170e-03 0.0000000000000000e+00  2.2910535335452405e-16 -3.0488991888757782e-03 0.0000000000000000e+00  9.7900557073751887e-17 -3.0488991888757101e-03 0.0000000000000000e+00  -6.7708474607363706e-33 -3.0488991888757535e-03 0.0000000000000000e+00  -7.2232090638787749e-33 -3.3260718424100726e-03 0.0000000000000000e+00  -3.6197857264906396e-17 -3.3260718424101246e-03 0.0000000000000000e+00  2.3482633488428304e-17 -3.3260718424102708e-03 0.0000000000000000e+00  1.6338603483989898e-16 -3.3260718424102807e-03 0.0000000000000000e+00  2.6529388768230054e-16 -3.3260718424101940e-03 0.0000000000000000e+00  3.0638712089363003e-16 -3.3260718424101467e-03 0.0000000000000000e+00  3.1309284610273116e-16 -3.3260718424102040e-03 0.0000000000000000e+00  2.8415633691636775e-16 -3.3260718424100969e-03 0.0000000000000000e+00  2.4455844790447374e-16 -3.3260718424099503e-03 0.0000000000000000e+00  9.9845804522841718e-17 -3.3260718424098648e-03 0.0000000000000000e+00  1.4235812643474713e-33 -3.3260718424099047e-03 0.0000000000000000e+00  3.9496610187628833e-33 -3.6032444959442507e-03 0.0000000000000000e+00  -5.0274869646080815e-17 -3.6032444959443193e-03 0.0000000000000000e+00  1.8094267163888124e-17 -3.6032444959444706e-03 0.0000000000000000e+00  1.7700085534683331e-16 -3.6032444959444702e-03 0.0000000000000000e+00  2.8086052942538439e-16 -3.6032444959443800e-03 0.0000000000000000e+00  3.1307406191194274e-16 -3.6032444959443423e-03 0.0000000000000000e+00  3.1941557868393717e-16 -3.6032444959443878e-03 0.0000000000000000e+00  3.0381232006233434e-16 -3.6032444959442664e-03 0.0000000000000000e+00  2.5844714051310616e-16 -3.6032444959441185e-03 0.0000000000000000e+00  1.0369097313420477e-16 -3.6032444959440213e-03 0.0000000000000000e+00  1.1667150449238457e-32 -3.6032444959440543e-03 0.0000000000000000e+00  -1.1361948299664243e-32 -3.8804171494784289e-03 0.0000000000000000e+00  -6.3808189816575998e-17 -3.8804171494785148e-03 0.0000000000000000e+00  1.3127796707638160e-17 -3.8804171494786648e-03 0.0000000000000000e+00  1.9223696322315365e-16 -3.8804171494786531e-03 0.0000000000000000e+00  2.9164242054070913e-16 -3.8804171494785720e-03 0.0000000000000000e+00  3.1620493038194923e-16 -3.8804171494785360e-03 0.0000000000000000e+00  3.2769250018129685e-16 -3.8804171494785521e-03 0.0000000000000000e+00  3.1983366522640519e-16 -3.8804171494784406e-03 0.0000000000000000e+00  2.7383090017934727e-16 -3.8804171494782914e-03 0.0000000000000000e+00  1.0962809524852868e-16 -3.8804171494781704e-03 0.0000000000000000e+00  -1.3299878940732156e-32 -3.8804171494782060e-03 0.0000000000000000e+00  5.6423728839469759e-33 -4.1575898030126084e-03 0.0000000000000000e+00  -7.8449311264788638e-17 -4.1575898030127073e-03 0.0000000000000000e+00  8.3860608615722686e-18 -4.1575898030128487e-03 0.0000000000000000e+00  2.0690665587300488e-16 -4.1575898030128313e-03 0.0000000000000000e+00  2.9688675532426302e-16 -4.1575898030127584e-03 0.0000000000000000e+00  3.1865254222465589e-16 -4.1575898030127385e-03 0.0000000000000000e+00  3.3660658768115351e-16 -4.1575898030127185e-03 0.0000000000000000e+00  3.3260982577055186e-16 -4.1575898030126110e-03 0.0000000000000000e+00  2.8698039906254838e-16 -4.1575898030124635e-03 0.0000000000000000e+00  1.1596001546976239e-16 -4.1575898030123352e-03 0.0000000000000000e+00  -3.3854237303681853e-33 -4.1575898030123621e-03 0.0000000000000000e+00  -1.4977291163436415e-32 -4.4347624565467926e-03 0.0000000000000000e+00  -9.1983739585395105e-17 -4.4347624565469115e-03 0.0000000000000000e+00  5.8997622025636871e-18 -4.4347624565470338e-03 0.0000000000000000e+00  2.1646292946578284e-16 -4.4347624565470034e-03 0.0000000000000000e+00  2.9557138018002953e-16 -4.4347624565469652e-03 0.0000000000000000e+00  3.2416669501671212e-16 -4.4347624565469323e-03 0.0000000000000000e+00  3.4588956214009786e-16 -4.4347624565468759e-03 0.0000000000000000e+00  3.4269852132022232e-16 -4.4347624565467762e-03 0.0000000000000000e+00  2.9887139264911109e-16 -4.4347624565466313e-03 0.0000000000000000e+00  1.2210977175822225e-16 -4.4347624565465021e-03 0.0000000000000000e+00  7.8049695076642113e-33 -4.4347624565465342e-03 0.0000000000000000e+00  -1.6927118651841000e-32 -4.7119351100809795e-03 0.0000000000000000e+00  -1.0277698210631125e-16 -4.7119351100811269e-03 0.0000000000000000e+00  7.4048460061775512e-18 -4.7119351100812171e-03 0.0000000000000000e+00  2.2059101015739332e-16 -4.7119351100811981e-03 0.0000000000000000e+00  2.9198456883949753e-16 -4.7119351100811686e-03 0.0000000000000000e+00  3.3268172825957360e-16 -4.7119351100811174e-03 0.0000000000000000e+00  3.5790227619526892e-16 -4.7119351100810229e-03 0.0000000000000000e+00  3.4582493513220807e-16 -4.7119351100809214e-03 0.0000000000000000e+00  3.0808067614359780e-16 -4.7119351100807913e-03 0.0000000000000000e+00  1.2640970466728980e-16 -4.7119351100806716e-03 0.0000000000000000e+00  1.7119579493113266e-32 -4.7119351100807158e-03 0.0000000000000000e+00  -4.4845337640309360e-33 -4.9891077636151741e-03 0.0000000000000000e+00  -1.1192511103614892e-16 -4.9891077636153285e-03 0.0000000000000000e+00  1.3437654290828644e-17 -4.9891077636154161e-03 0.0000000000000000e+00  2.2034970849264919e-16 -4.9891077636153892e-03 0.0000000000000000e+00  2.8684735298046101e-16 -4.9891077636153667e-03 0.0000000000000000e+00  3.4498745312805139e-16 -4.9891077636152973e-03 0.0000000000000000e+00  3.7305580077229291e-16 -4.9891077636151646e-03 0.0000000000000000e+00  3.4261762238174149e-16 -4.9891077636150501e-03 0.0000000000000000e+00  3.1530120809975605e-16 -4.9891077636149408e-03 0.0000000000000000e+00  1.2552541243496656e-16 -4.9891077636148246e-03 0.0000000000000000e+00  9.2696125950557564e-33 -4.9891077636148992e-03 0.0000000000000000e+00  -1.4670169498262137e-32 -5.2662804171493749e-03 0.0000000000000000e+00  -1.2208823196159225e-16 -5.2662804171495206e-03 0.0000000000000000e+00  2.1686511380248233e-17 -5.2662804171496255e-03 0.0000000000000000e+00  2.1805348723277184e-16 -5.2662804171495822e-03 0.0000000000000000e+00  2.7959634150669747e-16 -5.2662804171495587e-03 0.0000000000000000e+00  3.6310672296674059e-16 -5.2662804171494668e-03 0.0000000000000000e+00  3.8834296119805723e-16 -5.2662804171493167e-03 0.0000000000000000e+00  3.3733454426129593e-16 -5.2662804171491762e-03 0.0000000000000000e+00  3.1798013618891566e-16 -5.2662804171490817e-03 0.0000000000000000e+00  1.1823067172340046e-16 -5.2662804171489854e-03 0.0000000000000000e+00  -3.3854237303681853e-33 -5.2662804171490774e-03 0.0000000000000000e+00  5.6967213665705763e-33 -5.5434530706835825e-03 0.0000000000000000e+00  -1.3008604954575694e-16 -5.5434530706836987e-03 0.0000000000000000e+00  2.7141400745832028e-17 -5.5434530706838315e-03 0.0000000000000000e+00  2.1399904638825172e-16 -5.5434530706837907e-03 0.0000000000000000e+00  2.7415392521130799e-16 -5.5434530706837508e-03 0.0000000000000000e+00  3.8190959900799908e-16 -5.5434530706836294e-03 0.0000000000000000e+00  4.0520621988815473e-16 -5.5434530706834810e-03 0.0000000000000000e+00  3.3330798109760100e-16 -5.5434530706833180e-03 0.0000000000000000e+00  3.1127897922627742e-16 -5.5434530706832226e-03 0.0000000000000000e+00  1.0803680558338871e-16 -5.5434530706831523e-03 0.0000000000000000e+00  1.6405139957844845e-32 -5.5434530706832469e-03 0.0000000000000000e+00  3.3854237303681908e-33 -5.8206257242177928e-03 0.0000000000000000e+00  -1.3635997464408752e-16 -5.8206257242178830e-03 0.0000000000000000e+00  2.7207923786875824e-17 -5.8206257242180244e-03 0.0000000000000000e+00  2.1554534391821211e-16 -5.8206257242179992e-03 0.0000000000000000e+00  2.6903996643107403e-16 -5.8206257242179246e-03 0.0000000000000000e+00  3.9926784141918416e-16 -5.8206257242177884e-03 0.0000000000000000e+00  4.2529011677254362e-16 -5.8206257242176531e-03 0.0000000000000000e+00  3.2637769566207445e-16 -5.8206257242174771e-03 0.0000000000000000e+00  3.0220134508987139e-16 -5.8206257242173782e-03 0.0000000000000000e+00  9.5908877071463375e-17 -5.8206257242173322e-03 0.0000000000000000e+00  -8.4909423591054975e-33 -5.8206257242174120e-03 0.0000000000000000e+00  1.1325710516122693e-32 -6.0977983777520100e-03 0.0000000000000000e+00  -1.4116352437548260e-16 -6.0977983777520690e-03 0.0000000000000000e+00  2.4787033990925001e-17 -6.0977983777522277e-03 0.0000000000000000e+00  2.1945627226114194e-16 -6.0977983777522043e-03 0.0000000000000000e+00  2.6713262045801371e-16 -6.0977983777520915e-03 0.0000000000000000e+00  4.1714822127461617e-16 -6.0977983777519536e-03 0.0000000000000000e+00  4.3951773217576738e-16 -6.0977983777518209e-03 0.0000000000000000e+00  3.1773674635506292e-16 -6.0977983777516821e-03 0.0000000000000000e+00  2.9045328960886000e-16 -6.0977983777515399e-03 0.0000000000000000e+00  8.0433658001905505e-17 -6.0977983777514948e-03 0.0000000000000000e+00  6.8514527876498973e-33 -6.0977983777515885e-03 0.0000000000000000e+00  4.5138983071575806e-33 -6.3749710312862237e-03 0.0000000000000000e+00  -1.4604633524410238e-16 -6.3749710312862688e-03 0.0000000000000000e+00  1.9557774066849638e-17 -6.3749710312864276e-03 0.0000000000000000e+00  2.2449481673177185e-16 -6.3749710312864163e-03 0.0000000000000000e+00  2.7037603188725085e-16 -6.3749710312862567e-03 0.0000000000000000e+00  4.3578972590935278e-16 -6.3749710312861274e-03 0.0000000000000000e+00  4.4550766428162080e-16 -6.3749710312860147e-03 0.0000000000000000e+00  3.0660912106072035e-16 -6.3749710312858924e-03 0.0000000000000000e+00  2.8258987835366385e-16 -6.3749710312857146e-03 0.0000000000000000e+00  6.3989683777477468e-17 -6.3749710312856530e-03 0.0000000000000000e+00  -1.1284745767893950e-33 -6.3749710312857484e-03 0.0000000000000000e+00  7.9471611563759427e-33 -6.6521436848204392e-03 0.0000000000000000e+00  -1.5079065292936029e-16 -6.6521436848204635e-03 0.0000000000000000e+00  1.1915939726953854e-17 -6.6521436848206491e-03 0.0000000000000000e+00  2.3241889678858585e-16 -6.6521436848206317e-03 0.0000000000000000e+00  2.7580452816720607e-16 -6.6521436848204123e-03 0.0000000000000000e+00  4.5187709340181887e-16 -6.6521436848203108e-03 0.0000000000000000e+00  4.4549342057206807e-16 -6.6521436848202119e-03 0.0000000000000000e+00  2.9809702877935528e-16 -6.6521436848200957e-03 0.0000000000000000e+00  2.7603943765589153e-16 -6.6521436848198893e-03 0.0000000000000000e+00  4.8209718787354148e-17 -6.6521436848198164e-03 0.0000000000000000e+00  1.0726188701876502e-32 -6.6521436848199205e-03 0.0000000000000000e+00  2.2569491535787903e-33 -6.9293163383546364e-03 0.0000000000000000e+00  -1.5491919236336097e-16 -6.9293163383546729e-03 0.0000000000000000e+00  2.2399961232530858e-18 -6.9293163383548385e-03 0.0000000000000000e+00  2.4041542898946840e-16 -6.9293163383548377e-03 0.0000000000000000e+00  2.8312414152704622