<?xml version="1.0"?>
<VTKFile type="UnstructuredGrid"  version="0.1"  >
<UnstructuredGrid>
<Piece  NumberOfPoints="15776" NumberOfCells="31038">
<Points>
<DataArray  type="Float64"  NumberOfComponents="3"  format="ascii">-0.05 0 0  -0.05 -0.1 0  0.05 -0.1 0  0.05 0 0  0 -0.1 0  0.05 -0.05 0  0 0 0  -0.05 -0.05 0  0 -0.05 0  -0.025 -0.1 0  -0.025 0 0  -0.05 -0.025 0  0.025 -0.1 0  0.05 -0.025 0  0.025 0 0  0.025 -0.06875000000000001 0  0.025 -0.03750000000000001 0  -0.02083333333333333 -0.02916666666666667 0  -0.05 -0.07500000000000001 0  -0.02083333333333333 -0.07083333333333333 0  0.05 -0.07500000000000001 0  0.003472222222222224 -0.02569444444444444 0  0.002378144654088049 -0.07627751572327045 0  -0.02083333333333333 -0.05 0  0.03125 -0.01875 0  -0.01233019290593089 -0.08678347112328397 0  -0.0125 -0.0130952380952381 0  -0.03690476190476191 -0.03750000000000001 0  -0.03541666666666667 -0.06041666666666666 0  -0.03385416666666667 -0.01614583333333334 0  0.05 -0.08750000000000001 0  0.03750000000000001 -0.1 0  -0.03385416666666666 -0.08385416666666666 0  0.03348214285714286 -0.08348214285714287 0  0.0125 0 0  0.0125 -0.1 0  0.01719551374627341 -0.0830513925183794 0  0.01029527261028368 -0.06231463651962176 0  0.0328125 -0.05312500000000001 0  -0.01041666666666666 -0.03958333333333333 0  -0.01041666666666667 -0.06041666666666667 0  0.01470753125203114 -0.04816506250406229 0  0.01799242424242424 -0.02474747474747475 0  0.03750000000000001 -0.03125 0  0.05 -0.0625 0  0.00625 -0.01223723723723724 0  0.05 -0.0125 0  0.03750000000000001 0 0  0.03765012642225032 -0.07127449431099875 0  0.02021617032392894 -0.01201127655869035 0  0.006028532990060553 -0.03846042534778643 0  -0.05 -0.0625 0  -0.03750000000000001 0 0  -0.05 -0.03750000000000001 0  -0.0125 -0.1 0  -0.0125 0 0  -0.05 -0.0125 0  -0.03750000000000001 -0.1 0  0.05 -0.03750000000000001 0  -0.05 -0.08750000000000001 0  -0.008680555555555554 -0.02743055555555555 0  0.006250000000000001 -0.08914373740925415 0  -0.009584768711776409 -0.07507825100308022 0  -0.03268229166666667 -0.07200520833333332 0  0.03939012096774194 -0.04309475806451613 0  0.02190003906503893 -0.05743439453251947 0  -0.03834537706133037 -0.04910019455252918 0  0.01284084887861751 -0.07298400536762802 0  -0.02264613483542079 -0.0820413651645792 0  -0.02366071428571428 -0.01123511904761905 0  -0.03199404761904762 -0.02730654761904763 0  -0.0244047619047619 -0.06041666666666667 0  -0.01041666666666666 -0.05 0  -0.02083333333333332 -0.03958333333333333 0  2.405987640392848e-05 -0.0604407265430706 0  -0.002910133850527605 -0.01736173448892657 0  -0.02961483445283294 -0.04429487938443922 0  0.0390625 -0.0109375 0  0.040625 -0.021875 0  0.028125 -0.028125 0  -0.04176917540113871 -0.06803243885869564 0  0.03965658412817928 -0.06102022076500465 0  0.01533845899304755 -0.03450745320159019 0  0.02948377458963575 -0.008744075527611174 0  0.02448333984417315 -0.04800472330961902 0  -0.002638588467448458 -0.08480290334513936 0  0.01875 -0.09260679016400503 0  0.02801599660666901 -0.09111197895245939 0  0.0427726833976834 -0.08125000000000002 0  0.04010991573299855 -0.09061756875992701 0  -0.03125000000000001 -0.09292674731182796 0  -0.04078102849914793 -0.09075246902758297 0  -0.04292674731182795 -0.08125000000000002 0  -0.04292674731182796 -0.01875 0  -0.04075246902758298 -0.009218971500852071 0  -0.002501899107215252 -0.03451361758785813 0  -0.01875 -0.09331034417873318 0  -0.04137052725919914 -0.02906901041666667 0  -0.02515071191829004 -0.02065873579545455 0  -0.004560476962080258 -0.008160345583815167 0  -0.01571003401360544 -0.02162698412698413 0  -0.006250000000000001 -0.09347094524847423 0  -0.03184688459542486 -0.007177652942204195 0  -0.043423574176247 -0.05645164743293771 0  -0.002931194584325539 -0.06897337298686135 0  0.04141166808534667 -0.05159229946940671 0  0.03072628767995273 -0.06184751883997637 0  0.01331794183364191 -0.01736907532119644 0  -0.02991071428571428 -0.05329326110353833 0  0.0302193738423544 -0.07555280640245397 0  -0.02844810693838604 -0.03529440998727736 0  -0.05 -0.04375 0  0.009435764744425919 -0.08043238240966273 0  0.02057363836381549 -0.07561467685960577 0  0.025334823172674 -0.08341820123348352 0  0.005194622404326759 -0.06864849887959712 0  0.01732194592699554 -0.06627651681808928 0  0.006285662925187238 -0.05520590615175079 0  -0.01875 0 0  0.03186492887377232 -0.04533174938342453 0  -0.0008783629089698517 -0.04219661564043644 0  0.05 -0.00625 0  0.03375689409777979 -0.03792049068961304 0  0.05 -0.06875000000000001 0  0.01439721346977286 -0.05583102001882564 0  0.007184194424042271 -0.04772337119454249 0  0.01846824474048517 -0.04149541481145257 0  -0.01682300313953808 -0.07723258764373991 0  0.01091777409106017 -0.0280645394299259 0  -0.005208333333333333 -0.05520833333333334 0  -0.01562499999999999 -0.034375 0  -0.015625 -0.05520833333333333 0  -0.01562499999999999 -0.04479166666666667 0  -0.01741071428571429 -0.06383928571428571 0  -0.01017446891572471 -0.06775731747543173 0  0.02462121212121212 -0.02174873737373738 0  -0.01727537722908093 -0.007335299088771311 0  -0.04246234479210493 -0.04269936147867359 0  0.02155204304257197 -0.03095624460965786 0  0.01316725552433098 -0.00805546078058521 0  0.01875 0 0  -0.02717633928571428 -0.0671875 0  -0.02899339936689958 -0.07835247286481212 0  0.034375 -0.025 0  0.04269000268040276 -0.03649499463919448 0  0.04375 0 0  0.04375 -0.02812499999999999 0  -0.03761497647442349 -0.02322577938762476 0  0.05 -0.05625 0  -0.02487731781150031 -0.08912078797260026 0  -0.03695888676976247 -0.07756467740738612 0  0.002206599034779407 -0.006587679234291101 0  0.003888413565608712 -0.01876506087328944 0  0.04375 -0.1 0  0.05 -0.09375 0  -0.008944539808483216 -0.02059134745263918 0  -0.04331057662916364 -0.07455691519284439 0  0.0439453125 -0.0158203125 0  -0.0001289479518082485 -0.09093484953796985 0  -0.04345238095238095 -0.03556995462159739 0  -0.01996941165388946 -0.01664836497274012 0  -0.04375 -0.1 0  -0.05 -0.09375 0  -0.04375 0 0  -0.05 -0.00625 0  0.005594154517873918 -0.03190847365283561 0  0.01173248358540133 -0.04209249512146222 0  0.03419217537052396 -0.09402564429600242 0  0.01187454317038147 -0.09313287027544383 0  0.00625 -0.1 0  0.02629142191479375 -0.01446643061282435 0  0.021875 -0.005713666436405997 0  0.04321758283034931 -0.06704044172466167 0  0.03164035608931087 -0.06843232885197728 0  0.04337196116786825 -0.07463925880684733 0  0.03637679552963742 -0.07765509762578199 0  0.003626010873625676 -0.08324593924595615 0  -0.01086143623908221 -0.006877234301934964 0  0.05 -0.04375 0  0.01179919481827354 -0.08623489346281316 0  -0.01250448524457812 -0.09373974299368953 0  -0.05 -0.06875000000000001 0  -0.03125 0 0  -0.03125 -0.1 0  0.03125 0 0  0.05 -0.03125 0  -0.05 -0.03125 0  0.03125 -0.1 0  -0.00625 -0.1 0  -0.01875 -0.1 0  -0.05 -0.01875 0  0.01875 -0.1 0  -0.00625 0 0  0.00625 0 0  0.05 -0.01875 0  -0.05 -0.05625 0  -0.05 -0.08125000000000002 0  0.05 -0.08125000000000002 0  -0.005208333333333331 -0.04663513209089385 0  -0.008645094114120339 -0.03363601830115741 0  -0.01475694444444444 -0.0282986111111111 0  -0.002375017943413014 -0.02816654106277556 0  0.01949511126133643 -0.01820257885343882 0  -0.01184447766846871 -0.08072281861600734 0  -0.003534735552586339 -0.07499381884380991 0  -7.74643124966494e-05 -0.01210497681433211 0  -0.0189894669743643 -0.08708512345290294 0  -0.03573478741405032 -0.06660859450219164 0  0.04359375 -0.006406250000000002 0  0.03517259397916334 -0.00591284371726238 0  0.01965556274601837 -0.05175082112889391 0  0.0278582381998454 -0.05655080703154879 0  0.02250150625287546 -0.06335204673888746 0  -0.04398521510889171 -0.06244044890584508 0  -0.04409485128436456 -0.05055827494263457 0  -0.03770557434490081 -0.05497182533168162 0  -0.03656642640981419 -0.04343156897269072 0  0.009194419875177533 -0.02206075900562258 0  0.04451331908599852 -0.04636519166703897 0  -0.01485520520633521 -0.0715431557666749 0  0.03646473132841593 -0.0487266977067035 0  0.04405668594067944 -0.05696201317865261 0  -0.005203169869815907 -0.063408387077611 0  -0.02247505510150612 -0.07631841748069951 0  -0.02804244587606518 -0.08423194559419436 0  -0.02935822174816368 -0.01244339991380455 0  -0.03106530920251624 -0.021416390819467 0  -0.02607827560230913 -0.005825920664671352 0  -0.03361300586943999 -0.03280621050224407 0  -0.02666093500983432 -0.02972007434472025 0  0.02285652838955744 -0.08859591663874328 0  0.03188089108105607 -0.03248232675683183 0  0.004333204611837944 -0.09457186870462708 0  -0.02704324561419352 -0.07289471972323462 0  0.007922643115429704 -0.005561362357538799 0  0.0335055138043014 -0.01319301380430141 0  0.03678783220616013 -0.0177615033815196 0  -0.02428736139211932 -0.05463634003970875 0  -0.02991071428571428 -0.06211553281168236 0  0.01197199101441062 -0.06755294829741498 0  0.007340105850365504 -0.07377496925579345 0  0.0155154430127655 -0.07780260757679426 0  0.03658895737846099 -0.06574341599602251 0  -0.02410709817404581 -0.09456977129140082 0  0.01071697988857716 -0.05184278466318995 0  0.01728938824664831 -0.06065342293474459 0  -0.001242172060814776 -0.02269478175693585 0  -0.03834687844188856 -0.07228526864991387 0  0.03504935696459177 -0.08867226036471411 0  0.03924608506562968 -0.08530978616477196 0  0.04446421559415197 -0.08718473081338503 0  0.02679267124047066 -0.0428532372923227 0  -0.007808666799817795 -0.01546134924060014 0  -0.02636641232583814 -0.04890574755055194 0  -0.02267804660897878 -0.04479166666666666 0  0.03489498531895979 -0.05823382415106163 0  1.202993820196636e-05 -0.0552203632715353 0  0.005332838990544739 -0.06042849285714701 0  -0.04436969017718883 -0.02424446436705185 0  -0.01009042364871584 -0.04479166666666667 0  -0.01041666666666667 -0.05520833333333333 0  -0.015625 -0.05 0  -0.01562499999999999 -0.03958333333333334 0  -0.02083333333333332 -0.034375 0  0.04436432681906392 -0.09436432681906393 0  -0.02240513392857143 -0.06518787202380952 0  0.04537177
[...]
<PointData  Vectors="displacement"> 
<DataArray  type="Float64"  Name="displacement"  NumberOfComponents="3" format="ascii">-2.5681688778292012e-22 -5.4623547686910891e-03 0.0000000000000000e+00  -1.6364325936472353e-21 -2.7480934150018381e-04 0.0000000000000000e+00  -6.7541219768783601e-23 -2.6805027869364443e-04 0.0000000000000000e+00  -1.0331959065046062e-21 -5.4644023124533576e-03 0.0000000000000000e+00  3.9256897709795394e-24 -1.3684787491006122e-21 0.0000000000000000e+00  -1.2790113808748452e-22 -6.0933198916215763e-04 0.0000000000000000e+00  -2.2435307626070825e-07 -6.8219679306548335e-03 0.0000000000000000e+00  -4.7471390384095273e-22 -6.0941466475664455e-04 0.0000000000000000e+00  3.4340426458991218e-08 -6.9005139518107375e-04 0.0000000000000000e+00  -2.9888414525992917e-22 -2.1748699916849005e-21 0.0000000000000000e+00  7.6542340688413949e-05 -6.7169481058102914e-03 0.0000000000000000e+00  -2.3383303728513214e-21 -1.9081726498242932e-03 0.0000000000000000e+00  6.0771664226394785e-23 -5.9480624604607909e-22 0.0000000000000000e+00  1.4922951099020388e-21 -1.9081731529219188e-03 0.0000000000000000e+00  -7.6600398341100019e-05 -6.7169560575586719e-03 0.0000000000000000e+00  1.2853381509105158e-05 -3.2238877870216195e-04 0.0000000000000000e+00  3.8538097244397392e-05 -1.1274718452352688e-03 0.0000000000000000e+00  -4.0206826717567695e-05 -1.7153566870445737e-03 0.0000000000000000e+00  -1.0670101443633001e-22 -2.4246233455488698e-04 0.0000000000000000e+00  -1.1315944038122239e-05 -3.0047390882568403e-04 0.0000000000000000e+00  -4.1169306971662880e-23 -2.4235877128927230e-04 0.0000000000000000e+00  6.9309239628796483e-06 -2.0997827560054190e-03 0.0000000000000000e+00  1.3443595176585897e-06 -2.4458428445457367e-04 0.0000000000000000e+00  -2.4665641263235040e-05 -6.6283251956485113e-04 0.0000000000000000e+00  5.0619272338458321e-05 -2.7786122677822085e-03 0.0000000000000000e+00  -3.6868981821499864e-06 -1.3096848477460614e-04 0.0000000000000000e+00  -7.1364920015254267e-06 -3.8255699857480583e-03 0.0000000000000000e+00  -3.2527419755057775e-05 -1.0725109869452111e-03 0.0000000000000000e+00  -1.4571329922554239e-05 -4.2463155868462663e-04 0.0000000000000000e+00  -5.0702243318264791e-05 -3.1268247529665878e-03 0.0000000000000000e+00  1.4570436705535110e-22 -1.2529238169389889e-04 0.0000000000000000e+00  2.8455491250247074e-24 -2.0150973689441860e-21 0.0000000000000000e+00  -6.2233181083128917e-06 -1.5613322738728842e-04 0.0000000000000000e+00  6.3576187292025023e-06 -1.5976965381408277e-04 0.0000000000000000e+00  -3.7890279730213641e-05 -6.7971046825439762e-03 0.0000000000000000e+00  1.4648625429583728e-22 -6.8182692908607904e-21 0.0000000000000000e+00  5.8728991275754420e-06 -1.6809729699988134e-04 0.0000000000000000e+00  9.5975346083923365e-06 -4.2572094800768736e-04 0.0000000000000000e+00  2.1307413133006207e-05 -5.6024503871580521e-04 0.0000000000000000e+00  -1.9550298552395341e-05 -1.0705989667328887e-03 0.0000000000000000e+00  -1.0416049393513222e-05 -4.5686180231736866e-04 0.0000000000000000e+00  2.0992358276521001e-05 -7.2855167460298201e-04 0.0000000000000000e+00  3.4582497493929579e-05 -2.1536114058097609e-03 0.0000000000000000e+00  3.9270793065492829e-05 -1.4457254854124673e-03 0.0000000000000000e+00  1.0892222673414599e-22 -3.8573331719176740e-04 0.0000000000000000e+00  1.9463641994497617e-06 -4.0001856984003357e-03 0.0000000000000000e+00  9.4171495314768648e-22 -3.4765752114913630e-03 0.0000000000000000e+00  -1.1577254352193665e-04 -6.5270525120798692e-03 0.0000000000000000e+00  8.5442477089370871e-06 -2.8393687173889666e-04 0.0000000000000000e+00  1.1028798984962518e-05 -3.9806250004366340e-03 0.0000000000000000e+00  1.1837284008853192e-05 -1.1350410168821817e-03 0.0000000000000000e+00  -1.3365970111439303e-22 -3.8580788432370010e-04 0.0000000000000000e+00  1.1590150589478207e-04 -6.5271777799691148e-03 0.0000000000000000e+00  -1.3813503696969822e-22 -1.0419169746835168e-03 0.0000000000000000e+00  -8.2492412380915467e-23 2.3097875466656332e-21 0.0000000000000000e+00  3.7865493134074744e-05 -6.7973567758207202e-03 0.0000000000000000e+00  -1.8538450709339323e-21 -3.4764628330918100e-03 0.0000000000000000e+00  -2.0914888079940673e-22 -1.8799899397699482e-21 0.0000000000000000e+00  -5.0669200208137787e-23 -1.0418656895618110e-03 0.0000000000000000e+00  5.8475890841589102e-23 -1.2550730843054132e-04 0.0000000000000000e+00  -1.7848914385722561e-05 -1.9196377348468315e-03 0.0000000000000000e+00  1.6825106476931188e-06 -1.0770048408770172e-04 0.0000000000000000e+00  -5.4319799305835088e-06 -2.5681209779638810e-04 0.0000000000000000e+00  -1.0328611003072664e-05 -2.7859075821353270e-04 0.0000000000000000e+00  2.2720544082504520e-05 -8.2502815289418072e-04 0.0000000000000000e+00  1.9328959167884267e-05 -4.9516184226128647e-04 0.0000000000000000e+00  -1.9279387981138461e-05 -6.4374216617848752e-04 0.0000000000000000e+00  7.6033668241509106e-06 -2.7983599499632696e-04 0.0000000000000000e+00  -7.1113769511104312e-06 -1.7685398918975751e-04 0.0000000000000000e+00  -1.1896768580137491e-05 -4.0999423621834634e-03 0.0000000000000000e+00  -4.9702419893503254e-05 -1.8020005040828733e-03 0.0000000000000000e+00  -1.7743852912187619e-05 -4.3981304355514137e-04 0.0000000000000000e+00  -1.4904823682326233e-05 -6.8279232578772415e-04 0.0000000000000000e+00  -3.3737195850539859e-05 -1.0397434287422597e-03 0.0000000000000000e+00  1.7187004232417408e-08 -4.6093596158308723e-04 0.0000000000000000e+00  -3.5452247613711672e-06 -3.1472125497516664e-03 0.0000000000000000e+00  -3.1417208705932027e-05 -8.1303124412420910e-04 0.0000000000000000e+00  4.7534942464445491e-05 -3.9275277247092181e-03 0.0000000000000000e+00  4.4802695377792311e-05 -2.2772633281687841e-03 0.0000000000000000e+00  4.8304498030323508e-05 -1.7586280213050096e-03 0.0000000000000000e+00  -6.8841288496288955e-06 -3.1879948519939372e-04 0.0000000000000000e+00  1.0941861308441772e-05 -4.1109468694652465e-04 0.0000000000000000e+00  2.9838274686271417e-05 -1.3433147373889986e-03 0.0000000000000000e+00  5.3498769547294693e-06 -4.5372959816187180e-03 0.0000000000000000e+00  2.7846229269615998e-05 -7.0940049921336087e-04 0.0000000000000000e+00  -9.7806890046081287e-07 -1.5238527843380262e-04 0.0000000000000000e+00  2.9551019581964545e-06 -7.2068176258694707e-05 0.0000000000000000e+00  3.9045532650593305e-06 -8.5789221125525037e-05 0.0000000000000000e+00  4.1450167213502609e-06 -1.8140602125295228e-04 0.0000000000000000e+00  3.8116216409578196e-06 -9.1511065818610665e-05 0.0000000000000000e+00  -3.1086045917336864e-06 -6.8075956660925595e-05 0.0000000000000000e+00  -3.8232618895087538e-06 -9.0616829864460666e-05 0.0000000000000000e+00  -4.1030500597863099e-06 -1.8153493846580134e-04 0.0000000000000000e+00  -4.1396489645975812e-05 -2.6332222855194537e-03 0.0000000000000000e+00  -4.5516617100275721e-05 -4.2209714498688414e-03 0.0000000000000000e+00  -5.1684379548404953e-06 -1.3697738695336976e-03 0.0000000000000000e+00  -2.7062517476384954e-06 -6.5171749027052612e-05 0.0000000000000000e+00  -3.2886050194874905e-05 -1.5869562893766609e-03 0.0000000000000000e+00  -4.3415350352143195e-05 -2.5847928265855893e-03 0.0000000000000000e+00  3.0266276263449122e-06 -4.8162075708117090e-03 0.0000000000000000e+00  -2.7695359630544398e-05 -2.5254504499829756e-03 0.0000000000000000e+00  -1.0805765016397416e-06 -6.4338371407778982e-05 0.0000000000000000e+00  3.3158020144180196e-06 -4.8422981448131303e-03 0.0000000000000000e+00  -8.7545427948788930e-06 -4.8081153546836549e-04 0.0000000000000000e+00  -2.2469533903194305e-06 -3.3317948780873575e-04 0.0000000000000000e+00  1.3559864804322529e-05 -5.7881662041362803e-04 0.0000000000000000e+00  1.6008418723313292e-05 -4.0893603340947304e-04 0.0000000000000000e+00  1.7072952265393914e-05 -3.1196910740118964e-03 0.0000000000000000e+00  -2.2589750950914947e-05 -5.6262141725708220e-04 0.0000000000000000e+00  9.4817936022094635e-06 -2.4132348975695693e-04 0.0000000000000000e+00  -4.1764057066424071e-05 -1.2342497438416293e-03 0.0000000000000000e+00  -1.7704874172629232e-22 -7.8764283774865882e-04 0.0000000000000000e+00  4.1940871742558248e-06 -1.9761519972760441e-04 0.0000000000000000e+00  9.2183628972371481e-06 -2.4575622142224520e-04 0.0000000000000000e+00  6.7785677739983229e-06 -1.6207227260954589e-04 0.0000000000000000e+00  3.9716985168497457e-06 -3.3697565372775665e-04 0.0000000000000000e+00  1.2303905840253419e-05 -3.6146096815266364e-04 0.0000000000000000e+00  7.8624067478600352e-06 -5.5977169903748938e-04 0.0000000000000000e+00  5.7241237305938385e-05 -6.7658501237340520e-03 0.0000000000000000e+00  2.9228552984291393e-05 -7.7030826109327139e-04 0.0000000000000000e+00  -1.5993493470825620e-06 -9.6138558395128320e-04 0.0000000000000000e+00  1.1189493253662905e-21 -4.5501029980954582e-03 0.0000000000000000e+00  3.6028214532811676e-05 -1.0651963633722366e-03 0.0000000000000000e+00  1.9863495420673138e-22 -3.0871994390286776e-04 0.0000000000000000e+00  1.6024280246579978e-05 -5.3805701946296920e-04 0.0000000000000000e+00  1.1339752176809598e-05 -7.5393486939835815e-04 0.0000000000000000e+00  2.9853187011786601e-05 -9.6104366644251496e-04 0.0000000000000000e+00  -7.7116810883884309e-06 -2.2982134699022443e-04 0.0000000000000000e+00  2.2386776598719176e-05 -1.8550699408625333e-03 0.0000000000000000e+00  -6.6043636057781283e-06 -5.6035928521477169e-04 0.0000000000000000e+00  -3.0346909194983549e-05 -1.3507625069987042e-03 0.0000000000000000e+00  -1.7388932911009013e-05 -5.4925119042118832e-04 0.0000000000000000e+00  -2.4260781116103600e-05 -8.3832045303611788e-04 0.0000000000000000e+00  -1.3582114809076411e-05 -3.9591265778145642e-04 0.0000000000000000e+00  -7.7437072264784811e-06 -3.4675525267229923e-04 0.0000000000000000e+00  4.3680179971411128e-05 -2.4521377463942594e-03 0.0000000000000000e+00  1.2379840805995731e-05 -4.9510468557754806e-03 0.0000000000000000e+00  -1.7302048311070433e-05 -8.3214357012393876e-04 0.0000000000000000e+00  4.0540344935745624e-05 -1.5665418596030639e-03 0.0000000000000000e+00  -8.0420171694556870e-06 -4.8149398574819958e-03 0.0000000000000000e+00  -5.6937131833014971e-05 -6.7662279719049763e-03 0.0000000000000000e+00  -1.3648448090074406e-05 -3.3998657801102670e-04 0.0000000000000000e+00  -8.6017583306270202e-06 -2.1255263691614111e-04 0.0000000000000000e+00  5.0997419274633295e-05 -2.0018701201832611e-03 0.0000000000000000e+00  2.1486437383578856e-05 -1.1029594902726414e-03 0.0000000000000000e+00  -1.3115826693566016e-04 -6.3163358830394924e-03 0.0000000000000000e+00  2.6202624233206484e-05 -1.6502428443045205e-03 0.0000000000000000e+00  -4.9539294191287482e-05 -2.1566495355016643e-03 0.0000000000000000e+00  7.2443884055961818e-22 -4.8169309245173848e-04 0.0000000000000000e+00  -4.6482252517309708e-06 -1.0558745742763444e-04 0.0000000000000000e+00  -7.1396608671052032e-06 -2.1812696778561355e-04 0.0000000000000000e+00  -2.4039068219559856e-06 -5.1649421474648655e-03 0.0000000000000000e+00  5.4997128747190886e-06 -2.9411461068953081e-03 0.0000000000000000e+00  1.8486161086096064e-23 0.0000000000000000e+00 0.0000000000000000e+00  3.9961558576676673e-22 -7.5688585909389024e-05 0.0000000000000000e+00  -1.4586746328984532e-05 -2.6829798830375535e-03 0.0000000000000000e+00  -4.5864842920588360e-06 -2.4743119940330148e-04 0.0000000000000000e+00  4.1677417017635011e-05 -3.0241878182293348e-03 0.0000000000000000e+00  -3.2084560132697999e-08 -8.9827734600729658e-05 0.0000000000000000e+00  -2.0273723863659697e-05 -1.1499555831838172e-03 0.0000000000000000e+00  -2.6218866421055553e-05 -3.1928342487045165e-03 0.0000000000000000e+00  -8.1578490740243208e-23 1.6018262037694697e-21 0.0000000000000000e+00  -5.6602698000609863e-22 -7.5971718959359923e-05 0.0000000000000000e+00  1.3151214313293375e-04 -6.3164812120535263e-03 0.0000000000000000e+00  -8.3544801438079371e-21 -4.5503686263113491e-03 0.0000000000000000e+00  1.1664449868424101e-05 -1.5488992905839511e-03 0.0000000000000000e+00  2.0598515242139815e-05 -9.5325257352575036e-04 0.0000000000000000e+00  2.5506287969041213e-06 -5.7479931160100513e-05 0.0000000000000000e+00  2.0082576217695669e-06 -6.7416308389314485e-05 0.0000000000000000e+00  1.7581766550034265e-23 -1.1252330592021929e-21 0.0000000000000000e+00  3.1074312171722189e-05 -3.4915542936023243e-03 0.0000000000000000e+00  -2.3563168852252125e-05 -5.2876825477877207e-03 0.0000000000000000e+00  5.9703211109955449e-06 -3.2980802059005588e-04 0.0000000000000000e+00  1.2147409702664289e-05 -3.2056011463208996e-04 0.0000000000000000e+00  4.5214453670572285e-06 -2.4649236555869043e-04 0.0000000000000000e+00  7.2901271762114959e-06 -2.1727473076731287e-04 0.0000000000000000e+00  1.4530210915463547e-06 -1.6859655693819318e-04 0.0000000000000000e+00  1.0469693224621694e-05 -5.0825823828993637e-03 0.0000000000000000e+00  -7.0402292273002363e-22 -7.8781027322572385e-04 0.0000000000000000e+00  3.6792602394629695e-06 -1.3663194415405053e-04 0.0000000000000000e+00  -1.9320421135258297e-06 -6.1378439604498712e-05 0.0000000000000000e+00  3.1938921873628522e-23 -3.0880357936636100e-04 0.0000000000000000e+00  9.6332231792934007e-05 -6.6432748338186793e-03 0.0000000000000000e+00  7.0783915492278755e-23 1.5100568638352801e-21 0.0000000000000000e+00  -9.6169380520567794e-05 -6.6422740228734489e-03 0.0000000000000000e+00  -8.1555726072403020e-22 -1.4036424482761775e-03 0.0000000000000000e+00  -1.4328373555964108e-21 -1.4035290361704058e-03 0.0000000000000000e+00  6.4654325794178134e-23 -2.4409413087055249e-21 0.0000000000000000e+00  4.2821739746189483e-23 -1.9869287242231921e-21 0.0000000000000000e+00  -1.0580494526266595e-22 1.7764167313756820e-21 0.0000000000000000e+00  -4.1940401372626457e-21 -2.5908453723490544e-03 0.0000000000000000e+00  -3.3827005363456553e-23 -1.6236962574459145e-21 0.0000000000000000e+00  1.8567730660313842e-05 -6.8156412642595941e-03 0.0000000000000000e+00  -1.9070355488523470e-05 -6.8158490284294495e-03 0.0000000000000000e+00  0.0000000000000000e+00 -2.5906534967118752e-03 0.0000000000000000e+00  0.0000000000000000e+00 -4.8168042928450194e-04 0.0000000000000000e+00  -3.2774200567596878e-22 -1.8202570898710860e-04 0.0000000000000000e+00  2.0150140519217471e-22 -1.8188191063473862e-04 0.0000000000000000e+00  -8.5834129287922394e-06 -7.9111867125714313e-04 0.0000000000000000e+00  -1.7839855896223507e-05 -1.4199163733965676e-03 0.0000000000000000e+00  -2.9817646612780622e-05 -1.8206253709037003e-03 0.0000000000000000e+00  -4.8873654837294998e-06 -1.8611898682072909e-03 0.0000000000000000e+00  2.9015861962337311e-05 -2.9631942979227422e-03 0.0000000000000000e+00  -5.0325143480842955e-06 -1.9394145145237450e-04 0.0000000000000000e+00  -2.1088122111467311e-06 -2.5919896866149166e-04 0.0000000000000000e+00  -1.4972981468575665e-07 -4.0303394611584855e-03 0.0000000000000000e+00  -4.8825794837196484e-06 -1.2675086168000181e-04 0.0000000000000000e+00  -1.1280564682744395e-05 -3.3959667704536926e-04 0.0000000000000000e+00  4.0494263952384373e-05 -4.7185314688471527e-03 0.0000000000000000e+00  -8.5590086256119847e-06 -5.0713372207110887e-03 0.0000000000000000e+00  2.2598374729549300e-05 -6.2052004027564908e-04 0.0000000000000000e+00  2.0438553829632698e-05 -5.0120397650838119e-04 0.0000000000000000e+00  1.5567708637240747e-05 -3.9723700675762180e-04 0.0000000000000000e+00  -6.3663543979541134e-06 -3.8810911217318050e-04 0.0000000000000000e+00  -1.0053924951363431e-05 -5.9932150573129266e-04 0.0000000000000000e+00  -1.5959310360869265e-05 -5.1433627987371676e-04 0.0000000000000000e+00  -2.6641328353985248e-05 -8.2093289059198982e-04 0.0000000000000000e+00  1.6271819405394584e-05 -2.4968507608622158e-03 0.0000000000000000e+00  1.1116337536990784e-05 -7.0877067864274709e-04 0.0000000000000000e+00  -9.0187525373913132e-06 -2.9597449955476833e-04 0.0000000000000000e+00  2.1832880977781469e-05 -6.5744933774097326e-04 0.0000000000000000e+00  7.7991539481481520e-06 -4.7148373909125827e-04 0.0000000000000000e+00  -4.8865337771812766e-06 -4.1147971589179969e-04 0.0000000000000000e+00  -9.2596395028268233e-06 -2.3709283664012510e-04 0.0000000000000000e+00  -6.5226931930007272e-06 -1.5331240044103969e-04 0.0000000000000000e+00  -2.8913819442766090e-05 -3.8119847953253972e-03 0.0000000000000000e+00  -5.2139575486505533e-05 -2.4334407474862728e-03 0.0000000000000000e+00  2.3218396302562226e-05 -5.2232083097886461e-03 0.0000000000000000e+00  -4.2532700476709059e-05 -1.3616671528929925e-03 0.0000000000000000e+00  -4.6281894756081089e-05 -1.6339472824492668e-03 0.0000000000000000e+00  4.7366840513062293e-06 -1.1103839738335920e-04 0.0000000000000000e+00  4.4182526995956895e-05 -1.3941123651518977e-03 0.0000000000000000e+00  6.4396592257952972e-07 -5.3456325014196259e-05 0.0000000000000000e+00  -1.0913208520363650e-05 -2.7218190507339750e-04 0.0000000000000000e+00  -1.0744917625521188e-05 -5.3921850168545454e-03 0.0000000000000000e+00  4.2271641574262909e-05 -3.6195908772708825e-03 0.0000000000000000e+00  5.4114970091000210e-05 -2.8462595196577936e-03 0.0000000000000000e+00  -2.2002974257010496e-05 -5.4576415193198318e-04 0.0000000000000000e+00  -1.6104297801363556e-05 -4.0607737431322172e-04 0.0000000000000000e+00  8.9345219868673546e-06 -3.4838594328768960e-04 0.0000000000000000e+00  4.4809400724615400e-06 -2.7264123014238026e-04 0.0000000000000000e+00  7.1025859497731684e-06 -2.2413523873517655e-04 0.0000000000000000e+00  1.1155073544252083e-05 -3.4968065051377056e-04 0.0000000000000000e+00  -2.4573224742098467e-06 -5.2524065659023554e-05 0.0000000000000000e+00  1.4377685742574075e-05 -6.3373641047257344e-04 0.0000000000000000e+00  1.5245600436491330e-05 -4.4560826992937302e-04 0.0000000000000000e+00  -2.2131648819828079e-06 -2.4327822276708228e-03 0.0000000000000000e+00  -7.9080163721131136e-06 -2.7267536507641355e-04 0.0000000000000000e+00  4.5985376486998553e-06 -1.0920913929014905e-04 0.0000000000000000e+00  4.9135198884765032e-06 -1.4212856259170916e-04 0.0000000000000000e+00  3.3228039167474917e-06 -1.2619776661765975e-04 0.0000000000000000e+00  3.3432009604225890e-05 -8.7620467367385292e-04 0.0000000000000000e+00  -7.4787537008895231e-06 -3.4368394102500689e-03 0.0000000000000000e+00  -2.7259109702549617e-05 -6.7857547096256544e-04 0.0000000000000000e+00  -3.0278265264392788e-05 -8.1848724732056389e-04 0.0000000000000000e+00  1.6198696192644908e-05 -4.6006991767715227e-04 0.0000000000000000e+00  1.1834274360620528e-08 -5.6165416168153250e-04 0.0000000000000000e+00  5.5800464361019186e-06 -4.5991768226000046e-04 0.0000000000000000e+00  -2.7986605560253376e-05 -1.9969386907411155e-03 0.0000000000000000e+00  -1.6850712434189869e-05 -8.4959051536944558e-04 0.0000000000000000e+00  -1.2552833509591906e-05 -5.5608719224349481e-04 0.0000000000000000e+00  -2.0735763535517466e-05 -6.7409392060948238e-04 0.0000000000000000e+00  -2.7680060650658723e-05 -1.0574632904437537e-03 0.0000000000000000e+00  -3.7731860753645797e-05 -1.3294115747733177e-03 0.0000000000000000e+00  3.5474072756138769e-06 -5.8602241392506569e-05 0.0000000000000000e+00  -1.4496720153507709e-05 -3.7136558434859622e-04 0.0000000000000000e+00  1.1673396445102790e-05 -8.8776254981610221e-04 0.0000000000000000e+00  -1.7332681306863451e-05 -4.7205758797172535e-04 0.0000000000000000e+00  2.0226756012425865e-05 -1.3334657742832612e-03 0.0000000000000000e+00  3.1959758246040950e-05 -1.7190123685290049e-03 0.0000000000000000e+00  3.6059520632749289e-05 -1.2418988329411008e-03 0.0000000000000000e+00  5.6945480610780118e-06 -3.9249630465724365e-04 0.0000000000000000e+00  -3.0973582088131967e-06 -2.0729547642963535e-04 0.0000000000000000e+00  -6.2371437038970814e-06 -1.7651034296309312e-04 0.0000000000000000e+00  -3.5542461168168167e-05 -9.6758556835589054e-04 0.0000000000000000e+00  -2.5153112211991030e-05 -6.6705196759761921e-04 0.0000000000000000e+00  -3.4305118990980153e-05 -9.6172180968331629e-04 0.0000000000000000e+00  -1.9756423205432904e-07 -1.9934433555913000e-04 0.0000000000000000e+00 