<?xml version="1.0"?>
<VTKFile type="UnstructuredGrid"  version="0.1"  >
<UnstructuredGrid>
<Piece  NumberOfPoints="1661" NumberOfCells="3200">
<Points>
<DataArray  type="Float64"  NumberOfComponents="3"  format="ascii">-0.25 -1 0  -0.225 -1 0  -0.2 -1 0  -0.175 -1 0  -0.15 -1 0  -0.125 -1 0  -0.1 -1 0  -0.07500000000000001 -1 0  -0.04999999999999999 -1 0  -0.02499999999999999 -1 0  0 -1 0  0.02500000000000002 -1 0  0.04999999999999999 -1 0  0.07500000000000001 -1 0  0.09999999999999998 -1 0  0.125 -1 0  0.15 -1 0  0.175 -1 0  0.2 -1 0  0.225 -1 0  0.25 -1 0  -0.25 -0.975 0  -0.225 -0.975 0  -0.2 -0.975 0  -0.175 -0.975 0  -0.15 -0.975 0  -0.125 -0.975 0  -0.1 -0.975 0  -0.07500000000000001 -0.975 0  -0.04999999999999999 -0.975 0  -0.02499999999999999 -0.975 0  0 -0.975 0  0.02500000000000002 -0.975 0  0.04999999999999999 -0.975 0  0.07500000000000001 -0.975 0  0.09999999999999998 -0.975 0  0.125 -0.975 0  0.15 -0.975 0  0.175 -0.975 0  0.2 -0.975 0  0.225 -0.975 0  0.25 -0.975 0  -0.25 -0.95 0  -0.225 -0.95 0  -0.2 -0.95 0  -0.175 -0.95 0  -0.15 -0.95 0  -0.125 -0.95 0  -0.1 -0.95 0  -0.07500000000000001 -0.95 0  -0.04999999999999999 -0.95 0  -0.02499999999999999 -0.95 0  0 -0.95 0  0.02500000000000002 -0.95 0  0.04999999999999999 -0.95 0  0.07500000000000001 -0.95 0  0.09999999999999998 -0.95 0  0.125 -0.95 0  0.15 -0.95 0  0.175 -0.95 0  0.2 -0.95 0  0.225 -0.95 0  0.25 -0.95 0  -0.25 -0.925 0  -0.225 -0.925 0  -0.2 -0.925 0  -0.175 -0.925 0  -0.15 -0.925 0  -0.125 -0.925 0  -0.1 -0.925 0  -0.07500000000000001 -0.925 0  -0.04999999999999999 -0.925 0  -0.02499999999999999 -0.925 0  0 -0.925 0  0.02500000000000002 -0.925 0  0.04999999999999999 -0.925 0  0.07500000000000001 -0.925 0  0.09999999999999998 -0.925 0  0.125 -0.925 0  0.15 -0.925 0  0.175 -0.925 0  0.2 -0.925 0  0.225 -0.925 0  0.25 -0.925 0  -0.25 -0.9 0  -0.225 -0.9 0  -0.2 -0.9 0  -0.175 -0.9 0  -0.15 -0.9 0  -0.125 -0.9 0  -0.1 -0.9 0  -0.07500000000000001 -0.9 0  -0.04999999999999999 -0.9 0  -0.02499999999999999 -0.9 0  0 -0.9 0  0.02500000000000002 -0.9 0  0.04999999999999999 -0.9 0  0.07500000000000001 -0.9 0  0.09999999999999998 -0.9 0  0.125 -0.9 0  0.15 -0.9 0  0.175 -0.9 0  0.2 -0.9 0  0.225 -0.9 0  0.25 -0.9 0  -0.25 -0.875 0  -0.225 -0.875 0  -0.2 -0.875 0  -0.175 -0.875 0  -0.15 -0.875 0  -0.125 -0.875 0  -0.1 -0.875 0  -0.07500000000000001 -0.875 0  -0.04999999999999999 -0.875 0  -0.02499999999999999 -0.875 0  0 -0.875 0  0.02500000000000002 -0.875 0  0.04999999999999999 -0.875 0  0.07500000000000001 -0.875 0  0.09999999999999998 -0.875 0  0.125 -0.875 0  0.15 -0.875 0  0.175 -0.875 0  0.2 -0.875 0  0.225 -0.875 0  0.25 -0.875 0  -0.25 -0.85 0  -0.225 -0.85 0  -0.2 -0.85 0  -0.175 -0.85 0  -0.15 -0.85 0  -0.125 -0.85 0  -0.1 -0.85 0  -0.07500000000000001 -0.85 0  -0.04999999999999999 -0.85 0  -0.02499999999999999 -0.85 0  0 -0.85 0  0.02500000000000002 -0.85 0  0.04999999999999999 -0.85 0  0.07500000000000001 -0.85 0  0.09999999999999998 -0.85 0  0.125 -0.85 0  0.15 -0.85 0  0.175 -0.85 0  0.2 -0.85 0  0.225 -0.85 0  0.25 -0.85 0  -0.25 -0.825 0  -0.225 -0.825 0  -0.2 -0.825 0  -0.175 -0.825 0  -0.15 -0.825 0  -0.125 -0.825 0  -0.1 -0.825 0  -0.07500000000000001 -0.825 0  -0.04999999999999999 -0.825 0  -0.02499999999999999 -0.825 0  0 -0.825 0  0.02500000000000002 -0.825 0  0.04999999999999999 -0.825 0  0.07500000000000001 -0.825 0  0.09999999999999998 -0.825 0  0.125 -0.825 0  0.15 -0.825 0  0.175 -0.825 0  0.2 -0.825 0  0.225 -0.825 0  0.25 -0.825 0  -0.25 -0.8 0  -0.225 -0.8 0  -0.2 -0.8 0  -0.175 -0.8 0  -0.15 -0.8 0  -0.125 -0.8 0  -0.1 -0.8 0  -0.07500000000000001 -0.8 0  -0.04999999999999999 -0.8 0  -0.02499999999999999 -0.8 0  0 -0.8 0  0.02500000000000002 -0.8 0  0.04999999999999999 -0.8 0  0.07500000000000001 -0.8 0  0.09999999999999998 -0.8 0  0.125 -0.8 0  0.15 -0.8 0  0.175 -0.8 0  0.2 -0.8 0  0.225 -0.8 0  0.25 -0.8 0  -0.25 -0.775 0  -0.225 -0.775 0  -0.2 -0.775 0  -0.175 -0.775 0  -0.15 -0.775 0  -0.125 -0.775 0  -0.1 -0.775 0  -0.07500000000000001 -0.775 0  -0.04999999999999999 -0.775 0  -0.02499999999999999 -0.775 0  0 -0.775 0  0.02500000000000002 -0.775 0  0.04999999999999999 -0.775 0  0.07500000000000001 -0.775 0  0.09999999999999998 -0.775 0  0.125 -0.775 0  0.15 -0.775 0  0.175 -0.775 0  0.2 -0.775 0  0.225 -0.775 0  0.25 -0.775 0  -0.25 -0.75 0  -0.225 -0.75 0  -0.2 -0.75 0  -0.175 -0.75 0  -0.15 -0.75 0  -0.125 -0.75 0  -0.1 -0.75 0  -0.07500000000000001 -0.75 0  -0.04999999999999999 -0.75 0  -0.02499999999999999 -0.75 0  0 -0.75 0  0.02500000000000002 -0.75 0  0.04999999999999999 -0.75 0  0.07500000000000001 -0.75 0  0.09999999999999998 -0.75 0  0.125 -0.75 0  0.15 -0.75 0  0.175 -0.75 0  0.2 -0.75 0  0.225 -0.75 0  0.25 -0.75 0  -0.25 -0.725 0  -0.225 -0.725 0  -0.2 -0.725 0  -0.175 -0.725 0  -0.15 -0.725 0  -0.125 -0.725 0  -0.1 -0.725 0  -0.07500000000000001 -0.725 0  -0.04999999999999999 -0.725 0  -0.02499999999999999 -0.725 0  0 -0.725 0  0.02500000000000002 -0.725 0  0.04999999999999999 -0.725 0  0.07500000000000001 -0.725 0  0.09999999999999998 -0.725 0  0.125 -0.725 0  0.15 -0.725 0  0.175 -0.725 0  0.2 -0.725 0  0.225 -0.725 0  0.25 -0.725 0  -0.25 -0.7 0  -0.225 -0.7 0  -0.2 -0.7 0  -0.175 -0.7 0  -0.15 -0.7 0  -0.125 -0.7 0  -0.1 -0.7 0  -0.07500000000000001 -0.7 0  -0.04999999999999999 -0.7 0  -0.02499999999999999 -0.7 0  0 -0.7 0  0.02500000000000002 -0.7 0  0.04999999999999999 -0.7 0  0.07500000000000001 -0.7 0  0.09999999999999998 -0.7 0  0.125 -0.7 0  0.15 -0.7 0  0.175 -0.7 0  0.2 -0.7 0  0.225 -0.7 0  0.25 -0.7 0  -0.25 -0.675 0  -0.225 -0.675 0  -0.2 -0.675 0  -0.175 -0.675 0  -0.15 -0.675 0  -0.125 -0.675 0  -0.1 -0.675 0  -0.07500000000000001 -0.675 0  -0.04999999999999999 -0.675 0  -0.02499999999999999 -0.675 0  0 -0.675 0  0.02500000000000002 -0.675 0  0.04999999999999999 -0.675 0  0.07500000000000001 -0.675 0  0.09999999999999998 -0.675 0  0.125 -0.675 0  0.15 -0.675 0  0.175 -0.675 0  0.2 -0.675 0  0.225 -0.675 0  0.25 -0.675 0  -0.25 -0.65 0  -0.225 -0.65 0  -0.2 -0.65 0  -0.175 -0.65 0  -0.15 -0.65 0  -0.125 -0.65 0  -0.1 -0.65 0  -0.07500000000000001 -0.65 0  -0.04999999999999999 -0.65 0  -0.02499999999999999 -0.65 0  0 -0.65 0  0.02500000000000002 -0.65 0  0.04999999999999999 -0.65 0  0.07500000000000001 -0.65 0  0.09999999999999998 -0.65 0  0.125 -0.65 0  0.15 -0.65 0  0.175 -0.65 0  0.2 -0.65 0  0.225 -0.65 0  0.25 -0.65 0  -0.25 -0.625 0  -0.225 -0.625 0  -0.2 -0.625 0  -0.175 -0.625 0  -0.15 -0.625 0  -0.125 -0.625 0  -0.1 -0.625 0  -0.07500000000000001 -0.625 0  -0.04999999999999999 -0.625 0  -0.02499999999999999 -0.625 0  0 -0.625 0  0.02500000000000002 -0.625 0  0.04999999999999999 -0.625 0  0.07500000000000001 -0.625 0  0.09999999999999998 -0.625 0  0.125 -0.625 0  0.15 -0.625 0  0.175 -0.625 0  0.2 -0.625 0  0.225 -0.625 0  0.25 -0.625 0  -0.25 -0.6 0  -0.225 -0.6 0  -0.2 -0.6 0  -0.175 -0.6 0  -0.15 -0.6 0  -0.125 -0.6 0  -0.1 -0.6 0  -0.07500000000000001 -0.6 0  -0.04999999999999999 -0.6 0  -0.02499999999999999 -0.6 0  0 -0.6 0  0.02500000000000002 -0.6 0  0.04999999999999999 -0.6 0  0.07500000000000001 -0.6 0  0.09999999999999998 -0.6 0  0.125 -0.6 0  0.15 -0.6 0  0.175 -0.6 0  0.2 -0.6 0  0.225 -0.6 0  0.25 -0.6 0  -0.25 -0.575 0  -0.225 -0.575 0  -0.2 -0.575 0  -0.175 -0.575 0  -0.15 -0.575 0  -0.125 -0.575 0  -0.1 -0.575 0  -0.07500000000000001 -0.575 0  -0.04999999999999999 -0.575 0  -0.02499999999999999 -0.575 0  0 -0.575 0  0.02500000000000002 -0.575 0  0.04999999999999999 -0.575 0  0.07500000000000001 -0.575 0  0.09999999999999998 -0.575 0  0.125 -0.575 0  0.15 -0.575 0  0.175 -0.575 0  0.2 -0.575 0  0.225 -0.575 0  0.25 -0.575 0  -0.25 -0.55 0  -0.225 -0.55 0  -0.2 -0.55 0  -0.175 -0.55 0  -0.15 -0.55 0  -0.125 -0.55 0  -0.1 -0.55 0  -0.07500000000000001 -0.55 0  -0.04999999999999999 -0.55 0  -0.02499999999999999 -0.55 0  0 -0.55 0  0.02500000000000002 -0.55 0  0.04999999999999999 -0.55 0  0.07500000000000001 -0.55 0  0.09999999999999998 -0.55 0  0.125 -0.55 0  0.15 -0.55 0  0.175 -0.55 0  0.2 -0.55 0  0.225 -0.55 0  0.25 -0.55 0  -0.25 -0.525 0  -0.225 -0.525 0  -0.2 -0.525 0  -0.175 -0.525 0  -0.15 -0.525 0  -0.125 -0.525 0  -0.1 -0.525 0  -0.07500000000000001 -0.525 0  -0.04999999999999999 -0.525 0  -0.02499999999999999 -0.525 0  0 -0.525 0  0.02500000000000002 -0.525 0  0.04999999999999999 -0.525 0  0.07500000000000001 -0.525 0  0.09999999999999998 -0.525 0  0.125 -0.525 0  0.15 -0.525 0  0.175 -0.525 0  0.2 -0.525 0  0.225 -0.525 0  0.25 -0.525 0  -0.25 -0.5 0  -0.225 -0.5 0  -0.2 -0.5 0  -0.175 -0.5 0  -0.15 -0.5 0  -0.125 -0.5 0  -0.1 -0.5 0  -0.07500000000000001 -0.5 0  -0.04999999999999999 -0.5 0  -0.02499999999999999 -0.5 0  0 -0.5 0  0.02500000000000002 -0.5 0  0.04999999999999999 -0.5 0  0.07500000000000001 -0.5 0  0.09999999999999998 -0.5 0  0.125 -0.5 0  0.15 -0.5 0  0.175 -0.5 0  0.2 -0.5 0  0.225 -0.5 0  0.25 -0.5 0  -0.25 -0.475 0  -0.225 -0.475 0  -0.2 -0.475 0  -0.175 -0.475 0  -0.15 -0.475 0  -0.125 -0.475 0  -0.1 -0.475 0  -0.07500000000000001 -0.475 0  -0.04999999999999999 -0.475 0  -0.02499999999999999 -0.475 0  0 -0.475 0  0.02500000000000002 -0.475 0  0.04999999999999999 -0.475 0  0.07500000000000001 -0.475 0  0.09999999999999998 -0.475 0  0.125 -0.475 0  0.15 -0.475 0  0.175 -0.475 0  0.2 -0.475 0  0.225 -0.475 0  0.25 -0.475 0  -0.25 -0.45 0  -0.225 -0.45 0  -0.2 -0.45 0  -0.175 -0.45 0  -0.15 -0.45 0  -0.125 -0.45 0  -0.1 -0.45 0  -0.07500000000000001 -0.45 0  -0.04999999999999999 -0.45 0  -0.02499999999999999 -0.45 0  0 -0.45 0  0.02500000000000002 -0.45 0  0.04999999999999999 -0.45 0  0.07500000000000001 -0.45 0  0.09999999999999998 -0.45 0  0.125 -0.45 0  0.15 -0.45 0  0.175 -0.45 0  0.2 -0.45 0  0.225 -0.45 0  0.25 -0.45 0  -0.25 -0.425 0  -0.225 -0.425 0  -0.2 -0.425 0  -0.175 -0.425 0  -0.15 -0.425 0  -0.125 -0.425 0  -0.1 -0.425 0  -0.07500000000000001 -0.425 0  -0.04999999999999999 -0.425 0  -0.02499999999999999 -0.425 0  0 -0.425 0  0.02500000000000002 -0.425 0  0.04999999999999999 -0.425 0  0.07500000000000001 -0.425 0  0.
[...]
<PointData  Vectors="displacement"> 
<DataArray  type="Float64"  Name="displacement"  NumberOfComponents="3" format="ascii">1.6250033905767322e-32 1.0164395367051616e-18 0.0000000000000000e+00  -5.4166779685891090e-33 -1.2705494208814524e-18 0.0000000000000000e+00  4.4687593240860142e-32 2.5004015556252955e-18 0.0000000000000000e+00  -2.1666711874356431e-32 0.0000000000000000e+00 0.0000000000000000e+00  -7.8922688406486603e-33 -1.2779881628258212e-18 0.0000000000000000e+00  7.9444610205973588e-32 1.7787691892340330e-18 0.0000000000000000e+00  -1.2998612054412437e-31 -1.4431159372074933e-18 0.0000000000000000e+00  7.9444610205973588e-32 2.5410988417629045e-18 0.0000000000000000e+00  1.3656632083656640e-31 3.5653992302284220e-18 0.0000000000000000e+00  2.1666711874356442e-32 -3.5575383784680676e-18 0.0000000000000000e+00  -1.2730041399872497e-31 1.5250052415090959e-18 0.0000000000000000e+00  1.7333369499485158e-31 -2.2869889575866155e-18 0.0000000000000000e+00  -7.2461790911030101e-32 1.5344242168045503e-18 0.0000000000000000e+00  1.3000027124613855e-31 0.0000000000000000e+00 0.0000000000000000e+00  -4.6447091322681472e-32 1.8943928788807411e-18 0.0000000000000000e+00  1.4083362718331667e-31 7.6232965252887059e-19 0.0000000000000000e+00  -2.9128373524233572e-32 -1.2607842496572785e-18 0.0000000000000000e+00  0.0000000000000000e+00 -5.0821976835258078e-19 0.0000000000000000e+00  3.6256176504530367e-32 -1.2705494208814517e-19 0.0000000000000000e+00  -7.2222372914521495e-33 5.0821976835258126e-19 0.0000000000000000e+00  2.8888949165808554e-32 2.5410988417629026e-18 0.0000000000000000e+00  -2.8888949165808505e-32 -1.7880087483494442e-02 0.0000000000000000e+00  -1.0019036434021540e-16 -1.7880087483494431e-02 0.0000000000000000e+00  -1.9597812232827028e-16 -1.7880087483494449e-02 0.0000000000000000e+00  -2.9908472922807979e-16 -1.7880087483494473e-02 0.0000000000000000e+00  -3.9880523398048892e-16 -1.7880087483494487e-02 0.0000000000000000e+00  -4.9571603556692004e-16 -1.7880087483494522e-02 0.0000000000000000e+00  -5.9155581097049707e-16 -1.7880087483494546e-02 0.0000000000000000e+00  -6.6584071286690410e-16 -1.7880087483494612e-02 0.0000000000000000e+00  -7.3665998999637590e-16 -1.7880087483494678e-02 0.0000000000000000e+00  -7.8430244647539659e-16 -1.7880087483494757e-02 0.0000000000000000e+00  -8.0778742222951619e-16 -1.7880087483494862e-02 0.0000000000000000e+00  -8.0530713762088888e-16 -1.7880087483494945e-02 0.0000000000000000e+00  -7.6676027339923666e-16 -1.7880087483495025e-02 0.0000000000000000e+00  -7.0913473760296319e-16 -1.7880087483495094e-02 0.0000000000000000e+00  -6.3161078454757652e-16 -1.7880087483495167e-02 0.0000000000000000e+00  -5.3479417651472623e-16 -1.7880087483495205e-02 0.0000000000000000e+00  -4.4183830606829162e-16 -1.7880087483495250e-02 0.0000000000000000e+00  -3.4262226005196485e-16 -1.7880087483495281e-02 0.0000000000000000e+00  -2.4025017843268226e-16 -1.7880087483495316e-02 0.0000000000000000e+00  -1.2586065613105444e-16 -1.7880087483495354e-02 0.0000000000000000e+00  -2.4359622495296370e-32 -1.7880087483495365e-02 0.0000000000000000e+00  2.8627037751821004e-32 -3.5761240964836981e-02 0.0000000000000000e+00  -1.8466298824465253e-16 -3.5761240964837002e-02 0.0000000000000000e+00  -3.6743150419735283e-16 -3.5761240964837002e-02 0.0000000000000000e+00  -5.5283661430520380e-16 -3.5761240964837029e-02 0.0000000000000000e+00  -7.4292752001275113e-16 -3.5761240964837078e-02 0.0000000000000000e+00  -9.1042415546711309e-16 -3.5761240964837127e-02 0.0000000000000000e+00  -1.0655147022534312e-15 -3.5761240964837238e-02 0.0000000000000000e+00  -1.2027041178543739e-15 -3.5761240964837321e-02 0.0000000000000000e+00  -1.3201402500455245e-15 -3.5761240964837467e-02 0.0000000000000000e+00  -1.4086482819233824e-15 -3.5761240964837689e-02 0.0000000000000000e+00  -1.4568358891966177e-15 -3.5761240964837807e-02 0.0000000000000000e+00  -1.4425327724172417e-15 -3.5761240964838091e-02 0.0000000000000000e+00  -1.3811929549976959e-15 -3.5761240964838251e-02 0.0000000000000000e+00  -1.2758692239043569e-15 -3.5761240964838452e-02 0.0000000000000000e+00  -1.1435646299327440e-15 -3.5761240964838521e-02 0.0000000000000000e+00  -9.7764675751447778e-16 -3.5761240964838618e-02 0.0000000000000000e+00  -8.0795943881619324e-16 -3.5761240964838716e-02 0.0000000000000000e+00  -6.2683458629855649e-16 -3.5761240964838792e-02 0.0000000000000000e+00  -4.2381257764953860e-16 -3.5761240964838882e-02 0.0000000000000000e+00  -2.1486995031750819e-16 -3.5761240964838945e-02 0.0000000000000000e+00  3.3531815996027762e-32 -3.5761240964838958e-02 0.0000000000000000e+00  2.5277830520082471e-32 -5.3644524798184282e-02 0.0000000000000000e+00  -2.6473217967049627e-16 -5.3644524798184282e-02 0.0000000000000000e+00  -5.1987229781870886e-16 -5.3644524798184316e-02 0.0000000000000000e+00  -7.6969185358555677e-16 -5.3644524798184337e-02 0.0000000000000000e+00  -1.0200434103359300e-15 -5.3644524798184469e-02 0.0000000000000000e+00  -1.2530450420283093e-15 -5.3644524798184538e-02 0.0000000000000000e+00  -1.4667000088760065e-15 -5.3644524798184622e-02 0.0000000000000000e+00  -1.6421809473743439e-15 -5.3644524798184857e-02 0.0000000000000000e+00  -1.7922970332520780e-15 -5.3644524798185073e-02 0.0000000000000000e+00  -1.9109798441259237e-15 -5.3644524798185357e-02 0.0000000000000000e+00  -1.9629662385523905e-15 -5.3644524798185655e-02 0.0000000000000000e+00  -1.9447777981486721e-15 -5.3644524798185995e-02 0.0000000000000000e+00  -1.8653725938358189e-15 -5.3644524798186315e-02 0.0000000000000000e+00  -1.7282313136492566e-15 -5.3644524798186564e-02 0.0000000000000000e+00  -1.5577531608007916e-15 -5.3644524798186856e-02 0.0000000000000000e+00  -1.3447084892573752e-15 -5.3644524798186870e-02 0.0000000000000000e+00  -1.1015890776883581e-15 -5.3644524798187022e-02 0.0000000000000000e+00  -8.4525371282821061e-16 -5.3644524798187182e-02 0.0000000000000000e+00  -5.8114528653577615e-16 -5.3644524798187300e-02 0.0000000000000000e+00  -2.9435577951357884e-16 -5.3644524798187418e-02 0.0000000000000000e+00  3.6111186457260661e-32 -5.3644524798187411e-02 0.0000000000000000e+00  -5.0621782597398640e-32 -7.1531000052844823e-02 0.0000000000000000e+00  -3.2102714985440870e-16 -7.1531000052844906e-02 0.0000000000000000e+00  -6.3742647682134911e-16 -7.1531000052844934e-02 0.0000000000000000e+00  -9.4960393779269202e-16 -7.1531000052844976e-02 0.0000000000000000e+00  -1.2543782109003552e-15 -7.1531000052845017e-02 0.0000000000000000e+00  -1.5255063771564095e-15 -7.1531000052845337e-02 0.0000000000000000e+00  -1.7780278409487380e-15 -7.1531000052845392e-02 0.0000000000000000e+00  -1.9904765173886351e-15 -7.1531000052845697e-02 0.0000000000000000e+00  -2.1628636333719831e-15 -7.1531000052845919e-02 0.0000000000000000e+00  -2.2976396581122780e-15 -7.1531000052846322e-02 0.0000000000000000e+00  -2.3669602582693150e-15 -7.1531000052846835e-02 0.0000000000000000e+00  -2.3488014301069036e-15 -7.1531000052847307e-02 0.0000000000000000e+00  -2.2519379853261281e-15 -7.1531000052847682e-02 0.0000000000000000e+00  -2.0959866285897322e-15 -7.1531000052848071e-02 0.0000000000000000e+00  -1.9015871801373083e-15 -7.1531000052848293e-02 0.0000000000000000e+00  -1.6283733960708336e-15 -7.1531000052848584e-02 0.0000000000000000e+00  -1.3377699213134750e-15 -7.1531000052848778e-02 0.0000000000000000e+00  -1.0327390758511863e-15 -7.1531000052848986e-02 0.0000000000000000e+00  -7.0439396115907971e-16 -7.1531000052849097e-02 0.0000000000000000e+00  -3.5654723533888074e-16 -7.1531000052849250e-02 0.0000000000000000e+00  8.5188180558943792e-32 -7.1531000052849250e-02 0.0000000000000000e+00  1.4444474582904285e-32 -8.9421722877186693e-02 0.0000000000000000e+00  -3.5891182331387210e-16 -8.9421722877186777e-02 0.0000000000000000e+00  -7.3239061745548403e-16 -8.9421722877186721e-02 0.0000000000000000e+00  -1.1056907708743528e-15 -8.9421722877186860e-02 0.0000000000000000e+00  -1.4323326727259138e-15 -8.9421722877187027e-02 0.0000000000000000e+00  -1.7511371756825225e-15 -8.9421722877187179e-02 0.0000000000000000e+00  -2.0309501435158355e-15 -8.9421722877187373e-02 0.0000000000000000e+00  -2.2712255080753498e-15 -8.9421722877187748e-02 0.0000000000000000e+00  -2.4679924480894164e-15 -8.9421722877188137e-02 0.0000000000000000e+00  -2.5956557839668171e-15 -8.9421722877188595e-02 0.0000000000000000e+00  -2.6716838108390800e-15 -8.9421722877189191e-02 0.0000000000000000e+00  -2.6599627591382782e-15 -8.9421722877189885e-02 0.0000000000000000e+00  -2.5570962318475836e-15 -8.9421722877190468e-02 0.0000000000000000e+00  -2.3988492126641581e-15 -8.9421722877190885e-02 0.0000000000000000e+00  -2.1468979890920008e-15 -8.9421722877191273e-02 0.0000000000000000e+00  -1.8430112467300983e-15 -8.9421722877191537e-02 0.0000000000000000e+00  -1.5354905453723220e-15 -8.9421722877191717e-02 0.0000000000000000e+00  -1.1658722195474080e-15 -8.9421722877192064e-02 0.0000000000000000e+00  -7.9439944650851411e-16 -8.9421722877192217e-02 0.0000000000000000e+00  -4.0592491028199362e-16 -8.9421722877192369e-02 0.0000000000000000e+00  -8.0409984941586326e-32 -8.9421722877192480e-02 0.0000000000000000e+00  -7.6616548115979839e-33 -1.0731774287013325e-01 0.0000000000000000e+00  -4.1199017999796073e-16 -1.0731774287013314e-01 0.0000000000000000e+00  -8.0556076548820489e-16 -1.0731774287013322e-01 0.0000000000000000e+00  -1.2028705722613945e-15 -1.0731774287013331e-01 0.0000000000000000e+00  -1.5731784514425449e-15 -1.0731774287013360e-01 0.0000000000000000e+00  -1.9175613849386101e-15 -1.0731774287013378e-01 0.0000000000000000e+00  -2.2393713671044380e-15 -1.0731774287013408e-01 0.0000000000000000e+00  -2.4912712562320423e-15 -1.0731774287013442e-01 0.0000000000000000e+00  -2.6946207590472610e-15 -1.0731774287013489e-01 0.0000000000000000e+00  -2.8330832718619007e-15 -1.0731774287013555e-01 0.0000000000000000e+00  -2.8976857780427007e-15 -1.0731774287013622e-01 0.0000000000000000e+00  -2.8935242414083953e-15 -1.0731774287013721e-01 0.0000000000000000e+00  -2.7924369892601856e-15 -1.0731774287013771e-01 0.0000000000000000e+00  -2.6026175742979017e-15 -1.0731774287013834e-01 0.0000000000000000e+00  -2.3360127149770175e-15 -1.0731774287013889e-01 0.0000000000000000e+00  -2.0148758724875550e-15 -1.0731774287013916e-01 0.0000000000000000e+00  -1.6647252107780583e-15 -1.0731774287013955e-01 0.0000000000000000e+00  -1.2861338457980406e-15 -1.0731774287013977e-01 0.0000000000000000e+00  -8.7209707529197058e-16 -1.0731774287014008e-01 0.0000000000000000e+00  -4.3563898216158696e-16 -1.0731774287014013e-01 0.0000000000000000e+00  1.1039705574076813e-31 -1.0731774287014036e-01 0.0000000000000000e+00  7.9444610205973479e-32 -1.2522010146275769e-01 0.0000000000000000e+00  -4.3203878300312285e-16 -1.2522010146275789e-01 0.0000000000000000e+00  -8.6352931105956403e-16 -1.2522010146275780e-01 0.0000000000000000e+00  -1.2853692039263013e-15 -1.2522010146275792e-01 0.0000000000000000e+00  -1.7095128661947146e-15 -1.2522010146275822e-01 0.0000000000000000e+00  -2.0922802575693477e-15 -1.2522010146275839e-01 0.0000000000000000e+00  -2.4058723022954284e-15 -1.2522010146275889e-01 0.0000000000000000e+00  -2.6756768551458768e-15 -1.2522010146275936e-01 0.0000000000000000e+00  -2.8780528476057478e-15 -1.2522010146275991e-01 0.0000000000000000e+00  -3.0254458797195397e-15 -1.2522010146276072e-01 0.0000000000000000e+00  -3.0892381357519446e-15 -1.2522010146276144e-01 0.0000000000000000e+00  -3.0604445671774593e-15 -1.2522010146276241e-01 0.0000000000000000e+00  -2.9645328009592872e-15 -1.2522010146276316e-01 0.0000000000000000e+00  -2.7574378505709050e-15 -1.2522010146276397e-01 0.0000000000000000e+00  -2.4851382736026152e-15 -1.2522010146276460e-01 0.0000000000000000e+00  -2.1406140201720265e-15 -1.2522010146276497e-01 0.0000000000000000e+00  -1.7650558479457126e-15 -1.2522010146276533e-01 0.0000000000000000e+00  -1.3738757345913017e-15 -1.2522010146276563e-01 0.0000000000000000e+00  -9.2620030041639381e-16 -1.2522010146276596e-01 0.0000000000000000e+00  -4.4971284950461896e-16 -1.2522010146276627e-01 0.0000000000000000e+00  7.2222372914521323e-32 -1.2522010146276621e-01 0.0000000000000000e+00  -8.5246998908296793e-32 -1.4312983031247245e-01 0.0000000000000000e+00  -4.6946491312932724e-16 -1.4312983031247242e-01 0.0000000000000000e+00  -9.3387539627651967e-16 -1.4312983031247245e-01 0.0000000000000000e+00  -1.3803281554641595e-15 -1.4312983031247273e-01 0.0000000000000000e+00  -1.8145115712697660e-15 -1.4312983031247292e-01 0.0000000000000000e+00  -2.2078698609519734e-15 -1.4312983031247331e-01 0.0000000000000000e+00  -2.5355922323257349e-15 -1.4312983031247389e-01 0.0000000000000000e+00  -2.8298754319266486e-15 -1.4312983031247434e-01 0.0000000000000000e+00  -3.0242039687732272e-15 -1.4312983031247506e-01 0.0000000000000000e+00  -3.1581761046221635e-15 -1.4312983031247584e-01 0.0000000000000000e+00  -3.2584741291034078e-15 -1.4312983031247689e-01 0.0000000000000000e+00  -3.2321722438134225e-15 -1.4312983031247786e-01 0.0000000000000000e+00  -3.1029007263249497e-15 -1.4312983031247886e-01 0.0000000000000000e+00  -2.8856060996832229e-15 -1.4312983031247978e-01 0.0000000000000000e+00  -2.6080191932593231e-15 -1.4312983031248042e-01 0.0000000000000000e+00  -2.2691476428875617e-15 -1.4312983031248103e-01 0.0000000000000000e+00  -1.8532654003663193e-15 -1.4312983031248136e-01 0.0000000000000000e+00  -1.4181649142488270e-15 -1.4312983031248167e-01 0.0000000000000000e+00  -9.5796817078110719e-16 -1.4312983031248222e-01 0.0000000000000000e+00  -4.8283365651406787e-16 -1.4312983031248233e-01 0.0000000000000000e+00  8.2762715893786511e-32 -1.4312983031248244e-01 0.0000000000000000e+00  -1.4444474582904252e-32 -1.6104794971228750e-01 0.0000000000000000e+00  -5.1022382407483511e-16 -1.6104794971228747e-01 0.0000000000000000e+00  -1.0017486471663325e-15 -1.6104794971228747e-01 0.0000000000000000e+00  -1.4417769833477706e-15 -1.6104794971228772e-01 0.0000000000000000e+00  -1.8912895548564519e-15 -1.6104794971228775e-01 0.0000000000000000e+00  -2.2973978974723431e-15 -1.6104794971228842e-01 0.0000000000000000e+00  -2.6453272052622087e-15 -1.6104794971228883e-01 0.0000000000000000e+00  -2.9339454941286561e-15 -1.6104794971228972e-01 0.0000000000000000e+00  -3.1552738529522810e-15 -1.6104794971229036e-01 0.0000000000000000e+00  -3.3163612775232137e-15 -1.6104794971229119e-01 0.0000000000000000e+00  -3.3843929744907071e-15 -1.6104794971229244e-01 0.0000000000000000e+00  -3.3527215075309102e-15 -1.6104794971229366e-01 0.0000000000000000e+00  -3.2237001304948693e-15 -1.6104794971229469e-01 0.0000000000000000e+00  -2.9989435270277531e-15 -1.6104794971229580e-01 0.0000000000000000e+00  -2.7219396411867125e-15 -1.6104794971229647e-01 0.0000000000000000e+00  -2.3554436298824814e-15 -1.6104794971229730e-01 0.0000000000000000e+00  -1.9465826750318665e-15 -1.6104794971229758e-01 0.0000000000000000e+00  -1.4576601512520156e-15 -1.6104794971229813e-01 0.0000000000000000e+00  -9.8502225461055216e-16 -1.6104794971229838e-01 0.0000000000000000e+00  -5.0224255818295769e-16 -1.6104794971229883e-01 0.0000000000000000e+00  5.4657842450946920e-32 -1.6104794971229849e-01 0.0000000000000000e+00  9.4089767123409987e-32 -1.7897546701759234e-01 0.0000000000000000e+00  -5.5494986301973913e-16 -1.7897546701759254e-01 0.0000000000000000e+00  -1.0585146290473022e-15 -1.7897546701759237e-01 0.0000000000000000e+00  -1.5120720183478294e-15 -1.7897546701759273e-01 0.0000000000000000e+00  -1.9410966029910002e-15 -1.7897546701759270e-01 0.0000000000000000e+00  -2.3442384053137208e-15 -1.7897546701759348e-01 0.0000000000000000e+00  -2.7230375312195232e-15 -1.7897546701759406e-01 0.0000000000000000e+00  -3.0297550696852534e-15 -1.7897546701759490e-01 0.0000000000000000e+00  -3.2741789610875265e-15 -1.7897546701759573e-01 0.0000000000000000e+00  -3.4310921493016087e-15 -1.7897546701759678e-01 0.0000000000000000e+00  -3.4721701271445414e-15 -1.7897546701759795e-01 0.0000000000000000e+00  -3.4396655092280023e-15 -1.7897546701759931e-01 0.0000000000000000e+00  -3.3048516861445127e-15 -1.7897546701760036e-01 0.0000000000000000e+00  -3.0825779372868569e-15 -1.7897546701760175e-01 0.0000000000000000e+00  -2.7819519994416141e-15 -1.7897546701760239e-01 0.0000000000000000e+00  -2.4419776116828690e-15 -1.7897546701760333e-01 0.0000000000000000e+00  -2.0066232918648286e-15 -1.7897546701760403e-01 0.0000000000000000e+00  -1.4909333058612215e-15 -1.7897546701760431e-01 0.0000000000000000e+00  -9.9553111425209559e-16 -1.7897546701760489e-01 0.0000000000000000e+00  -5.2911943622978249e-16 -1.7897546701760483e-01 0.0000000000000000e+00  1.0781768527953552e-31 -1.7897546701760508e-01 0.0000000000000000e+00  7.2222372914521262e-33 -1.9691337509288789e-01 0.0000000000000000e+00  -5.7301210222273475e-16 -1.9691337509288784e-01 0.0000000000000000e+00  -1.0751204010717913e-15 -1.9691337509288798e-01 0.0000000000000000e+00  -1.5685515788298820e-15 -1.9691337509288839e-01 0.0000000000000000e+00  -2.0145885086004457e-15 -1.9691337509288856e-01 0.0000000000000000e+00  -2.4105067494391593e-15 -1.9691337509288914e-01 0.0000000000000000e+00  -2.7767357367569224e-15 -1.9691337509288989e-01 0.0000000000000000e+00  -3.0696223812776122e-15 -1.9691337509289075e-01 0.0000000000000000e+00  -3.3277486050441391e-15 -1.9691337509289170e-01 0.0000000000000000e+00  -3.4791342357065324e-15 -1.9691337509289281e-01 0.0000000000000000e+00  -3.5231257371595782e-15 -1.9691337509289422e-01 0.0000000000000000e+00  -3.5025659929310411e-15 -1.9691337509289561e-01 0.0000000000000000e+00  -3.3779069779891906e-15 -1.9691337509289711e-01 0.0000000000000000e+00  -3.1542707630263845e-15 -1.9691337509289841e-01 0.0000000000000000e+00  -2.8339109120404745e-15 -1.9691337509289925e-01 0.0000000000000000e+00  -2.4400857496602851e-15 -1.9691337509290002e-01 0.0000000000000000e+00  -2.0344409026419778e-15 -1.9691337509290080e-01 0.0000000000000000e+00  -1.5569496420740601e-15 -1.9691337509290144e-01 0.0000000000000000e+00  -1.0481370346448795e-15 -1.9691337509290180e-01 0.0000000000000000e+00  -5.3243227217551207e-16 -1.9691337509290194e-01 0.0000000000000000e+00  1.0833355937178184e-31 -1.9691337509290202e-01 0.0000000000000000e+00  3.8932372899234162e-32 -2.1486265078086056e-01 0.0000000000000000e+00  -5.5077122347892841e-16 -2.1486265078086075e-01 0.0000000000000000e+00  -1.0990453509354204e-15 -2.1486265078086092e-01 0.0000000000000000e+00  -1.6448487127842951e-15 -2.1486265078086098e-01 0.0000000000000000e+00  -2.1060534679196919e-15 -2.1486265078086153e-01 0.0000000000000000e+00  -2.4836403033834412e-15 -2.1486265078086192e-01 0.0000000000000000e+00  -2.8318536350251676e-15 -2.1486265078086311e-01 0.0000000000000000e+00  -3.1348988976936179e-15 -2.1486265078086364e-01 0.0000000000000000e+00  -3.3683941831203089e-15 -2.1486265078086489e-01 0.0000000000000000e+00  -3.5447908678916430e-15 -2.1486265078086611e-01 0.0000000000000000e+00  -3.6312261011169027e-15 -2.1486265078086747e-01 0.0000000000000000e+00  -3.5832467197841517e-15 -2.1486265078086933e-01 0.0000000000000000e+00  -3.4436317425378874e-15 -2.1486265078087066e-01 0.0000000000000000e+00  -3.2029278026883640e-15 -2.1486265078087219e-01 0.0000000000000000e+00  -2.8805198288940262e-15 -2.1486265078087324e-01 0.0000000000000000e+00  -2.5005039602676325e-15 -2.1486265078087405e-01 0.0000000000000000e+00  -2.0805657965126544e-15 -2.1486265078087494e-01 0.0000000000000000e+00  -1.6208955179674585e-15 -2.1486265078087544e-01 0.0000000000000000e+00  -1.0703177914307949e-15 -2.1486265078087580e-01 0.0000000000000000e+00  -5.0950888859789339e-16 -2.1486265078087605e-01 0.0000000000000000e+00  3.0423001414649616e-33 -2.1486265078087619e-01 0.0000000000000000e+00  7.2222372914521344e-33 -2.3282425339616217e-01 0.0000000000000000e+00  -5.6175829451358106e-16 -2.3282425339616208e-01 0.0000000000000000e+00  -1.1382856297695889e-15 -2.3282425339616225e-01 0.0000000000000000e+00  -1.6399806411903700e-15 -2.3282425339616272e-01