<?xml version="1.0"?>
<VTKFile type="UnstructuredGrid"  version="0.1"  >
<UnstructuredGrid>
<Piece  NumberOfPoints="1091" NumberOfCells="2050">
<Points>
<DataArray  type="Float64"  NumberOfComponents="3"  format="ascii">-0.5 -1 0  -0.4 -1 0  -0.3 -1 0  -0.2 -1 0  -0.09999999999999998 -1 0  0 -1 0  0.09999999999999998 -1 0  0.2 -1 0  0.3 -1 0  0.4 -1 0  0.5 -1 0  -0.5 -0.98 0  -0.4 -0.98 0  -0.3 -0.98 0  -0.2 -0.98 0  -0.09999999999999998 -0.98 0  0 -0.98 0  0.09999999999999998 -0.98 0  0.2 -0.98 0  0.3 -0.98 0  0.4 -0.98 0  0.5 -0.98 0  -0.5 -0.96 0  -0.4 -0.96 0  -0.3 -0.96 0  -0.2 -0.96 0  -0.09999999999999998 -0.96 0  0 -0.96 0  0.09999999999999998 -0.96 0  0.2 -0.96 0  0.3 -0.96 0  0.4 -0.96 0  0.5 -0.96 0  -0.5 -0.9399999999999999 0  -0.4 -0.9399999999999999 0  -0.3 -0.9399999999999999 0  -0.2 -0.9399999999999999 0  -0.09999999999999998 -0.9399999999999999 0  0 -0.9399999999999999 0  0.09999999999999998 -0.9399999999999999 0  0.2 -0.9399999999999999 0  0.3 -0.9399999999999999 0  0.4 -0.9399999999999999 0  0.5 -0.9399999999999999 0  -0.5 -0.92 0  -0.4 -0.92 0  -0.3 -0.92 0  -0.2 -0.92 0  -0.09999999999999998 -0.92 0  0 -0.92 0  0.09999999999999998 -0.92 0  0.2 -0.92 0  0.3 -0.92 0  0.4 -0.92 0  0.5 -0.92 0  -0.5 -0.9 0  -0.4 -0.9 0  -0.3 -0.9 0  -0.2 -0.9 0  -0.09999999999999998 -0.9 0  0 -0.9 0  0.09999999999999998 -0.9 0  0.2 -0.9 0  0.3 -0.9 0  0.4 -0.9 0  0.5 -0.9 0  -0.5 -0.88 0  -0.4 -0.88 0  -0.3 -0.88 0  -0.2 -0.88 0  -0.09999999999999998 -0.88 0  0 -0.88 0  0.09999999999999998 -0.88 0  0.2 -0.88 0  0.3 -0.88 0  0.4 -0.88 0  0.5 -0.88 0  -0.5 -0.86 0  -0.4 -0.86 0  -0.3 -0.86 0  -0.2 -0.86 0  -0.09999999999999998 -0.86 0  0 -0.86 0  0.09999999999999998 -0.86 0  0.2 -0.86 0  0.3 -0.86 0  0.4 -0.86 0  0.5 -0.86 0  -0.5 -0.84 0  -0.4 -0.84 0  -0.3 -0.84 0  -0.2 -0.84 0  -0.09999999999999998 -0.84 0  0 -0.84 0  0.09999999999999998 -0.84 0  0.2 -0.84 0  0.3 -0.84 0  0.4 -0.84 0  0.5 -0.84 0  -0.5 -0.8200000000000001 0  -0.4 -0.8200000000000001 0  -0.3 -0.8200000000000001 0  -0.2 -0.8200000000000001 0  -0.09999999999999998 -0.8200000000000001 0  0 -0.8200000000000001 0  0.09999999999999998 -0.8200000000000001 0  0.2 -0.8200000000000001 0  0.3 -0.8200000000000001 0  0.4 -0.8200000000000001 0  0.5 -0.8200000000000001 0  -0.5 -0.8 0  -0.4 -0.8 0  -0.3 -0.8 0  -0.2 -0.8 0  -0.09999999999999998 -0.8 0  0 -0.8 0  0.09999999999999998 -0.8 0  0.2 -0.8 0  0.3 -0.8 0  0.4 -0.8 0  0.5 -0.8 0  -0.5 -0.78 0  -0.4 -0.78 0  -0.3 -0.78 0  -0.2 -0.78 0  -0.09999999999999998 -0.78 0  0 -0.78 0  0.09999999999999998 -0.78 0  0.2 -0.78 0  0.3 -0.78 0  0.4 -0.78 0  0.5 -0.78 0  -0.5 -0.76 0  -0.4 -0.76 0  -0.3 -0.76 0  -0.2 -0.76 0  -0.09999999999999998 -0.76 0  0 -0.76 0  0.09999999999999998 -0.76 0  0.2 -0.76 0  0.3 -0.76 0  0.4 -0.76 0  0.5 -0.76 0  -0.5 -0.74 0  -0.4 -0.74 0  -0.3 -0.74 0  -0.2 -0.74 0  -0.09999999999999998 -0.74 0  0 -0.74 0  0.09999999999999998 -0.74 0  0.2 -0.74 0  0.3 -0.74 0  0.4 -0.74 0  0.5 -0.74 0  -0.5 -0.72 0  -0.4 -0.72 0  -0.3 -0.72 0  -0.2 -0.72 0  -0.09999999999999998 -0.72 0  0 -0.72 0  0.09999999999999998 -0.72 0  0.2 -0.72 0  0.3 -0.72 0  0.4 -0.72 0  0.5 -0.72 0  -0.5 -0.7 0  -0.4 -0.7 0  -0.3 -0.7 0  -0.2 -0.7 0  -0.09999999999999998 -0.7 0  0 -0.7 0  0.09999999999999998 -0.7 0  0.2 -0.7 0  0.3 -0.7 0  0.4 -0.7 0  0.5 -0.7 0  -0.5 -0.6799999999999999 0  -0.4 -0.6799999999999999 0  -0.3 -0.6799999999999999 0  -0.2 -0.6799999999999999 0  -0.09999999999999998 -0.6799999999999999 0  0 -0.6799999999999999 0  0.09999999999999998 -0.6799999999999999 0  0.2 -0.6799999999999999 0  0.3 -0.6799999999999999 0  0.4 -0.6799999999999999 0  0.5 -0.6799999999999999 0  -0.5 -0.6599999999999999 0  -0.4 -0.6599999999999999 0  -0.3 -0.6599999999999999 0  -0.2 -0.6599999999999999 0  -0.09999999999999998 -0.6599999999999999 0  0 -0.6599999999999999 0  0.09999999999999998 -0.6599999999999999 0  0.2 -0.6599999999999999 0  0.3 -0.6599999999999999 0  0.4 -0.6599999999999999 0  0.5 -0.6599999999999999 0  -0.5 -0.64 0  -0.4 -0.64 0  -0.3 -0.64 0  -0.2 -0.64 0  -0.09999999999999998 -0.64 0  0 -0.64 0  0.09999999999999998 -0.64 0  0.2 -0.64 0  0.3 -0.64 0  0.4 -0.64 0  0.5 -0.64 0  -0.5 -0.62 0  -0.4 -0.62 0  -0.3 -0.62 0  -0.2 -0.62 0  -0.09999999999999998 -0.62 0  0 -0.62 0  0.09999999999999998 -0.62 0  0.2 -0.62 0  0.3 -0.62 0  0.4 -0.62 0  0.5 -0.62 0  -0.5 -0.6 0  -0.4 -0.6 0  -0.3 -0.6 0  -0.2 -0.6 0  -0.09999999999999998 -0.6 0  0 -0.6 0  0.09999999999999998 -0.6 0  0.2 -0.6 0  0.3 -0.6 0  0.4 -0.6 0  0.5 -0.6 0  -0.5 -0.5800000000000001 0  -0.4 -0.5800000000000001 0  -0.3 -0.5800000000000001 0  -0.2 -0.5800000000000001 0  -0.09999999999999998 -0.5800000000000001 0  0 -0.5800000000000001 0  0.09999999999999998 -0.5800000000000001 0  0.2 -0.5800000000000001 0  0.3 -0.5800000000000001 0  0.4 -0.5800000000000001 0  0.5 -0.5800000000000001 0  -0.5 -0.5600000000000001 0  -0.4 -0.5600000000000001 0  -0.3 -0.5600000000000001 0  -0.2 -0.5600000000000001 0  -0.09999999999999998 -0.5600000000000001 0  0 -0.5600000000000001 0  0.09999999999999998 -0.5600000000000001 0  0.2 -0.5600000000000001 0  0.3 -0.5600000000000001 0  0.4 -0.5600000000000001 0  0.5 -0.5600000000000001 0  -0.5 -0.54 0  -0.4 -0.54 0  -0.3 -0.54 0  -0.2 -0.54 0  -0.09999999999999998 -0.54 0  0 -0.54 0  0.09999999999999998 -0.54 0  0.2 -0.54 0  0.3 -0.54 0  0.4 -0.54 0  0.5 -0.54 0  -0.5 -0.52 0  -0.4 -0.52 0  -0.3 -0.52 0  -0.2 -0.52 0  -0.09999999999999998 -0.52 0  0 -0.52 0  0.09999999999999998 -0.52 0  0.2 -0.52 0  0.3 -0.52 0  0.4 -0.52 0  0.5 -0.52 0  -0.5 -0.5 0  -0.4 -0.5 0  -0.3 -0.5 0  -0.2 -0.5 0  -0.09999999999999998 -0.5 0  0 -0.5 0  0.09999999999999998 -0.5 0  0.2 -0.5 0  0.3 -0.5 0  0.4 -0.5 0  0.5 -0.5 0  -0.5 -0.48 0  -0.4 -0.48 0  -0.3 -0.48 0  -0.2 -0.48 0  -0.09999999999999998 -0.48 0  0 -0.48 0  0.09999999999999998 -0.48 0  0.2 -0.48 0  0.3 -0.48 0  0.4 -0.48 0  0.5 -0.48 0  -0.5 -0.46 0  -0.4 -0.46 0  -0.3 -0.46 0  -0.2 -0.46 0  -0.09999999999999998 -0.46 0  0 -0.46 0  0.09999999999999998 -0.46 0  0.2 -0.46 0  0.3 -0.46 0  0.4 -0.46 0  0.5 -0.46 0  -0.5 -0.4399999999999999 0  -0.4 -0.4399999999999999 0  -0.3 -0.4399999999999999 0  -0.2 -0.4399999999999999 0  -0.09999999999999998 -0.4399999999999999 0  0 -0.4399999999999999 0  0.09999999999999998 -0.4399999999999999 0  0.2 -0.4399999999999999 0  0.3 -0.4399999999999999 0  0.4 -0.4399999999999999 0  0.5 -0.4399999999999999 0  -0.5 -0.42 0  -0.4 -0.42 0  -0.3 -0.42 0  -0.2 -0.42 0  -0.09999999999999998 -0.42 0  0 -0.42 0  0.09999999999999998 -0.42 0  0.2 -0.42 0  0.3 -0.42 0  0.4 -0.42 0  0.5 -0.42 0  -0.5 -0.4 0  -0.4 -0.4 0  -0.3 -0.4 0  -0.2 -0.4 0  -0.09999999999999998 -0.4 0  0 -0.4 0  0.09999999999999998 -0.4 0  0.2 -0.4 0  0.3 -0.4 0  0.4 -0.4 0  0.5 -0.4 0  -0.5 -0.38 0  -0.4 -0.38 0  -0.3 -0.38 0  -0.2 -0.38 0  -0.09999999999999998 -0.38 0  0 -0.38 0  0.09999999999999998 -0.38 0  0.2 -0.38 0  0.3 -0.38 0  0.4 -0.38 0  0.5 -0.38 0  -0.5 -0.36 0  -0.4 -0.36 0  -0.3 -0.36 0  -0.2 -0.36 0  -0.09999999999999998 -0.36 0  0 -0.36 0  0.09999999999999998 -0.36 0  0.2 -0.36 0  0.3 -0.36 0  0.4 -0.36 0  0.5 -0.36 0  -0.5 -0.34 0  -0.4 -0.34 0  -0.3 -0.34 0  -0.2 -0.34 0  -0.09999999999999998 -0.34 0  0 -0.34 0  0.09999999999999998 -0.34 0  0.2 -0.34 0  0.3 -0.34 0  0.4 -0.34 0  0.5 -0.34 0  -0.5 -0.32 0  -0.4 -0.32 0  -0.3 -0.32 0  -0.2 -0.32 0  -0.09999999999999998 -0.32 0  0 -0.32 0  0.09999999999999998 -0.32 0  0.2 -0.32 0  0.3 -0.32 0  0.4 -0.32 0  0.5 -0.32 0  -0.5 -0.3 0  -0.4 -0.3 0  -0.3 -0.3 0  -0.2 -0.3 0  -0.09999999999999998 -0.3 0  0 -0.3 0  0.09999999999999998 -0.3 0  0.2 -0.3 0  0.3 -0.3 0  0.4 -0.3 0  0.5 -0.3 0  -0.5 -0.28 0  -0.4 -0.28 0  -0.3 -0.28 0  -0.2 -0.28 0  -0.09999999999999998 -0.28 0  0 -0.28 0  0.09999999999999998 -0.28 0  0.2 -0.28 0  0.3 -0.28 0  0.4 -0.28 0  0.5 -0.28 0  -0.5 -0.26 0  -0.4 -0.26 0  -0.3 -0.26 0  -0.2 -0.26 0  -0.09999999999999998 -0.26 0  0 -0.26 0  0.09999999999999998 -0.26 0  0.2 -0.26 0  0.3 -0.26 0  0.4 -0.26 0  0.5 -0.26 0  -0.5 -0.24 0  -0.4 -0.24 0  -0.3 -0.24 0  -0.2 -0.24 0  -0.09999999999999998 -0.24 0  0 -0.24 0  0.09999999999999998 -0.24 0  0.2 -0.24 0  0.3 -0.24 0  0.4 -0.24 0  0.5 -0.24 0  -0.5 -0.22 0  -0.4 -0.22 0  -0.3 -0.22 0  -0.2 -0.22 0  -0.09999999999999998 -0.22 0  0 -0.22 0  0.09999999999999998 -0.22 0  0.2 -0.22 0  0.3 -0.22 0  0.4 -0.22 0  0.5 -0.22 0  -0.5 -0.2 0  -0.4 -0.2 0  -0.3 -0.2 0  -0.2 -0.2 0  -0.09999999999999998 -0.2 0  0 -0.2 0  0.09999999999999998 -0.2 0  0.2 -0.2 0  0.3 -0.2 0  0.4 -0.2 0  0.5 -0.2 0  -0.5 -0.18 0  -0.4 -0.18 0  -0.3 -0.18 0  -0.2 -0.18 0  -0.09999999999999998 -0.18 0  0 -0.18 0  0.09999999999999998 -0.18 0  0.2 -0.18 0  0.3 -0.18 0  0.4 -0.18 0  0.5 -0.18 0  -0.5 -0.16 0  -0.4 -0.16 0  -0.3 -0.16 0  -0.2 -0.16 0  -0.09999999999999998 -0.16 0  0 -0.16 0  0.09999999999999998 -0.16 0  0.2 -0.16 0  0.3 -0.16 0  0.4 -0.16 0  0.5 -0.16 0  -0.5 -0.14 0  -0.4 -0.14 0  -0.3 -0.14 0  -0.2 -0.14 0  -0.09999999999999998 -0.14 0  0 -0.14 0  0.09999999999999998 -0.14 0  0.2 -0.14 0  0.3 -0.14 0  0.4 -0.14 0  0.5 -0.14 0  -0.5 -0.12 0  -0.4 -0.12 0  -0.3 -0.12 0  -0.2 -0.12 0  -0.09999999999999998 -0.12 0  0 -0.12 0  0.09999999999999998 -0.12 0  0.2 -0.12 0  0.3 -0.12 0  0.4 -0.12 0  0.5 -0.12 0  -0.5 -0.09999999999999998 0  -0.4 -0.09999999999999998 0  -0.3 -0.09999999999999998 0  -0.2 -0.09999999999999998 0  -0.09999999999999998 -0.09999999999999998 0  0 -0.09999999999999998 0  0.09999999999999998 -0.09999999999999998 0  0.2 -0.09999999999999998 0  0.3 -0.09999999999999998 0  0.4 -0.09999999999999998 0  0.5 -0.09999999999999998 0  -0.5 -0.07999999999999996 0  -0.4 -0.07999999999999996 0  -0.3 -0.07999999999999996 0  -0.2 -0.07999999999999996 0  -0.09999999999999998 -0.07999999999999996 0  0 -0.07999999999999996 0  0.09999999999999998 -0.07999999999999996 0  0.2 -0.07999999999999996 0  0.3 -0.07999999999999996 0  0.4 -0.07999999999999996 0  0.5 -0.07999999999999996 0  -0.5 -0.06000000000000005 0  -0.4 -0.06000000000000005 0  -0.3 -0.06000000000000005 0  -0.2 -0.06000000000000005 0  -0.09999999
[...]
<PointData  Vectors="displacement"> 
<DataArray  type="Float64"  Name="displacement"  NumberOfComponents="3" format="ascii">-4.2317796629602316e-34 2.9778502051908972e-20 0.0000000000000000e+00  4.9370762734536024e-34 -3.9704669402545286e-20 0.0000000000000000e+00  -4.4742253728173276e-34 -3.9607734174511734e-20 0.0000000000000000e+00  -2.2569491535787903e-33 9.9261673506363246e-21 0.0000000000000000e+00  -5.8787262080537939e-34 2.9416593878379475e-22 0.0000000000000000e+00  1.6927118651840923e-33 -2.7296960214249883e-20 0.0000000000000000e+00  -4.5852544876723398e-33 5.7068192124056345e-20 0.0000000000000000e+00  3.9496610187628819e-33 -4.2186211240204369e-20 0.0000000000000000e+00  6.2984590376430291e-36 -2.7917345673664654e-20 0.0000000000000000e+00  5.6423728839469758e-34 4.9630836753181623e-21 0.0000000000000000e+00  -5.6423728839469732e-34 -3.9704669402545280e-20 0.0000000000000000e+00  0.0000000000000000e+00 -2.7717265353417346e-04 0.0000000000000000e+00  -5.6108626474401352e-18 -2.7717265353417514e-04 0.0000000000000000e+00  4.8075279179953877e-18 -2.7717265353417909e-04 0.0000000000000000e+00  2.5609405512420487e-17 -2.7717265353418029e-04 0.0000000000000000e+00  3.2641516135028025e-17 -2.7717265353417714e-04 0.0000000000000000e+00  3.8070488000458640e-17 -2.7717265353417199e-04 0.0000000000000000e+00  4.3415777167521741e-17 -2.7717265353417356e-04 0.0000000000000000e+00  3.3209778520128722e-17 -2.7717265353416917e-04 0.0000000000000000e+00  3.0343724194450691e-17 -2.7717265353416944e-04 0.0000000000000000e+00  1.8519102784251102e-17 -2.7717265353416164e-04 0.0000000000000000e+00  -1.0581973545654393e-33 -2.7717265353416890e-04 0.0000000000000000e+00  -8.5256048804560525e-34 -5.5434530706834604e-04 0.0000000000000000e+00  -8.4485233264771812e-18 -5.5434530706835179e-04 0.0000000000000000e+00  1.0641491633358440e-17 -5.5434530706835970e-04 0.0000000000000000e+00  4.7079662097599530e-17 -5.5434530706836361e-04 0.0000000000000000e+00  6.3196888991520935e-17 -5.5434530706835667e-04 0.0000000000000000e+00  7.4815176760968979e-17 -5.5434530706834453e-04 0.0000000000000000e+00  8.2272371010803700e-17 -5.5434530706834691e-04 0.0000000000000000e+00  6.3813785893884637e-17 -5.5434530706833845e-04 0.0000000000000000e+00  5.7175087515915573e-17 -5.5434530706833954e-04 0.0000000000000000e+00  3.4942951080429639e-17 -5.5434530706832024e-04 0.0000000000000000e+00  1.8539225190111492e-33 -5.5434530706833509e-04 0.0000000000000000e+00  -5.6423728839469852e-34 -8.3151796060251749e-04 0.0000000000000000e+00  -9.9261019180215891e-18 -8.3151796060252877e-04 0.0000000000000000e+00  1.7000773109607880e-17 -8.3151796060254080e-04 0.0000000000000000e+00  6.5932649054443312e-17 -8.3151796060255197e-04 0.0000000000000000e+00  9.1418525228764901e-17 -8.3151796060253733e-04 0.0000000000000000e+00  1.0952437503870837e-16 -8.3151796060252031e-04 0.0000000000000000e+00  1.1781230568840370e-16 -8.3151796060252335e-04 0.0000000000000000e+00  9.0865703823863014e-17 -8.3151796060250828e-04 0.0000000000000000e+00  8.1158110073321519e-17 -8.3151796060250915e-04 0.0000000000000000e+00  5.0134932135129152e-17 -8.3151796060247694e-04 0.0000000000000000e+00  -2.2569491535787930e-33 -8.3151796060249982e-04 0.0000000000000000e+00  -1.1992056875326538e-33 -1.1086906141366904e-03 0.0000000000000000e+00  -1.0553653211019706e-17 -1.1086906141367025e-03 0.0000000000000000e+00  2.3145955336440960e-17 -1.1086906141367229e-03 0.0000000000000000e+00  8.2193598916595939e-17 -1.1086906141367381e-03 0.0000000000000000e+00  1.1775825571755523e-16 -1.1086906141367175e-03 0.0000000000000000e+00  1.4127869478933311e-16 -1.1086906141366982e-03 0.0000000000000000e+00  1.5086726465159822e-16 -1.1086906141367023e-03 0.0000000000000000e+00  1.1544242235122124e-16 -1.1086906141366802e-03 0.0000000000000000e+00  1.0262221006581539e-16 -1.1086906141366711e-03 0.0000000000000000e+00  6.3325663710163587e-17 -1.1086906141366338e-03 0.0000000000000000e+00  5.1843532890716197e-33 -1.1086906141366641e-03 0.0000000000000000e+00  1.4105932209867439e-34 -1.3858632676708679e-03 0.0000000000000000e+00  -9.9825697749128761e-18 -1.3858632676708807e-03 0.0000000000000000e+00  2.9037307415577798e-17 -1.3858632676709063e-03 0.0000000000000000e+00  9.6206552479650637e-17 -1.3858632676709258e-03 0.0000000000000000e+00  1.4176060046413795e-16 -1.3858632676709017e-03 0.0000000000000000e+00  1.7111181347964075e-16 -1.3858632676708826e-03 0.0000000000000000e+00  1.8031693928406349e-16 -1.3858632676708841e-03 0.0000000000000000e+00  1.3930964217068400e-16 -1.3858632676708568e-03 0.0000000000000000e+00  1.2298538162425346e-16 -1.3858632676708275e-03 0.0000000000000000e+00  7.3965363339894628e-17 -1.3858632676707922e-03 0.0000000000000000e+00  -9.3863697467962609e-33 -1.3858632676708269e-03 0.0000000000000000e+00  -1.2041536619029417e-33 -1.6630359212050430e-03 0.0000000000000000e+00  -8.2366984140990766e-18 -1.6630359212050588e-03 0.0000000000000000e+00  3.4565609147421137e-17 -1.6630359212050872e-03 0.0000000000000000e+00  1.0812004236234816e-16 -1.6630359212051137e-03 0.0000000000000000e+00  1.6216654330429481e-16 -1.6630359212050853e-03 0.0000000000000000e+00  1.9923824376638694e-16 -1.6630359212050630e-03 0.0000000000000000e+00  2.0658730396122967e-16 -1.6630359212050671e-03 0.0000000000000000e+00  1.6278811655751346e-16 -1.6630359212050341e-03 0.0000000000000000e+00  1.4253076384553146e-16 -1.6630359212049882e-03 0.0000000000000000e+00  8.1844060476822819e-17 -1.6630359212049493e-03 0.0000000000000000e+00  -7.7381113836987090e-33 -1.6630359212049825e-03 0.0000000000000000e+00  2.1158898314801158e-34 -1.9402085747392149e-03 0.0000000000000000e+00  -6.6898871947104854e-18 -1.9402085747392335e-03 0.0000000000000000e+00  3.9259644949987819e-17 -1.9402085747392711e-03 0.0000000000000000e+00  1.1925918183110429e-16 -1.9402085747393044e-03 0.0000000000000000e+00  1.7997808754374721e-16 -1.9402085747392646e-03 0.0000000000000000e+00  2.2486599868519047e-16 -1.9402085747392429e-03 0.0000000000000000e+00  2.3041438826673245e-16 -1.9402085747392413e-03 0.0000000000000000e+00  1.8412044124752489e-16 -1.9402085747392067e-03 0.0000000000000000e+00  1.6078619020263782e-16 -1.9402085747391492e-03 0.0000000000000000e+00  8.7656954215610762e-17 -1.9402085747390987e-03 0.0000000000000000e+00  1.3541694921472741e-32 -1.9402085747391407e-03 0.0000000000000000e+00  -9.9898826845660359e-34 -2.2173812282733811e-03 0.0000000000000000e+00  -6.5705827335102216e-18 -2.2173812282734085e-03 0.0000000000000000e+00  4.2520696297123934e-17 -2.2173812282734583e-03 0.0000000000000000e+00  1.2899795319172730e-16 -2.2173812282734978e-03 0.0000000000000000e+00  1.9566920984993127e-16 -2.2173812282734440e-03 0.0000000000000000e+00  2.4799700413899366e-16 -2.2173812282734228e-03 0.0000000000000000e+00  2.5395170918434849e-16 -2.2173812282734215e-03 0.0000000000000000e+00  2.0239996214962763e-16 -2.2173812282733759e-03 0.0000000000000000e+00  1.7841063838915462e-16 -2.2173812282733074e-03 0.0000000000000000e+00  9.2895783445295990e-17 -2.2173812282732471e-03 0.0000000000000000e+00  -6.4407862332417169e-33 -2.2173812282732914e-03 0.0000000000000000e+00  1.4105932209867499e-34 -2.4945538818075502e-03 0.0000000000000000e+00  -1.0036635241038125e-17 -2.4945538818075771e-03 0.0000000000000000e+00  4.3664061065062487e-17 -2.4945538818076456e-03 0.0000000000000000e+00  1.3793400495476755e-16 -2.4945538818076898e-03 0.0000000000000000e+00  2.1084477858802590e-16 -2.4945538818076313e-03 0.0000000000000000e+00  2.6737533127120593e-16 -2.4945538818075979e-03 0.0000000000000000e+00  2.7561327442420442e-16 -2.4945538818076166e-03 0.0000000000000000e+00  2.2067490789608321e-16 -2.4945538818075506e-03 0.0000000000000000e+00  1.9511207938118950e-16 -2.4945538818074648e-03 0.0000000000000000e+00  9.7705935039258705e-17 -2.4945538818073980e-03 0.0000000000000000e+00  -4.6208571849252940e-33 -2.4945538818074457e-03 0.0000000000000000e+00  -2.6029619414400011e-34 -2.7717265353417275e-03 0.0000000000000000e+00  -1.4780870580689240e-17 -2.7717265353417561e-03 0.0000000000000000e+00  4.3073669075799802e-17 -2.7717265353418368e-03 0.0000000000000000e+00  1.4623509087836113e-16 -2.7717265353418845e-03 0.0000000000000000e+00  2.2680147334712784e-16 -2.7717265353418164e-03 0.0000000000000000e+00  2.8185018753903594e-16 -2.7717265353417756e-03 0.0000000000000000e+00  2.9196370396969898e-16 -2.7717265353418155e-03 0.0000000000000000e+00  2.4124275067671126e-16 -2.7717265353417318e-03 0.0000000000000000e+00  2.1283066326772336e-16 -2.7717265353416148e-03 0.0000000000000000e+00  9.9887271655763024e-17 -2.7717265353415553e-03 0.0000000000000000e+00  -8.4635593259204618e-33 -2.7717265353415991e-03 0.0000000000000000e+00  -1.6927118651840926e-33 -3.0488991888759070e-03 0.0000000000000000e+00  -2.0617578368902983e-17 -3.0488991888759378e-03 0.0000000000000000e+00  3.9315117256830342e-17 -3.0488991888760484e-03 0.0000000000000000e+00  1.5439998404170748e-16 -3.0488991888760800e-03 0.0000000000000000e+00  2.4261784606652706e-16 -3.0488991888760037e-03 0.0000000000000000e+00  2.9424496233974781e-16 -3.0488991888759551e-03 0.0000000000000000e+00  3.0388556686778064e-16 -3.0488991888760024e-03 0.0000000000000000e+00  2.6177109330525458e-16 -3.0488991888759096e-03 0.0000000000000000e+00  2.2977058376496117e-16 -3.0488991888757795e-03 0.0000000000000000e+00  1.0096618479944279e-16 -3.0488991888757088e-03 0.0000000000000000e+00  2.3697966112577294e-32 -3.0488991888757517e-03 0.0000000000000000e+00  4.2335553103496546e-33 -3.3260718424100830e-03 0.0000000000000000e+00  -2.8420973868149182e-17 -3.3260718424101277e-03 0.0000000000000000e+00  3.5722873040470261e-17 -3.3260718424102630e-03 0.0000000000000000e+00  1.6482451847049116e-16 -3.3260718424102708e-03 0.0000000000000000e+00  2.5870810661897343e-16 -3.3260718424101888e-03 0.0000000000000000e+00  3.0322666458451121e-16 -3.3260718424101385e-03 0.0000000000000000e+00  3.1128458211556502e-16 -3.3260718424101996e-03 0.0000000000000000e+00  2.8261715331480937e-16 -3.3260718424100860e-03 0.0000000000000000e+00  2.4474762280244170e-16 -3.3260718424099446e-03 0.0000000000000000e+00  1.0307583012206008e-16 -3.3260718424098674e-03 0.0000000000000000e+00  -2.1627823774537141e-32 -3.3260718424099039e-03 0.0000000000000000e+00  -3.9496610187628833e-33 -3.6032444959442612e-03 0.0000000000000000e+00  -4.0284212399300837e-17 -3.6032444959443249e-03 0.0000000000000000e+00  3.1232567770020085e-17 -3.6032444959444663e-03 0.0000000000000000e+00  1.7672941476446578e-16 -3.6032444959444567e-03 0.0000000000000000e+00  2.7392948097087206e-16 -3.6032444959443752e-03 0.0000000000000000e+00  3.0894963336723284e-16 -3.6032444959443318e-03 0.0000000000000000e+00  3.1748069366982955e-16 -3.6032444959443796e-03 0.0000000000000000e+00  3.0331261768761899e-16 -3.6032444959442516e-03 0.0000000000000000e+00  2.5767770393516557e-16 -3.6032444959441124e-03 0.0000000000000000e+00  1.0571455768602704e-16 -3.6032444959440174e-03 0.0000000000000000e+00  1.8413939492592405e-32 -3.6032444959440513e-03 0.0000000000000000e+00  4.5640203454201121e-33 -3.8804171494784385e-03 0.0000000000000000e+00  -5.3284820171142462e-17 -3.8804171494785239e-03 0.0000000000000000e+00  2.6658859332331602e-17 -3.8804171494786544e-03 0.0000000000000000e+00  1.9199813862897839e-16 -3.8804171494786445e-03 0.0000000000000000e+00  2.8439716552869006e-16 -3.8804171494785612e-03 0.0000000000000000e+00  3.1174885015979886e-16 -3.8804171494785334e-03 0.0000000000000000e+00  3.2576333199102944e-16 -3.8804171494785477e-03 0.0000000000000000e+00  3.1875438527663513e-16 -3.8804171494784285e-03 0.0000000000000000e+00  2.7090160371716355e-16 -3.8804171494782862e-03 0.0000000000000000e+00  1.1133619988598137e-16 -3.8804171494781678e-03 0.0000000000000000e+00  3.5466343841952415e-33 -3.8804171494781965e-03 0.0000000000000000e+00  -5.6423728839469759e-33 -4.1575898030126179e-03 0.0000000000000000e+00  -6.6881197212112234e-17 -4.1575898030127142e-03 0.0000000000000000e+00  2.3536683459276295e-17 -4.1575898030128426e-03 0.0000000000000000e+00  2.0553420291481343e-16 -4.1575898030128174e-03 0.0000000000000000e+00  2.8948212624183414e-16 -4.1575898030127524e-03 0.0000000000000000e+00  3.1354976977562960e-16 -4.1575898030127246e-03 0.0000000000000000e+00  3.3432817352540675e-16 -4.1575898030127133e-03 0.0000000000000000e+00  3.3040160207594576e-16 -4.1575898030126015e-03 0.0000000000000000e+00  2.8445252350288760e-16 -4.1575898030124549e-03 0.0000000000000000e+00  1.1701384860667349e-16 -4.1575898030123256e-03 0.0000000000000000e+00  -1.8055593228630320e-32 -4.1575898030123577e-03 0.0000000000000000e+00  9.7236754229310504e-33 -4.4347624565468013e-03 0.0000000000000000e+00  -7.9335257356294258e-17 -4.4347624565469132e-03 0.0000000000000000e+00  2.1333107724703551e-17 -4.4347624565470234e-03 0.0000000000000000e+00  2.1416741721312746e-16 -4.4347624565470025e-03 0.0000000000000000e+00  2.8969691512562301e-16 -4.4347624565469566e-03 0.0000000000000000e+00  3.1793032852049518e-16 -4.4347624565469201e-03 0.0000000000000000e+00  3.4123941866360544e-16 -4.4347624565468742e-03 0.0000000000000000e+00  3.4136126749739820e-16 -4.4347624565467666e-03 0.0000000000000000e+00  2.9643394684836909e-16 -4.4347624565466209e-03 0.0000000000000000e+00  1.2259403396085069e-16 -4.4347624565464943e-03 0.0000000000000000e+00  2.5161137865751890e-32 -4.4347624565465203e-03 0.0000000000000000e+00  -1.8055593228630399e-32 -4.7119351100809882e-03 0.0000000000000000e+00  -8.9282497296397761e-17 -4.7119351100811200e-03 0.0000000000000000e+00  2.0568092752700851e-17 -4.7119351100812102e-03 0.0000000000000000e+00  2.1936082335073499e-16 -4.7119351100811929e-03 0.0000000000000000e+00  2.8743332742402876e-16 -4.7119351100811616e-03 0.0000000000000000e+00  3.2529767070372236e-16 -4.7119351100811053e-03 0.0000000000000000e+00  3.5125828747102832e-16 -4.7119351100810211e-03 0.0000000000000000e+00  3.4602417719270366e-16 -4.7119351100809144e-03 0.0000000000000000e+00  3.0741128804309550e-16 -4.7119351100807826e-03 0.0000000000000000e+00  1.2584411314752576e-16 -4.7119351100806525e-03 0.0000000000000000e+00  -4.6857604693928052e-33 -4.7119351100807002e-03 0.0000000000000000e+00  3.4459271765718458e-33 -4.9891077636151767e-03 0.0000000000000000e+00  -9.8994910400307847e-17 -4.9891077636153233e-03 0.0000000000000000e+00  2.4746571268258684e-17 -4.9891077636154083e-03 0.0000000000000000e+00  2.2049202864371045e-16 -4.9891077636153901e-03 0.0000000000000000e+00  2.8302227812044792e-16 -4.9891077636153571e-03 0.0000000000000000e+00  3.3624482331676330e-16 -4.9891077636152895e-03 0.0000000000000000e+00  3.6654751395296954e-16 -4.9891077636151603e-03 0.0000000000000000e+00  3.4499619687557836e-16 -4.9891077636150380e-03 0.0000000000000000e+00  3.1495306584524307e-16 -4.9891077636149269e-03 0.0000000000000000e+00  1.2729443865081788e-16 -4.9891077636148159e-03 0.0000000000000000e+00  1.2252009690856301e-32 -4.9891077636148758e-03 0.0000000000000000e+00  -1.4670169498262137e-32 -5.2662804171493749e-03 0.0000000000000000e+00  -1.0902660280203862e-16 -5.2662804171495119e-03 0.0000000000000000e+00  3.0999737126367085e-17 -5.2662804171496116e-03 0.0000000000000000e+00  2.1907524371241827e-16 -5.2662804171495770e-03 0.0000000000000000e+00  2.7593757424929358e-16 -5.2662804171495535e-03 0.0000000000000000e+00  3.5465239864766129e-16 -5.2662804171494564e-03 0.0000000000000000e+00  3.8122266002260971e-16 -5.2662804171493141e-03 0.0000000000000000e+00  3.4304740155288142e-16 -5.2662804171491736e-03 0.0000000000000000e+00  3.1691576753221634e-16 -5.2662804171490609e-03 0.0000000000000000e+00  1.2045023505971174e-16 -5.2662804171489741e-03 0.0000000000000000e+00  1.8055593228630320e-32 -5.2662804171490557e-03 0.0000000000000000e+00  1.1737668563509060e-32 -5.5434530706835791e-03 0.0000000000000000e+00  -1.1622905731153503e-16 -5.5434530706836953e-03 0.0000000000000000e+00  3.5390257835251596e-17 -5.5434530706838089e-03 0.0000000000000000e+00  2.1402028767433784e-16 -5.5434530706837751e-03 0.0000000000000000e+00  2.7083504911673688e-16 -5.5434530706837491e-03 0.0000000000000000e+00  3.7281878826737621e-16 -5.5434530706836181e-03 0.0000000000000000e+00  3.9711302011682508e-16 -5.5434530706834810e-03 0.0000000000000000e+00  3.4005392716529623e-16 -5.5434530706833102e-03 0.0000000000000000e+00  3.1121557445278249e-16 -5.5434530706832087e-03 0.0000000000000000e+00  1.1092206330324560e-16 -5.5434530706831436e-03 0.0000000000000000e+00  -9.0496468535890839e-33 -5.5434530706832208e-03 0.0000000000000000e+00  -2.0312542382209147e-32 -5.8206257242177876e-03 0.0000000000000000e+00  -1.2177033647496841e-16 -5.8206257242178830e-03 0.0000000000000000e+00  3.7452472107606598e-17 -5.8206257242180027e-03 0.0000000000000000e+00  2.1286630013291115e-16 -5.8206257242179853e-03 0.0000000000000000e+00  2.6626262946749930e-16 -5.8206257242179160e-03 0.0000000000000000e+00  3.8902563971922831e-16 -5.8206257242177789e-03 0.0000000000000000e+00  4.1678764058914533e-16 -5.8206257242176557e-03 0.0000000000000000e+00  3.3398509913111756e-16 -5.8206257242174710e-03 0.0000000000000000e+00  3.0181552444459938e-16 -5.8206257242173695e-03 0.0000000000000000e+00  9.9775553300285673e-17 -5.8206257242173209e-03 0.0000000000000000e+00  3.0590334983441131e-34 -5.8206257242173903e-03 0.0000000000000000e+00  -2.4127648370788664e-33 -6.0977983777519996e-03 0.0000000000000000e+00  -1.2689539185529267e-16 -6.0977983777520620e-03 0.0000000000000000e+00  3.6161903227980597e-17 -6.0977983777521947e-03 0.0000000000000000e+00  2.1583780036905561e-16 -6.0977983777521869e-03 0.0000000000000000e+00  2.6270801767999133e-16 -6.0977983777520889e-03 0.0000000000000000e+00  4.0550882808951770e-16 -6.0977983777519458e-03 0.0000000000000000e+00  4.3086973684008525e-16 -6.0977983777518226e-03 0.0000000000000000e+00  3.2873665253025770e-16 -6.0977983777516804e-03 0.0000000000000000e+00  2.9517327595945668e-16 -6.0977983777515173e-03 0.0000000000000000e+00  8.3121328375069366e-17 -6.0977983777514783e-03 0.0000000000000000e+00  2.4987651343193746e-33 -6.0977983777515616e-03 0.0000000000000000e+00  7.8993220375257666e-33 -6.3749710312862038e-03 0.0000000000000000e+00  -1.3282563346961507e-16 -6.3749710312862610e-03 0.0000000000000000e+00  3.2729336193503477e-17 -6.3749710312864007e-03 0.0000000000000000e+00  2.1973188629767104e-16 -6.3749710312864050e-03 0.0000000000000000e+00  2.6513231608091186e-16 -6.3749710312862489e-03 0.0000000000000000e+00  4.2377035033276807e-16 -6.3749710312861222e-03 0.0000000000000000e+00  4.3513916482581992e-16 -6.3749710312859982e-03 0.0000000000000000e+00  3.2111677984494009e-16 -6.3749710312858855e-03 0.0000000000000000e+00  2.8844390596550988e-16 -6.3749710312856886e-03 0.0000000000000000e+00  6.7963536949670063e-17 -6.3749710312856383e-03 0.0000000000000000e+00  -3.3854237303681853e-33 -6.3749710312857285e-03 0.0000000000000000e+00  -3.0228242599014861e-32 -6.6521436848204262e-03 0.0000000000000000e+00  -1.3804253491669100e-16 -6.6521436848204557e-03 0.0000000000000000e+00  2.4193598489582900e-17 -6.6521436848206135e-03 0.0000000000000000e+00  2.2630585874214564e-16 -6.6521436848206239e-03 0.0000000000000000e+00  2.7101486921205945e-16 -6.6521436848203958e-03 0.0000000000000000e+00  4.3895328230534173e-16 -6.6521436848202995e-03 0.0000000000000000e+00  4.3436761937248869e-16 -6.6521436848201981e-03 0.0000000000000000e+00  3.1265986100263276e-16 -6.6521436848200922e-03 0.0000000000000000e+00  2.8140493668507291e-16 -6.6521436848198563e-03 0.0000000000000000e+00  5.1282617851614104e-17 -6.6521436848198008e-03 0.0000000000000000e+00  7.5484488976802413e-33 -6.6521436848198849e-03 0.0000000000000000e+00  3.1597288150103066e-32 -6.9293163383546226e-03 0.0000000000000000e+00  -1.4322715421895536e-16 -6.9293163383546685e-03 0.0000000000000000e+00  1.4803271682539301e-17 -6.9293163383548030e-03 0.0000000000000000e+00  2.3173250840338444e-16 -6.9293163383548290e-03 0.0000000000000000e+00  2.7917849365514