<?xml version="1.0"?>
<VTKFile type="UnstructuredGrid"  version="0.1"  >
<UnstructuredGrid>
<Piece  NumberOfPoints="1091" NumberOfCells="2050">
<Points>
<DataArray  type="Float64"  NumberOfComponents="3"  format="ascii">-0.5 -1 0  -0.4 -1 0  -0.3 -1 0  -0.2 -1 0  -0.09999999999999998 -1 0  0 -1 0  0.09999999999999998 -1 0  0.2 -1 0  0.3 -1 0  0.4 -1 0  0.5 -1 0  -0.5 -0.98 0  -0.4 -0.98 0  -0.3 -0.98 0  -0.2 -0.98 0  -0.09999999999999998 -0.98 0  0 -0.98 0  0.09999999999999998 -0.98 0  0.2 -0.98 0  0.3 -0.98 0  0.4 -0.98 0  0.5 -0.98 0  -0.5 -0.96 0  -0.4 -0.96 0  -0.3 -0.96 0  -0.2 -0.96 0  -0.09999999999999998 -0.96 0  0 -0.96 0  0.09999999999999998 -0.96 0  0.2 -0.96 0  0.3 -0.96 0  0.4 -0.96 0  0.5 -0.96 0  -0.5 -0.9399999999999999 0  -0.4 -0.9399999999999999 0  -0.3 -0.9399999999999999 0  -0.2 -0.9399999999999999 0  -0.09999999999999998 -0.9399999999999999 0  0 -0.9399999999999999 0  0.09999999999999998 -0.9399999999999999 0  0.2 -0.9399999999999999 0  0.3 -0.9399999999999999 0  0.4 -0.9399999999999999 0  0.5 -0.9399999999999999 0  -0.5 -0.92 0  -0.4 -0.92 0  -0.3 -0.92 0  -0.2 -0.92 0  -0.09999999999999998 -0.92 0  0 -0.92 0  0.09999999999999998 -0.92 0  0.2 -0.92 0  0.3 -0.92 0  0.4 -0.92 0  0.5 -0.92 0  -0.5 -0.9 0  -0.4 -0.9 0  -0.3 -0.9 0  -0.2 -0.9 0  -0.09999999999999998 -0.9 0  0 -0.9 0  0.09999999999999998 -0.9 0  0.2 -0.9 0  0.3 -0.9 0  0.4 -0.9 0  0.5 -0.9 0  -0.5 -0.88 0  -0.4 -0.88 0  -0.3 -0.88 0  -0.2 -0.88 0  -0.09999999999999998 -0.88 0  0 -0.88 0  0.09999999999999998 -0.88 0  0.2 -0.88 0  0.3 -0.88 0  0.4 -0.88 0  0.5 -0.88 0  -0.5 -0.86 0  -0.4 -0.86 0  -0.3 -0.86 0  -0.2 -0.86 0  -0.09999999999999998 -0.86 0  0 -0.86 0  0.09999999999999998 -0.86 0  0.2 -0.86 0  0.3 -0.86 0  0.4 -0.86 0  0.5 -0.86 0  -0.5 -0.84 0  -0.4 -0.84 0  -0.3 -0.84 0  -0.2 -0.84 0  -0.09999999999999998 -0.84 0  0 -0.84 0  0.09999999999999998 -0.84 0  0.2 -0.84 0  0.3 -0.84 0  0.4 -0.84 0  0.5 -0.84 0  -0.5 -0.8200000000000001 0  -0.4 -0.8200000000000001 0  -0.3 -0.8200000000000001 0  -0.2 -0.8200000000000001 0  -0.09999999999999998 -0.8200000000000001 0  0 -0.8200000000000001 0  0.09999999999999998 -0.8200000000000001 0  0.2 -0.8200000000000001 0  0.3 -0.8200000000000001 0  0.4 -0.8200000000000001 0  0.5 -0.8200000000000001 0  -0.5 -0.8 0  -0.4 -0.8 0  -0.3 -0.8 0  -0.2 -0.8 0  -0.09999999999999998 -0.8 0  0 -0.8 0  0.09999999999999998 -0.8 0  0.2 -0.8 0  0.3 -0.8 0  0.4 -0.8 0  0.5 -0.8 0  -0.5 -0.78 0  -0.4 -0.78 0  -0.3 -0.78 0  -0.2 -0.78 0  -0.09999999999999998 -0.78 0  0 -0.78 0  0.09999999999999998 -0.78 0  0.2 -0.78 0  0.3 -0.78 0  0.4 -0.78 0  0.5 -0.78 0  -0.5 -0.76 0  -0.4 -0.76 0  -0.3 -0.76 0  -0.2 -0.76 0  -0.09999999999999998 -0.76 0  0 -0.76 0  0.09999999999999998 -0.76 0  0.2 -0.76 0  0.3 -0.76 0  0.4 -0.76 0  0.5 -0.76 0  -0.5 -0.74 0  -0.4 -0.74 0  -0.3 -0.74 0  -0.2 -0.74 0  -0.09999999999999998 -0.74 0  0 -0.74 0  0.09999999999999998 -0.74 0  0.2 -0.74 0  0.3 -0.74 0  0.4 -0.74 0  0.5 -0.74 0  -0.5 -0.72 0  -0.4 -0.72 0  -0.3 -0.72 0  -0.2 -0.72 0  -0.09999999999999998 -0.72 0  0 -0.72 0  0.09999999999999998 -0.72 0  0.2 -0.72 0  0.3 -0.72 0  0.4 -0.72 0  0.5 -0.72 0  -0.5 -0.7 0  -0.4 -0.7 0  -0.3 -0.7 0  -0.2 -0.7 0  -0.09999999999999998 -0.7 0  0 -0.7 0  0.09999999999999998 -0.7 0  0.2 -0.7 0  0.3 -0.7 0  0.4 -0.7 0  0.5 -0.7 0  -0.5 -0.6799999999999999 0  -0.4 -0.6799999999999999 0  -0.3 -0.6799999999999999 0  -0.2 -0.6799999999999999 0  -0.09999999999999998 -0.6799999999999999 0  0 -0.6799999999999999 0  0.09999999999999998 -0.6799999999999999 0  0.2 -0.6799999999999999 0  0.3 -0.6799999999999999 0  0.4 -0.6799999999999999 0  0.5 -0.6799999999999999 0  -0.5 -0.6599999999999999 0  -0.4 -0.6599999999999999 0  -0.3 -0.6599999999999999 0  -0.2 -0.6599999999999999 0  -0.09999999999999998 -0.6599999999999999 0  0 -0.6599999999999999 0  0.09999999999999998 -0.6599999999999999 0  0.2 -0.6599999999999999 0  0.3 -0.6599999999999999 0  0.4 -0.6599999999999999 0  0.5 -0.6599999999999999 0  -0.5 -0.64 0  -0.4 -0.64 0  -0.3 -0.64 0  -0.2 -0.64 0  -0.09999999999999998 -0.64 0  0 -0.64 0  0.09999999999999998 -0.64 0  0.2 -0.64 0  0.3 -0.64 0  0.4 -0.64 0  0.5 -0.64 0  -0.5 -0.62 0  -0.4 -0.62 0  -0.3 -0.62 0  -0.2 -0.62 0  -0.09999999999999998 -0.62 0  0 -0.62 0  0.09999999999999998 -0.62 0  0.2 -0.62 0  0.3 -0.62 0  0.4 -0.62 0  0.5 -0.62 0  -0.5 -0.6 0  -0.4 -0.6 0  -0.3 -0.6 0  -0.2 -0.6 0  -0.09999999999999998 -0.6 0  0 -0.6 0  0.09999999999999998 -0.6 0  0.2 -0.6 0  0.3 -0.6 0  0.4 -0.6 0  0.5 -0.6 0  -0.5 -0.5800000000000001 0  -0.4 -0.5800000000000001 0  -0.3 -0.5800000000000001 0  -0.2 -0.5800000000000001 0  -0.09999999999999998 -0.5800000000000001 0  0 -0.5800000000000001 0  0.09999999999999998 -0.5800000000000001 0  0.2 -0.5800000000000001 0  0.3 -0.5800000000000001 0  0.4 -0.5800000000000001 0  0.5 -0.5800000000000001 0  -0.5 -0.5600000000000001 0  -0.4 -0.5600000000000001 0  -0.3 -0.5600000000000001 0  -0.2 -0.5600000000000001 0  -0.09999999999999998 -0.5600000000000001 0  0 -0.5600000000000001 0  0.09999999999999998 -0.5600000000000001 0  0.2 -0.5600000000000001 0  0.3 -0.5600000000000001 0  0.4 -0.5600000000000001 0  0.5 -0.5600000000000001 0  -0.5 -0.54 0  -0.4 -0.54 0  -0.3 -0.54 0  -0.2 -0.54 0  -0.09999999999999998 -0.54 0  0 -0.54 0  0.09999999999999998 -0.54 0  0.2 -0.54 0  0.3 -0.54 0  0.4 -0.54 0  0.5 -0.54 0  -0.5 -0.52 0  -0.4 -0.52 0  -0.3 -0.52 0  -0.2 -0.52 0  -0.09999999999999998 -0.52 0  0 -0.52 0  0.09999999999999998 -0.52 0  0.2 -0.52 0  0.3 -0.52 0  0.4 -0.52 0  0.5 -0.52 0  -0.5 -0.5 0  -0.4 -0.5 0  -0.3 -0.5 0  -0.2 -0.5 0  -0.09999999999999998 -0.5 0  0 -0.5 0  0.09999999999999998 -0.5 0  0.2 -0.5 0  0.3 -0.5 0  0.4 -0.5 0  0.5 -0.5 0  -0.5 -0.48 0  -0.4 -0.48 0  -0.3 -0.48 0  -0.2 -0.48 0  -0.09999999999999998 -0.48 0  0 -0.48 0  0.09999999999999998 -0.48 0  0.2 -0.48 0  0.3 -0.48 0  0.4 -0.48 0  0.5 -0.48 0  -0.5 -0.46 0  -0.4 -0.46 0  -0.3 -0.46 0  -0.2 -0.46 0  -0.09999999999999998 -0.46 0  0 -0.46 0  0.09999999999999998 -0.46 0  0.2 -0.46 0  0.3 -0.46 0  0.4 -0.46 0  0.5 -0.46 0  -0.5 -0.4399999999999999 0  -0.4 -0.4399999999999999 0  -0.3 -0.4399999999999999 0  -0.2 -0.4399999999999999 0  -0.09999999999999998 -0.4399999999999999 0  0 -0.4399999999999999 0  0.09999999999999998 -0.4399999999999999 0  0.2 -0.4399999999999999 0  0.3 -0.4399999999999999 0  0.4 -0.4399999999999999 0  0.5 -0.4399999999999999 0  -0.5 -0.42 0  -0.4 -0.42 0  -0.3 -0.42 0  -0.2 -0.42 0  -0.09999999999999998 -0.42 0  0 -0.42 0  0.09999999999999998 -0.42 0  0.2 -0.42 0  0.3 -0.42 0  0.4 -0.42 0  0.5 -0.42 0  -0.5 -0.4 0  -0.4 -0.4 0  -0.3 -0.4 0  -0.2 -0.4 0  -0.09999999999999998 -0.4 0  0 -0.4 0  0.09999999999999998 -0.4 0  0.2 -0.4 0  0.3 -0.4 0  0.4 -0.4 0  0.5 -0.4 0  -0.5 -0.38 0  -0.4 -0.38 0  -0.3 -0.38 0  -0.2 -0.38 0  -0.09999999999999998 -0.38 0  0 -0.38 0  0.09999999999999998 -0.38 0  0.2 -0.38 0  0.3 -0.38 0  0.4 -0.38 0  0.5 -0.38 0  -0.5 -0.36 0  -0.4 -0.36 0  -0.3 -0.36 0  -0.2 -0.36 0  -0.09999999999999998 -0.36 0  0 -0.36 0  0.09999999999999998 -0.36 0  0.2 -0.36 0  0.3 -0.36 0  0.4 -0.36 0  0.5 -0.36 0  -0.5 -0.34 0  -0.4 -0.34 0  -0.3 -0.34 0  -0.2 -0.34 0  -0.09999999999999998 -0.34 0  0 -0.34 0  0.09999999999999998 -0.34 0  0.2 -0.34 0  0.3 -0.34 0  0.4 -0.34 0  0.5 -0.34 0  -0.5 -0.32 0  -0.4 -0.32 0  -0.3 -0.32 0  -0.2 -0.32 0  -0.09999999999999998 -0.32 0  0 -0.32 0  0.09999999999999998 -0.32 0  0.2 -0.32 0  0.3 -0.32 0  0.4 -0.32 0  0.5 -0.32 0  -0.5 -0.3 0  -0.4 -0.3 0  -0.3 -0.3 0  -0.2 -0.3 0  -0.09999999999999998 -0.3 0  0 -0.3 0  0.09999999999999998 -0.3 0  0.2 -0.3 0  0.3 -0.3 0  0.4 -0.3 0  0.5 -0.3 0  -0.5 -0.28 0  -0.4 -0.28 0  -0.3 -0.28 0  -0.2 -0.28 0  -0.09999999999999998 -0.28 0  0 -0.28 0  0.09999999999999998 -0.28 0  0.2 -0.28 0  0.3 -0.28 0  0.4 -0.28 0  0.5 -0.28 0  -0.5 -0.26 0  -0.4 -0.26 0  -0.3 -0.26 0  -0.2 -0.26 0  -0.09999999999999998 -0.26 0  0 -0.26 0  0.09999999999999998 -0.26 0  0.2 -0.26 0  0.3 -0.26 0  0.4 -0.26 0  0.5 -0.26 0  -0.5 -0.24 0  -0.4 -0.24 0  -0.3 -0.24 0  -0.2 -0.24 0  -0.09999999999999998 -0.24 0  0 -0.24 0  0.09999999999999998 -0.24 0  0.2 -0.24 0  0.3 -0.24 0  0.4 -0.24 0  0.5 -0.24 0  -0.5 -0.22 0  -0.4 -0.22 0  -0.3 -0.22 0  -0.2 -0.22 0  -0.09999999999999998 -0.22 0  0 -0.22 0  0.09999999999999998 -0.22 0  0.2 -0.22 0  0.3 -0.22 0  0.4 -0.22 0  0.5 -0.22 0  -0.5 -0.2 0  -0.4 -0.2 0  -0.3 -0.2 0  -0.2 -0.2 0  -0.09999999999999998 -0.2 0  0 -0.2 0  0.09999999999999998 -0.2 0  0.2 -0.2 0  0.3 -0.2 0  0.4 -0.2 0  0.5 -0.2 0  -0.5 -0.18 0  -0.4 -0.18 0  -0.3 -0.18 0  -0.2 -0.18 0  -0.09999999999999998 -0.18 0  0 -0.18 0  0.09999999999999998 -0.18 0  0.2 -0.18 0  0.3 -0.18 0  0.4 -0.18 0  0.5 -0.18 0  -0.5 -0.16 0  -0.4 -0.16 0  -0.3 -0.16 0  -0.2 -0.16 0  -0.09999999999999998 -0.16 0  0 -0.16 0  0.09999999999999998 -0.16 0  0.2 -0.16 0  0.3 -0.16 0  0.4 -0.16 0  0.5 -0.16 0  -0.5 -0.14 0  -0.4 -0.14 0  -0.3 -0.14 0  -0.2 -0.14 0  -0.09999999999999998 -0.14 0  0 -0.14 0  0.09999999999999998 -0.14 0  0.2 -0.14 0  0.3 -0.14 0  0.4 -0.14 0  0.5 -0.14 0  -0.5 -0.12 0  -0.4 -0.12 0  -0.3 -0.12 0  -0.2 -0.12 0  -0.09999999999999998 -0.12 0  0 -0.12 0  0.09999999999999998 -0.12 0  0.2 -0.12 0  0.3 -0.12 0  0.4 -0.12 0  0.5 -0.12 0  -0.5 -0.09999999999999998 0  -0.4 -0.09999999999999998 0  -0.3 -0.09999999999999998 0  -0.2 -0.09999999999999998 0  -0.09999999999999998 -0.09999999999999998 0  0 -0.09999999999999998 0  0.09999999999999998 -0.09999999999999998 0  0.2 -0.09999999999999998 0  0.3 -0.09999999999999998 0  0.4 -0.09999999999999998 0  0.5 -0.09999999999999998 0  -0.5 -0.07999999999999996 0  -0.4 -0.07999999999999996 0  -0.3 -0.07999999999999996 0  -0.2 -0.07999999999999996 0  -0.09999999999999998 -0.07999999999999996 0  0 -0.07999999999999996 0  0.09999999999999998 -0.07999999999999996 0  0.2 -0.07999999999999996 0  0.3 -0.07999999999999996 0  0.4 -0.07999999999999996 0  0.5 -0.07999999999999996 0  -0.5 -0.06000000000000005 0  -0.4 -0.06000000000000005 0  -0.3 -0.06000000000000005 0  -0.2 -0.06000000000000005 0  -0.09999999
[...]
<PointData  Vectors="displacement"> 
<DataArray  type="Float64"  Name="displacement"  NumberOfComponents="3" format="ascii">-7.7582627154270907e-34 -3.9704669402545292e-20 0.0000000000000000e+00  -8.4635593259204615e-34 -3.4741585727227126e-20 0.0000000000000000e+00  1.1576782645676362e-33 -4.3795336025561431e-20 0.0000000000000000e+00  0.0000000000000000e+00 1.2407709188295406e-20 0.0000000000000000e+00  6.8112105814343433e-33 -1.5204552841778582e-20 0.0000000000000000e+00  3.3854237303681846e-33 1.7370792863613563e-20 0.0000000000000000e+00  7.8304454154072732e-33 -6.1168552269875845e-20 0.0000000000000000e+00  2.5390677977761383e-33 -4.9630836753181608e-21 0.0000000000000000e+00  1.1337217756097617e-33 -3.6602742105471439e-20 0.0000000000000000e+00  0.0000000000000000e+00 4.9630836753181624e-20 0.0000000000000000e+00  0.0000000000000000e+00 2.9778502051908960e-20 0.0000000000000000e+00  -2.8211864419734879e-34 -2.7717265353417318e-04 0.0000000000000000e+00  -9.4339930425882071e-18 -2.7717265353417503e-04 0.0000000000000000e+00  3.1107533587028916e-18 -2.7717265353418105e-04 0.0000000000000000e+00  2.6564106594020371e-17 -2.7717265353418343e-04 0.0000000000000000e+00  3.5590594340375773e-17 -2.7717265353417806e-04 0.0000000000000000e+00  4.3818492885457933e-17 -2.7717265353417459e-04 0.0000000000000000e+00  4.5483721161659433e-17 -2.7717265353417313e-04 0.0000000000000000e+00  3.0988338199856505e-17 -2.7717265353417020e-04 0.0000000000000000e+00  2.6599923603689674e-17 -2.7717265353416955e-04 0.0000000000000000e+00  1.5878904831302877e-17 -2.7717265353416207e-04 0.0000000000000000e+00  -8.8157625181112291e-34 -2.7717265353416831e-04 0.0000000000000000e+00  -1.9816069778084624e-33 -5.5434530706834485e-04 0.0000000000000000e+00  -1.5200272093661861e-17 -5.5434530706835081e-04 0.0000000000000000e+00  7.0928382141415016e-18 -5.5434530706836350e-04 0.0000000000000000e+00  4.9646268268271966e-17 -5.5434530706836957e-04 0.0000000000000000e+00  6.9154858854997867e-17 -5.5434530706835905e-04 0.0000000000000000e+00  8.4683018568418507e-17 -5.5434530706835049e-04 0.0000000000000000e+00  8.6588053298514170e-17 -5.5434530706834615e-04 0.0000000000000000e+00  6.0103284017347456e-17 -5.5434530706833997e-04 0.0000000000000000e+00  5.0239248885898656e-17 -5.5434530706834019e-04 0.0000000000000000e+00  3.0188447367412166e-17 -5.5434530706832219e-04 0.0000000000000000e+00  3.2242130765411291e-33 -5.5434530706833520e-04 0.0000000000000000e+00  -5.6423728839469852e-34 -8.3151796060251370e-04 0.0000000000000000e+00  -1.9013712272038091e-17 -8.3151796060252606e-04 0.0000000000000000e+00  1.1557859423956842e-17 -8.3151796060254720e-04 0.0000000000000000e+00  7.0032131458761733e-17 -8.3151796060256195e-04 0.0000000000000000e+00  1.0011981357900667e-16 -8.3151796060253961e-04 0.0000000000000000e+00  1.2321023646508383e-16 -8.3151796060252964e-04 0.0000000000000000e+00  1.2406547154651202e-16 -8.3151796060252118e-04 0.0000000000000000e+00  8.6110217004502074e-17 -8.3151796060251045e-04 0.0000000000000000e+00  7.1711838245115253e-17 -8.3151796060250947e-04 0.0000000000000000e+00  4.3643790835008665e-17 -8.3151796060248161e-04 0.0000000000000000e+00  -5.6423728839469828e-33 -8.3151796060250112e-04 0.0000000000000000e+00  -1.3097440324121044e-33 -1.1086906141366823e-03 0.0000000000000000e+00  -2.1501760510902627e-17 -1.1086906141367008e-03 0.0000000000000000e+00  1.6108982764216615e-17 -1.1086906141367274e-03 0.0000000000000000e+00  8.8007989578780513e-17 -1.1086906141367522e-03 0.0000000000000000e+00  1.2925115048037174e-16 -1.1086906141367196e-03 0.0000000000000000e+00  1.5806455669304264e-16 -1.1086906141367086e-03 0.0000000000000000e+00  1.5872650545106022e-16 -1.1086906141366997e-03 0.0000000000000000e+00  1.0997090222537632e-16 -1.1086906141366825e-03 0.0000000000000000e+00  9.1286793359608624e-17 -1.1086906141366719e-03 0.0000000000000000e+00  5.5885842642558842e-17 -1.1086906141366377e-03 0.0000000000000000e+00  7.7811039839415643e-33 -1.1086906141366661e-03 0.0000000000000000e+00  8.4635593259204632e-34 -1.3858632676708559e-03 0.0000000000000000e+00  -2.3044394545265188e-17 -1.3858632676708778e-03 0.0000000000000000e+00  2.0031750734286042e-17 -1.3858632676709104e-03 0.0000000000000000e+00  1.0365174824843563e-16 -1.3858632676709425e-03 0.0000000000000000e+00  1.5659523861688457e-16 -1.3858632676709032e-03 0.0000000000000000e+00  1.8939525554149685e-16 -1.3858632676708948e-03 0.0000000000000000e+00  1.8991912448971605e-16 -1.3858632676708850e-03 0.0000000000000000e+00  1.3335479057475603e-16 -1.3858632676708607e-03 0.0000000000000000e+00  1.1059858349741216e-16 -1.3858632676708312e-03 0.0000000000000000e+00  6.6789599821044026e-17 -1.3858632676707935e-03 0.0000000000000000e+00  1.6550527501792570e-33 -1.3858632676708284e-03 0.0000000000000000e+00  5.5050549089013952e-34 -1.6630359212050304e-03 0.0000000000000000e+00  -2.3695781567043398e-17 -1.6630359212050534e-03 0.0000000000000000e+00  2.3215414253101042e-17 -1.6630359212050961e-03 0.0000000000000000e+00  1.1794010654618451e-16 -1.6630359212051321e-03 0.0000000000000000e+00  1.8140833292618684e-16 -1.6630359212050877e-03 0.0000000000000000e+00  2.1723234584690675e-16 -1.6630359212050781e-03 0.0000000000000000e+00  2.1846166678753125e-16 -1.6630359212050708e-03 0.0000000000000000e+00  1.5640019422721332e-16 -1.6630359212050428e-03 0.0000000000000000e+00  1.3007016117013733e-16 -1.6630359212049912e-03 0.0000000000000000e+00  7.5507287932956843e-17 -1.6630359212049491e-03 0.0000000000000000e+00  -9.4308232488828017e-33 -1.6630359212049847e-03 0.0000000000000000e+00  -1.4105932209867440e-33 -1.9402085747392019e-03 0.0000000000000000e+00  -2.4064151692465849e-17 -1.9402085747392240e-03 0.0000000000000000e+00  2.3861873210785209e-17 -1.9402085747392780e-03 0.0000000000000000e+00  1.3136637530105879e-16 -1.9402085747393287e-03 0.0000000000000000e+00  2.0339419799113193e-16 -1.9402085747392702e-03 0.0000000000000000e+00  2.4343020059851558e-16 -1.9402085747392593e-03 0.0000000000000000e+00  2.4396210765745179e-16 -1.9402085747392500e-03 0.0000000000000000e+00  1.7816073042499574e-16 -1.9402085747392220e-03 0.0000000000000000e+00  1.4947727322520773e-16 -1.9402085747391472e-03 0.0000000000000000e+00  8.1883034945858992e-17 -1.9402085747390995e-03 0.0000000000000000e+00  5.6423728839469746e-33 -1.9402085747391407e-03 0.0000000000000000e+00  -2.6639687158842765e-33 -2.2173812282733655e-03 0.0000000000000000e+00  -2.6578382745167459e-17 -2.2173812282733933e-03 0.0000000000000000e+00  2.3033602961383235e-17 -2.2173812282734718e-03 0.0000000000000000e+00  1.4340644034696913e-16 -2.2173812282735230e-03 0.0000000000000000e+00  2.2324716805261274e-16 -2.2173812282734570e-03 0.0000000000000000e+00  2.6727817569893689e-16 -2.2173812282734440e-03 0.0000000000000000e+00  2.6858677821396367e-16 -2.2173812282734354e-03 0.0000000000000000e+00  1.9838956888267064e-16 -2.2173812282733955e-03 0.0000000000000000e+00  1.6856522831468618e-16 -2.2173812282733052e-03 0.0000000000000000e+00  8.6371517300945061e-17 -2.2173812282732484e-03 0.0000000000000000e+00  -3.5358810804492316e-33 -2.2173812282732935e-03 0.0000000000000000e+00  -2.8211864419734999e-33 -2.4945538818075329e-03 0.0000000000000000e+00  -3.2019120253713973e-17 -2.4945538818075580e-03 0.0000000000000000e+00  2.0343577489178327e-17 -2.4945538818076621e-03 0.0000000000000000e+00  1.5430143650605661e-16 -2.4945538818077193e-03 0.0000000000000000e+00  2.4205240021765453e-16 -2.4945538818076500e-03 0.0000000000000000e+00  2.8775632797097139e-16 -2.4945538818076257e-03 0.0000000000000000e+00  2.9053106637825534e-16 -2.4945538818076400e-03 0.0000000000000000e+00  2.1952729490976635e-16 -2.4945538818075801e-03 0.0000000000000000e+00  1.8705447603477058e-16 -2.4945538818074557e-03 0.0000000000000000e+00  8.9504858002678415e-17 -2.4945538818074058e-03 0.0000000000000000e+00  -1.3692241173917008e-32 -2.4945538818074496e-03 0.0000000000000000e+00  5.7671646935474213e-34 -2.7717265353417045e-03 0.0000000000000000e+00  -3.9423307287847246e-17 -2.7717265353417371e-03 0.0000000000000000e+00  1.4368976865440555e-17 -2.7717265353418620e-03 0.0000000000000000e+00  1.6351846901879804e-16 -2.7717265353419192e-03 0.0000000000000000e+00  2.6160757572821443e-16 -2.7717265353418437e-03 0.0000000000000000e+00  3.0322124936192428e-16 -2.7717265353418095e-03 0.0000000000000000e+00  3.0621494027244001e-16 -2.7717265353418450e-03 0.0000000000000000e+00  2.4462884470271102e-16 -2.7717265353417661e-03 0.0000000000000000e+00  2.0643966668621471e-16 -2.7717265353416126e-03 0.0000000000000000e+00  9.0636853542713538e-17 -2.7717265353415662e-03 0.0000000000000000e+00  7.2544794222175391e-33 -2.7717265353416035e-03 0.0000000000000000e+00  -1.1284745767893952e-33 -3.0488991888758792e-03 0.0000000000000000e+00  -5.0187410011573107e-17 -3.0488991888759230e-03 0.0000000000000000e+00  5.9205506528898448e-18 -3.0488991888760774e-03 0.0000000000000000e+00  1.7378296088524807e-16 -3.0488991888761178e-03 0.0000000000000000e+00  2.8007447586419891e-16 -3.0488991888760436e-03 0.0000000000000000e+00  3.1689511617754823e-16 -3.0488991888759968e-03 0.0000000000000000e+00  3.1759762870291462e-16 -3.0488991888760484e-03 0.0000000000000000e+00  2.7042591320365913e-16 -3.0488991888759547e-03 0.0000000000000000e+00  2.2737575428738771e-16 -3.0488991888757843e-03 0.0000000000000000e+00  9.0848176429300868e-17 -3.0488991888757166e-03 0.0000000000000000e+00  -6.7708474607363706e-33 -3.0488991888757587e-03 0.0000000000000000e+00  2.4209611062486579e-33 -3.3260718424100548e-03 0.0000000000000000e+00  -6.5750014172583918e-17 -3.3260718424101155e-03 0.0000000000000000e+00  -3.3926750932290200e-18 -3.3260718424102998e-03 0.0000000000000000e+00  1.8655742959019695e-16 -3.3260718424103076e-03 0.0000000000000000e+00  2.9755756258849786e-16 -3.3260718424102382e-03 0.0000000000000000e+00  3.2717441506938125e-16 -3.3260718424101853e-03 0.0000000000000000e+00  3.2503529566707006e-16 -3.3260718424102460e-03 0.0000000000000000e+00  2.9659499896078796e-16 -3.3260718424101415e-03 0.0000000000000000e+00  2.4804571044668691e-16 -3.3260718424099529e-03 0.0000000000000000e+00  9.3923050638601428e-17 -3.3260718424098740e-03 0.0000000000000000e+00  9.2997651419295171e-33 -3.3260718424099069e-03 0.0000000000000000e+00  -5.6423728839469759e-33 -3.6032444959442364e-03 0.0000000000000000e+00  -8.7235939626006522e-17 -3.6032444959443106e-03 0.0000000000000000e+00  -1.0909778731167794e-17 -3.6032444959445118e-03 0.0000000000000000e+00  2.0225019687913424e-16 -3.6032444959444992e-03 0.0000000000000000e+00  3.1357711241004716e-16 -3.6032444959444268e-03 0.0000000000000000e+00  3.3505992697688738e-16 -3.6032444959443913e-03 0.0000000000000000e+00  3.3132164389698611e-16 -3.6032444959444255e-03 0.0000000000000000e+00  3.2079856282383782e-16 -3.6032444959443076e-03 0.0000000000000000e+00  2.6704673976799469e-16 -3.6032444959441350e-03 0.0000000000000000e+00  9.9899052058950054e-17 -3.6032444959440365e-03 0.0000000000000000e+00  -3.8075593866009898e-33 -3.6032444959440703e-03 0.0000000000000000e+00  6.9210236932834274e-33 -3.8804171494784176e-03 0.0000000000000000e+00  -1.0908649958494784e-16 -3.8804171494785087e-03 0.0000000000000000e+00  -1.9893817685482357e-17 -3.8804171494787034e-03 0.0000000000000000e+00  2.2057718830798212e-16 -3.8804171494786913e-03 0.0000000000000000e+00  3.2373132901593092e-16 -3.8804171494786154e-03 0.0000000000000000e+00  3.3875852499033525e-16 -3.8804171494785881e-03 0.0000000000000000e+00  3.4119667751316930e-16 -3.8804171494785985e-03 0.0000000000000000e+00  3.3950820419515583e-16 -3.8804171494784736e-03 0.0000000000000000e+00  2.8600919651062094e-16 -3.8804171494783179e-03 0.0000000000000000e+00  1.0702362479075344e-16 -3.8804171494781947e-03 0.0000000000000000e+00  4.7557142878981656e-33 -3.8804171494782346e-03 0.0000000000000000e+00  4.5138983071575806e-33 -4.1575898030126015e-03 0.0000000000000000e+00  -1.2779717136421179e-16 -4.1575898030127073e-03 0.0000000000000000e+00  -2.8661036464674313e-17 -4.1575898030128842e-03 0.0000000000000000e+00  2.3630631986763354e-16 -4.1575898030128599e-03 0.0000000000000000e+00  3.2963371700294068e-16 -4.1575898030128053e-03 0.0000000000000000e+00  3.4195574037137335e-16 -4.1575898030127879e-03 0.0000000000000000e+00  3.5267190209320866e-16 -4.1575898030127619e-03 0.0000000000000000e+00  3.5484441532171440e-16 -4.1575898030126518e-03 0.0000000000000000e+00  3.0228069850260087e-16 -4.1575898030124896e-03 0.0000000000000000e+00  1.1208417043115018e-16 -4.1575898030123638e-03 0.0000000000000000e+00  -3.4982711880471243e-32 -4.1575898030124063e-03 0.0000000000000000e+00  2.9134189114129182e-32 -4.4347624565467935e-03 0.0000000000000000e+00  -1.4274999716797680e-16 -4.4347624565469227e-03 0.0000000000000000e+00  -3.3710551048898108e-17 -4.4347624565470485e-03 0.0000000000000000e+00  2.4468596086066384e-16 -4.4347624565470407e-03 0.0000000000000000e+00  3.2961348197215804e-16 -4.4347624565470121e-03 0.0000000000000000e+00  3.4906639756093095e-16 -4.4347624565469843e-03 0.0000000000000000e+00  3.6454220264871266e-16 -4.4347624565469201e-03 0.0000000000000000e+00  3.6858165004589160e-16 -4.4347624565468056e-03 0.0000000000000000e+00  3.1534935780014038e-16 -4.4347624565466539e-03 0.0000000000000000e+00  1.1574225004231896e-16 -4.4347624565465428e-03 0.0000000000000000e+00  3.4894373817814017e-32 -4.4347624565465923e-03 0.0000000000000000e+00  -1.8055593228630399e-32 -4.7119351100809847e-03 0.0000000000000000e+00  -1.5346596024055578e-16 -4.7119351100811451e-03 0.0000000000000000e+00  -3.1781382858630533e-17 -4.7119351100812328e-03 0.0000000000000000e+00  2.4628041077381817e-16 -4.7119351100812319e-03 0.0000000000000000e+00  3.2605414292191894e-16 -4.7119351100812137e-03 0.0000000000000000e+00  3.6128663590836718e-16 -4.7119351100811694e-03 0.0000000000000000e+00  3.7882793029357953e-16 -4.7119351100810601e-03 0.0000000000000000e+00  3.7502076132328315e-16 -4.7119351100809500e-03 0.0000000000000000e+00  3.2446197500061017e-16 -4.7119351100808260e-03 0.0000000000000000e+00  1.1849142339059176e-16 -4.7119351100807193e-03 0.0000000000000000e+00  -4.6159199347953361e-32 -4.7119351100807843e-03 0.0000000000000000e+00  -2.7318867803129027e-32 -4.9891077636151871e-03 0.0000000000000000e+00  -1.6368700234942881e-16 -4.9891077636153493e-03 0.0000000000000000e+00  -2.4746571268258672e-17 -4.9891077636154291e-03 0.0000000000000000e+00  2.4332318541346832e-16 -4.9891077636154283e-03 0.0000000000000000e+00  3.2237065689780018e-16 -4.9891077636154101e-03 0.0000000000000000e+00  3.7765388455592660e-16 -4.9891077636153459e-03 0.0000000000000000e+00  3.9717352666884383e-16 -4.9891077636151976e-03 0.0000000000000000e+00  3.7298241821943484e-16 -4.9891077636150735e-03 0.0000000000000000e+00  3.2788119943041604e-16 -4.9891077636149824e-03 0.0000000000000000e+00  1.1841738305420980e-16 -4.9891077636148888e-03 0.0000000000000000e+00  2.4504019381712608e-32 -4.9891077636149746e-03 0.0000000000000000e+00  2.2569491535787904e-32 -5.2662804171493965e-03 0.0000000000000000e+00  -1.7220494303319492e-16 -5.2662804171495457e-03 0.0000000000000000e+00  -1.7429036753451022e-17 -5.2662804171496411e-03 0.0000000000000000e+00  2.3947637748967752e-16 -5.2662804171496212e-03 0.0000000000000000e+00  3.1831275139413424e-16 -5.2662804171496004e-03 0.0000000000000000e+00  3.9994328082141621e-16 -5.2662804171495024e-03 0.0000000000000000e+00  4.1494813275842192e-16 -5.2662804171493549e-03 0.0000000000000000e+00  3.6897709401207543e-16 -5.2662804171492075e-03 0.0000000000000000e+00  3.2782554626338387e-16 -5.2662804171491363e-03 0.0000000000000000e+00  1.0846550257272186e-16 -5.2662804171490479e-03 0.0000000000000000e+00  4.5138983071575799e-33 -5.2662804171491684e-03 0.0000000000000000e+00  -4.5682724275598340e-32 -5.5434530706836111e-03 0.0000000000000000e+00  -1.7929251176523885e-16 -5.5434530706837256e-03 0.0000000000000000e+00  -1.0909778731167757e-17 -5.5434530706838661e-03 0.0000000000000000e+00  2.3767237507843199e-16 -5.5434530706838323e-03 0.0000000000000000e+00  3.1636591302108818e-16 -5.5434530706837837e-03 0.0000000000000000e+00  4.2251703834935150e-16 -5.5434530706836667e-03 0.0000000000000000e+00  4.3304233112766153e-16 -5.5434530706835140e-03 0.0000000000000000e+00  3.6167763005304126e-16 -5.5434530706833483e-03 0.0000000000000000e+00  3.2129277574838769e-16 -5.5434530706832781e-03 0.0000000000000000e+00  9.5285226746636394e-17 -5.5434530706832113e-03 0.0000000000000000e+00  7.8838397890365376e-34 -5.5434530706833483e-03 0.0000000000000000e+00  -4.5138983071575881e-33 -5.8206257242178292e-03 0.0000000000000000e+00  -1.8713981777433208e-16 -5.8206257242179116e-03 0.0000000000000000e+00  -1.0111502238643319e-17 -5.8206257242180790e-03 0.0000000000000000e+00  2.4186116452824144e-16 -5.8206257242180478e-03 0.0000000000000000e+00  3.1404280369714130e-16 -5.8206257242179715e-03 0.0000000000000000e+00  4.4536345354908588e-16 -5.8206257242178344e-03 0.0000000000000000e+00  4.5626698660355244e-16 -5.8206257242176870e-03 0.0000000000000000e+00  3.4852005877963088e-16 -5.8206257242175057e-03 0.0000000000000000e+00  3.1270678846219533e-16 -5.8206257242174493e-03 0.0000000000000000e+00  7.9512039227187261e-17 -5.8206257242173938e-03 0.0000000000000000e+00  -1.1037375704651164e-32 -5.8206257242175135e-03 0.0000000000000000e+00  -3.6279211576038805e-32 -6.0977983777520482e-03 0.0000000000000000e+00  -1.9495826558398772e-16 -6.0977983777521054e-03 0.0000000000000000e+00  -1.3663713279137292e-17 -6.0977983777522927e-03 0.0000000000000000e+00  2.5171188267345238e-16 -6.0977983777522615e-03 0.0000000000000000e+00  3.1507275063320219e-16 -6.0977983777521392e-03 0.0000000000000000e+00  4.6597527128049312e-16 -6.0977983777520091e-03 0.0000000000000000e+00  4.7544017433936849e-16 -6.0977983777518729e-03 0.0000000000000000e+00  3.3749024509179757e-16 -6.0977983777517081e-03 0.0000000000000000e+00  3.0096336925434274e-16 -6.0977983777516093e-03 0.0000000000000000e+00  6.2448170295732225e-17 -6.0977983777515659e-03 0.0000000000000000e+00  1.4871682815545957e-32 -6.0977983777516865e-03 0.0000000000000000e+00  1.1284745767893952e-32 -6.3749710312862619e-03 0.0000000000000000e+00  -2.0302084349284548e-16 -6.3749710312863209e-03 0.0000000000000000e+00  -2.1154327051898570e-17 -6.3749710312865152e-03 0.0000000000000000e+00  2.6361597559042720e-16 -6.3749710312864952e-03 0.0000000000000000e+00  3.2286268003621675e-16 -6.3749710312863053e-03 0.0000000000000000e+00  4.8337167714013802e-16 -6.3749710312861890e-03 0.0000000000000000e+00  4.8726295582329825e-16 -6.3749710312860702e-03 0.0000000000000000e+00  3.2893830906116647e-16 -6.3749710312859280e-03 0.0000000000000000e+00  2.8791172163716042e-16 -6.3749710312857718e-03 0.0000000000000000e+00  4.2940992361075094e-17 -6.3749710312857545e-03 0.0000000000000000e+00  -2.8211864419734873e-33 -6.3749710312858646e-03 0.0000000000000000e+00  -3.2596873042964344e-32 -6.6521436848204782e-03 0.0000000000000000e+00  -2.1031546039148335e-16 -6.6521436848205346e-03 0.0000000000000000e+00  -3.2211703780382163e-17 -6.6521436848207280e-03 0.0000000000000000e+00  2.7840000223585900e-16 -6.6521436848207176e-03 0.0000000000000000e+00  3.3487698861401712e-16 -6.6521436848204721e-03 0.0000000000000000e+00  4.9899690827186153e-16 -6.6521436848203802e-03 0.0000000000000000e+00  4.9313797271569551e-16 -6.6521436848202822e-03 0.0000000000000000e+00  3.2196377891453343e-16 -6.6521436848201495e-03 0.0000000000000000e+00  2.7501976416739333e-16 -6.6521436848199517e-03 0.0000000000000000e+00  2.3277816601160937e-17 -6.6521436848199257e-03 0.0000000000000000e+00  2.9507462100282991e-33 -6.6521436848200289e-03 0.0000000000000000e+00  4.5138983071575806e-33 -6.9293163383546902e-03 0.0000000000000000e+00  -2.1889006709218724e-16 -6.9293163383547605e-03 0.0000000000000000e+00  -4.1034632876662639e-17 -6.9293163383549279e-03 0.0000000000000000e+00  2.9373216989314652e-16 -6.9293163383549244e-03 0.0000000000000000e+00  3.46