<?xml version="1.0"?>
<VTKFile type="UnstructuredGrid"  version="0.1"  >
<UnstructuredGrid>
<Piece  NumberOfPoints="1091" NumberOfCells="2050">
<Points>
<DataArray  type="Float64"  NumberOfComponents="3"  format="ascii">-0.5 -1 0  -0.4 -1 0  -0.3 -1 0  -0.2 -1 0  -0.09999999999999998 -1 0  0 -1 0  0.09999999999999998 -1 0  0.2 -1 0  0.3 -1 0  0.4 -1 0  0.5 -1 0  -0.5 -0.98 0  -0.4 -0.98 0  -0.3 -0.98 0  -0.2 -0.98 0  -0.09999999999999998 -0.98 0  0 -0.98 0  0.09999999999999998 -0.98 0  0.2 -0.98 0  0.3 -0.98 0  0.4 -0.98 0  0.5 -0.98 0  -0.5 -0.96 0  -0.4 -0.96 0  -0.3 -0.96 0  -0.2 -0.96 0  -0.09999999999999998 -0.96 0  0 -0.96 0  0.09999999999999998 -0.96 0  0.2 -0.96 0  0.3 -0.96 0  0.4 -0.96 0  0.5 -0.96 0  -0.5 -0.9399999999999999 0  -0.4 -0.9399999999999999 0  -0.3 -0.9399999999999999 0  -0.2 -0.9399999999999999 0  -0.09999999999999998 -0.9399999999999999 0  0 -0.9399999999999999 0  0.09999999999999998 -0.9399999999999999 0  0.2 -0.9399999999999999 0  0.3 -0.9399999999999999 0  0.4 -0.9399999999999999 0  0.5 -0.9399999999999999 0  -0.5 -0.92 0  -0.4 -0.92 0  -0.3 -0.92 0  -0.2 -0.92 0  -0.09999999999999998 -0.92 0  0 -0.92 0  0.09999999999999998 -0.92 0  0.2 -0.92 0  0.3 -0.92 0  0.4 -0.92 0  0.5 -0.92 0  -0.5 -0.9 0  -0.4 -0.9 0  -0.3 -0.9 0  -0.2 -0.9 0  -0.09999999999999998 -0.9 0  0 -0.9 0  0.09999999999999998 -0.9 0  0.2 -0.9 0  0.3 -0.9 0  0.4 -0.9 0  0.5 -0.9 0  -0.5 -0.88 0  -0.4 -0.88 0  -0.3 -0.88 0  -0.2 -0.88 0  -0.09999999999999998 -0.88 0  0 -0.88 0  0.09999999999999998 -0.88 0  0.2 -0.88 0  0.3 -0.88 0  0.4 -0.88 0  0.5 -0.88 0  -0.5 -0.86 0  -0.4 -0.86 0  -0.3 -0.86 0  -0.2 -0.86 0  -0.09999999999999998 -0.86 0  0 -0.86 0  0.09999999999999998 -0.86 0  0.2 -0.86 0  0.3 -0.86 0  0.4 -0.86 0  0.5 -0.86 0  -0.5 -0.84 0  -0.4 -0.84 0  -0.3 -0.84 0  -0.2 -0.84 0  -0.09999999999999998 -0.84 0  0 -0.84 0  0.09999999999999998 -0.84 0  0.2 -0.84 0  0.3 -0.84 0  0.4 -0.84 0  0.5 -0.84 0  -0.5 -0.8200000000000001 0  -0.4 -0.8200000000000001 0  -0.3 -0.8200000000000001 0  -0.2 -0.8200000000000001 0  -0.09999999999999998 -0.8200000000000001 0  0 -0.8200000000000001 0  0.09999999999999998 -0.8200000000000001 0  0.2 -0.8200000000000001 0  0.3 -0.8200000000000001 0  0.4 -0.8200000000000001 0  0.5 -0.8200000000000001 0  -0.5 -0.8 0  -0.4 -0.8 0  -0.3 -0.8 0  -0.2 -0.8 0  -0.09999999999999998 -0.8 0  0 -0.8 0  0.09999999999999998 -0.8 0  0.2 -0.8 0  0.3 -0.8 0  0.4 -0.8 0  0.5 -0.8 0  -0.5 -0.78 0  -0.4 -0.78 0  -0.3 -0.78 0  -0.2 -0.78 0  -0.09999999999999998 -0.78 0  0 -0.78 0  0.09999999999999998 -0.78 0  0.2 -0.78 0  0.3 -0.78 0  0.4 -0.78 0  0.5 -0.78 0  -0.5 -0.76 0  -0.4 -0.76 0  -0.3 -0.76 0  -0.2 -0.76 0  -0.09999999999999998 -0.76 0  0 -0.76 0  0.09999999999999998 -0.76 0  0.2 -0.76 0  0.3 -0.76 0  0.4 -0.76 0  0.5 -0.76 0  -0.5 -0.74 0  -0.4 -0.74 0  -0.3 -0.74 0  -0.2 -0.74 0  -0.09999999999999998 -0.74 0  0 -0.74 0  0.09999999999999998 -0.74 0  0.2 -0.74 0  0.3 -0.74 0  0.4 -0.74 0  0.5 -0.74 0  -0.5 -0.72 0  -0.4 -0.72 0  -0.3 -0.72 0  -0.2 -0.72 0  -0.09999999999999998 -0.72 0  0 -0.72 0  0.09999999999999998 -0.72 0  0.2 -0.72 0  0.3 -0.72 0  0.4 -0.72 0  0.5 -0.72 0  -0.5 -0.7 0  -0.4 -0.7 0  -0.3 -0.7 0  -0.2 -0.7 0  -0.09999999999999998 -0.7 0  0 -0.7 0  0.09999999999999998 -0.7 0  0.2 -0.7 0  0.3 -0.7 0  0.4 -0.7 0  0.5 -0.7 0  -0.5 -0.6799999999999999 0  -0.4 -0.6799999999999999 0  -0.3 -0.6799999999999999 0  -0.2 -0.6799999999999999 0  -0.09999999999999998 -0.6799999999999999 0  0 -0.6799999999999999 0  0.09999999999999998 -0.6799999999999999 0  0.2 -0.6799999999999999 0  0.3 -0.6799999999999999 0  0.4 -0.6799999999999999 0  0.5 -0.6799999999999999 0  -0.5 -0.6599999999999999 0  -0.4 -0.6599999999999999 0  -0.3 -0.6599999999999999 0  -0.2 -0.6599999999999999 0  -0.09999999999999998 -0.6599999999999999 0  0 -0.6599999999999999 0  0.09999999999999998 -0.6599999999999999 0  0.2 -0.6599999999999999 0  0.3 -0.6599999999999999 0  0.4 -0.6599999999999999 0  0.5 -0.6599999999999999 0  -0.5 -0.64 0  -0.4 -0.64 0  -0.3 -0.64 0  -0.2 -0.64 0  -0.09999999999999998 -0.64 0  0 -0.64 0  0.09999999999999998 -0.64 0  0.2 -0.64 0  0.3 -0.64 0  0.4 -0.64 0  0.5 -0.64 0  -0.5 -0.62 0  -0.4 -0.62 0  -0.3 -0.62 0  -0.2 -0.62 0  -0.09999999999999998 -0.62 0  0 -0.62 0  0.09999999999999998 -0.62 0  0.2 -0.62 0  0.3 -0.62 0  0.4 -0.62 0  0.5 -0.62 0  -0.5 -0.6 0  -0.4 -0.6 0  -0.3 -0.6 0  -0.2 -0.6 0  -0.09999999999999998 -0.6 0  0 -0.6 0  0.09999999999999998 -0.6 0  0.2 -0.6 0  0.3 -0.6 0  0.4 -0.6 0  0.5 -0.6 0  -0.5 -0.5800000000000001 0  -0.4 -0.5800000000000001 0  -0.3 -0.5800000000000001 0  -0.2 -0.5800000000000001 0  -0.09999999999999998 -0.5800000000000001 0  0 -0.5800000000000001 0  0.09999999999999998 -0.5800000000000001 0  0.2 -0.5800000000000001 0  0.3 -0.5800000000000001 0  0.4 -0.5800000000000001 0  0.5 -0.5800000000000001 0  -0.5 -0.5600000000000001 0  -0.4 -0.5600000000000001 0  -0.3 -0.5600000000000001 0  -0.2 -0.5600000000000001 0  -0.09999999999999998 -0.5600000000000001 0  0 -0.5600000000000001 0  0.09999999999999998 -0.5600000000000001 0  0.2 -0.5600000000000001 0  0.3 -0.5600000000000001 0  0.4 -0.5600000000000001 0  0.5 -0.5600000000000001 0  -0.5 -0.54 0  -0.4 -0.54 0  -0.3 -0.54 0  -0.2 -0.54 0  -0.09999999999999998 -0.54 0  0 -0.54 0  0.09999999999999998 -0.54 0  0.2 -0.54 0  0.3 -0.54 0  0.4 -0.54 0  0.5 -0.54 0  -0.5 -0.52 0  -0.4 -0.52 0  -0.3 -0.52 0  -0.2 -0.52 0  -0.09999999999999998 -0.52 0  0 -0.52 0  0.09999999999999998 -0.52 0  0.2 -0.52 0  0.3 -0.52 0  0.4 -0.52 0  0.5 -0.52 0  -0.5 -0.5 0  -0.4 -0.5 0  -0.3 -0.5 0  -0.2 -0.5 0  -0.09999999999999998 -0.5 0  0 -0.5 0  0.09999999999999998 -0.5 0  0.2 -0.5 0  0.3 -0.5 0  0.4 -0.5 0  0.5 -0.5 0  -0.5 -0.48 0  -0.4 -0.48 0  -0.3 -0.48 0  -0.2 -0.48 0  -0.09999999999999998 -0.48 0  0 -0.48 0  0.09999999999999998 -0.48 0  0.2 -0.48 0  0.3 -0.48 0  0.4 -0.48 0  0.5 -0.48 0  -0.5 -0.46 0  -0.4 -0.46 0  -0.3 -0.46 0  -0.2 -0.46 0  -0.09999999999999998 -0.46 0  0 -0.46 0  0.09999999999999998 -0.46 0  0.2 -0.46 0  0.3 -0.46 0  0.4 -0.46 0  0.5 -0.46 0  -0.5 -0.4399999999999999 0  -0.4 -0.4399999999999999 0  -0.3 -0.4399999999999999 0  -0.2 -0.4399999999999999 0  -0.09999999999999998 -0.4399999999999999 0  0 -0.4399999999999999 0  0.09999999999999998 -0.4399999999999999 0  0.2 -0.4399999999999999 0  0.3 -0.4399999999999999 0  0.4 -0.4399999999999999 0  0.5 -0.4399999999999999 0  -0.5 -0.42 0  -0.4 -0.42 0  -0.3 -0.42 0  -0.2 -0.42 0  -0.09999999999999998 -0.42 0  0 -0.42 0  0.09999999999999998 -0.42 0  0.2 -0.42 0  0.3 -0.42 0  0.4 -0.42 0  0.5 -0.42 0  -0.5 -0.4 0  -0.4 -0.4 0  -0.3 -0.4 0  -0.2 -0.4 0  -0.09999999999999998 -0.4 0  0 -0.4 0  0.09999999999999998 -0.4 0  0.2 -0.4 0  0.3 -0.4 0  0.4 -0.4 0  0.5 -0.4 0  -0.5 -0.38 0  -0.4 -0.38 0  -0.3 -0.38 0  -0.2 -0.38 0  -0.09999999999999998 -0.38 0  0 -0.38 0  0.09999999999999998 -0.38 0  0.2 -0.38 0  0.3 -0.38 0  0.4 -0.38 0  0.5 -0.38 0  -0.5 -0.36 0  -0.4 -0.36 0  -0.3 -0.36 0  -0.2 -0.36 0  -0.09999999999999998 -0.36 0  0 -0.36 0  0.09999999999999998 -0.36 0  0.2 -0.36 0  0.3 -0.36 0  0.4 -0.36 0  0.5 -0.36 0  -0.5 -0.34 0  -0.4 -0.34 0  -0.3 -0.34 0  -0.2 -0.34 0  -0.09999999999999998 -0.34 0  0 -0.34 0  0.09999999999999998 -0.34 0  0.2 -0.34 0  0.3 -0.34 0  0.4 -0.34 0  0.5 -0.34 0  -0.5 -0.32 0  -0.4 -0.32 0  -0.3 -0.32 0  -0.2 -0.32 0  -0.09999999999999998 -0.32 0  0 -0.32 0  0.09999999999999998 -0.32 0  0.2 -0.32 0  0.3 -0.32 0  0.4 -0.32 0  0.5 -0.32 0  -0.5 -0.3 0  -0.4 -0.3 0  -0.3 -0.3 0  -0.2 -0.3 0  -0.09999999999999998 -0.3 0  0 -0.3 0  0.09999999999999998 -0.3 0  0.2 -0.3 0  0.3 -0.3 0  0.4 -0.3 0  0.5 -0.3 0  -0.5 -0.28 0  -0.4 -0.28 0  -0.3 -0.28 0  -0.2 -0.28 0  -0.09999999999999998 -0.28 0  0 -0.28 0  0.09999999999999998 -0.28 0  0.2 -0.28 0  0.3 -0.28 0  0.4 -0.28 0  0.5 -0.28 0  -0.5 -0.26 0  -0.4 -0.26 0  -0.3 -0.26 0  -0.2 -0.26 0  -0.09999999999999998 -0.26 0  0 -0.26 0  0.09999999999999998 -0.26 0  0.2 -0.26 0  0.3 -0.26 0  0.4 -0.26 0  0.5 -0.26 0  -0.5 -0.24 0  -0.4 -0.24 0  -0.3 -0.24 0  -0.2 -0.24 0  -0.09999999999999998 -0.24 0  0 -0.24 0  0.09999999999999998 -0.24 0  0.2 -0.24 0  0.3 -0.24 0  0.4 -0.24 0  0.5 -0.24 0  -0.5 -0.22 0  -0.4 -0.22 0  -0.3 -0.22 0  -0.2 -0.22 0  -0.09999999999999998 -0.22 0  0 -0.22 0  0.09999999999999998 -0.22 0  0.2 -0.22 0  0.3 -0.22 0  0.4 -0.22 0  0.5 -0.22 0  -0.5 -0.2 0  -0.4 -0.2 0  -0.3 -0.2 0  -0.2 -0.2 0  -0.09999999999999998 -0.2 0  0 -0.2 0  0.09999999999999998 -0.2 0  0.2 -0.2 0  0.3 -0.2 0  0.4 -0.2 0  0.5 -0.2 0  -0.5 -0.18 0  -0.4 -0.18 0  -0.3 -0.18 0  -0.2 -0.18 0  -0.09999999999999998 -0.18 0  0 -0.18 0  0.09999999999999998 -0.18 0  0.2 -0.18 0  0.3 -0.18 0  0.4 -0.18 0  0.5 -0.18 0  -0.5 -0.16 0  -0.4 -0.16 0  -0.3 -0.16 0  -0.2 -0.16 0  -0.09999999999999998 -0.16 0  0 -0.16 0  0.09999999999999998 -0.16 0  0.2 -0.16 0  0.3 -0.16 0  0.4 -0.16 0  0.5 -0.16 0  -0.5 -0.14 0  -0.4 -0.14 0  -0.3 -0.14 0  -0.2 -0.14 0  -0.09999999999999998 -0.14 0  0 -0.14 0  0.09999999999999998 -0.14 0  0.2 -0.14 0  0.3 -0.14 0  0.4 -0.14 0  0.5 -0.14 0  -0.5 -0.12 0  -0.4 -0.12 0  -0.3 -0.12 0  -0.2 -0.12 0  -0.09999999999999998 -0.12 0  0 -0.12 0  0.09999999999999998 -0.12 0  0.2 -0.12 0  0.3 -0.12 0  0.4 -0.12 0  0.5 -0.12 0  -0.5 -0.09999999999999998 0  -0.4 -0.09999999999999998 0  -0.3 -0.09999999999999998 0  -0.2 -0.09999999999999998 0  -0.09999999999999998 -0.09999999999999998 0  0 -0.09999999999999998 0  0.09999999999999998 -0.09999999999999998 0  0.2 -0.09999999999999998 0  0.3 -0.09999999999999998 0  0.4 -0.09999999999999998 0  0.5 -0.09999999999999998 0  -0.5 -0.07999999999999996 0  -0.4 -0.07999999999999996 0  -0.3 -0.07999999999999996 0  -0.2 -0.07999999999999996 0  -0.09999999999999998 -0.07999999999999996 0  0 -0.07999999999999996 0  0.09999999999999998 -0.07999999999999996 0  0.2 -0.07999999999999996 0  0.3 -0.07999999999999996 0  0.4 -0.07999999999999996 0  0.5 -0.07999999999999996 0  -0.5 -0.06000000000000005 0  -0.4 -0.06000000000000005 0  -0.3 -0.06000000000000005 0  -0.2 -0.06000000000000005 0  -0.09999999
[...]
<PointData  Vectors="displacement"> 
<DataArray  type="Float64"  Name="displacement"  NumberOfComponents="3" format="ascii">2.1158898314801141e-34 2.9778502051908972e-20 0.0000000000000000e+00  -2.1158898314801154e-34 -1.9852334701272643e-20 0.0000000000000000e+00  1.5026123881370508e-33 -2.9410148185381452e-20 0.0000000000000000e+00  1.1284745767893952e-33 -1.7370792863613569e-20 0.0000000000000000e+00  5.5019071789214033e-34 1.4627863184897497e-20 0.0000000000000000e+00  1.1284745767893948e-33 4.9630836753181608e-21 0.0000000000000000e+00  -2.7250346774960712e-33 -5.0709241165054956e-20 0.0000000000000000e+00  3.9496610187628819e-33 -9.9261673506363216e-21 0.0000000000000000e+00  4.5355168229125406e-33 -3.5672163916349282e-20 0.0000000000000000e+00  -2.2569491535787903e-33 0.0000000000000000e+00 0.0000000000000000e+00  1.1284745767893946e-33 9.9261673506363201e-21 0.0000000000000000e+00  -8.4635593259204632e-34 -2.7717265353417313e-04 0.0000000000000000e+00  -8.0935621845567913e-18 -2.7717265353417503e-04 0.0000000000000000e+00  3.1814522986734125e-18 -2.7717265353418007e-04 0.0000000000000000e+00  2.5255999940656600e-17 -2.7717265353418251e-04 0.0000000000000000e+00  3.3956347607073051e-17 -2.7717265353417747e-04 0.0000000000000000e+00  4.1808447988434179e-17 -2.7717265353417318e-04 0.0000000000000000e+00  4.5512442606022490e-17 -2.7717265353417253e-04 0.0000000000000000e+00  3.1663453231403907e-17 -2.7717265353416999e-04 0.0000000000000000e+00  2.7680555638300536e-17 -2.7717265353416917e-04 0.0000000000000000e+00  1.7538457830298916e-17 -2.7717265353416131e-04 0.0000000000000000e+00  -3.6321036692955578e-33 -2.7717265353416841e-04 0.0000000000000000e+00  1.1274240635335575e-33 -5.5434530706834463e-04 0.0000000000000000e+00  -1.2937906014605223e-17 -5.5434530706835103e-04 0.0000000000000000e+00  7.4140536925077960e-18 -5.5434530706836166e-04 0.0000000000000000e+00  4.7466682627181582e-17 -5.5434530706836773e-04 0.0000000000000000e+00  6.5845337563073486e-17 -5.5434530706835721e-04 0.0000000000000000e+00  8.0915594246347950e-17 -5.5434530706834756e-04 0.0000000000000000e+00  8.5847984466902922e-17 -5.5434530706834561e-04 0.0000000000000000e+00  6.1135018861421984e-17 -5.5434530706833921e-04 0.0000000000000000e+00  5.2465603573873129e-17 -5.5434530706833921e-04 0.0000000000000000e+00  3.3016404966232980e-17 -5.5434530706832111e-04 0.0000000000000000e+00  -7.2544794222175410e-34 -5.5434530706833455e-04 0.0000000000000000e+00  -1.1284745767893970e-33 -8.3151796060251511e-04 0.0000000000000000e+00  -1.6163940158649209e-17 -8.3151796060252638e-04 0.0000000000000000e+00  1.2314252228146950e-17 -8.3151796060254427e-04 0.0000000000000000e+00  6.6930494670098919e-17 -8.3151796060255783e-04 0.0000000000000000e+00  9.5136811640825665e-17 -8.3151796060253733e-04 0.0000000000000000e+00  1.1761138617557610e-16 -8.3151796060252649e-04 0.0000000000000000e+00  1.2253544160250673e-16 -8.3151796060252064e-04 0.0000000000000000e+00  8.7377064239682388e-17 -8.3151796060250915e-04 0.0000000000000000e+00  7.4904944215213195e-17 -8.3151796060250741e-04 0.0000000000000000e+00  4.7133847914657067e-17 -8.3151796060247944e-04 0.0000000000000000e+00  2.2569491535787930e-33 -8.3151796060249971e-04 0.0000000000000000e+00  -2.0304137510873390e-34 -1.1086906141366843e-03 0.0000000000000000e+00  -1.8198285988492658e-17 -1.1086906141367001e-03 0.0000000000000000e+00  1.7166060968382854e-17 -1.1086906141367242e-03 0.0000000000000000e+00  8.4111388798789380e-17 -1.1086906141367472e-03 0.0000000000000000e+00  1.2228494077607619e-16 -1.1086906141367177e-03 0.0000000000000000e+00  1.5087201784223819e-16 -1.1086906141367060e-03 0.0000000000000000e+00  1.5634231028757648e-16 -1.1086906141366990e-03 0.0000000000000000e+00  1.1195827807655710e-16 -1.1086906141366806e-03 0.0000000000000000e+00  9.5130626163263082e-17 -1.1086906141366698e-03 0.0000000000000000e+00  5.9471771207961341e-17 -1.1086906141366361e-03 0.0000000000000000e+00  4.0521025075438670e-33 -1.1086906141366645e-03 0.0000000000000000e+00  -1.1284745767893952e-33 -1.3858632676708570e-03 0.0000000000000000e+00  -1.9343970803179292e-17 -1.3858632676708778e-03 0.0000000000000000e+00  2.2060703486119073e-17 -1.3858632676709078e-03 0.0000000000000000e+00  9.9457772982454831e-17 -1.3858632676709366e-03 0.0000000000000000e+00  1.4748158199389674e-16 -1.3858632676709004e-03 0.0000000000000000e+00  1.8049571995686864e-16 -1.3858632676708919e-03 0.0000000000000000e+00  1.8663870702824833e-16 -1.3858632676708833e-03 0.0000000000000000e+00  1.3585304259270183e-16 -1.3858632676708575e-03 0.0000000000000000e+00  1.1463154286068687e-16 -1.3858632676708299e-03 0.0000000000000000e+00  6.9947979166627361e-17 -1.3858632676707902e-03 0.0000000000000000e+00  6.4651411945922151e-33 -1.3858632676708267e-03 0.0000000000000000e+00  1.4037273222344650e-33 -1.6630359212050315e-03 0.0000000000000000e+00  -1.8992296460905600e-17 -1.6630359212050515e-03 0.0000000000000000e+00  2.5847698946907045e-17 -1.6630359212050914e-03 0.0000000000000000e+00  1.1229879553418753e-16 -1.6630359212051293e-03 0.0000000000000000e+00  1.7028235431162698e-16 -1.6630359212050840e-03 0.0000000000000000e+00  2.0816538733150269e-16 -1.6630359212050749e-03 0.0000000000000000e+00  2.1407114607864663e-16 -1.6630359212050684e-03 0.0000000000000000e+00  1.5869067679760392e-16 -1.6630359212050361e-03 0.0000000000000000e+00  1.3350039394092535e-16 -1.6630359212049892e-03 0.0000000000000000e+00  7.8562166732381867e-17 -1.6630359212049430e-03 0.0000000000000000e+00  -1.6121065382705642e-33 -1.6630359212049808e-03 0.0000000000000000e+00  -2.8211864419734880e-33 -1.9402085747392021e-03 0.0000000000000000e+00  -1.8664520152217365e-17 -1.9402085747392234e-03 0.0000000000000000e+00  2.8409557381855139e-17 -1.9402085747392721e-03 0.0000000000000000e+00  1.2409873306703405e-16 -1.9402085747393237e-03 0.0000000000000000e+00  1.9082134323387106e-16 -1.9402085747392652e-03 0.0000000000000000e+00  2.3380697117049741e-16 -1.9402085747392561e-03 0.0000000000000000e+00  2.3877540148180806e-16 -1.9402085747392459e-03 0.0000000000000000e+00  1.7999827661012024e-16 -1.9402085747392138e-03 0.0000000000000000e+00  1.5286994831843689e-16 -1.9402085747391468e-03 0.0000000000000000e+00  8.4355038047826450e-17 -1.9402085747390932e-03 0.0000000000000000e+00  -9.0277966143151599e-33 -1.9402085747391412e-03 0.0000000000000000e+00  -1.3319843579421382e-33 -2.2173812282733686e-03 0.0000000000000000e+00  -1.9725004251775171e-17 -2.2173812282733950e-03 0.0000000000000000e+00  2.9544545603536016e-17 -2.2173812282734631e-03 0.0000000000000000e+00  1.3493976451917382e-16 -2.2173812282735186e-03 0.0000000000000000e+00  2.0913181028115131e-16 -2.2173812282734501e-03 0.0000000000000000e+00  2.5708031237216240e-16 -2.2173812282734401e-03 0.0000000000000000e+00  2.6253318147898647e-16 -2.2173812282734327e-03 0.0000000000000000e+00  2.0004338046582887e-16 -2.2173812282733876e-03 0.0000000000000000e+00  1.7141948254446767e-16 -2.2173812282733044e-03 0.0000000000000000e+00  8.9052229393322742e-17 -2.2173812282732463e-03 0.0000000000000000e+00  2.7950530595558757e-33 -2.2173812282732935e-03 0.0000000000000000e+00  -3.6675423745655500e-33 -2.4945538818075368e-03 0.0000000000000000e+00  -2.3299336107043838e-17 -2.4945538818075610e-03 0.0000000000000000e+00  2.8338815484618713e-17 -2.4945538818076504e-03 0.0000000000000000e+00  1.4453055108236743e-16 -2.4945538818077124e-03 0.0000000000000000e+00  2.2665231621603645e-16 -2.4945538818076374e-03 0.0000000000000000e+00  2.7564861478975881e-16 -2.4945538818076192e-03 0.0000000000000000e+00  2.8407833139701594e-16 -2.4945538818076343e-03 0.0000000000000000e+00  2.2039112727610221e-16 -2.4945538818075663e-03 0.0000000000000000e+00  1.8873418282112427e-16 -2.4945538818074639e-03 0.0000000000000000e+00  9.2615611361381259e-17 -2.4945538818073980e-03 0.0000000000000000e+00  -7.5334546836791849e-33 -2.4945538818074518e-03 0.0000000000000000e+00  -2.2559871788077825e-33 -2.7717265353417093e-03 0.0000000000000000e+00  -2.8895966824994210e-17 -2.7717265353417431e-03 0.0000000000000000e+00  2.4147863898865360e-17 -2.7717265353418494e-03 0.0000000000000000e+00  1.5289127819109663e-16 -2.7717265353419097e-03 0.0000000000000000e+00  2.4473203146469733e-16 -2.7717265353418320e-03 0.0000000000000000e+00  2.8980170481825299e-16 -2.7717265353418030e-03 0.0000000000000000e+00  3.0063214364101509e-16 -2.7717265353418398e-03 0.0000000000000000e+00  2.4389268787120182e-16 -2.7717265353417492e-03 0.0000000000000000e+00  2.0726929197901098e-16 -2.7717265353416169e-03 0.0000000000000000e+00  9.4475784993321482e-17 -2.7717265353415562e-03 0.0000000000000000e+00  -1.8861646497765603e-32 -2.7717265353416069e-03 0.0000000000000000e+00  0.0000000000000000e+00 -3.0488991888758840e-03 0.0000000000000000e+00  -3.7311365569442107e-17 -3.0488991888759295e-03 0.0000000000000000e+00  1.7229467630319928e-17 -3.0488991888760631e-03 0.0000000000000000e+00  1.6230494492202627e-16 -3.0488991888761060e-03 0.0000000000000000e+00  2.6184924146325621e-16 -3.0488991888760241e-03 0.0000000000000000e+00  3.0260308686524313e-16 -3.0488991888759850e-03 0.0000000000000000e+00  3.1213442395720023e-16 -3.0488991888760323e-03 0.0000000000000000e+00  2.6758205438438708e-16 -3.0488991888759373e-03 0.0000000000000000e+00  2.2684356995903805e-16 -3.0488991888757829e-03 0.0000000000000000e+00  9.4626520526541907e-17 -3.0488991888757058e-03 0.0000000000000000e+00  1.1284745767893949e-32 -3.0488991888757604e-03 0.0000000000000000e+00  1.8662310557556723e-34 -3.3260718424100626e-03 0.0000000000000000e+00  -5.0761838898833616e-17 -3.3260718424101207e-03 0.0000000000000000e+00  9.6458409513374109e-18 -3.3260718424102820e-03 0.0000000000000000e+00  1.7374916656271227e-16 -3.3260718424102985e-03 0.0000000000000000e+00  2.7873154197312908e-16 -3.3260718424102144e-03 0.0000000000000000e+00  3.1253864260873121e-16 -3.3260718424101702e-03 0.0000000000000000e+00  3.1947065535754916e-16 -3.3260718424102309e-03 0.0000000000000000e+00  2.9086886728687600e-16 -3.3260718424101190e-03 0.0000000000000000e+00  2.4655309971326880e-16 -3.3260718424099537e-03 0.0000000000000000e+00  9.6406351913412412e-17 -3.3260718424098635e-03 0.0000000000000000e+00  -6.2991877418783708e-33 -3.3260718424099078e-03 0.0000000000000000e+00  0.0000000000000000e+00 -3.6032444959442338e-03 0.0000000000000000e+00  -6.8521743151715400e-17 -3.6032444959443201e-03 0.0000000000000000e+00  2.4613525186171362e-18 -3.6032444959444888e-03 0.0000000000000000e+00  1.8816072034369982e-16 -3.6032444959444862e-03 0.0000000000000000e+00  2.9464306130048304e-16 -3.6032444959444025e-03 0.0000000000000000e+00  3.2025855034466301e-16 -3.6032444959443739e-03 0.0000000000000000e+00  3.2582465791949152e-16 -3.6032444959444155e-03 0.0000000000000000e+00  3.1207235094380436e-16 -3.6032444959442863e-03 0.0000000000000000e+00  2.6546997844331963e-16 -3.6032444959441302e-03 0.0000000000000000e+00  1.0098066299017864e-16 -3.6032444959440218e-03 0.0000000000000000e+00  2.4994052086091070e-32 -3.6032444959440651e-03 0.0000000000000000e+00  -5.6005187308317151e-33 -3.8804171494784124e-03 0.0000000000000000e+00  -8.7364071797680757e-17 -3.8804171494785200e-03 0.0000000000000000e+00  -4.8519498677672222e-18 -3.8804171494786857e-03 0.0000000000000000e+00  2.0428077074915317e-16 -3.8804171494786683e-03 0.0000000000000000e+00  3.0462660142121482e-16 -3.8804171494785898e-03 0.0000000000000000e+00  3.2270122239764157e-16 -3.8804171494785733e-03 0.0000000000000000e+00  3.3501003469610464e-16 -3.8804171494785803e-03 0.0000000000000000e+00  3.2851033823206295e-16 -3.8804171494784536e-03 0.0000000000000000e+00  2.8190935947637405e-16 -3.8804171494783040e-03 0.0000000000000000e+00  1.0709464508454360e-16 -3.8804171494781839e-03 0.0000000000000000e+00  -6.3678208261687287e-33 -3.8804171494782195e-03 0.0000000000000000e+00  -4.5138983071575806e-33 -4.1575898030125963e-03 0.0000000000000000e+00  -1.0505862479619321e-16 -4.1575898030127203e-03 0.0000000000000000e+00  -1.0209207955176293e-17 -4.1575898030128617e-03 0.0000000000000000e+00  2.1733362820523860e-16 -4.1575898030128434e-03 0.0000000000000000e+00  3.0998130163013804e-16 -4.1575898030127749e-03 0.0000000000000000e+00  3.2571692141587650e-16 -4.1575898030127706e-03 0.0000000000000000e+00  3.4597802108818581e-16 -4.1575898030127463e-03 0.0000000000000000e+00  3.4145318414560632e-16 -4.1575898030126249e-03 0.0000000000000000e+00  2.9655971697284211e-16 -4.1575898030124792e-03 0.0000000000000000e+00  1.1454946681452849e-16 -4.1575898030123430e-03 0.0000000000000000e+00  -5.6423728839469746e-33 -4.1575898030123855e-03 0.0000000000000000e+00  8.1197057043605335e-33 -4.4347624565467892e-03 0.0000000000000000e+00  -1.2066541579468562e-16 -4.4347624565469210e-03 0.0000000000000000e+00  -1.4215142333026939e-17 -4.4347624565470390e-03 0.0000000000000000e+00  2.2537846105926700e-16 -4.4347624565470147e-03 0.0000000000000000e+00  3.0963528588882846e-16 -4.4347624565469835e-03 0.0000000000000000e+00  3.3149559942044003e-16 -4.4347624565469678e-03 0.0000000000000000e+00  3.5741231407575060e-16 -4.4347624565469037e-03 0.0000000000000000e+00  3.5321455290851393e-16 -4.4347624565467857e-03 0.0000000000000000e+00  3.0876773442687875e-16 -4.4347624565466435e-03 0.0000000000000000e+00  1.1995694051154241e-16 -4.4347624565465194e-03 0.0000000000000000e+00  1.8596653097184430e-32 -4.4347624565465593e-03 0.0000000000000000e+00  -1.3541694921472799e-32 -4.7119351100809804e-03 0.0000000000000000e+00  -1.3141175265716873e-16 -4.7119351100811365e-03 0.0000000000000000e+00  -1.3458442741154766e-17 -4.7119351100812215e-03 0.0000000000000000e+00  2.2857700649106969e-16 -4.7119351100812076e-03 0.0000000000000000e+00  3.0559099936141140e-16 -4.7119351100811946e-03 0.0000000000000000e+00  3.4113015447212431e-16 -4.7119351100811564e-03 0.0000000000000000e+00  3.7032545411018075e-16 -4.7119351100810411e-03 0.0000000000000000e+00  3.5958839017342233e-16 -4.7119351100809344e-03 0.0000000000000000e+00  3.1745626724069508e-16 -4.7119351100808121e-03 0.0000000000000000e+00  1.2273335978882286e-16 -4.7119351100806933e-03 0.0000000000000000e+00  -7.5748381597575316e-33 -4.7119351100807496e-03 0.0000000000000000e+00  -2.3741042248841970e-33 -4.9891077636151767e-03 0.0000000000000000e+00  -1.4135576882732157e-16 -4.9891077636153415e-03 0.0000000000000000e+00  -7.7166727610699053e-18 -4.9891077636154196e-03 0.0000000000000000e+00  2.2712692166485694e-16 -4.9891077636154040e-03 0.0000000000000000e+00  3.0114980680485790e-16 -4.9891077636153918e-03 0.0000000000000000e+00  3.5611918901557673e-16 -4.9891077636153285e-03 0.0000000000000000e+00  3.8716200885056014e-16 -4.9891077636151863e-03 0.0000000000000000e+00  3.5779255043946004e-16 -4.9891077636150614e-03 0.0000000000000000e+00  3.2331193559660882e-16 -4.9891077636149608e-03 0.0000000000000000e+00  1.2146992795603356e-16 -4.9891077636148593e-03 0.0000000000000000e+00  2.6599757881464349e-33 -4.9891077636149434e-03 0.0000000000000000e+00  -2.2569491535787904e-32 -5.2662804171493775e-03 0.0000000000000000e+00  -1.5026175953984459e-16 -5.2662804171495405e-03 0.0000000000000000e+00  -3.9913824626222374e-19 -5.2662804171496307e-03 0.0000000000000000e+00  2.2394997789569537e-16 -5.2662804171496012e-03 0.0000000000000000e+00  2.9536230223405587e-16 -5.2662804171495856e-03 0.0000000000000000e+00  3.7832898980089527e-16 -5.2662804171494946e-03 0.0000000000000000e+00  4.0272677237148418e-16 -5.2662804171493410e-03 0.0000000000000000e+00  3.5421436896877637e-16 -5.2662804171491944e-03 0.0000000000000000e+00  3.2356807163658691e-16 -5.2662804171491042e-03 0.0000000000000000e+00  1.1228706354737051e-16 -5.2662804171490236e-03 0.0000000000000000e+00  -5.6423728839469746e-33 -5.2662804171491259e-03 0.0000000000000000e+00  -2.2728083833248161e-32 -5.5434530706835929e-03 0.0000000000000000e+00  -1.5893121705372904e-16 -5.5434530706837239e-03 0.0000000000000000e+00  6.6523041043705980e-18 -5.5434530706838393e-03 0.0000000000000000e+00  2.2183139267052852e-16 -5.5434530706838089e-03 0.0000000000000000e+00  2.9154762159920457e-16 -5.5434530706837629e-03 0.0000000000000000e+00  4.0078901219061011e-16 -5.5434530706836606e-03 0.0000000000000000e+00  4.2023728409047044e-16 -5.5434530706835001e-03 0.0000000000000000e+00  3.4688910223843972e-16 -5.5434530706833379e-03 0.0000000000000000e+00  3.1529946551935625e-16 -5.5434530706832486e-03 0.0000000000000000e+00  1.0082752112040533e-16 -5.5434530706831879e-03 0.0000000000000000e+00  6.9573437224713161e-34 -5.5434530706833041e-03 0.0000000000000000e+00  -4.5138983071575881e-33 -5.8206257242178067e-03 0.0000000000000000e+00  -1.6631338949774601e-16 -5.8206257242179029e-03 0.0000000000000000e+00  8.7810414177692150e-18 -5.8206257242180539e-03 0.0000000000000000e+00  2.2473437287717206e-16 -5.8206257242180209e-03 0.0000000000000000e+00  2.8773294096435549e-16 -5.8206257242179515e-03 0.0000000000000000e+00  4.2250964364319657e-16 -5.8206257242178231e-03 0.0000000000000000e+00  4.4170051946001363e-16 -5.8206257242176774e-03 0.0000000000000000e+00  3.3377403139639978e-16 -5.8206257242174987e-03 0.0000000000000000e+00  3.0506469426667068e-16 -5.8206257242174190e-03 0.0000000000000000e+00  8.6584729422548633e-17 -5.8206257242173669e-03 0.0000000000000000e+00  -9.7402812114598518e-33 -5.8206257242174736e-03 0.0000000000000000e+00  2.3841857209123424e-33 -6.0977983777520247e-03 0.0000000000000000e+00  -1.7368818455088546e-16 -6.0977983777520967e-03 0.0000000000000000e+00  4.7424414935466048e-18 -6.0977983777522502e-03 0.0000000000000000e+00  2.3185090535239595e-16 -6.0977983777522251e-03 0.0000000000000000e+00  2.8764408799491322e-16 -6.0977983777521219e-03 0.0000000000000000e+00  4.4033176618587816e-16 -6.0977983777519840e-03 0.0000000000000000e+00  4.5827722975009244e-16 -6.0977983777518591e-03 0.0000000000000000e+00  3.2351846968827605e-16 -6.0977983777516960e-03 0.0000000000000000e+00  2.9355340677438911e-16 -6.0977983777515858e-03 0.0000000000000000e+00  7.1166664330036176e-17 -6.0977983777515269e-03 0.0000000000000000e+00  -2.1763438266652619e-33 -6.0977983777516457e-03 0.0000000000000000e+00  -2.9340338996524274e-32 -6.3749710312862341e-03 0.0000000000000000e+00  -1.8028229692482684e-16 -6.3749710312862983e-03 0.0000000000000000e+00  -1.1974147387867128e-18 -6.3749710312864735e-03 0.0000000000000000e+00  2.4071668816979734e-16 -6.3749710312864579e-03 0.0000000000000000e+00  2.9395083054645630e-16 -6.3749710312862810e-03 0.0000000000000000e+00  4.5725780225212409e-16 -6.3749710312861630e-03 0.0000000000000000e+00  4.6863832332046392e-16 -6.3749710312860563e-03 0.0000000000000000e+00  3.1108637664709262e-16 -6.3749710312859019e-03 0.0000000000000000e+00  2.8365424701036331e-16 -6.3749710312857579e-03 0.0000000000000000e+00  5.4190183828555123e-17 -6.3749710312856912e-03 0.0000000000000000e+00  -1.1284745767893950e-33 -6.3749710312858152e-03 0.0000000000000000e+00  2.4683894062709150e-32 -6.6521436848204565e-03 0.0000000000000000e+00  -1.8661907643169688e-16 -6.6521436848205016e-03 0.0000000000000000e+00  -1.0963828702015819e-17 -6.6521436848206864e-03 0.0000000000000000e+00  2.5284042547379593e-16 -6.6521436848206873e-03 0.0000000000000000e+00  3.0494162014434930e-16 -6.6521436848204401e-03 0.0000000000000000e+00  4.7218269301277213e-16 -6.6521436848203507e-03 0.0000000000000000e+00  4.7292720495150161e-16 -6.6521436848202570e-03 0.0000000000000000e+00  3.0130875041788993e-16 -6.6521436848201226e-03 0.0000000000000000e+00  2.7295235278245687e-16 -6.6521436848199300e-03 0.0000000000000000e+00  3.8476417293800655e-17 -6.6521436848198624e-03 0.0000000000000000e+00  -2.7452384954134133e-33 -6.6521436848199847e-03 0.0000000000000000e+00  2.2569491535787903e-33 -6.9293163383546737e-03 0.0000000000000000e+00  -1.9280238657178845e-16 -6.9293163383547119e-03 0.0000000000000000e+00  -2.1466775641233268e-17 -6.9293163383548932e-03 0.0000000000000000e+00  2.6457323717401160e-16 -6.9293163383548776e-03 0.0000000000000000e+00  3.17