<?xml version="1.0"?>
<VTKFile type="UnstructuredGrid"  version="0.1"  >
<UnstructuredGrid>
<Piece  NumberOfPoints="1091" NumberOfCells="2050">
<Points>
<DataArray  type="Float64"  NumberOfComponents="3"  format="ascii">-0.5 -1 0  -0.4 -1 0  -0.3 -1 0  -0.2 -1 0  -0.09999999999999998 -1 0  0 -1 0  0.09999999999999998 -1 0  0.2 -1 0  0.3 -1 0  0.4 -1 0  0.5 -1 0  -0.5 -0.98 0  -0.4 -0.98 0  -0.3 -0.98 0  -0.2 -0.98 0  -0.09999999999999998 -0.98 0  0 -0.98 0  0.09999999999999998 -0.98 0  0.2 -0.98 0  0.3 -0.98 0  0.4 -0.98 0  0.5 -0.98 0  -0.5 -0.96 0  -0.4 -0.96 0  -0.3 -0.96 0  -0.2 -0.96 0  -0.09999999999999998 -0.96 0  0 -0.96 0  0.09999999999999998 -0.96 0  0.2 -0.96 0  0.3 -0.96 0  0.4 -0.96 0  0.5 -0.96 0  -0.5 -0.9399999999999999 0  -0.4 -0.9399999999999999 0  -0.3 -0.9399999999999999 0  -0.2 -0.9399999999999999 0  -0.09999999999999998 -0.9399999999999999 0  0 -0.9399999999999999 0  0.09999999999999998 -0.9399999999999999 0  0.2 -0.9399999999999999 0  0.3 -0.9399999999999999 0  0.4 -0.9399999999999999 0  0.5 -0.9399999999999999 0  -0.5 -0.92 0  -0.4 -0.92 0  -0.3 -0.92 0  -0.2 -0.92 0  -0.09999999999999998 -0.92 0  0 -0.92 0  0.09999999999999998 -0.92 0  0.2 -0.92 0  0.3 -0.92 0  0.4 -0.92 0  0.5 -0.92 0  -0.5 -0.9 0  -0.4 -0.9 0  -0.3 -0.9 0  -0.2 -0.9 0  -0.09999999999999998 -0.9 0  0 -0.9 0  0.09999999999999998 -0.9 0  0.2 -0.9 0  0.3 -0.9 0  0.4 -0.9 0  0.5 -0.9 0  -0.5 -0.88 0  -0.4 -0.88 0  -0.3 -0.88 0  -0.2 -0.88 0  -0.09999999999999998 -0.88 0  0 -0.88 0  0.09999999999999998 -0.88 0  0.2 -0.88 0  0.3 -0.88 0  0.4 -0.88 0  0.5 -0.88 0  -0.5 -0.86 0  -0.4 -0.86 0  -0.3 -0.86 0  -0.2 -0.86 0  -0.09999999999999998 -0.86 0  0 -0.86 0  0.09999999999999998 -0.86 0  0.2 -0.86 0  0.3 -0.86 0  0.4 -0.86 0  0.5 -0.86 0  -0.5 -0.84 0  -0.4 -0.84 0  -0.3 -0.84 0  -0.2 -0.84 0  -0.09999999999999998 -0.84 0  0 -0.84 0  0.09999999999999998 -0.84 0  0.2 -0.84 0  0.3 -0.84 0  0.4 -0.84 0  0.5 -0.84 0  -0.5 -0.8200000000000001 0  -0.4 -0.8200000000000001 0  -0.3 -0.8200000000000001 0  -0.2 -0.8200000000000001 0  -0.09999999999999998 -0.8200000000000001 0  0 -0.8200000000000001 0  0.09999999999999998 -0.8200000000000001 0  0.2 -0.8200000000000001 0  0.3 -0.8200000000000001 0  0.4 -0.8200000000000001 0  0.5 -0.8200000000000001 0  -0.5 -0.8 0  -0.4 -0.8 0  -0.3 -0.8 0  -0.2 -0.8 0  -0.09999999999999998 -0.8 0  0 -0.8 0  0.09999999999999998 -0.8 0  0.2 -0.8 0  0.3 -0.8 0  0.4 -0.8 0  0.5 -0.8 0  -0.5 -0.78 0  -0.4 -0.78 0  -0.3 -0.78 0  -0.2 -0.78 0  -0.09999999999999998 -0.78 0  0 -0.78 0  0.09999999999999998 -0.78 0  0.2 -0.78 0  0.3 -0.78 0  0.4 -0.78 0  0.5 -0.78 0  -0.5 -0.76 0  -0.4 -0.76 0  -0.3 -0.76 0  -0.2 -0.76 0  -0.09999999999999998 -0.76 0  0 -0.76 0  0.09999999999999998 -0.76 0  0.2 -0.76 0  0.3 -0.76 0  0.4 -0.76 0  0.5 -0.76 0  -0.5 -0.74 0  -0.4 -0.74 0  -0.3 -0.74 0  -0.2 -0.74 0  -0.09999999999999998 -0.74 0  0 -0.74 0  0.09999999999999998 -0.74 0  0.2 -0.74 0  0.3 -0.74 0  0.4 -0.74 0  0.5 -0.74 0  -0.5 -0.72 0  -0.4 -0.72 0  -0.3 -0.72 0  -0.2 -0.72 0  -0.09999999999999998 -0.72 0  0 -0.72 0  0.09999999999999998 -0.72 0  0.2 -0.72 0  0.3 -0.72 0  0.4 -0.72 0  0.5 -0.72 0  -0.5 -0.7 0  -0.4 -0.7 0  -0.3 -0.7 0  -0.2 -0.7 0  -0.09999999999999998 -0.7 0  0 -0.7 0  0.09999999999999998 -0.7 0  0.2 -0.7 0  0.3 -0.7 0  0.4 -0.7 0  0.5 -0.7 0  -0.5 -0.6799999999999999 0  -0.4 -0.6799999999999999 0  -0.3 -0.6799999999999999 0  -0.2 -0.6799999999999999 0  -0.09999999999999998 -0.6799999999999999 0  0 -0.6799999999999999 0  0.09999999999999998 -0.6799999999999999 0  0.2 -0.6799999999999999 0  0.3 -0.6799999999999999 0  0.4 -0.6799999999999999 0  0.5 -0.6799999999999999 0  -0.5 -0.6599999999999999 0  -0.4 -0.6599999999999999 0  -0.3 -0.6599999999999999 0  -0.2 -0.6599999999999999 0  -0.09999999999999998 -0.6599999999999999 0  0 -0.6599999999999999 0  0.09999999999999998 -0.6599999999999999 0  0.2 -0.6599999999999999 0  0.3 -0.6599999999999999 0  0.4 -0.6599999999999999 0  0.5 -0.6599999999999999 0  -0.5 -0.64 0  -0.4 -0.64 0  -0.3 -0.64 0  -0.2 -0.64 0  -0.09999999999999998 -0.64 0  0 -0.64 0  0.09999999999999998 -0.64 0  0.2 -0.64 0  0.3 -0.64 0  0.4 -0.64 0  0.5 -0.64 0  -0.5 -0.62 0  -0.4 -0.62 0  -0.3 -0.62 0  -0.2 -0.62 0  -0.09999999999999998 -0.62 0  0 -0.62 0  0.09999999999999998 -0.62 0  0.2 -0.62 0  0.3 -0.62 0  0.4 -0.62 0  0.5 -0.62 0  -0.5 -0.6 0  -0.4 -0.6 0  -0.3 -0.6 0  -0.2 -0.6 0  -0.09999999999999998 -0.6 0  0 -0.6 0  0.09999999999999998 -0.6 0  0.2 -0.6 0  0.3 -0.6 0  0.4 -0.6 0  0.5 -0.6 0  -0.5 -0.5800000000000001 0  -0.4 -0.5800000000000001 0  -0.3 -0.5800000000000001 0  -0.2 -0.5800000000000001 0  -0.09999999999999998 -0.5800000000000001 0  0 -0.5800000000000001 0  0.09999999999999998 -0.5800000000000001 0  0.2 -0.5800000000000001 0  0.3 -0.5800000000000001 0  0.4 -0.5800000000000001 0  0.5 -0.5800000000000001 0  -0.5 -0.5600000000000001 0  -0.4 -0.5600000000000001 0  -0.3 -0.5600000000000001 0  -0.2 -0.5600000000000001 0  -0.09999999999999998 -0.5600000000000001 0  0 -0.5600000000000001 0  0.09999999999999998 -0.5600000000000001 0  0.2 -0.5600000000000001 0  0.3 -0.5600000000000001 0  0.4 -0.5600000000000001 0  0.5 -0.5600000000000001 0  -0.5 -0.54 0  -0.4 -0.54 0  -0.3 -0.54 0  -0.2 -0.54 0  -0.09999999999999998 -0.54 0  0 -0.54 0  0.09999999999999998 -0.54 0  0.2 -0.54 0  0.3 -0.54 0  0.4 -0.54 0  0.5 -0.54 0  -0.5 -0.52 0  -0.4 -0.52 0  -0.3 -0.52 0  -0.2 -0.52 0  -0.09999999999999998 -0.52 0  0 -0.52 0  0.09999999999999998 -0.52 0  0.2 -0.52 0  0.3 -0.52 0  0.4 -0.52 0  0.5 -0.52 0  -0.5 -0.5 0  -0.4 -0.5 0  -0.3 -0.5 0  -0.2 -0.5 0  -0.09999999999999998 -0.5 0  0 -0.5 0  0.09999999999999998 -0.5 0  0.2 -0.5 0  0.3 -0.5 0  0.4 -0.5 0  0.5 -0.5 0  -0.5 -0.48 0  -0.4 -0.48 0  -0.3 -0.48 0  -0.2 -0.48 0  -0.09999999999999998 -0.48 0  0 -0.48 0  0.09999999999999998 -0.48 0  0.2 -0.48 0  0.3 -0.48 0  0.4 -0.48 0  0.5 -0.48 0  -0.5 -0.46 0  -0.4 -0.46 0  -0.3 -0.46 0  -0.2 -0.46 0  -0.09999999999999998 -0.46 0  0 -0.46 0  0.09999999999999998 -0.46 0  0.2 -0.46 0  0.3 -0.46 0  0.4 -0.46 0  0.5 -0.46 0  -0.5 -0.4399999999999999 0  -0.4 -0.4399999999999999 0  -0.3 -0.4399999999999999 0  -0.2 -0.4399999999999999 0  -0.09999999999999998 -0.4399999999999999 0  0 -0.4399999999999999 0  0.09999999999999998 -0.4399999999999999 0  0.2 -0.4399999999999999 0  0.3 -0.4399999999999999 0  0.4 -0.4399999999999999 0  0.5 -0.4399999999999999 0  -0.5 -0.42 0  -0.4 -0.42 0  -0.3 -0.42 0  -0.2 -0.42 0  -0.09999999999999998 -0.42 0  0 -0.42 0  0.09999999999999998 -0.42 0  0.2 -0.42 0  0.3 -0.42 0  0.4 -0.42 0  0.5 -0.42 0  -0.5 -0.4 0  -0.4 -0.4 0  -0.3 -0.4 0  -0.2 -0.4 0  -0.09999999999999998 -0.4 0  0 -0.4 0  0.09999999999999998 -0.4 0  0.2 -0.4 0  0.3 -0.4 0  0.4 -0.4 0  0.5 -0.4 0  -0.5 -0.38 0  -0.4 -0.38 0  -0.3 -0.38 0  -0.2 -0.38 0  -0.09999999999999998 -0.38 0  0 -0.38 0  0.09999999999999998 -0.38 0  0.2 -0.38 0  0.3 -0.38 0  0.4 -0.38 0  0.5 -0.38 0  -0.5 -0.36 0  -0.4 -0.36 0  -0.3 -0.36 0  -0.2 -0.36 0  -0.09999999999999998 -0.36 0  0 -0.36 0  0.09999999999999998 -0.36 0  0.2 -0.36 0  0.3 -0.36 0  0.4 -0.36 0  0.5 -0.36 0  -0.5 -0.34 0  -0.4 -0.34 0  -0.3 -0.34 0  -0.2 -0.34 0  -0.09999999999999998 -0.34 0  0 -0.34 0  0.09999999999999998 -0.34 0  0.2 -0.34 0  0.3 -0.34 0  0.4 -0.34 0  0.5 -0.34 0  -0.5 -0.32 0  -0.4 -0.32 0  -0.3 -0.32 0  -0.2 -0.32 0  -0.09999999999999998 -0.32 0  0 -0.32 0  0.09999999999999998 -0.32 0  0.2 -0.32 0  0.3 -0.32 0  0.4 -0.32 0  0.5 -0.32 0  -0.5 -0.3 0  -0.4 -0.3 0  -0.3 -0.3 0  -0.2 -0.3 0  -0.09999999999999998 -0.3 0  0 -0.3 0  0.09999999999999998 -0.3 0  0.2 -0.3 0  0.3 -0.3 0  0.4 -0.3 0  0.5 -0.3 0  -0.5 -0.28 0  -0.4 -0.28 0  -0.3 -0.28 0  -0.2 -0.28 0  -0.09999999999999998 -0.28 0  0 -0.28 0  0.09999999999999998 -0.28 0  0.2 -0.28 0  0.3 -0.28 0  0.4 -0.28 0  0.5 -0.28 0  -0.5 -0.26 0  -0.4 -0.26 0  -0.3 -0.26 0  -0.2 -0.26 0  -0.09999999999999998 -0.26 0  0 -0.26 0  0.09999999999999998 -0.26 0  0.2 -0.26 0  0.3 -0.26 0  0.4 -0.26 0  0.5 -0.26 0  -0.5 -0.24 0  -0.4 -0.24 0  -0.3 -0.24 0  -0.2 -0.24 0  -0.09999999999999998 -0.24 0  0 -0.24 0  0.09999999999999998 -0.24 0  0.2 -0.24 0  0.3 -0.24 0  0.4 -0.24 0  0.5 -0.24 0  -0.5 -0.22 0  -0.4 -0.22 0  -0.3 -0.22 0  -0.2 -0.22 0  -0.09999999999999998 -0.22 0  0 -0.22 0  0.09999999999999998 -0.22 0  0.2 -0.22 0  0.3 -0.22 0  0.4 -0.22 0  0.5 -0.22 0  -0.5 -0.2 0  -0.4 -0.2 0  -0.3 -0.2 0  -0.2 -0.2 0  -0.09999999999999998 -0.2 0  0 -0.2 0  0.09999999999999998 -0.2 0  0.2 -0.2 0  0.3 -0.2 0  0.4 -0.2 0  0.5 -0.2 0  -0.5 -0.18 0  -0.4 -0.18 0  -0.3 -0.18 0  -0.2 -0.18 0  -0.09999999999999998 -0.18 0  0 -0.18 0  0.09999999999999998 -0.18 0  0.2 -0.18 0  0.3 -0.18 0  0.4 -0.18 0  0.5 -0.18 0  -0.5 -0.16 0  -0.4 -0.16 0  -0.3 -0.16 0  -0.2 -0.16 0  -0.09999999999999998 -0.16 0  0 -0.16 0  0.09999999999999998 -0.16 0  0.2 -0.16 0  0.3 -0.16 0  0.4 -0.16 0  0.5 -0.16 0  -0.5 -0.14 0  -0.4 -0.14 0  -0.3 -0.14 0  -0.2 -0.14 0  -0.09999999999999998 -0.14 0  0 -0.14 0  0.09999999999999998 -0.14 0  0.2 -0.14 0  0.3 -0.14 0  0.4 -0.14 0  0.5 -0.14 0  -0.5 -0.12 0  -0.4 -0.12 0  -0.3 -0.12 0  -0.2 -0.12 0  -0.09999999999999998 -0.12 0  0 -0.12 0  0.09999999999999998 -0.12 0  0.2 -0.12 0  0.3 -0.12 0  0.4 -0.12 0  0.5 -0.12 0  -0.5 -0.09999999999999998 0  -0.4 -0.09999999999999998 0  -0.3 -0.09999999999999998 0  -0.2 -0.09999999999999998 0  -0.09999999999999998 -0.09999999999999998 0  0 -0.09999999999999998 0  0.09999999999999998 -0.09999999999999998 0  0.2 -0.09999999999999998 0  0.3 -0.09999999999999998 0  0.4 -0.09999999999999998 0  0.5 -0.09999999999999998 0  -0.5 -0.07999999999999996 0  -0.4 -0.07999999999999996 0  -0.3 -0.07999999999999996 0  -0.2 -0.07999999999999996 0  -0.09999999999999998 -0.07999999999999996 0  0 -0.07999999999999996 0  0.09999999999999998 -0.07999999999999996 0  0.2 -0.07999999999999996 0  0.3 -0.07999999999999996 0  0.4 -0.07999999999999996 0  0.5 -0.07999999999999996 0  -0.5 -0.06000000000000005 0  -0.4 -0.06000000000000005 0  -0.3 -0.06000000000000005 0  -0.2 -0.06000000000000005 0  -0.09999999
[...]
<PointData  Vectors="displacement"> 
<DataArray  type="Float64"  Name="displacement"  NumberOfComponents="3" format="ascii">-1.4105932209867450e-34 9.9261673506363231e-21 0.0000000000000000e+00  -5.9950211891936603e-34 -9.9261673506363216e-21 0.0000000000000000e+00  4.0609656401063680e-34 -2.3380777001694152e-20 0.0000000000000000e+00  -1.6927118651840926e-33 2.4815418376590811e-21 0.0000000000000000e+00  4.0009492498517347e-33 7.3350986986217789e-23 0.0000000000000000e+00  -7.8993220375257638e-33 -1.7370792863613563e-20 0.0000000000000000e+00  9.9499168312375496e-33 1.4230091475326292e-20 0.0000000000000000e+00  3.1033050861708356e-33 -2.7296960214249883e-20 0.0000000000000000e+00  -1.6713019231011233e-33 -2.2954261998346494e-20 0.0000000000000000e+00  -5.6423728839469758e-34 -1.9852334701272649e-20 0.0000000000000000e+00  5.6423728839469732e-34 9.9261673506363201e-21 0.0000000000000000e+00  -5.6423728839469758e-34 -2.7717265353417297e-04 0.0000000000000000e+00  -9.9832485095854685e-18 -2.7717265353417465e-04 0.0000000000000000e+00  2.1916671390861319e-18 -2.7717265353418077e-04 0.0000000000000000e+00  2.5214011176366388e-17 -2.7717265353418300e-04 0.0000000000000000e+00  3.3981830783416609e-17 -2.7717265353417763e-04 0.0000000000000000e+00  4.2322301411903108e-17 -2.7717265353417394e-04 0.0000000000000000e+00  4.4891617539406313e-17 -2.7717265353417308e-04 0.0000000000000000e+00  3.0995144603528176e-17 -2.7717265353417009e-04 0.0000000000000000e+00  2.7199569114041331e-17 -2.7717265353416950e-04 0.0000000000000000e+00  1.6972701126095721e-17 -2.7717265353416169e-04 0.0000000000000000e+00  -3.5970614301359704e-33 -2.7717265353416814e-04 0.0000000000000000e+00  2.5274541536414869e-33 -5.5434530706834398e-04 0.0000000000000000e+00  -1.6296105663204943e-17 -5.5434530706834995e-04 0.0000000000000000e+00  5.4164699234315902e-18 -5.5434530706836328e-04 0.0000000000000000e+00  4.6890597520653229e-17 -5.5434530706836914e-04 0.0000000000000000e+00  6.6123902797443976e-17 -5.5434530706835819e-04 0.0000000000000000e+00  8.2001232084100859e-17 -5.5434530706834995e-04 0.0000000000000000e+00  8.5224330957118161e-17 -5.5434530706834561e-04 0.0000000000000000e+00  6.0010102817477534e-17 -5.5434530706833997e-04 0.0000000000000000e+00  5.1486007984973797e-17 -5.5434530706834041e-04 0.0000000000000000e+00  3.1991270336660427e-17 -5.5434530706832176e-04 0.0000000000000000e+00  -3.5466343841952415e-33 -5.5434530706833433e-04 0.0000000000000000e+00  -2.2569491535787941e-33 -8.3151796060251240e-04 0.0000000000000000e+00  -2.0536301280902733e-17 -8.3151796060252573e-04 0.0000000000000000e+00  9.2524984840336778e-18 -8.3151796060254590e-04 0.0000000000000000e+00  6.5807918352486379e-17 -8.3151796060256010e-04 0.0000000000000000e+00  9.5894166979569681e-17 -8.3151796060253874e-04 0.0000000000000000e+00  1.1971060605190935e-16 -8.3151796060252823e-04 0.0000000000000000e+00  1.2206978031520078e-16 -8.3151796060252085e-04 0.0000000000000000e+00  8.5977630742083094e-17 -8.3151796060251034e-04 0.0000000000000000e+00  7.3042299065989346e-17 -8.3151796060250969e-04 0.0000000000000000e+00  4.5884475935324933e-17 -8.3151796060248096e-04 0.0000000000000000e+00  2.2569491535787930e-33 -8.3151796060250047e-04 0.0000000000000000e+00  -2.2446649407036592e-33 -1.1086906141366812e-03 0.0000000000000000e+00  -2.3626973960439630e-17 -1.1086906141366988e-03 0.0000000000000000e+00  1.3165365086790951e-17 -1.1086906141367268e-03 0.0000000000000000e+00  8.2553319235249210e-17 -1.1086906141367504e-03 0.0000000000000000e+00  1.2383783801544019e-16 -1.1086906141367192e-03 0.0000000000000000e+00  1.5373891616740484e-16 -1.1086906141367079e-03 0.0000000000000000e+00  1.5638698035069222e-16 -1.1086906141366992e-03 0.0000000000000000e+00  1.0972144082146248e-16 -1.1086906141366830e-03 0.0000000000000000e+00  9.2680219086283473e-17 -1.1086906141366717e-03 0.0000000000000000e+00  5.8226165295776234e-17 -1.1086906141366374e-03 0.0000000000000000e+00  6.9002344533282314e-33 -1.1086906141366659e-03 0.0000000000000000e+00  -3.1033050861708370e-33 -1.3858632676708531e-03 0.0000000000000000e+00  -2.5669122596501109e-17 -1.3858632676708757e-03 0.0000000000000000e+00  1.6963375466145087e-17 -1.3858632676709102e-03 0.0000000000000000e+00  9.7254836427999802e-17 -1.3858632676709407e-03 0.0000000000000000e+00  1.5034207275877597e-16 -1.3858632676709037e-03 0.0000000000000000e+00  1.8419814295995741e-16 -1.3858632676708943e-03 0.0000000000000000e+00  1.8730705570623447e-16 -1.3858632676708850e-03 0.0000000000000000e+00  1.3280441635237083e-16 -1.3858632676708605e-03 0.0000000000000000e+00  1.1211328195930188e-16 -1.3858632676708314e-03 0.0000000000000000e+00  6.8324134918502609e-17 -1.3858632676707922e-03 0.0000000000000000e+00  -1.8114178962856639e-33 -1.3858632676708269e-03 0.0000000000000000e+00  -1.7167425108170692e-33 -1.6630359212050267e-03 0.0000000000000000e+00  -2.6052596749620260e-17 -1.6630359212050482e-03 0.0000000000000000e+00  1.9350519858380311e-17 -1.6630359212050940e-03 0.0000000000000000e+00  1.0999349372115738e-16 -1.6630359212051319e-03 0.0000000000000000e+00  1.7342556800094218e-16 -1.6630359212050868e-03 0.0000000000000000e+00  2.1257204739889939e-16 -1.6630359212050788e-03 0.0000000000000000e+00  2.1570096058421743e-16 -1.6630359212050703e-03 0.0000000000000000e+00  1.5614460469912489e-16 -1.6630359212050402e-03 0.0000000000000000e+00  1.3150089081914636e-16 -1.6630359212049929e-03 0.0000000000000000e+00  7.7160751674456637e-17 -1.6630359212049465e-03 0.0000000000000000e+00  -2.5793704612329027e-33 -1.6630359212049825e-03 0.0000000000000000e+00  -2.5390677977761390e-33 -1.9402085747391967e-03 0.0000000000000000e+00  -2.6167445156588837e-17 -1.9402085747392181e-03 0.0000000000000000e+00  1.9882633453524827e-17 -1.9402085747392765e-03 0.0000000000000000e+00  1.2218619563702741e-16 -1.9402085747393259e-03 0.0000000000000000e+00  1.9448011049127522e-16 -1.9402085747392730e-03 0.0000000000000000e+00  2.3854562315999170e-16 -1.9402085747392593e-03 0.0000000000000000e+00  2.4151324851025128e-16 -1.9402085747392505e-03 0.0000000000000000e+00  1.7826567344871100e-16 -1.9402085747392166e-03 0.0000000000000000e+00  1.5067468796399451e-16 -1.9402085747391505e-03 0.0000000000000000e+00  8.3472916418130241e-17 -1.9402085747390969e-03 0.0000000000000000e+00  4.5138983071575799e-33 -1.9402085747391390e-03 0.0000000000000000e+00  -4.6619452527974840e-33 -2.2173812282733586e-03 0.0000000000000000e+00  -2.8169108894504167e-17 -2.2173812282733915e-03 0.0000000000000000e+00  1.8894622501445172e-17 -2.2173812282734670e-03 0.0000000000000000e+00  1.3393315068762780e-16 -2.2173812282735230e-03 0.0000000000000000e+00  2.1354727713042738e-16 -2.2173812282734579e-03 0.0000000000000000e+00  2.6163402936377810e-16 -2.2173812282734453e-03 0.0000000000000000e+00  2.6615868721586853e-16 -2.2173812282734349e-03 0.0000000000000000e+00  1.9888864586716350e-16 -2.2173812282733933e-03 0.0000000000000000e+00  1.6983852089716328e-16 -2.2173812282733052e-03 0.0000000000000000e+00  8.8452242297117847e-17 -2.2173812282732480e-03 0.0000000000000000e+00  8.1747109793741314e-33 -2.2173812282732914e-03 0.0000000000000000e+00  -1.6927118651840998e-33 -2.4945538818075259e-03 0.0000000000000000e+00  -3.3164922914634500e-17 -2.4945538818075554e-03 0.0000000000000000e+00  1.5765960727358300e-17 -2.4945538818076560e-03 0.0000000000000000e+00  1.4504692000777028e-16 -2.4945538818077159e-03 0.0000000000000000e+00  2.3198247487966373e-16 -2.4945538818076521e-03 0.0000000000000000e+00  2.8117262575267715e-16 -2.4945538818076239e-03 0.0000000000000000e+00  2.8827759836290000e-16 -2.4945538818076426e-03 0.0000000000000000e+00  2.1986043067280345e-16 -2.4945538818075745e-03 0.0000000000000000e+00  1.8812716007160045e-16 -2.4945538818074600e-03 0.0000000000000000e+00  9.2191417721558146e-17 -2.4945538818074036e-03 0.0000000000000000e+00  -1.9654089260928608e-32 -2.4945538818074448e-03 0.0000000000000000e+00  -5.8466246750222293e-34 -2.7717265353416959e-03 0.0000000000000000e+00  -4.0268903311423011e-17 -2.7717265353417344e-03 0.0000000000000000e+00  1.0311071361774467e-17 -2.7717265353418559e-03 0.0000000000000000e+00  1.5371703498655759e-16 -2.7717265353419157e-03 0.0000000000000000e+00  2.5161742606835004e-16 -2.7717265353418459e-03 0.0000000000000000e+00  2.9667998880627100e-16 -2.7717265353418090e-03 0.0000000000000000e+00  3.0446251650601634e-16 -2.7717265353418476e-03 0.0000000000000000e+00  2.4446128932000909e-16 -2.7717265353417622e-03 0.0000000000000000e+00  2.0732209088805112e-16 -2.7717265353416148e-03 0.0000000000000000e+00  9.3243364807232665e-17 -2.7717265353415610e-03 0.0000000000000000e+00  6.3678208261687287e-33 -2.7717265353416048e-03 0.0000000000000000e+00  2.2569491535787903e-33 -3.0488991888758714e-03 0.0000000000000000e+00  -5.0434856301469971e-17 -3.0488991888759187e-03 0.0000000000000000e+00  1.8626451492237888e-18 -3.0488991888760718e-03 0.0000000000000000e+00  1.6329866950003170e-16 -3.0488991888761143e-03 0.0000000000000000e+00  2.7032261381619810e-16 -3.0488991888760445e-03 0.0000000000000000e+00  3.1040270890408473e-16 -3.0488991888759950e-03 0.0000000000000000e+00  3.1566014513251661e-16 -3.0488991888760475e-03 0.0000000000000000e+00  2.6922996964280466e-16 -3.0488991888759517e-03 0.0000000000000000e+00  2.2804098469782478e-16 -3.0488991888757816e-03 0.0000000000000000e+00  9.2936237388763487e-17 -3.0488991888757131e-03 0.0000000000000000e+00  5.6423728839469746e-33 -3.0488991888757565e-03 0.0000000000000000e+00  -3.9624847468599327e-33 -3.3260718424100466e-03 0.0000000000000000e+00  -6.5467218412701815e-17 -3.3260718424101086e-03 0.0000000000000000e+00  -6.7853501864580200e-18 -3.3260718424102920e-03 0.0000000000000000e+00  1.7536113149424802e-16 -3.3260718424103033e-03 0.0000000000000000e+00  2.8771215251402930e-16 -3.3260718424102378e-03 0.0000000000000000e+00  3.2239790364914601e-16 -3.3260718424101862e-03 0.0000000000000000e+00  3.2271388522775993e-16 -3.3260718424102408e-03 0.0000000000000000e+00  2.9421180427598733e-16 -3.3260718424101355e-03 0.0000000000000000e+00  2.4760291645473971e-16 -3.3260718424099568e-03 0.0000000000000000e+00  9.5560531764683210e-17 -3.3260718424098700e-03 0.0000000000000000e+00  7.8909821012798968e-33 -3.3260718424099069e-03 0.0000000000000000e+00  1.1284745767893952e-33 -3.6032444959442239e-03 0.0000000000000000e+00  -8.6381000048744754e-17 -3.6032444959443041e-03 0.0000000000000000e+00  -1.3969838619178297e-17 -3.6032444959445062e-03 0.0000000000000000e+00  1.9067364006475122e-16 -3.6032444959444971e-03 0.0000000000000000e+00  3.0356050167431128e-16 -3.6032444959444277e-03 0.0000000000000000e+00  3.3051972942565443e-16 -3.6032444959443856e-03 0.0000000000000000e+00  3.2851572281421286e-16 -3.6032444959444277e-03 0.0000000000000000e+00  3.1728557457434637e-16 -3.6032444959443015e-03 0.0000000000000000e+00  2.6603073064989105e-16 -3.6032444959441350e-03 0.0000000000000000e+00  1.0038503822931387e-16 -3.6032444959440309e-03 0.0000000000000000e+00  -1.5681884967609378e-32 -3.6032444959440656e-03 0.0000000000000000e+00  -6.6351103749125357e-33 -3.8804171494784051e-03 0.0000000000000000e+00  -1.0762454966531331e-16 -3.8804171494784992e-03 0.0000000000000000e+00  -2.1822993306264523e-17 -3.8804171494786978e-03 0.0000000000000000e+00  2.0844506316845528e-16 -3.8804171494786831e-03 0.0000000000000000e+00  3.1437415133205796e-16 -3.8804171494786111e-03 0.0000000000000000e+00  3.3271294009654198e-16 -3.8804171494785859e-03 0.0000000000000000e+00  3.3853575587142087e-16 -3.8804171494786002e-03 0.0000000000000000e+00  3.3488408975311857e-16 -3.8804171494784697e-03 0.0000000000000000e+00  2.8327027017242041e-16 -3.8804171494783162e-03 0.0000000000000000e+00  1.0747298204571212e-16 -3.8804171494781934e-03 0.0000000000000000e+00  -4.5138983071575799e-33 -3.8804171494782264e-03 0.0000000000000000e+00  2.2569491535787903e-33 -4.1575898030125876e-03 0.0000000000000000e+00  -1.2653342781223872e-16 -4.1575898030126960e-03 0.0000000000000000e+00  -2.9829347373004398e-17 -4.1575898030128764e-03 0.0000000000000000e+00  2.2520334150292807e-16 -4.1575898030128513e-03 0.0000000000000000e+00  3.1980719590495552e-16 -4.1575898030128053e-03 0.0000000000000000e+00  3.3566092793193645e-16 -4.1575898030127862e-03 0.0000000000000000e+00  3.4991119588989533e-16 -4.1575898030127593e-03 0.0000000000000000e+00  3.4942731314521489e-16 -4.1575898030126440e-03 0.0000000000000000e+00  2.9842236212206610e-16 -4.1575898030124870e-03 0.0000000000000000e+00  1.1358560247782097e-16 -4.1575898030123534e-03 0.0000000000000000e+00  0.0000000000000000e+00 -4.1575898030123968e-03 0.0000000000000000e+00  2.6332994649824195e-32 -4.4347624565467736e-03 0.0000000000000000e+00  -1.4039262938833480e-16 -4.4347624565469089e-03 0.0000000000000000e+00  -3.4068112394508046e-17 -4.4347624565470364e-03 0.0000000000000000e+00  2.3463303784983977e-16 -4.4347624565470329e-03 0.0000000000000000e+00  3.1900874466070674e-16 -4.4347624565470077e-03 0.0000000000000000e+00  3.4187000452627401e-16 -4.4347624565469852e-03 0.0000000000000000e+00  3.6155641886444642e-16 -4.4347624565469184e-03 0.0000000000000000e+00  3.6207390633676496e-16 -4.4347624565468022e-03 0.0000000000000000e+00  3.1136109360506687e-16 -4.4347624565466539e-03 0.0000000000000000e+00  1.1809680309344144e-16 -4.4347624565465333e-03 0.0000000000000000e+00  5.9116893517703692e-34 -4.4347624565465732e-03 0.0000000000000000e+00  -9.0277966143151995e-33 -4.7119351100809639e-03 0.0000000000000000e+00  -1.5011642724382113e-16 -4.7119351100811295e-03 0.0000000000000000e+00  -3.2126471134044736e-17 -4.7119351100812189e-03 0.0000000000000000e+00  2.3619106113808100e-16 -4.7119351100812267e-03 0.0000000000000000e+00  3.1498208435039283e-16 -4.7119351100812119e-03 0.0000000000000000e+00  3.5363648618834116e-16 -4.7119351100811720e-03 0.0000000000000000e+00  3.7531052449839336e-16 -4.7119351100810549e-03 0.0000000000000000e+00  3.6859917281859022e-16 -4.7119351100809500e-03 0.0000000000000000e+00  3.2111087680803389e-16 -4.7119351100808277e-03 0.0000000000000000e+00  1.2075378946964819e-16 -4.7119351100807097e-03 0.0000000000000000e+00  2.3320923057624529e-32 -4.7119351100807704e-03 0.0000000000000000e+00  -1.3459212176149533e-32 -4.9891077636151603e-03 0.0000000000000000e+00  -1.6005308473879698e-16 -4.9891077636153337e-03 0.0000000000000000e+00  -2.4347433021996445e-17 -4.9891077636154239e-03 0.0000000000000000e+00  2.3410045076237773e-16 -4.9891077636154213e-03 0.0000000000000000e+00  3.1086217079723894e-16 -4.9891077636154101e-03 0.0000000000000000e+00  3.6900543632629112e-16 -4.9891077636153459e-03 0.0000000000000000e+00  3.9292616266325837e-16 -4.9891077636151915e-03 0.0000000000000000e+00  3.6674314181324565e-16 -4.9891077636150761e-03 0.0000000000000000e+00  3.2713671575493912e-16 -4.9891077636149807e-03 0.0000000000000000e+00  1.1949837497258315e-16 -4.9891077636148810e-03 0.0000000000000000e+00  -2.7163995169859042e-32 -4.9891077636149608e-03 0.0000000000000000e+00  -3.3854237303681853e-32 -5.2662804171493688e-03 0.0000000000000000e+00  -1.6885558075209141e-16 -5.2662804171495258e-03 0.0000000000000000e+00  -1.5433345522139851e-17 -5.2662804171496281e-03 0.0000000000000000e+00  2.2987473763260230e-16 -5.2662804171496125e-03 0.0000000000000000e+00  3.0560685055478628e-16 -5.2662804171496004e-03 0.0000000000000000e+00  3.9022615718682857e-16 -5.2662804171495110e-03 0.0000000000000000e+00  4.1034708638455170e-16 -5.2662804171493514e-03 0.0000000000000000e+00  3.6254435015378708e-16 -5.2662804171492075e-03 0.0000000000000000e+00  3.2676117760668495e-16 -5.2662804171491225e-03 0.0000000000000000e+00  1.0865676694614775e-16 -5.2662804171490401e-03 0.0000000000000000e+00  3.2725762726892457e-32 -5.2662804171491528e-03 0.0000000000000000e+00  1.6001652592706931e-32 -5.5434530706835817e-03 0.0000000000000000e+00  -1.7618175840653609e-16 -5.5434530706837126e-03 0.0000000000000000e+00  -8.1158110073320943e-18 -5.5434530706838445e-03 0.0000000000000000e+00  2.2852982650151471e-16 -5.5434530706838262e-03 0.0000000000000000e+00  3.0281184340843343e-16 -5.5434530706837837e-03 0.0000000000000000e+00  4.1170246257154156e-16 -5.5434530706836745e-03 0.0000000000000000e+00  4.2820284243584995e-16 -5.5434530706835140e-03 0.0000000000000000e+00  3.5583824829328040e-16 -5.5434530706833457e-03 0.0000000000000000e+00  3.1904762311316241e-16 -5.5434530706832729e-03 0.0000000000000000e+00  9.4963171439698629e-17 -5.5434530706832035e-03 0.0000000000000000e+00  -7.6036638462504941e-33 -5.5434530706833319e-03 0.0000000000000000e+00  -5.6423728839469855e-32 -5.8206257242177980e-03 0.0000000000000000e+00  -1.8283673720710598e-16 -5.8206257242178925e-03 0.0000000000000000e+00  -8.0492879662884580e-18 -5.8206257242180608e-03 0.0000000000000000e+00  2.3287674052512572e-16 -5.8206257242180400e-03 0.0000000000000000e+00  2.9958235765026548e-16 -5.8206257242179706e-03 0.0000000000000000e+00  4.3385909111256310e-16 -5.8206257242178431e-03 0.0000000000000000e+00  4.5066242039562002e-16 -5.8206257242176835e-03 0.0000000000000000e+00  3.4248211834630527e-16 -5.8206257242175118e-03 0.0000000000000000e+00  3.0859622971168777e-16 -5.8206257242174398e-03 0.0000000000000000e+00  8.0037068610981915e-17 -5.8206257242173860e-03 0.0000000000000000e+00  1.1659429397197361e-32 -5.8206257242175031e-03 0.0000000000000000e+00  2.4833095094152093e-32 -6.0977983777520169e-03 0.0000000000000000e+00  -1.8876601336325615e-16 -6.0977983777520933e-03 0.0000000000000000e+00  -1.1523983886027573e-17 -6.0977983777522685e-03 0.0000000000000000e+00  2.4083997108332009e-16 -6.0977983777522520e-03 0.0000000000000000e+00  2.9972740989354230e-16 -6.0977983777521358e-03 0.0000000000000000e+00  4.5312821127760654e-16 -6.0977983777520117e-03 0.0000000000000000e+00  4.6878787023499807e-16 -6.0977983777518755e-03 0.0000000000000000e+00  3.3255099718430991e-16 -6.0977983777517125e-03 0.0000000000000000e+00  2.9661634913404292e-16 -6.0977983777515989e-03 0.0000000000000000e+00  6.3727305066685316e-17 -6.0977983777515616e-03 0.0000000000000000e+00  1.2292312354313054e-33 -6.0977983777516691e-03 0.0000000000000000e+00  -4.5138983071575807e-32 -6.3749710312862315e-03 0.0000000000000000e+00  -1.9661375205801691e-16 -6.3749710312863009e-03 0.0000000000000000e+00  -1.7029898507188834e-17 -6.3749710312864787e-03 0.0000000000000000e+00  2.5101428757472409e-16 -6.3749710312864787e-03 0.0000000000000000e+00  3.0820241546285272e-16 -6.3749710312863009e-03 0.0000000000000000e+00  4.6990479984393553e-16 -6.3749710312861960e-03 0.0000000000000000e+00  4.7968075835027580e-16 -6.3749710312860745e-03 0.0000000000000000e+00  3.2352630242306159e-16 -6.3749710312859280e-03 0.0000000000000000e+00  2.8338815484618839e-16 -6.3749710312857770e-03 0.0000000000000000e+00  4.4103317621249393e-17 -6.3749710312857354e-03 0.0000000000000000e+00  -1.4105932209867436e-33 -6.3749710312858386e-03 0.0000000000000000e+00  1.2909545283669209e-33 -6.6521436848204505e-03 0.0000000000000000e+00  -2.0364195490994276e-16 -6.6521436848205042e-03 0.0000000000000000e+00  -2.7052010409429640e-17 -6.6521436848206959e-03 0.0000000000000000e+00  2.6427949536838480e-16 -6.6521436848207081e-03 0.0000000000000000e+00  3.2024191958440175e-16 -6.6521436848204591e-03 0.0000000000000000e+00  4.8443724609258048e-16 -6.6521436848203819e-03 0.0000000000000000e+00  4.8512232227677835e-16 -6.6521436848202813e-03 0.0000000000000000e+00  3.1651708444946344e-16 -6.6521436848201495e-03 0.0000000000000000e+00  2.7133085365701663e-16 -6.6521436848199465e-03 0.0000000000000000e+00  2.5835389303018417e-17 -6.6521436848199101e-03 0.0000000000000000e+00  -1.2763276077733249e-33 -6.6521436848200038e-03 0.0000000000000000e+00  -2.2569491535787903e-33 -6.9293163383546668e-03 0.0000000000000000e+00  -2.1061941870076371e-16 -6.9293163383547223e-03 0.0000000000000000e+00  -3.6017844197732167e-17 -6.9293163383549010e-03 0.0000000000000000e+00  2.7776806511632782e-16 -6.9293163383549079e-03 0.0000000000000000e+00 