<?xml version="1.0"?>
<VTKFile type="UnstructuredGrid"  version="0.1"  >
<UnstructuredGrid>
<Piece  NumberOfPoints="1091" NumberOfCells="2050">
<Points>
<DataArray  type="Float64"  NumberOfComponents="3"  format="ascii">-0.5 -1 0  -0.4 -1 0  -0.3 -1 0  -0.2 -1 0  -0.09999999999999998 -1 0  0 -1 0  0.09999999999999998 -1 0  0.2 -1 0  0.3 -1 0  0.4 -1 0  0.5 -1 0  -0.5 -0.98 0  -0.4 -0.98 0  -0.3 -0.98 0  -0.2 -0.98 0  -0.09999999999999998 -0.98 0  0 -0.98 0  0.09999999999999998 -0.98 0  0.2 -0.98 0  0.3 -0.98 0  0.4 -0.98 0  0.5 -0.98 0  -0.5 -0.96 0  -0.4 -0.96 0  -0.3 -0.96 0  -0.2 -0.96 0  -0.09999999999999998 -0.96 0  0 -0.96 0  0.09999999999999998 -0.96 0  0.2 -0.96 0  0.3 -0.96 0  0.4 -0.96 0  0.5 -0.96 0  -0.5 -0.9399999999999999 0  -0.4 -0.9399999999999999 0  -0.3 -0.9399999999999999 0  -0.2 -0.9399999999999999 0  -0.09999999999999998 -0.9399999999999999 0  0 -0.9399999999999999 0  0.09999999999999998 -0.9399999999999999 0  0.2 -0.9399999999999999 0  0.3 -0.9399999999999999 0  0.4 -0.9399999999999999 0  0.5 -0.9399999999999999 0  -0.5 -0.92 0  -0.4 -0.92 0  -0.3 -0.92 0  -0.2 -0.92 0  -0.09999999999999998 -0.92 0  0 -0.92 0  0.09999999999999998 -0.92 0  0.2 -0.92 0  0.3 -0.92 0  0.4 -0.92 0  0.5 -0.92 0  -0.5 -0.9 0  -0.4 -0.9 0  -0.3 -0.9 0  -0.2 -0.9 0  -0.09999999999999998 -0.9 0  0 -0.9 0  0.09999999999999998 -0.9 0  0.2 -0.9 0  0.3 -0.9 0  0.4 -0.9 0  0.5 -0.9 0  -0.5 -0.88 0  -0.4 -0.88 0  -0.3 -0.88 0  -0.2 -0.88 0  -0.09999999999999998 -0.88 0  0 -0.88 0  0.09999999999999998 -0.88 0  0.2 -0.88 0  0.3 -0.88 0  0.4 -0.88 0  0.5 -0.88 0  -0.5 -0.86 0  -0.4 -0.86 0  -0.3 -0.86 0  -0.2 -0.86 0  -0.09999999999999998 -0.86 0  0 -0.86 0  0.09999999999999998 -0.86 0  0.2 -0.86 0  0.3 -0.86 0  0.4 -0.86 0  0.5 -0.86 0  -0.5 -0.84 0  -0.4 -0.84 0  -0.3 -0.84 0  -0.2 -0.84 0  -0.09999999999999998 -0.84 0  0 -0.84 0  0.09999999999999998 -0.84 0  0.2 -0.84 0  0.3 -0.84 0  0.4 -0.84 0  0.5 -0.84 0  -0.5 -0.8200000000000001 0  -0.4 -0.8200000000000001 0  -0.3 -0.8200000000000001 0  -0.2 -0.8200000000000001 0  -0.09999999999999998 -0.8200000000000001 0  0 -0.8200000000000001 0  0.09999999999999998 -0.8200000000000001 0  0.2 -0.8200000000000001 0  0.3 -0.8200000000000001 0  0.4 -0.8200000000000001 0  0.5 -0.8200000000000001 0  -0.5 -0.8 0  -0.4 -0.8 0  -0.3 -0.8 0  -0.2 -0.8 0  -0.09999999999999998 -0.8 0  0 -0.8 0  0.09999999999999998 -0.8 0  0.2 -0.8 0  0.3 -0.8 0  0.4 -0.8 0  0.5 -0.8 0  -0.5 -0.78 0  -0.4 -0.78 0  -0.3 -0.78 0  -0.2 -0.78 0  -0.09999999999999998 -0.78 0  0 -0.78 0  0.09999999999999998 -0.78 0  0.2 -0.78 0  0.3 -0.78 0  0.4 -0.78 0  0.5 -0.78 0  -0.5 -0.76 0  -0.4 -0.76 0  -0.3 -0.76 0  -0.2 -0.76 0  -0.09999999999999998 -0.76 0  0 -0.76 0  0.09999999999999998 -0.76 0  0.2 -0.76 0  0.3 -0.76 0  0.4 -0.76 0  0.5 -0.76 0  -0.5 -0.74 0  -0.4 -0.74 0  -0.3 -0.74 0  -0.2 -0.74 0  -0.09999999999999998 -0.74 0  0 -0.74 0  0.09999999999999998 -0.74 0  0.2 -0.74 0  0.3 -0.74 0  0.4 -0.74 0  0.5 -0.74 0  -0.5 -0.72 0  -0.4 -0.72 0  -0.3 -0.72 0  -0.2 -0.72 0  -0.09999999999999998 -0.72 0  0 -0.72 0  0.09999999999999998 -0.72 0  0.2 -0.72 0  0.3 -0.72 0  0.4 -0.72 0  0.5 -0.72 0  -0.5 -0.7 0  -0.4 -0.7 0  -0.3 -0.7 0  -0.2 -0.7 0  -0.09999999999999998 -0.7 0  0 -0.7 0  0.09999999999999998 -0.7 0  0.2 -0.7 0  0.3 -0.7 0  0.4 -0.7 0  0.5 -0.7 0  -0.5 -0.6799999999999999 0  -0.4 -0.6799999999999999 0  -0.3 -0.6799999999999999 0  -0.2 -0.6799999999999999 0  -0.09999999999999998 -0.6799999999999999 0  0 -0.6799999999999999 0  0.09999999999999998 -0.6799999999999999 0  0.2 -0.6799999999999999 0  0.3 -0.6799999999999999 0  0.4 -0.6799999999999999 0  0.5 -0.6799999999999999 0  -0.5 -0.6599999999999999 0  -0.4 -0.6599999999999999 0  -0.3 -0.6599999999999999 0  -0.2 -0.6599999999999999 0  -0.09999999999999998 -0.6599999999999999 0  0 -0.6599999999999999 0  0.09999999999999998 -0.6599999999999999 0  0.2 -0.6599999999999999 0  0.3 -0.6599999999999999 0  0.4 -0.6599999999999999 0  0.5 -0.6599999999999999 0  -0.5 -0.64 0  -0.4 -0.64 0  -0.3 -0.64 0  -0.2 -0.64 0  -0.09999999999999998 -0.64 0  0 -0.64 0  0.09999999999999998 -0.64 0  0.2 -0.64 0  0.3 -0.64 0  0.4 -0.64 0  0.5 -0.64 0  -0.5 -0.62 0  -0.4 -0.62 0  -0.3 -0.62 0  -0.2 -0.62 0  -0.09999999999999998 -0.62 0  0 -0.62 0  0.09999999999999998 -0.62 0  0.2 -0.62 0  0.3 -0.62 0  0.4 -0.62 0  0.5 -0.62 0  -0.5 -0.6 0  -0.4 -0.6 0  -0.3 -0.6 0  -0.2 -0.6 0  -0.09999999999999998 -0.6 0  0 -0.6 0  0.09999999999999998 -0.6 0  0.2 -0.6 0  0.3 -0.6 0  0.4 -0.6 0  0.5 -0.6 0  -0.5 -0.5800000000000001 0  -0.4 -0.5800000000000001 0  -0.3 -0.5800000000000001 0  -0.2 -0.5800000000000001 0  -0.09999999999999998 -0.5800000000000001 0  0 -0.5800000000000001 0  0.09999999999999998 -0.5800000000000001 0  0.2 -0.5800000000000001 0  0.3 -0.5800000000000001 0  0.4 -0.5800000000000001 0  0.5 -0.5800000000000001 0  -0.5 -0.5600000000000001 0  -0.4 -0.5600000000000001 0  -0.3 -0.5600000000000001 0  -0.2 -0.5600000000000001 0  -0.09999999999999998 -0.5600000000000001 0  0 -0.5600000000000001 0  0.09999999999999998 -0.5600000000000001 0  0.2 -0.5600000000000001 0  0.3 -0.5600000000000001 0  0.4 -0.5600000000000001 0  0.5 -0.5600000000000001 0  -0.5 -0.54 0  -0.4 -0.54 0  -0.3 -0.54 0  -0.2 -0.54 0  -0.09999999999999998 -0.54 0  0 -0.54 0  0.09999999999999998 -0.54 0  0.2 -0.54 0  0.3 -0.54 0  0.4 -0.54 0  0.5 -0.54 0  -0.5 -0.52 0  -0.4 -0.52 0  -0.3 -0.52 0  -0.2 -0.52 0  -0.09999999999999998 -0.52 0  0 -0.52 0  0.09999999999999998 -0.52 0  0.2 -0.52 0  0.3 -0.52 0  0.4 -0.52 0  0.5 -0.52 0  -0.5 -0.5 0  -0.4 -0.5 0  -0.3 -0.5 0  -0.2 -0.5 0  -0.09999999999999998 -0.5 0  0 -0.5 0  0.09999999999999998 -0.5 0  0.2 -0.5 0  0.3 -0.5 0  0.4 -0.5 0  0.5 -0.5 0  -0.5 -0.48 0  -0.4 -0.48 0  -0.3 -0.48 0  -0.2 -0.48 0  -0.09999999999999998 -0.48 0  0 -0.48 0  0.09999999999999998 -0.48 0  0.2 -0.48 0  0.3 -0.48 0  0.4 -0.48 0  0.5 -0.48 0  -0.5 -0.46 0  -0.4 -0.46 0  -0.3 -0.46 0  -0.2 -0.46 0  -0.09999999999999998 -0.46 0  0 -0.46 0  0.09999999999999998 -0.46 0  0.2 -0.46 0  0.3 -0.46 0  0.4 -0.46 0  0.5 -0.46 0  -0.5 -0.4399999999999999 0  -0.4 -0.4399999999999999 0  -0.3 -0.4399999999999999 0  -0.2 -0.4399999999999999 0  -0.09999999999999998 -0.4399999999999999 0  0 -0.4399999999999999 0  0.09999999999999998 -0.4399999999999999 0  0.2 -0.4399999999999999 0  0.3 -0.4399999999999999 0  0.4 -0.4399999999999999 0  0.5 -0.4399999999999999 0  -0.5 -0.42 0  -0.4 -0.42 0  -0.3 -0.42 0  -0.2 -0.42 0  -0.09999999999999998 -0.42 0  0 -0.42 0  0.09999999999999998 -0.42 0  0.2 -0.42 0  0.3 -0.42 0  0.4 -0.42 0  0.5 -0.42 0  -0.5 -0.4 0  -0.4 -0.4 0  -0.3 -0.4 0  -0.2 -0.4 0  -0.09999999999999998 -0.4 0  0 -0.4 0  0.09999999999999998 -0.4 0  0.2 -0.4 0  0.3 -0.4 0  0.4 -0.4 0  0.5 -0.4 0  -0.5 -0.38 0  -0.4 -0.38 0  -0.3 -0.38 0  -0.2 -0.38 0  -0.09999999999999998 -0.38 0  0 -0.38 0  0.09999999999999998 -0.38 0  0.2 -0.38 0  0.3 -0.38 0  0.4 -0.38 0  0.5 -0.38 0  -0.5 -0.36 0  -0.4 -0.36 0  -0.3 -0.36 0  -0.2 -0.36 0  -0.09999999999999998 -0.36 0  0 -0.36 0  0.09999999999999998 -0.36 0  0.2 -0.36 0  0.3 -0.36 0  0.4 -0.36 0  0.5 -0.36 0  -0.5 -0.34 0  -0.4 -0.34 0  -0.3 -0.34 0  -0.2 -0.34 0  -0.09999999999999998 -0.34 0  0 -0.34 0  0.09999999999999998 -0.34 0  0.2 -0.34 0  0.3 -0.34 0  0.4 -0.34 0  0.5 -0.34 0  -0.5 -0.32 0  -0.4 -0.32 0  -0.3 -0.32 0  -0.2 -0.32 0  -0.09999999999999998 -0.32 0  0 -0.32 0  0.09999999999999998 -0.32 0  0.2 -0.32 0  0.3 -0.32 0  0.4 -0.32 0  0.5 -0.32 0  -0.5 -0.3 0  -0.4 -0.3 0  -0.3 -0.3 0  -0.2 -0.3 0  -0.09999999999999998 -0.3 0  0 -0.3 0  0.09999999999999998 -0.3 0  0.2 -0.3 0  0.3 -0.3 0  0.4 -0.3 0  0.5 -0.3 0  -0.5 -0.28 0  -0.4 -0.28 0  -0.3 -0.28 0  -0.2 -0.28 0  -0.09999999999999998 -0.28 0  0 -0.28 0  0.09999999999999998 -0.28 0  0.2 -0.28 0  0.3 -0.28 0  0.4 -0.28 0  0.5 -0.28 0  -0.5 -0.26 0  -0.4 -0.26 0  -0.3 -0.26 0  -0.2 -0.26 0  -0.09999999999999998 -0.26 0  0 -0.26 0  0.09999999999999998 -0.26 0  0.2 -0.26 0  0.3 -0.26 0  0.4 -0.26 0  0.5 -0.26 0  -0.5 -0.24 0  -0.4 -0.24 0  -0.3 -0.24 0  -0.2 -0.24 0  -0.09999999999999998 -0.24 0  0 -0.24 0  0.09999999999999998 -0.24 0  0.2 -0.24 0  0.3 -0.24 0  0.4 -0.24 0  0.5 -0.24 0  -0.5 -0.22 0  -0.4 -0.22 0  -0.3 -0.22 0  -0.2 -0.22 0  -0.09999999999999998 -0.22 0  0 -0.22 0  0.09999999999999998 -0.22 0  0.2 -0.22 0  0.3 -0.22 0  0.4 -0.22 0  0.5 -0.22 0  -0.5 -0.2 0  -0.4 -0.2 0  -0.3 -0.2 0  -0.2 -0.2 0  -0.09999999999999998 -0.2 0  0 -0.2 0  0.09999999999999998 -0.2 0  0.2 -0.2 0  0.3 -0.2 0  0.4 -0.2 0  0.5 -0.2 0  -0.5 -0.18 0  -0.4 -0.18 0  -0.3 -0.18 0  -0.2 -0.18 0  -0.09999999999999998 -0.18 0  0 -0.18 0  0.09999999999999998 -0.18 0  0.2 -0.18 0  0.3 -0.18 0  0.4 -0.18 0  0.5 -0.18 0  -0.5 -0.16 0  -0.4 -0.16 0  -0.3 -0.16 0  -0.2 -0.16 0  -0.09999999999999998 -0.16 0  0 -0.16 0  0.09999999999999998 -0.16 0  0.2 -0.16 0  0.3 -0.16 0  0.4 -0.16 0  0.5 -0.16 0  -0.5 -0.14 0  -0.4 -0.14 0  -0.3 -0.14 0  -0.2 -0.14 0  -0.09999999999999998 -0.14 0  0 -0.14 0  0.09999999999999998 -0.14 0  0.2 -0.14 0  0.3 -0.14 0  0.4 -0.14 0  0.5 -0.14 0  -0.5 -0.12 0  -0.4 -0.12 0  -0.3 -0.12 0  -0.2 -0.12 0  -0.09999999999999998 -0.12 0  0 -0.12 0  0.09999999999999998 -0.12 0  0.2 -0.12 0  0.3 -0.12 0  0.4 -0.12 0  0.5 -0.12 0  -0.5 -0.09999999999999998 0  -0.4 -0.09999999999999998 0  -0.3 -0.09999999999999998 0  -0.2 -0.09999999999999998 0  -0.09999999999999998 -0.09999999999999998 0  0 -0.09999999999999998 0  0.09999999999999998 -0.09999999999999998 0  0.2 -0.09999999999999998 0  0.3 -0.09999999999999998 0  0.4 -0.09999999999999998 0  0.5 -0.09999999999999998 0  -0.5 -0.07999999999999996 0  -0.4 -0.07999999999999996 0  -0.3 -0.07999999999999996 0  -0.2 -0.07999999999999996 0  -0.09999999999999998 -0.07999999999999996 0  0 -0.07999999999999996 0  0.09999999999999998 -0.07999999999999996 0  0.2 -0.07999999999999996 0  0.3 -0.07999999999999996 0  0.4 -0.07999999999999996 0  0.5 -0.07999999999999996 0  -0.5 -0.06000000000000005 0  -0.4 -0.06000000000000005 0  -0.3 -0.06000000000000005 0  -0.2 -0.06000000000000005 0  -0.09999999
[...]
<PointData  Vectors="displacement"> 
<DataArray  type="Float64"  Name="displacement"  NumberOfComponents="3" format="ascii">-7.0529661049337174e-34 1.9852334701272646e-20 0.0000000000000000e+00  2.8211864419734870e-34 -2.4815418376590803e-20 0.0000000000000000e+00  1.3014926515510503e-33 2.4214419962782750e-20 0.0000000000000000e+00  -2.5390677977761390e-33 -2.4815418376590811e-21 0.0000000000000000e+00  2.2681085864985235e-33 -2.9954247119332171e-20 0.0000000000000000e+00  3.3854237303681846e-33 1.2407709188295402e-20 0.0000000000000000e+00  2.1649299864284831e-33 -3.4094543080103139e-20 0.0000000000000000e+00  2.2569491535787896e-33 -2.9778502051908966e-20 0.0000000000000000e+00  5.5667944001729300e-34 1.8921756512150487e-20 0.0000000000000000e+00  5.6423728839469758e-34 -2.9778502051908972e-20 0.0000000000000000e+00  -2.2569491535787893e-33 1.9852334701272640e-20 0.0000000000000000e+00  5.6423728839469758e-34 -2.7717265353417291e-04 0.0000000000000000e+00  -9.0876143937388082e-18 -2.7717265353417497e-04 0.0000000000000000e+00  2.7572586588502937e-18 -2.7717265353418083e-04 0.0000000000000000e+00  2.5388327117333898e-17 -2.7717265353418300e-04 0.0000000000000000e+00  3.4524464222830298e-17 -2.7717265353417763e-04 0.0000000000000000e+00  4.1450679290174713e-17 -2.7717265353417362e-04 0.0000000000000000e+00  4.4858477411295124e-17 -2.7717265353417302e-04 0.0000000000000000e+00  3.1397834676733926e-17 -2.7717265353416999e-04 0.0000000000000000e+00  2.6933804878635112e-17 -2.7717265353416961e-04 0.0000000000000000e+00  1.7425306489458258e-17 -2.7717265353416164e-04 0.0000000000000000e+00  1.2697860081930169e-33 -2.7717265353416841e-04 0.0000000000000000e+00  -2.2697888187186391e-33 -5.5434530706834453e-04 0.0000000000000000e+00  -1.4599331103912439e-17 -5.5434530706835092e-04 0.0000000000000000e+00  6.2013283189591588e-18 -5.5434530706836242e-04 0.0000000000000000e+00  4.7327909973307305e-17 -5.5434530706836892e-04 0.0000000000000000e+00  6.7009490781338361e-17 -5.5434530706835786e-04 0.0000000000000000e+00  8.0663820350827537e-17 -5.5434530706834897e-04 0.0000000000000000e+00  8.4908346512160614e-17 -5.5434530706834659e-04 0.0000000000000000e+00  6.0714570402234994e-17 -5.5434530706833986e-04 0.0000000000000000e+00  5.1435059757459303e-17 -5.5434530706834041e-04 0.0000000000000000e+00  3.2645235531387755e-17 -5.5434530706832154e-04 0.0000000000000000e+00  -6.1260048454281445e-33 -5.5434530706833466e-04 0.0000000000000000e+00  -8.4635593259204769e-34 -8.3151796060251370e-04 0.0000000000000000e+00  -1.8206183281885897e-17 -8.3151796060252671e-04 0.0000000000000000e+00  1.0537416329855922e-17 -8.3151796060254525e-04 0.0000000000000000e+00  6.6730925546967822e-17 -8.3151796060256054e-04 0.0000000000000000e+00  9.6384667657776222e-17 -8.3151796060253896e-04 0.0000000000000000e+00  1.1777898447873006e-16 -8.3151796060252714e-04 0.0000000000000000e+00  1.2160411902789496e-16 -8.3151796060252216e-04 0.0000000000000000e+00  8.6867982486589932e-17 -8.3151796060251012e-04 0.0000000000000000e+00  7.3341652750686053e-17 -8.3151796060251001e-04 0.0000000000000000e+00  4.6684525730210440e-17 -8.3151796060248031e-04 0.0000000000000000e+00  -1.1284745767893965e-33 -8.3151796060250058e-04 0.0000000000000000e+00  -2.4816281483776190e-33 -1.1086906141366823e-03 0.0000000000000000e+00  -2.0660386432564157e-17 -1.1086906141367008e-03 0.0000000000000000e+00  1.4894464399235333e-17 -1.1086906141367257e-03 0.0000000000000000e+00  8.3551738886616538e-17 -1.1086906141367496e-03 0.0000000000000000e+00  1.2407690519419098e-16 -1.1086906141367179e-03 0.0000000000000000e+00  1.5150848647259751e-16 -1.1086906141367068e-03 0.0000000000000000e+00  1.5563169523863715e-16 -1.1086906141367008e-03 0.0000000000000000e+00  1.1061118649542203e-16 -1.1086906141366815e-03 0.0000000000000000e+00  9.3680400837401590e-17 -1.1086906141366721e-03 0.0000000000000000e+00  5.9086091571373098e-17 -1.1086906141366374e-03 0.0000000000000000e+00  4.5889477172746942e-34 -1.1086906141366659e-03 0.0000000000000000e+00  2.8211864419734879e-34 -1.3858632676708564e-03 0.0000000000000000e+00  -2.2416214503952254e-17 -1.3858632676708763e-03 0.0000000000000000e+00  1.9166951200717846e-17 -1.3858632676709095e-03 0.0000000000000000e+00  9.7845560057050902e-17 -1.3858632676709412e-03 0.0000000000000000e+00  1.4987641147147022e-16 -1.3858632676709017e-03 0.0000000000000000e+00  1.8188023074859078e-16 -1.3858632676708935e-03 0.0000000000000000e+00  1.8626555434489389e-16 -1.3858632676708870e-03 0.0000000000000000e+00  1.3439005540099838e-16 -1.3858632676708599e-03 0.0000000000000000e+00  1.1330718864709623e-16 -1.3858632676708323e-03 0.0000000000000000e+00  6.9902325286442063e-17 -1.3858632676707907e-03 0.0000000000000000e+00  9.3741172708669811e-33 -1.3858632676708278e-03 0.0000000000000000e+00  2.5425007471522785e-33 -1.6630359212050307e-03 0.0000000000000000e+00  -2.2529524403112885e-17 -1.6630359212050493e-03 0.0000000000000000e+00  2.2395852234124985e-17 -1.6630359212050920e-03 0.0000000000000000e+00  1.1091459309579562e-16 -1.6630359212051328e-03 0.0000000000000000e+00  1.7264392226867851e-16 -1.6630359212050855e-03 0.0000000000000000e+00  2.0965806550993770e-16 -1.6630359212050760e-03 0.0000000000000000e+00  2.1423745368125585e-16 -1.6630359212050721e-03 0.0000000000000000e+00  1.5727941802846516e-16 -1.6630359212050387e-03 0.0000000000000000e+00  1.3261301186828112e-16 -1.6630359212049916e-03 0.0000000000000000e+00  7.8726120140058009e-17 -1.6630359212049467e-03 0.0000000000000000e+00  -6.7708474607363706e-33 -1.6630359212049834e-03 0.0000000000000000e+00  -1.6927118651840926e-33 -1.9402085747391999e-03 0.0000000000000000e+00  -2.2305515560699155e-17 -1.9402085747392216e-03 0.0000000000000000e+00  2.3877703486106903e-17 -1.9402085747392743e-03 0.0000000000000000e+00  1.2273501072563803e-16 -1.9402085747393274e-03 0.0000000000000000e+00  1.9268398838309513e-16 -1.9402085747392687e-03 0.0000000000000000e+00  2.3565008885856795e-16 -1.9402085747392572e-03 0.0000000000000000e+00  2.3979821759931990e-16 -1.9402085747392509e-03 0.0000000000000000e+00  1.7852289407566672e-16 -1.9402085747392149e-03 0.0000000000000000e+00  1.5133991837443158e-16 -1.9402085747391522e-03 0.0000000000000000e+00  8.5447819836010299e-17 -1.9402085747390967e-03 0.0000000000000000e+00  0.0000000000000000e+00 -1.9402085747391414e-03 0.0000000000000000e+00  6.6599217897106912e-34 -2.2173812282733655e-03 0.0000000000000000e+00  -2.4037639589976899e-17 -2.2173812282733928e-03 0.0000000000000000e+00  2.3806933313516339e-17 -2.2173812282734640e-03 0.0000000000000000e+00  1.3341736585454140e-16 -2.2173812282735243e-03 0.0000000000000000e+00  2.1079072861717886e-16 -2.2173812282734544e-03 0.0000000000000000e+00  2.5863680875578174e-16 -2.2173812282734419e-03 0.0000000000000000e+00  2.6426278054612285e-16 -2.2173812282734393e-03 0.0000000000000000e+00  1.9778186203238908e-16 -2.2173812282733920e-03 0.0000000000000000e+00  1.7015866303218623e-16 -2.2173812282733078e-03 0.0000000000000000e+00  9.0800234388899111e-17 -2.2173812282732471e-03 0.0000000000000000e+00  -1.0467318949871124e-33 -2.2173812282732948e-03 0.0000000000000000e+00  -2.8211864419734999e-33 -2.4945538818075307e-03 0.0000000000000000e+00  -2.8813169236125539e-17 -2.4945538818075602e-03 0.0000000000000000e+00  2.1204219332681282e-17 -2.4945538818076513e-03 0.0000000000000000e+00  1.4343015738848605e-16 -2.4945538818077198e-03 0.0000000000000000e+00  2.2825718458121618e-16 -2.4945538818076465e-03 0.0000000000000000e+00  2.7753308781182496e-16 -2.4945538818076222e-03 0.0000000000000000e+00  2.8636506093289311e-16 -2.4945538818076426e-03 0.0000000000000000e+00  2.1853320225907100e-16 -2.4945538818075745e-03 0.0000000000000000e+00  1.8775712565579476e-16 -2.4945538818074661e-03 0.0000000000000000e+00  9.4595181680555848e-17 -2.4945538818074010e-03 0.0000000000000000e+00  -1.6943041620283589e-32 -2.4945538818074505e-03 0.0000000000000000e+00  5.0923542236650927e-33 -2.7717265353417011e-03 0.0000000000000000e+00  -3.5358354065860896e-17 -2.7717265353417405e-03 0.0000000000000000e+00  1.5998791371011334e-17 -2.7717265353418524e-03 0.0000000000000000e+00  1.5164371584552245e-16 -2.7717265353419166e-03 0.0000000000000000e+00  2.4646266995434993e-16 -2.7717265353418411e-03 0.0000000000000000e+00  2.9243012133964579e-16 -2.7717265353418077e-03 0.0000000000000000e+00  3.0283020671718236e-16 -2.7717265353418476e-03 0.0000000000000000e+00  2.4232880863723589e-16 -2.7717265353417609e-03 0.0000000000000000e+00  2.0595575662008056e-16 -2.7717265353416182e-03 0.0000000000000000e+00  9.5963909265617924e-17 -2.7717265353415623e-03 0.0000000000000000e+00  6.3678208261687287e-33 -2.7717265353416043e-03 0.0000000000000000e+00  1.1284745767893952e-33 -3.0488991888758784e-03 0.0000000000000000e+00  -4.5300345786110884e-17 -3.0488991888759230e-03 0.0000000000000000e+00  8.2488570894195841e-18 -3.0488991888760674e-03 0.0000000000000000e+00  1.6022481070219851e-16 -3.0488991888761130e-03 0.0000000000000000e+00  2.6447690158448223e-16 -3.0488991888760371e-03 0.0000000000000000e+00  3.0594440585960831e-16 -3.0488991888759920e-03 0.0000000000000000e+00  3.1463735337646953e-16 -3.0488991888760458e-03 0.0000000000000000e+00  2.6728644216094891e-16 -3.0488991888759504e-03 0.0000000000000000e+00  2.2617833954860128e-16 -3.0488991888757860e-03 0.0000000000000000e+00  9.6020403117409957e-17 -3.0488991888757101e-03 0.0000000000000000e+00  -2.5954915266156086e-32 -3.0488991888757578e-03 0.0000000000000000e+00  2.7584138538860763e-33 -3.3260718424100548e-03 0.0000000000000000e+00  -5.9811303215060198e-17 -3.3260718424101151e-03 0.0000000000000000e+00  4.6566128730594913e-19 -3.3260718424102877e-03 0.0000000000000000e+00  1.7255717177724268e-16 -3.3260718424103037e-03 0.0000000000000000e+00  2.8152550969696488e-16 -3.3260718424102300e-03 0.0000000000000000e+00  3.1693733900424037e-16 -3.3260718424101793e-03 0.0000000000000000e+00  3.2205509198360056e-16 -3.3260718424102404e-03 0.0000000000000000e+00  2.9179687044884563e-16 -3.3260718424101311e-03 0.0000000000000000e+00  2.4567374826447201e-16 -3.3260718424099568e-03 0.0000000000000000e+00  9.8459096646318299e-17 -3.3260718424098687e-03 0.0000000000000000e+00  1.6423385421257464e-32 -3.3260718424099078e-03 0.0000000000000000e+00  -7.8993220375257666e-33 -3.6032444959442321e-03 0.0000000000000000e+00  -7.8842693685621183e-17 -3.6032444959443093e-03 0.0000000000000000e+00  -6.5525195428050611e-18 -3.6032444959444979e-03 0.0000000000000000e+00  1.8773496635280671e-16 -3.6032444959444945e-03 0.0000000000000000e+00  2.9692888933372589e-16 -3.6032444959444155e-03 0.0000000000000000e+00  3.2481537865615692e-16 -3.6032444959443817e-03 0.0000000000000000e+00  3.2857237134135157e-16 -3.6032444959444277e-03 0.0000000000000000e+00  3.1404465516849839e-16 -3.6032444959442959e-03 0.0000000000000000e+00  2.6518386115472927e-16 -3.6032444959441376e-03 0.0000000000000000e+00  1.0256552057516255e-16 -3.6032444959440309e-03 0.0000000000000000e+00  -4.0343666996986133e-32 -3.6032444959440656e-03 0.0000000000000000e+00  -4.5437950021506934e-33 -3.8804171494784133e-03 0.0000000000000000e+00  -9.9218531355931835e-17 -3.8804171494785092e-03 0.0000000000000000e+00  -1.4359797463094480e-17 -3.8804171494786952e-03 0.0000000000000000e+00  2.0623969888700855e-16 -3.8804171494786735e-03 0.0000000000000000e+00  3.0688494940526452e-16 -3.8804171494786020e-03 0.0000000000000000e+00  3.2690263327002425e-16 -3.8804171494785842e-03 0.0000000000000000e+00  3.3846923283037741e-16 -3.8804171494786002e-03 0.0000000000000000e+00  3.3259046605685851e-16 -3.8804171494784654e-03 0.0000000000000000e+00  2.8382062620595319e-16 -3.8804171494783123e-03 0.0000000000000000e+00  1.0860154441819941e-16 -3.8804171494781882e-03 0.0000000000000000e+00  6.8514527876498973e-33 -3.8804171494782221e-03 0.0000000000000000e+00  9.0277966143151612e-33 -4.1575898030125980e-03 0.0000000000000000e+00  -1.1879189388546678e-16 -4.1575898030127038e-03 0.0000000000000000e+00  -2.2081491936445213e-17 -4.1575898030128721e-03 0.0000000000000000e+00  2.2213134203552454e-16 -4.1575898030128461e-03 0.0000000000000000e+00  3.1240490124451975e-16 -4.1575898030127905e-03 0.0000000000000000e+00  3.3034130711254344e-16 -4.1575898030127836e-03 0.0000000000000000e+00  3.4970331138663341e-16 -4.1575898030127619e-03 0.0000000000000000e+00  3.4704612026568958e-16 -4.1575898030126370e-03 0.0000000000000000e+00  2.9908759253250293e-16 -4.1575898030124852e-03 0.0000000000000000e+00  1.1520864330140155e-16 -4.1575898030123534e-03 0.0000000000000000e+00  -1.1284745767893950e-33 -4.1575898030123898e-03 0.0000000000000000e+00  -5.7999588286638167e-33 -4.4347624565467848e-03 0.0000000000000000e+00  -1.3331610736566049e-16 -4.4347624565469167e-03 0.0000000000000000e+00  -2.6842047061135475e-17 -4.4347624565470329e-03 0.0000000000000000e+00  2.3054582085986641e-16 -4.4347624565470251e-03 0.0000000000000000e+00  3.1285538028007571e-16 -4.4347624565469999e-03 0.0000000000000000e+00  3.3646267084687651e-16 -4.4347624565469835e-03 0.0000000000000000e+00  3.6202803950224656e-16 -4.4347624565469158e-03 0.0000000000000000e+00  3.5945788100831132e-16 -4.4347624565467970e-03 0.0000000000000000e+00  3.1185689814534553e-16 -4.4347624565466521e-03 0.0000000000000000e+00  1.1981399739337706e-16 -4.4347624565465246e-03 0.0000000000000000e+00  -1.0958738206610438e-33 -4.4347624565465689e-03 0.0000000000000000e+00  2.2569491535787999e-33 -4.7119351100809717e-03 0.0000000000000000e+00  -1.4272258965286083e-16 -4.7119351100811365e-03 0.0000000000000000e+00  -2.6916885482309519e-17 -4.7119351100812189e-03 0.0000000000000000e+00  2.3159907455993949e-16 -4.7119351100812197e-03 0.0000000000000000e+00  3.1049505975725914e-16 -4.7119351100811998e-03 0.0000000000000000e+00  3.4838116594588815e-16 -4.7119351100811703e-03 0.0000000000000000e+00  3.7669087760005044e-16 -4.7119351100810532e-03 0.0000000000000000e+00  3.6433975419151684e-16 -4.7119351100809465e-03 0.0000000000000000e+00  3.2040406949694443e-16 -4.7119351100808225e-03 0.0000000000000000e+00  1.2273335978882281e-16 -4.7119351100807071e-03 0.0000000000000000e+00  1.5342233489254607e-32 -4.7119351100807540e-03 0.0000000000000000e+00  -2.3246538309072926e-33 -4.9891077636151655e-03 0.0000000000000000e+00  -1.5333247750859098e-16 -4.9891077636153450e-03 0.0000000000000000e+00  -2.0821711846680028e-17 -4.9891077636154144e-03 0.0000000000000000e+00  2.2889480958032869e-16 -4.9891077636154135e-03 0.0000000000000000e+00  3.0760254178609774e-16 -4.9891077636154031e-03 0.0000000000000000e+00  3.6525491565332264e-16 -4.9891077636153441e-03 0.0000000000000000e+00  3.9312063859002202e-16 -4.9891077636151984e-03 0.0000000000000000e+00  3.6283944180049632e-16 -4.9891077636150761e-03 0.0000000000000000e+00  3.2598948799861792e-16 -4.9891077636149729e-03 0.0000000000000000e+00  1.2150582245624979e-16 -4.9891077636148749e-03 0.0000000000000000e+00  -7.1738740953040206e-33 -4.9891077636149495e-03 0.0000000000000000e+00  -2.0312542382209112e-32 -5.2662804171493705e-03 0.0000000000000000e+00  -1.6431317385898552e-16 -5.2662804171495414e-03 0.0000000000000000e+00  -1.3038516044566443e-17 -5.2662804171496238e-03 0.0000000000000000e+00  2.2539722830745937e-16 -5.2662804171496090e-03 0.0000000000000000e+00  3.0281288283095058e-16 -5.2662804171495917e-03 0.0000000000000000e+00  3.8806487516073287e-16 -5.2662804171495119e-03 0.0000000000000000e+00  4.0959485906353940e-16 -5.2662804171493523e-03 0.0000000000000000e+00  3.6024729139085770e-16 -5.2662804171492057e-03 0.0000000000000000e+00  3.2516462462163593e-16 -5.2662804171491199e-03 0.0000000000000000e+00  1.1035389217296298e-16 -5.2662804171490418e-03 0.0000000000000000e+00  5.6423728839469746e-33 -5.2662804171491381e-03 0.0000000000000000e+00  -1.3134707401728678e-32 -5.5434530706835851e-03 0.0000000000000000e+00  -1.7335380080771520e-16 -5.5434530706837204e-03 0.0000000000000000e+00  -7.6501497200261705e-18 -5.5434530706838375e-03 0.0000000000000000e+00  2.2460599323107245e-16 -5.5434530706838132e-03 0.0000000000000000e+00  2.9918010113645362e-16 -5.5434530706837768e-03 0.0000000000000000e+00  4.1037147788327964e-16 -5.5434530706836736e-03 0.0000000000000000e+00  4.2827333320916865e-16 -5.5434530706835114e-03 0.0000000000000000e+00  3.5368990285735710e-16 -5.5434530706833440e-03 0.0000000000000000e+00  3.1740949322746125e-16 -5.5434530706832677e-03 0.0000000000000000e+00  9.7840953430728151e-17 -5.5434530706832035e-03 0.0000000000000000e+00  3.2203399118342877e-33 -5.5434530706833171e-03 0.0000000000000000e+00  -3.8368135610839497e-32 -5.8206257242178032e-03 0.0000000000000000e+00  -1.8079984356645206e-16 -5.8206257242179021e-03 0.0000000000000000e+00  -5.7209815297587373e-18 -5.8206257242180521e-03 0.0000000000000000e+00  2.2773694543208785e-16 -5.8206257242180313e-03 0.0000000000000000e+00  2.9589032887233976e-16 -5.8206257242179637e-03 0.0000000000000000e+00  4.3382183015106714e-16 -5.8206257242178396e-03 0.0000000000000000e+00  4.5040672245660837e-16 -5.8206257242176870e-03 0.0000000000000000e+00  3.4154092125778882e-16 -5.8206257242175040e-03 0.0000000000000000e+00  3.0799151318087169e-16 -5.8206257242174372e-03 0.0000000000000000e+00  8.2921813200160035e-17 -5.8206257242173851e-03 0.0000000000000000e+00  -1.3487470615576848e-32 -5.8206257242174883e-03 0.0000000000000000e+00  -2.0271839249758326e-32 -6.0977983777520221e-03 0.0000000000000000e+00  -1.8621739101928705e-16 -6.0977983777520967e-03 0.0000000000000000e+00  -8.5044151190273882e-18 -6.0977983777522615e-03 0.0000000000000000e+00  2.3614269182824598e-16 -6.0977983777522390e-03 0.0000000000000000e+00  2.9751398091939362e-16 -6.0977983777521340e-03 0.0000000000000000e+00  4.5145747989658537e-16 -6.0977983777520030e-03 0.0000000000000000e+00  4.6785654766038637e-16 -6.0977983777518695e-03 0.0000000000000000e+00  3.3238810172510357e-16 -6.0977983777517038e-03 0.0000000000000000e+00  2.9812331755654865e-16 -6.0977983777516015e-03 0.0000000000000000e+00  6.8354343428241680e-17 -6.0977983777515520e-03 0.0000000000000000e+00  1.8458619863197962e-32 -6.0977983777516570e-03 0.0000000000000000e+00  -4.0625084764418223e-32 -6.3749710312862341e-03 0.0000000000000000e+00  -1.9280484666710524e-16 -6.3749710312862966e-03 0.0000000000000000e+00  -1.3703746455003493e-17 -6.3749710312864796e-03 0.0000000000000000e+00  2.4540536865188431e-16 -6.3749710312864718e-03 0.0000000000000000e+00  3.0610514864744142e-16 -6.3749710312862974e-03 0.0000000000000000e+00  4.6796108126747200e-16 -6.3749710312861847e-03 0.0000000000000000e+00  4.7874826642533287e-16 -6.3749710312860728e-03 0.0000000000000000e+00  3.2304721435843905e-16 -6.3749710312859123e-03 0.0000000000000000e+00  2.8764562947298555e-16 -6.3749710312857762e-03 0.0000000000000000e+00  5.0510100273643455e-17 -6.3749710312857180e-03 0.0000000000000000e+00  -5.6423728839469746e-33 -6.3749710312858325e-03 0.0000000000000000e+00  7.8964076954523778e-33 -6.6521436848204531e-03 0.0000000000000000e+00  -1.9836432484631184e-16 -6.6521436848205008e-03 0.0000000000000000e+00  -2.4064710097560751e-17 -6.6521436848206959e-03 0.0000000000000000e+00  2.5860793707713274e-16 -6.6521436848207003e-03 0.0000000000000000e+00  3.1891145876352746e-16 -6.6521436848204591e-03 0.0000000000000000e+00  4.8315273183442501e-16 -6.6521436848203785e-03 0.0000000000000000e+00  4.8487897225598480e-16 -6.6521436848202770e-03 0.0000000000000000e+00  3.1427155606681071e-16 -6.6521436848201356e-03 0.0000000000000000e+00  2.7641778745182754e-16 -6.6521436848199474e-03 0.0000000000000000e+00  3.3577055464789519e-17 -6.6521436848198928e-03 0.0000000000000000e+00  4.1644472622848053e-33 -6.6521436848199960e-03 0.0000000000000000e+00  -4.5138983071575807e-32 -6.9293163383546642e-03 0.0000000000000000e+00  -2.0487855991940580e-16 -6.9293163383547154e-03 0.0000000000000000e+00  -3.3733271725142890e-17 -6.9293163383549027e-03 0.0000000000000000e+00  2.7158970314182812e-16 -6.9293163383549019e-03 0.0000000000000000e+00  3.32