<?xml version="1.0"?>
<VTKFile type="UnstructuredGrid"  version="0.1"  >
<UnstructuredGrid>
<Piece  NumberOfPoints="1661" NumberOfCells="3200">
<Points>
<DataArray  type="Float64"  NumberOfComponents="3"  format="ascii">-0.25 -1 0  -0.225 -1 0  -0.2 -1 0  -0.175 -1 0  -0.15 -1 0  -0.125 -1 0  -0.1 -1 0  -0.07500000000000001 -1 0  -0.04999999999999999 -1 0  -0.02499999999999999 -1 0  0 -1 0  0.02500000000000002 -1 0  0.04999999999999999 -1 0  0.07500000000000001 -1 0  0.09999999999999998 -1 0  0.125 -1 0  0.15 -1 0  0.175 -1 0  0.2 -1 0  0.225 -1 0  0.25 -1 0  -0.25 -0.975 0  -0.225 -0.975 0  -0.2 -0.975 0  -0.175 -0.975 0  -0.15 -0.975 0  -0.125 -0.975 0  -0.1 -0.975 0  -0.07500000000000001 -0.975 0  -0.04999999999999999 -0.975 0  -0.02499999999999999 -0.975 0  0 -0.975 0  0.02500000000000002 -0.975 0  0.04999999999999999 -0.975 0  0.07500000000000001 -0.975 0  0.09999999999999998 -0.975 0  0.125 -0.975 0  0.15 -0.975 0  0.175 -0.975 0  0.2 -0.975 0  0.225 -0.975 0  0.25 -0.975 0  -0.25 -0.95 0  -0.225 -0.95 0  -0.2 -0.95 0  -0.175 -0.95 0  -0.15 -0.95 0  -0.125 -0.95 0  -0.1 -0.95 0  -0.07500000000000001 -0.95 0  -0.04999999999999999 -0.95 0  -0.02499999999999999 -0.95 0  0 -0.95 0  0.02500000000000002 -0.95 0  0.04999999999999999 -0.95 0  0.07500000000000001 -0.95 0  0.09999999999999998 -0.95 0  0.125 -0.95 0  0.15 -0.95 0  0.175 -0.95 0  0.2 -0.95 0  0.225 -0.95 0  0.25 -0.95 0  -0.25 -0.925 0  -0.225 -0.925 0  -0.2 -0.925 0  -0.175 -0.925 0  -0.15 -0.925 0  -0.125 -0.925 0  -0.1 -0.925 0  -0.07500000000000001 -0.925 0  -0.04999999999999999 -0.925 0  -0.02499999999999999 -0.925 0  0 -0.925 0  0.02500000000000002 -0.925 0  0.04999999999999999 -0.925 0  0.07500000000000001 -0.925 0  0.09999999999999998 -0.925 0  0.125 -0.925 0  0.15 -0.925 0  0.175 -0.925 0  0.2 -0.925 0  0.225 -0.925 0  0.25 -0.925 0  -0.25 -0.9 0  -0.225 -0.9 0  -0.2 -0.9 0  -0.175 -0.9 0  -0.15 -0.9 0  -0.125 -0.9 0  -0.1 -0.9 0  -0.07500000000000001 -0.9 0  -0.04999999999999999 -0.9 0  -0.02499999999999999 -0.9 0  0 -0.9 0  0.02500000000000002 -0.9 0  0.04999999999999999 -0.9 0  0.07500000000000001 -0.9 0  0.09999999999999998 -0.9 0  0.125 -0.9 0  0.15 -0.9 0  0.175 -0.9 0  0.2 -0.9 0  0.225 -0.9 0  0.25 -0.9 0  -0.25 -0.875 0  -0.225 -0.875 0  -0.2 -0.875 0  -0.175 -0.875 0  -0.15 -0.875 0  -0.125 -0.875 0  -0.1 -0.875 0  -0.07500000000000001 -0.875 0  -0.04999999999999999 -0.875 0  -0.02499999999999999 -0.875 0  0 -0.875 0  0.02500000000000002 -0.875 0  0.04999999999999999 -0.875 0  0.07500000000000001 -0.875 0  0.09999999999999998 -0.875 0  0.125 -0.875 0  0.15 -0.875 0  0.175 -0.875 0  0.2 -0.875 0  0.225 -0.875 0  0.25 -0.875 0  -0.25 -0.85 0  -0.225 -0.85 0  -0.2 -0.85 0  -0.175 -0.85 0  -0.15 -0.85 0  -0.125 -0.85 0  -0.1 -0.85 0  -0.07500000000000001 -0.85 0  -0.04999999999999999 -0.85 0  -0.02499999999999999 -0.85 0  0 -0.85 0  0.02500000000000002 -0.85 0  0.04999999999999999 -0.85 0  0.07500000000000001 -0.85 0  0.09999999999999998 -0.85 0  0.125 -0.85 0  0.15 -0.85 0  0.175 -0.85 0  0.2 -0.85 0  0.225 -0.85 0  0.25 -0.85 0  -0.25 -0.825 0  -0.225 -0.825 0  -0.2 -0.825 0  -0.175 -0.825 0  -0.15 -0.825 0  -0.125 -0.825 0  -0.1 -0.825 0  -0.07500000000000001 -0.825 0  -0.04999999999999999 -0.825 0  -0.02499999999999999 -0.825 0  0 -0.825 0  0.02500000000000002 -0.825 0  0.04999999999999999 -0.825 0  0.07500000000000001 -0.825 0  0.09999999999999998 -0.825 0  0.125 -0.825 0  0.15 -0.825 0  0.175 -0.825 0  0.2 -0.825 0  0.225 -0.825 0  0.25 -0.825 0  -0.25 -0.8 0  -0.225 -0.8 0  -0.2 -0.8 0  -0.175 -0.8 0  -0.15 -0.8 0  -0.125 -0.8 0  -0.1 -0.8 0  -0.07500000000000001 -0.8 0  -0.04999999999999999 -0.8 0  -0.02499999999999999 -0.8 0  0 -0.8 0  0.02500000000000002 -0.8 0  0.04999999999999999 -0.8 0  0.07500000000000001 -0.8 0  0.09999999999999998 -0.8 0  0.125 -0.8 0  0.15 -0.8 0  0.175 -0.8 0  0.2 -0.8 0  0.225 -0.8 0  0.25 -0.8 0  -0.25 -0.775 0  -0.225 -0.775 0  -0.2 -0.775 0  -0.175 -0.775 0  -0.15 -0.775 0  -0.125 -0.775 0  -0.1 -0.775 0  -0.07500000000000001 -0.775 0  -0.04999999999999999 -0.775 0  -0.02499999999999999 -0.775 0  0 -0.775 0  0.02500000000000002 -0.775 0  0.04999999999999999 -0.775 0  0.07500000000000001 -0.775 0  0.09999999999999998 -0.775 0  0.125 -0.775 0  0.15 -0.775 0  0.175 -0.775 0  0.2 -0.775 0  0.225 -0.775 0  0.25 -0.775 0  -0.25 -0.75 0  -0.225 -0.75 0  -0.2 -0.75 0  -0.175 -0.75 0  -0.15 -0.75 0  -0.125 -0.75 0  -0.1 -0.75 0  -0.07500000000000001 -0.75 0  -0.04999999999999999 -0.75 0  -0.02499999999999999 -0.75 0  0 -0.75 0  0.02500000000000002 -0.75 0  0.04999999999999999 -0.75 0  0.07500000000000001 -0.75 0  0.09999999999999998 -0.75 0  0.125 -0.75 0  0.15 -0.75 0  0.175 -0.75 0  0.2 -0.75 0  0.225 -0.75 0  0.25 -0.75 0  -0.25 -0.725 0  -0.225 -0.725 0  -0.2 -0.725 0  -0.175 -0.725 0  -0.15 -0.725 0  -0.125 -0.725 0  -0.1 -0.725 0  -0.07500000000000001 -0.725 0  -0.04999999999999999 -0.725 0  -0.02499999999999999 -0.725 0  0 -0.725 0  0.02500000000000002 -0.725 0  0.04999999999999999 -0.725 0  0.07500000000000001 -0.725 0  0.09999999999999998 -0.725 0  0.125 -0.725 0  0.15 -0.725 0  0.175 -0.725 0  0.2 -0.725 0  0.225 -0.725 0  0.25 -0.725 0  -0.25 -0.7 0  -0.225 -0.7 0  -0.2 -0.7 0  -0.175 -0.7 0  -0.15 -0.7 0  -0.125 -0.7 0  -0.1 -0.7 0  -0.07500000000000001 -0.7 0  -0.04999999999999999 -0.7 0  -0.02499999999999999 -0.7 0  0 -0.7 0  0.02500000000000002 -0.7 0  0.04999999999999999 -0.7 0  0.07500000000000001 -0.7 0  0.09999999999999998 -0.7 0  0.125 -0.7 0  0.15 -0.7 0  0.175 -0.7 0  0.2 -0.7 0  0.225 -0.7 0  0.25 -0.7 0  -0.25 -0.675 0  -0.225 -0.675 0  -0.2 -0.675 0  -0.175 -0.675 0  -0.15 -0.675 0  -0.125 -0.675 0  -0.1 -0.675 0  -0.07500000000000001 -0.675 0  -0.04999999999999999 -0.675 0  -0.02499999999999999 -0.675 0  0 -0.675 0  0.02500000000000002 -0.675 0  0.04999999999999999 -0.675 0  0.07500000000000001 -0.675 0  0.09999999999999998 -0.675 0  0.125 -0.675 0  0.15 -0.675 0  0.175 -0.675 0  0.2 -0.675 0  0.225 -0.675 0  0.25 -0.675 0  -0.25 -0.65 0  -0.225 -0.65 0  -0.2 -0.65 0  -0.175 -0.65 0  -0.15 -0.65 0  -0.125 -0.65 0  -0.1 -0.65 0  -0.07500000000000001 -0.65 0  -0.04999999999999999 -0.65 0  -0.02499999999999999 -0.65 0  0 -0.65 0  0.02500000000000002 -0.65 0  0.04999999999999999 -0.65 0  0.07500000000000001 -0.65 0  0.09999999999999998 -0.65 0  0.125 -0.65 0  0.15 -0.65 0  0.175 -0.65 0  0.2 -0.65 0  0.225 -0.65 0  0.25 -0.65 0  -0.25 -0.625 0  -0.225 -0.625 0  -0.2 -0.625 0  -0.175 -0.625 0  -0.15 -0.625 0  -0.125 -0.625 0  -0.1 -0.625 0  -0.07500000000000001 -0.625 0  -0.04999999999999999 -0.625 0  -0.02499999999999999 -0.625 0  0 -0.625 0  0.02500000000000002 -0.625 0  0.04999999999999999 -0.625 0  0.07500000000000001 -0.625 0  0.09999999999999998 -0.625 0  0.125 -0.625 0  0.15 -0.625 0  0.175 -0.625 0  0.2 -0.625 0  0.225 -0.625 0  0.25 -0.625 0  -0.25 -0.6 0  -0.225 -0.6 0  -0.2 -0.6 0  -0.175 -0.6 0  -0.15 -0.6 0  -0.125 -0.6 0  -0.1 -0.6 0  -0.07500000000000001 -0.6 0  -0.04999999999999999 -0.6 0  -0.02499999999999999 -0.6 0  0 -0.6 0  0.02500000000000002 -0.6 0  0.04999999999999999 -0.6 0  0.07500000000000001 -0.6 0  0.09999999999999998 -0.6 0  0.125 -0.6 0  0.15 -0.6 0  0.175 -0.6 0  0.2 -0.6 0  0.225 -0.6 0  0.25 -0.6 0  -0.25 -0.575 0  -0.225 -0.575 0  -0.2 -0.575 0  -0.175 -0.575 0  -0.15 -0.575 0  -0.125 -0.575 0  -0.1 -0.575 0  -0.07500000000000001 -0.575 0  -0.04999999999999999 -0.575 0  -0.02499999999999999 -0.575 0  0 -0.575 0  0.02500000000000002 -0.575 0  0.04999999999999999 -0.575 0  0.07500000000000001 -0.575 0  0.09999999999999998 -0.575 0  0.125 -0.575 0  0.15 -0.575 0  0.175 -0.575 0  0.2 -0.575 0  0.225 -0.575 0  0.25 -0.575 0  -0.25 -0.55 0  -0.225 -0.55 0  -0.2 -0.55 0  -0.175 -0.55 0  -0.15 -0.55 0  -0.125 -0.55 0  -0.1 -0.55 0  -0.07500000000000001 -0.55 0  -0.04999999999999999 -0.55 0  -0.02499999999999999 -0.55 0  0 -0.55 0  0.02500000000000002 -0.55 0  0.04999999999999999 -0.55 0  0.07500000000000001 -0.55 0  0.09999999999999998 -0.55 0  0.125 -0.55 0  0.15 -0.55 0  0.175 -0.55 0  0.2 -0.55 0  0.225 -0.55 0  0.25 -0.55 0  -0.25 -0.525 0  -0.225 -0.525 0  -0.2 -0.525 0  -0.175 -0.525 0  -0.15 -0.525 0  -0.125 -0.525 0  -0.1 -0.525 0  -0.07500000000000001 -0.525 0  -0.04999999999999999 -0.525 0  -0.02499999999999999 -0.525 0  0 -0.525 0  0.02500000000000002 -0.525 0  0.04999999999999999 -0.525 0  0.07500000000000001 -0.525 0  0.09999999999999998 -0.525 0  0.125 -0.525 0  0.15 -0.525 0  0.175 -0.525 0  0.2 -0.525 0  0.225 -0.525 0  0.25 -0.525 0  -0.25 -0.5 0  -0.225 -0.5 0  -0.2 -0.5 0  -0.175 -0.5 0  -0.15 -0.5 0  -0.125 -0.5 0  -0.1 -0.5 0  -0.07500000000000001 -0.5 0  -0.04999999999999999 -0.5 0  -0.02499999999999999 -0.5 0  0 -0.5 0  0.02500000000000002 -0.5 0  0.04999999999999999 -0.5 0  0.07500000000000001 -0.5 0  0.09999999999999998 -0.5 0  0.125 -0.5 0  0.15 -0.5 0  0.175 -0.5 0  0.2 -0.5 0  0.225 -0.5 0  0.25 -0.5 0  -0.25 -0.475 0  -0.225 -0.475 0  -0.2 -0.475 0  -0.175 -0.475 0  -0.15 -0.475 0  -0.125 -0.475 0  -0.1 -0.475 0  -0.07500000000000001 -0.475 0  -0.04999999999999999 -0.475 0  -0.02499999999999999 -0.475 0  0 -0.475 0  0.02500000000000002 -0.475 0  0.04999999999999999 -0.475 0  0.07500000000000001 -0.475 0  0.09999999999999998 -0.475 0  0.125 -0.475 0  0.15 -0.475 0  0.175 -0.475 0  0.2 -0.475 0  0.225 -0.475 0  0.25 -0.475 0  -0.25 -0.45 0  -0.225 -0.45 0  -0.2 -0.45 0  -0.175 -0.45 0  -0.15 -0.45 0  -0.125 -0.45 0  -0.1 -0.45 0  -0.07500000000000001 -0.45 0  -0.04999999999999999 -0.45 0  -0.02499999999999999 -0.45 0  0 -0.45 0  0.02500000000000002 -0.45 0  0.04999999999999999 -0.45 0  0.07500000000000001 -0.45 0  0.09999999999999998 -0.45 0  0.125 -0.45 0  0.15 -0.45 0  0.175 -0.45 0  0.2 -0.45 0  0.225 -0.45 0  0.25 -0.45 0  -0.25 -0.425 0  -0.225 -0.425 0  -0.2 -0.425 0  -0.175 -0.425 0  -0.15 -0.425 0  -0.125 -0.425 0  -0.1 -0.425 0  -0.07500000000000001 -0.425 0  -0.04999999999999999 -0.425 0  -0.02499999999999999 -0.425 0  0 -0.425 0  0.02500000000000002 -0.425 0  0.04999999999999999 -0.425 0  0.07500000000000001 -0.425 0  0.
[...]
<PointData  Vectors="displacement"> 
<DataArray  type="Float64"  Name="displacement"  NumberOfComponents="3" format="ascii">-9.9305762757466958e-33 2.0328790734103231e-18 0.0000000000000000e+00  1.8055593228630363e-33 1.0164395367051619e-18 0.0000000000000000e+00  1.7519567804655395e-32 1.8363409598677237e-18 0.0000000000000000e+00  6.1389016977343219e-32 2.7952087259391950e-18 0.0000000000000000e+00  -3.6771275941205896e-32 -3.0487912524950164e-18 0.0000000000000000e+00  1.1555579666323430e-31 5.0821976835258088e-19 0.0000000000000000e+00  -1.2805735988536244e-31 1.0230737837117787e-19 0.0000000000000000e+00  2.2388935603501647e-31 4.3198680309969371e-18 0.0000000000000000e+00  1.4463163848238214e-32 -2.0364837768003022e-18 0.0000000000000000e+00  -1.4444474582904294e-32 2.5410988417629054e-19 0.0000000000000000e+00  3.6257174747819201e-33 -6.9931245765583996e-19 0.0000000000000000e+00  1.5166698312049513e-31 3.8116482626443592e-18 0.0000000000000000e+00  -7.1810284865461579e-32 -3.0637224168181858e-18 0.0000000000000000e+00  -4.3333423748712850e-32 2.5410988417629033e-18 0.0000000000000000e+00  7.9945081517611040e-32 -2.7943385003240007e-18 0.0000000000000000e+00  2.1666711874356412e-32 2.5410988417629020e-19 0.0000000000000000e+00  7.6343362906900089e-33 3.2890243048450307e-18 0.0000000000000000e+00  6.5000135623069287e-32 -1.5246593050577423e-18 0.0000000000000000e+00  -1.4646564907018907e-32 1.3499587596865425e-18 0.0000000000000000e+00  3.9722305102986822e-32 5.0821976835258126e-19 0.0000000000000000e+00  -1.0833355937178207e-32 -5.0821976835258049e-19 0.0000000000000000e+00  1.0833355937178189e-32 -1.8286853960700376e-02 0.0000000000000000e+00  -9.1481827738533148e-17 -1.8286853960700372e-02 0.0000000000000000e+00  -1.8194735606458353e-16 -1.8286853960700362e-02 0.0000000000000000e+00  -2.8396248320726368e-16 -1.8286853960700390e-02 0.0000000000000000e+00  -3.8635988997698947e-16 -1.8286853960700400e-02 0.0000000000000000e+00  -4.8047511491116328e-16 -1.8286853960700455e-02 0.0000000000000000e+00  -5.7382705255076728e-16 -1.8286853960700483e-02 0.0000000000000000e+00  -6.5457967891644338e-16 -1.8286853960700542e-02 0.0000000000000000e+00  -7.2724989321854338e-16 -1.8286853960700605e-02 0.0000000000000000e+00  -7.7581910411409818e-16 -1.8286853960700702e-02 0.0000000000000000e+00  -8.0224300652854328e-16 -1.8286853960700785e-02 0.0000000000000000e+00  -8.0808050749183816e-16 -1.8286853960700893e-02 0.0000000000000000e+00  -7.7191302063641452e-16 -1.8286853960700969e-02 0.0000000000000000e+00  -7.1449782250963374e-16 -1.8286853960701052e-02 0.0000000000000000e+00  -6.3534477879517157e-16 -1.8286853960701111e-02 0.0000000000000000e+00  -5.4727637123603150e-16 -1.8286853960701153e-02 0.0000000000000000e+00  -4.5552077836096695e-16 -1.8286853960701222e-02 0.0000000000000000e+00  -3.5484260486227252e-16 -1.8286853960701243e-02 0.0000000000000000e+00  -2.4654699307098179e-16 -1.8286853960701271e-02 0.0000000000000000e+00  -1.2566026636092687e-16 -1.8286853960701295e-02 0.0000000000000000e+00  3.3952978829150892e-32 -1.8286853960701316e-02 0.0000000000000000e+00  1.0899852124731281e-32 -3.6574146714824035e-02 0.0000000000000000e+00  -1.7380045952437855e-16 -3.6574146714824056e-02 0.0000000000000000e+00  -3.4980515263769917e-16 -3.6574146714824049e-02 0.0000000000000000e+00  -5.2803781205644106e-16 -3.6574146714824028e-02 0.0000000000000000e+00  -7.1442738159439777e-16 -3.6574146714824146e-02 0.0000000000000000e+00  -8.8242603106261738e-16 -3.6574146714824181e-02 0.0000000000000000e+00  -1.0365894732393522e-15 -3.6574146714824299e-02 0.0000000000000000e+00  -1.1802411592047365e-15 -3.6574146714824403e-02 0.0000000000000000e+00  -1.3026905292329765e-15 -3.6574146714824556e-02 0.0000000000000000e+00  -1.3986507064942369e-15 -3.6574146714824743e-02 0.0000000000000000e+00  -1.4572513983474959e-15 -3.6574146714824909e-02 0.0000000000000000e+00  -1.4471128391664389e-15 -3.6574146714825125e-02 0.0000000000000000e+00  -1.3887599509161301e-15 -3.6574146714825305e-02 0.0000000000000000e+00  -1.2857114831764946e-15 -3.6574146714825527e-02 0.0000000000000000e+00  -1.1521558813037425e-15 -3.6574146714825659e-02 0.0000000000000000e+00  -9.9774629801468477e-16 -3.6574146714825728e-02 0.0000000000000000e+00  -8.2830436239265405e-16 -3.6574146714825825e-02 0.0000000000000000e+00  -6.4202210058175498e-16 -3.6574146714825902e-02 0.0000000000000000e+00  -4.3681835188434856e-16 -3.6574146714826006e-02 0.0000000000000000e+00  -2.2083796001146637e-16 -3.6574146714826061e-02 0.0000000000000000e+00  1.0059544798808354e-32 -3.6574146714826068e-02 0.0000000000000000e+00  5.0555661040164941e-32 -5.4862316379206688e-02 0.0000000000000000e+00  -2.4981247309232090e-16 -5.4862316379206660e-02 0.0000000000000000e+00  -4.9591058222822736e-16 -5.4862316379206674e-02 0.0000000000000000e+00  -7.4625950216224241e-16 -5.4862316379206730e-02 0.0000000000000000e+00  -9.8769265660294070e-16 -5.4862316379206771e-02 0.0000000000000000e+00  -1.2205237272351826e-15 -5.4862316379206924e-02 0.0000000000000000e+00  -1.4321080275345898e-15 -5.4862316379207014e-02 0.0000000000000000e+00  -1.6154544893218656e-15 -5.4862316379207257e-02 0.0000000000000000e+00  -1.7745686428146007e-15 -5.4862316379207396e-02 0.0000000000000000e+00  -1.9039498643592632e-15 -5.4862316379207750e-02 0.0000000000000000e+00  -1.9696400905459720e-15 -5.4862316379208013e-02 0.0000000000000000e+00  -1.9556540114442641e-15 -5.4862316379208381e-02 0.0000000000000000e+00  -1.8809389854394562e-15 -5.4862316379208728e-02 0.0000000000000000e+00  -1.7475964092347547e-15 -5.4862316379208992e-02 0.0000000000000000e+00  -1.5775298275198330e-15 -5.4862316379209297e-02 0.0000000000000000e+00  -1.3671407087327467e-15 -5.4862316379209353e-02 0.0000000000000000e+00  -1.1249217744779244e-15 -5.4862316379209540e-02 0.0000000000000000e+00  -8.6729195504255567e-16 -5.4862316379209609e-02 0.0000000000000000e+00  -5.9757647767294807e-16 -5.4862316379209755e-02 0.0000000000000000e+00  -3.0280267354736744e-16 -5.4862316379209880e-02 0.0000000000000000e+00  1.1194467801750804e-31 -5.4862316379209894e-02 0.0000000000000000e+00  1.2852267484715467e-32 -7.3151799718551985e-02 0.0000000000000000e+00  -3.1409574623334221e-16 -7.3151799718552027e-02 0.0000000000000000e+00  -6.1954017131847675e-16 -7.3151799718552027e-02 0.0000000000000000e+00  -9.2720022487704116e-16 -7.3151799718552096e-02 0.0000000000000000e+00  -1.2272147224270813e-15 -7.3151799718552180e-02 0.0000000000000000e+00  -1.4978327920832767e-15 -7.3151799718552415e-02 0.0000000000000000e+00  -1.7382470624061121e-15 -7.3151799718552526e-02 0.0000000000000000e+00  -1.9574873285583972e-15 -7.3151799718552818e-02 0.0000000000000000e+00  -2.1516212394360238e-15 -7.3151799718553109e-02 0.0000000000000000e+00  -2.3001041379312203e-15 -7.3151799718553456e-02 0.0000000000000000e+00  -2.3793503743504719e-15 -7.3151799718553984e-02 0.0000000000000000e+00  -2.3662114052748198e-15 -7.3151799718554483e-02 0.0000000000000000e+00  -2.2748551729648155e-15 -7.3151799718554858e-02 0.0000000000000000e+00  -2.1286092681183910e-15 -7.3151799718555358e-02 0.0000000000000000e+00  -1.9241637011103034e-15 -7.3151799718555510e-02 0.0000000000000000e+00  -1.6519985182493799e-15 -7.3151799718555871e-02 0.0000000000000000e+00  -1.3654951172932968e-15 -7.3151799718555982e-02 0.0000000000000000e+00  -1.0497206866042136e-15 -7.3151799718556190e-02 0.0000000000000000e+00  -7.1551567203975797e-16 -7.3151799718556343e-02 0.0000000000000000e+00  -3.6728386670122348e-16 -7.3151799718556496e-02 0.0000000000000000e+00  2.5155190774641719e-32 -7.3151799718556537e-02 0.0000000000000000e+00  4.6944542394438929e-32 -9.1443031471972108e-02 0.0000000000000000e+00  -3.5666400825275305e-16 -9.1443031471972219e-02 0.0000000000000000e+00  -7.2667145491534612e-16 -9.1443031471972094e-02 0.0000000000000000e+00  -1.0847444837023884e-15 -9.1443031471972247e-02 0.0000000000000000e+00  -1.3993723248794120e-15 -9.1443031471972469e-02 0.0000000000000000e+00  -1.7131025170671971e-15 -9.1443031471972622e-02 0.0000000000000000e+00  -2.0068911283629976e-15 -9.1443031471972941e-02 0.0000000000000000e+00  -2.2534261459924351e-15 -9.1443031471973177e-02 0.0000000000000000e+00  -2.4670295272243805e-15 -9.1443031471973482e-02 0.0000000000000000e+00  -2.6067203402688917e-15 -9.1443031471974051e-02 0.0000000000000000e+00  -2.6860219342568807e-15 -9.1443031471974676e-02 0.0000000000000000e+00  -2.6890166306971735e-15 -9.1443031471975328e-02 0.0000000000000000e+00  -2.5878935978424063e-15 -9.1443031471975939e-02 0.0000000000000000e+00  -2.4315302677214698e-15 -9.1443031471976355e-02 0.0000000000000000e+00  -2.1797685385679250e-15 -9.1443031471976771e-02 0.0000000000000000e+00  -1.8845444703335403e-15 -9.1443031471977118e-02 0.0000000000000000e+00  -1.5736538532633305e-15 -9.1443031471977354e-02 0.0000000000000000e+00  -1.1970039911428096e-15 -9.1443031471977645e-02 0.0000000000000000e+00  -8.1491141044455498e-16 -9.1443031471977770e-02 0.0000000000000000e+00  -4.1613788234876351e-16 -9.1443031471977992e-02 0.0000000000000000e+00  5.2272617476334778e-32 -9.1443031471978076e-02 0.0000000000000000e+00  -1.4532358086933425e-32 -1.0973644368265137e-01 0.0000000000000000e+00  -4.0401948680858417e-16 -1.0973644368265133e-01 0.0000000000000000e+00  -7.8999437388456847e-16 -1.0973644368265130e-01 0.0000000000000000e+00  -1.1814379903831670e-15 -1.0973644368265148e-01 0.0000000000000000e+00  -1.5444238669524949e-15 -1.0973644368265163e-01 0.0000000000000000e+00  -1.8868406078077690e-15 -1.0973644368265192e-01 0.0000000000000000e+00  -2.2305612218565465e-15 -1.0973644368265222e-01 0.0000000000000000e+00  -2.4936494549492643e-15 -1.0973644368265256e-01 0.0000000000000000e+00  -2.7072785865947485e-15 -1.0973644368265309e-01 0.0000000000000000e+00  -2.8521088615996809e-15 -1.0973644368265377e-01 0.0000000000000000e+00  -2.9227922950715259e-15 -1.0973644368265444e-01 0.0000000000000000e+00  -2.9207966790457700e-15 -1.0973644368265528e-01 0.0000000000000000e+00  -2.8236531626380754e-15 -1.0973644368265593e-01 0.0000000000000000e+00  -2.6396080230956060e-15 -1.0973644368265650e-01 0.0000000000000000e+00  -2.3762866995036109e-15 -1.0973644368265729e-01 0.0000000000000000e+00  -2.0667903282922141e-15 -1.0973644368265742e-01 0.0000000000000000e+00  -1.7071173919337007e-15 -1.0973644368265786e-01 0.0000000000000000e+00  -1.3234855749488167e-15 -1.0973644368265806e-01 0.0000000000000000e+00  -8.8830878468438706e-16 -1.0973644368265828e-01 0.0000000000000000e+00  -4.4285597501169313e-16 -1.0973644368265849e-01 0.0000000000000000e+00  5.1587409224658022e-32 -1.0973644368265861e-01 0.0000000000000000e+00  3.6111186457260672e-32 -1.2803246503166674e-01 0.0000000000000000e+00  -4.3146350580662701e-16 -1.2803246503166688e-01 0.0000000000000000e+00  -8.4632237490626782e-16 -1.2803246503166682e-01 0.0000000000000000e+00  -1.2724482580796817e-15 -1.2803246503166699e-01 0.0000000000000000e+00  -1.7012422250327358e-15 -1.2803246503166729e-01 0.0000000000000000e+00  -2.0778273392379688e-15 -1.2803246503166751e-01 0.0000000000000000e+00  -2.4076019013625008e-15 -1.2803246503166793e-01 0.0000000000000000e+00  -2.6836053117163676e-15 -1.2803246503166837e-01 0.0000000000000000e+00  -2.8970784373435224e-15 -1.2803246503166896e-01 0.0000000000000000e+00  -3.0596340626346771e-15 -1.2803246503166973e-01 0.0000000000000000e+00  -3.1240658571518385e-15 -1.2803246503167062e-01 0.0000000000000000e+00  -3.0937919400679629e-15 -1.2803246503167148e-01 0.0000000000000000e+00  -3.0034487799683787e-15 -1.2803246503167223e-01 0.0000000000000000e+00  -2.7863406579417393e-15 -1.2803246503167318e-01 0.0000000000000000e+00  -2.5242037345623352e-15 -1.2803246503167384e-01 0.0000000000000000e+00  -2.1991951831998403e-15 -1.2803246503167412e-01 0.0000000000000000e+00  -1.7987830297535913e-15 -1.2803246503167459e-01 0.0000000000000000e+00  -1.3903117016936875e-15 -1.2803246503167487e-01 0.0000000000000000e+00  -9.4695548922124355e-16 -1.2803246503167537e-01 0.0000000000000000e+00  -4.6264184436210047e-16 -1.2803246503167534e-01 0.0000000000000000e+00  -1.4444474582904263e-32 -1.2803246503167542e-01 0.0000000000000000e+00  -1.7049399781659362e-32 -1.4633152017699358e-01 0.0000000000000000e+00  -4.6708873497176765e-16 -1.4633152017699352e-01 0.0000000000000000e+00  -9.2847039919192245e-16 -1.4633152017699355e-01 0.0000000000000000e+00  -1.3758960578547916e-15 -1.4633152017699369e-01 0.0000000000000000e+00  -1.8157547205992218e-15 -1.4633152017699419e-01 0.0000000000000000e+00  -2.2153319517564245e-15 -1.4633152017699427e-01 0.0000000000000000e+00  -2.5511586239293754e-15 -1.4633152017699480e-01 0.0000000000000000e+00  -2.8605152607897257e-15 -1.4633152017699541e-01 0.0000000000000000e+00  -3.0440943580445406e-15 -1.4633152017699616e-01 0.0000000000000000e+00  -3.1785465482842230e-15 -1.4633152017699699e-01 0.0000000000000000e+00  -3.2880956462589722e-15 -1.4633152017699799e-01 0.0000000000000000e+00  -3.2706827433795468e-15 -1.4633152017699905e-01 0.0000000000000000e+00  -3.1461407030017157e-15 -1.4633152017700002e-01 0.0000000000000000e+00  -2.9439991737729827e-15 -1.4633152017700096e-01 0.0000000000000000e+00  -2.6315849805481620e-15 -1.4633152017700174e-01 0.0000000000000000e+00  -2.2902137122008867e-15 -1.4633152017700229e-01 0.0000000000000000e+00  -1.8843981835735923e-15 -1.4633152017700268e-01 0.0000000000000000e+00  -1.4323148901575652e-15 -1.4633152017700313e-01 0.0000000000000000e+00  -9.7343828587417425e-16 -1.4633152017700340e-01 0.0000000000000000e+00  -5.1364032218033763e-16 -1.4633152017700365e-01 0.0000000000000000e+00  7.1125699658115781e-32 -1.4633152017700371e-01 0.0000000000000000e+00  -7.2222372914521257e-32 -1.6463402909871294e-01 0.0000000000000000e+00  -5.1497582944266030e-16 -1.6463402909871275e-01 0.0000000000000000e+00  -1.0067381351000508e-15 -1.6463402909871286e-01 0.0000000000000000e+00  -1.4548978466575709e-15 -1.6463402909871316e-01 0.0000000000000000e+00  -1.9042581697363038e-15 -1.6463402909871322e-01 0.0000000000000000e+00  -2.3178685873677224e-15 -1.6463402909871386e-01 0.0000000000000000e+00  -2.6774873384190018e-15 -1.6463402909871397e-01 0.0000000000000000e+00  -2.9625533151382970e-15 -1.6463402909871500e-01 0.0000000000000000e+00  -3.1628644105173242e-15 -1.6463402909871583e-01 0.0000000000000000e+00  -3.3185642202236078e-15 -1.6463402909871666e-01 0.0000000000000000e+00  -3.3969325677269696e-15 -1.6463402909871777e-01 0.0000000000000000e+00  -3.3881537215776518e-15 -1.6463402909871902e-01 0.0000000000000000e+00  -3.2545578874254713e-15 -1.6463402909872021e-01 0.0000000000000000e+00  -3.0346636717226786e-15 -1.6463402909872130e-01 0.0000000000000000e+00  -2.7485204034118051e-15 -1.6463402909872205e-01 0.0000000000000000e+00  -2.3723744200072298e-15 -1.6463402909872266e-01 0.0000000000000000e+00  -1.9615274919707755e-15 -1.6463402909872327e-01 0.0000000000000000e+00  -1.4749696544154354e-15 -1.6463402909872371e-01 0.0000000000000000e+00  -9.9548084561291613e-16 -1.6463402909872427e-01 0.0000000000000000e+00  -5.0810576452681417e-16 -1.6463402909872443e-01 0.0000000000000000e+00  2.1757606975033702e-31 -1.6463402909872449e-01 0.0000000000000000e+00  3.6023933268333700e-32 -1.8294040645143259e-01 0.0000000000000000e+00  -5.5558586059454521e-16 -1.8294040645143270e-01 0.0000000000000000e+00  -1.0637034262485143e-15 -1.8294040645143264e-01 0.0000000000000000e+00  -1.5248082941597270e-15 -1.8294040645143300e-01 0.0000000000000000e+00  -1.9600681427579329e-15 -1.8294040645143311e-01 0.0000000000000000e+00  -2.4090233920408715e-15 -1.8294040645143378e-01 0.0000000000000000e+00  -2.7515759158261886e-15 -1.8294040645143428e-01 0.0000000000000000e+00  -3.0006395010637421e-15 -1.8294040645143514e-01 0.0000000000000000e+00  -3.2646197170249423e-15 -1.8294040645143600e-01 0.0000000000000000e+00  -3.4098505107591491e-15 -1.8294040645143722e-01 0.0000000000000000e+00  -3.4782237238792934e-15 -1.8294040645143814e-01 0.0000000000000000e+00  -3.4492213751674095e-15 -1.8294040645143975e-01 0.0000000000000000e+00  -3.3272963588036981e-15 -1.8294040645144083e-01 0.0000000000000000e+00  -3.1068463741966937e-15 -1.8294040645144227e-01 0.0000000000000000e+00  -2.8070311859141414e-15 -1.8294040645144313e-01 0.0000000000000000e+00  -2.4597106964473741e-15 -1.8294040645144394e-01 0.0000000000000000e+00  -2.0244909606834353e-15 -1.8294040645144458e-01 0.0000000000000000e+00  -1.5294667886216259e-15 -1.8294040645144510e-01 0.0000000000000000e+00  -1.0313497502084692e-15 -1.8294040645144533e-01 0.0000000000000000e+00  -5.2677228586280612e-16 -1.8294040645144563e-01 0.0000000000000000e+00  9.8531951619097027e-32 -1.8294040645144574e-01 0.0000000000000000e+00  1.4444474582904252e-32 -2.0125106092492093e-01 0.0000000000000000e+00  -5.7347063440260304e-16 -2.0125106092492070e-01 0.0000000000000000e+00  -1.0873526149989813e-15 -2.0125106092492120e-01 0.0000000000000000e+00  -1.5825486734962612e-15 -2.0125106092492134e-01 0.0000000000000000e+00  -2.0392658752715335e-15 -2.0125106092492165e-01 0.0000000000000000e+00  -2.4352788653994533e-15 -2.0125106092492220e-01 0.0000000000000000e+00  -2.8002445695250942e-15 -2.0125106092492273e-01 0.0000000000000000e+00  -3.0827113471075710e-15 -2.0125106092492373e-01 0.0000000000000000e+00  -3.3173710106417134e-15 -2.0125106092492459e-01 0.0000000000000000e+00  -3.4735808777816570e-15 -2.0125106092492592e-01 0.0000000000000000e+00  -3.5313953826990081e-15 -2.0125106092492734e-01 0.0000000000000000e+00  -3.5339473155739967e-15 -2.0125106092492867e-01 0.0000000000000000e+00  -3.3986621667940400e-15 -2.0125106092493025e-01 0.0000000000000000e+00  -3.1851269458559002e-15 -2.0125106092493159e-01 0.0000000000000000e+00  -2.8680721826767124e-15 -2.0125106092493242e-01 0.0000000000000000e+00  -2.4958010687227717e-15 -2.0125106092493344e-01 0.0000000000000000e+00  -2.0642764865489484e-15 -2.0125106092493414e-01 0.0000000000000000e+00  -1.5943794527243686e-15 -2.0125106092493467e-01 0.0000000000000000e+00  -1.0844586150533664e-15 -2.0125106092493517e-01 0.0000000000000000e+00  -5.4061882721620730e-16 -2.0125106092493522e-01 0.0000000000000000e+00  3.6111186457260612e-32 -2.0125106092493553e-01 0.0000000000000000e+00  -1.6927118651840940e-32 -2.1956639461393535e-01 0.0000000000000000e+00  -5.5955282832163637e-16 -2.1956639461393571e-01 0.0000000000000000e+00  -1.1149698235959125e-15 -2.1956639461393559e-01 0.0000000000000000e+00  -1.6539291078864162e-15 -2.1956639461393582e-01 0.0000000000000000e+00  -2.1223544746449391e-15 -2.1956639461393640e-01 0.0000000000000000e+00  -2.5076675553543709e-15 -2.1956639461393676e-01 0.0000000000000000e+00  -2.8588972001256226e-15 -2.1956639461393809e-01 0.0000000000000000e+00  -3.1652771046217343e-15 -2.1956639461393868e-01 0.0000000000000000e+00  -3.3830957751904094e-15 -2.1956639461393976e-01 0.0000000000000000e+00  -3.5481766192716481e-15 -2.1956639461394106e-01 0.0000000000000000e+00  -3.6263183215375495e-15 -2.1956639461394228e-01 0.0000000000000000e+00  -3.5783568033570858e-15 -2.1956639461394406e-01 0.0000000000000000e+00  -3.4626573322756687e-15 -2.1956639461394578e-01 0.0000000000000000e+00  -3.2531561024173326e-15 -2.1956639461394725e-01 0.0000000000000000e+00  -2.9222572918030394e-15 -2.1956639461394847e-01 0.0000000000000000e+00  -2.5549080668332188e-15 -2.1956639461394925e-01 0.0000000000000000e+00  -2.1270369480090607e-15 -2.1956639461395000e-01 0.0000000000000000e+00  -1.6651066754735573e-15 -2.1956639461395067e-01 0.0000000000000000e+00  -1.1187499434319539e-15 -2.1956639461395114e-01 0.0000000000000000e+00  -5.3197376721684356e-16 -2.1956639461395130e-01 0.0000000000000000e+00  1.4551886495117686e-32 -2.1956639461395169e-01 0.0000000000000000e+00  -2.1666711874356403e-32 -2.3788680239822266e-01 0.0000000000000000e+00  -5.7100124713319485e-16 -2.3788680239822294e-01 0.0000000000000000e+00  -1.1486767366647248e-15 -2.3788680239822294e-01 0.0000000000000000e+00  -1.6618987374080495e-15 -2.3788680239822324e-01 0.