<?xml version="1.0"?>
<VTKFile type="UnstructuredGrid"  version="0.1"  >
<UnstructuredGrid>
<Piece  NumberOfPoints="787" NumberOfCells="1467">
<Points>
<DataArray  type="Float64"  NumberOfComponents="3"  format="ascii">0.0253163763831596 -0.05095008515408326 0  0.02646635899959049 -0.05225988253257415 0  0.02502149670340228 -0.05243561046763882 0  0.0192363369162766 -0.06806970979678284 0  0.01785689970612189 -0.06858119646279974 0  0.01816465710605705 -0.06729533536873264 0  0.01263888697332505 -0.07850851049115726 0  0.01156618300102526 -0.08035095936378936 0  0.01063628931142468 -0.07857606263072298 0  0.03742133235740961 -0.09005672929239181 0  0.03821948520829777 -0.08878625345726171 0  0.03882498194897689 -0.09005259581168121 0  0.02831316747097568 -0.08353943177895332 0  0.02680418453963673 -0.08396552000116861 0  0.02856782985571023 -0.08503864443391608 0  0.02197300492838798 -0.07785849992225746 0  0.0236515119744492 -0.07882937295138227 0  0.02399582230499316 -0.07726175314528801 0  0.03830062369057925 -0.07890970096328502 0  0.04001413922274079 -0.07947217220789768 0  0.0394739904630113 -0.07822641714535092 0  0.03307580228966352 -0.05623244866465846 0  0.03304454983566926 -0.05808833194342944 0  0.03147362087845901 -0.05656070851086208 0  0.01008019185444602 -0.0897030704995445 0  0.01216681726782447 -0.08857720631714282 0  0.01204980799896014 -0.09085690702402351 0  0.01427753806508674 -0.08965722182118722 0  0.01499662781635355 -0.09120498855657148 0  0.01375614872125667 -0.09084038570529977 0  0.02454468748321089 -0.07169143887984709 0  0.02436733001795869 -0.07015802637527714 0  0.02295612571718715 -0.0715890179003351 0  0.01533533535351063 -0.06979991037261025 0  0.0177806445325376 -0.07005043122102393 0  0.01646203234597888 -0.06811342443084387 0  0.03965658412817928 -0.06102022076500465 0  0.03788556172893791 -0.06203052595151176 0  0.04026188792608635 -0.06274413791360257 0  0.04364884417698481 -0.07754216050898051 0  0.04382140937462677 -0.07954037552804112 0  0.0421967587521993 -0.07768066254010801 0  0.03348214285714286 -0.08348214285714287 0  0.03423230346285393 -0.08200465277485418 0  0.03243162425094744 -0.08246417709341107 0  0.03072628767995273 -0.06184751883997637 0  0.03115040578880909 -0.06003372802837696 0  0.03202687516019807 -0.06100224316397799 0  0.01914387172830702 -0.06345432668240811 0  0.01904183715184792 -0.06150750363943223 0  0.01763933584190689 -0.06216030655882796 0  0.01719551374627341 -0.0830513925183794 0  0.01933763519132608 -0.08192062756666578 0  0.01921813111793967 -0.08404606885628335 0  0.03470250342566425 -0.06222309747987002 0  0.03270661615787385 -0.06211766788261659 0  0.03364747500351112 -0.06325105457070009 0  0.0337884473891351 -0.05460718489330078 0  0.0321356245381919 -0.05463308953185839 0  0.01400809758125955 -0.08758125694359854 0  0.01289591636702387 -0.089754840573112 0  0.03188613320287887 -0.09091108404481391 0  0.0300036120570274 -0.09202382523642311 0  0.03071003455387907 -0.09027106838440507 0  0.03949346768185091 -0.08799370978142433 0  0.04083982813554821 -0.0893700658764271 0  0.02938595614515601 -0.08632050280733992 0  0.03040971863707885 -0.08765127485705719 0  0.02890982094386123 -0.08799498718573706 0  0.04345783710819453 -0.09110483561269606 0  0.04497005514864892 -0.09093463669157506 0  0.0430759581110159 -0.08978773661708545 0  0.0247793305670809 -0.05631957595084435 0  0.02619917778579364 -0.05802778737135143 0  0.02492128034734876 -0.05869428615775265 0  0.02164306295595804 -0.06702658770968295 0  0.02309723803175772 -0.06832518233624925 0  0.02097971601908238 -0.06879409185499595 0  0.02057363836381549 -0.07561467685960577 0  0.01923138543540909 -0.07596279202513538 0  0.0201836820135381 -0.07437805413953116 0  0.03169978531106885 -0.08534923982812244 0  0.0331891491596804 -0.0863907328258092 0  0.03075063691921128 -0.08632983044099815 0  0.01711132032047017 -0.07193570335093875 0  0.01598258986133356 -0.07106798872868814 0  0.03505406134441619 -0.08335106406575787 0  0.03311297132996835 -0.08491400694606925 0  0.02804257120035339 -0.07849071976552029 0  0.03034478515829682 -0.07792111926930155 0  0.02892546366582221 -0.07680880088540872 0  0.02416154146863935 -0.08070016162395202 0  0.0224843414054342 -0.08250864398128172 0  0.02411024678398856 -0.08233455566936589 0  0.025334823172674 -0.08341820123348352 0  0.02522643562136178 -0.08512845143297179 0  0.01649073826091686 -0.06319659086967212 0  0.01570123454296709 -0.06506178719416507 0  0.01770106090999505 -0.06452207583910662 0  0.01728938824664831 -0.06065342293474459 0  0.04464334080337827 -0.06477056026673604 0  0.04502387202811982 -0.06659229383285178 0  0.04636594091932174 -0.06552590861214863 0  0.01809300284513205 -0.05689299134079161 0  0.01981701831826052 -0.05842591866861049 0  0.01792103282159441 -0.05882232399720749 0  0.01454995940546648 -0.05199794358506395 0  0.01686434304608255 -0.05145915617355584 0  0.01581567795051093 -0.04979263651326838 0  0.03869863810845114 -0.05851213874557144 0  0.04018585363524062 -0.05724246148436949 0  0.03970578764389624 -0.05956444608131971 0  0.04500704918173798 -0.08941332064415353 0  0.0468279944940574 -0.09080811063091072 0  0.04534211210420257 -0.09241021952437389 0  0.04670060681091085 -0.09670060681091086 0  0.04504539898905737 -0.09601953464091741 0  0.04639081665769942 -0.09510162937447562 0  0.04205467609998415 -0.06146564627654705 0  0.04107518642763387 -0.06006088126008405 0  0.04241869617792832 -0.06016796568913897 0  0.03694482364888862 -0.07483282559208632 0  0.03610885884382378 -0.07281806235528819 0  0.03807023319162758 -0.07320682963349499 0  0.02958027680234551 -0.07172324007054222 0  0.02856154711422706 -0.07386136174728263 0  0.02755543059494003 -0.07239631376986599 0  0.03639778858618781 -0.07619102435699082 0  0.0384705842660954 -0.07508656202965074 0  0.04684624656174251 -0.07187500000000001 0  0.04842312328087126 -0.07343340336823168 0  0.04685549256184014 -0.07344263060849651 0  0.04337196116786825 -0.07463925880684733 0  0.04210124169070797 -0.07622511749289544 0  0.04354979210673399 -0.07608378292408841 0  0.03637679552963742 -0.07765509762578199 0  0.0385769480595515 -0.0766296156204922 0  0.02736491626781095 -0.07590524263897044 0  0.02687859119369121 -0.07741425412276508 0  0.009435764744425919 -0.08043238240966273 0  0.00926086646052551 -0.08713687094856779 0  0.01084917183279576 -0.08758400344942135 0  0.009765258461052893 -0.08838972595063958 0  0.025 -0.1 0  0.02574660752638188 -0.09831523885802962 0  0.02425762309203308 -0.09845112215652949 0  0.02717161535066178 -0.09714682300539645 0  0.02814040517327717 -0.09840897789012983 0  0.0287187101773846 -0.09677522339481145 0  0.01875 -0.09260679016400503 0  0.01746426634563599 -0.0946966824898527 0  0.02000489244543809 -0.09471513491297798 0  0.04446421559415197 -0.08718473081338503 0  0.04367940145364908 -0.0885562994627993 0  0.02088671269095009 -0.06240702469651116 0  0.0278582381998454 -0.05655080703154879 0  0.02860271266695176 -0.05463752982112181 0  0.02637310899341614 -0.0557118438524549 0  0.02378330144214598 -0.0516705092605356 0  0.02507311958935473 -0.06271161136998743 0  0.02657608507230502 -0.06228073040903606 0  0.02551730029560318 -0.06142426381158862 0  0.0305796626780135 -0.05519119088158705 0  0.0328125 -0.05312500000000001 0  0.0376081921684235 -0.05245551308128505 0  0.03762419922489806 -0.05459874974087802 0  0.03635973676985995 -0.05369008569158945 0  0.04767128262860884 -0.05537540323700023 0  0.04546530640752131 -0.05503961419206276 0  0.04578782911147741 -0.05675321623119051 0  0.03686548041120438 -0.06032818054708596 0  0.036644526860098 -0.05856190909012812 0  0.03769074722308389 -0.05932798700863462 0  0.02063243529930224 -0.08719964433792667 0  0.01908514024155837 -0.0863776329894482 0  0.0199696387685163 -0.08525850927813482 0  0.006250000000000001 -0.08914373740925415 0  0.007964066885959199 -0.090800007287408 0  0.008299592740779536 -0.0888576775342028 0  0.008695080668314235 -0.07807940410525299 0  0.0155154430127655 -0.07780260757679426 0  0.01598440846056885 -0.07579471522088828 0  0.01473201805325772 -0.07656091781105955 0  0.04321758283034931 -0.06704044172466167 0  0.04133630972986371 -0.06599851068428712 0  0.04130559735643655 -0.06764829107165204 0  0.04313110864619899 -0.06285939600837437 0  0.04345056050076136 -0.06150011966148285 0  0.02073553625659391 -0.06054214652517984 0  0.01913420206319778 -0.05989244632510003 0  0.03660603257347798 -0.08363301208285871 0  0.03867852709227757 -0.08328665052822476 0  0.03686505600937307 -0.08180844633712978 0  0.03556210456271347 -0.08208668761276301 0  0.05 -0.08437500000000001 0  0.05 -0.0859375 0  0.04860490583514159 -0.08575133884125646 0  0.04553386586880761 -0.08075612830980353 0  0.04441800636074661 -0.08248315021781349 0  0.0457909677211155 -0.08214624565084092 0  0.04210310889254143 -0.08866781429134733 0  0.037033205797572 -0.05682482417137066 0  0.03841317868273451 -0.05712832193281868 0  0.04143681828516032 -0.09324577512300852 0  0.04028474823910268 -0.09217836090091314 0  0.04215449354704975 -0.0918988737706147 0  0.0472227281394374 -0.06404123962307648 0  0.04542281870194612 -0.06345085768052849 0  0.04651019676850526 -0.06237066804404576 0  0.01512933394003292 -0.07220768844695416 0  0.02353466441496152 -0.07572444547906115 0  0.02206053129225047 -0.07549746227010537 0  0.02286879863971965 -0.07432437058595016 0  0.02389766944944421 -0.05336055352824819 0  0.02505789171550941 -0.05462571702396751 0  0.0200352813999171 -0.04944197410413204 0  0.01897132622274226 -0.04818917069836885 0  0.02039596393456947 -0.04786566231201216 0  0.02255522939491745 -0.05050381790686167 0  0.02095559199324484 -0.05077897888898596 0  0.02151442938367597 -0.04940906557037485 0  0.03419217537052396 -0.09402564429600242 0  0.03559757304728373 -0.09285131497116357 0  0.03429324813307534 -0.09271847386402299 0  0.03956847501260272 -0.09552117233795018 0  0.03805996984719
[...]
<PointData  Vectors="displacement"> 
<DataArray  type="Float64"  Name="displacement"  NumberOfComponents="3" format="ascii">8.5379745188497457e-12 5.4452922704494394e-02 0.0000000000000000e+00  -7.6620187120981221e-12 5.2998846880413210e-02 0.0000000000000000e+00  -5.2059095620617358e-12 5.2803761937854854e-02 0.0000000000000000e+00  -1.5200871762487546e-12 3.5447515652062396e-02 0.0000000000000000e+00  -2.4402491755162756e-12 3.4879687062397899e-02 0.0000000000000000e+00  2.4924146333505669e-12 3.6307189949704180e-02 0.0000000000000000e+00  -4.8639932461965276e-13 2.3858847069357005e-02 0.0000000000000000e+00  4.0428134833390890e-13 2.1813446454604864e-02 0.0000000000000000e+00  -9.0337907111618851e-13 2.3783853841695624e-02 0.0000000000000000e+00  -1.2661314242921418e-12 1.1038554357567187e-02 0.0000000000000000e+00  3.9395747943425556e-15 1.2448977244901098e-02 0.0000000000000000e+00  1.0647550553330951e-12 1.1043143155752350e-02 0.0000000000000000e+00  -3.3479901738491432e-12 1.8273753419505028e-02 0.0000000000000000e+00  -1.2018672148512437e-12 1.7800730189749751e-02 0.0000000000000000e+00  1.8015956924688968e-12 1.6609397602876996e-02 0.0000000000000000e+00  4.9101996687399218e-13 2.4580458419761971e-02 0.0000000000000000e+00  -1.0155309525132509e-12 2.3502640562879856e-02 0.0000000000000000e+00  1.3485476548235002e-12 2.5242938799904049e-02 0.0000000000000000e+00  7.9507743302583592e-13 2.3413464160066660e-02 0.0000000000000000e+00  6.3699808436178976e-13 2.2789034875783362e-02 0.0000000000000000e+00  -5.3045042229976277e-13 2.4172013917250532e-02 0.0000000000000000e+00  -3.5768419302308731e-12 4.8588689651634202e-02 0.0000000000000000e+00  -5.0506726776604916e-14 4.6528374790354987e-02 0.0000000000000000e+00  1.0378669394009362e-11 4.8224270913855380e-02 0.0000000000000000e+00  1.3361387816734762e-12 1.1431169820006559e-02 0.0000000000000000e+00  -2.0942656880897525e-13 1.2681051606782345e-02 0.0000000000000000e+00  -1.4725444264585996e-12 1.0150234445392049e-02 0.0000000000000000e+00  -3.4243984645009949e-13 1.1482068880578126e-02 0.0000000000000000e+00  1.4185194328654498e-12 9.7638105985641231e-03 0.0000000000000000e+00  -3.8379500266764316e-12 1.0168575634866046e-02 0.0000000000000000e+00  -7.9084177165490362e-13 3.1426841320384181e-02 0.0000000000000000e+00  3.5913838774603678e-12 3.3129164203846248e-02 0.0000000000000000e+00  -4.8193421316030887e-12 3.1540544303722960e-02 0.0000000000000000e+00  -1.7148322188922811e-13 3.3526727851760106e-02 0.0000000000000000e+00  -4.1794305130927743e-12 3.3248611319599525e-02 0.0000000000000000e+00  9.0065362968532891e-14 3.5398985717008523e-02 0.0000000000000000e+00  -2.8217181376795336e-14 4.3273528863861647e-02 0.0000000000000000e+00  -8.1868302377318468e-14 4.2151935270313377e-02 0.0000000000000000e+00  1.3221915970834883e-12 4.1359716626125448e-02 0.0000000000000000e+00  -3.5205720819494181e-13 2.4931643649630266e-02 0.0000000000000000e+00  -2.5995684816958495e-13 2.2713318738820418e-02 0.0000000000000000e+00  1.9337135740032564e-13 2.4777885168133569e-02 0.0000000000000000e+00  -9.7603058243476494e-13 1.8337352897729760e-02 0.0000000000000000e+00  8.8538065191138183e-13 1.9977593328673972e-02 0.0000000000000000e+00  1.8130812786398582e-12 1.9467450910012167e-02 0.0000000000000000e+00  6.1341634460889691e-12 4.2355101210831400e-02 0.0000000000000000e+00  -3.2132757951142910e-12 4.4368686985995373e-02 0.0000000000000000e+00  -1.2140105034640808e-13 4.3293486765011401e-02 0.0000000000000000e+00  -5.4967642881092700e-12 4.0571298254809617e-02 0.0000000000000000e+00  1.3347921697517133e-11 4.2732570193515729e-02 0.0000000000000000e+00  -5.6376200006289452e-12 4.2007858906895408e-02 0.0000000000000000e+00  -2.0343834578676008e-12 1.8815551792984490e-02 0.0000000000000000e+00  1.1006112122809136e-12 2.0070874184927909e-02 0.0000000000000000e+00  1.2696467897116777e-12 1.7711308615742289e-02 0.0000000000000000e+00  2.0063419792444562e-13 4.1938151362224299e-02 0.0000000000000000e+00  3.2113848890189814e-13 4.2055194373786707e-02 0.0000000000000000e+00  -1.0694457732443544e-12 4.0796961447871156e-02 0.0000000000000000e+00  -3.8667539468039968e-12 5.0392981508829239e-02 0.0000000000000000e+00  2.0630566165248209e-12 5.0364223414495882e-02 0.0000000000000000e+00  -1.6958059251620792e-12 1.3786708048031662e-02 0.0000000000000000e+00  3.9162568612350324e-12 1.1373697103101633e-02 0.0000000000000000e+00  -1.7052284947585363e-12 1.0090089647080755e-02 0.0000000000000000e+00  9.7302501073545499e-14 8.8547763902991749e-03 0.0000000000000000e+00  1.4637133167416335e-12 1.0800605116644655e-02 0.0000000000000000e+00  -1.4611361722102833e-12 1.3328822185219812e-02 0.0000000000000000e+00  1.6162979676185942e-12 1.1800855987056267e-02 0.0000000000000000e+00  3.0045578145285666e-13 1.5186338361892105e-02 0.0000000000000000e+00  -1.5409551917367078e-12 1.3708977434586211e-02 0.0000000000000000e+00  3.8567214429811943e-13 1.3327404072931823e-02 0.0000000000000000e+00  4.9448489264023051e-13 9.8749957133598444e-03 0.0000000000000000e+00  -3.1813197155700934e-13 1.0063942599516524e-02 0.0000000000000000e+00  8.5325961153602482e-13 1.1337177453506387e-02 0.0000000000000000e+00  9.3017504483395871e-12 4.8491965024588600e-02 0.0000000000000000e+00  7.2945991587719196e-12 4.6595588533352418e-02 0.0000000000000000e+00  -3.5963817590101451e-12 4.5855672735037531e-02 0.0000000000000000e+00  9.7627232182909659e-13 3.6605541037169592e-02 0.0000000000000000e+00  2.7487803309792877e-13 3.5163901986909038e-02 0.0000000000000000e+00  8.3162997195313782e-13 3.4643340554136967e-02 0.0000000000000000e+00  2.2542401843803973e-13 2.7071445896872767e-02 0.0000000000000000e+00  -1.5654057246292396e-13 2.6684984716027874e-02 0.0000000000000000e+00  -3.0346255981463601e-13 2.8444286640473972e-02 0.0000000000000000e+00  3.3828778249361041e-12 1.6264589116211415e-02 0.0000000000000000e+00  -3.7220662213004588e-13 1.5108372275770774e-02 0.0000000000000000e+00  -3.3640958791363007e-12 1.5175983254528420e-02 0.0000000000000000e+00  2.8924966411891594e-12 3.1155670322096849e-02 0.0000000000000000e+00  3.5900091379982361e-13 3.2118966533264272e-02 0.0000000000000000e+00  1.1802385907476453e-13 1.8482870448036613e-02 0.0000000000000000e+00  -1.1421192068425383e-12 1.6747764320196371e-02 0.0000000000000000e+00  -1.6571145135499735e-12 2.3878597502534800e-02 0.0000000000000000e+00  3.3112832335451271e-13 2.4510941347795398e-02 0.0000000000000000e+00  4.0242791721186618e-13 2.5745785222727493e-02 0.0000000000000000e+00  1.3503163950956863e-12 2.1425778428560905e-02 0.0000000000000000e+00  2.9494401194745072e-13 1.9418085848280441e-02 0.0000000000000000e+00  -1.8117105602866306e-12 1.9611350554829189e-02 0.0000000000000000e+00  -1.4729424992136584e-12 1.8408337903747792e-02 0.0000000000000000e+00  -9.5145657781202039e-13 1.6509698073243356e-02 0.0000000000000000e+00  -1.0523982910293772e-12 4.0857424507202061e-02 0.0000000000000000e+00  -6.3572001524995685e-13 3.8786770729418198e-02 0.0000000000000000e+00  5.9348076828612964e-12 3.9385933047778730e-02 0.0000000000000000e+00  5.0299785986165339e-12 4.3680730664844847e-02 0.0000000000000000e+00  3.6049321858995257e-13 3.9110077251305907e-02 0.0000000000000000e+00  1.2518360906416875e-13 3.7087673800713809e-02 0.0000000000000000e+00  -8.3191713494573364e-13 3.8271524826926598e-02 0.0000000000000000e+00  -9.7157992576118822e-12 4.7855386048898503e-02 0.0000000000000000e+00  3.9004019715504809e-12 4.6153601787396137e-02 0.0000000000000000e+00  1.5979246346707925e-12 4.5713531106819777e-02 0.0000000000000000e+00  1.3758438453705263e-12 5.3289639258528733e-02 0.0000000000000000e+00  1.4178131582226594e-12 5.3887775858102886e-02 0.0000000000000000e+00  1.8088941464671657e-12 5.5737868084415915e-02 0.0000000000000000e+00  2.4495792169829725e-12 4.6057884287154384e-02 0.0000000000000000e+00  1.6310599476296405e-12 4.7467420631006271e-02 0.0000000000000000e+00  -1.0450700082132423e-13 4.4889661872505551e-02 0.0000000000000000e+00  3.0951175332976791e-13 1.1752836564810742e-02 0.0000000000000000e+00  6.1968442722518600e-13 1.0204405918262213e-02 0.0000000000000000e+00  5.7210874312370185e-13 8.4258195125394685e-03 0.0000000000000000e+00  -2.1527873540877959e-13 3.6628320937715760e-03 0.0000000000000000e+00  3.7562152898362321e-13 4.4189265809683621e-03 0.0000000000000000e+00  -3.5394225800283933e-13 5.4379421020387796e-03 0.0000000000000000e+00  -4.5763521203318557e-14 4.2779038282251651e-02 0.0000000000000000e+00  -1.7155738712686590e-15 4.4338542737294470e-02 0.0000000000000000e+00  2.7760707082976372e-12 4.4219662609902156e-02 0.0000000000000000e+00  5.0194204539909769e-13 2.7939420631023865e-02 0.0000000000000000e+00  -6.7541875760132671e-13 3.0176116600447521e-02 0.0000000000000000e+00  -5.6279593518124119e-14 2.9744525340226563e-02 0.0000000000000000e+00  3.3400486572016813e-12 3.1391537123870022e-02 0.0000000000000000e+00  1.3264249448957079e-12 2.9017894380533881e-02 0.0000000000000000e+00  -4.2386600506553775e-12 3.0644322162967402e-02 0.0000000000000000e+00  8.9958775826403871e-14 2.6431611848262232e-02 0.0000000000000000e+00  -6.5674755236343596e-13 2.7657734299186235e-02 0.0000000000000000e+00  -2.4144926078633756e-13 3.1223060345522104e-02 0.0000000000000000e+00  -4.8624697498617345e-13 2.9492993770581174e-02 0.0000000000000000e+00  5.9694969797132342e-13 2.9482750119017215e-02 0.0000000000000000e+00  -2.9152469211230147e-13 2.8154309427736585e-02 0.0000000000000000e+00  -3.4674817888728235e-13 2.6393763243520170e-02 0.0000000000000000e+00  1.9743432267328042e-14 2.6550666273876363e-02 0.0000000000000000e+00  -5.2263429459134903e-13 2.4806266142760245e-02 0.0000000000000000e+00  -4.6795826713463528e-13 2.5944708329795951e-02 0.0000000000000000e+00  -4.7719949580619040e-13 2.6748873355186362e-02 0.0000000000000000e+00  -7.8319947945000666e-13 2.5073639339756839e-02 0.0000000000000000e+00  -1.2469878581484894e-13 2.1723054392769926e-02 0.0000000000000000e+00  -8.9977723251819596e-13 1.4280044608077613e-02 0.0000000000000000e+00  -8.3972279793233289e-13 1.3783659007714957e-02 0.0000000000000000e+00  -1.7666367622740143e-12 1.2889183543557958e-02 0.0000000000000000e+00  -1.5427503556700864e-28 8.8347497646605199e-20 0.0000000000000000e+00  -1.1959203287855951e-12 1.8703430705736502e-03 0.0000000000000000e+00  -2.5938596726806939e-13 1.7194917818717742e-03 0.0000000000000000e+00  -7.1194310954170756e-13 3.1674637331138948e-03 0.0000000000000000e+00  5.6159756148145163e-13 1.7662783800296573e-03 0.0000000000000000e+00  1.8416011084758980e-12 3.5799962523137795e-03 0.0000000000000000e+00  1.3837210054287553e-12 8.2075959719826938e-03 0.0000000000000000e+00  -1.5397162785918667e-13 5.8874952023963137e-03 0.0000000000000000e+00  4.8600833394274432e-13 5.8670101900849102e-03 0.0000000000000000e+00  1.5674718606588423e-13 1.4226912824018990e-02 0.0000000000000000e+00  -1.1696763462768667e-13 1.2704261419242085e-02 0.0000000000000000e+00  -7.9429450528973772e-12 4.1733963967184512e-02 0.0000000000000000e+00  1.3943739055702973e-12 4.8235263083821582e-02 0.0000000000000000e+00  -2.3049103984079620e-12 5.0359293996257062e-02 0.0000000000000000e+00  -3.9298298298831225e-12 4.9166640783619181e-02 0.0000000000000000e+00  1.1030711313817022e-12 5.3653141546318436e-02 0.0000000000000000e+00  1.0856563485807197e-11 4.1395826086576722e-02 0.0000000000000000e+00  2.5047433292630051e-13 4.1874169970634201e-02 0.0000000000000000e+00  -6.5061418198168800e-12 4.2824979160842644e-02 0.0000000000000000e+00  -6.7031094031061659e-12 4.9744645370383873e-02 0.0000000000000000e+00  -3.5587099310737132e-12 5.2038433909742020e-02 0.0000000000000000e+00  9.3899201093350475e-14 5.2781666988917918e-02 0.0000000000000000e+00  -6.7424845473205703e-13 5.0402345836439225e-02 0.0000000000000000e+00  -1.6451639417631938e-11 5.1411102175246789e-02 0.0000000000000000e+00  2.4349398830612673e-12 4.9540141426085954e-02 0.0000000000000000e+00  -3.0774694995524060e-12 4.9912918725393496e-02 0.0000000000000000e+00  -2.3544199241401037e-12 4.8010557843694561e-02 0.0000000000000000e+00  -1.2759313555538829e-12 4.4041799564908661e-02 0.0000000000000000e+00  1.1236848355289094e-13 4.6002631575392208e-02 0.0000000000000000e+00  8.6343012171434991e-13 4.5152167676745493e-02 0.0000000000000000e+00  5.8986666528139217e-13 1.4210356523859463e-02 0.0000000000000000e+00  -9.3805571046760622e-13 1.5122915102524639e-02 0.0000000000000000e+00  -3.5727859001127662e-12 1.6365313934453476e-02 0.0000000000000000e+00  8.3631234489759571e-13 1.2052115271470586e-02 0.0000000000000000e+00  -2.3624563396892643e-12 1.0213401873038489e-02 0.0000000000000000e+00  1.2379859946443276e-12 1.2369685572371494e-02 0.0000000000000000e+00  5.9132892074494168e-13 2.4335220922472048e-02 0.0000000000000000e+00  3.1800337661738098e-13 2.4642507488987959e-02 0.0000000000000000e+00  1.0638727579399112e-12 2.6871575729790265e-02 0.0000000000000000e+00  -7.8497495820749754e-13 2.6020973425087347e-02 0.0000000000000000e+00  -2.9758234076126868e-13 3.6590160958640650e-02 0.0000000000000000e+00  2.5584017013118916e-13 3.7746864096664681e-02 0.0000000000000000e+00  -7.8210544536735702e-14 3.5915355026564733e-02 0.0000000000000000e+00  -2.7539096497713058e-13 4.1231762477253540e-02 0.0000000000000000e+00  1.0280296629472151e-12 4.2740767542469596e-02 0.0000000000000000e+00  -2.1816889554969059e-12 4.3804264539655684e-02 0.0000000000000000e+00  -4.2266890205950600e-12 4.4525531337626517e-02 0.0000000000000000e+00  -6.5575996323912890e-13 1.8169864938547511e-02 0.0000000000000000e+00  -4.2537215493881924e-13 1.8554379348528507e-02 0.0000000000000000e+00  3.5799592708127913e-13 2.0195412542255042e-02 0.0000000000000000e+00  -9.4159204131091316e-13 1.9886522086351329e-02 0.0000000000000000e+00  0.0000000000000000e+00 1.7346144636392211e-02 0.0000000000000000e+00  5.3997606222113122e-29 1.5611530172334923e-02 0.0000000000000000e+00  1.2851114783469913e-13 1.5818197588227240e-02 0.0000000000000000e+00  -3.7431811044276005e-13 2.1363646829325126e-02 0.0000000000000000e+00  2.1948214427401891e-13 1.9446387833440812e-02 0.0000000000000000e+00  3.0888452675928753e-13 1.9820403535224500e-02 0.0000000000000000e+00  -1.4671137981695985e-12 1.2580462870028352e-02 0.0000000000000000e+00  2.5553483244890607e-12 4.7931062050210298e-02 0.0000000000000000e+00  -3.5405140735682357e-12 4.7594133025578057e-02 0.0000000000000000e+00  7.0097340222811562e-13 7.4982247442153685e-03 0.0000000000000000e+00  3.2852092589160546e-13 8.6832181182046851e-03 0.0000000000000000e+00  4.5876126681918370e-14 8.9934916674741568e-03 0.0000000000000000e+00  2.8265308638521986e-13 3.9919734939090651e-02 0.0000000000000000e+00  1.4747327356639644e-13 4.0575149376589091e-02 0.0000000000000000e+00  -6.0883246689842875e-13 4.1774325418655202e-02 0.0000000000000000e+00  -3.2728984623072321e-13 3.0853725183113363e-02 0.0000000000000000e+00  -1.8991038966115002e-13 2.6949585911225309e-02 0.0000000000000000e+00  1.4890620753977500e-12 2.7201572059777988e-02 0.0000000000000000e+00  -2.0228725711335007e-12 2.8503883610074356e-02 0.0000000000000000e+00  1.3245569105342618e-11 5.1776933387997250e-02 0.0000000000000000e+00  -1.0364274390968739e-11 5.0372408012641069e-02 0.0000000000000000e+00  5.3741242835919300e-13 5.6127157092966250e-02 0.0000000000000000e+00  2.1318081790398893e-12 5.7517960881591869e-02 0.0000000000000000e+00  5.8997578429874567e-13 5.7877104770683717e-02 0.0000000000000000e+00  -2.4735729580942378e-13 5.4948347740728737e-02 0.0000000000000000e+00  1.4272488383042479e-12 5.4642876883712728e-02 0.0000000000000000e+00  -4.3494072808162415e-12 5.6163690618506665e-02 0.0000000000000000e+00  -8.9261956951794904e-14 6.6324504423406344e-03 0.0000000000000000e+00  -4.4406815784695829e-13 7.9361359652714691e-03 0.0000000000000000e+00  -1.4743682709697603e-12 8.0836099571882716e-03 0.0000000000000000e+00  4.7585487277580365e-13 4.9721851162534778e-03 0.0000000000000000e+00  -7.0261572149592534e-13 3.7867387592478139e-03 0.0000000000000000e+00  1.2245550353685207e-12 3.3315051418303394e-03 0.0000000000000000e+00  -1.2677746495427891e-12 4.1037979895728535e-03 0.0000000000000000e+00  -2.4674405561049198e-12 6.0666133566774725e-03 0.0000000000000000e+00  2.7028236635636164e-13 6.7179797361095299e-03 0.0000000000000000e+00  -5.7734047854083427e-13 9.8670655121007988e-03 0.0000000000000000e+00  4.2984844877770362e-13 7.0572786553195974e-03 0.0000000000000000e+00  -1.0699866169018162e-12 8.4594045671162552e-03 0.0000000000000000e+00  1.1969371311968869e-12 8.4600741225879655e-03 0.0000000000000000e+00  -1.7136898901103904e-12 8.6376740156865247e-03 0.0000000000000000e+00  -4.5271052196650838e-12 1.0585565109804906e-02 0.0000000000000000e+00  -2.6529018174903157e-13 7.6235664263939558e-03 0.0000000000000000e+00  2.0263283837480753e-12 8.9013777633645021e-03 0.0000000000000000e+00  -3.3840558247060351e-12 1.0475776925127777e-02 0.0000000000000000e+00  2.4311413432973148e-12 9.1699261539907977e-03 0.0000000000000000e+00  1.6477236790798540e-12 9.1033642066334682e-03 0.0000000000000000e+00  -1.5485213063679434e-12 3.2510941073836883e-02 0.0000000000000000e+00  -2.0193618575365640e-12 3.3716194995377140e-02 0.0000000000000000e+00  1.0448140249703513e-11 3.4468091536588634e-02 0.0000000000000000e+00  4.8779194262078072e-13 2.9590317478287300e-02 0.0000000000000000e+00  4.5372050500865146e-13 2.8916005050598419e-02 0.0000000000000000e+00  -1.8895189997085954e-12 2.7934342966437202e-02 0.0000000000000000e+00  -1.8429817016201561e-12 1.7483051196161576e-02 0.0000000000000000e+00  -1.2210256593666170e-12 1.6061465454301781e-02 0.0000000000000000e+00  -4.1550161964258066e-13 1.4446404161276247e-02 0.0000000000000000e+00  2.4702993908636457e-13 2.2314029514980318e-02 0.0000000000000000e+00  1.3485481532137209e-13 2.4258777872825505e-02 0.0000000000000000e+00  -3.7604280120838307e-13 2.4222498771320631e-02 0.0000000000000000e+00  -4.7596564104772323e-12 1.8807322348686116e-02 0.0000000000000000e+00  3.1140434485179620e-12 2.0341535009351673e-02 0.0000000000000000e+00  2.3870205436005685e-13 4.9636991239033444e-03 0.0000000000000000e+00  2.2513703547477120e-13 5.1894054441720943e-03 0.0000000000000000e+00  3.3042925798530821e-12 1.3510782192057036e-02 0.0000000000000000e+00  -1.5074999596952492e-12 1.1802731143145553e-02 0.0000000000000000e+00  2.9320725695611020e-12 8.6162487239894239e-03 0.0000000000000000e+00  -9.9122012254347610e-13 1.3078464348856827e-02 0.0000000000000000e+00  -3.3100807682151322e-13 2.7742439649147074e-02 0.0000000000000000e+00  -4.3334316981544671e-14 2.5813145299058409e-02 0.0000000000000000e+00  -1.4271877188493959e-13 2.6012211371347516e-02 0.0000000000000000e+00  -1.1652546000982890e-13 2.4691688233686091e-02 0.0000000000000000e+00  1.2771205521173876e-13 5.0926169145324399e-02 0.0000000000000000e+00  1.2948675512101165e-12 4.8592016129635811e-02 0.0000000000000000e+00  -2.4683694090095074e-12 4.9354462639871546e-02 0.0000000000000000e+00  -6.9558098566159545e-12 3.4692289274711761e-02 0.0000000000000000e+00  4.9015966614037847e-12 3.5132517538409451e-02 0.0000000000000000e+00  -6.7631321816172667e-13 2.6553479525682645e-02 0.0000000000000000e+00  5.6031168386275474e-14 3.8893316938082047e-02 0.0000000000000000e+00  8.2697597713000611e-13 3.9510789219593688e-02 0.0000000000000000e+00  -1.8262990997970510e-12 3.7859117355343690e-02 0.0000000000000000e+00  -2.0102656244231825e-12 3.6877130137052308e-02 0.0000000000000000e+00  -3.2411109657491189e-12 3.7802429213725217e-02 0.0000000000000000e+00  2.7458163397538903e-28 6.9132501193486736e-19 0.0000000000000000e+00  3.2487463557082519e-13 1.7637136490769312e-03 0.0000000000000000e+00  8.2742243148594369e-12 2.3991229023192693e-03 0.0000000000000000e+00  -1.3331182498807455e-13 3.1568623825197990e-02 0.0000000000000000e+00  5.3641845783590261e-13 3.2432939175056831e-02 0.0000000000000000e+00  1.4997444411892923e-11 4.6755451575229243e-02 0.0000000000000