<?xml version="1.0"?>
<VTKFile type="UnstructuredGrid"  version="0.1"  >
<UnstructuredGrid>
<Piece  NumberOfPoints="787" NumberOfCells="1467">
<Points>
<DataArray  type="Float64"  NumberOfComponents="3"  format="ascii">0.0253163763831596 -0.05095008515408326 0  0.02646635899959049 -0.05225988253257415 0  0.02502149670340228 -0.05243561046763882 0  0.0192363369162766 -0.06806970979678284 0  0.01785689970612189 -0.06858119646279974 0  0.01816465710605705 -0.06729533536873264 0  0.01263888697332505 -0.07850851049115726 0  0.01156618300102526 -0.08035095936378936 0  0.01063628931142468 -0.07857606263072298 0  0.03742133235740961 -0.09005672929239181 0  0.03821948520829777 -0.08878625345726171 0  0.03882498194897689 -0.09005259581168121 0  0.02831316747097568 -0.08353943177895332 0  0.02680418453963673 -0.08396552000116861 0  0.02856782985571023 -0.08503864443391608 0  0.02197300492838798 -0.07785849992225746 0  0.0236515119744492 -0.07882937295138227 0  0.02399582230499316 -0.07726175314528801 0  0.03830062369057925 -0.07890970096328502 0  0.04001413922274079 -0.07947217220789768 0  0.0394739904630113 -0.07822641714535092 0  0.03307580228966352 -0.05623244866465846 0  0.03304454983566926 -0.05808833194342944 0  0.03147362087845901 -0.05656070851086208 0  0.01008019185444602 -0.0897030704995445 0  0.01216681726782447 -0.08857720631714282 0  0.01204980799896014 -0.09085690702402351 0  0.01427753806508674 -0.08965722182118722 0  0.01499662781635355 -0.09120498855657148 0  0.01375614872125667 -0.09084038570529977 0  0.02454468748321089 -0.07169143887984709 0  0.02436733001795869 -0.07015802637527714 0  0.02295612571718715 -0.0715890179003351 0  0.01533533535351063 -0.06979991037261025 0  0.0177806445325376 -0.07005043122102393 0  0.01646203234597888 -0.06811342443084387 0  0.03965658412817928 -0.06102022076500465 0  0.03788556172893791 -0.06203052595151176 0  0.04026188792608635 -0.06274413791360257 0  0.04364884417698481 -0.07754216050898051 0  0.04382140937462677 -0.07954037552804112 0  0.0421967587521993 -0.07768066254010801 0  0.03348214285714286 -0.08348214285714287 0  0.03423230346285393 -0.08200465277485418 0  0.03243162425094744 -0.08246417709341107 0  0.03072628767995273 -0.06184751883997637 0  0.03115040578880909 -0.06003372802837696 0  0.03202687516019807 -0.06100224316397799 0  0.01914387172830702 -0.06345432668240811 0  0.01904183715184792 -0.06150750363943223 0  0.01763933584190689 -0.06216030655882796 0  0.01719551374627341 -0.0830513925183794 0  0.01933763519132608 -0.08192062756666578 0  0.01921813111793967 -0.08404606885628335 0  0.03470250342566425 -0.06222309747987002 0  0.03270661615787385 -0.06211766788261659 0  0.03364747500351112 -0.06325105457070009 0  0.0337884473891351 -0.05460718489330078 0  0.0321356245381919 -0.05463308953185839 0  0.01400809758125955 -0.08758125694359854 0  0.01289591636702387 -0.089754840573112 0  0.03188613320287887 -0.09091108404481391 0  0.0300036120570274 -0.09202382523642311 0  0.03071003455387907 -0.09027106838440507 0  0.03949346768185091 -0.08799370978142433 0  0.04083982813554821 -0.0893700658764271 0  0.02938595614515601 -0.08632050280733992 0  0.03040971863707885 -0.08765127485705719 0  0.02890982094386123 -0.08799498718573706 0  0.04345783710819453 -0.09110483561269606 0  0.04497005514864892 -0.09093463669157506 0  0.0430759581110159 -0.08978773661708545 0  0.0247793305670809 -0.05631957595084435 0  0.02619917778579364 -0.05802778737135143 0  0.02492128034734876 -0.05869428615775265 0  0.02164306295595804 -0.06702658770968295 0  0.02309723803175772 -0.06832518233624925 0  0.02097971601908238 -0.06879409185499595 0  0.02057363836381549 -0.07561467685960577 0  0.01923138543540909 -0.07596279202513538 0  0.0201836820135381 -0.07437805413953116 0  0.03169978531106885 -0.08534923982812244 0  0.0331891491596804 -0.0863907328258092 0  0.03075063691921128 -0.08632983044099815 0  0.01711132032047017 -0.07193570335093875 0  0.01598258986133356 -0.07106798872868814 0  0.03505406134441619 -0.08335106406575787 0  0.03311297132996835 -0.08491400694606925 0  0.02804257120035339 -0.07849071976552029 0  0.03034478515829682 -0.07792111926930155 0  0.02892546366582221 -0.07680880088540872 0  0.02416154146863935 -0.08070016162395202 0  0.0224843414054342 -0.08250864398128172 0  0.02411024678398856 -0.08233455566936589 0  0.025334823172674 -0.08341820123348352 0  0.02522643562136178 -0.08512845143297179 0  0.01649073826091686 -0.06319659086967212 0  0.01570123454296709 -0.06506178719416507 0  0.01770106090999505 -0.06452207583910662 0  0.01728938824664831 -0.06065342293474459 0  0.04464334080337827 -0.06477056026673604 0  0.04502387202811982 -0.06659229383285178 0  0.04636594091932174 -0.06552590861214863 0  0.01809300284513205 -0.05689299134079161 0  0.01981701831826052 -0.05842591866861049 0  0.01792103282159441 -0.05882232399720749 0  0.01454995940546648 -0.05199794358506395 0  0.01686434304608255 -0.05145915617355584 0  0.01581567795051093 -0.04979263651326838 0  0.03869863810845114 -0.05851213874557144 0  0.04018585363524062 -0.05724246148436949 0  0.03970578764389624 -0.05956444608131971 0  0.04500704918173798 -0.08941332064415353 0  0.0468279944940574 -0.09080811063091072 0  0.04534211210420257 -0.09241021952437389 0  0.04670060681091085 -0.09670060681091086 0  0.04504539898905737 -0.09601953464091741 0  0.04639081665769942 -0.09510162937447562 0  0.04205467609998415 -0.06146564627654705 0  0.04107518642763387 -0.06006088126008405 0  0.04241869617792832 -0.06016796568913897 0  0.03694482364888862 -0.07483282559208632 0  0.03610885884382378 -0.07281806235528819 0  0.03807023319162758 -0.07320682963349499 0  0.02958027680234551 -0.07172324007054222 0  0.02856154711422706 -0.07386136174728263 0  0.02755543059494003 -0.07239631376986599 0  0.03639778858618781 -0.07619102435699082 0  0.0384705842660954 -0.07508656202965074 0  0.04684624656174251 -0.07187500000000001 0  0.04842312328087126 -0.07343340336823168 0  0.04685549256184014 -0.07344263060849651 0  0.04337196116786825 -0.07463925880684733 0  0.04210124169070797 -0.07622511749289544 0  0.04354979210673399 -0.07608378292408841 0  0.03637679552963742 -0.07765509762578199 0  0.0385769480595515 -0.0766296156204922 0  0.02736491626781095 -0.07590524263897044 0  0.02687859119369121 -0.07741425412276508 0  0.009435764744425919 -0.08043238240966273 0  0.00926086646052551 -0.08713687094856779 0  0.01084917183279576 -0.08758400344942135 0  0.009765258461052893 -0.08838972595063958 0  0.025 -0.1 0  0.02574660752638188 -0.09831523885802962 0  0.02425762309203308 -0.09845112215652949 0  0.02717161535066178 -0.09714682300539645 0  0.02814040517327717 -0.09840897789012983 0  0.0287187101773846 -0.09677522339481145 0  0.01875 -0.09260679016400503 0  0.01746426634563599 -0.0946966824898527 0  0.02000489244543809 -0.09471513491297798 0  0.04446421559415197 -0.08718473081338503 0  0.04367940145364908 -0.0885562994627993 0  0.02088671269095009 -0.06240702469651116 0  0.0278582381998454 -0.05655080703154879 0  0.02860271266695176 -0.05463752982112181 0  0.02637310899341614 -0.0557118438524549 0  0.02378330144214598 -0.0516705092605356 0  0.02507311958935473 -0.06271161136998743 0  0.02657608507230502 -0.06228073040903606 0  0.02551730029560318 -0.06142426381158862 0  0.0305796626780135 -0.05519119088158705 0  0.0328125 -0.05312500000000001 0  0.0376081921684235 -0.05245551308128505 0  0.03762419922489806 -0.05459874974087802 0  0.03635973676985995 -0.05369008569158945 0  0.04767128262860884 -0.05537540323700023 0  0.04546530640752131 -0.05503961419206276 0  0.04578782911147741 -0.05675321623119051 0  0.03686548041120438 -0.06032818054708596 0  0.036644526860098 -0.05856190909012812 0  0.03769074722308389 -0.05932798700863462 0  0.02063243529930224 -0.08719964433792667 0  0.01908514024155837 -0.0863776329894482 0  0.0199696387685163 -0.08525850927813482 0  0.006250000000000001 -0.08914373740925415 0  0.007964066885959199 -0.090800007287408 0  0.008299592740779536 -0.0888576775342028 0  0.008695080668314235 -0.07807940410525299 0  0.0155154430127655 -0.07780260757679426 0  0.01598440846056885 -0.07579471522088828 0  0.01473201805325772 -0.07656091781105955 0  0.04321758283034931 -0.06704044172466167 0  0.04133630972986371 -0.06599851068428712 0  0.04130559735643655 -0.06764829107165204 0  0.04313110864619899 -0.06285939600837437 0  0.04345056050076136 -0.06150011966148285 0  0.02073553625659391 -0.06054214652517984 0  0.01913420206319778 -0.05989244632510003 0  0.03660603257347798 -0.08363301208285871 0  0.03867852709227757 -0.08328665052822476 0  0.03686505600937307 -0.08180844633712978 0  0.03556210456271347 -0.08208668761276301 0  0.05 -0.08437500000000001 0  0.05 -0.0859375 0  0.04860490583514159 -0.08575133884125646 0  0.04553386586880761 -0.08075612830980353 0  0.04441800636074661 -0.08248315021781349 0  0.0457909677211155 -0.08214624565084092 0  0.04210310889254143 -0.08866781429134733 0  0.037033205797572 -0.05682482417137066 0  0.03841317868273451 -0.05712832193281868 0  0.04143681828516032 -0.09324577512300852 0  0.04028474823910268 -0.09217836090091314 0  0.04215449354704975 -0.0918988737706147 0  0.0472227281394374 -0.06404123962307648 0  0.04542281870194612 -0.06345085768052849 0  0.04651019676850526 -0.06237066804404576 0  0.01512933394003292 -0.07220768844695416 0  0.02353466441496152 -0.07572444547906115 0  0.02206053129225047 -0.07549746227010537 0  0.02286879863971965 -0.07432437058595016 0  0.02389766944944421 -0.05336055352824819 0  0.02505789171550941 -0.05462571702396751 0  0.0200352813999171 -0.04944197410413204 0  0.01897132622274226 -0.04818917069836885 0  0.02039596393456947 -0.04786566231201216 0  0.02255522939491745 -0.05050381790686167 0  0.02095559199324484 -0.05077897888898596 0  0.02151442938367597 -0.04940906557037485 0  0.03419217537052396 -0.09402564429600242 0  0.03559757304728373 -0.09285131497116357 0  0.03429324813307534 -0.09271847386402299 0  0.03956847501260272 -0.09552117233795018 0  0.03805996984719
[...]
<PointData  Vectors="displacement"> 
<DataArray  type="Float64"  Name="displacement"  NumberOfComponents="3" format="ascii">1.0424234563046755e-10 5.4452922672956740e-02 0.0000000000000000e+00  -9.3687477929658195e-11 5.2998846863478145e-02 0.0000000000000000e+00  -6.3798098152854566e-11 5.2803761885391390e-02 0.0000000000000000e+00  -1.8800406509024480e-11 3.5447515600894382e-02 0.0000000000000000e+00  -2.9570107924516537e-11 3.4879686992821041e-02 0.0000000000000000e+00  3.0586799315900924e-11 3.6307189948437006e-02 0.0000000000000000e+00  -6.4057351290170618e-12 2.3858847065529584e-02 0.0000000000000000e+00  5.0879253539080292e-12 2.1813446468116046e-02 0.0000000000000000e+00  -1.1695394447724482e-11 2.3783853838926020e-02 0.0000000000000000e+00  -1.5051392873325324e-11 1.1038554348913697e-02 0.0000000000000000e+00  1.0140575210409511e-13 1.2448977251616420e-02 0.0000000000000000e+00  1.2711281236383914e-11 1.1043143159406112e-02 0.0000000000000000e+00  -4.0422495085479610e-11 1.8273753438387511e-02 0.0000000000000000e+00  -1.4614548738960346e-11 1.7800730184061152e-02 0.0000000000000000e+00  2.1674682327722147e-11 1.6609397563853854e-02 0.0000000000000000e+00  5.9307727138790479e-12 2.4580458421126428e-02 0.0000000000000000e+00  -1.2656615016027321e-11 2.3502640544900130e-02 0.0000000000000000e+00  1.6466865418625883e-11 2.5242938826556243e-02 0.0000000000000000e+00  9.5849342133707971e-12 2.3413464155324845e-02 0.0000000000000000e+00  7.8293247561305392e-12 2.2789034868125821e-02 0.0000000000000000e+00  -6.4543075450598047e-12 2.4172013928765803e-02 0.0000000000000000e+00  -4.3961375694979038e-11 4.8588689637132775e-02 0.0000000000000000e+00  -6.8680847689911471e-13 4.6528374828745479e-02 0.0000000000000000e+00  1.2676551251129813e-10 4.8224270894048071e-02 0.0000000000000000e+00  1.6243346682624981e-11 1.1431169831337885e-02 0.0000000000000000e+00  -2.4813538070148627e-12 1.2681051596810581e-02 0.0000000000000000e+00  -1.8048469245908569e-11 1.0150234465277354e-02 0.0000000000000000e+00  -4.2912808138525190e-12 1.1482068902973642e-02 0.0000000000000000e+00  1.7594696915321952e-11 9.7638106200247533e-03 0.0000000000000000e+00  -4.7239089931228477e-11 1.0168575583525371e-02 0.0000000000000000e+00  -9.9392358388841676e-12 3.1426841322756131e-02 0.0000000000000000e+00  4.3794041337625559e-11 3.3129164179913198e-02 0.0000000000000000e+00  -5.9412341358539128e-11 3.1540544299049060e-02 0.0000000000000000e+00  -1.8077380077309635e-12 3.3526727842100798e-02 0.0000000000000000e+00  -5.1354653297025165e-11 3.3248611350321304e-02 0.0000000000000000e+00  8.9016353963966486e-13 3.5398985759038257e-02 0.0000000000000000e+00  -3.4225971763493275e-13 4.3273528869410605e-02 0.0000000000000000e+00  -9.7627455014114500e-13 4.2151935270459052e-02 0.0000000000000000e+00  1.6156249519012416e-11 4.1359716621172292e-02 0.0000000000000000e+00  -4.2701914552552352e-12 2.4931643650929904e-02 0.0000000000000000e+00  -3.1244584375334040e-12 2.2713318742288432e-02 0.0000000000000000e+00  2.3672995547741835e-12 2.4777885162988466e-02 0.0000000000000000e+00  -1.1538248635587019e-11 1.8337352862526649e-02 0.0000000000000000e+00  1.0728476411799078e-11 1.9977593341224061e-02 0.0000000000000000e+00  2.1877430247252795e-11 1.9467450923967688e-02 0.0000000000000000e+00  7.4961478942132525e-11 4.2355101206887680e-02 0.0000000000000000e+00  -3.9372379006057766e-11 4.4368686967354562e-02 0.0000000000000000e+00  -1.4952154408521859e-12 4.3293486869512211e-02 0.0000000000000000e+00  -6.7150888124359087e-11 4.0571298286383568e-02 0.0000000000000000e+00  1.6242667716924626e-10 4.2732570195066412e-02 0.0000000000000000e+00  -6.8870342187343401e-11 4.2007858912125461e-02 0.0000000000000000e+00  -2.5156819410200839e-11 1.8815551800274350e-02 0.0000000000000000e+00  1.3338610093624113e-11 2.0070874172489948e-02 0.0000000000000000e+00  1.5539426910853147e-11 1.7711308607996593e-02 0.0000000000000000e+00  2.4363660701273369e-12 4.1938151376556182e-02 0.0000000000000000e+00  3.9331054765201825e-12 4.2055194397255170e-02 0.0000000000000000e+00  -1.2973955585643370e-11 4.0796961437326272e-02 0.0000000000000000e+00  -4.7431963340902793e-11 5.0392981364276106e-02 0.0000000000000000e+00  2.5019656889720569e-11 5.0364223545244217e-02 0.0000000000000000e+00  -2.0853843305757313e-11 1.3786708045658000e-02 0.0000000000000000e+00  4.7996723361418575e-11 1.1373697101884269e-02 0.0000000000000000e+00  -2.0386398450763152e-11 1.0090089641767106e-02 0.0000000000000000e+00  1.2151734814837595e-12 8.8547763956618314e-03 0.0000000000000000e+00  1.7364581732202853e-11 1.0800605109682258e-02 0.0000000000000000e+00  -1.7338947979220036e-11 1.3328822164717346e-02 0.0000000000000000e+00  1.9314840896505720e-11 1.1800856000242827e-02 0.0000000000000000e+00  3.5955905589806659e-12 1.5186338399291661e-02 0.0000000000000000e+00  -1.8602519677076140e-11 1.3708977445743818e-02 0.0000000000000000e+00  4.6777253641809670e-12 1.3327404077372056e-02 0.0000000000000000e+00  5.8160222012249577e-12 9.8749957120340594e-03 0.0000000000000000e+00  -3.6921052949853325e-12 1.0063942593444867e-02 0.0000000000000000e+00  1.0234450650051707e-11 1.1337177460422242e-02 0.0000000000000000e+00  1.1350868906363661e-10 4.8491965160985945e-02 0.0000000000000000e+00  8.8911097809417956e-11 4.6595588449936838e-02 0.0000000000000000e+00  -4.4012661860007601e-11 4.5855672651296794e-02 0.0000000000000000e+00  1.1684815507227662e-11 3.6605541019350346e-02 0.0000000000000000e+00  3.2043710704235706e-12 3.5163902008877833e-02 0.0000000000000000e+00  9.9777722462869889e-12 3.4643340537526747e-02 0.0000000000000000e+00  2.6081727758567699e-12 2.7071445860368401e-02 0.0000000000000000e+00  -2.0742551465139722e-12 2.6684984723339245e-02 0.0000000000000000e+00  -3.9863288032148707e-12 2.8444286644532170e-02 0.0000000000000000e+00  4.0862603340572435e-11 1.6264589096222592e-02 0.0000000000000000e+00  -4.3807357758154928e-12 1.5108372286627605e-02 0.0000000000000000e+00  -4.0544397003305887e-11 1.5175983242466891e-02 0.0000000000000000e+00  3.5449304556035296e-11 3.1155670321747327e-02 0.0000000000000000e+00  4.0065590241059923e-12 3.2118966504064921e-02 0.0000000000000000e+00  1.3604491192359543e-12 1.8482870447811345e-02 0.0000000000000000e+00  -1.4041490192581022e-11 1.6747764328546008e-02 0.0000000000000000e+00  -1.9945623982967576e-11 2.3878597512074447e-02 0.0000000000000000e+00  3.9611685833181817e-12 2.4510941350099957e-02 0.0000000000000000e+00  4.5901630091249404e-12 2.5745785209345812e-02 0.0000000000000000e+00  1.6338123212625498e-11 2.1425778445428860e-02 0.0000000000000000e+00  3.5408693897194739e-12 1.9418085847437448e-02 0.0000000000000000e+00  -2.1967934660249134e-11 1.9611350555162027e-02 0.0000000000000000e+00  -1.7915026094559309e-11 1.8408337915667587e-02 0.0000000000000000e+00  -1.1654321662501313e-11 1.6509698065681769e-02 0.0000000000000000e+00  -1.2919034465052772e-11 4.0857424544506665e-02 0.0000000000000000e+00  -8.0467358253555610e-12 3.8786770724480904e-02 0.0000000000000000e+00  7.1903154931476278e-11 3.9385933041580126e-02 0.0000000000000000e+00  6.1281398382870770e-11 4.3680730616311204e-02 0.0000000000000000e+00  4.4325420419155971e-12 3.9110077246068853e-02 0.0000000000000000e+00  1.5162382791633941e-12 3.7087673803073373e-02 0.0000000000000000e+00  -1.0168347155686000e-11 3.8271524835395317e-02 0.0000000000000000e+00  -1.1875434881842494e-10 4.7855386038679310e-02 0.0000000000000000e+00  4.7419790732121661e-11 4.6153601819108520e-02 0.0000000000000000e+00  1.9316343121699093e-11 4.5713530981169974e-02 0.0000000000000000e+00  1.6876781175851732e-11 5.3289639269205498e-02 0.0000000000000000e+00  1.7159612808718763e-11 5.3887775869038097e-02 0.0000000000000000e+00  2.1428442386668776e-11 5.5737868074088710e-02 0.0000000000000000e+00  2.9817860937046586e-11 4.6057884307653105e-02 0.0000000000000000e+00  1.9897571303591674e-11 4.7467420621937172e-02 0.0000000000000000e+00  -1.3197916635795835e-12 4.4889661906330543e-02 0.0000000000000000e+00  3.6663268032259959e-12 1.1752836567278355e-02 0.0000000000000000e+00  7.3879063713250972e-12 1.0204405917136795e-02 0.0000000000000000e+00  6.7377706469241190e-12 8.4258195108489128e-03 0.0000000000000000e+00  -2.6749467937082177e-12 3.6628320910813928e-03 0.0000000000000000e+00  4.4680772480499986e-12 4.4189265739999475e-03 0.0000000000000000e+00  -4.2649743764508528e-12 5.4379420973307288e-03 0.0000000000000000e+00  -5.7890944301594495e-13 4.2779038295056117e-02 0.0000000000000000e+00  -5.8146044999005362e-14 4.4338542717672069e-02 0.0000000000000000e+00  3.3880553597829084e-11 4.4219662593303864e-02 0.0000000000000000e+00  5.9885464495447804e-12 2.7939420631163066e-02 0.0000000000000000e+00  -8.2341023681154735e-12 3.0176116607411232e-02 0.0000000000000000e+00  -7.1818835847925968e-13 2.9744525344768763e-02 0.0000000000000000e+00  4.0659223579435252e-11 3.1391537114168699e-02 0.0000000000000000e+00  1.5955370642135048e-11 2.9017894363155692e-02 0.0000000000000000e+00  -5.1459843120797013e-11 3.0644322135327636e-02 0.0000000000000000e+00  1.0999233230909535e-12 2.6431611841295371e-02 0.0000000000000000e+00  -7.9875267408241825e-12 2.7657734306913838e-02 0.0000000000000000e+00  -2.9292571510687791e-12 3.1223060353313681e-02 0.0000000000000000e+00  -5.9514839433726482e-12 2.9492993773441473e-02 0.0000000000000000e+00  7.2767331393254677e-12 2.9482750113649262e-02 0.0000000000000000e+00  -3.5790388073119048e-12 2.8154309424487690e-02 0.0000000000000000e+00  -4.2560523226836672e-12 2.6393763248883411e-02 0.0000000000000000e+00  2.4898622296644742e-13 2.6550666262618400e-02 0.0000000000000000e+00  -6.3960718419226501e-12 2.4806266157047504e-02 0.0000000000000000e+00  -5.6694296766882306e-12 2.5944708334633172e-02 0.0000000000000000e+00  -6.0004063314717341e-12 2.6748873369961488e-02 0.0000000000000000e+00  -9.4203631081676147e-12 2.5073639328810477e-02 0.0000000000000000e+00  -1.8635908055284691e-12 2.1723054380346194e-02 0.0000000000000000e+00  -1.1035826991172338e-11 1.4280044610513878e-02 0.0000000000000000e+00  -1.0397168868651485e-11 1.3783659028775992e-02 0.0000000000000000e+00  -2.1421439733632032e-11 1.2889183503363447e-02 0.0000000000000000e+00  -2.4684005690721382e-27 4.4173748823302604e-19 0.0000000000000000e+00  -1.4505191285222460e-11 1.8703430934926789e-03 0.0000000000000000e+00  -3.1526627036300211e-12 1.7194917784636820e-03 0.0000000000000000e+00  -8.7644259354334574e-12 3.1674637399173255e-03 0.0000000000000000e+00  6.9128456459129675e-12 1.7662784163993801e-03 0.0000000000000000e+00  2.2109258500797024e-11 3.5799962736550485e-03 0.0000000000000000e+00  1.6878100179323040e-11 8.2075959164870961e-03 0.0000000000000000e+00  -1.9668449110992667e-12 5.8874951704765786e-03 0.0000000000000000e+00  5.9554547780552606e-12 5.8670102177893679e-03 0.0000000000000000e+00  1.8976159679441113e-12 1.4226912834397653e-02 0.0000000000000000e+00  -1.2937236947579404e-12 1.2704261409481896e-02 0.0000000000000000e+00  -9.6959061001560813e-11 4.1733964020762168e-02 0.0000000000000000e+00  1.7008561559753160e-11 4.8235263181244249e-02 0.0000000000000000e+00  -2.8334382007127450e-11 5.0359293940042862e-02 0.0000000000000000e+00  -4.8257702420086764e-11 4.9166640816856198e-02 0.0000000000000000e+00  1.3223416476782234e-11 5.3653141624969633e-02 0.0000000000000000e+00  1.3235403879181151e-10 4.1395826217490349e-02 0.0000000000000000e+00  2.8724065261145268e-12 4.1874169900019180e-02 0.0000000000000000e+00  -7.9608326060301001e-11 4.2824979177618724e-02 0.0000000000000000e+00  -8.2163624875433149e-11 4.9744645353394824e-02 0.0000000000000000e+00  -4.3693832101823938e-11 5.2038433928804619e-02 0.0000000000000000e+00  9.3944604411095482e-13 5.2781666963528463e-02 0.0000000000000000e+00  -8.4115673896977385e-12 5.0402345867788141e-02 0.0000000000000000e+00  -2.0117548792435330e-10 5.1411102041021915e-02 0.0000000000000000e+00  2.9757151694987482e-11 4.9540141431568749e-02 0.0000000000000000e+00  -3.7673952941473887e-11 4.9912918702852277e-02 0.0000000000000000e+00  -2.8849854487228053e-11 4.8010557851857351e-02 0.0000000000000000e+00  -1.5592905154231200e-11 4.4041799563141040e-02 0.0000000000000000e+00  1.2841961763719888e-12 4.6002631577259437e-02 0.0000000000000000e+00  1.0552199590922148e-11 4.5152167650240820e-02 0.0000000000000000e+00  7.1748319491052300e-12 1.4210356508715469e-02 0.0000000000000000e+00  -1.1963900451746979e-11 1.5122915121886869e-02 0.0000000000000000e+00  -4.3543688265544954e-11 1.6365313944262935e-02 0.0000000000000000e+00  9.9638770784223613e-12 1.2052115279501202e-02 0.0000000000000000e+00  -2.9129930669652962e-11 1.0213401889853478e-02 0.0000000000000000e+00  1.5267815862876973e-11 1.2369685569201266e-02 0.0000000000000000e+00  7.2941245510190569e-12 2.4335220933906710e-02 0.0000000000000000e+00  3.9425363489929805e-12 2.4642507488950683e-02 0.0000000000000000e+00  1.3173413947987815e-11 2.6871575761695139e-02 0.0000000000000000e+00  -1.0020475236284282e-11 2.6020973411944689e-02 0.0000000000000000e+00  -3.5871565559299308e-12 3.6590160955475036e-02 0.0000000000000000e+00  3.0926455699721059e-12 3.7746864096740794e-02 0.0000000000000000e+00  -9.4164481104743406e-13 3.5915355024234007e-02 0.0000000000000000e+00  -3.3935923098740760e-12 4.1231762476815224e-02 0.0000000000000000e+00  1.2536004176732177e-11 4.2740767563960141e-02 0.0000000000000000e+00  -2.6874825516877480e-11 4.3804264562206485e-02 0.0000000000000000e+00  -5.1436697559182584e-11 4.4525531415779661e-02 0.0000000000000000e+00  -7.9466451862567038e-12 1.8169864936980980e-02 0.0000000000000000e+00  -4.9964232257051065e-12 1.8554379370587321e-02 0.0000000000000000e+00  4.2797958252004932e-12 2.0195412529900692e-02 0.0000000000000000e+00  -1.1225176364380343e-11 1.9886522101008015e-02 0.0000000000000000e+00  -2.8413957196122191e-28 1.7346144640556307e-02 0.0000000000000000e+00  -3.3041407639966869e-28 1.5611530171504873e-02 0.0000000000000000e+00  1.5730723432150012e-12 1.5818197579040353e-02 0.0000000000000000e+00  -4.4845189352354204e-12 2.1363646838585444e-02 0.0000000000000000e+00  2.6308835829093187e-12 1.9446387839333182e-02 0.0000000000000000e+00  3.6995811468042222e-12 1.9820403536330140e-02 0.0000000000000000e+00  -1.7451650136448755e-11 1.2580462869938445e-02 0.0000000000000000e+00  3.1175433752429357e-11 4.7931061996935129e-02 0.0000000000000000e+00  -4.3341181709110253e-11 4.7594133013058149e-02 0.0000000000000000e+00  8.4609853054995273e-12 7.4982247497002484e-03 0.0000000000000000e+00  3.8652469599691749e-12 8.6832181135290468e-03 0.0000000000000000e+00  5.6632073554651552e-13 8.9934916778032729e-03 0.0000000000000000e+00  3.4712304375038231e-12 3.9919734934288582e-02 0.0000000000000000e+00  1.8172519895703754e-12 4.0575149386169670e-02 0.0000000000000000e+00  -7.4798526848303544e-12 4.1774325419953157e-02 0.0000000000000000e+00  -4.0106023160613736e-12 3.0853725196462244e-02 0.0000000000000000e+00  -2.0378920713412932e-12 2.6949585927769703e-02 0.0000000000000000e+00  1.8248850216504331e-11 2.7201572075573922e-02 0.0000000000000000e+00  -2.5379228109000989e-11 2.8503883589040289e-02 0.0000000000000000e+00  1.6153764566684659e-10 5.1776933348409424e-02 0.0000000000000000e+00  -1.2669431527376069e-10 5.0372407969657487e-02 0.0000000000000000e+00  7.3517568680483931e-12 5.6127157003887346e-02 0.0000000000000000e+00  2.6054064018313039e-11 5.7517960879574170e-02 0.0000000000000000e+00  6.6147057678643274e-12 5.7877104773591558e-02 0.0000000000000000e+00  -2.8427475993844609e-12 5.4948347691067358e-02 0.0000000000000000e+00  1.6860226780676701e-11 5.4642876872330395e-02 0.0000000000000000e+00  -5.3258536759793175e-11 5.6163690637438236e-02 0.0000000000000000e+00  -9.9911853789020696e-13 6.6324504514811543e-03 0.0000000000000000e+00  -5.2281523162511027e-12 7.9361359582053002e-03 0.0000000000000000e+00  -1.7530404104210511e-11 8.0836099962627011e-03 0.0000000000000000e+00  5.6897798075573191e-12 4.9721851272349288e-03 0.0000000000000000e+00  -8.2869560829323077e-12 3.7867387779413164e-03 0.0000000000000000e+00  1.4628906969105410e-11 3.3315051449614814e-03 0.0000000000000000e+00  -1.5518550836463565e-11 4.1037980020007889e-03 0.0000000000000000e+00  -3.0071146193091351e-11 6.0666133522393620e-03 0.0000000000000000e+00  3.3028101372394214e-12 6.7179796900379146e-03 0.0000000000000000e+00  -7.0572923245165560e-12 9.8670655179394148e-03 0.0000000000000000e+00  5.1686189234511924e-12 7.0572786728507050e-03 0.0000000000000000e+00  -1.3151964157054961e-11 8.4594045695782476e-03 0.0000000000000000e+00  1.4516913521190017e-11 8.4600741397881547e-03 0.0000000000000000e+00  -2.0975104304511588e-11 8.6376739979168188e-03 0.0000000000000000e+00  -5.5205352420463422e-11 1.0585565108475938e-02 0.0000000000000000e+00  -3.3121001705735228e-12 7.6235664089619321e-03 0.0000000000000000e+00  2.4908819726976313e-11 8.9013777834800190e-03 0.0000000000000000e+00  -4.1216290877503126e-11 1.0475776950423442e-02 0.0000000000000000e+00  2.9583665148627029e-11 9.1699260967474609e-03 0.0000000000000000e+00  2.0147797005097298e-11 9.1033642086098265e-03 0.0000000000000000e+00  -1.8868313417743251e-11 3.2510941089280029e-02 0.0000000000000000e+00  -2.4769694416769039e-11 3.3716195032858207e-02 0.0000000000000000e+00  1.2705062384166226e-10 3.4468091473885736e-02 0.0000000000000000e+00  6.1412006108988632e-12 2.9590317478632753e-02 0.0000000000000000e+00  5.3253086973676840e-12 2.8916005086890035e-02 0.0000000000000000e+00  -2.2827518518769512e-11 2.7934342933125259e-02 0.0000000000000000e+00  -2.2450859475807635e-11 1.7483051199990548e-02 0.0000000000000000e+00  -1.4812597921495486e-11 1.6061465492192357e-02 0.0000000000000000e+00  -5.0424652072044354e-12 1.4446404156859913e-02 0.0000000000000000e+00  2.7230067553186751e-12 2.2314029492300991e-02 0.0000000000000000e+00  1.5831446506029855e-12 2.4258777860868743e-02 0.0000000000000000e+00  -4.4564864057653528e-12 2.4222498787488160e-02 0.0000000000000000e+00  -5.8106182195044807e-11 1.8807322377101508e-02 0.0000000000000000e+00  3.7944801252587186e-11 2.0341535020166737e-02 0.0000000000000000e+00  2.9058908502701843e-12 4.9636991356632760e-03 0.0000000000000000e+00  2.8126127484585869e-12 5.1894054535482305e-03 0.0000000000000000e+00  3.9704502344269233e-11 1.3510782186876635e-02 0.0000000000000000e+00  -1.7973585049448949e-11 1.1802731152860972e-02 0.0000000000000000e+00  3.5178301123431500e-11 8.6162487250062668e-03 0.0000000000000000e+00  -1.1809318149512267e-11 1.3078464365572374e-02 0.0000000000000000e+00  -4.0801956208759984e-12 2.7742439650969938e-02 0.0000000000000000e+00  -6.1456183874980287e-13 2.5813145297861086e-02 0.0000000000000000e+00  -1.7339565682648556e-12 2.6012211374653264e-02 0.0000000000000000e+00  -1.3992529518382136e-12 2.4691688232846370e-02 0.0000000000000000e+00  1.4683141127789523e-12 5.0926169118560301e-02 0.0000000000000000e+00  1.5797355135224408e-11 4.8592016174643968e-02 0.0000000000000000e+00  -3.0259445136001744e-11 4.9354462674468032e-02 0.0000000000000000e+00  -8.4961512049221179e-11 3.4692289304733767e-02 0.0000000000000000e+00  5.9601728480315601e-11 3.5132517411038039e-02 0.0000000000000000e+00  -8.6256550510068365e-12 2.6553479522199417e-02 0.0000000000000000e+00  6.0507141607842339e-13 3.8893316941394307e-02 0.0000000000000000e+00  1.0026371362421242e-11 3.9510789211171904e-02 0.0000000000000000e+00  -2.2357878381852660e-11 3.7859117333665898e-02 0.0000000000000000e+00  -2.4519516047763452e-11 3.6877130157560362e-02 0.0000000000000000e+00  -3.9563741697865281e-11 3.7802429227085189e-02 0.0000000000000000e+00  6.8929458460028695e-27 -8.1332354345278513e-20 0.0000000000000000e+00  3.9411158135026524e-12 1.7637137076269788e-03 0.0000000000000000e+00  1.0149117905825487e-10 2.3991228824780724e-03 0.0000000000000000e+00  -1.6278931432153962e-12 3.1568623827508045e-02 0.0000000000000000e+00  6.6119749503247433e-12 3.2432939174933846e-02 0.0000000000000000e+00  1.8304674439100836e-10 4.6755451439446635e-02 0.0000000000