<?xml version="1.0"?>
<VTKFile type="UnstructuredGrid"  version="0.1"  >
<UnstructuredGrid>
<Piece  NumberOfPoints="787" NumberOfCells="1467">
<Points>
<DataArray  type="Float64"  NumberOfComponents="3"  format="ascii">0.0253163763831596 -0.05095008515408326 0  0.02646635899959049 -0.05225988253257415 0  0.02502149670340228 -0.05243561046763882 0  0.0192363369162766 -0.06806970979678284 0  0.01785689970612189 -0.06858119646279974 0  0.01816465710605705 -0.06729533536873264 0  0.01263888697332505 -0.07850851049115726 0  0.01156618300102526 -0.08035095936378936 0  0.01063628931142468 -0.07857606263072298 0  0.03742133235740961 -0.09005672929239181 0  0.03821948520829777 -0.08878625345726171 0  0.03882498194897689 -0.09005259581168121 0  0.02831316747097568 -0.08353943177895332 0  0.02680418453963673 -0.08396552000116861 0  0.02856782985571023 -0.08503864443391608 0  0.02197300492838798 -0.07785849992225746 0  0.0236515119744492 -0.07882937295138227 0  0.02399582230499316 -0.07726175314528801 0  0.03830062369057925 -0.07890970096328502 0  0.04001413922274079 -0.07947217220789768 0  0.0394739904630113 -0.07822641714535092 0  0.03307580228966352 -0.05623244866465846 0  0.03304454983566926 -0.05808833194342944 0  0.03147362087845901 -0.05656070851086208 0  0.01008019185444602 -0.0897030704995445 0  0.01216681726782447 -0.08857720631714282 0  0.01204980799896014 -0.09085690702402351 0  0.01427753806508674 -0.08965722182118722 0  0.01499662781635355 -0.09120498855657148 0  0.01375614872125667 -0.09084038570529977 0  0.02454468748321089 -0.07169143887984709 0  0.02436733001795869 -0.07015802637527714 0  0.02295612571718715 -0.0715890179003351 0  0.01533533535351063 -0.06979991037261025 0  0.0177806445325376 -0.07005043122102393 0  0.01646203234597888 -0.06811342443084387 0  0.03965658412817928 -0.06102022076500465 0  0.03788556172893791 -0.06203052595151176 0  0.04026188792608635 -0.06274413791360257 0  0.04364884417698481 -0.07754216050898051 0  0.04382140937462677 -0.07954037552804112 0  0.0421967587521993 -0.07768066254010801 0  0.03348214285714286 -0.08348214285714287 0  0.03423230346285393 -0.08200465277485418 0  0.03243162425094744 -0.08246417709341107 0  0.03072628767995273 -0.06184751883997637 0  0.03115040578880909 -0.06003372802837696 0  0.03202687516019807 -0.06100224316397799 0  0.01914387172830702 -0.06345432668240811 0  0.01904183715184792 -0.06150750363943223 0  0.01763933584190689 -0.06216030655882796 0  0.01719551374627341 -0.0830513925183794 0  0.01933763519132608 -0.08192062756666578 0  0.01921813111793967 -0.08404606885628335 0  0.03470250342566425 -0.06222309747987002 0  0.03270661615787385 -0.06211766788261659 0  0.03364747500351112 -0.06325105457070009 0  0.0337884473891351 -0.05460718489330078 0  0.0321356245381919 -0.05463308953185839 0  0.01400809758125955 -0.08758125694359854 0  0.01289591636702387 -0.089754840573112 0  0.03188613320287887 -0.09091108404481391 0  0.0300036120570274 -0.09202382523642311 0  0.03071003455387907 -0.09027106838440507 0  0.03949346768185091 -0.08799370978142433 0  0.04083982813554821 -0.0893700658764271 0  0.02938595614515601 -0.08632050280733992 0  0.03040971863707885 -0.08765127485705719 0  0.02890982094386123 -0.08799498718573706 0  0.04345783710819453 -0.09110483561269606 0  0.04497005514864892 -0.09093463669157506 0  0.0430759581110159 -0.08978773661708545 0  0.0247793305670809 -0.05631957595084435 0  0.02619917778579364 -0.05802778737135143 0  0.02492128034734876 -0.05869428615775265 0  0.02164306295595804 -0.06702658770968295 0  0.02309723803175772 -0.06832518233624925 0  0.02097971601908238 -0.06879409185499595 0  0.02057363836381549 -0.07561467685960577 0  0.01923138543540909 -0.07596279202513538 0  0.0201836820135381 -0.07437805413953116 0  0.03169978531106885 -0.08534923982812244 0  0.0331891491596804 -0.0863907328258092 0  0.03075063691921128 -0.08632983044099815 0  0.01711132032047017 -0.07193570335093875 0  0.01598258986133356 -0.07106798872868814 0  0.03505406134441619 -0.08335106406575787 0  0.03311297132996835 -0.08491400694606925 0  0.02804257120035339 -0.07849071976552029 0  0.03034478515829682 -0.07792111926930155 0  0.02892546366582221 -0.07680880088540872 0  0.02416154146863935 -0.08070016162395202 0  0.0224843414054342 -0.08250864398128172 0  0.02411024678398856 -0.08233455566936589 0  0.025334823172674 -0.08341820123348352 0  0.02522643562136178 -0.08512845143297179 0  0.01649073826091686 -0.06319659086967212 0  0.01570123454296709 -0.06506178719416507 0  0.01770106090999505 -0.06452207583910662 0  0.01728938824664831 -0.06065342293474459 0  0.04464334080337827 -0.06477056026673604 0  0.04502387202811982 -0.06659229383285178 0  0.04636594091932174 -0.06552590861214863 0  0.01809300284513205 -0.05689299134079161 0  0.01981701831826052 -0.05842591866861049 0  0.01792103282159441 -0.05882232399720749 0  0.01454995940546648 -0.05199794358506395 0  0.01686434304608255 -0.05145915617355584 0  0.01581567795051093 -0.04979263651326838 0  0.03869863810845114 -0.05851213874557144 0  0.04018585363524062 -0.05724246148436949 0  0.03970578764389624 -0.05956444608131971 0  0.04500704918173798 -0.08941332064415353 0  0.0468279944940574 -0.09080811063091072 0  0.04534211210420257 -0.09241021952437389 0  0.04670060681091085 -0.09670060681091086 0  0.04504539898905737 -0.09601953464091741 0  0.04639081665769942 -0.09510162937447562 0  0.04205467609998415 -0.06146564627654705 0  0.04107518642763387 -0.06006088126008405 0  0.04241869617792832 -0.06016796568913897 0  0.03694482364888862 -0.07483282559208632 0  0.03610885884382378 -0.07281806235528819 0  0.03807023319162758 -0.07320682963349499 0  0.02958027680234551 -0.07172324007054222 0  0.02856154711422706 -0.07386136174728263 0  0.02755543059494003 -0.07239631376986599 0  0.03639778858618781 -0.07619102435699082 0  0.0384705842660954 -0.07508656202965074 0  0.04684624656174251 -0.07187500000000001 0  0.04842312328087126 -0.07343340336823168 0  0.04685549256184014 -0.07344263060849651 0  0.04337196116786825 -0.07463925880684733 0  0.04210124169070797 -0.07622511749289544 0  0.04354979210673399 -0.07608378292408841 0  0.03637679552963742 -0.07765509762578199 0  0.0385769480595515 -0.0766296156204922 0  0.02736491626781095 -0.07590524263897044 0  0.02687859119369121 -0.07741425412276508 0  0.009435764744425919 -0.08043238240966273 0  0.00926086646052551 -0.08713687094856779 0  0.01084917183279576 -0.08758400344942135 0  0.009765258461052893 -0.08838972595063958 0  0.025 -0.1 0  0.02574660752638188 -0.09831523885802962 0  0.02425762309203308 -0.09845112215652949 0  0.02717161535066178 -0.09714682300539645 0  0.02814040517327717 -0.09840897789012983 0  0.0287187101773846 -0.09677522339481145 0  0.01875 -0.09260679016400503 0  0.01746426634563599 -0.0946966824898527 0  0.02000489244543809 -0.09471513491297798 0  0.04446421559415197 -0.08718473081338503 0  0.04367940145364908 -0.0885562994627993 0  0.02088671269095009 -0.06240702469651116 0  0.0278582381998454 -0.05655080703154879 0  0.02860271266695176 -0.05463752982112181 0  0.02637310899341614 -0.0557118438524549 0  0.02378330144214598 -0.0516705092605356 0  0.02507311958935473 -0.06271161136998743 0  0.02657608507230502 -0.06228073040903606 0  0.02551730029560318 -0.06142426381158862 0  0.0305796626780135 -0.05519119088158705 0  0.0328125 -0.05312500000000001 0  0.0376081921684235 -0.05245551308128505 0  0.03762419922489806 -0.05459874974087802 0  0.03635973676985995 -0.05369008569158945 0  0.04767128262860884 -0.05537540323700023 0  0.04546530640752131 -0.05503961419206276 0  0.04578782911147741 -0.05675321623119051 0  0.03686548041120438 -0.06032818054708596 0  0.036644526860098 -0.05856190909012812 0  0.03769074722308389 -0.05932798700863462 0  0.02063243529930224 -0.08719964433792667 0  0.01908514024155837 -0.0863776329894482 0  0.0199696387685163 -0.08525850927813482 0  0.006250000000000001 -0.08914373740925415 0  0.007964066885959199 -0.090800007287408 0  0.008299592740779536 -0.0888576775342028 0  0.008695080668314235 -0.07807940410525299 0  0.0155154430127655 -0.07780260757679426 0  0.01598440846056885 -0.07579471522088828 0  0.01473201805325772 -0.07656091781105955 0  0.04321758283034931 -0.06704044172466167 0  0.04133630972986371 -0.06599851068428712 0  0.04130559735643655 -0.06764829107165204 0  0.04313110864619899 -0.06285939600837437 0  0.04345056050076136 -0.06150011966148285 0  0.02073553625659391 -0.06054214652517984 0  0.01913420206319778 -0.05989244632510003 0  0.03660603257347798 -0.08363301208285871 0  0.03867852709227757 -0.08328665052822476 0  0.03686505600937307 -0.08180844633712978 0  0.03556210456271347 -0.08208668761276301 0  0.05 -0.08437500000000001 0  0.05 -0.0859375 0  0.04860490583514159 -0.08575133884125646 0  0.04553386586880761 -0.08075612830980353 0  0.04441800636074661 -0.08248315021781349 0  0.0457909677211155 -0.08214624565084092 0  0.04210310889254143 -0.08866781429134733 0  0.037033205797572 -0.05682482417137066 0  0.03841317868273451 -0.05712832193281868 0  0.04143681828516032 -0.09324577512300852 0  0.04028474823910268 -0.09217836090091314 0  0.04215449354704975 -0.0918988737706147 0  0.0472227281394374 -0.06404123962307648 0  0.04542281870194612 -0.06345085768052849 0  0.04651019676850526 -0.06237066804404576 0  0.01512933394003292 -0.07220768844695416 0  0.02353466441496152 -0.07572444547906115 0  0.02206053129225047 -0.07549746227010537 0  0.02286879863971965 -0.07432437058595016 0  0.02389766944944421 -0.05336055352824819 0  0.02505789171550941 -0.05462571702396751 0  0.0200352813999171 -0.04944197410413204 0  0.01897132622274226 -0.04818917069836885 0  0.02039596393456947 -0.04786566231201216 0  0.02255522939491745 -0.05050381790686167 0  0.02095559199324484 -0.05077897888898596 0  0.02151442938367597 -0.04940906557037485 0  0.03419217537052396 -0.09402564429600242 0  0.03559757304728373 -0.09285131497116357 0  0.03429324813307534 -0.09271847386402299 0  0.03956847501260272 -0.09552117233795018 0  0.03805996984719
[...]
<PointData  Vectors="displacement"> 
<DataArray  type="Float64"  Name="displacement"  NumberOfComponents="3" format="ascii">1.9886734500040436e-11 5.4452922700741799e-02 0.0000000000000000e+00  -1.7851950170385338e-11 5.2998846878383500e-02 0.0000000000000000e+00  -1.2140374072554014e-11 5.2803761931617399e-02 0.0000000000000000e+00  -3.5639970975843875e-12 3.5447515645997227e-02 0.0000000000000000e+00  -5.6353035509865931e-12 3.4879687054147443e-02 0.0000000000000000e+00  5.8319626728062642e-12 3.6307189949554695e-02 0.0000000000000000e+00  -1.1919557226452907e-12 2.3858847068891399e-02 0.0000000000000000e+00  9.7447263696157176e-13 2.1813446456200702e-02 0.0000000000000000e+00  -2.1917989478633878e-12 2.3783853841361269e-02 0.0000000000000000e+00  -2.8855050415849000e-12 1.1038554356543578e-02 0.0000000000000000e+00  1.6506456962368477e-14 1.2448977245684247e-02 0.0000000000000000e+00  2.4335259514271040e-12 1.1043143156177850e-02 0.0000000000000000e+00  -7.7132963866114919e-12 1.8273753421723569e-02 0.0000000000000000e+00  -2.7815006870547832e-12 1.7800730189075346e-02 0.0000000000000000e+00  4.1408357680439813e-12 1.6609397598274029e-02 0.0000000000000000e+00  1.1381646376292295e-12 2.4580458419913975e-02 0.0000000000000000e+00  -2.3946087973125772e-12 2.3502640560754823e-02 0.0000000000000000e+00  3.1442714560289454e-12 2.5242938803045178e-02 0.0000000000000000e+00  1.8305725948856023e-12 2.3413464159497268e-02 0.0000000000000000e+00  1.4885389740938994e-12 2.2789034874874103e-02 0.0000000000000000e+00  -1.2280510925688152e-12 2.4172013918603581e-02 0.0000000000000000e+00  -8.3433202599444616e-12 4.8588689649900298e-02 0.0000000000000000e+00  -1.1188580867569639e-13 4.6528374794877148e-02 0.0000000000000000e+00  2.4188472241855316e-11 4.8224270911484825e-02 0.0000000000000000e+00  3.1002140430202937e-12 1.1431169821334077e-02 0.0000000000000000e+00  -4.6735934487099792e-13 1.2681051605606440e-02 0.0000000000000000e+00  -3.4227603393087242e-12 1.0150234447734996e-02 0.0000000000000000e+00  -8.0520042971243168e-13 1.1482068883213476e-02 0.0000000000000000e+00  3.3354884344286722e-12 9.7638106010959971e-03 0.0000000000000000e+00  -8.9599373059354700e-12 1.0168575628800428e-02 0.0000000000000000e+00  -1.8755467301689133e-12 3.1426841320650947e-02 0.0000000000000000e+00  8.3564735347928942e-12 3.3129164201006332e-02 0.0000000000000000e+00  -1.1290511063141594e-11 3.1540544303154394e-02 0.0000000000000000e+00  -3.4255609094470220e-13 3.3526727850611358e-02 0.0000000000000000e+00  -9.7635700008184869e-12 3.3248611323238857e-02 0.0000000000000000e+00  1.8610718290566376e-13 3.5398985721980442e-02 0.0000000000000000e+00  -6.9415785006865454e-14 4.3273528864499373e-02 0.0000000000000000e+00  -1.8864523398127100e-13 4.2151935270316541e-02 0.0000000000000000e+00  3.0735289617793620e-12 4.1359716625524776e-02 0.0000000000000000e+00  -8.1448361898581559e-13 2.4931643649774831e-02 0.0000000000000000e+00  -5.9772985740835713e-13 2.2713318739219709e-02 0.0000000000000000e+00  4.4866076190786441e-13 2.4777885167518558e-02 0.0000000000000000e+00  -2.2131676518483874e-12 1.8337352893581790e-02 0.0000000000000000e+00  2.0469001039273047e-12 1.9977593330140909e-02 0.0000000000000000e+00  4.1757430973242657e-12 1.9467450911644833e-02 0.0000000000000000e+00  1.4279758036829193e-11 4.2355101210345997e-02 0.0000000000000000e+00  -7.4892802818994395e-12 4.4368686983759648e-02 0.0000000000000000e+00  -2.7786419503406581e-13 4.3293486777368037e-02 0.0000000000000000e+00  -1.2797224594238166e-11 4.0571298258534096e-02 0.0000000000000000e+00  3.1001547045571885e-11 4.2732570193687730e-02 0.0000000000000000e+00  -1.3126210387813808e-11 4.2007858907508057e-02 0.0000000000000000e+00  -4.7661620381765311e-12 1.8815551793839133e-02 0.0000000000000000e+00  2.5491634873419617e-12 2.0070874183457373e-02 0.0000000000000000e+00  2.9632702085862102e-12 1.7711308614826036e-02 0.0000000000000000e+00  4.7043460693809086e-13 4.1938151363904295e-02 0.0000000000000000e+00  7.5262804119791292e-13 4.2055194376548227e-02 0.0000000000000000e+00  -2.4854096578009790e-12 4.0796961446599174e-02 0.0000000000000000e+00  -9.0109086316645070e-12 5.0392981491697741e-02 0.0000000000000000e+00  4.7908077813288192e-12 5.0364223429963821e-02 0.0000000000000000e+00  -3.9507885634759059e-12 1.3786708047747086e-02 0.0000000000000000e+00  9.1237839509093752e-12 1.1373697102954026e-02 0.0000000000000000e+00  -3.9015355770896661e-12 1.0090089646453259e-02 0.0000000000000000e+00  2.2946151900402925e-13 8.8547763909294277e-03 0.0000000000000000e+00  3.3312729913123453e-12 1.0800605115826272e-02 0.0000000000000000e+00  -3.3253496553043554e-12 1.3328822182806404e-02 0.0000000000000000e+00  3.6953097512232977e-12 1.1800855988599077e-02 0.0000000000000000e+00  6.8739884953267367e-13 1.5186338366289851e-02 0.0000000000000000e+00  -3.5493778582651470e-12 1.3708977435896380e-02 0.0000000000000000e+00  8.9387109607881880e-13 1.3327404073449524e-02 0.0000000000000000e+00  1.1173590801799420e-12 9.8749957132029369e-03 0.0000000000000000e+00  -7.1199870665846976e-13 1.0063942598797154e-02 0.0000000000000000e+00  1.9557363538030443e-12 1.1337177454313811e-02 0.0000000000000000e+00  2.1655875732313258e-11 4.8491965040729855e-02 0.0000000000000000e+00  1.6963136308715298e-11 4.6595588523450464e-02 0.0000000000000000e+00  -8.3775043112449419e-12 4.5855672725097475e-02 0.0000000000000000e+00  2.2458951440128691e-12 3.6605541035050572e-02 0.0000000000000000e+00  6.2415778528261834e-13 3.5163901989495774e-02 0.0000000000000000e+00  1.9172649697071151e-12 3.4643340552156100e-02 0.0000000000000000e+00  5.1141414863764435e-13 2.7071445892533571e-02 0.0000000000000000e+00  -3.7921469550974824e-13 2.6684984716889543e-02 0.0000000000000000e+00  -7.3923024526437566e-13 2.8444286640948356e-02 0.0000000000000000e+00  7.7963214656216703e-12 1.6264589113849707e-02 0.0000000000000000e+00  -8.4266774507975159e-13 1.5108372277043224e-02 0.0000000000000000e+00  -7.7410136876563772e-12 1.5175983253104722e-02 0.0000000000000000e+00  6.7639956085058503e-12 3.1155670322031606e-02 0.0000000000000000e+00  7.9051900217157274e-13 3.2118966529798045e-02 0.0000000000000000e+00  2.6297949770811665e-13 1.8482870448005735e-02 0.0000000000000000e+00  -2.6658788882839335e-12 1.6747764321172375e-02 0.0000000000000000e+00  -3.8051693210831649e-12 2.3878597503654765e-02 0.0000000000000000e+00  7.6026145755789166e-13 2.4510941348054361e-02 0.0000000000000000e+00  8.8745599678643063e-13 2.5745785221149182e-02 0.0000000000000000e+00  3.1212476630845422e-12 2.1425778430541890e-02 0.0000000000000000e+00  6.8021378900740111e-13 1.9418085848176930e-02 0.0000000000000000e+00  -4.1891159870354633e-12 1.9611350554860175e-02 0.0000000000000000e+00  -3.4116492129642828e-12 1.8408337905147103e-02 0.0000000000000000e+00  -2.2138006652929480e-12 1.6509698072346923e-02 0.0000000000000000e+00  -2.4557301440247790e-12 4.0857424511607281e-02 0.0000000000000000e+00  -1.5112758429981720e-12 3.8786770728821404e-02 0.0000000000000000e+00  1.3743407948223720e-11 3.9385933047042375e-02 0.0000000000000000e+00  1.1696887595983659e-11 4.3680730659082075e-02 0.0000000000000000e+00  8.4058747391727885e-13 3.9110077250669770e-02 0.0000000000000000e+00  2.8707349693490926e-13 3.7087673800975579e-02 0.0000000000000000e+00  -1.9380904569082996e-12 3.8271524827906980e-02 0.0000000000000000e+00  -2.2632569061426436e-11 4.7855386047679561e-02 0.0000000000000000e+00  9.0556649393049705e-12 4.6153601791134015e-02 0.0000000000000000e+00  3.6933973722636862e-12 4.5713531091920993e-02 0.0000000000000000e+00  3.2246033734798809e-12 5.3289639259774611e-02 0.0000000000000000e+00  3.2939244044954305e-12 5.3887775859376617e-02 0.0000000000000000e+00  4.1047430938863989e-12 5.5737868083187758e-02 0.0000000000000000e+00  5.6899168732286871e-12 4.6057884289569452e-02 0.0000000000000000e+00  3.7928160453447577e-12 4.7467420629916865e-02 0.0000000000000000e+00  -2.4885000355061749e-13 4.4889661876493410e-02 0.0000000000000000e+00  7.0254201923023662e-13 1.1752836565096280e-02 0.0000000000000000e+00  1.4148242439368205e-12 1.0204405918126571e-02 0.0000000000000000e+00  1.2949883534218006e-12 8.4258195123376022e-03 0.0000000000000000e+00  -5.0577955270317316e-13 3.6628320934540843e-03 0.0000000000000000e+00  8.5617365140959136e-13 4.4189265801445731e-03 0.0000000000000000e+00  -8.1392367497306102e-13 5.4379421014846153e-03 0.0000000000000000e+00  -1.1394540911486902e-13 4.2779038283749411e-02 0.0000000000000000e+00  -1.0991903884395552e-14 4.4338542734956639e-02 0.0000000000000000e+00  6.4517736953113793e-12 4.4219662607920318e-02 0.0000000000000000e+00  1.1472366118137118e-12 2.7939420631028885e-02 0.0000000000000000e+00  -1.5664376737955951e-12 3.0176116601261054e-02 0.0000000000000000e+00  -1.3654904795886703e-13 2.9744525340753804e-02 0.0000000000000000e+00  7.7569830543979651e-12 3.1391537122717098e-02 0.0000000000000000e+00  3.0531494830113164e-12 2.9017894378465532e-02 0.0000000000000000e+00  -9.8063121428914619e-12 3.0644322159690068e-02 0.0000000000000000e+00  2.0983473530050369e-13 2.6431611847431258e-02 0.0000000000000000e+00  -1.5220305909404232e-12 2.7657734300089901e-02 0.0000000000000000e+00  -5.5989194862733746e-13 3.1223060346428154e-02 0.0000000000000000e+00  -1.1323676475841172e-12 2.9492993770904870e-02 0.0000000000000000e+00  1.3846778704456329e-12 2.9482750118369431e-02 0.0000000000000000e+00  -6.8054957796514444e-13 2.8154309427342497e-02 0.0000000000000000e+00  -8.0731239114249951e-13 2.6393763244141943e-02 0.0000000000000000e+00  4.6838968088129864e-14 2.6550666272541757e-02 0.0000000000000000e+00  -1.2143851254061932e-12 2.4806266144441074e-02 0.0000000000000000e+00  -1.0812490237572412e-12 2.5944708330353269e-02 0.0000000000000000e+00  -1.1324882698332917e-12 2.6748873356921211e-02 0.0000000000000000e+00  -1.7945916000255976e-12 2.5073639338445620e-02 0.0000000000000000e+00  -3.3463726421400886e-13 2.1723054391296591e-02 0.0000000000000000e+00  -2.0857726109434454e-12 1.4280044608358130e-02 0.0000000000000000e+00  -1.9595790999404421e-12 1.3783659010201090e-02 0.0000000000000000e+00  -4.0673974552110120e-12 1.2889183538808142e-02 0.0000000000000000e+00  2.0570004742267823e-28 6.1843248352623644e-19 0.0000000000000000e+00  -2.7656281414054468e-12 1.8703430732767638e-03 0.0000000000000000e+00  -6.0070341072274440e-13 1.7194917814632737e-03 0.0000000000000000e+00  -1.6644001428593415e-12 3.1674637339170106e-03 0.0000000000000000e+00  1.3122566535484216e-12 1.7662783843159413e-03 0.0000000000000000e+00  4.2247149877699050e-12 3.5799962548272611e-03 0.0000000000000000e+00  3.2131439515266164e-12 8.2075959654325670e-03 0.0000000000000000e+00  -3.6709785696645463e-13 5.8874951986254776e-03 0.0000000000000000e+00  1.1318201896001864e-12 5.8670101933483735e-03 0.0000000000000000e+00  3.6154765613769495e-13 1.4226912825232998e-02 0.0000000000000000e+00  -2.5246885087703155e-13 1.2704261418089214e-02 0.0000000000000000e+00  -1.8483803221719248e-11 4.1733963973515475e-02 0.0000000000000000e+00  3.2463229365556836e-12 4.8235263095342658e-02 0.0000000000000000e+00  -5.3899086928287610e-12 5.0359293989580847e-02 0.0000000000000000e+00  -9.1797545266828559e-12 4.9166640787542078e-02 0.0000000000000000e+00  2.5480337697333969e-12 5.3653141555612134e-02 0.0000000000000000e+00  2.5240247325611750e-11 4.1395826102061058e-02 0.0000000000000000e+00  5.5934022606947430e-13 4.1874169962266249e-02 0.0000000000000000e+00  -1.5158909143755602e-11 4.2824979162819736e-02 0.0000000000000000e+00  -1.5646074428099588e-11 4.9744645368340772e-02 0.0000000000000000e+00  -8.3071602833872653e-12 5.2038433911979903e-02 0.0000000000000000e+00  1.9209886737684968e-13 5.2781666985892907e-02 0.0000000000000000e+00  -1.5920513026626518e-12 5.0402345840139987e-02 0.0000000000000000e+00  -3.8321428070528818e-11 5.1411102159353302e-02 0.0000000000000000e+00  5.6735328343365301e-12 4.9540141426714694e-02 0.0000000000000000e+00  -7.1735697530312522e-12 4.9912918722700192e-02 0.0000000000000000e+00  -5.4911796762895861e-12 4.8010557844631985e-02 0.0000000000000000e+00  -2.9720427459064361e-12 4.4041799564686283e-02 0.0000000000000000e+00  2.6015103389361107e-13 4.6002631575598384e-02 0.0000000000000000e+00  2.0114115559434529e-12 4.5152167673590551e-02 0.0000000000000000e+00  1.3682198083055451e-12 1.4210356522071874e-02 0.0000000000000000e+00  -2.2449144440879981e-12 1.5122915104805588e-02 0.0000000000000000e+00  -8.2827537797817132e-12 1.6365313935600031e-02 0.0000000000000000e+00  1.9163964034956803e-12 1.2052115272414520e-02 0.0000000000000000e+00  -5.5170045469914232e-12 1.0213401875017103e-02 0.0000000000000000e+00  2.9059449693158229e-12 1.2369685571994238e-02 0.0000000000000000e+00  1.4000352904617736e-12 2.4335220923822409e-02 0.0000000000000000e+00  7.5901386211121433e-13 2.4642507488972218e-02 0.0000000000000000e+00  2.5143240424521175e-12 2.6871575733579053e-02 0.0000000000000000e+00  -1.8799631335849354e-12 2.6020973423515691e-02 0.0000000000000000e+00  -6.8669287944522935e-13 3.6590160958253050e-02 0.0000000000000000e+00  5.8580589734357152e-13 3.7746864096659533e-02 0.0000000000000000e+00  -1.8232470761627340e-13 3.5915355026277310e-02 0.0000000000000000e+00  -6.4889115071840124e-13 4.1231762477183638e-02 0.0000000000000000e+00  2.3843903109419761e-12 4.2740767544996679e-02 0.0000000000000000e+00  -5.1069805615245671e-12 4.3804264542315514e-02 0.0000000000000000e+00  -9.8068710451669287e-12 4.4525531346877693e-02 0.0000000000000000e+00  -1.5145631356721887e-12 1.8169864938349378e-02 0.0000000000000000e+00  -9.5888333413742151e-13 1.8554379351118862e-02 0.0000000000000000e+00  8.1909402988931374e-13 2.0195412540787720e-02 0.0000000000000000e+00  -2.1488192503090833e-12 1.9886522088077972e-02 0.0000000000000000e+00  -4.7356595326870313e-29 1.7346144636875976e-02 0.0000000000000000e+00  3.8063380366649029e-29 1.5611530172232206e-02 0.0000000000000000e+00  2.9932273388012485e-13 1.5818197587140172e-02 0.0000000000000000e+00  -8.5832705484031688e-13 2.1363646830406372e-02 0.0000000000000000e+00  5.0266770793402089e-13 1.9446387834126208e-02 0.0000000000000000e+00  7.0787749116737802e-13 1.9820403535347680e-02 0.0000000000000000e+00  -3.3432994825885240e-12 1.2580462870015080e-02 0.0000000000000000e+00  5.9411348363303566e-12 4.7931062043893594e-02 0.0000000000000000e+00  -8.2514907121912803e-12 4.7594133024088818e-02 0.0000000000000000e+00  1.6140031708087207e-12 7.4982247448563228e-03 0.0000000000000000e+00  7.4247799080626709e-13 8.6832181176505676e-03 0.0000000000000000e+00  1.0766504626459726e-13 8.9934916686831463e-03 0.0000000000000000e+00  6.5842536791190560e-13 3.9919734938500949e-02 0.0000000000000000e+00  3.4244167056218622e-13 4.0575149377703117e-02 0.0000000000000000e+00  -1.4258127857279440e-12 4.1774325418785126e-02 0.0000000000000000e+00  -7.5434734739282526e-13 3.0853725184705503e-02 0.0000000000000000e+00  -3.9096967780719272e-13 2.6949585913166669e-02 0.0000000000000000e+00  3.4831065268221102e-12 2.7201572061640228e-02 0.0000000000000000e+00  -4.8069920364414179e-12 2.8503883607576573e-02 0.0000000000000000e+00  3.0818502164038198e-11 5.1776933383285935e-02 0.0000000000000000e+00  -2.4146557846274444e-11 5.0372408007533800e-02 0.0000000000000000e+00  1.3742771651302169e-12 5.6127157082364494e-02 0.0000000000000000e+00  4.9930003745157444e-12 5.7517960881333971e-02 0.0000000000000000e+00  1.3150046167958246e-12 5.7877104771022696e-02 0.0000000000000000e+00  -5.4752768729615488e-13 5.4948347734826208e-02 0.0000000000000000e+00  3.2576576582864308e-12 5.4642876882339368e-02 0.0000000000000000e+00  -1.0144964224947347e-11 5.6163690620717133e-02 0.0000000000000000e+00  -1.9495494642852886e-13 6.6324504434117151e-03 0.0000000000000000e+00  -1.0052136999131808e-12 7.9361359644375840e-03 0.0000000000000000e+00  -3.3602741129581031e-12 8.0836099617797030e-03 0.0000000000000000e+00  1.0881264107113904e-12 4.9721851175408309e-03 0.0000000000000000e+00  -1.5922074306357730e-12 3.7867387614439045e-03 0.0000000000000000e+00  2.7994545604223630e-12 3.3315051421961709e-03 0.0000000000000000e+00  -2.9474982680386906e-12 4.1037979910364883e-03 0.0000000000000000e+00  -5.7217146776302907e-12 6.0666133561520152e-03 0.0000000000000000e+00  6.2835707580849371e-13 6.7179797306717781e-03 0.0000000000000000e+00  -1.3412081840412823e-12 9.8670655127862019e-03 0.0000000000000000e+00  9.8747458004755853e-13 7.0572786573803109e-03 0.0000000000000000e+00  -2.4957655082036839e-12 8.4594045674075899e-03 0.0000000000000000e+00  2.7677003334741085e-12 8.4600741246123497e-03 0.0000000000000000e+00  -3.9842690931844553e-12 8.6376740135853201e-03 0.0000000000000000e+00  -1.0502078735758178e-11 1.0585565109644417e-02 0.0000000000000000e+00  -6.2208076371757679e-13 7.6235664243273372e-03 0.0000000000000000e+00  4.7346289775002554e-12 8.9013777657406846e-03 0.0000000000000000e+00  -7.8398740051717728e-12 1.0475776928109446e-02 0.0000000000000000e+00  5.6349302767412365e-12 9.1699261472311250e-03 0.0000000000000000e+00  3.8335215195728204e-12 9.1033642068631977e-03 0.0000000000000000e+00  -3.5876824553622639e-12 3.2510941075653249e-02 0.0000000000000000e+00  -4.7073287177594271e-12 3.3716194999793454e-02 0.0000000000000000e+00  2.4236522623507013e-11 3.4468091529163560e-02 0.0000000000000000e+00  1.1726116588819937e-12 2.9590317478321523e-02 0.0000000000000000e+00  1.0287719601824540e-12 2.8916005054879877e-02 0.0000000000000000e+00  -4.3516821207556029e-12 2.7934342962470854e-02 0.0000000000000000e+00  -4.2684484036346109e-12 1.7483051196610630e-02 0.0000000000000000e+00  -2.8229349933486512e-12 1.6061465458762920e-02 0.0000000000000000e+00  -9.6021015480799184e-13 1.4446404160749618e-02 0.0000000000000000e+00  5.3671282657876554e-13 2.2314029512285675e-02 0.0000000000000000e+00  3.1323101045107832e-13 2.4258777871405155e-02 0.0000000000000000e+00  -8.4711846006414318e-13 2.4222498773229649e-02 0.0000000000000000e+00  -1.1050551746912435e-11 1.8807322352035617e-02 0.0000000000000000e+00  7.2322747817976097e-12 2.0341535010620554e-02 0.0000000000000000e+00  5.5335339261984177e-13 4.9636991252874456e-03 0.0000000000000000e+00  5.3246931837783412e-13 5.1894054452801906e-03 0.0000000000000000e+00  7.5858889355091123e-12 1.3510782191440552e-02 0.0000000000000000e+00  -3.4419322068582043e-12 1.1802731144282434e-02 0.0000000000000000e+00  6.7253146359003442e-12 8.6162487241102214e-03 0.0000000000000000e+00  -2.2629010789635771e-12 1.3078464350820721e-02 0.0000000000000000e+00  -7.7502782346575953e-13 2.7742439649350845e-02 0.0000000000000000e+00  -1.1251748709976355e-13 2.5813145298906125e-02 0.0000000000000000e+00  -3.3079896079371378e-13 2.6012211371725293e-02 0.0000000000000000e+00  -2.6806739934586366e-13 2.4691688233576467e-02 0.0000000000000000e+00  2.8459938638082248e-13 5.0926169142132945e-02 0.0000000000000000e+00  3.0134096403825709e-12 4.8592016134948762e-02 0.0000000000000000e+00  -5.7580723558836178e-12 4.9354462643951665e-02 0.0000000000000000e+00  -1.6179413829699519e-11 3.4692289278247003e-02 0.0000000000000000e+00  1.1377468128190179e-11 3.5132517523335363e-02 0.0000000000000000e+00  -1.6261863546711389e-12 2.6553479525271016e-02 0.0000000000000000e+00  1.2475869251981897e-13 3.8893316938462159e-02 0.0000000000000000e+00  1.9194085784942235e-12 3.9510789218580859e-02 0.0000000000000000e+00  -4.2568774080153119e-12 3.7859117352762907e-02 0.0000000000000000e+00  -4.6714616674078186e-12 3.6877130139466890e-02 0.0000000000000000e+00  -7.5327209811806418e-12 3.7802429215288674e-02 0.0000000000000000e+00  -7.5746657648383175e-28 3.6599559455375326e-19 0.0000000000000000e+00  7.5169171870581761e-13 1.7637136559886333e-03 0.0000000000000000e+00  1.9275985017211566e-11 2.3991228999769585e-03 0.0000000000000000e+00  -3.1088299032076717e-13 3.1568623825459274e-02 0.0000000000000000e+00  1.2569202476177996e-12 3.2432939175029880e-02 0.0000000000000000e+00  3.4909879017740898e-11 4.6755451559128955e-02 0.000000000000