<?xml version="1.0"?>
<VTKFile type="UnstructuredGrid"  version="0.1"  >
<UnstructuredGrid>
<Piece  NumberOfPoints="806" NumberOfCells="1504">
<Points>
<DataArray  type="Float64"  NumberOfComponents="3"  format="ascii">0.01846824474048517 -0.04149541481145257 0  0.01782868919038702 -0.04338851755545801 0  0.01904305817301197 -0.04274419001873621 0  0.04733901150449811 -0.03996872119408579 0  0.04829208008188312 -0.04092308629865739 0  0.04667373753676338 -0.04108798278486302 0  0.01552943322599933 -0.01039223976967649 0  0.01561231669066057 -0.008674083460499629 0  0.01413052010119659 -0.009389502160894639 0  0.03295147424067876 -0.01620437186370464 0  0.032001952132051 -0.01447302962147942 0  0.03352088685144456 -0.01473415368338696 0  0.009071852058287186 -0.03111646240531644 0  0.009454590536262899 -0.02926375325908127 0  0.008053957990568473 -0.0299402944179232 0  0.04393709534775342 -0.03399416543518065 0  0.0450552879070476 -0.03228428374499481 0  0.04345356682255066 -0.03218454146111794 0  0.03218160891894395 -0.02842571783788788 0  0.03055812711423551 -0.02730942100275788 0  0.03190841513955275 -0.02696645140373315 0  0.02059820391388823 -0.008744628494184007 0  0.02236002896120308 -0.01029553220276665 0  0.02069438039481685 -0.01041153970082536 0  0.01492528999248245 -0.002433543897202234 0  0.01607090679295778 -0.003444215195152167 0  0.01610599002356381 -0.001455662474053389 0  0.01533845899304755 -0.03450745320159019 0  0.01291635033112928 -0.03408703642975243 0  0.01431567335582407 -0.03550779203295518 0  0.05 -0.046875 0  0.04838162252857063 -0.0484375 0  0.04830480312230745 -0.04673855680545282 0  0.0335055138043014 -0.01319301380430141 0  0.03503329596179407 -0.0150307462328856 0  0.03473191852987378 -0.01692937153329831 0  0.03062350339451905 -0.01195958995920541 0  0.02880183116468505 -0.01324826702959288 0  0.0303485822656615 -0.01350285709122089 0  0.03646473132841593 -0.0487266977067035 0  0.03567804538662531 -0.04684423509208469 0  0.03720001892537535 -0.04655850289330472 0  0.0328125 -0.05312500000000001 0  0.03185172221986971 -0.05133039393955258 0  0.03328223773659549 -0.05171902792461655 0  0.03686427007144817 -0.01349487103951888 0  0.03895981700495387 -0.01307268484765471 0  0.03814432517406528 -0.01443672202163861 0  0.03125 -0.01875 0  0.03293360810408181 -0.02017879740592817 0  0.0324533095215602 -0.01771284205542287 0  0.0439453125 -0.0158203125 0  0.04237763270340716 -0.0175875744465049 0  0.04439608695310726 -0.01807389191733877 0  0.0182766464026848 -0.03019791398854459 0  0.02042604155621803 -0.02955189065163524 0  0.0197299190175258 -0.03137365445772399 0  0.01379230725571167 -0.03273328139531854 0  0.01501791995124707 -0.03322599139945957 0  0.02155204304257197 -0.03095624460965786 0  0.02191349065759114 -0.02853819219671415 0  0.02305230917876158 -0.02994446202994329 0  0.01329990464676595 -0.03651525526650057 0  0.01388418709928712 -0.03784026285822586 0  0.01225930750566253 -0.03749767039702803 0  0.01916997955773587 -0.006358580516425179 0  0.01891769558890485 -0.008130063332440622 0  0.02112680287951949 -0.007182894483686506 0  0.02574373313225683 -0.03940295267576162 0  0.02615798433030357 -0.04116160286013801 0  0.0269435244416797 -0.04004845471237795 0  0.04178251006096394 -0.04010753294115062 0  0.03983623436998167 -0.03985552902859401 0  0.03972114507343055 -0.04145797640088977 0  0.0396437922234081 -0.05261372697940805 0  0.03997754446209789 -0.0511507576845467 0  0.04105826602165569 -0.05283533998746703 0  0.01799242424242424 -0.02474747474747475 0  0.02040180503127184 -0.02521033163928926 0  0.01894698490238263 -0.02628094230654713 0  0.03290049244401597 -0.04238139970258363 0  0.03373646600975794 -0.04433173846458283 0  0.03511731072848739 -0.04293786140075419 0  0.02944299575463769 -0.03636599160900477 0  0.03143045878689962 -0.03761358300069494 0  0.02971390183888059 -0.03864436635289215 0  0.03288892842300365 -0.01064996769981432 0  0.03377610246494524 -0.009222958628701677 0  0.0338514560775198 -0.01176286534847487 0  0.02619510373908494 -0.03269003457969499 0  0.0275586803855839 -0.03187539353157028 0  0.02742869656996046 -0.03320634507295468 0  0.02874387712996077 -0.03249477747950242 0  0.02185322155471688 -0.04796886364206988 0  0.02117147262782209 -0.04651482738331746 0  0.02317806061277227 -0.04726948819474937 0  0.02680283228650296 -0.03047836992429558 0  0.0116140763143414 -0.0200294715722589 0  0.01255567389343238 -0.01875669977713929 0  0.01289863565765652 -0.02096070221481863 0  0.01436274818423154 -0.02590687146513118 0  0.01376997500590554 -0.02405110063143605 0  0.01312811451181107 -0.02527868237689237 0  0.01949511126133643 -0.01820257885343882 0  0.02139928780926671 -0.01727718666003668 0  0.0213075702412433 -0.01884184167804088 0  0.02497985483238342 -0.02695583927646755 0  0.02684519161778724 -0.0267528581889257 0  0.02643712606206802 -0.02872481488326032 0  0.015181836533936 -0.03191525840546049 0  0.01661043679905785 -0.0331297702723849 0  0.01668600241955626 -0.03097866552280258 0  0.01731419597837964 -0.008924158772178585 0  0.01661233695577045 -0.007784557864161785 0  0.03981046946253874 -0.03478997461063087 0  0.03923171642400429 -0.03668144702800514 0  0.03815781162724478 -0.03511154933377432 0  0.03750000000000001 -0.0234375 0  0.03984375 -0.02421875 0  0.03962211318754 -0.02284278772918 0  0.0427971170360452 -0.03332935475267775 0  0.04375 -0.02812499999999999 0  0.04385526423731859 -0.03063080462925618 0  0.04505180385920117 -0.02932542691051523 0  0.04351553199404762 -0.003199311755952383 0  0.04512082117182855 -0.003163798472886603 0  0.04401605677651377 -0.001297662503700671 0  0.0390625 -0.0109375 0  0.0372198611846347 -0.01157707748388981 0  0.03759210355280668 -0.00967538398276712 0  0.02477813524465676 -0.01678535620910663 0  0.02619491424319022 -0.0173145931035252 0  0.02598372025486592 -0.01588172067947947 0  0.02238005005866955 -0.01540092856280071 0  0.02431018836113115 -0.01482674916194362 0  0.02332186392374201 -0.01385922635918935 0  0.02884403036520363 -0.006188288310987947 0  0.02969512228739365 -0.00509576713021739 0  0.02778956775368434 -0.005398372891070042 0  0.02670820946356766 -0.004645696321677782 0  0.02871424332948464 -0.004118098239242162 0  0.02465272733345908 -0.006813979148103671 0  0.02264625626357764 -0.007822965885707606 0  0.02414717730575611 -0.008308169938046369 0  0.02810798947459298 -0.007488551531561166 0  0.02945001669058807 -0.007399522190517364 0  0.04184946453364417 -0.03213642906728832 0  0.04771258783191607 -0.01632642762110901 0  0.04588066889095144 -0.01568840097202207 0  0.04557265674790806 -0.01715141471048685 0  0.01595944973070434 -0.01665864079534912 0  0.01490811737430122 -0.01815748923040521 0  0.01620791970234805 -0.01795106480095328 0  0.01520615639784498 -0.01268049936812179 0  0.01475119078452227 -0.0148270426093771 0  0.01391218072944126 -0.01352772495826596 0  0.04683437186992465 -0.007865496666910285 0  0.04815155286411878 -0.006537230068970651 0  0.04728475614638013 -0.00546067617800606 0  0.04527103964454355 -0.01105720832240294 0  0.04606007517071044 -0.00949294628814989 0  0.04403762685149307 -0.01007408063750094 0  0.03949793158361206 -0.004200900444856822 0  0.03721979924877703 -0.0047651458494762 0  0.03878857822445099 -0.006173037334646442 0  0.0328125 -0.002435282534944978 0  0.03421085901935263 -0.004025902711367846 0  0.0344724171911955 -0.001781402336893533 0  0.01398706243080254 -0.0221150896608866 0  0.01258564041330076 -0.02332910432433855 0  0.009194419875177533 -0.02206075900562258 0  0.01024587951903527 -0.02330935545630703 0  0.01055332124836828 -0.02122269026435361 0  0.04537177463340432 -0.04110310095312193 0  0.04358182320191761 -0.04058844132853304 0  0.04571692188981746 -0.03936013908857622 0  0.0314309378115113 -0.04933875006157912 0  0.03311732503601984 -0.04913370444965118 0  0.03188089108105607 -0.03248232675683183 0  0.03342833160640403 -0.03055758844544694 0  0.03201928783414298 -0.02995112197871371 0  0.02861389331433733 -0.03382572902088683 0  0.03040673456957986 -0.03464600775368622 0  0.03013279554826485 -0.03287534219077422 0  0.04322916666666667 -0.01979114533068931 0  0.04127822573223301 -0.02004610997813836 0  0.04153902537676457 -0.01868765030406217 0  0.03530867441197051 -0.01196661860082494 0  0.03531896729860391 -0.01351198182519367 0  0.0390625 -0.0265625 0  0.040625 -0.02578125 0  0.03451316441232027 -0.02102466779383987 0  0.03546014347486393 -0.02326403694972784 0  0.03659060654472844 -0.02205092307513984 0  0.02436828498060588 -0.0409137505577845 0  0.02461490540344126 -0.04309047366990028 0  0.02353555540376851 -0.04211043040913431 0  0.02307251020656784 -0.04577510415514846 0  0.0213724062387126 -0.04492151990354357 0  0.04141166808534667 -0.05159229946940671 0  0.04316771177950235 -0.05055961249403544 0  0.04178869705860652 -0.05022403725139264 0  0.04636190916549267 -0.03071368166901467 0  0.01135833061239636 -0.03411864136424596 0  0.01234457162076637 -0.03542175489045764 0  0.01484586826671411 -0.03892294491435778 0  0.01682229953162608 -0.03997649591280195 0  0.01537065409622362 -0.04031910134814119 0  0.01953075217518766 -0.02799030610032226 0  0.02166562205297151 -0.0393857222105142 0  0.02247248496586275 -0.04111275187432602 0  0.02017264389999211 -0.04022967569049397 0  0.04635416666666667 -0.02552083333333333 0  0.04494656968390805 -0.02386179956896552 0  0.04418402777777777 -0.0259548611111111 0  0.04583333333333334 -0.021875 0  0.04638335129310345 -0.02331178160919541 0  0.04711179217743537 -0.02134513195633085 0  0.0333620841728586 -0.03258513616480065 0  0.0321298013877258 -0.03393512344096119 0  0.028125 -0.028125 0  0.02855580875793202 -0.02965235453857057 0  0.02093749816297855 -0.01566161699728076 0  0.0296875 -0.0234375 0  0.03158523513293739 -0.0234101749700282 0  0.03065193331477824 -0.02450488542779667 0  0.0379771404208144 -0.02861644968655365 0  0.03946078836391552 -0.02808670649690729 0  0.03750
[...]
<PointData  Vectors="displacement"> 
<DataArray  type="Float64"  Name="displacement"  NumberOfComponents="3" format="ascii">1.4867454464422169e-12 6.4949055780749068e-02 0.0000000000000000e+00  2.6689753611419544e-12 6.2847421603341405e-02 0.0000000000000000e+00  -7.9325735652196996e-12 6.3562723914933353e-02 0.0000000000000000e+00  -1.4074553731402505e-12 6.6643919671907831e-02 0.0000000000000000e+00  -1.1356714227434323e-12 6.5584428141028578e-02 0.0000000000000000e+00  1.1622705648554574e-12 6.5401367770859198e-02 0.0000000000000000e+00  8.4226854638894089e-13 9.9478346845311622e-02 0.0000000000000000e+00  -2.4448001113572218e-13 1.0138576366786253e-01 0.0000000000000000e+00  2.0473982339611072e-13 1.0059153926784825e-01 0.0000000000000000e+00  8.9252473568700067e-13 9.3025989472865500e-02 0.0000000000000000e+00  3.2865339079482563e-13 9.4948044701328352e-02 0.0000000000000000e+00  -1.1178914597235909e-12 9.4658156975138852e-02 0.0000000000000000e+00  -1.5399821222269056e-13 7.6471283593854855e-02 0.0000000000000000e+00  2.6653212264394868e-13 7.8528074686639013e-02 0.0000000000000000e+00  -1.5568091105874325e-13 7.7777010315731587e-02 0.0000000000000000e+00  4.9475617264893889e-12 7.3276592202614704e-02 0.0000000000000000e+00  1.3385932245867674e-12 7.5174822934549398e-02 0.0000000000000000e+00  -2.6646148924985970e-12 7.5285552152451085e-02 0.0000000000000000e+00  -2.3634945679734459e-12 7.9458422438878698e-02 0.0000000000000000e+00  -1.0183401751354510e-12 8.0697683003841003e-02 0.0000000000000000e+00  -4.5127712740665587e-13 8.1078431826039771e-02 0.0000000000000000e+00  6.2116594460538624e-14 1.0130744786902400e-01 0.0000000000000000e+00  -2.3377655896979835e-13 9.9585707066056364e-02 0.0000000000000000e+00  -5.2237603408252270e-14 9.9456920965511633e-02 0.0000000000000000e+00  1.6547919033215283e-12 1.0831371899037158e-01 0.0000000000000000e+00  6.0225501621210118e-13 1.0719171895351538e-01 0.0000000000000000e+00  -3.8048106570679169e-13 1.0939931723366267e-01 0.0000000000000000e+00  -1.2788994383217191e-12 7.2706764117131117e-02 0.0000000000000000e+00  -3.3480499103072038e-13 7.3173491165540228e-02 0.0000000000000000e+00  3.1029196440939858e-12 7.1596234706086975e-02 0.0000000000000000e+00  -1.2751329365287986e-28 5.8976891764665418e-02 0.0000000000000000e+00  -8.3091324591240673e-13 5.7242277297612526e-02 0.0000000000000000e+00  8.8197314843813510e-13 5.9128364618444777e-02 0.0000000000000000e+00  1.7857107786011344e-13 9.6369058430644000e-02 0.0000000000000000e+00  -1.0123145827493721e-12 9.4328893790764284e-02 0.0000000000000000e+00  -7.7200886045820625e-13 9.2221128729848181e-02 0.0000000000000000e+00  1.0814515075333579e-12 9.7738347928804051e-02 0.0000000000000000e+00  2.7403012977332617e-13 9.6307718881740390e-02 0.0000000000000000e+00  -1.6206923826870884e-12 9.6025084895425689e-02 0.0000000000000000e+00  4.6080882752699887e-12 5.6921223515013657e-02 0.0000000000000000e+00  -1.0482688477508413e-12 5.9011045522498175e-02 0.0000000000000000e+00  -8.9506190351146740e-12 5.9328252061018535e-02 0.0000000000000000e+00  -3.5587099310737132e-12 5.2038433909742020e-02 0.0000000000000000e+00  5.9483145351615284e-12 5.4030721676718747e-02 0.0000000000000000e+00  -4.7281958782906465e-12 5.3599278372564417e-02 0.0000000000000000e+00  -1.1566200865192665e-12 9.6033950635518159e-02 0.0000000000000000e+00  -1.8639649064564974e-13 9.6502642014039228e-02 0.0000000000000000e+00  -1.0633146699248654e-12 9.4988351704674179e-02 0.0000000000000000e+00  3.5658491375527000e-13 9.0199952107339235e-02 0.0000000000000000e+00  -5.3321225071667051e-13 8.8613768013839980e-02 0.0000000000000000e+00  -1.3581017057776204e-13 9.1351356377472007e-02 0.0000000000000000e+00  -1.0614700246170367e-13 9.3452354225300863e-02 0.0000000000000000e+00  1.1633558286132929e-13 9.1490422620277539e-02 0.0000000000000000e+00  -2.1294306567504527e-12 9.0950535698398741e-02 0.0000000000000000e+00  1.0648441535283008e-12 7.7491013109660056e-02 0.0000000000000000e+00  -1.5680156229255911e-12 7.8208198021740685e-02 0.0000000000000000e+00  -3.6732440544942504e-13 7.6185760998327121e-02 0.0000000000000000e+00  -1.8175492803375383e-12 7.4676366726618426e-02 0.0000000000000000e+00  -5.0447217728692247e-13 7.4129383113334515e-02 0.0000000000000000e+00  -1.2145279728746769e-12 7.6649149901902497e-02 0.0000000000000000e+00  1.0346509287503141e-12 7.9333558661736678e-02 0.0000000000000000e+00  -2.3376475649042630e-13 7.7772383627543476e-02 0.0000000000000000e+00  1.0642177815018331e-12 7.0477796117741728e-02 0.0000000000000000e+00  -8.8082601809174015e-13 6.9006834622862556e-02 0.0000000000000000e+00  3.3536545740325705e-13 6.9387164762945513e-02 0.0000000000000000e+00  -5.4114021998910674e-13 1.0395632680146452e-01 0.0000000000000000e+00  5.4990943405517141e-13 1.0198970938502110e-01 0.0000000000000000e+00  -2.8351798934741024e-13 1.0304121196663822e-01 0.0000000000000000e+00  -2.2581926883770538e-12 6.7272009432876700e-02 0.0000000000000000e+00  -3.3039676675622237e-12 6.5319638203489502e-02 0.0000000000000000e+00  1.0497298957585451e-12 6.6555403248483164e-02 0.0000000000000000e+00  -6.0745712413986805e-13 6.6489817355032788e-02 0.0000000000000000e+00  -5.0827059308767030e-12 6.6769580321953043e-02 0.0000000000000000e+00  2.2399616879882856e-12 6.4990618155796195e-02 0.0000000000000000e+00  -3.3617588506506645e-12 5.2606025313889693e-02 0.0000000000000000e+00  -4.1146013898153886e-13 5.4230145439776348e-02 0.0000000000000000e+00  -2.0266276078272406e-12 5.2360000914915286e-02 0.0000000000000000e+00  -4.0784023386367565e-13 8.3541835984440552e-02 0.0000000000000000e+00  1.7273980566346137e-12 8.3027993897642038e-02 0.0000000000000000e+00  -2.0721281507781894e-14 8.1839451978071881e-02 0.0000000000000000e+00  7.3654550206499395e-13 6.3965476765077717e-02 0.0000000000000000e+00  4.9670914317049629e-13 6.1800301838480613e-02 0.0000000000000000e+00  -4.1766340582772915e-13 6.3347719001832475e-02 0.0000000000000000e+00  -2.1566163728907986e-12 7.0643501654777757e-02 0.0000000000000000e+00  -1.7795208799853967e-12 6.9258484006388760e-02 0.0000000000000000e+00  1.3152373945578902e-12 6.8114156512407181e-02 0.0000000000000000e+00  1.3460521026480902e-12 9.9192229347106503e-02 0.0000000000000000e+00  -8.8623554805696670e-13 1.0077642811364855e-01 0.0000000000000000e+00  -1.0556201350876400e-12 9.7956742394743557e-02 0.0000000000000000e+00  -1.0584819826137175e-13 7.4724377319133284e-02 0.0000000000000000e+00  1.5134783749271693e-12 7.5628753733586823e-02 0.0000000000000000e+00  3.0824088477130515e-13 7.4151193542553270e-02 0.0000000000000000e+00  -2.8661523346196565e-12 7.4941142625120805e-02 0.0000000000000000e+00  1.9077092358866580e-13 5.7762535475971710e-02 0.0000000000000000e+00  1.2057748559897719e-12 5.9376738567705811e-02 0.0000000000000000e+00  -2.6307863406755640e-12 5.8538949410893590e-02 0.0000000000000000e+00  9.2562366422509884e-13 7.7179664038872817e-02 0.0000000000000000e+00  4.4345571914958303e-13 8.8779542575925477e-02 0.0000000000000000e+00  -3.1221521478021890e-13 9.0192514327832929e-02 0.0000000000000000e+00  -5.8761870856068687e-13 8.7745733842470156e-02 0.0000000000000000e+00  4.2141085104668398e-13 8.2254727943047459e-02 0.0000000000000000e+00  1.3559064358780789e-12 8.4314917977474035e-02 0.0000000000000000e+00  4.0555132642951746e-14 8.2952114105175015e-02 0.0000000000000000e+00  1.0810691154900035e-12 9.0807673476320031e-02 0.0000000000000000e+00  7.5804702026182755e-13 9.1835000632749450e-02 0.0000000000000000e+00  -1.4268653981508995e-12 9.0097993767244838e-02 0.0000000000000000e+00  -6.1756607015305303e-13 8.1090212908591433e-02 0.0000000000000000e+00  -1.2944617769684260e-12 8.1315553025884738e-02 0.0000000000000000e+00  4.3091804731480682e-13 7.9126378881172618e-02 0.0000000000000000e+00  1.7278235649963039e-12 7.5584497613869081e-02 0.0000000000000000e+00  -1.0633964120182570e-12 7.4236203307501386e-02 0.0000000000000000e+00  4.3641476928998029e-13 7.6624259253493490e-02 0.0000000000000000e+00  1.1970511975530973e-12 1.0110814174593810e-01 0.0000000000000000e+00  7.0736201981151807e-13 1.0237327340455160e-01 0.0000000000000000e+00  -1.7855327036110421e-12 7.2393122055925796e-02 0.0000000000000000e+00  -2.9276654465712228e-12 7.0293297792221932e-02 0.0000000000000000e+00  8.3922311216921784e-13 7.2036124832021181e-02 0.0000000000000000e+00  -4.2601458449885953e-13 8.4996108716273888e-02 0.0000000000000000e+00  -1.0515762212030805e-12 8.4128801485549076e-02 0.0000000000000000e+00  2.0664270111148061e-12 8.5656330480666926e-02 0.0000000000000000e+00  4.3560735960781930e-12 7.4014633949500239e-02 0.0000000000000000e+00  -1.9910034518120961e-12 7.9792265325885611e-02 0.0000000000000000e+00  -6.5075714063437799e-13 7.7010438155436900e-02 0.0000000000000000e+00  1.2867091823058660e-12 7.8459607482477794e-02 0.0000000000000000e+00  1.3341824869971815e-13 1.0746359930506048e-01 0.0000000000000000e+00  -1.9311190015983673e-13 1.0750302449219742e-01 0.0000000000000000e+00  1.1966510603779037e-13 1.0957472141589747e-01 0.0000000000000000e+00  -1.5621445720720452e-12 9.8873024423149686e-02 0.0000000000000000e+00  8.2648377334506977e-13 9.8162995401161218e-02 0.0000000000000000e+00  -9.6299174354586725e-13 1.0027416663306160e-01 0.0000000000000000e+00  9.0475850570751996e-14 9.2381007809983012e-02 0.0000000000000000e+00  3.3514982809990710e-13 9.1793473747586132e-02 0.0000000000000000e+00  -1.7945061373647428e-12 9.3384181736684516e-02 0.0000000000000000e+00  -1.4282426932419313e-13 9.3917934670566458e-02 0.0000000000000000e+00  2.7948369058415366e-13 9.4555361801753043e-02 0.0000000000000000e+00  4.7205580214275363e-13 9.5629460391832913e-02 0.0000000000000000e+00  9.2111805176174314e-13 1.0414537725102929e-01 0.0000000000000000e+00  1.4475564528885649e-12 1.0535824319400017e-01 0.0000000000000000e+00  2.5831795841676953e-12 1.0502230442628849e-01 0.0000000000000000e+00  -1.2414497983423672e-13 1.0585789076879250e-01 0.0000000000000000e+00  -1.8254265817210984e-12 1.0644360549859895e-01 0.0000000000000000e+00  4.1306673006611982e-14 1.0345076452756732e-01 0.0000000000000000e+00  -5.2912072453461568e-15 1.0233063461572635e-01 0.0000000000000000e+00  1.4009919984271951e-13 1.0179198375825298e-01 0.0000000000000000e+00  -2.0939503091978382e-13 1.0270188580239245e-01 0.0000000000000000e+00  -4.5943115004769509e-12 1.0280072201187278e-01 0.0000000000000000e+00  -1.7865798238972028e-12 7.5338964281735213e-02 0.0000000000000000e+00  -8.0075178237096343e-13 9.2890488875057201e-02 0.0000000000000000e+00  3.0558111266200679e-12 9.3598796239901430e-02 0.0000000000000000e+00  -1.1326960622427139e-12 9.1974626774543308e-02 0.0000000000000000e+00  4.1897564090691532e-13 9.2521681339463369e-02 0.0000000000000000e+00  -1.5345691764120422e-13 9.0857729868530426e-02 0.0000000000000000e+00  -1.3298001349321068e-12 9.1086892619294313e-02 0.0000000000000000e+00  4.2676782059625300e-13 9.6938027999605922e-02 0.0000000000000000e+00  -4.0999735592938164e-13 9.4555036030524189e-02 0.0000000000000000e+00  1.6012724044621479e-12 9.5997477753485813e-02 0.0000000000000000e+00  -2.1590543786494013e-13 1.0228341893065356e-01 0.0000000000000000e+00  1.8304224238639685e-13 1.0375799841958694e-01 0.0000000000000000e+00  1.6270266446573591e-13 1.0495313822778529e-01 0.0000000000000000e+00  -2.3225666747264154e-13 9.8740129841227306e-02 0.0000000000000000e+00  8.4401151696079440e-14 1.0047670043317189e-01 0.0000000000000000e+00  3.3260816359994007e-13 9.9831552243609512e-02 0.0000000000000000e+00  -1.7301262744719305e-13 1.0635168236048125e-01 0.0000000000000000e+00  -8.0867732198563875e-13 1.0572528348792920e-01 0.0000000000000000e+00  -3.0088596828272781e-13 1.0416230817045644e-01 0.0000000000000000e+00  -9.1364653635267491e-13 1.0831178883323284e-01 0.0000000000000000e+00  2.6955317902423159e-12 1.0654595666632750e-01 0.0000000000000000e+00  3.4434452130506151e-13 1.0903769606300144e-01 0.0000000000000000e+00  -3.1625293247179859e-13 8.6464186861477263e-02 0.0000000000000000e+00  6.3251933140555876e-13 8.5116444527514240e-02 0.0000000000000000e+00  -6.4052987603490718e-13 8.6524502215229546e-02 0.0000000000000000e+00  6.1485151070943500e-13 8.5138368798542891e-02 0.0000000000000000e+00  -1.8775494939410935e-13 8.7454886956976619e-02 0.0000000000000000e+00  2.3648293222175689e-12 6.5384584284391131e-02 0.0000000000000000e+00  6.6349438096874177e-13 6.5955935347534023e-02 0.0000000000000000e+00  1.7775623250198182e-14 6.7319539078494972e-02 0.0000000000000000e+00  -2.5043689950626009e-12 5.6241751605811519e-02 0.0000000000000000e+00  -8.8542453382289760e-13 5.6469383658489677e-02 0.0000000000000000e+00  -3.4156683037066785e-13 7.4954964838033586e-02 0.0000000000000000e+00  7.0806775130342818e-13 7.7091719341880860e-02 0.0000000000000000e+00  1.2122877921387168e-12 7.7764990062470188e-02 0.0000000000000000e+00  -1.6408504754354584e-13 7.3463582437042083e-02 0.0000000000000000e+00  -5.3325050810968858e-13 7.2552947333479417e-02 0.0000000000000000e+00  -1.8425822291127373e-13 7.4518657473106320e-02 0.0000000000000000e+00  6.0372812010980871e-13 8.9044121225627326e-02 0.0000000000000000e+00  -2.5987585385310864e-12 8.8761071393659255e-02 0.0000000000000000e+00  -5.5620244602734393e-13 9.0269169828559301e-02 0.0000000000000000e+00  5.1513517973007088e-13 9.7730545058801702e-02 0.0000000000000000e+00  5.0238390651767326e-13 9.6014955044585598e-02 0.0000000000000000e+00  9.1392349510494810e-13 8.1526879789381237e-02 0.0000000000000000e+00  -4.3016032216696800e-14 8.2394187019139503e-02 0.0000000000000000e+00  6.2290994748137548e-13 8.7674722248131887e-02 0.0000000000000000e+00  2.0493330756302897e-13 8.5188679286933702e-02 0.0000000000000000e+00  3.0195157261771811e-13 8.6535421604467852e-02 0.0000000000000000e+00  5.9622394588672307e-12 6.5594792242916311e-02 0.0000000000000000e+00  -2.7205401336124391e-12 6.3178295990960684e-02 0.0000000000000000e+00  -4.9027259696880359e-13 6.4266294222298168e-02 0.0000000000000000e+00  1.1929236646210294e-12 6.0197944717007540e-02 0.0000000000000000e+00  -2.5656739281477028e-13 6.1145554052220739e-02 0.0000000000000000e+00  -5.3243520249956619e-13 5.3739966395506933e-02 0.0000000000000000e+00  4.3655710046556112e-13 5.4886407199954107e-02 0.0000000000000000e+00  -7.8736756193726574e-16 5.5258947150528953e-02 0.0000000000000000e+00  -1.0511616899149589e-12 7.6918431939069526e-02 0.0000000000000000e+00  -3.8923168013609554e-13 7.3138404845246488e-02 0.0000000000000000e+00  1.8141137560017270e-12 7.1691749120746190e-02 0.0000000000000000e+00  -3.9476106041422837e-13 6.7804891612834997e-02 0.0000000000000000e+00  1.2552799110909308e-12 6.6635288542394477e-02 0.0000000000000000e+00  -6.0270026904090373e-14 6.6254944002640662e-02 0.0000000000000000e+00  1.2713396347047278e-12 7.9941796196484574e-02 0.0000000000000000e+00  -3.2146342563758686e-12 6.7291137890840139e-02 0.0000000000000000e+00  7.5825087773258966e-13 6.5373870284349142e-02 0.0000000000000000e+00  -1.3497356136143599e-13 6.6354220188283797e-02 0.0000000000000000e+00  4.2718019759257329e-13 8.2683289432394377e-02 0.0000000000000000e+00  6.5484262667552649e-13 8.4525071167182511e-02 0.0000000000000000e+00  -2.3269961303654218e-13 8.2201452080373549e-02 0.0000000000000000e+00  2.4215633810049091e-12 8.6730723180406019e-02 0.0000000000000000e+00  5.1856856365188198e-13 8.5135675394648794e-02 0.0000000000000000e+00  -2.2898342591326727e-12 8.7318957913734660e-02 0.0000000000000000e+00  -2.0453449723195498e-12 7.4840830635206620e-02 0.0000000000000000e+00  1.8387653357402552e-12 7.3342137863763979e-02 0.0000000000000000e+00  9.8246514913392613e-13 7.9792265324511322e-02 0.0000000000000000e+00  -2.9933559406463700e-13 7.8096667709977904e-02 0.0000000000000000e+00  4.5786434305966094e-13 9.3628530557172268e-02 0.0000000000000000e+00  -3.3112502756807802e-13 8.4996108715687857e-02 0.0000000000000000e+00  -7.8905617417970771e-15 8.5026443688328707e-02 0.0000000000000000e+00  -3.2188292386092809e-14 8.3811147307275277e-02 0.0000000000000000e+00  1.8845568355082093e-12 7.9246680851979334e-02 0.0000000000000000e+00  -3.3547850175434248e-12 7.9834776984232567e-02 0.0000000000000000e+00  1.5279030861678135e-12 7.6323036397259111e-02 0.0000000000000000e+00  -6.0169018116169932e-13 7.5831000341595539e-02 0.0000000000000000e+00  -1.2116374130926690e-12 7.3899131958882716e-02 0.0000000000000000e+00  -4.7332903615401469e-13 1.0847712721315342e-01 0.0000000000000000e+00  -9.1334892698909808e-13 1.0912956299764244e-01 0.0000000000000000e+00  -6.8060590676185539e-13 1.0747914921091768e-01 0.0000000000000000e+00  -4.2456257384415321e-13 9.2029364058326124e-02 0.0000000000000000e+00  -1.2197076136301342e-12 9.3367103716363517e-02 0.0000000000000000e+00  6.8314040706666830e-14 1.0013394067986107e-01 0.0000000000000000e+00  9.0947928177628343e-13 1.0057366923779991e-01 0.0000000000000000e+00  1.3148179963046921e-12 1.0329459139500195e-01 0.0000000000000000e+00  6.6508062975189048e-13 1.0230575493022810e-01 0.0000000000000000e+00  9.7496625981505367e-14 1.0452930659623391e-01 0.0000000000000000e+00  4.0194928945727298e-12 5.7722725750633017e-02 0.0000000000000000e+00  1.6836257040442063e-12 5.9178898078165509e-02 0.0000000000000000e+00  9.4085792127373098e-13 8.7221713237665338e-02 0.0000000000000000e+00  4.4648495508401470e-14 8.8580376395110627e-02 0.0000000000000000e+00  8.9087329354236606e-13 8.8726383610532117e-02 0.0000000000000000e+00  -2.8277994777327175e-13 9.0148899494897239e-02 0.0000000000000000e+00  7.3888093880709280e-13 8.9244592165838799e-02 0.0000000000000000e+00  -2.5454118805296136e-12 9.0632660942789989e-02 0.0000000000000000e+00  6.1234814908234010e-13 8.8465337643762021e-02 0.0000000000000000e+00  1.6738771226135937e-12 8.8660010126595093e-02 0.0000000000000000e+00  1.8673754680867565e-28 9.7138409962391731e-02 0.0000000000000000e+00  9.1195237834121903e-29 9.5403795497485247e-02 0.0000000000000000e+00  -1.1645769149835214e-12 9.6271102731913680e-02 0.0000000000000000e+00  5.6388071172169324e-13 9.4477528102942132e-02 0.0000000000000000e+00  -6.6262114351136467e-13 9.5099601784270973e-02 0.0000000000000000e+00  -2.5646205495315137e-13 9.3030620277396878e-02 0.0000000000000000e+00  -8.8895172108630626e-13 9.2871063286266625e-02 0.0000000000000000e+00  1.8046788681321325e-12 5.3929203081128994e-02 0.0000000000000000e+00  9.0760599819864622e-13 5.1602978355608585e-02 0.0000000000000000e+00  -2.0137762189124582e-12 5.2968100926656457e-02 0.0000000000000000e+00  -2.1142184718028612e-13 8.4528155752507009e-02 0.0000000000000000e+00  9.7733548279038920e-13 8.7073080214236667e-02 0.0000000000000000e+00  8.9282896108523070e-13 8.9495880439519365e-02 0.0000000000000000e+00  -1.6291921392839698e-12 8.7891112879723385e-02 0.0000000000000000e+00  -1.7150271052368897e-12 5.8631059843914174e-02 0.0000000000000000e+00  5.1775069815924014e-12 5.6464595014398947e-02 0.0000000000000000e+00  5.2123578445679192e-12 5.7119983368588707e-02 0.0000000000000000e+00  8.3641799004463418e-13 5.2038433910632655e-02 0.0000000000000000e+00  -3.0774694995524060e-12 4.9912918725393496e-02 0.0000000000000000e+00  8.7749510500704637e-13 7.2093075117377489e-02 0.0000000000000000e+00  -1.8880345631737311e-12 6.9846378886419674e-02 0.0000000000000000e+00  2.0209725470427751e-12 6.5412251837679097e-02 0.0000000000000000e+00  -4.5876668656662824e-13 6.5565875603786419e-02 0.0000000000000000e+00  1.9247370060034067e-12 6.3365873823828189e-02 0.0000000000000000e+00  -7.1134704652958212e-13 7.3000108033890510e-02 0.0000000000000000e+00  -1.6128266238773388e-12 7.2853807474655030e-02 0.0000000000000000e+00  2.4907651480539420e-12 7.0854771996601867e-02 0.0000000000000000e+00  6.6290305340214683e-14 7.0720127850682796e-02 0.0000000000000000e+00  -2.4886364433485703e-13 1.0898104133420268e-01 0.0000000000000000e+00  2.0866132709173487e-13 1.0815667585379346e-01 0.0000000000000000e+00  4.8320566744376384e-12 6.3441664738330780e-02 0.000000000000