<?xml version="1.0"?>
<VTKFile type="UnstructuredGrid"  version="0.1"  >
<UnstructuredGrid>
<Piece  NumberOfPoints="806" NumberOfCells="1504">
<Points>
<DataArray  type="Float64"  NumberOfComponents="3"  format="ascii">0.01846824474048517 -0.04149541481145257 0  0.01782868919038702 -0.04338851755545801 0  0.01904305817301197 -0.04274419001873621 0  0.04733901150449811 -0.03996872119408579 0  0.04829208008188312 -0.04092308629865739 0  0.04667373753676338 -0.04108798278486302 0  0.01552943322599933 -0.01039223976967649 0  0.01561231669066057 -0.008674083460499629 0  0.01413052010119659 -0.009389502160894639 0  0.03295147424067876 -0.01620437186370464 0  0.032001952132051 -0.01447302962147942 0  0.03352088685144456 -0.01473415368338696 0  0.009071852058287186 -0.03111646240531644 0  0.009454590536262899 -0.02926375325908127 0  0.008053957990568473 -0.0299402944179232 0  0.04393709534775342 -0.03399416543518065 0  0.0450552879070476 -0.03228428374499481 0  0.04345356682255066 -0.03218454146111794 0  0.03218160891894395 -0.02842571783788788 0  0.03055812711423551 -0.02730942100275788 0  0.03190841513955275 -0.02696645140373315 0  0.02059820391388823 -0.008744628494184007 0  0.02236002896120308 -0.01029553220276665 0  0.02069438039481685 -0.01041153970082536 0  0.01492528999248245 -0.002433543897202234 0  0.01607090679295778 -0.003444215195152167 0  0.01610599002356381 -0.001455662474053389 0  0.01533845899304755 -0.03450745320159019 0  0.01291635033112928 -0.03408703642975243 0  0.01431567335582407 -0.03550779203295518 0  0.05 -0.046875 0  0.04838162252857063 -0.0484375 0  0.04830480312230745 -0.04673855680545282 0  0.0335055138043014 -0.01319301380430141 0  0.03503329596179407 -0.0150307462328856 0  0.03473191852987378 -0.01692937153329831 0  0.03062350339451905 -0.01195958995920541 0  0.02880183116468505 -0.01324826702959288 0  0.0303485822656615 -0.01350285709122089 0  0.03646473132841593 -0.0487266977067035 0  0.03567804538662531 -0.04684423509208469 0  0.03720001892537535 -0.04655850289330472 0  0.0328125 -0.05312500000000001 0  0.03185172221986971 -0.05133039393955258 0  0.03328223773659549 -0.05171902792461655 0  0.03686427007144817 -0.01349487103951888 0  0.03895981700495387 -0.01307268484765471 0  0.03814432517406528 -0.01443672202163861 0  0.03125 -0.01875 0  0.03293360810408181 -0.02017879740592817 0  0.0324533095215602 -0.01771284205542287 0  0.0439453125 -0.0158203125 0  0.04237763270340716 -0.0175875744465049 0  0.04439608695310726 -0.01807389191733877 0  0.0182766464026848 -0.03019791398854459 0  0.02042604155621803 -0.02955189065163524 0  0.0197299190175258 -0.03137365445772399 0  0.01379230725571167 -0.03273328139531854 0  0.01501791995124707 -0.03322599139945957 0  0.02155204304257197 -0.03095624460965786 0  0.02191349065759114 -0.02853819219671415 0  0.02305230917876158 -0.02994446202994329 0  0.01329990464676595 -0.03651525526650057 0  0.01388418709928712 -0.03784026285822586 0  0.01225930750566253 -0.03749767039702803 0  0.01916997955773587 -0.006358580516425179 0  0.01891769558890485 -0.008130063332440622 0  0.02112680287951949 -0.007182894483686506 0  0.02574373313225683 -0.03940295267576162 0  0.02615798433030357 -0.04116160286013801 0  0.0269435244416797 -0.04004845471237795 0  0.04178251006096394 -0.04010753294115062 0  0.03983623436998167 -0.03985552902859401 0  0.03972114507343055 -0.04145797640088977 0  0.0396437922234081 -0.05261372697940805 0  0.03997754446209789 -0.0511507576845467 0  0.04105826602165569 -0.05283533998746703 0  0.01799242424242424 -0.02474747474747475 0  0.02040180503127184 -0.02521033163928926 0  0.01894698490238263 -0.02628094230654713 0  0.03290049244401597 -0.04238139970258363 0  0.03373646600975794 -0.04433173846458283 0  0.03511731072848739 -0.04293786140075419 0  0.02944299575463769 -0.03636599160900477 0  0.03143045878689962 -0.03761358300069494 0  0.02971390183888059 -0.03864436635289215 0  0.03288892842300365 -0.01064996769981432 0  0.03377610246494524 -0.009222958628701677 0  0.0338514560775198 -0.01176286534847487 0  0.02619510373908494 -0.03269003457969499 0  0.0275586803855839 -0.03187539353157028 0  0.02742869656996046 -0.03320634507295468 0  0.02874387712996077 -0.03249477747950242 0  0.02185322155471688 -0.04796886364206988 0  0.02117147262782209 -0.04651482738331746 0  0.02317806061277227 -0.04726948819474937 0  0.02680283228650296 -0.03047836992429558 0  0.0116140763143414 -0.0200294715722589 0  0.01255567389343238 -0.01875669977713929 0  0.01289863565765652 -0.02096070221481863 0  0.01436274818423154 -0.02590687146513118 0  0.01376997500590554 -0.02405110063143605 0  0.01312811451181107 -0.02527868237689237 0  0.01949511126133643 -0.01820257885343882 0  0.02139928780926671 -0.01727718666003668 0  0.0213075702412433 -0.01884184167804088 0  0.02497985483238342 -0.02695583927646755 0  0.02684519161778724 -0.0267528581889257 0  0.02643712606206802 -0.02872481488326032 0  0.015181836533936 -0.03191525840546049 0  0.01661043679905785 -0.0331297702723849 0  0.01668600241955626 -0.03097866552280258 0  0.01731419597837964 -0.008924158772178585 0  0.01661233695577045 -0.007784557864161785 0  0.03981046946253874 -0.03478997461063087 0  0.03923171642400429 -0.03668144702800514 0  0.03815781162724478 -0.03511154933377432 0  0.03750000000000001 -0.0234375 0  0.03984375 -0.02421875 0  0.03962211318754 -0.02284278772918 0  0.0427971170360452 -0.03332935475267775 0  0.04375 -0.02812499999999999 0  0.04385526423731859 -0.03063080462925618 0  0.04505180385920117 -0.02932542691051523 0  0.04351553199404762 -0.003199311755952383 0  0.04512082117182855 -0.003163798472886603 0  0.04401605677651377 -0.001297662503700671 0  0.0390625 -0.0109375 0  0.0372198611846347 -0.01157707748388981 0  0.03759210355280668 -0.00967538398276712 0  0.02477813524465676 -0.01678535620910663 0  0.02619491424319022 -0.0173145931035252 0  0.02598372025486592 -0.01588172067947947 0  0.02238005005866955 -0.01540092856280071 0  0.02431018836113115 -0.01482674916194362 0  0.02332186392374201 -0.01385922635918935 0  0.02884403036520363 -0.006188288310987947 0  0.02969512228739365 -0.00509576713021739 0  0.02778956775368434 -0.005398372891070042 0  0.02670820946356766 -0.004645696321677782 0  0.02871424332948464 -0.004118098239242162 0  0.02465272733345908 -0.006813979148103671 0  0.02264625626357764 -0.007822965885707606 0  0.02414717730575611 -0.008308169938046369 0  0.02810798947459298 -0.007488551531561166 0  0.02945001669058807 -0.007399522190517364 0  0.04184946453364417 -0.03213642906728832 0  0.04771258783191607 -0.01632642762110901 0  0.04588066889095144 -0.01568840097202207 0  0.04557265674790806 -0.01715141471048685 0  0.01595944973070434 -0.01665864079534912 0  0.01490811737430122 -0.01815748923040521 0  0.01620791970234805 -0.01795106480095328 0  0.01520615639784498 -0.01268049936812179 0  0.01475119078452227 -0.0148270426093771 0  0.01391218072944126 -0.01352772495826596 0  0.04683437186992465 -0.007865496666910285 0  0.04815155286411878 -0.006537230068970651 0  0.04728475614638013 -0.00546067617800606 0  0.04527103964454355 -0.01105720832240294 0  0.04606007517071044 -0.00949294628814989 0  0.04403762685149307 -0.01007408063750094 0  0.03949793158361206 -0.004200900444856822 0  0.03721979924877703 -0.0047651458494762 0  0.03878857822445099 -0.006173037334646442 0  0.0328125 -0.002435282534944978 0  0.03421085901935263 -0.004025902711367846 0  0.0344724171911955 -0.001781402336893533 0  0.01398706243080254 -0.0221150896608866 0  0.01258564041330076 -0.02332910432433855 0  0.009194419875177533 -0.02206075900562258 0  0.01024587951903527 -0.02330935545630703 0  0.01055332124836828 -0.02122269026435361 0  0.04537177463340432 -0.04110310095312193 0  0.04358182320191761 -0.04058844132853304 0  0.04571692188981746 -0.03936013908857622 0  0.0314309378115113 -0.04933875006157912 0  0.03311732503601984 -0.04913370444965118 0  0.03188089108105607 -0.03248232675683183 0  0.03342833160640403 -0.03055758844544694 0  0.03201928783414298 -0.02995112197871371 0  0.02861389331433733 -0.03382572902088683 0  0.03040673456957986 -0.03464600775368622 0  0.03013279554826485 -0.03287534219077422 0  0.04322916666666667 -0.01979114533068931 0  0.04127822573223301 -0.02004610997813836 0  0.04153902537676457 -0.01868765030406217 0  0.03530867441197051 -0.01196661860082494 0  0.03531896729860391 -0.01351198182519367 0  0.0390625 -0.0265625 0  0.040625 -0.02578125 0  0.03451316441232027 -0.02102466779383987 0  0.03546014347486393 -0.02326403694972784 0  0.03659060654472844 -0.02205092307513984 0  0.02436828498060588 -0.0409137505577845 0  0.02461490540344126 -0.04309047366990028 0  0.02353555540376851 -0.04211043040913431 0  0.02307251020656784 -0.04577510415514846 0  0.0213724062387126 -0.04492151990354357 0  0.04141166808534667 -0.05159229946940671 0  0.04316771177950235 -0.05055961249403544 0  0.04178869705860652 -0.05022403725139264 0  0.04636190916549267 -0.03071368166901467 0  0.01135833061239636 -0.03411864136424596 0  0.01234457162076637 -0.03542175489045764 0  0.01484586826671411 -0.03892294491435778 0  0.01682229953162608 -0.03997649591280195 0  0.01537065409622362 -0.04031910134814119 0  0.01953075217518766 -0.02799030610032226 0  0.02166562205297151 -0.0393857222105142 0  0.02247248496586275 -0.04111275187432602 0  0.02017264389999211 -0.04022967569049397 0  0.04635416666666667 -0.02552083333333333 0  0.04494656968390805 -0.02386179956896552 0  0.04418402777777777 -0.0259548611111111 0  0.04583333333333334 -0.021875 0  0.04638335129310345 -0.02331178160919541 0  0.04711179217743537 -0.02134513195633085 0  0.0333620841728586 -0.03258513616480065 0  0.0321298013877258 -0.03393512344096119 0  0.028125 -0.028125 0  0.02855580875793202 -0.02965235453857057 0  0.02093749816297855 -0.01566161699728076 0  0.0296875 -0.0234375 0  0.03158523513293739 -0.0234101749700282 0  0.03065193331477824 -0.02450488542779667 0  0.0379771404208144 -0.02861644968655365 0  0.03946078836391552 -0.02808670649690729 0  0.03750
[...]
<PointData  Vectors="displacement"> 
<DataArray  type="Float64"  Name="displacement"  NumberOfComponents="3" format="ascii">3.4698088126492070e-12 6.4949055782816512e-02 0.0000000000000000e+00  6.1911469067159317e-12 6.2847421604202244e-02 0.0000000000000000e+00  -1.8429973165784290e-11 6.3562723913568514e-02 0.0000000000000000e+00  -3.2449638304711488e-12 6.6643919673536806e-02 0.0000000000000000e+00  -2.6492810182622528e-12 6.5584428140136306e-02 0.0000000000000000e+00  2.7013496968508219e-12 6.5401367771345698e-02 0.0000000000000000e+00  1.8127034654836204e-12 9.9478346844909388e-02 0.0000000000000000e+00  -3.0908292824035283e-13 1.0138576366774615e-01 0.0000000000000000e+00  5.0124668114316527e-13 1.0059153926795408e-01 0.0000000000000000e+00  1.8383677360553205e-12 9.3025989472394099e-02 0.0000000000000000e+00  7.4095694443722004e-13 9.4948044700622652e-02 0.0000000000000000e+00  -2.3405305895981104e-12 9.4658156976276525e-02 0.0000000000000000e+00  -5.2654439974991046e-13 7.6471283593472356e-02 0.0000000000000000e+00  8.8939595137460960e-13 7.8528074686998753e-02 0.0000000000000000e+00  -3.6769869515766828e-13 7.7777010315625519e-02 0.0000000000000000e+00  1.1369141751853171e-11 7.3276592201065041e-02 0.0000000000000000e+00  3.0754119346708299e-12 7.5174822939533759e-02 0.0000000000000000e+00  -6.1135612941022390e-12 7.5285552153138646e-02 0.0000000000000000e+00  -5.4149832361338291e-12 7.9458422439194973e-02 0.0000000000000000e+00  -2.3350082075233506e-12 8.0697683001523871e-02 0.0000000000000000e+00  -1.0076451980199630e-12 8.1078431830166761e-02 0.0000000000000000e+00  1.3388386466126902e-13 1.0130744786906887e-01 0.0000000000000000e+00  -5.1617322629451075e-13 9.9585707066044582e-02 0.0000000000000000e+00  -1.3079350542804874e-13 9.9456920967003662e-02 0.0000000000000000e+00  3.2525068296974884e-12 1.0831371899295138e-01 0.0000000000000000e+00  1.1934205839364261e-12 1.0719171895219316e-01 0.0000000000000000e+00  -7.6468031228942044e-13 1.0939931723302758e-01 0.0000000000000000e+00  -3.0148554050066243e-12 7.2706764115816822e-02 0.0000000000000000e+00  -8.1107028810335027e-13 7.3173491164191778e-02 0.0000000000000000e+00  7.0724014395174451e-12 7.1596234705303130e-02 0.0000000000000000e+00  2.1252215608813311e-28 5.8976891767543567e-02 0.0000000000000000e+00  -1.9183447436520488e-12 5.7242277295896628e-02 0.0000000000000000e+00  2.0628143822705964e-12 5.9128364617295176e-02 0.0000000000000000e+00  3.8034603258298194e-13 9.6369058431489213e-02 0.0000000000000000e+00  -2.2218404425302089e-12 9.4328893792373469e-02 0.0000000000000000e+00  -1.5718584232777532e-12 9.2221128730939766e-02 0.0000000000000000e+00  2.3967122937894604e-12 9.7738347929262337e-02 0.0000000000000000e+00  5.9472050826690686e-13 9.6307718881512600e-02 0.0000000000000000e+00  -3.6198394659758975e-12 9.6025084894866566e-02 0.0000000000000000e+00  1.0700239955855489e-11 5.6921223504501725e-02 0.0000000000000000e+00  -2.4090828485608508e-12 5.9011045518937585e-02 0.0000000000000000e+00  -2.0873270804977271e-11 5.9328252067413885e-02 0.0000000000000000e+00  -8.3071602833872653e-12 5.2038433911979903e-02 0.0000000000000000e+00  1.3813001033294458e-11 5.4030721684873224e-02 0.0000000000000000e+00  -1.1091749463636734e-11 5.3599278354238049e-02 0.0000000000000000e+00  -2.4858537894331790e-12 9.6033950633362897e-02 0.0000000000000000e+00  -3.7110310841576930e-13 9.6502642015216786e-02 0.0000000000000000e+00  -2.3922691096549443e-12 9.4988351707719521e-02 0.0000000000000000e+00  6.5127962181033503e-13 9.0199952107195919e-02 0.0000000000000000e+00  -1.1327499555483258e-12 8.8613768013711111e-02 0.0000000000000000e+00  -2.0838373486795454e-13 9.1351356377804199e-02 0.0000000000000000e+00  -2.6391876949236612e-13 9.3452354223690443e-02 0.0000000000000000e+00  2.9235145125174630e-13 9.1490422619016437e-02 0.0000000000000000e+00  -4.7377416350667595e-12 9.0950535699827278e-02 0.0000000000000000e+00  2.3917253426904243e-12 7.7491013108670112e-02 0.0000000000000000e+00  -3.5846864332715578e-12 7.8208198021567629e-02 0.0000000000000000e+00  -9.4668138520048672e-13 7.6185760996753546e-02 0.0000000000000000e+00  -4.2791093759240649e-12 7.4676366726322801e-02 0.0000000000000000e+00  -1.2838683011220258e-12 7.4129383116254347e-02 0.0000000000000000e+00  -2.7878473756984145e-12 7.6649149902108360e-02 0.0000000000000000e+00  2.3412894863492231e-12 7.9333558660249853e-02 0.0000000000000000e+00  -4.9772703313737306e-13 7.7772383627341082e-02 0.0000000000000000e+00  2.4065631000154373e-12 7.0477796118769268e-02 0.0000000000000000e+00  -2.0931026118540765e-12 6.9006834621575877e-02 0.0000000000000000e+00  7.6214189424430878e-13 6.9387164766270104e-02 0.0000000000000000e+00  -9.4428774872209473e-13 1.0395632680087974e-01 0.0000000000000000e+00  1.1483017488529536e-12 1.0198970938513617e-01 0.0000000000000000e+00  -5.5080905546749614e-13 1.0304121196625340e-01 0.0000000000000000e+00  -5.1848044726743846e-12 6.7272009431747756e-02 0.0000000000000000e+00  -7.6398794545777989e-12 6.5319638202610927e-02 0.0000000000000000e+00  2.4313495750013735e-12 6.6555403252243253e-02 0.0000000000000000e+00  -1.4444691583629058e-12 6.6489817351712915e-02 0.0000000000000000e+00  -1.1847914262464514e-11 6.6769580322177988e-02 0.0000000000000000e+00  5.1976402891561131e-12 6.4990618159809235e-02 0.0000000000000000e+00  -7.8514394561008427e-12 5.2606025309834784e-02 0.0000000000000000e+00  -9.8382640170966055e-13 5.4230145434041123e-02 0.0000000000000000e+00  -4.7515842445931079e-12 5.2360000915706036e-02 0.0000000000000000e+00  -8.5355613648334115e-13 8.3541835984486904e-02 0.0000000000000000e+00  3.8853116255537379e-12 8.3027993896452171e-02 0.0000000000000000e+00  -7.2442514529128295e-14 8.1839451976153318e-02 0.0000000000000000e+00  1.6867633666830565e-12 6.3965476762580631e-02 0.0000000000000000e+00  1.1203977937918076e-12 6.1800301838265653e-02 0.0000000000000000e+00  -9.3088795494148359e-13 6.3347719003472511e-02 0.0000000000000000e+00  -5.0191681126846770e-12 7.0643501657764854e-02 0.0000000000000000e+00  -4.1017560693217781e-12 6.9258484006895590e-02 0.0000000000000000e+00  3.0237327132944876e-12 6.8114156514768764e-02 0.0000000000000000e+00  3.0243614666537774e-12 9.9192229350004740e-02 0.0000000000000000e+00  -1.8980695915775836e-12 1.0077642811511368e-01 0.0000000000000000e+00  -2.4089421872356117e-12 9.7956742393468840e-02 0.0000000000000000e+00  -1.5996770825528968e-13 7.4724377317803542e-02 0.0000000000000000e+00  3.4528049114687651e-12 7.5628753734804918e-02 0.0000000000000000e+00  7.2472851929649985e-13 7.4151193539940957e-02 0.0000000000000000e+00  -6.5792667933400077e-12 7.4941142624285445e-02 0.0000000000000000e+00  4.7075368051510374e-13 5.7762535473392482e-02 0.0000000000000000e+00  2.7903366276724595e-12 5.9376738570111984e-02 0.0000000000000000e+00  -6.0434737069337013e-12 5.8538949414309649e-02 0.0000000000000000e+00  2.0832949151181306e-12 7.7179664037322668e-02 0.0000000000000000e+00  9.5953718483120612e-13 8.8779542577655357e-02 0.0000000000000000e+00  -6.3850925675201618e-13 9.0192514327841658e-02 0.0000000000000000e+00  -1.2745192131769789e-12 8.7745733840779896e-02 0.0000000000000000e+00  9.1727475695456210e-13 8.2254727943879113e-02 0.0000000000000000e+00  2.9881430752464408e-12 8.4314917977661233e-02 0.0000000000000000e+00  -1.1053560588773951e-15 8.2952114105844410e-02 0.0000000000000000e+00  2.2569602341013247e-12 9.0807673476686113e-02 0.0000000000000000e+00  1.5337944906049846e-12 9.1835000632282324e-02 0.0000000000000000e+00  -3.0937850359226181e-12 9.0097993764740453e-02 0.0000000000000000e+00  -1.4029951862030364e-12 8.1090212906117523e-02 0.0000000000000000e+00  -2.8487449759888543e-12 8.1315553025757714e-02 0.0000000000000000e+00  9.3412223100227308e-13 7.9126378882992870e-02 0.0000000000000000e+00  3.9421206939413966e-12 7.5584497614894747e-02 0.0000000000000000e+00  -2.5147445120020486e-12 7.4236203305881779e-02 0.0000000000000000e+00  9.2313298250410782e-13 7.6624259255437810e-02 0.0000000000000000e+00  2.4252899358853560e-12 1.0110814174562660e-01 0.0000000000000000e+00  1.4791442620412324e-12 1.0237327340358762e-01 0.0000000000000000e+00  -4.1011799836515120e-12 7.2393122055923603e-02 0.0000000000000000e+00  -6.8158218506709370e-12 7.0293297792776543e-02 0.0000000000000000e+00  1.9159643446373254e-12 7.2036124835071741e-02 0.0000000000000000e+00  -9.5709158931185353e-13 8.4996108715889668e-02 0.0000000000000000e+00  -2.3905387408180182e-12 8.4128801486499746e-02 0.0000000000000000e+00  4.6500176279253043e-12 8.5656330480485751e-02 0.0000000000000000e+00  1.0048407428266649e-11 7.4014633951401440e-02 0.0000000000000000e+00  -4.5362720960060582e-12 7.9792265326001116e-02 0.0000000000000000e+00  -1.4658155933743233e-12 7.7010438154757513e-02 0.0000000000000000e+00  2.9370859848387908e-12 7.8459607483585450e-02 0.0000000000000000e+00  2.9731240578958235e-13 1.0746359930461613e-01 0.0000000000000000e+00  -4.4821572373501531e-13 1.0750302449202780e-01 0.0000000000000000e+00  2.5691797737508482e-13 1.0957472141578981e-01 0.0000000000000000e+00  -3.3726826322500640e-12 9.8873024420478933e-02 0.0000000000000000e+00  1.7613183143967280e-12 9.8162995404116729e-02 0.0000000000000000e+00  -2.0576834633070449e-12 1.0027416663406438e-01 0.0000000000000000e+00  2.3700127083517094e-13 9.2381007809878804e-02 0.0000000000000000e+00  8.5939270608655093e-13 9.1793473746900098e-02 0.0000000000000000e+00  -4.0235362919635683e-12 9.3384181737409200e-02 0.0000000000000000e+00  -3.5072702093564206e-13 9.3917934670961198e-02 0.0000000000000000e+00  6.4920449324647174e-13 9.4555361801363730e-02 0.0000000000000000e+00  1.0250507120457597e-12 9.5629460391215185e-02 0.0000000000000000e+00  2.1150240959516286e-12 1.0414537725400576e-01 0.0000000000000000e+00  3.2640166625632411e-12 1.0535824319205903e-01 0.0000000000000000e+00  5.9072381806409517e-12 1.0502230442845231e-01 0.0000000000000000e+00  -2.7149083990004775e-13 1.0585789076805424e-01 0.0000000000000000e+00  -4.1636523733442317e-12 1.0644360549835816e-01 0.0000000000000000e+00  1.2513678183781918e-13 1.0345076452684308e-01 0.0000000000000000e+00  -3.1089851056745717e-14 1.0233063461615169e-01 0.0000000000000000e+00  3.4555805743774319e-13 1.0179198376042584e-01 0.0000000000000000e+00  -4.1470543296995073e-13 1.0270188580576359e-01 0.0000000000000000e+00  -1.0303289077449592e-11 1.0280072201076440e-01 0.0000000000000000e+00  -4.1151633342036290e-12 7.5338964280448520e-02 0.0000000000000000e+00  -1.7553177533121602e-12 9.2890488873128493e-02 0.0000000000000000e+00  6.7806181436662833e-12 9.3598796240924070e-02 0.0000000000000000e+00  -2.5112511022345178e-12 9.1974626776806914e-02 0.0000000000000000e+00  1.0306576323668804e-12 9.2521681339714862e-02 0.0000000000000000e+00  -2.7538599895360740e-13 9.0857729869375015e-02 0.0000000000000000e+00  -3.0781335826012930e-12 9.1086892617892712e-02 0.0000000000000000e+00  9.1339622061580943e-13 9.6938027998831791e-02 0.0000000000000000e+00  -8.3006921545592029e-13 9.4555036030600836e-02 0.0000000000000000e+00  3.3412785279374355e-12 9.5997477754782803e-02 0.0000000000000000e+00  -4.4787234128776925e-13 1.0228341893113785e-01 0.0000000000000000e+00  4.5021857250094278e-13 1.0375799841936718e-01 0.0000000000000000e+00  3.4101903985939431e-13 1.0495313822788188e-01 0.0000000000000000e+00  -6.1328876920817587e-13 9.8740129841121876e-02 0.0000000000000000e+00  2.3003953798443045e-13 1.0047670043322732e-01 0.0000000000000000e+00  7.4575428326902789e-13 9.9831552244734070e-02 0.0000000000000000e+00  -3.1278193016134566e-13 1.0635168236036266e-01 0.0000000000000000e+00  -1.7632176163192937e-12 1.0572528348880160e-01 0.0000000000000000e+00  -7.0236343731242560e-13 1.0416230817137365e-01 0.0000000000000000e+00  -1.9870911903240625e-12 1.0831178883314138e-01 0.0000000000000000e+00  5.9756856621313806e-12 1.0654595666864336e-01 0.0000000000000000e+00  6.9404883123695856e-13 1.0903769606087862e-01 0.0000000000000000e+00  -6.9770832406072047e-13 8.6464186861857806e-02 0.0000000000000000e+00  1.4907223847980096e-12 8.5116444525810298e-02 0.0000000000000000e+00  -1.4465812998341523e-12 8.6524502215407931e-02 0.0000000000000000e+00  1.4814861239769759e-12 8.5138368797946645e-02 0.0000000000000000e+00  -4.7586498963668164e-13 8.7454886956368050e-02 0.0000000000000000e+00  5.5293330644053661e-12 6.5384584281171609e-02 0.0000000000000000e+00  1.5216546042166100e-12 6.5955935350731215e-02 0.0000000000000000e+00  1.2223308779683376e-14 6.7319539080413035e-02 0.0000000000000000e+00  -5.8716081095676047e-12 5.6241751603002377e-02 0.0000000000000000e+00  -2.0994121910623485e-12 5.6469383654183206e-02 0.0000000000000000e+00  -7.8769689974535781e-13 7.4954964840464988e-02 0.0000000000000000e+00  1.5728269047742124e-12 7.7091719343303916e-02 0.0000000000000000e+00  2.7509701820339296e-12 7.7764990060477518e-02 0.0000000000000000e+00  -5.7954165283064297e-13 7.3463582436306671e-02 0.0000000000000000e+00  -1.1798286280652382e-12 7.2552947336746484e-02 0.0000000000000000e+00  -4.2857195543904471e-13 7.4518657474249461e-02 0.0000000000000000e+00  1.3788181950891817e-12 8.9044121222930150e-02 0.0000000000000000e+00  -5.8199168441512380e-12 8.8761071393103103e-02 0.0000000000000000e+00  -1.2098191944162973e-12 9.0269169832464094e-02 0.0000000000000000e+00  1.1755027323852296e-12 9.7730545058381801e-02 0.0000000000000000e+00  9.6432590544256252e-13 9.6014955046747147e-02 0.0000000000000000e+00  2.0560441216197528e-12 8.1526879789383500e-02 0.0000000000000000e+00  -7.9454460897217486e-14 8.2394187016628900e-02 0.0000000000000000e+00  1.4357208520096035e-12 8.7674722248227713e-02 0.0000000000000000e+00  5.3020810159459352e-13 8.5188679287187458e-02 0.0000000000000000e+00  6.9799818678699881e-13 8.6535421603286949e-02 0.0000000000000000e+00  1.3753316888425101e-11 6.5594792240384961e-02 0.0000000000000000e+00  -6.3247533902555018e-12 6.3178295988406588e-02 0.0000000000000000e+00  -1.2173282334407475e-12 6.4266294237684388e-02 0.0000000000000000e+00  2.7363751917158509e-12 6.0197944717432339e-02 0.0000000000000000e+00  -5.5621246802721178e-13 6.1145554050607044e-02 0.0000000000000000e+00  -1.2714626136142771e-12 5.3739966397963204e-02 0.0000000000000000e+00  1.0149298744013148e-12 5.4886407196512187e-02 0.0000000000000000e+00  -2.6917642945343733e-14 5.5258947149864839e-02 0.0000000000000000e+00  -2.3902466566256815e-12 7.6918431937445950e-02 0.0000000000000000e+00  -9.2099528800823374e-13 7.3138404844721838e-02 0.0000000000000000e+00  4.1280124583009070e-12 7.1691749120892823e-02 0.0000000000000000e+00  -9.0435124139536747e-13 6.7804891612282647e-02 0.0000000000000000e+00  2.9276327753792378e-12 6.6635288543859250e-02 0.0000000000000000e+00  -2.2097168434129865e-14 6.6254944004281030e-02 0.0000000000000000e+00  2.8460612010320794e-12 7.9941796195708334e-02 0.0000000000000000e+00  -7.4252492909545341e-12 6.7291137890711269e-02 0.0000000000000000e+00  1.7514958595169474e-12 6.5373870283290766e-02 0.0000000000000000e+00  -2.8043503866836311e-13 6.6354220190685723e-02 0.0000000000000000e+00  9.4439589205498409e-13 8.2683289433137214e-02 0.0000000000000000e+00  1.4943050988963950e-12 8.4525071165789833e-02 0.0000000000000000e+00  -5.2244628567929130e-13 8.2201452079818535e-02 0.0000000000000000e+00  5.4529179006576584e-12 8.6730723180638264e-02 0.0000000000000000e+00  1.1881115965028262e-12 8.5135675391007179e-02 0.0000000000000000e+00  -5.1183342837376297e-12 8.7318957912804043e-02 0.0000000000000000e+00  -4.6597493772244234e-12 7.4840830632742619e-02 0.0000000000000000e+00  4.1226545045920360e-12 7.3342137861013582e-02 0.0000000000000000e+00  2.2536771583270109e-12 7.9792265322959272e-02 0.0000000000000000e+00  -6.4607030631582747e-13 7.8096667709283418e-02 0.0000000000000000e+00  1.0518137559615132e-12 9.3628530558938799e-02 0.0000000000000000e+00  -7.1128346779634997e-13 8.4996108714717758e-02 0.0000000000000000e+00  -1.3256969963050716e-13 8.5026443689291353e-02 0.0000000000000000e+00  4.1173015128609170e-14 8.3811147306585759e-02 0.0000000000000000e+00  4.2477232991253969e-12 7.9246680847090273e-02 0.0000000000000000e+00  -7.6241475712484106e-12 7.9834776985979392e-02 0.0000000000000000e+00  3.5210052013071968e-12 7.6323036395569727e-02 0.0000000000000000e+00  -1.5093040275844712e-12 7.5831000342848370e-02 0.0000000000000000e+00  -2.7952503749681601e-12 7.3899131957456260e-02 0.0000000000000000e+00  -9.5375768218016181e-13 1.0847712721566997e-01 0.0000000000000000e+00  -2.1743061787544008e-12 1.0912956299713364e-01 0.0000000000000000e+00  -1.4337952735676605e-12 1.0747914921104641e-01 0.0000000000000000e+00  -7.8931739784283234e-13 9.2029364057694005e-02 0.0000000000000000e+00  -2.8787520561010301e-12 9.3367103715789004e-02 0.0000000000000000e+00  1.3651459711644886e-13 1.0013394068042893e-01 0.0000000000000000e+00  2.0389907173452783e-12 1.0057366923662805e-01 0.0000000000000000e+00  2.6064285599592778e-12 1.0329459139583765e-01 0.0000000000000000e+00  1.3686630648978895e-12 1.0230575492955600e-01 0.0000000000000000e+00  2.3379820044968943e-13 1.0452930659573413e-01 0.0000000000000000e+00  9.3422922322007763e-12 5.7722725749977465e-02 0.0000000000000000e+00  3.8489468924228328e-12 5.9178898075043534e-02 0.0000000000000000e+00  2.1076614136673582e-12 8.7221713237885079e-02 0.0000000000000000e+00  2.5900584706323468e-13 8.8580376393886981e-02 0.0000000000000000e+00  1.9603057163884461e-12 8.8726383611880524e-02 0.0000000000000000e+00  -6.6357398000152873e-13 9.0148899494859200e-02 0.0000000000000000e+00  1.5982772428375931e-12 8.9244592166544942e-02 0.0000000000000000e+00  -5.6721058969464561e-12 9.0632660941126417e-02 0.0000000000000000e+00  1.3411046138151039e-12 8.8465337643706024e-02 0.0000000000000000e+00  3.7627879081258737e-12 8.8660010127639077e-02 0.0000000000000000e+00  5.6021264042602700e-28 9.7138409963227437e-02 0.0000000000000000e+00  7.2956190267297522e-28 9.5403795496779714e-02 0.0000000000000000e+00  -2.4962373280520601e-12 9.6271102734213382e-02 0.0000000000000000e+00  1.2581997034482874e-12 9.4477528103419806e-02 0.0000000000000000e+00  -1.4792463819340589e-12 9.5099601783606658e-02 0.0000000000000000e+00  -6.3774306706814867e-13 9.3030620277206710e-02 0.0000000000000000e+00  -2.0991857775466161e-12 9.2871063285384484e-02 0.0000000000000000e+00  4.2198720397136220e-12 5.3929203085969143e-02 0.0000000000000000e+00  2.1376952648262320e-12 5.1602978355782023e-02 0.0000000000000000e+00  -4.6496236274210702e-12 5.2968100916877391e-02 0.0000000000000000e+00  -5.2252918203527009e-13 8.4528155753270134e-02 0.0000000000000000e+00  2.2392092038909438e-12 8.7073080213180790e-02 0.0000000000000000e+00  2.0309749758537629e-12 8.9495880439566800e-02 0.0000000000000000e+00  -3.5061950604541676e-12 8.7891112879556602e-02 0.0000000000000000e+00  -4.0112744999303317e-12 5.8631059851505740e-02 0.0000000000000000e+00  1.2026670544361097e-11 5.6464595013585438e-02 0.0000000000000000e+00  1.2127000040646836e-11 5.7119983359114293e-02 0.0000000000000000e+00  1.9811761576313462e-12 5.2038433914025344e-02 0.0000000000000000e+00  -7.1735697530312522e-12 4.9912918722700192e-02 0.0000000000000000e+00  2.0525095061954517e-12 7.2093075114898847e-02 0.0000000000000000e+00  -4.3552905373231740e-12 6.9846378885923197e-02 0.0000000000000000e+00  4.6357347639012973e-12 6.5412251833327981e-02 0.0000000000000000e+00  -1.0259524972818291e-12 6.5565875603893570e-02 0.0000000000000000e+00  4.4073130635054819e-12 6.3365873825948230e-02 0.0000000000000000e+00  -1.7238528312399250e-12 7.3000108032872615e-02 0.0000000000000000e+00  -3.7129994099243834e-12 7.2853807478968483e-02 0.0000000000000000e+00  5.7380297148105664e-12 7.0854771998793115e-02 0.0000000000000000e+00  1.1155884535317827e-13 7.0720127844041220e-02 0.0000000000000000e+00  -4.5126811892424756e-13 1.0898104133471262e-01 0.0000000000000000e+00  3.9180373220913888e-13 1.0815667585421250e-01 0.0000000000000000e+00  1.1166473292475283e-11 6.3441664749077059e-02 0.0000000000000