<?xml version="1.0"?>
<VTKFile type="UnstructuredGrid"  version="0.1"  >
<UnstructuredGrid>
<Piece  NumberOfPoints="806" NumberOfCells="1504">
<Points>
<DataArray  type="Float64"  NumberOfComponents="3"  format="ascii">0.01846824474048517 -0.04149541481145257 0  0.01782868919038702 -0.04338851755545801 0  0.01904305817301197 -0.04274419001873621 0  0.04733901150449811 -0.03996872119408579 0  0.04829208008188312 -0.04092308629865739 0  0.04667373753676338 -0.04108798278486302 0  0.01552943322599933 -0.01039223976967649 0  0.01561231669066057 -0.008674083460499629 0  0.01413052010119659 -0.009389502160894639 0  0.03295147424067876 -0.01620437186370464 0  0.032001952132051 -0.01447302962147942 0  0.03352088685144456 -0.01473415368338696 0  0.009071852058287186 -0.03111646240531644 0  0.009454590536262899 -0.02926375325908127 0  0.008053957990568473 -0.0299402944179232 0  0.04393709534775342 -0.03399416543518065 0  0.0450552879070476 -0.03228428374499481 0  0.04345356682255066 -0.03218454146111794 0  0.03218160891894395 -0.02842571783788788 0  0.03055812711423551 -0.02730942100275788 0  0.03190841513955275 -0.02696645140373315 0  0.02059820391388823 -0.008744628494184007 0  0.02236002896120308 -0.01029553220276665 0  0.02069438039481685 -0.01041153970082536 0  0.01492528999248245 -0.002433543897202234 0  0.01607090679295778 -0.003444215195152167 0  0.01610599002356381 -0.001455662474053389 0  0.01533845899304755 -0.03450745320159019 0  0.01291635033112928 -0.03408703642975243 0  0.01431567335582407 -0.03550779203295518 0  0.05 -0.046875 0  0.04838162252857063 -0.0484375 0  0.04830480312230745 -0.04673855680545282 0  0.0335055138043014 -0.01319301380430141 0  0.03503329596179407 -0.0150307462328856 0  0.03473191852987378 -0.01692937153329831 0  0.03062350339451905 -0.01195958995920541 0  0.02880183116468505 -0.01324826702959288 0  0.0303485822656615 -0.01350285709122089 0  0.03646473132841593 -0.0487266977067035 0  0.03567804538662531 -0.04684423509208469 0  0.03720001892537535 -0.04655850289330472 0  0.0328125 -0.05312500000000001 0  0.03185172221986971 -0.05133039393955258 0  0.03328223773659549 -0.05171902792461655 0  0.03686427007144817 -0.01349487103951888 0  0.03895981700495387 -0.01307268484765471 0  0.03814432517406528 -0.01443672202163861 0  0.03125 -0.01875 0  0.03293360810408181 -0.02017879740592817 0  0.0324533095215602 -0.01771284205542287 0  0.0439453125 -0.0158203125 0  0.04237763270340716 -0.0175875744465049 0  0.04439608695310726 -0.01807389191733877 0  0.0182766464026848 -0.03019791398854459 0  0.02042604155621803 -0.02955189065163524 0  0.0197299190175258 -0.03137365445772399 0  0.01379230725571167 -0.03273328139531854 0  0.01501791995124707 -0.03322599139945957 0  0.02155204304257197 -0.03095624460965786 0  0.02191349065759114 -0.02853819219671415 0  0.02305230917876158 -0.02994446202994329 0  0.01329990464676595 -0.03651525526650057 0  0.01388418709928712 -0.03784026285822586 0  0.01225930750566253 -0.03749767039702803 0  0.01916997955773587 -0.006358580516425179 0  0.01891769558890485 -0.008130063332440622 0  0.02112680287951949 -0.007182894483686506 0  0.02574373313225683 -0.03940295267576162 0  0.02615798433030357 -0.04116160286013801 0  0.0269435244416797 -0.04004845471237795 0  0.04178251006096394 -0.04010753294115062 0  0.03983623436998167 -0.03985552902859401 0  0.03972114507343055 -0.04145797640088977 0  0.0396437922234081 -0.05261372697940805 0  0.03997754446209789 -0.0511507576845467 0  0.04105826602165569 -0.05283533998746703 0  0.01799242424242424 -0.02474747474747475 0  0.02040180503127184 -0.02521033163928926 0  0.01894698490238263 -0.02628094230654713 0  0.03290049244401597 -0.04238139970258363 0  0.03373646600975794 -0.04433173846458283 0  0.03511731072848739 -0.04293786140075419 0  0.02944299575463769 -0.03636599160900477 0  0.03143045878689962 -0.03761358300069494 0  0.02971390183888059 -0.03864436635289215 0  0.03288892842300365 -0.01064996769981432 0  0.03377610246494524 -0.009222958628701677 0  0.0338514560775198 -0.01176286534847487 0  0.02619510373908494 -0.03269003457969499 0  0.0275586803855839 -0.03187539353157028 0  0.02742869656996046 -0.03320634507295468 0  0.02874387712996077 -0.03249477747950242 0  0.02185322155471688 -0.04796886364206988 0  0.02117147262782209 -0.04651482738331746 0  0.02317806061277227 -0.04726948819474937 0  0.02680283228650296 -0.03047836992429558 0  0.0116140763143414 -0.0200294715722589 0  0.01255567389343238 -0.01875669977713929 0  0.01289863565765652 -0.02096070221481863 0  0.01436274818423154 -0.02590687146513118 0  0.01376997500590554 -0.02405110063143605 0  0.01312811451181107 -0.02527868237689237 0  0.01949511126133643 -0.01820257885343882 0  0.02139928780926671 -0.01727718666003668 0  0.0213075702412433 -0.01884184167804088 0  0.02497985483238342 -0.02695583927646755 0  0.02684519161778724 -0.0267528581889257 0  0.02643712606206802 -0.02872481488326032 0  0.015181836533936 -0.03191525840546049 0  0.01661043679905785 -0.0331297702723849 0  0.01668600241955626 -0.03097866552280258 0  0.01731419597837964 -0.008924158772178585 0  0.01661233695577045 -0.007784557864161785 0  0.03981046946253874 -0.03478997461063087 0  0.03923171642400429 -0.03668144702800514 0  0.03815781162724478 -0.03511154933377432 0  0.03750000000000001 -0.0234375 0  0.03984375 -0.02421875 0  0.03962211318754 -0.02284278772918 0  0.0427971170360452 -0.03332935475267775 0  0.04375 -0.02812499999999999 0  0.04385526423731859 -0.03063080462925618 0  0.04505180385920117 -0.02932542691051523 0  0.04351553199404762 -0.003199311755952383 0  0.04512082117182855 -0.003163798472886603 0  0.04401605677651377 -0.001297662503700671 0  0.0390625 -0.0109375 0  0.0372198611846347 -0.01157707748388981 0  0.03759210355280668 -0.00967538398276712 0  0.02477813524465676 -0.01678535620910663 0  0.02619491424319022 -0.0173145931035252 0  0.02598372025486592 -0.01588172067947947 0  0.02238005005866955 -0.01540092856280071 0  0.02431018836113115 -0.01482674916194362 0  0.02332186392374201 -0.01385922635918935 0  0.02884403036520363 -0.006188288310987947 0  0.02969512228739365 -0.00509576713021739 0  0.02778956775368434 -0.005398372891070042 0  0.02670820946356766 -0.004645696321677782 0  0.02871424332948464 -0.004118098239242162 0  0.02465272733345908 -0.006813979148103671 0  0.02264625626357764 -0.007822965885707606 0  0.02414717730575611 -0.008308169938046369 0  0.02810798947459298 -0.007488551531561166 0  0.02945001669058807 -0.007399522190517364 0  0.04184946453364417 -0.03213642906728832 0  0.04771258783191607 -0.01632642762110901 0  0.04588066889095144 -0.01568840097202207 0  0.04557265674790806 -0.01715141471048685 0  0.01595944973070434 -0.01665864079534912 0  0.01490811737430122 -0.01815748923040521 0  0.01620791970234805 -0.01795106480095328 0  0.01520615639784498 -0.01268049936812179 0  0.01475119078452227 -0.0148270426093771 0  0.01391218072944126 -0.01352772495826596 0  0.04683437186992465 -0.007865496666910285 0  0.04815155286411878 -0.006537230068970651 0  0.04728475614638013 -0.00546067617800606 0  0.04527103964454355 -0.01105720832240294 0  0.04606007517071044 -0.00949294628814989 0  0.04403762685149307 -0.01007408063750094 0  0.03949793158361206 -0.004200900444856822 0  0.03721979924877703 -0.0047651458494762 0  0.03878857822445099 -0.006173037334646442 0  0.0328125 -0.002435282534944978 0  0.03421085901935263 -0.004025902711367846 0  0.0344724171911955 -0.001781402336893533 0  0.01398706243080254 -0.0221150896608866 0  0.01258564041330076 -0.02332910432433855 0  0.009194419875177533 -0.02206075900562258 0  0.01024587951903527 -0.02330935545630703 0  0.01055332124836828 -0.02122269026435361 0  0.04537177463340432 -0.04110310095312193 0  0.04358182320191761 -0.04058844132853304 0  0.04571692188981746 -0.03936013908857622 0  0.0314309378115113 -0.04933875006157912 0  0.03311732503601984 -0.04913370444965118 0  0.03188089108105607 -0.03248232675683183 0  0.03342833160640403 -0.03055758844544694 0  0.03201928783414298 -0.02995112197871371 0  0.02861389331433733 -0.03382572902088683 0  0.03040673456957986 -0.03464600775368622 0  0.03013279554826485 -0.03287534219077422 0  0.04322916666666667 -0.01979114533068931 0  0.04127822573223301 -0.02004610997813836 0  0.04153902537676457 -0.01868765030406217 0  0.03530867441197051 -0.01196661860082494 0  0.03531896729860391 -0.01351198182519367 0  0.0390625 -0.0265625 0  0.040625 -0.02578125 0  0.03451316441232027 -0.02102466779383987 0  0.03546014347486393 -0.02326403694972784 0  0.03659060654472844 -0.02205092307513984 0  0.02436828498060588 -0.0409137505577845 0  0.02461490540344126 -0.04309047366990028 0  0.02353555540376851 -0.04211043040913431 0  0.02307251020656784 -0.04577510415514846 0  0.0213724062387126 -0.04492151990354357 0  0.04141166808534667 -0.05159229946940671 0  0.04316771177950235 -0.05055961249403544 0  0.04178869705860652 -0.05022403725139264 0  0.04636190916549267 -0.03071368166901467 0  0.01135833061239636 -0.03411864136424596 0  0.01234457162076637 -0.03542175489045764 0  0.01484586826671411 -0.03892294491435778 0  0.01682229953162608 -0.03997649591280195 0  0.01537065409622362 -0.04031910134814119 0  0.01953075217518766 -0.02799030610032226 0  0.02166562205297151 -0.0393857222105142 0  0.02247248496586275 -0.04111275187432602 0  0.02017264389999211 -0.04022967569049397 0  0.04635416666666667 -0.02552083333333333 0  0.04494656968390805 -0.02386179956896552 0  0.04418402777777777 -0.0259548611111111 0  0.04583333333333334 -0.021875 0  0.04638335129310345 -0.02331178160919541 0  0.04711179217743537 -0.02134513195633085 0  0.0333620841728586 -0.03258513616480065 0  0.0321298013877258 -0.03393512344096119 0  0.028125 -0.028125 0  0.02855580875793202 -0.02965235453857057 0  0.02093749816297855 -0.01566161699728076 0  0.0296875 -0.0234375 0  0.03158523513293739 -0.0234101749700282 0  0.03065193331477824 -0.02450488542779667 0  0.0379771404208144 -0.02861644968655365 0  0.03946078836391552 -0.02808670649690729 0  0.03750
[...]
<PointData  Vectors="displacement"> 
<DataArray  type="Float64"  Name="displacement"  NumberOfComponents="3" format="ascii">1.8093027239608214e-11 6.4949055798217289e-02 0.0000000000000000e+00  3.2262885701503849e-11 6.2847421610680687e-02 0.0000000000000000e+00  -9.6541612568725145e-11 6.3562723903587623e-02 0.0000000000000000e+00  -1.6910158024037439e-11 6.6643919686002820e-02 0.0000000000000000e+00  -1.3901343233073011e-11 6.5584428133981146e-02 0.0000000000000000e+00  1.4190509155264558e-11 6.5401367775484914e-02 0.0000000000000000e+00  9.2065330497870027e-12 9.9478346841790716e-02 0.0000000000000000e+00  -1.1880999627481723e-12 1.0138576366703249e-01 0.0000000000000000e+00  2.5381202557048028e-12 1.0059153926903860e-01 0.0000000000000000e+00  8.9142768362233457e-12 9.3025989469307305e-02 0.0000000000000000e+00  3.6868159260402995e-12 9.4948044695708195e-02 0.0000000000000000e+00  -1.1931315828880789e-11 9.4658156985272524e-02 0.0000000000000000e+00  -3.0126121712980587e-12 7.6471283590727093e-02 0.0000000000000000e+00  4.9789517181639816e-12 7.8528074689306351e-02 0.0000000000000000e+00  -1.9535302683686706e-12 7.7777010315001255e-02 0.0000000000000000e+00  5.9092167255211447e-11 7.3276592189988152e-02 0.0000000000000000e+00  1.6062498931520071e-11 7.5174822977100320e-02 0.0000000000000000e+00  -3.1806138863117841e-11 7.5285552158997446e-02 0.0000000000000000e+00  -2.8514444629398449e-11 7.9458422441888291e-02 0.0000000000000000e+00  -1.2176922972284150e-11 8.0697682984461880e-02 0.0000000000000000e+00  -5.0517624191872573e-12 8.1078431861614494e-02 0.0000000000000000e+00  3.9177626548145027e-13 1.0130744786949281e-01 0.0000000000000000e+00  -2.7806393868143895e-12 9.9585707065985685e-02 0.0000000000000000e+00  -7.5712595722296041e-13 9.9456920978538713e-02 0.0000000000000000e+00  1.6082668739555299e-11 1.0831371901398958e-01 0.0000000000000000e+00  5.8825566509286831e-12 1.0719171894180622e-01 0.0000000000000000e+00  -3.9219525205375873e-12 1.0939931722814057e-01 0.0000000000000000e+00  -1.5885083109197888e-11 7.2706764106038879e-02 0.0000000000000000e+00  -4.3221743513693749e-12 7.3173491154172168e-02 0.0000000000000000e+00  3.6845955667756877e-11 7.1596234699426123e-02 0.0000000000000000e+00  3.4003544974101297e-28 5.8976891789353406e-02 0.0000000000000000e+00  -1.0063810987022753e-11 5.7242277283402566e-02 0.0000000000000000e+00  1.0856013918626967e-11 5.9128364609181958e-02 0.0000000000000000e+00  1.7289802920014817e-12 9.6369058438218441e-02 0.0000000000000000e+00  -1.1561850793234943e-11 9.4328893804902156e-02 0.0000000000000000e+00  -8.0382419446509657e-12 9.2221128739676084e-02 0.0000000000000000e+00  1.2198411650997777e-11 9.7738347932971287e-02 0.0000000000000000e+00  2.8820832441670047e-12 9.6307718880121185e-02 0.0000000000000000e+00  -1.8891857955950721e-11 9.6025084890895493e-02 0.0000000000000000e+00  5.6119007999409023e-11 5.6921223426403197e-02 0.0000000000000000e+00  -1.2516940111140690e-11 5.9011045492672984e-02 0.0000000000000000e+00  -1.0963480712255793e-10 5.9328252115302023e-02 0.0000000000000000e+00  -4.3693832101823938e-11 5.2038433928804619e-02 0.0000000000000000e+00  7.2446367708207751e-11 5.4030721745819625e-02 0.0000000000000000e+00  -5.8247520665811242e-11 5.3599278217790494e-02 0.0000000000000000e+00  -1.2760072532705461e-11 9.6033950617710279e-02 0.0000000000000000e+00  -2.0023048690827769e-12 9.6502642024519511e-02 0.0000000000000000e+00  -1.2478856239764256e-11 9.4988351731127282e-02 0.0000000000000000e+00  3.0983236426432157e-12 9.0199952106861020e-02 0.0000000000000000e+00  -5.6522849409999270e-12 8.8613768013225236e-02 0.0000000000000000e+00  -1.1733974447301230e-12 9.1351356380785120e-02 0.0000000000000000e+00  -1.5723078391155645e-12 9.3452354212136046e-02 0.0000000000000000e+00  1.4231911860032851e-12 9.1490422610004604e-02 0.0000000000000000e+00  -2.4602934243777702e-11 9.0950535711150138e-02 0.0000000000000000e+00  1.2440258741129642e-11 7.7491013101406242e-02 0.0000000000000000e+00  -1.8966404268993353e-11 7.8208198020758360e-02 0.0000000000000000e+00  -5.0021802434579147e-12 7.6185760985142389e-02 0.0000000000000000e+00  -2.2468256839110269e-11 7.4676366724191437e-02 0.0000000000000000e+00  -6.8656135472130321e-12 7.4129383138003810e-02 0.0000000000000000e+00  -1.4729032310616696e-11 7.6649149903820574e-02 0.0000000000000000e+00  1.2248922175846681e-11 7.9333558649311658e-02 0.0000000000000000e+00  -2.7197793462916039e-12 7.7772383626083602e-02 0.0000000000000000e+00  1.2490477870796304e-11 7.0477796126450762e-02 0.0000000000000000e+00  -1.1046418361371537e-11 6.9006834611955906e-02 0.0000000000000000e+00  3.9767795320088694e-12 6.9387164791236508e-02 0.0000000000000000e+00  -4.6007355867546932e-12 1.0395632679614979e-01 0.0000000000000000e+00  5.7870868009642417e-12 1.0198970938636842e-01 0.0000000000000000e+00  -2.7939826062705320e-12 1.0304121196356540e-01 0.0000000000000000e+00  -2.7044286812663370e-11 6.7272009423646209e-02 0.0000000000000000e+00  -4.0007162327296514e-11 6.5319638196355015e-02 0.0000000000000000e+00  1.2673603846837930e-11 6.6555403280657621e-02 0.0000000000000000e+00  -7.6440837219906200e-12 6.6489817327429840e-02 0.0000000000000000e+00  -6.2233873172970944e-11 6.6769580324313529e-02 0.0000000000000000e+00  2.7206777871690474e-11 6.4990618190099755e-02 0.0000000000000000e+00  -4.1277996822873036e-11 5.2606025279814388e-02 0.0000000000000000e+00  -5.2142925455934266e-12 5.4230145391492908e-02 0.0000000000000000e+00  -2.5013322269615092e-11 5.2360000921797302e-02 0.0000000000000000e+00  -4.4092494097833378e-12 8.3541835985183666e-02 0.0000000000000000e+00  2.0297002727364775e-11 8.3027993887865442e-02 0.0000000000000000e+00  -4.4607499780738759e-13 8.1839451961785839e-02 0.0000000000000000e+00  8.8129558152349140e-12 6.3965476744265753e-02 0.0000000000000000e+00  5.8111808746837541e-12 6.1800301836956256e-02 0.0000000000000000e+00  -4.7851583570779321e-12 6.3347719016050588e-02 0.0000000000000000e+00  -2.6346163477732721e-11 7.0643501680365636e-02 0.0000000000000000e+00  -2.1417763699210734e-11 6.9258484011149937e-02 0.0000000000000000e+00  1.5778049407371680e-11 6.8114156532793513e-02 0.0000000000000000e+00  1.5184625637356246e-11 9.9192229372031177e-02 0.0000000000000000e+00  -9.9014811336236977e-12 1.0077642812629162e-01 0.0000000000000000e+00  -1.2674664829050793e-11 9.7956742384299661e-02 0.0000000000000000e+00  -9.3981028600035384e-13 7.4724377308407738e-02 0.0000000000000000e+00  1.7989283602336301e-11 7.5628753744008986e-02 0.0000000000000000e+00  3.6980969897357485e-12 7.4151193520859568e-02 0.0000000000000000e+00  -3.4473719783958099e-11 7.4941142618335635e-02 0.0000000000000000e+00  2.5675376097048941e-12 5.7762535454528259e-02 0.0000000000000000e+00  1.4510935100323801e-11 5.9376738588217771e-02 0.0000000000000000e+00  -3.1570920925310046e-11 5.8538949439986776e-02 0.0000000000000000e+00  1.0758750403312331e-11 7.7179664026247430e-02 0.0000000000000000e+00  5.1021100277484025e-12 8.8779542591116131e-02 0.0000000000000000e+00  -3.4990944476868087e-12 9.0192514327821563e-02 0.0000000000000000e+00  -6.7253309693134267e-12 8.7745733827706632e-02 0.0000000000000000e+00  4.6729817984969134e-12 8.2254727950221054e-02 0.0000000000000000e+00  1.5525613034389402e-11 8.4314917979790793e-02 0.0000000000000000e+00  -1.6142010032227542e-13 8.2952114111287417e-02 0.0000000000000000e+00  1.1612256266138172e-11 9.0807673479744722e-02 0.0000000000000000e+00  7.8378751124281594e-12 9.1835000628568017e-02 0.0000000000000000e+00  -1.6229139106456134e-11 9.0097993745784810e-02 0.0000000000000000e+00  -7.5742020888332251e-12 8.1090212887706278e-02 0.0000000000000000e+00  -1.4856682272801909e-11 8.1315553025167256e-02 0.0000000000000000e+00  4.7586704970386173e-12 7.9126378897464641e-02 0.0000000000000000e+00  2.0551032215349675e-11 7.5584497622614988e-02 0.0000000000000000e+00  -1.3253457765754326e-11 7.4236203294007888e-02 0.0000000000000000e+00  4.7637289012517259e-12 7.6624259270129086e-02 0.0000000000000000e+00  1.2023452170803166e-11 1.0110814174335450e-01 0.0000000000000000e+00  7.5225329067100571e-12 1.0237327339591468e-01 0.0000000000000000e+00  -2.1373976218328543e-11 7.2393122056308393e-02 0.0000000000000000e+00  -3.5842199075258565e-11 7.0293297797341989e-02 0.0000000000000000e+00  9.8347909648256483e-12 7.2036124858534181e-02 0.0000000000000000e+00  -5.0692323673853529e-12 8.4996108713620316e-02 0.0000000000000000e+00  -1.2518204360568613e-11 8.4128801494291500e-02 0.0000000000000000e+00  2.3998917164768271e-11 8.5656330479724610e-02 0.0000000000000000e+00  5.2481465339911483e-11 7.4014633965980001e-02 0.0000000000000000e+00  -2.3586152156160411e-11 7.9792265327402884e-02 0.0000000000000000e+00  -7.5981842209525045e-12 7.7010438150204835e-02 0.0000000000000000e+00  1.5114977319271907e-11 7.8459607492402092e-02 0.0000000000000000e+00  1.4164321393705878e-12 1.0746359930136454e-01 0.0000000000000000e+00  -2.4199763156574371e-12 1.0750302449086580e-01 0.0000000000000000e+00  1.2151745630933419e-12 1.0957472141504208e-01 0.0000000000000000e+00  -1.7227176551344778e-11 9.8873024400751089e-02 0.0000000000000000e+00  8.6362904293128619e-12 9.8162995426690713e-02 0.0000000000000000e+00  -1.0627386272043009e-11 1.0027416664192128e-01 0.0000000000000000e+00  8.9792955660364449e-13 9.2381007809384033e-02 0.0000000000000000e+00  4.1052411019591008e-12 9.1793473742146789e-02 0.0000000000000000e+00  -2.0784854270384510e-11 9.3384181743078318e-02 0.0000000000000000e+00  -2.0178847714009422e-12 9.3917934674004402e-02 0.0000000000000000e+00  3.1624211752095227e-12 9.4555361798631332e-02 0.0000000000000000e+00  5.0651495542422441e-12 9.5629460386323320e-02 0.0000000000000000e+00  1.0936086339095099e-11 1.0414537727661342e-01 0.0000000000000000e+00  1.6807260391543374e-11 1.0535824317779413e-01 0.0000000000000000e+00  3.0681452325155835e-11 1.0502230444484156e-01 0.0000000000000000e+00  -1.4954871359185572e-12 1.0585789076274209e-01 0.0000000000000000e+00  -2.1764574623148858e-11 1.0644360549672083e-01 0.0000000000000000e+00  6.4459062611420980e-13 1.0345076452159059e-01 0.0000000000000000e+00  -2.4783772272419797e-13 1.0233063461943778e-01 0.0000000000000000e+00  1.7198424149389685e-12 1.0179198377686638e-01 0.0000000000000000e+00  -2.1472816899105605e-12 1.0270188583122598e-01 0.0000000000000000e+00  -5.3397634279534911e-11 1.0280072200291319e-01 0.0000000000000000e+00  -2.1518598495879845e-11 7.5338964271385173e-02 0.0000000000000000e+00  -8.9837733709940214e-12 9.2890488859236425e-02 0.0000000000000000e+00  3.4642034603232616e-11 9.3598796249159580e-02 0.0000000000000000e+00  -1.3118918898787588e-11 9.1974626794336267e-02 0.0000000000000000e+00  5.4668960185583291e-12 9.2521681341807813e-02 0.0000000000000000e+00  -1.7206799245366460e-12 9.0857729876012469e-02 0.0000000000000000e+00  -1.6560300834757223e-11 9.1086892607877279e-02 0.0000000000000000e+00  4.5253642126795976e-12 9.6938027992923004e-02 0.0000000000000000e+00  -4.3216417554936881e-12 9.4555036031467851e-02 0.0000000000000000e+00  1.6915920874618356e-11 9.5997477765187758e-02 0.0000000000000000e+00  -2.2653916443610133e-12 1.0228341893507127e-01 0.0000000000000000e+00  2.4058380651560615e-12 1.0375799841799233e-01 0.0000000000000000e+00  1.6456769248590430e-12 1.0495313822878562e-01 0.0000000000000000e+00  -3.5315496373367171e-12 9.8740129840696120e-02 0.0000000000000000e+00  1.2281900553455982e-12 1.0047670043400694e-01 0.0000000000000000e+00  3.7354539311683360e-12 9.9831552253566394e-02 0.0000000000000000e+00  -1.5371584435077007e-12 1.0635168235963519e-01 0.0000000000000000e+00  -9.1623713008335244e-12 1.0572528349564719e-01 0.0000000000000000e+00  -3.8445504972706219e-12 1.0416230817847706e-01 0.0000000000000000e+00  -1.0308041694942117e-11 1.0831178883245768e-01 0.0000000000000000e+00  3.0617553501023112e-11 1.0654595668651398e-01 0.0000000000000000e+00  3.2326574480344737e-12 1.0903769604495982e-01 0.0000000000000000e+00  -3.8337734234959337e-12 8.6464186865081144e-02 0.0000000000000000e+00  7.8602304909207879e-12 8.5116444513231235e-02 0.0000000000000000e+00  -7.8037901782822037e-12 8.6524502217160709e-02 0.0000000000000000e+00  7.7796501882357998e-12 8.5138368793731420e-02 0.0000000000000000e+00  -2.7265193889838449e-12 8.7454886951983349e-02 0.0000000000000000e+00  2.9151908442971995e-11 6.5384584257547951e-02 0.0000000000000000e+00  7.9133095244900626e-12 6.5955935374972532e-02 0.0000000000000000e+00  -4.1251292810555958e-14 6.7319539095163597e-02 0.0000000000000000e+00  -3.0834635091120767e-11 5.6241751582346150e-02 0.0000000000000000e+00  -1.1040843879002250e-11 5.6469383622259464e-02 0.0000000000000000e+00  -4.2268774938823758e-12 7.4954964859257858e-02 0.0000000000000000e+00  8.0508830818000796e-12 7.7091719354412502e-02 0.0000000000000000e+00  1.4300779171728139e-11 7.7764990046368346e-02 0.0000000000000000e+00  -3.1435853527932182e-12 7.3463582431254906e-02 0.0000000000000000e+00  -6.2314664788422175e-12 7.2552947361552891e-02 0.0000000000000000e+00  -2.3517341595427107e-12 7.4518657483407066e-02 0.0000000000000000e+00  7.0284810016963521e-12 8.9044121203307375e-02 0.0000000000000000e+00  -3.0351950846535222e-11 8.8761071389506341e-02 0.0000000000000000e+00  -6.3781696262850718e-12 9.0269169862382967e-02 0.0000000000000000e+00  5.8823372733209560e-12 9.7730545055694881e-02 0.0000000000000000e+00  4.3989258447989171e-12 9.6014955063369087e-02 0.0000000000000000e+00  1.0570725856444749e-11 8.1526879789993803e-02 0.0000000000000000e+00  -4.8945592313570028e-13 8.2394186998284685e-02 0.0000000000000000e+00  7.4476054567550847e-12 8.7674722249383316e-02 0.0000000000000000e+00  2.8151431010104833e-12 8.5188679289612809e-02 0.0000000000000000e+00  3.5531849853663596e-12 8.6535421595021658e-02 0.0000000000000000e+00  7.1738769134030139e-11 6.5594792222000195e-02 0.0000000000000000e+00  -3.3222845413187460e-11 6.3178295969707601e-02 0.0000000000000000e+00  -6.6505255168403307e-12 6.4266294352474732e-02 0.0000000000000000e+00  1.4227298318567673e-11 6.0197944720831474e-02 0.0000000000000000e+00  -2.8644206848190741e-12 6.1145554038878891e-02 0.0000000000000000e+00  -6.7423414131313130e-12 5.3739966416398645e-02 0.0000000000000000e+00  5.3158071548949557e-12 5.4886407171061163e-02 0.0000000000000000e+00  -2.0055994750878628e-13 5.5258947145124963e-02 0.0000000000000000e+00  -1.2427558766198709e-11 7.6918431925997982e-02 0.0000000000000000e+00  -4.8826223136881357e-12 7.3138404840913163e-02 0.0000000000000000e+00  2.1401080225806615e-11 7.1691749121994344e-02 0.0000000000000000e+00  -4.7967923558609280e-12 6.7804891608255730e-02 0.0000000000000000e+00  1.5284256420456250e-11 6.6635288555006694e-02 0.0000000000000000e+00  1.5965204193661742e-14 6.6254944016581899e-02 0.0000000000000000e+00  1.4852630724493037e-11 7.9941796190094574e-02 0.0000000000000000e+00  -3.8805201209405614e-11 6.7291137890020475e-02 0.0000000000000000e+00  9.1738445153861638e-12 6.5373870275810098e-02 0.0000000000000000e+00  -1.5144439822918132e-12 6.6354220208670350e-02 0.0000000000000000e+00  4.7476804488379583e-12 8.2683289439474061e-02 0.0000000000000000e+00  7.7529836256063089e-12 8.4525071156040132e-02 0.0000000000000000e+00  -2.7100263877213825e-12 8.2201452076344453e-02 0.0000000000000000e+00  2.8152587291618410e-11 8.6730723183106692e-02 0.0000000000000000e+00  6.1689103112198132e-12 8.5135675364382032e-02 0.0000000000000000e+00  -2.6537120840831569e-11 8.7318957906505915e-02 0.0000000000000000e+00  -2.4490868917752403e-11 7.4840830614934711e-02 0.0000000000000000e+00  2.1523728037932251e-11 7.3342137840778948e-02 0.0000000000000000e+00  1.1563752101017449e-11 7.9792265311864813e-02 0.0000000000000000e+00  -3.2589346598415283e-12 7.8096667704188799e-02 0.0000000000000000e+00  5.3345120679889759e-12 9.3628530572568522e-02 0.0000000000000000e+00  -3.6093076481255820e-12 8.4996108707383930e-02 0.0000000000000000e+00  -8.3809074814517737e-13 8.5026443696927689e-02 0.0000000000000000e+00  -1.3318973508362861e-13 8.3811147301902464e-02 0.0000000000000000e+00  2.1851650533898001e-11 7.9246680811100700e-02 0.0000000000000000e+00  -3.9567048498363382e-11 7.9834776999569507e-02 0.0000000000000000e+00  1.8476877244267547e-11 7.6323036383440360e-02 0.0000000000000000e+00  -8.4297749636467720e-12 7.5831000352728578e-02 0.0000000000000000e+00  -1.4633399824125337e-11 7.3899131947175206e-02 0.0000000000000000e+00  -4.8881872397710296e-12 1.0847712723471295e-01 0.0000000000000000e+00  -1.1710091296143298e-11 1.0912956299358446e-01 0.0000000000000000e+00  -7.4509819273020078e-12 1.0747914921239572e-01 0.0000000000000000e+00  -4.3406955712181413e-12 9.2029364053080764e-02 0.0000000000000000e+00  -1.4925298310879209e-11 9.3367103710752644e-02 0.0000000000000000e+00  5.4401764698051490e-13 1.0013394068477419e-01 0.0000000000000000e+00  1.0393838595465351e-11 1.0057366922797313e-01 0.0000000000000000e+00  1.2899704518122583e-11 1.0329459140302076e-01 0.0000000000000000e+00  6.9178701878341196e-12 1.0230575492433819e-01 0.0000000000000000e+00  1.1086851422042596e-12 1.0452930659210659e-01 0.0000000000000000e+00  4.8898533722643569e-11 5.7722725745314916e-02 0.0000000000000000e+00  1.9960953800051698e-11 5.9178898051983286e-02 0.0000000000000000e+00  1.0420845285600034e-11 8.7221713238646248e-02 0.0000000000000000e+00  1.0575528580462800e-12 8.8580376384831933e-02 0.0000000000000000e+00  9.9983226023344786e-12 8.8726383621888005e-02 0.0000000000000000e+00  -3.6001333202501413e-12 9.0148899494649951e-02 0.0000000000000000e+00  8.1616739836683780e-12 8.9244592172013623e-02 0.0000000000000000e+00  -2.9327539029413940e-11 9.0632660929260853e-02 0.0000000000000000e+00  6.6981666023098962e-12 8.8465337643989700e-02 0.0000000000000000e+00  1.9351882773644456e-11 8.8660010136248232e-02 0.0000000000000000e+00  2.2408505617041080e-27 9.7138409969947923e-02 0.0000000000000000e+00  4.3773714160378515e-27 9.5403795491989879e-02 0.0000000000000000e+00  -1.2552001658209173e-11 9.6271102751993479e-02 0.0000000000000000e+00  6.4339343735666046e-12 9.4477528107389866e-02 0.0000000000000000e+00  -7.8376125539588400e-12 9.5099601778835030e-02 0.0000000000000000e+00  -3.4095862133289538e-12 9.3030620275850726e-02 0.0000000000000000e+00  -1.1333952607583101e-11 9.2871063279034022e-02 0.0000000000000000e+00  2.2133616012324912e-11 5.3929203122166446e-02 0.0000000000000000e+00  1.1166587343551500e-11 5.1602978357074857e-02 0.0000000000000000e+00  -2.4565244991988333e-11 5.2968100844426054e-02 0.0000000000000000e+00  -2.9259248393502844e-12 8.4528155759390489e-02 0.0000000000000000e+00  1.1605666340728569e-11 8.7073080205486042e-02 0.0000000000000000e+00  1.0405028267515332e-11 8.9495880440578823e-02 0.0000000000000000e+00  -1.8711078629226848e-11 8.7891112878263830e-02 0.0000000000000000e+00  -2.1096464385263953e-11 5.8631059908294383e-02 0.0000000000000000e+00  6.3045195666188508e-11 5.6464595007715800e-02 0.0000000000000000e+00  6.3659782863377991e-11 5.7119983288758676e-02 0.0000000000000000e+00  1.0328368008344565e-11 5.2038433939536791e-02 0.0000000000000000e+00  -3.7673952941473887e-11 4.9912918702852277e-02 0.0000000000000000e+00  1.0802076666323089e-11 7.2093075096879830e-02 0.0000000000000000e+00  -2.2618186177517924e-11 6.9846378882661445e-02 0.0000000000000000e+00  2.4136050422806854e-11 6.5412251801289081e-02 0.0000000000000000e+00  -5.2799302421035378e-12 6.5565875605096094e-02 0.0000000000000000e+00  2.2955478593088830e-11 6.3365873842065518e-02 0.0000000000000000e+00  -9.3469378088122298e-12 7.3000108025812291e-02 0.0000000000000000e+00  -1.9318257494354163e-11 7.2853807511548782e-02 0.0000000000000000e+00  2.9831196915502733e-11 7.0854772015547879e-02 0.0000000000000000e+00  4.6528305002514647e-13 7.0720127795258492e-02 0.0000000000000000e+00  -2.1493061960925043e-12 1.0898104133861934e-01 0.0000000000000000e+00  1.6481348851045075e-12 1.0815667585747621e-01 0.0000000000000000e+00  5.8293197938316971e-11 6.3441664829510219e-02 0.000000000000