<?xml version="1.0"?>
<VTKFile type="UnstructuredGrid"  version="0.1"  >
<UnstructuredGrid>
<Piece  NumberOfPoints="854" NumberOfCells="1585">
<Points>
<DataArray  type="Float64"  NumberOfComponents="3"  format="ascii">-0.04301769881032727 -0.07789766764724927 0  -0.04189181960277685 -0.07611574955633513 0  -0.04113485614380685 -0.0778406702871829 0  0.00624679979509361 -0.0777776748102709 0  0.007568916227461957 -0.07713354619579388 0  0.007382729841747624 -0.07843031623139499 0  -0.02649300547176505 -0.08702975760517451 0  -0.0263406063065554 -0.08511740888024559 0  -0.02550850615665724 -0.08614596759352909 0  -0.02084933550610458 -0.06779624883491528 0  -0.01911675057012764 -0.06710909061847127 0  -0.02127151809726676 -0.06627988887730912 0  -0.02355932395340094 -0.07300565754440523 0  -0.02424120674399909 -0.07083644762466612 0  -0.02528234839396254 -0.07235550507120665 0  0.003414444410662295 -0.06667387755197443 0  0.004779010705117206 -0.06723343326758101 0  0.004898532170245292 -0.06588470706159105 0  -0.04508450624939216 -0.07289877322312201 0  -0.04334072568701926 -0.07281119722011131 0  -0.04498843852561831 -0.07457396944552638 0  -0.01233019290593089 -0.08678347112328397 0  -0.0112338405684588 -0.08880426352507724 0  -0.01273075515225664 -0.08916786604196794 0  -0.02487731781150031 -0.08912078797260026 0  -0.02308076237772397 -0.08987146331792781 0  -0.02363550833345763 -0.08867396749658046 0  -0.04364710778737727 -0.08947610695391849 0  -0.04301418522453009 -0.09191095606957841 0  -0.04235961703442911 -0.0904411189668541 0  -0.04202545149712906 -0.0795481471424079 0  -0.04353098224731951 -0.07984041100116517 0  -0.0001289479518082485 -0.09093484953796985 0  -0.001537361812977841 -0.09183103635621589 0  -0.0001024440023580193 -0.09250311526682992 0  -0.02717633928571428 -0.0671875 0  -0.02547575840129358 -0.06789917861829771 0  -0.02660892302130463 -0.0686732810860967 0  -0.02804244587606518 -0.08423194559419436 0  -0.02986151651701308 -0.08345542126252224 0  -0.02944273228431295 -0.08497307522931515 0  0.002378144654088049 -0.07627751572327045 0  0.001485836510060817 -0.07417176389937385 0  0.003438601733579284 -0.07409333596484037 0  -0.01416772838726675 -0.08358641717367554 0  -0.01438092441757664 -0.08541614012962434 0  -0.01595884200481777 -0.08511847584202997 0  -0.0262424283318852 -0.08092416785272258 0  -0.02665141823057518 -0.07860444913168425 0  -0.02515036422374465 -0.07979337743849195 0  0.002005314181027703 -0.07160953721069377 0  0.0005042659000463546 -0.0706442070080241 0  0.001542585041404355 -0.06977073503056669 0  -0.009584768711776409 -0.07507825100308022 0  -0.01157990020702555 -0.0737556443498108 0  -0.01030858530652727 -0.07292718465895769 0  -0.01253972891058217 -0.09069641732879728 0  -0.01384411344556504 -0.0922333898441426 0  -0.01239315970166911 -0.09214278956462488 0  -0.0257700475618113 -0.09648057567556882 0  -0.0263560920378603 -0.09429152410769577 0  -0.02703095132911369 -0.09564516741633013 0  -0.02134487277949115 -0.09413554396678402 0  -0.01968877658969745 -0.09485076374227272 0  -0.02091719731974153 -0.09542021937800599 0  -0.04010064634197606 -0.07057924971757969 0  -0.04164168012530915 -0.06976888025874925 0  -0.04132738058798338 -0.07207961939964694 0  -0.04488879840437942 -0.07631145991727138 0  -0.04340011400537071 -0.07606345743554926 0  -0.001826518818718755 -0.09549248911561954 0  -0.003437109196252027 -0.09614075558673832 0  -0.002233023995066442 -0.09680739911547753 0  -0.007255992924199247 -0.09568128265964732 0  -0.005724784492378706 -0.09504408502530426 0  -0.007780810481280456 -0.09395812364190835 0  -0.0137118687932259 -0.08158202687391057 0  -0.01248023965029664 -0.08291617032045073 0  -0.0108014823312422 -0.07149204022071302 0  -0.009032588102341152 -0.06986902027922305 0  -0.01095681711124807 -0.06954729451736746 0  -0.002931194584325539 -0.06897337298686135 0  -0.002446866923003689 -0.06726113607087911 0  -0.001229707650287227 -0.0686706673061121 0  0.002880492093639446 -0.06466240859797964 0  0.008907581557938372 -0.07010677444136433 0  0.008194986331135287 -0.07203719082326678 0  0.01024567414151233 -0.07100052562916147 0  0.01066098305406274 -0.05999515557027461 0  0.01199697692997241 -0.058984518130708 0  0.01209909079558958 -0.06050787089223954 0  -0.01454856551814738 -0.07721315778584886 0  -0.0152166235939798 -0.07557541333693718 0  -0.0165260688143757 -0.07591326249582545 0  -0.01285352492073821 -0.07211050370584039 0  -0.01748218666510975 -0.06813878302001214 0  -0.01762923752875039 -0.06598599581991983 0  -0.01789083831616858 -0.0715804492939822 0  -0.01780358103167474 -0.07332099473903625 0  -0.01632599156523281 -0.07243771640431323 0  -0.007183493015576356 -0.06924166753497944 0  -0.00855263833068491 -0.06824491119945986 0  -0.03564751029865867 -0.07439774731271727 0  -0.03395211491563267 -0.07495322214508 0  -0.03366797019368069 -0.0734877242641562 0  -0.03455208564641323 -0.08194382303888702 0  -0.03255269639564686 -0.08229603199409749 0  -0.03339906579048692 -0.08124954414524603 0  -0.02704324561419352 -0.07289471972323462 0  -0.02481643742317179 -0.07372899787113088 0  -0.03738360545745725 -0.08168537983806289 0  -0.03599322360724295 -0.08337896242457203 0  -0.03806191498716771 -0.08365977489794321 0  -0.03365282590339484 -0.08692313372691331 0  -0.03558005079508717 -0.08742320875628713 0  -0.03453986567279773 -0.08544024026264552 0  -0.03438518618490685 -0.09242829621017326 0  -0.03487102961521734 -0.09394739526994358 0  -0.03284347077283539 -0.0928402886718603 0  -0.03695888676976247 -0.07756467740738612 0  -0.03501579601208976 -0.07651430571098827 0  -0.03642910979197705 -0.07622226076359578 0  -0.03014613125358451 -0.07424633768158163 0  -0.03047893372488195 -0.07206737163976487 0  -0.03121734171721906 -0.07329504990619225 0  -0.03834687844188856 -0.07228526864991387 0  -0.03836933328569094 -0.07055391585998522 0  -0.03697141779064224 -0.07127734686192946 0  -0.007450830811539287 -0.08780052063043026 0  -0.009320310705092061 -0.08838540211273728 0  -0.008068072222769229 -0.08621390726582412 0  -0.04531250000000001 -0.09690794883681851 0  -0.04493199712142847 -0.09520323073982323 0  -0.04325023819755165 -0.0968739896865731 0  0.009375 -0.09682257628260371 0  0.007808664082198944 -0.09597107339876711 0  0.008444268623215768 -0.09461046788110308 0  0.0007125495420706774 -0.09384324413309353 0  -0.001324185801125433 -0.09348673451877551 0  4.55158174537929e-05 -0.09559543642801521 0  -0.002638588467448458 -0.08480290334513936 0  -0.0009523537286110506 -0.08539467671252784 0  -0.002123245304167003 -0.08646438588906058 0  0.00707564389875579 -0.08712042819884332 0  0.006175460256179339 -0.08529300011325083 0  0.00579688305402835 -0.08777872249611265 0  -0.01551784317154422 -0.09006879589254792 0  -0.01402328543009905 -0.08832981739043477 0  -0.01558909581522321 -0.08849582318267966 0  -0.034375 -0.1 0  -0.03423696779068536 -0.09746140864191191 0  -0.03619635067639472 -0.09830927380456798 0  -0.0171875 -0.09842209667188512 0  -0.01907578470877056 -0.09811482038481674 0  -0.01794864954210933 -0.09714392486344528 0  -0.0203125 -0.09665517208936659 0  -0.01807747440893156 -0.09566187359880164 0  -0.04636382294280632 -0.08303782715171144 0  -0.04457664116340198 -0.08227588074917039 0  -0.04479628068135219 -0.08441144033909778 0  -0.04665725025786571 -0.07474883737689871 0  -0.04839656261803055 -0.07397023150741729 0  -0.04715929032803928 -0.07353832403414237 0  -0.006496208247169712 -0.07958930721574266 0  -0.007818588748072135 -0.078515126908775 0  -0.008658337353509663 -0.07992113794005237 0  -0.0005048909647391475 -0.07529755637084348 0  0.0009893486840984126 -0.07561681737863528 0  -0.0003488571704173114 -0.07659863563213469 0  -0.002439376396341518 -0.08212944253333339 0  -0.002444152277402757 -0.08018925365413369 0  -0.00381630162417183 -0.0820268413935732 0  -0.02264613483542079 -0.0820413651645792 0  -0.02433746493959434 -0.08113892035160643 0  -0.02322485160458113 -0.08039154261165993 0  -0.01754533292962527 -0.08487053535373217 0  -0.01612535708344472 -0.08352138452691246 0  -0.01860487144251813 -0.08356851163246476 0  -0.03140806455272695 -0.06619583248002962 0  -0.03353512095382387 -0.06678277612275996 0  -0.03286485146038919 -0.06502660822956426 0  -0.01924800164333928 -0.07429606467324316 0  -0.01784284706265305 -0.07560523021790183 0  -0.01627524721575662 -0.07415843609645587 0  -0.02247505510150612 -0.07631841748069951 0  -0.02103221323394636 -0.07503488050239412 0  -0.02265507431745275 -0.07446773357752805 0  -0.02426505803403166 -0.07507046582579038 0  -0.02758628374191479 -0.08598038504817176 0  -0.03146202181458926 -0.07916958962906337 0  -0.03201932651192579 -0.08072863592367834 0  -0.03268498819409774 -0.07961155343193971 0  0.004333204611837944 -0.09457186870462708 0  0.004719118187944253 -0.09325290342309187 0  0.003210521597263091 -0.09393581815995514 0  -0.02699880677727343 -0.06528383311259306 0  -0.02816272306545877 -0.06613540002135666 0  -0.02796267299524422 -0.07502143545925727 0  -0.02864174901762227 -0.07347143860603883 0  0.01172901776142153 -0.07037684730407788 0  0.01149171032184903 -0.07201869888808959 0  0.008329705248451892 -0.07582893826919467 0  0.006579345813181347 -0.07604559218577921 0  0.007340105850365504 -0.07377496925579345 0  0.005649608925003106 -0.07293541457290909 0  0.006920603710509551 -0.07248150249158494 0  -0.03293339707392893 -0.06890569867093572 0  -0.03497293050757541 -0.06853622981877409 0  -0.03955829636164478 -0.06618721975980241 0  -0.03996948399416095 -0.06794165841102252 0  -0.04136249049824998 -0.0662651475401172 0  0.005332838990544739 -0.06042849285714701 0  0.005783754170669378 -0.06253278840008002 0  0.006730960667624127 -0.06048731509119946 0  0.006082007269868802 -0.06654253260679399 0  -0.01384023034695557 -0.06772003352402545 0  -0.01561760000785632 -0.06830868095647734 0  -0.01463379778004665 -0.06978387898440573 0  -0.009770499137943315 -0.08620544990365804 0
[...]
<PointData  Vectors="displacement"> 
<DataArray  type="Float64"  Name="displacement"  NumberOfComponents="3" format="ascii">2.6430465916565046e-13 2.4536976242321044e-02 0.0000000000000000e+00  1.5773037182697704e-13 2.6515178414307675e-02 0.0000000000000000e+00  1.6469851868269007e-13 2.4600252047263158e-02 0.0000000000000000e+00  5.1710186869857208e-13 2.4670186681110574e-02 0.0000000000000000e+00  -4.2881400294082545e-13 2.5385268158723513e-02 0.0000000000000000e+00  2.3505688133425396e-13 2.3945654681508506e-02 0.0000000000000000e+00  1.1693322372275277e-12 1.4398956834397757e-02 0.0000000000000000e+00  6.8670779004123510e-13 1.6521957000108594e-02 0.0000000000000000e+00  -1.9421268436449820e-13 1.5380099195365211e-02 0.0000000000000000e+00  6.3207719294825667e-13 3.5751099234005483e-02 0.0000000000000000e+00  -1.2314692865551288e-13 3.6513950165606941e-02 0.0000000000000000e+00  -1.0981678011033624e-13 3.7434491178742778e-02 0.0000000000000000e+00  -1.3482312827988052e-13 2.9967857190108492e-02 0.0000000000000000e+00  2.7689724064193719e-13 3.2376012646807451e-02 0.0000000000000000e+00  7.1486749176284835e-13 3.0689626074612855e-02 0.0000000000000000e+00  6.8344956797058981e-13 3.6997103368406323e-02 0.0000000000000000e+00  -2.7585983532981831e-13 3.6375910768785644e-02 0.0000000000000000e+00  3.2376165125179550e-13 3.7873203560462171e-02 0.0000000000000000e+00  1.4634568041487134e-13 3.0086515167273790e-02 0.0000000000000000e+00  5.0647483895867043e-15 3.0183737952199564e-02 0.0000000000000000e+00  2.6660977454629354e-14 2.8226790625226778e-02 0.0000000000000000e+00  7.7305359664031252e-13 1.4672372575094907e-02 0.0000000000000000e+00  -2.4033021345196893e-13 1.2428983305333494e-02 0.0000000000000000e+00  -8.7568630988534587e-13 1.2025328790775728e-02 0.0000000000000000e+00  1.8610104111615040e-12 1.2077592663084837e-02 0.0000000000000000e+00  7.7641818331732741e-13 1.1244227982161457e-02 0.0000000000000000e+00  -5.2151889552674362e-13 1.2573631870180934e-02 0.0000000000000000e+00  2.1792909439002569e-13 1.1683134138711762e-02 0.0000000000000000e+00  -6.0834724624194016e-14 8.9800784631416837e-03 0.0000000000000000e+00  1.1443091898240274e-13 1.0611822909557235e-02 0.0000000000000000e+00  4.3336445389626956e-14 2.2704691055769142e-02 0.0000000000000000e+00  1.9883447857987840e-14 2.2380233381168131e-02 0.0000000000000000e+00  2.9051362870119919e-12 1.0063706308385569e-02 0.0000000000000000e+00  -1.7643435650578357e-12 9.0688015866568321e-03 0.0000000000000000e+00  4.4958190674445067e-13 8.3226910051047865e-03 0.0000000000000000e+00  8.1900295911230234e-14 3.6426903735351818e-02 0.0000000000000000e+00  5.2724766743056187e-13 3.5636831399531471e-02 0.0000000000000000e+00  2.2734488982956011e-13 3.4777459024795301e-02 0.0000000000000000e+00  1.7967150874252448e-12 1.7504956950155120e-02 0.0000000000000000e+00  -4.5679980114258242e-13 1.8367017966243734e-02 0.0000000000000000e+00  9.4298866251203071e-13 1.6682189473051987e-02 0.0000000000000000e+00  -3.6937956426706316e-13 2.6335593176975990e-02 0.0000000000000000e+00  1.3364372547412851e-13 2.8673300421857995e-02 0.0000000000000000e+00  -7.8207575457209067e-14 2.8760367448735488e-02 0.0000000000000000e+00  -2.0306568229707961e-13 1.8221592428790762e-02 0.0000000000000000e+00  -1.2295667628217792e-12 1.6190319528055327e-02 0.0000000000000000e+00  2.6543045168144090e-15 1.6520772509720744e-02 0.0000000000000000e+00  -5.7294893935649368e-13 2.1177097181942665e-02 0.0000000000000000e+00  8.7614320775140794e-14 2.3752340477279112e-02 0.0000000000000000e+00  1.6477583919242021e-12 2.2432447841917610e-02 0.0000000000000000e+00  1.9039233333988898e-13 3.1517764724361540e-02 0.0000000000000000e+00  -1.3004803457993300e-13 3.2589429192862805e-02 0.0000000000000000e+00  -3.2855545793867495e-13 3.3559116952872010e-02 0.0000000000000000e+00  -1.2649217586810595e-13 2.7666960811964791e-02 0.0000000000000000e+00  -7.1104997318251743e-14 2.9135256895557529e-02 0.0000000000000000e+00  -3.0143238659060958e-14 3.0054974118331683e-02 0.0000000000000000e+00  -1.1616411676988493e-12 1.0328402599714461e-02 0.0000000000000000e+00  9.0139859811609093e-14 8.6221275576465785e-03 0.0000000000000000e+00  8.3526908036513092e-13 8.7227077512310805e-03 0.0000000000000000e+00  1.5415847706399263e-12 3.9071003739477497e-03 0.0000000000000000e+00  -1.7505448858119921e-12 6.3372831037008257e-03 0.0000000000000000e+00  9.6494768263105085e-13 4.8345315762944657e-03 0.0000000000000000e+00  -6.4909948063010460e-13 6.5104449626322940e-03 0.0000000000000000e+00  -1.5315655753745660e-13 5.7164414030839881e-03 0.0000000000000000e+00  5.4750354941530491e-12 5.0842583713095347e-03 0.0000000000000000e+00  1.7222135963223843e-13 3.2661541740947757e-02 0.0000000000000000e+00  3.2777491429166691e-15 3.3561176034578345e-02 0.0000000000000000e+00  2.6735305738860120e-13 3.0995901451935457e-02 0.0000000000000000e+00  1.5668265143780607e-13 2.6297909919658712e-02 0.0000000000000000e+00  -2.7420938040613566e-15 2.6573230682335167e-02 0.0000000000000000e+00  4.1522974303069627e-12 5.0040278850787866e-03 0.0000000000000000e+00  -3.2663032224538514e-13 4.2843527556611673e-03 0.0000000000000000e+00  3.0899440416806249e-12 3.5442762722216639e-03 0.0000000000000000e+00  1.4832890899369546e-12 4.7944381206293171e-03 0.0000000000000000e+00  -2.0906723352359503e-12 5.5018251504740240e-03 0.0000000000000000e+00  -1.3254744654115192e-12 6.7074087157205919e-03 0.0000000000000000e+00  2.3535574352957079e-12 2.0446772848296251e-02 0.0000000000000000e+00  -7.3491924218137004e-13 1.8965669153744039e-02 0.0000000000000000e+00  7.5191081981720561e-13 3.1648204391092595e-02 0.0000000000000000e+00  -3.8602234969822898e-14 3.3450005265021947e-02 0.0000000000000000e+00  -1.8611582849226699e-13 3.3807170166390330e-02 0.0000000000000000e+00  -3.5754267548663826e-13 3.4444311023191850e-02 0.0000000000000000e+00  -4.0419746462471522e-13 3.6345156411078369e-02 0.0000000000000000e+00  1.4125859695074281e-13 3.4780360719453680e-02 0.0000000000000000e+00  2.6094863229855341e-14 3.9230142177763098e-02 0.0000000000000000e+00  6.4849468685115494e-13 3.3186061707327338e-02 0.0000000000000000e+00  -4.3406365354767725e-14 3.1043003674081682e-02 0.0000000000000000e+00  -1.0261643217777799e-12 3.2193860915358370e-02 0.0000000000000000e+00  5.8158341137830236e-12 4.4411508326466731e-02 0.0000000000000000e+00  -1.4937290927194428e-11 4.5533470775821525e-02 0.0000000000000000e+00  1.1106699146785391e-11 4.3842315735984509e-02 0.0000000000000000e+00  -8.4198988788226353e-13 2.5296887093199633e-02 0.0000000000000000e+00  -7.9851427116509480e-13 2.7115034426624787e-02 0.0000000000000000e+00  3.1648371094075273e-13 2.6739970082282131e-02 0.0000000000000000e+00  -8.9521541735264676e-13 3.0961615137729454e-02 0.0000000000000000e+00  2.5889731235459564e-13 3.5370833792723079e-02 0.0000000000000000e+00  1.6071540748611027e-13 3.7760757513860543e-02 0.0000000000000000e+00  3.0775091696657098e-13 3.1550056770936551e-02 0.0000000000000000e+00  -1.0359768278540153e-13 2.9617784575800565e-02 0.0000000000000000e+00  3.8465439820712838e-13 3.0598358894817643e-02 0.0000000000000000e+00  4.3046767483273448e-13 3.4146462956401828e-02 0.0000000000000000e+00  -3.8715574789517189e-13 3.5253015248075593e-02 0.0000000000000000e+00  2.9060713181328260e-13 2.8422424199946984e-02 0.0000000000000000e+00  2.8385817920009445e-13 2.7805762006005427e-02 0.0000000000000000e+00  3.3847818531412727e-13 2.9432689251002082e-02 0.0000000000000000e+00  1.9228438294488428e-13 2.0045123657219315e-02 0.0000000000000000e+00  3.0722995934040914e-13 1.9654117738257541e-02 0.0000000000000000e+00  9.0927981965795183e-13 2.0815879631676509e-02 0.0000000000000000e+00  2.9084927536660888e-13 3.0091015173482092e-02 0.0000000000000000e+00  4.9064063329445219e-13 2.9164838569872144e-02 0.0000000000000000e+00  3.9718976146442209e-13 2.0332035218141403e-02 0.0000000000000000e+00  2.6871292792818579e-13 1.8451898994389045e-02 0.0000000000000000e+00  1.0363606727522975e-13 1.8140154112559207e-02 0.0000000000000000e+00  5.4263082037551547e-13 1.4517325680536765e-02 0.0000000000000000e+00  3.7376625200593640e-13 1.3962165758238389e-02 0.0000000000000000e+00  4.1991821737660917e-14 1.6163564689640520e-02 0.0000000000000000e+00  -6.7590796781955861e-14 8.4057516216249854e-03 0.0000000000000000e+00  -2.6787998775912655e-13 6.7193188522880086e-03 0.0000000000000000e+00  -3.5365563370830720e-13 7.9483768485287890e-03 0.0000000000000000e+00  4.7858296953484553e-14 2.4906646441550436e-02 0.0000000000000000e+00  2.3164133274397712e-13 2.6072720000980331e-02 0.0000000000000000e+00  2.6600434803585687e-13 2.6396934650618417e-02 0.0000000000000000e+00  2.6744885896633131e-13 2.8590512095171095e-02 0.0000000000000000e+00  2.7999032368646691e-13 3.1009498342703713e-02 0.0000000000000000e+00  5.1454475078131103e-13 2.9646587317046186e-02 0.0000000000000000e+00  2.0249660011693420e-13 3.0767599267210594e-02 0.0000000000000000e+00  2.1163207372986903e-13 3.2689666205260814e-02 0.0000000000000000e+00  3.5943722084009557e-13 3.1886546922511812e-02 0.0000000000000000e+00  4.4652174629863870e-12 1.3543291751411135e-02 0.0000000000000000e+00  -2.0722171998611139e-12 1.2893983668447795e-02 0.0000000000000000e+00  -3.2434011796890688e-12 1.5304675746892565e-02 0.0000000000000000e+00  4.1417168226002238e-14 3.4326506688313278e-03 0.0000000000000000e+00  6.8703700851829755e-14 5.3251490159856385e-03 0.0000000000000000e+00  1.3135330082329672e-13 3.4703505300712656e-03 0.0000000000000000e+00  1.3640074356739240e-12 3.5274272914664929e-03 0.0000000000000000e+00  -2.0444600711444328e-12 4.4727259925636757e-03 0.0000000000000000e+00  6.9992164873896230e-13 5.9832066331235072e-03 0.0000000000000000e+00  2.1123142352240565e-12 6.8349425729719833e-03 0.0000000000000000e+00  7.1603651746293398e-13 7.2307228847831116e-03 0.0000000000000000e+00  -2.0303127599266977e-13 4.8897405956945181e-03 0.0000000000000000e+00  -2.1344880389498204e-12 1.6871106345038366e-02 0.0000000000000000e+00  4.6577896969026047e-12 1.6214147212932399e-02 0.0000000000000000e+00  -2.0645571494961127e-12 1.5026606089904261e-02 0.0000000000000000e+00  -2.0508641627785913e-13 1.4298298580334365e-02 0.0000000000000000e+00  1.4294028997011374e-14 1.6327023821360427e-02 0.0000000000000000e+00  7.7094408285104155e-14 1.3567491021940591e-02 0.0000000000000000e+00  4.5934211775308969e-13 1.1025158582524095e-02 0.0000000000000000e+00  8.5330283735756341e-13 1.2955691230769490e-02 0.0000000000000000e+00  6.0836699461510000e-13 1.2771399358820228e-02 0.0000000000000000e+00  1.3175249576398546e-29 6.0408313897747247e-19 0.0000000000000000e+00  -8.3070627197308560e-13 2.8182254638378828e-03 0.0000000000000000e+00  -2.9495284744796999e-13 1.8769651918410567e-03 0.0000000000000000e+00  -2.3026661730415523e-12 1.7517145172324150e-03 0.0000000000000000e+00  1.1346501353432323e-12 2.0928382888832356e-03 0.0000000000000000e+00  -1.0165343298114059e-12 3.1706811153695271e-03 0.0000000000000000e+00  -5.4354176252922580e-13 3.7132715957576027e-03 0.0000000000000000e+00  1.8208789900392866e-12 4.8159851510982980e-03 0.0000000000000000e+00  2.8399573707959264e-13 1.8830611428584443e-02 0.0000000000000000e+00  7.4549971768119134e-14 1.9676488708600282e-02 0.0000000000000000e+00  9.8619346732909391e-14 1.7305690275137880e-02 0.0000000000000000e+00  -1.2576497812181420e-13 2.8032660421949206e-02 0.0000000000000000e+00  1.3690450530285475e-14 2.8897032263490881e-02 0.0000000000000000e+00  1.2299210794745688e-13 2.9376515751708680e-02 0.0000000000000000e+00  -3.3987856680180507e-14 2.2658997065675354e-02 0.0000000000000000e+00  -2.3345995902006421e-13 2.3851501831961597e-02 0.0000000000000000e+00  4.2667057615838665e-13 2.2290614107860242e-02 0.0000000000000000e+00  1.5247464137033553e-13 2.7423498243214994e-02 0.0000000000000000e+00  2.8182495407077035e-13 2.7069069595889377e-02 0.0000000000000000e+00  7.1136656934477027e-14 2.5979100864609611e-02 0.0000000000000000e+00  6.5197579848339920e-13 1.9839057569676275e-02 0.0000000000000000e+00  -3.5949831822697620e-13 2.1992964573842540e-02 0.0000000000000000e+00  1.2773411596982683e-12 1.9952960559584485e-02 0.0000000000000000e+00  3.5300312918662577e-14 1.9936836946845359e-02 0.0000000000000000e+00  -2.1789821518644054e-12 2.0938688998235880e-02 0.0000000000000000e+00  -3.7762552156957221e-13 2.1768392830772327e-02 0.0000000000000000e+00  -5.0421305948746595e-13 1.6796024447754569e-02 0.0000000000000000e+00  2.6663897015238421e-12 1.8293788633052664e-02 0.0000000000000000e+00  -2.5097565111596113e-13 1.8241470323139414e-02 0.0000000000000000e+00  7.6911399623910947e-13 3.7527806662278625e-02 0.0000000000000000e+00  3.7975178832269801e-13 3.6876209265979419e-02 0.0000000000000000e+00  -2.0875412743421405e-13 3.8825824772233328e-02 0.0000000000000000e+00  1.3472236701101550e-12 2.8535307513321409e-02 0.0000000000000000e+00  8.3334608219077470e-13 2.7081933119066360e-02 0.0000000000000000e+00  4.9543930550844860e-13 2.8688096326331652e-02 0.0000000000000000e+00  -2.1615274257418078e-12 2.6290185957218583e-02 0.0000000000000000e+00  5.4651757322168729e-14 2.7715108714181036e-02 0.0000000000000000e+00  1.9296002496666817e-12 2.8344728719317331e-02 0.0000000000000000e+00  2.5778887170740248e-13 2.7675603551480608e-02 0.0000000000000000e+00  -1.8133785166603080e-13 1.5563921197547464e-02 0.0000000000000000e+00  -4.2872905844604839e-14 2.3124947911996114e-02 0.0000000000000000e+00  4.3649043874847832e-13 2.1394167590306261e-02 0.0000000000000000e+00  -2.8769443781806205e-13 2.2634300356427370e-02 0.0000000000000000e+00  -2.4759683766524874e-12 6.0260576329844023e-03 0.0000000000000000e+00  3.3323535134254876e-13 7.4903112382950776e-03 0.0000000000000000e+00  2.6585049756795749e-13 6.7321712173325438e-03 0.0000000000000000e+00  1.9728142987197141e-13 3.8540265729926047e-02 0.0000000000000000e+00  2.7080104071533819e-13 3.7594895953286238e-02 0.0000000000000000e+00  -2.0219809556835566e-15 2.7730034773002267e-02 0.0000000000000000e+00  8.0904373733385422e-13 2.9450768826911628e-02 0.0000000000000000e+00  1.4035797750022003e-12 3.2886239439101260e-02 0.0000000000000000e+00  -3.5460486836998433e-13 3.1063532558228999e-02 0.0000000000000000e+00  4.7380126257527079e-13 2.6833582897946483e-02 0.0000000000000000e+00  -3.1171966982348668e-13 2.6593063847458576e-02 0.0000000000000000e+00  2.9726159793480829e-14 2.9113803287415568e-02 0.0000000000000000e+00  5.7891117195614786e-14 3.0045837652654346e-02 0.0000000000000000e+00  -1.4940796237521798e-13 3.0549749628781396e-02 0.0000000000000000e+00  4.9919318620502233e-13 3.4519439885378762e-02 0.0000000000000000e+00  2.8280912006810860e-13 3.4929606934934868e-02 0.0000000000000000e+00  2.6153934551593508e-13 3.7537368102029289e-02 0.0000000000000000e+00  9.5377214465762060e-14 3.5589672319733270e-02 0.0000000000000000e+00  3.1504709338423425e-13 3.7450856322877306e-02 0.0000000000000000e+00  1.4314770836083630e-12 4.3930437525622638e-02 0.0000000000000000e+00  8.8335434249636664e-13 4.1594346975201951e-02 0.0000000000000000e+00  -3.9823153752845526e-12 4.3865135829600777e-02 0.0000000000000000e+00  -1.4232726963923927e-12 3.7142916387265315e-02 0.0000000000000000e+00  -2.8500865212146729e-13 3.5835709909779252e-02 0.0000000000000000e+00  3.0295346637287030e-13 3.5182221045532862e-02 0.0000000000000000e+00  -8.1600285438755871e-13 3.3544525149065391e-02 0.0000000000000000e+00  4.6889789742153270e-12 1.5314064714309895e-02 0.0000000000000000e+00  -1.6293464655756325e-12 1.7128638167869577e-02 0.0000000000000000e+00  5.3928269676176889e-12 1.7159184161692372e-02 0.0000000000000000e+00  -4.1693178963276944e-13 1.8999951914414500e-02 0.0000000000000000e+00  -3.6023801905386883e-12 1.8681019673617860e-02 0.0000000000000000e+00  1.2199463522298388e-12 1.6839336774892851e-02 0.0000000000000000e+00  1.3531915114070182e-12 2.3030195419466281e-02 0.0000000000000000e+00  5.1898232454673502e-13 2.2611541018686510e-02 0.0000000000000000e+00  -2.1573627265412301e-12 2.1185017783948396e-02 0.0000000000000000e+00  -8.7301410156130086e-13 1.7144649644125012e-02 0.0000000000000000e+00  -2.4777228988689915e-13 1.8235198584029541e-02 0.0000000000000000e+00  2.6077347855582251e-13 1.8910827033435093e-02 0.0000000000000000e+00  -2.9269208123322715e-13 2.4785189717761544e-02 0.0000000000000000e+00  8.3654187920308237e-13 2.4088966811817436e-02 0.0000000000000000e+00  -3.5185172685355983e-13 1.1651523186530201e-02 0.0000000000000000e+00  -8.9621043425129017e-13 1.2153992179299196e-02 0.0000000000000000e+00  9.0627438028727379e-13 1.0730457572958433e-02 0.0000000000000000e+00  2.3043338582629494e-13 1.0266176625415237e-02 0.0000000000000000e+00  3.6647322935509355e-14 8.1487256512545250e-03 0.0000000000000000e+00  1.7450966306817015e-13 1.1892488095936474e-02 0.0000000000000000e+00  3.9137260784561400e-13 1.7833703205258353e-03 0.0000000000000000e+00  -3.1123280698447058e-13 5.1698428338498841e-03 0.0000000000000000e+00  1.0245912733349937e-13 4.6618299590955687e-03 0.0000000000000000e+00  6.0361374542061689e-13 1.3163259210824689e-02 0.0000000000000000e+00  8.3995501610797153e-15 1.4637744275158744e-02 0.0000000000000000e+00  -1.2246231551879753e-13 1.5042843778357915e-02 0.0000000000000000e+00  2.3582129536914485e-13 1.0646151193925667e-02 0.0000000000000000e+00  1.1477167651242178e-13 1.1819026466776872e-02 0.0000000000000000e+00  4.1369621505486300e-14 9.5310477873279502e-03 0.0000000000000000e+00  1.6933797153601125e-13 9.8430327819447119e-03 0.0000000000000000e+00  3.8161793744582164e-15 7.4299324240155607e-03 0.0000000000000000e+00  6.0362112636845976e-14 9.2272765468753275e-03 0.0000000000000000e+00  7.6564659298163113e-13 6.1987523625546982e-03 0.0000000000000000e+00  -9.5677833644874309e-14 8.5308615549622088e-03 0.0000000000000000e+00  2.2958551092322838e-13 1.0648218826759146e-02 0.0000000000000000e+00  3.2313510999513684e-13 3.8259060015827878e-02 0.0000000000000000e+00  -1.7523498835777140e-13 3.6571211876392506e-02 0.0000000000000000e+00  1.3815275278848155e-13 5.1492298643532053e-03 0.0000000000000000e+00  1.5917688084482680e-13 7.0715559401537207e-03 0.0000000000000000e+00  1.4292980833906182e-29 2.0815373563187932e-02 0.0000000000000000e+00  1.9545318487475077e-13 2.2549988027371341e-02 0.0000000000000000e+00  -6.0695324775372310e-14 2.0261033989979287e-02 0.0000000000000000e+00  6.3608123237745056e-13 3.5930662728254118e-03 0.0000000000000000e+00  2.0375314029865955e-12 5.5968176494669104e-03 0.0000000000000000e+00  2.3172228250517207e-12 1.2068335134408610e-02 0.0000000000000000e+00  -1.4835683196466918e-12 1.1050602006734390e-02 0.0000000000000000e+00  -2.6017305868724159e-12 8.6071780959349163e-03 0.0000000000000000e+00  6.0297108369093499e-13 8.3870517536567754e-03 0.0000000000000000e+00  5.5061467933254262e-13 1.0132771554668678e-02 0.0000000000000000e+00  8.5914214884628706e-13 1.1953148348157167e-02 0.0000000000000000e+00  3.3289894983875958e-13 1.3177725560081887e-02 0.0000000000000000e+00  5.9648894283171876e-13 1.3567266692623040e-02 0.0000000000000000e+00  4.4927400643671932e-13 3.2712718512729680e-02 0.0000000000000000e+00  1.0015043474803986e-13 3.5282246392381804e-02 0.0000000000000000e+00  -1.3321336763052107e-13 3.5990288132751659e-02 0.0000000000000000e+00  3.5362870504563522e-13 1.4728309247974801e-02 0.0000000000000000e+00  -6.1163756925219013e-13 7.4265431940150235e-03 0.0000000000000000e+00  2.8178888872611191e-13 7.6387798382269835e-03 0.0000000000000000e+00  -1.8969756608989828e-12 6.3061478477862967e-03 0.0000000000000000e+00  7.7737959450142060e-12 2.1658568805630355e-03 0.0000000000000000e+00  -1.4647532074652130e-12 1.0061329739843229e-02 0.0000000000000000e+00  1.8931016514527654e-13 3.1985754029720814e-02 0.0000000000000000e+00  3.9759432374210326e-14 3.1064188914065240e-02 0.0000000000000000e+00  2.7547120373655423e-13 3.1841934795536188e-02 0.0000000000000000e+00  -1.8371446204651730e-13 3.2748508327