<?xml version="1.0"?>
<VTKFile type="UnstructuredGrid"  version="0.1"  >
<UnstructuredGrid>
<Piece  NumberOfPoints="854" NumberOfCells="1585">
<Points>
<DataArray  type="Float64"  NumberOfComponents="3"  format="ascii">-0.04301769881032727 -0.07789766764724927 0  -0.04189181960277685 -0.07611574955633513 0  -0.04113485614380685 -0.0778406702871829 0  0.00624679979509361 -0.0777776748102709 0  0.007568916227461957 -0.07713354619579388 0  0.007382729841747624 -0.07843031623139499 0  -0.02649300547176505 -0.08702975760517451 0  -0.0263406063065554 -0.08511740888024559 0  -0.02550850615665724 -0.08614596759352909 0  -0.02084933550610458 -0.06779624883491528 0  -0.01911675057012764 -0.06710909061847127 0  -0.02127151809726676 -0.06627988887730912 0  -0.02355932395340094 -0.07300565754440523 0  -0.02424120674399909 -0.07083644762466612 0  -0.02528234839396254 -0.07235550507120665 0  0.003414444410662295 -0.06667387755197443 0  0.004779010705117206 -0.06723343326758101 0  0.004898532170245292 -0.06588470706159105 0  -0.04508450624939216 -0.07289877322312201 0  -0.04334072568701926 -0.07281119722011131 0  -0.04498843852561831 -0.07457396944552638 0  -0.01233019290593089 -0.08678347112328397 0  -0.0112338405684588 -0.08880426352507724 0  -0.01273075515225664 -0.08916786604196794 0  -0.02487731781150031 -0.08912078797260026 0  -0.02308076237772397 -0.08987146331792781 0  -0.02363550833345763 -0.08867396749658046 0  -0.04364710778737727 -0.08947610695391849 0  -0.04301418522453009 -0.09191095606957841 0  -0.04235961703442911 -0.0904411189668541 0  -0.04202545149712906 -0.0795481471424079 0  -0.04353098224731951 -0.07984041100116517 0  -0.0001289479518082485 -0.09093484953796985 0  -0.001537361812977841 -0.09183103635621589 0  -0.0001024440023580193 -0.09250311526682992 0  -0.02717633928571428 -0.0671875 0  -0.02547575840129358 -0.06789917861829771 0  -0.02660892302130463 -0.0686732810860967 0  -0.02804244587606518 -0.08423194559419436 0  -0.02986151651701308 -0.08345542126252224 0  -0.02944273228431295 -0.08497307522931515 0  0.002378144654088049 -0.07627751572327045 0  0.001485836510060817 -0.07417176389937385 0  0.003438601733579284 -0.07409333596484037 0  -0.01416772838726675 -0.08358641717367554 0  -0.01438092441757664 -0.08541614012962434 0  -0.01595884200481777 -0.08511847584202997 0  -0.0262424283318852 -0.08092416785272258 0  -0.02665141823057518 -0.07860444913168425 0  -0.02515036422374465 -0.07979337743849195 0  0.002005314181027703 -0.07160953721069377 0  0.0005042659000463546 -0.0706442070080241 0  0.001542585041404355 -0.06977073503056669 0  -0.009584768711776409 -0.07507825100308022 0  -0.01157990020702555 -0.0737556443498108 0  -0.01030858530652727 -0.07292718465895769 0  -0.01253972891058217 -0.09069641732879728 0  -0.01384411344556504 -0.0922333898441426 0  -0.01239315970166911 -0.09214278956462488 0  -0.0257700475618113 -0.09648057567556882 0  -0.0263560920378603 -0.09429152410769577 0  -0.02703095132911369 -0.09564516741633013 0  -0.02134487277949115 -0.09413554396678402 0  -0.01968877658969745 -0.09485076374227272 0  -0.02091719731974153 -0.09542021937800599 0  -0.04010064634197606 -0.07057924971757969 0  -0.04164168012530915 -0.06976888025874925 0  -0.04132738058798338 -0.07207961939964694 0  -0.04488879840437942 -0.07631145991727138 0  -0.04340011400537071 -0.07606345743554926 0  -0.001826518818718755 -0.09549248911561954 0  -0.003437109196252027 -0.09614075558673832 0  -0.002233023995066442 -0.09680739911547753 0  -0.007255992924199247 -0.09568128265964732 0  -0.005724784492378706 -0.09504408502530426 0  -0.007780810481280456 -0.09395812364190835 0  -0.0137118687932259 -0.08158202687391057 0  -0.01248023965029664 -0.08291617032045073 0  -0.0108014823312422 -0.07149204022071302 0  -0.009032588102341152 -0.06986902027922305 0  -0.01095681711124807 -0.06954729451736746 0  -0.002931194584325539 -0.06897337298686135 0  -0.002446866923003689 -0.06726113607087911 0  -0.001229707650287227 -0.0686706673061121 0  0.002880492093639446 -0.06466240859797964 0  0.008907581557938372 -0.07010677444136433 0  0.008194986331135287 -0.07203719082326678 0  0.01024567414151233 -0.07100052562916147 0  0.01066098305406274 -0.05999515557027461 0  0.01199697692997241 -0.058984518130708 0  0.01209909079558958 -0.06050787089223954 0  -0.01454856551814738 -0.07721315778584886 0  -0.0152166235939798 -0.07557541333693718 0  -0.0165260688143757 -0.07591326249582545 0  -0.01285352492073821 -0.07211050370584039 0  -0.01748218666510975 -0.06813878302001214 0  -0.01762923752875039 -0.06598599581991983 0  -0.01789083831616858 -0.0715804492939822 0  -0.01780358103167474 -0.07332099473903625 0  -0.01632599156523281 -0.07243771640431323 0  -0.007183493015576356 -0.06924166753497944 0  -0.00855263833068491 -0.06824491119945986 0  -0.03564751029865867 -0.07439774731271727 0  -0.03395211491563267 -0.07495322214508 0  -0.03366797019368069 -0.0734877242641562 0  -0.03455208564641323 -0.08194382303888702 0  -0.03255269639564686 -0.08229603199409749 0  -0.03339906579048692 -0.08124954414524603 0  -0.02704324561419352 -0.07289471972323462 0  -0.02481643742317179 -0.07372899787113088 0  -0.03738360545745725 -0.08168537983806289 0  -0.03599322360724295 -0.08337896242457203 0  -0.03806191498716771 -0.08365977489794321 0  -0.03365282590339484 -0.08692313372691331 0  -0.03558005079508717 -0.08742320875628713 0  -0.03453986567279773 -0.08544024026264552 0  -0.03438518618490685 -0.09242829621017326 0  -0.03487102961521734 -0.09394739526994358 0  -0.03284347077283539 -0.0928402886718603 0  -0.03695888676976247 -0.07756467740738612 0  -0.03501579601208976 -0.07651430571098827 0  -0.03642910979197705 -0.07622226076359578 0  -0.03014613125358451 -0.07424633768158163 0  -0.03047893372488195 -0.07206737163976487 0  -0.03121734171721906 -0.07329504990619225 0  -0.03834687844188856 -0.07228526864991387 0  -0.03836933328569094 -0.07055391585998522 0  -0.03697141779064224 -0.07127734686192946 0  -0.007450830811539287 -0.08780052063043026 0  -0.009320310705092061 -0.08838540211273728 0  -0.008068072222769229 -0.08621390726582412 0  -0.04531250000000001 -0.09690794883681851 0  -0.04493199712142847 -0.09520323073982323 0  -0.04325023819755165 -0.0968739896865731 0  0.009375 -0.09682257628260371 0  0.007808664082198944 -0.09597107339876711 0  0.008444268623215768 -0.09461046788110308 0  0.0007125495420706774 -0.09384324413309353 0  -0.001324185801125433 -0.09348673451877551 0  4.55158174537929e-05 -0.09559543642801521 0  -0.002638588467448458 -0.08480290334513936 0  -0.0009523537286110506 -0.08539467671252784 0  -0.002123245304167003 -0.08646438588906058 0  0.00707564389875579 -0.08712042819884332 0  0.006175460256179339 -0.08529300011325083 0  0.00579688305402835 -0.08777872249611265 0  -0.01551784317154422 -0.09006879589254792 0  -0.01402328543009905 -0.08832981739043477 0  -0.01558909581522321 -0.08849582318267966 0  -0.034375 -0.1 0  -0.03423696779068536 -0.09746140864191191 0  -0.03619635067639472 -0.09830927380456798 0  -0.0171875 -0.09842209667188512 0  -0.01907578470877056 -0.09811482038481674 0  -0.01794864954210933 -0.09714392486344528 0  -0.0203125 -0.09665517208936659 0  -0.01807747440893156 -0.09566187359880164 0  -0.04636382294280632 -0.08303782715171144 0  -0.04457664116340198 -0.08227588074917039 0  -0.04479628068135219 -0.08441144033909778 0  -0.04665725025786571 -0.07474883737689871 0  -0.04839656261803055 -0.07397023150741729 0  -0.04715929032803928 -0.07353832403414237 0  -0.006496208247169712 -0.07958930721574266 0  -0.007818588748072135 -0.078515126908775 0  -0.008658337353509663 -0.07992113794005237 0  -0.0005048909647391475 -0.07529755637084348 0  0.0009893486840984126 -0.07561681737863528 0  -0.0003488571704173114 -0.07659863563213469 0  -0.002439376396341518 -0.08212944253333339 0  -0.002444152277402757 -0.08018925365413369 0  -0.00381630162417183 -0.0820268413935732 0  -0.02264613483542079 -0.0820413651645792 0  -0.02433746493959434 -0.08113892035160643 0  -0.02322485160458113 -0.08039154261165993 0  -0.01754533292962527 -0.08487053535373217 0  -0.01612535708344472 -0.08352138452691246 0  -0.01860487144251813 -0.08356851163246476 0  -0.03140806455272695 -0.06619583248002962 0  -0.03353512095382387 -0.06678277612275996 0  -0.03286485146038919 -0.06502660822956426 0  -0.01924800164333928 -0.07429606467324316 0  -0.01784284706265305 -0.07560523021790183 0  -0.01627524721575662 -0.07415843609645587 0  -0.02247505510150612 -0.07631841748069951 0  -0.02103221323394636 -0.07503488050239412 0  -0.02265507431745275 -0.07446773357752805 0  -0.02426505803403166 -0.07507046582579038 0  -0.02758628374191479 -0.08598038504817176 0  -0.03146202181458926 -0.07916958962906337 0  -0.03201932651192579 -0.08072863592367834 0  -0.03268498819409774 -0.07961155343193971 0  0.004333204611837944 -0.09457186870462708 0  0.004719118187944253 -0.09325290342309187 0  0.003210521597263091 -0.09393581815995514 0  -0.02699880677727343 -0.06528383311259306 0  -0.02816272306545877 -0.06613540002135666 0  -0.02796267299524422 -0.07502143545925727 0  -0.02864174901762227 -0.07347143860603883 0  0.01172901776142153 -0.07037684730407788 0  0.01149171032184903 -0.07201869888808959 0  0.008329705248451892 -0.07582893826919467 0  0.006579345813181347 -0.07604559218577921 0  0.007340105850365504 -0.07377496925579345 0  0.005649608925003106 -0.07293541457290909 0  0.006920603710509551 -0.07248150249158494 0  -0.03293339707392893 -0.06890569867093572 0  -0.03497293050757541 -0.06853622981877409 0  -0.03955829636164478 -0.06618721975980241 0  -0.03996948399416095 -0.06794165841102252 0  -0.04136249049824998 -0.0662651475401172 0  0.005332838990544739 -0.06042849285714701 0  0.005783754170669378 -0.06253278840008002 0  0.006730960667624127 -0.06048731509119946 0  0.006082007269868802 -0.06654253260679399 0  -0.01384023034695557 -0.06772003352402545 0  -0.01561760000785632 -0.06830868095647734 0  -0.01463379778004665 -0.06978387898440573 0  -0.009770499137943315 -0.08620544990365804 0
[...]
<PointData  Vectors="displacement"> 
<DataArray  type="Float64"  Name="displacement"  NumberOfComponents="3" format="ascii">3.2308491951597567e-12 2.4536976243953720e-02 0.0000000000000000e+00  2.0614199414640311e-12 2.6515178417999948e-02 0.0000000000000000e+00  2.0411967641605025e-12 2.4600252049447189e-02 0.0000000000000000e+00  6.2372667874753586e-12 2.4670186683392312e-02 0.0000000000000000e+00  -5.2003093313152967e-12 2.5385268143616253e-02 0.0000000000000000e+00  2.7738879490502186e-12 2.3945654678358633e-02 0.0000000000000000e+00  1.4148018299861938e-11 1.4398956829154094e-02 0.0000000000000000e+00  8.4588031385315864e-12 1.6521957003468073e-02 0.0000000000000000e+00  -1.9736338003873295e-12 1.5380099204049341e-02 0.0000000000000000e+00  8.0580484886003561e-12 3.5751099233247007e-02 0.0000000000000000e+00  -1.9231429606651598e-12 3.6513950162722214e-02 0.0000000000000000e+00  -1.3849303310021217e-12 3.7434491173032845e-02 0.0000000000000000e+00  -1.3581341993800154e-12 2.9967857194838032e-02 0.0000000000000000e+00  3.2364226815868453e-12 3.2376012649649698e-02 0.0000000000000000e+00  8.3788357434827419e-12 3.0689626068205068e-02 0.0000000000000000e+00  8.1391244969656421e-12 3.6997103361629709e-02 0.0000000000000000e+00  -3.5075753324476616e-12 3.6375910766115370e-02 0.0000000000000000e+00  3.6276528231285901e-12 3.7873203576733606e-02 0.0000000000000000e+00  1.8211423169392851e-12 3.0086515169880420e-02 0.0000000000000000e+00  2.6013727396991384e-13 3.0183737954509106e-02 0.0000000000000000e+00  4.6342096146226427e-13 2.8226790626520632e-02 0.0000000000000000e+00  9.4299185960690631e-12 1.4672372577906385e-02 0.0000000000000000e+00  -3.4547425861264530e-12 1.2428983265502989e-02 0.0000000000000000e+00  -1.0431860270052258e-11 1.2025328793437038e-02 0.0000000000000000e+00  2.2418431339959268e-11 1.2077592668787352e-02 0.0000000000000000e+00  9.5842160848437844e-12 1.1244227969965987e-02 0.0000000000000000e+00  -5.6376685200777439e-12 1.2573631880033083e-02 0.0000000000000000e+00  2.8110003570773188e-12 1.1683134143398098e-02 0.0000000000000000e+00  -8.8788509283511357e-13 8.9800784650064785e-03 0.0000000000000000e+00  1.3917612389700417e-12 1.0611822911232541e-02 0.0000000000000000e+00  7.4654640174649667e-13 2.2704691059025776e-02 0.0000000000000000e+00  2.8821411508777643e-13 2.2380233384379594e-02 0.0000000000000000e+00  3.5604314538907840e-11 1.0063706313313620e-02 0.0000000000000000e+00  -2.1891398072722528e-11 9.0688015143480880e-03 0.0000000000000000e+00  5.4544281768684023e-12 8.3226910439099609e-03 0.0000000000000000e+00  1.3205241896914837e-12 3.6426903732547110e-02 0.0000000000000000e+00  6.6592349186983916e-12 3.5636831396829688e-02 0.0000000000000000e+00  2.9123022305738823e-12 3.4777459032135145e-02 0.0000000000000000e+00  2.1587243872444380e-11 1.7504956946275678e-02 0.0000000000000000e+00  -5.1272751416227340e-12 1.8367017966505514e-02 0.0000000000000000e+00  1.1512324330042420e-11 1.6682189479768617e-02 0.0000000000000000e+00  -4.6692842978772822e-12 2.6335593177369630e-02 0.0000000000000000e+00  1.5223047201787499e-12 2.8673300419687759e-02 0.0000000000000000e+00  -1.3060016597321386e-12 2.8760367445880172e-02 0.0000000000000000e+00  -2.4294704557146633e-12 1.8221592428226949e-02 0.0000000000000000e+00  -1.5117450586405875e-11 1.6190319501475384e-02 0.0000000000000000e+00  1.4217877875267437e-13 1.6520772520873962e-02 0.0000000000000000e+00  -6.5314804590339842e-12 2.1177097174012262e-02 0.0000000000000000e+00  1.2235470466186481e-12 2.3752340496967818e-02 0.0000000000000000e+00  1.9867090640070838e-11 2.2432447822934156e-02 0.0000000000000000e+00  2.1299597944851633e-12 3.1517764718111754e-02 0.0000000000000000e+00  -1.5812768770789637e-12 3.2589429189086985e-02 0.0000000000000000e+00  -4.0694067207583312e-12 3.3559116944624393e-02 0.0000000000000000e+00  -1.3620569268877972e-12 2.7666960814508153e-02 0.0000000000000000e+00  -6.9155344165976991e-13 2.9135256899975401e-02 0.0000000000000000e+00  -1.0313446067690746e-12 3.0054974110861964e-02 0.0000000000000000e+00  -1.4602140366558533e-11 1.0328402579880030e-02 0.0000000000000000e+00  1.1050135698968488e-12 8.6221275526681337e-03 0.0000000000000000e+00  1.0332910590135062e-11 8.7227077257549905e-03 0.0000000000000000e+00  1.9325799690628985e-11 3.9071003563890564e-03 0.0000000000000000e+00  -2.1794059185695796e-11 6.3372831155545217e-03 0.0000000000000000e+00  1.1969877271520474e-11 4.8345315891003878e-03 0.0000000000000000e+00  -8.1979668877496335e-12 6.5104449460982559e-03 0.0000000000000000e+00  -1.8350535861425094e-12 5.7164414259615040e-03 0.0000000000000000e+00  6.7900998603921722e-11 5.0842583578762845e-03 0.0000000000000000e+00  2.1435197443609591e-12 3.2661541743355289e-02 0.0000000000000000e+00  3.2121941600582997e-13 3.3561176034829068e-02 0.0000000000000000e+00  3.1504810801167708e-12 3.0995901452522411e-02 0.0000000000000000e+00  1.9499200414369199e-12 2.6297909922399779e-02 0.0000000000000000e+00  3.1292044892094982e-14 2.6573230684275140e-02 0.0000000000000000e+00  5.1016845166644662e-11 5.0040278528712392e-03 0.0000000000000000e+00  -4.1147460116199163e-12 4.2843527766966445e-03 0.0000000000000000e+00  3.7931221939406596e-11 3.5442763051396165e-03 0.0000000000000000e+00  1.8173905510904030e-11 4.7944381256274189e-03 0.0000000000000000e+00  -2.5813198744753706e-11 5.5018251658686653e-03 0.0000000000000000e+00  -1.6475474988251767e-11 6.7074087176794183e-03 0.0000000000000000e+00  2.8480888366848598e-11 2.0446772853221440e-02 0.0000000000000000e+00  -8.7415595008810579e-12 1.8965669131184144e-02 0.0000000000000000e+00  9.7703890544638436e-12 3.1648204391691664e-02 0.0000000000000000e+00  -9.8201022844360449e-13 3.3450005268850273e-02 0.0000000000000000e+00  -2.6567630093768530e-12 3.3807170159206965e-02 0.0000000000000000e+00  -4.1795107164428625e-12 3.4444311022403418e-02 0.0000000000000000e+00  -4.3628764821227348e-12 3.6345156403889044e-02 0.0000000000000000e+00  1.4440103114086271e-12 3.4780360707429951e-02 0.0000000000000000e+00  1.8254877879755061e-13 3.9230142163359329e-02 0.0000000000000000e+00  8.0949131394826640e-12 3.3186061707230936e-02 0.0000000000000000e+00  -7.7949917858667714e-13 3.1043003673291315e-02 0.0000000000000000e+00  -1.3064044337239900e-11 3.2193860913405800e-02 0.0000000000000000e+00  7.0856726864957045e-11 4.4411508313654320e-02 0.0000000000000000e+00  -1.8282671806158128e-10 4.5533470813026347e-02 0.0000000000000000e+00  1.3557306817618155e-10 4.3842315655312637e-02 0.0000000000000000e+00  -1.0136756014198111e-11 2.5296887083541782e-02 0.0000000000000000e+00  -9.5589038148804002e-12 2.7115034415148533e-02 0.0000000000000000e+00  3.8054128021034484e-12 2.6739970066840067e-02 0.0000000000000000e+00  -1.2044856055908325e-11 3.0961615125434470e-02 0.0000000000000000e+00  3.1144221676433545e-12 3.5370833789976588e-02 0.0000000000000000e+00  2.4939127515753475e-12 3.7760757511281398e-02 0.0000000000000000e+00  3.7022539217133971e-12 3.1550056777141712e-02 0.0000000000000000e+00  -1.2995944660846933e-12 2.9617784572268192e-02 0.0000000000000000e+00  4.3938418207549172e-12 3.0598358881869035e-02 0.0000000000000000e+00  6.0785388988428436e-12 3.4146462952265338e-02 0.0000000000000000e+00  -5.6172814228127043e-12 3.5253015238972875e-02 0.0000000000000000e+00  3.3924972242561400e-12 2.8422424202028833e-02 0.0000000000000000e+00  3.5719971037375470e-12 2.7805762010733270e-02 0.0000000000000000e+00  4.1211229280935866e-12 2.9432689253277945e-02 0.0000000000000000e+00  2.4314090665834448e-12 2.0045123659597111e-02 0.0000000000000000e+00  3.8898949849171505e-12 1.9654117737297163e-02 0.0000000000000000e+00  1.0995596770156398e-11 2.0815879629715872e-02 0.0000000000000000e+00  3.3285128797544730e-12 3.0091015177333778e-02 0.0000000000000000e+00  6.0144178937822099e-12 2.9164838565462762e-02 0.0000000000000000e+00  4.9043710111289011e-12 2.0332035218926868e-02 0.0000000000000000e+00  3.3494573632155042e-12 1.8451898996858351e-02 0.0000000000000000e+00  1.4362517246438087e-12 1.8140154115134283e-02 0.0000000000000000e+00  6.7909390718117042e-12 1.4517325680415701e-02 0.0000000000000000e+00  4.7689779916094028e-12 1.3962165759751304e-02 0.0000000000000000e+00  5.7199552748730355e-13 1.6163564693883466e-02 0.0000000000000000e+00  -8.3221458668185271e-13 8.4057516275990885e-03 0.0000000000000000e+00  -2.9944599287942311e-12 6.7193188488147019e-03 0.0000000000000000e+00  -3.8970708577774516e-12 7.9483768543564190e-03 0.0000000000000000e+00  4.7927469286608494e-13 2.4906646443091852e-02 0.0000000000000000e+00  2.8364377806462338e-12 2.6072720001555222e-02 0.0000000000000000e+00  3.6538092412435962e-12 2.6396934653853968e-02 0.0000000000000000e+00  3.3517191404027215e-12 2.8590512098718230e-02 0.0000000000000000e+00  3.4676607398493911e-12 3.1009498345611310e-02 0.0000000000000000e+00  6.3257554083959637e-12 2.9646587319796833e-02 0.0000000000000000e+00  2.5805145574721964e-12 3.0767599269713081e-02 0.0000000000000000e+00  2.6830750767830863e-12 3.2689666205901899e-02 0.0000000000000000e+00  4.3315482560142314e-12 3.1886546923630493e-02 0.0000000000000000e+00  5.4893143882008673e-11 1.3543291742015077e-02 0.0000000000000000e+00  -2.5848617740685838e-11 1.2893983652358287e-02 0.0000000000000000e+00  -4.0045864477211453e-11 1.5304675756088617e-02 0.0000000000000000e+00  4.0678921319488788e-13 3.4326506702280876e-03 0.0000000000000000e+00  8.5456935659838207e-13 5.3251490175143601e-03 0.0000000000000000e+00  1.5705556738355279e-12 3.4703505315254015e-03 0.0000000000000000e+00  1.6578854485946095e-11 3.5274273328580121e-03 0.0000000000000000e+00  -2.5034479278243144e-11 4.4727260511392124e-03 0.0000000000000000e+00  8.4333271371331587e-12 5.9832066245317037e-03 0.0000000000000000e+00  2.5877320906501190e-11 6.8349425344388249e-03 0.0000000000000000e+00  8.6809750843483971e-12 7.2307228736953055e-03 0.0000000000000000e+00  -2.6150300999027397e-12 4.8897406170944884e-03 0.0000000000000000e+00  -2.6452893019734125e-11 1.6871106358412692e-02 0.0000000000000000e+00  5.6921335202823611e-11 1.6214147214454251e-02 0.0000000000000000e+00  -2.5607409696782074e-11 1.5026606125368528e-02 0.0000000000000000e+00  -2.5149988761430063e-12 1.4298298583946704e-02 0.0000000000000000e+00  1.0747507958435551e-14 1.6327023829535228e-02 0.0000000000000000e+00  9.6704361464312738e-13 1.3567491020560873e-02 0.0000000000000000e+00  5.7837240058255061e-12 1.1025158578586783e-02 0.0000000000000000e+00  1.0528079931600194e-11 1.2955691235313923e-02 0.0000000000000000e+00  7.2910820364148017e-12 1.2771399351279985e-02 0.0000000000000000e+00  -1.7779306089392662e-27 4.0640272106887587e-19 0.0000000000000000e+00  -9.8209524415610164e-12 2.8182254663941782e-03 0.0000000000000000e+00  -3.5735443541793121e-12 1.8769651896199083e-03 0.0000000000000000e+00  -2.8540590451315213e-11 1.7517145031144038e-03 0.0000000000000000e+00  1.4103146561937829e-11 2.0928382843596895e-03 0.0000000000000000e+00  -1.2531141390817105e-11 3.1706811283001048e-03 0.0000000000000000e+00  -6.6800490216682084e-12 3.7132715687832772e-03 0.0000000000000000e+00  2.2601024685561351e-11 4.8159851375746401e-03 0.0000000000000000e+00  3.1211231336299508e-12 1.8830611431757509e-02 0.0000000000000000e+00  1.0778298185951243e-12 1.9676488709508243e-02 0.0000000000000000e+00  1.3195323114184592e-12 1.7305690278201630e-02 0.0000000000000000e+00  -1.3100607758307147e-12 2.8032660425677345e-02 0.0000000000000000e+00  1.1191230264209919e-13 2.8897032265552930e-02 0.0000000000000000e+00  1.4393063666448261e-12 2.9376515755467725e-02 0.0000000000000000e+00  -7.2037190101913970e-13 2.2658997061345765e-02 0.0000000000000000e+00  -3.0099919704387683e-12 2.3851501830250012e-02 0.0000000000000000e+00  5.1532796969532517e-12 2.2290614120000204e-02 0.0000000000000000e+00  1.6221429031763912e-12 2.7423498240258342e-02 0.0000000000000000e+00  3.3237602717640211e-12 2.7069069595457892e-02 0.0000000000000000e+00  8.7284111232651672e-13 2.5979100867979874e-02 0.0000000000000000e+00  8.1206335322305149e-12 1.9839057557615589e-02 0.0000000000000000e+00  -4.7982613682037889e-12 2.1992964576606388e-02 0.0000000000000000e+00  1.5789881232170657e-11 1.9952960552450820e-02 0.0000000000000000e+00  6.9065240601001308e-13 1.9936836928263216e-02 0.0000000000000000e+00  -2.5684981983467450e-11 2.0938689015481179e-02 0.0000000000000000e+00  -4.3926594042404558e-12 2.1768392853890248e-02 0.0000000000000000e+00  -6.0744563867885139e-12 1.6796024430919675e-02 0.0000000000000000e+00  3.2290472983555088e-11 1.8293788628609090e-02 0.0000000000000000e+00  -2.8425442818109375e-12 1.8241470316510602e-02 0.0000000000000000e+00  8.4568616156488065e-12 3.7527806660416899e-02 0.0000000000000000e+00  4.4738328341557942e-12 3.6876209265799417e-02 0.0000000000000000e+00  -1.5895479464277743e-12 3.8825824775257256e-02 0.0000000000000000e+00  1.6162615509190739e-11 2.8535307515313076e-02 0.0000000000000000e+00  1.0063497358725127e-11 2.7081933106696720e-02 0.0000000000000000e+00  6.0391209783261829e-12 2.8688096331067049e-02 0.0000000000000000e+00  -2.5856963627856668e-11 2.6290185951535958e-02 0.0000000000000000e+00  6.6429066186925395e-13 2.7715108712734467e-02 0.0000000000000000e+00  2.3203450066416647e-11 2.8344728711978580e-02 0.0000000000000000e+00  3.1566708098843444e-12 2.7675603549909451e-02 0.0000000000000000e+00  -1.9873486549903512e-12 1.5563921208625113e-02 0.0000000000000000e+00  -3.8294823736279328e-13 2.3124947914223790e-02 0.0000000000000000e+00  5.3171309750635682e-12 2.1394167588505073e-02 0.0000000000000000e+00  -3.2786734913241951e-12 2.2634300353821784e-02 0.0000000000000000e+00  -3.0411875885480843e-11 6.0260576058683559e-03 0.0000000000000000e+00  3.9202168224515109e-12 7.4903112398237671e-03 0.0000000000000000e+00  3.1823513825795986e-12 6.7321711987443252e-03 0.0000000000000000e+00  2.3503337856875414e-12 3.8540265725643168e-02 0.0000000000000000e+00  3.7032413437123153e-12 3.7594895953120010e-02 0.0000000000000000e+00  6.3130890527821299e-14 2.7730034776268342e-02 0.0000000000000000e+00  1.0106555251481261e-11 2.9450768823511969e-02 0.0000000000000000e+00  1.7534432228467410e-11 3.2886239437446910e-02 0.0000000000000000e+00  -4.5131783233635235e-12 3.1063532581336088e-02 0.0000000000000000e+00  5.5653483604573261e-12 2.6833582892054762e-02 0.0000000000000000e+00  -3.9862572228971340e-12 2.6593063848348010e-02 0.0000000000000000e+00  1.8249604430174908e-13 2.9113803282329237e-02 0.0000000000000000e+00  5.2080394139602878e-13 3.0045837646117970e-02 0.0000000000000000e+00  -1.7163740417654130e-12 3.0549749630481737e-02 0.0000000000000000e+00  6.0388144323317807e-12 3.4519439884991461e-02 0.0000000000000000e+00  3.5542991697516289e-12 3.4929606935604707e-02 0.0000000000000000e+00  3.1950087242940044e-12 3.7537368103730269e-02 0.0000000000000000e+00  1.4766283158505595e-12 3.5589672321806022e-02 0.0000000000000000e+00  3.8012508898668508e-12 3.7450856323895193e-02 0.0000000000000000e+00  1.7155970386198206e-11 4.3930437506485252e-02 0.0000000000000000e+00  1.0501914036484929e-11 4.1594346951857916e-02 0.0000000000000000e+00  -4.8925005539307030e-11 4.3865135795430277e-02 0.0000000000000000e+00  -1.7695456243063377e-11 3.7142916382928506e-02 0.0000000000000000e+00  -3.3635109942899499e-12 3.5835709911819086e-02 0.0000000000000000e+00  3.6151488273661329e-12 3.5182221047164029e-02 0.0000000000000000e+00  -1.0823029147197446e-11 3.3544525132451972e-02 0.0000000000000000e+00  5.7610612395056568e-11 1.5314064715016638e-02 0.0000000000000000e+00  -2.0287315218560808e-11 1.7128638166973881e-02 0.0000000000000000e+00  6.6326748833894478e-11 1.7159184136478087e-02 0.0000000000000000e+00  -5.2411016867888065e-12 1.8999951930460245e-02 0.0000000000000000e+00  -4.4726490770034678e-11 1.8681019675571706e-02 0.0000000000000000e+00  1.4809451798004519e-11 1.6839336801783979e-02 0.0000000000000000e+00  1.6471823137354899e-11 2.3030195428279117e-02 0.0000000000000000e+00  6.1518505650219657e-12 2.2611540981496366e-02 0.0000000000000000e+00  -2.5775416919546237e-11 2.1185017785047569e-02 0.0000000000000000e+00  -1.0936085531273649e-11 1.7144649612582389e-02 0.0000000000000000e+00  -3.2416971652601383e-12 1.8235198581909369e-02 0.0000000000000000e+00  3.0365390633165902e-12 1.8910827027464633e-02 0.0000000000000000e+00  -3.8938713689244184e-12 2.4785189715188199e-02 0.0000000000000000e+00  1.0663872363818355e-11 2.4088966806690638e-02 0.0000000000000000e+00  -4.5509482955194804e-12 1.1651523193381986e-02 0.0000000000000000e+00  -1.1251262894963013e-11 1.2153992146635520e-02 0.0000000000000000e+00  1.1183457273563475e-11 1.0730457607501973e-02 0.0000000000000000e+00  2.9626382791588260e-12 1.0266176624323123e-02 0.0000000000000000e+00  4.7062293860197224e-13 8.1487256533498004e-03 0.0000000000000000e+00  2.3166029435114193e-12 1.1892488097555783e-02 0.0000000000000000e+00  4.8677420248423643e-12 1.7833703282633265e-03 0.0000000000000000e+00  -3.6220713937076978e-12 5.1698428366944819e-03 0.0000000000000000e+00  1.5127062466259024e-12 4.6618299682885831e-03 0.0000000000000000e+00  7.3429603733634937e-12 1.3163259206503082e-02 0.0000000000000000e+00  2.8535615825733173e-13 1.4637744283514546e-02 0.0000000000000000e+00  -1.1133712143477715e-12 1.5042843780932305e-02 0.0000000000000000e+00  2.7816844882379623e-12 1.0646151193236260e-02 0.0000000000000000e+00  1.8342540996147295e-12 1.1819026478160397e-02 0.0000000000000000e+00  6.7156182628596895e-13 9.5310477932834693e-03 0.0000000000000000e+00  2.2127716484025004e-12 9.8430327842609390e-03 0.0000000000000000e+00  -5.1918320591428184e-15 7.4299324211834529e-03 0.0000000000000000e+00  8.4156329860876187e-13 9.2272765491826555e-03 0.0000000000000000e+00  9.1801121414104493e-12 6.1987523683070820e-03 0.0000000000000000e+00  -1.2576453708237708e-12 8.5308615548047272e-03 0.0000000000000000e+00  3.0475195819542036e-12 1.0648218827311019e-02 0.0000000000000000e+00  3.5480573420260506e-12 3.8259060014212136e-02 0.0000000000000000e+00  -2.2255976845579326e-12 3.6571211877151004e-02 0.0000000000000000e+00  1.6994443913808360e-12 5.1492298665317534e-03 0.0000000000000000e+00  1.9379852624639934e-12 7.0715559412491049e-03 0.0000000000000000e+00  -7.6229231114166298e-29 2.0815373563378186e-02 0.0000000000000000e+00  2.2600172874775328e-12 2.2549988033272069e-02 0.0000000000000000e+00  -6.0876929178915870e-13 2.0261033994243303e-02 0.0000000000000000e+00  7.8411084565032946e-12 3.5930662554229916e-03 0.0000000000000000e+00  2.5051160564118919e-11 5.5968176353246944e-03 0.0000000000000000e+00  2.8366074683364620e-11 1.2068335132396458e-02 0.0000000000000000e+00  -1.8466509309913730e-11 1.1050602022722745e-02 0.0000000000000000e+00  -3.2384782713335703e-11 8.6071780946206829e-03 0.0000000000000000e+00  7.6672045307040490e-12 8.3870517541556003e-03 0.0000000000000000e+00  7.1449520276842679e-12 1.0132771569201842e-02 0.0000000000000000e+00  1.0495775399946379e-11 1.1953148327805233e-02 0.0000000000000000e+00  4.5565896664761089e-12 1.3177725577047031e-02 0.0000000000000000e+00  7.5362002048633416e-12 1.3567266695461084e-02 0.0000000000000000e+00  5.2731751652840278e-12 3.2712718514504746e-02 0.0000000000000000e+00  1.4648949563905705e-12 3.5282246392609816e-02 0.0000000000000000e+00  -9.1463470445553082e-13 3.5990288140473670e-02 0.0000000000000000e+00  4.4971197947401503e-12 1.4728309237528705e-02 0.0000000000000000e+00  -7.5364162745544830e-12 7.4265431688939889e-03 0.0000000000000000e+00  3.3271262834261105e-12 7.6387798409332111e-03 0.0000000000000000e+00  -2.3441876966548628e-11 6.3061478272880703e-03 0.0000000000000000e+00  9.5618834636726956e-11 2.1658568635153650e-03 0.0000000000000000e+00  -1.8110742987605427e-11 1.0061329725396787e-02 0.0000000000000000e+00  1.5439887151334456e-12 3.1985754025282837e-02 0.0000000000000000e+00  5.1727795244599682e-13 3.1064188907832965e-02 0.0000000000000000e+00  3.2027262135288150e-12 3.1841934786816677e-02 0.0000000000000000e+00  -2.8389553335203682e-12 3.274850832