<?xml version="1.0"?>
<VTKFile type="UnstructuredGrid"  version="0.1"  >
<UnstructuredGrid>
<Piece  NumberOfPoints="854" NumberOfCells="1596">
<Points>
<DataArray  type="Float64"  NumberOfComponents="3"  format="ascii">-0.02781678701797331 -0.04647784327427693 0  -0.02538422566144643 -0.04667184908299045 0  -0.02652877195264674 -0.04567539734737942 0  -0.05 -0.05312500000000001 0  -0.04811912640459025 -0.05253610701182041 0  -0.05 -0.0515625 0  -0.02899502477229902 -0.04803478075179329 0  -0.02923548165964452 -0.04662851706305639 0  -0.02249350916210405 -0.05756412936044115 0  -0.0203195083958392 -0.05687598774678908 0  -0.02095870557061441 -0.05843796894332276 0  -0.0441628656802633 -0.05940305190338293 0  -0.04541256861990934 -0.06100003793299257 0  -0.04614292548179974 -0.05943086762223604 0  0.01017345837010273 -0.05769818894326342 0  0.01257096511573747 -0.05741073122222133 0  0.01199697692997241 -0.058984518130708 0  0.01470753125203114 -0.04816506250406229 0  0.01581567795051093 -0.04979263651326838 0  0.01423898291326179 -0.04967510961170915 0  -0.02086032995459787 -0.04678858387113149 0  -0.0199341123853538 -0.04838661920330159 0  -0.01931431280249884 -0.04609375 0  -0.001680304984140507 -0.05261406763445607 0  -0.001860837244262322 -0.05065094456623151 0  -0.0005909679910356918 -0.05152402771642645 0  -0.005203169869815907 -0.063408387077611 0  -0.005795874220342064 -0.06136858202269977 0  -0.007169687901432507 -0.06341678026929995 0  0.006028532990060553 -0.03846042534778643 0  0.006689526301856015 -0.04071687560886686 0  0.00470687896267873 -0.04007262327868574 0  0.007681421014797305 -0.0335876017633407 0  0.007398918941703169 -0.03180190167941388 0  0.009257982989763691 -0.03352046177391386 0  -0.002501899107215252 -0.03451361758785813 0  -0.003994222433335283 -0.03302847981728372 0  -0.00237569780992264 -0.03289446498059487 0  -0.03834537706133037 -0.04910019455252918 0  -0.03893084400845775 -0.0505842199270596 0  -0.03978172746268 -0.04939103576868267 0  -0.02961483445283294 -0.04429487938443922 0  -0.03136339580500359 -0.04496180428920909 0  -0.0303747380627551 -0.04302198425974124 0  -0.02007378472222222 -0.03177083333333333 0  -0.02239389172413698 -0.03214132682270486 0  -0.02109822763807408 -0.03280530166237346 0  2.405987640392848e-05 -0.0604407265430706 0  0.001342218073462028 -0.05912647428938291 0  3.695705182295165e-05 -0.05913549804748571 0  -0.03283032834564539 -0.06088737538203123 0  -0.03433327775466556 -0.0618046716509543 0  -0.03409636453940582 -0.0605029372505023 0  -0.04413627809979717 -0.04502964300775884 0  -0.04604771420796538 -0.04508688933511684 0  -0.0453151101858084 -0.04400389013742394 0  -0.01746961805555555 -0.03101128472222222 0  -0.01915147569444444 -0.03008897569444444 0  -0.01783316571178066 -0.02961095015928098 0  -0.01494018809894989 -0.06003035061353305 0  -0.0139058884867534 -0.05871666257001249 0  -0.01350821235199411 -0.060367617048519 0  -0.02618825764425157 -0.05952228886785037 0  -0.02772777262491462 -0.05918827740577445 0  -0.02679509387602945 -0.05805767104796359 0  -0.007626619839192271 -0.03955527372186517 0  -0.008951299015395937 -0.03848096315329933 0  -0.006518133045618423 -0.03864485562360071 0  -0.02267804660897878 -0.04479166666666666 0  -0.02081249562573519 -0.04491928487043712 0  -0.02268977356564392 -0.04325592999463841 0  -0.03383223677127735 -0.05380273720232678 0  -0.03489161592695806 -0.0546732075058699 0  -0.03481246927755723 -0.05292618308003903 0  -0.02991071428571428 -0.05329326110353833 0  -0.03053860460529459 -0.05152671902895579 0  -0.02880624554896211 -0.05190583657473875 0  0.003880552158806201 -0.04910058949648512 0  0.004639589519810899 -0.05108934613081326 0  0.005570108460811736 -0.0499414484761177 0  -0.02327795588347301 -0.03930652618770811 0  -0.02486310391344979 -0.03854942208631368 0  -0.02458387340884331 -0.04000276088388564 0  -0.02965977176321958 -0.04987064838119242 0  -0.03151498146247666 -0.0499473597007698 0  -0.005208333333333331 -0.04663513209089385 0  -0.004696030535063632 -0.0487673722035586 0  -0.006160787771090825 -0.04799163790095413 0  0.002256955057953323 -0.03542009683155154 0  0.002478844003272855 -0.03693214507778883 0  0.0009942345205310021 -0.03581760440233908 0  -0.03955829636164478 -0.06618721975980241 0  -0.03751342210215539 -0.06518999255878076 0  -0.03914413830697622 -0.06478332168464747 0  -0.03541666666666667 -0.06041666666666666 0  -0.03777505276601351 -0.0612893992546924 0  -0.03774064596242072 -0.05942192948826657 0  -0.03882629768826652 -0.06033597897025076 0  -0.02991071428571428 -0.06211553281168236 0  -0.03170383056757221 -0.06229380722247076 0  -0.0306656133500556 -0.06060665342614047 0  0.002672434464373351 -0.05782442806434116 0  0.004205271826810189 -0.05906909110223223 0  0.003621073244015077 -0.05672544031758242 0  0.01066098305406274 -0.05999515557027461 0  0.009461554335003694 -0.05904950974817084 0  0.0004382181809313461 -0.04439373199081217 0  0.0007479406588227182 -0.04630941102478892 0  0.001434473698376028 -0.04521553686097385 0  0.009039169047364189 -0.04062936042476101 0  0.007849009582011639 -0.03910743039857202 0  0.009507271836584152 -0.03875260097857094 0  0.003579743803523502 -0.05527424030410576 0  0.00495579046143639 -0.05615428398934548 0  0.007184194424042271 -0.04772337119454249 0  0.009116470808511714 -0.04731590763080268 0  0.007927373114962557 -0.04646231940317579 0  -0.003294269781653621 -0.04595817884714862 0  -0.003588698982274615 -0.04756559079455246 0  -0.01934692347958504 -0.05893848545414168 0  -0.02083333333333332 -0.03958333333333333 0  -0.02215660612617937 -0.04033657149359295 0  -0.02121677367915418 -0.03828125 0  -0.005615842898686297 -0.03437124196063728 0  -0.007416067229776028 -0.03518034726825829 0  -0.006054704616810422 -0.03580205691967763 0  -0.01302083333333333 -0.05260416666666667 0  -0.01171875 -0.05390625 0  -0.01171875 -0.05260416666666666 0  -0.01770064247689481 -0.05432205180650591 0  -0.01897546044124709 -0.05332939113838762 0  -0.0187022681159755 -0.05532589189681572 0  -0.01302083333333333 -0.05130208333333334 0  -0.004157923962185587 -0.03660884936063957 0  -0.002121340039484437 -0.0366645371443241 0  -0.003389459586812602 -0.03835665334840834 0  -0.007913035375586628 -0.0615410109990858 0  -0.03681366160742916 -0.05780040947227882 0  -0.03472060866939086 -0.05732774700086921 0  -0.03549333970893096 -0.05877650436040723 0  -0.03690476190476191 -0.03750000000000001 0  -0.03847177245354389 -0.0367681266259752 0  -0.03638515588252184 -0.0361370125666952 0  -0.03619427440804578 -0.04043490771729352 0  -0.03451268287663042 -0.03865576143836598 0  -0.03608409179926118 -0.03885478264740441 0  -0.005175004679933259 -0.03128537442936601 0  -0.003579275799392356 -0.02990168269634324 0  -0.003587402364175357 -0.03149153588773727 0  0.003782179117330453 -0.03352803109814534 0  0.001800461004723053 -0.0329743674150207 0  0.009302575519085478 -0.04534992603921641 0  0.009513501161241235 -0.04296668972212099 0  0.01124108542315425 -0.04409850809919492 0  0.01270832488148558 -0.05007117248908488 0  0.01282123189459499 -0.04818811416515179 0  0.01182500023256633 -0.04907329480983055 0  -0.04283499587290376 -0.06521972076452692 0  -0.04477892619379116 -0.06439657994007053 0  -0.04421236657091408 -0.06576555653762778 0  -0.04398521510889171 -0.06244044890584508 0  -0.04337105816452184 -0.06088063454299558 0  -0.04263792540377773 -0.0620701115857645 0  -0.04435012479767778 -0.04795947098448357 0  -0.04263708544801918 -0.04860338475299016 0  -0.04350328610589898 -0.04664713184197014 0  -0.01041666666666667 -0.05260416666666667 0  -0.009114583333333332 -0.05390625 0  -0.009114583333333337 -0.05260416666666667 0  -0.006602877926868728 -0.04666859936192611 0  -0.007999101390003741 -0.03706595863040997 0  -0.03625638963978759 -0.06329372195147459 0  -0.03627204387618492 -0.06172808081227613 0  -0.03475873843657866 -0.06324156506234664 0  0.01439721346977286 -0.05583102001882564 0  0.01422104128432557 -0.0574728398015178 0  -0.04123325213729569 -0.04977742938180724 0  -0.04229970360231513 -0.05150309473625565 0  -0.04267707282590829 -0.05007751950731253 0  -0.03540046447454039 -0.05174997538409749 0  -0.03593530277956502 -0.05378398284441666 0  -0.0368728613793078 -0.05195415959969768 0  -0.03333335481254267 -0.05633735472828818 0  -0.03198050037053014 -0.05611098325631581 0  -0.03322753170044795 -0.05500012028855297 0  -0.03969267205397397 -0.04450107246028451 0  -0.03852757389427703 -0.04665666493922895 0  -0.0378169977058336 -0.04487993423739384 0  -0.04024433245980837 -0.05148967613615939 0  -0.006315940723374573 -0.05930905927662544 0  -0.006818132723183277 -0.05716888666069714 0  -0.004760658602505579 -0.05781510592441898 0  -0.01506155066908195 -0.06265730892296595 0  -0.01624188870473453 -0.06128649604741916 0  -0.01410738797557291 -0.06163287547965644 0  -0.01543676622175152 -0.05764123715386302 0  -0.01708984054418851 -0.05920016068972921 0  -0.0270349353787649 -0.0519910321998235 0  -0.02827478243375398 -0.05346223359486457 0  -0.03134471120132367 -0.05906217432111517 0  -0.02981756157736552 -0.05834495495195317 0  -0.03203978345072137 -0.0574813644810117 0  -0.03978145327372433 -0.06138564745740099 0  0.006734928674614752 -0.05146463867314664 0  0.008637288779891891 -0.05258740018528525 0  0.00688671743750553 -0.05338047456655459 0  0.01132326291384637 -0.05562964572743351 0  0.01288299677436642 -0.05538292627510294 0  -0.02844810693838604 -0.03529440998727736 0  -0.0282840145203564 -0.03722042418493871 0  -0.02741121811358063 -0.03617606647412757 0  -0.02787221863249389 -0.04050912559888084 0  -0.02706591328673005 -0.04152970640829271 0  -0.02868111738535834 -0.04149984328948978 0  -0.01562499999999999 -0.04739583333333333 0  -0.01432291666666666 -0.04609375 0  -0.01432291666666666 -0.04739583333333333 0  -0.02299098630487812 -0.04174997663113473 0  -0.0214381564438239 -0.04167905004622655 0  -0.002966979231171331 -0.05174252990113383 0  -0.
[...]
<PointData  Vectors="displacement"> 
<DataArray  type="Float64"  Name="displacement"  NumberOfComponents="3" format="ascii">4.7055953622131166e-11 5.9417796611694600e-02 0.0000000000000000e+00  2.1513625087732709e-11 5.9202420407866774e-02 0.0000000000000000e+00  -2.3249160453476449e-12 6.0308634499458010e-02 0.0000000000000000e+00  -1.8774664314118659e-27 5.2038433915521577e-02 0.0000000000000000e+00  -1.0192100110625833e-11 5.2692195396123284e-02 0.0000000000000000e+00  -1.1810874333375917e-27 5.3773048403171576e-02 0.0000000000000000e+00  2.9587137336510011e-11 5.7689357420962130e-02 0.0000000000000000e+00  -5.4167630419619310e-11 5.9250525542497892e-02 0.0000000000000000e+00  1.1165365553647615e-12 4.7110319986849919e-02 0.0000000000000000e+00  -8.8151356106155237e-12 4.7874262652765745e-02 0.0000000000000000e+00  1.2349285658979715e-11 4.6140224127848357e-02 0.0000000000000000e+00  6.5603457760866247e-14 4.5068834151090822e-02 0.0000000000000000e+00  -2.3180031878729949e-12 4.3295934904796420e-02 0.0000000000000000e+00  -3.5959774494984142e-12 4.5037954430559746e-02 0.0000000000000000e+00  9.0999821599296104e-11 4.6961493280672943e-02 0.0000000000000000e+00  -1.3864726460360204e-11 4.7280615386285141e-02 0.0000000000000000e+00  -3.5468965332685599e-10 4.5533470851132865e-02 0.0000000000000000e+00  2.0422379910765448e-11 5.7544724685313638e-02 0.0000000000000000e+00  4.1520926992286917e-11 5.5737868063492089e-02 0.0000000000000000e+00  -2.9446529128522618e-11 5.5868340964563522e-02 0.0000000000000000e+00  1.3934257062755588e-11 5.9072826894840336e-02 0.0000000000000000e+00  -1.4248967585096000e-11 5.7298762801798117e-02 0.0000000000000000e+00  -1.0487135553036189e-12 5.9844198994472068e-02 0.0000000000000000e+00  -7.3070652879648735e-12 5.2605647136555390e-02 0.0000000000000000e+00  -2.0504433329164535e-12 5.4785014607962146e-02 0.0000000000000000e+00  4.5294598976460188e-12 5.3815758483140054e-02 0.0000000000000000e+00  -6.7328696473422303e-12 4.0622298260086433e-02 0.0000000000000000e+00  -1.0919641712756391e-11 4.2886794465245646e-02 0.0000000000000000e+00  5.4863448041654200e-12 4.0612980513068858e-02 0.0000000000000000e+00  1.1835966256563016e-12 6.8318359210514157e-02 0.0000000000000000e+00  7.2514678728387289e-12 6.5813353590990151e-02 0.0000000000000000e+00  2.1907434001849460e-11 6.6528572460395730e-02 0.0000000000000000e+00  4.7553518163669294e-12 7.3727940186892313e-02 0.0000000000000000e+00  1.5291070973470018e-11 7.5710340948501473e-02 0.0000000000000000e+00  -2.5805339030926950e-12 7.3802475861183214e-02 0.0000000000000000e+00  -2.4593983027854103e-11 7.2699920697427617e-02 0.0000000000000000e+00  1.7683661004292764e-11 7.4348651182680706e-02 0.0000000000000000e+00  1.8433409122652204e-11 7.4497428267286780e-02 0.0000000000000000e+00  2.5836121186765800e-11 5.6506584820658019e-02 0.0000000000000000e+00  -1.1850029293256908e-11 5.4859089218750864e-02 0.0000000000000000e+00  4.5942731582198426e-12 5.6183706464834872e-02 0.0000000000000000e+00  -4.2810159317549333e-12 6.1841221090518574e-02 0.0000000000000000e+00  2.7868792772119879e-12 6.1100832194604958e-02 0.0000000000000000e+00  -4.7081651460150022e-12 6.3254329709567139e-02 0.0000000000000000e+00  -6.1982714579863049e-11 7.5744831572727142e-02 0.0000000000000000e+00  -4.7426242087201023e-12 7.5333527032031167e-02 0.0000000000000000e+00  8.1518006773120061e-11 7.4596413199874020e-02 0.0000000000000000e+00  -3.9082193351092252e-12 4.3916856273760525e-02 0.0000000000000000e+00  2.5263102208271619e-12 4.5375877690252510e-02 0.0000000000000000e+00  -3.8122665474645044e-11 4.5365859897181164e-02 0.0000000000000000e+00  4.9938597707698248e-12 4.3421007603998578e-02 0.0000000000000000e+00  1.1393725779541931e-11 4.2402668155776063e-02 0.0000000000000000e+00  6.1630258546233046e-12 4.3847792827129660e-02 0.0000000000000000e+00  1.5794467013503844e-11 6.1025520915886221e-02 0.0000000000000000e+00  2.9436028691471331e-11 6.0961968667644799e-02 0.0000000000000000e+00  7.4268361898883856e-11 6.2164263726948388e-02 0.0000000000000000e+00  -1.5841355726841414e-11 7.6588047000627782e-02 0.0000000000000000e+00  -4.6208701048197405e-11 7.7611951321935255e-02 0.0000000000000000e+00  5.9622704014838968e-11 7.8142632846855090e-02 0.0000000000000000e+00  6.9127473874862484e-13 4.4372436433641214e-02 0.0000000000000000e+00  -1.7338727029131572e-12 4.5830831485106679e-02 0.0000000000000000e+00  -4.3952918737723988e-12 4.3998019014875864e-02 0.0000000000000000e+00  9.1293736517661651e-12 4.4936462848711861e-02 0.0000000000000000e+00  9.8507124934992824e-12 4.5307266750910964e-02 0.0000000000000000e+00  -1.4118686123257520e-11 4.6562413057516940e-02 0.0000000000000000e+00  5.7632842824902300e-12 6.7102909735969760e-02 0.0000000000000000e+00  4.4101491617752905e-12 6.8295559100027298e-02 0.0000000000000000e+00  1.1022703095569211e-11 6.8113613330333195e-02 0.0000000000000000e+00  -1.2856775013706724e-11 6.1289711044792847e-02 0.0000000000000000e+00  -5.8260576903679977e-12 6.1148035282417974e-02 0.0000000000000000e+00  4.6084115226597432e-11 6.2994614100371563e-02 0.0000000000000000e+00  -4.8744838897726788e-11 5.1286041752359818e-02 0.0000000000000000e+00  5.2241329675137113e-12 5.0319686278109718e-02 0.0000000000000000e+00  2.5777012897692590e-13 5.2259151214945516e-02 0.0000000000000000e+00  -2.8374452926773439e-12 5.1851638292216201e-02 0.0000000000000000e+00  2.6727893082830267e-11 5.3812770798317845e-02 0.0000000000000000e+00  -1.0349379801164110e-11 5.3391892106616427e-02 0.0000000000000000e+00  -1.3578582436392548e-11 5.6506146326055093e-02 0.0000000000000000e+00  1.7192301301075317e-11 5.4298321681639825e-02 0.0000000000000000e+00  -4.2616765956149163e-11 5.5572664006729604e-02 0.0000000000000000e+00  3.5509785588352038e-11 6.7379057646938162e-02 0.0000000000000000e+00  -2.4945045694081201e-11 6.8219559217648371e-02 0.0000000000000000e+00  -2.5700792531442370e-11 6.6606130388953730e-02 0.0000000000000000e+00  -6.6860113562188453e-11 5.5651262869735874e-02 0.0000000000000000e+00  1.3749677836219860e-11 5.5566101655749205e-02 0.0000000000000000e+00  -7.7194745501105843e-12 5.9243181916363283e-02 0.0000000000000000e+00  1.7547305077138126e-11 5.6876068589051539e-02 0.0000000000000000e+00  1.0095834566877651e-12 5.7737252533222781e-02 0.0000000000000000e+00  -1.7232396290084520e-11 7.1693589831625937e-02 0.0000000000000000e+00  -1.5854787104164248e-12 7.0014984529690766e-02 0.0000000000000000e+00  -1.0963225307002161e-11 7.1252295506084529e-02 0.0000000000000000e+00  6.1860640186902852e-12 3.7537368105353353e-02 0.0000000000000000e+00  6.9628746063031967e-12 3.8644443129786217e-02 0.0000000000000000e+00  1.4241672647179159e-11 3.9095910123687128e-02 0.0000000000000000e+00  -1.2843075647499868e-12 4.3943566423443103e-02 0.0000000000000000e+00  1.6412650641013812e-11 4.2974699482994962e-02 0.0000000000000000e+00  7.1369820254660186e-12 4.5047877118812585e-02 0.0000000000000000e+00  -6.1310871206308868e-12 4.4033142143361605e-02 0.0000000000000000e+00  3.8023840571410516e-12 4.2057564624564850e-02 0.0000000000000000e+00  7.3168346694670821e-12 4.1859652705782936e-02 0.0000000000000000e+00  3.3150158453771499e-12 4.3732651993721255e-02 0.0000000000000000e+00  -3.1974352010653054e-12 4.6821348508167514e-02 0.0000000000000000e+00  -4.7693091172711130e-11 4.5439581817658871e-02 0.0000000000000000e+00  -1.6624575962000038e-11 4.8041393399445936e-02 0.0000000000000000e+00  1.3749459219621000e-10 4.4411508300566387e-02 0.0000000000000000e+00  -2.9996488368729359e-10 4.5461320236227828e-02 0.0000000000000000e+00  -3.6869722605114292e-12 6.1731479546066392e-02 0.0000000000000000e+00  3.4741161617025360e-11 5.9604782221473397e-02 0.0000000000000000e+00  -4.9063745821351070e-11 6.0819150102732339e-02 0.0000000000000000e+00  3.1408572155528470e-12 6.5910508859609002e-02 0.0000000000000000e+00  1.4799121985104072e-12 6.7600084459885107e-02 0.0000000000000000e+00  -1.6514136801757248e-11 6.7993999486267595e-02 0.0000000000000000e+00  -2.5960997238657750e-11 4.9652447775175294e-02 0.0000000000000000e+00  2.0993274306889442e-11 4.8675464399793950e-02 0.0000000000000000e+00  -2.5154297426392197e-11 5.8035069746716912e-02 0.0000000000000000e+00  -1.7706383121528689e-11 5.8487416738449108e-02 0.0000000000000000e+00  1.8694670624111694e-12 5.9435030460751367e-02 0.0000000000000000e+00  -3.4243324871801755e-11 5.9994703718438215e-02 0.0000000000000000e+00  -5.0633369936395914e-12 5.8210230157149621e-02 0.0000000000000000e+00  3.9645780008384579e-12 4.5584574102292996e-02 0.0000000000000000e+00  1.4949839196890016e-11 6.7071759231793149e-02 0.0000000000000000e+00  -1.5979940654798819e-11 6.6235549433538904e-02 0.0000000000000000e+00  2.7002888278519409e-11 6.8517271324584891e-02 0.0000000000000000e+00  5.7638547222416841e-12 7.2857979450284993e-02 0.0000000000000000e+00  -7.7195380987274232e-12 7.1959748598992956e-02 0.0000000000000000e+00  -1.5401165513645631e-11 7.1269555537593801e-02 0.0000000000000000e+00  6.1921949651159192e-12 5.2616638726937039e-02 0.0000000000000000e+00  -9.1311324674247610e-12 5.1171126693612429e-02 0.0000000000000000e+00  -1.0889383181371862e-12 5.2616638720091514e-02 0.0000000000000000e+00  -1.0754133113364111e-11 5.0709522952103139e-02 0.0000000000000000e+00  1.0622314743332464e-12 5.1811528419640741e-02 0.0000000000000000e+00  1.2029550940707226e-11 4.9595106618787910e-02 0.0000000000000000e+00  2.6738998168840775e-12 5.4062150805850688e-02 0.0000000000000000e+00  3.9865115484339308e-11 7.0373892305123170e-02 0.0000000000000000e+00  2.1927419297910114e-11 7.0312070378325375e-02 0.0000000000000000e+00  -1.0872904268842782e-11 6.8433562027807329e-02 0.0000000000000000e+00  -8.4879911981857586e-12 4.2695371894805323e-02 0.0000000000000000e+00  8.4891616374188077e-12 4.6848012869718479e-02 0.0000000000000000e+00  7.2265127306318209e-12 4.7372740613679000e-02 0.0000000000000000e+00  -3.7680134861464072e-12 4.5764397937691596e-02 0.0000000000000000e+00  -4.9276069890650060e-11 6.9384578526280563e-02 0.0000000000000000e+00  -3.8969630526223408e-11 7.0197070174802784e-02 0.0000000000000000e+00  1.1004708961209905e-10 7.0897703404897164e-02 0.0000000000000000e+00  2.4858217519957381e-11 6.6126381216216612e-02 0.0000000000000000e+00  2.2858965419859495e-11 6.8101506246969451e-02 0.0000000000000000e+00  -5.0492248117888686e-11 6.7880562129186015e-02 0.0000000000000000e+00  4.4311437239185280e-11 7.6283765353480346e-02 0.0000000000000000e+00  3.4735727694094189e-11 7.7819875216704776e-02 0.0000000000000000e+00  -8.5610342284620692e-11 7.6054894566700004e-02 0.0000000000000000e+00  7.5381347254940827e-12 7.3794072735707456e-02 0.0000000000000000e+00  3.8611525178675857e-12 7.4408724304017140e-02 0.0000000000000000e+00  -3.7874755675327496e-12 6.0669957580583113e-02 0.0000000000000000e+00  1.8311281996990393e-11 6.3315715148849441e-02 0.0000000000000000e+00  -3.2898500762035962e-11 6.2059223303916229e-02 0.0000000000000000e+00  -2.5339940795695490e-12 5.5428650503775934e-02 0.0000000000000000e+00  1.3636297096285230e-11 5.7519133802665226e-02 0.0000000000000000e+00  -3.9304296289466816e-11 5.6536447633271647e-02 0.0000000000000000e+00  1.6396829402519495e-12 3.8611440255225338e-02 0.0000000000000000e+00  -6.2201382821864866e-12 3.9525252728464876e-02 0.0000000000000000e+00  7.2557986179392621e-12 3.8005478922342378e-02 0.0000000000000000e+00  -5.5761220876033389e-12 4.1696857969286766e-02 0.0000000000000000e+00  4.3692694123732633e-12 4.3428490969771250e-02 0.0000000000000000e+00  -5.7020938420700794e-12 4.2107989149523656e-02 0.0000000000000000e+00  3.7584352603460400e-11 5.7772962731374708e-02 0.0000000000000000e+00  -8.6178793642534436e-12 5.7058119810507978e-02 0.0000000000000000e+00  -7.2479106739781865e-11 5.9229860301084430e-02 0.0000000000000000e+00  3.9761064729272123e-12 5.2616638727612741e-02 0.0000000000000000e+00  9.3758260091078015e-12 5.1171126681216171e-02 0.0000000000000000e+00  -2.2717526483816716e-11 5.2616638742677697e-02 0.0000000000000000e+00  -1.3481922920193142e-12 5.9206028113541448e-02 0.0000000000000000e+00  5.9948444216800242e-12 6.9866430975856667e-02 0.0000000000000000e+00  1.4789429410905609e-11 4.0749594111612539e-02 0.0000000000000000e+00  4.8470855260958567e-12 4.2487695723004572e-02 0.0000000000000000e+00  1.7520110614953556e-12 4.0807496271888767e-02 0.0000000000000000e+00  -1.4524905491966351e-11 4.9034336883236683e-02 0.0000000000000000e+00  -1.4208687313370113e-10 4.7211665448833796e-02 0.0000000000000000e+00  -4.4794689257133220e-12 5.5754750347995270e-02 0.0000000000000000e+00  1.3361538738640796e-11 5.3838997309157373e-02 0.0000000000000000e+00  -2.6889829867401230e-12 5.5421604229553029e-02 0.0000000000000000e+00  1.6493397241849554e-11 5.3564921945313322e-02 0.0000000000000000e+00  -9.6655415052010860e-12 5.1306861979695438e-02 0.0000000000000000e+00  2.8806647393539301e-11 5.3338246263509283e-02 0.0000000000000000e+00  -6.2754318365425472e-12 4.8472227844602873e-02 0.0000000000000000e+00  3.4985341368867448e-11 4.8723534872124538e-02 0.0000000000000000e+00  6.4305454792551428e-12 4.9956762999210709e-02 0.0000000000000000e+00  -4.2886395631542051e-11 6.1612315110672042e-02 0.0000000000000000e+00  8.6592286797423156e-13 5.9219277164413983e-02 0.0000000000000000e+00  -3.3179058573484643e-11 6.1191720504515816e-02 0.0000000000000000e+00  7.3524181288969303e-12 5.3853894028898446e-02 0.0000000000000000e+00  1.2731377902735759e-12 4.5173180365017725e-02 0.0000000000000000e+00  -1.9398950210012185e-12 4.7549099957949481e-02 0.0000000000000000e+00  -8.5043058598909400e-12 4.6831697526358060e-02 0.0000000000000000e+00  -9.6027740559304696e-12 4.1456110111841450e-02 0.0000000000000000e+00  -1.6028243314134127e-12 4.2977922501002096e-02 0.0000000000000000e+00  -3.1707286604362944e-12 4.2593388231840196e-02 0.0000000000000000e+00  -7.4345239787228427e-13 4.7024718527486950e-02 0.0000000000000000e+00  -3.6797825674901596e-13 4.5294074475815502e-02 0.0000000000000000e+00  2.8592690971866406e-11 5.3297312005105520e-02 0.0000000000000000e+00  1.1136168871840571e-11 5.1664052927633902e-02 0.0000000000000000e+00  -6.9029409859487442e-13 4.5447260491910252e-02 0.0000000000000000e+00  3.1079151032703219e-12 4.6243483906486908e-02 0.0000000000000000e+00  1.4364764546916340e-11 4.7202201698080710e-02 0.0000000000000000e+00  9.0557136783722995e-12 4.2867849238521209e-02 0.0000000000000000e+00  1.5486518183733787e-12 5.3881689429987160e-02 0.0000000000000000e+00  -1.7894207690702129e-11 5.2635252120347080e-02 0.0000000000000000e+00  -3.1969246469961830e-11 5.1754817955244364e-02 0.0000000000000000e+00  -6.6672214450872409e-11 4.9257893336247298e-02 0.0000000000000000e+00  1.2224163108223062e-10 4.9531789819420059e-02 0.0000000000000000e+00  -1.2730072374503543e-11 7.1833121434912287e-02 0.0000000000000000e+00  2.5452092205020304e-11 6.9694950600408326e-02 0.0000000000000000e+00  1.5773323050136735e-11 7.0854347691054698e-02 0.0000000000000000e+00  1.7859483077897003e-11 6.6043987956669312e-02 0.0000000000000000e+00  3.6211920481786863e-11 6.4910986832943704e-02 0.0000000000000000e+00  3.1640372444355417e-11 6.4944139484157920e-02 0.0000000000000000e+00  -2.8970532453632745e-12 5.8398686934424099e-02 0.0000000000000000e+00  2.0978210074298807e-13 5.9844198988499277e-02 0.0000000000000000e+00  -2.0898969420474901e-11 5.8398686953965655e-02 0.0000000000000000e+00  -4.1709972488855873e-12 6.4666453178900185e-02 0.0000000000000000e+00  -1.9964180509817268e-11 6.4745192567322807e-02 0.0000000000000000e+00  1.7773103716954894e-11 5.3573187589567958e-02 0.0000000000000000e+00  -1.0560907315561481e-11 5.5447143424691855e-02 0.0000000000000000e+00  -6.1559452523290727e-13 4.4767651909742891e-02 0.0000000000000000e+00  3.0438942600958331e-11 4.5317285071115709e-02 0.0000000000000000e+00  1.2057927794818983e-11 5.8365072518926031e-02 0.0000000000000000e+00  7.2454096309823298e-12 5.6955029295839205e-02 0.0000000000000000e+00  5.9680987612071713e-12 5.8523757903120387e-02 0.0000000000000000e+00  1.4649973496214867e-11 5.4062150774138437e-02 0.0000000000000000e+00  -5.9425260035766686e-12 5.5507662836291612e-02 0.0000000000000000e+00  -7.7191398411218023e-12 5.4062150781621389e-02 0.0000000000000000e+00  -3.0000320803743092e-12 4.4820786043021955e-02 0.0000000000000000e+00  1.6983060419810021e-11 4.3934276131386341e-02 0.0000000000000000e+00  2.2621433412367434e-12 5.4484398254249063e-02 0.0000000000000000e+00  -1.0059383030689767e-11 5.1978983012717299e-02 0.0000000000000000e+00  1.5627930410232043e-11 5.2911378048154413e-02 0.0000000000000000e+00  1.5084017478590879e-11 5.6953174895181036e-02 0.0000000000000000e+00  -1.1789128479441881e-11 5.6953174889105750e-02 0.0000000000000000e+00  -9.9783175685233241e-12 5.5507662836430036e-02 0.0000000000000000e+00  2.4722251795886066e-12 5.4062150777618008e-02 0.0000000000000000e+00  2.4804970976059094e-11 7.2853807477526358e-02 0.0000000000000000e+00  -1.4163046537925601e-11 7.4489723011464559e-02 0.0000000000000000e+00  -1.9074578330192356e-11 7.2853807410310764e-02 0.0000000000000000e+00  1.4373933807028834e-11 6.9962783367265191e-02 0.0000000000000000e+00  -6.3456995758807503e-12 6.8517271333269306e-02 0.0000000000000000e+00  -8.8101843248780914e-12 6.9962783327053954e-02 0.0000000000000000e+00  8.9670903759663737e-12 7.1408295405477523e-02 0.0000000000000000e+00  3.5951307348258245e-11 7.0563660236142370e-02 0.0000000000000000e+00  1.7595203350240607e-11 6.3811848173017063e-02 0.0000000000000000e+00  1.2293886509452294e-12 5.0369839746510367e-02 0.0000000000000000e+00  1.4995868507358072e-11 4.9549285404907405e-02 0.0000000000000000e+00  3.6993087823125198e-12 4.6546760339066511e-02 0.0000000000000000e+00  4.1625761579461757e-12 4.4392750258115274e-02 0.0000000000000000e+00  3.1464361094847435e-12 6.2568912186872369e-02 0.0000000000000000e+00  4.7906005575874599e-11 6.2532048918532201e-02 0.0000000000000000e+00  -3.5958644973343708e-11 6.4040389582271887e-02 0.0000000000000000e+00  -1.0866082703941630e-11 6.5799771460735554e-02 0.0000000000000000e+00  2.9280226768452969e-11 6.3878461390405719e-02 0.0000000000000000e+00  7.9887992098065388e-11 6.4589262484369483e-02 0.0000000000000000e+00  3.4239247692121277e-11 6.7328503552263178e-02 0.0000000000000000e+00  -6.4806809881371922e-11 5.7955212450058580e-02 0.0000000000000000e+00  -6.0424569140273292e-11 5.8196669126366424e-02 0.0000000000000000e+00  -1.4004071328474833e-11 5.7823011074532915e-02 0.0000000000000000e+00  7.8455031330420915e-11 5.6792103229561769e-02 0.0000000000000000e+00  8.0072051740443962e-12 6.3106582044168358e-02 0.0000000000000000e+00  7.3479022284497106e-12 6.4606512387232209e-02 0.0000000000000000e+00  -1.0723548506635547e-11 6.2465575755966687e-02 0.0000000000000000e+00  -2.0173634635218166e-11 5.8884986032330375e-02 0.0000000000000000e+00  9.4476385607111557e-11 6.0320538853094928e-02 0.0000000000000000e+00  1.9084170258071905e-11 6.9608450482106538e-02 0.0000000000000000e+00  6.6583958179903366e-12 6.9554084130592331e-02 0.0000000000000000e+00  -3.3358853239975046e-13 5.9633071826258148e-02 0.0000000000000000e+00  2.4798079406986967e-12 6.2057601519590048e-02 0.0000000000000000e+00  1.5292421602722069e-11 6.0219881938967740e-02 0.0000000000000000e+00  -2.4538811296617560e-12 5.7665952114831116e-02 0.0000000000000000e+00  1.7140089535916830e-11 5.8397570987837696e-02 0.0000000000000000e+00  -1.2584797870232945e-11 4.3310135269389316e-02 0.0000000000000000e+00  -8.9156162287427097e-12 4.0822927947123125e-02 0.0000000000000000e+00  -1.5369630402706123e-12 4.2160384515736518e-02 0.0000000000000000e+00  2.0021610618365009e-10 6.8819837413755899e-02 0.0000000000000000e+00  -3.7610932722658191e-13 6.8660695949190526e-02 0.0000000000000000e+00  6.9495686658176771e-12 6.6185969186351737e-02 0.0000000000000000e+00  1.6694906275598406e-11 6.7955671175891588e-02 0.0000000000000000e+00  4.9397290401971682e-13 6.9579540669840914e-02 0.0000000000000000e+00  1.21