<?xml version="1.0"?>
<VTKFile type="UnstructuredGrid"  version="0.1"  >
<UnstructuredGrid>
<Piece  NumberOfPoints="854" NumberOfCells="1596">
<Points>
<DataArray  type="Float64"  NumberOfComponents="3"  format="ascii">-0.02781678701797331 -0.04647784327427693 0  -0.02538422566144643 -0.04667184908299045 0  -0.02652877195264674 -0.04567539734737942 0  -0.05 -0.05312500000000001 0  -0.04811912640459025 -0.05253610701182041 0  -0.05 -0.0515625 0  -0.02899502477229902 -0.04803478075179329 0  -0.02923548165964452 -0.04662851706305639 0  -0.02249350916210405 -0.05756412936044115 0  -0.0203195083958392 -0.05687598774678908 0  -0.02095870557061441 -0.05843796894332276 0  -0.0441628656802633 -0.05940305190338293 0  -0.04541256861990934 -0.06100003793299257 0  -0.04614292548179974 -0.05943086762223604 0  0.01017345837010273 -0.05769818894326342 0  0.01257096511573747 -0.05741073122222133 0  0.01199697692997241 -0.058984518130708 0  0.01470753125203114 -0.04816506250406229 0  0.01581567795051093 -0.04979263651326838 0  0.01423898291326179 -0.04967510961170915 0  -0.02086032995459787 -0.04678858387113149 0  -0.0199341123853538 -0.04838661920330159 0  -0.01931431280249884 -0.04609375 0  -0.001680304984140507 -0.05261406763445607 0  -0.001860837244262322 -0.05065094456623151 0  -0.0005909679910356918 -0.05152402771642645 0  -0.005203169869815907 -0.063408387077611 0  -0.005795874220342064 -0.06136858202269977 0  -0.007169687901432507 -0.06341678026929995 0  0.006028532990060553 -0.03846042534778643 0  0.006689526301856015 -0.04071687560886686 0  0.00470687896267873 -0.04007262327868574 0  0.007681421014797305 -0.0335876017633407 0  0.007398918941703169 -0.03180190167941388 0  0.009257982989763691 -0.03352046177391386 0  -0.002501899107215252 -0.03451361758785813 0  -0.003994222433335283 -0.03302847981728372 0  -0.00237569780992264 -0.03289446498059487 0  -0.03834537706133037 -0.04910019455252918 0  -0.03893084400845775 -0.0505842199270596 0  -0.03978172746268 -0.04939103576868267 0  -0.02961483445283294 -0.04429487938443922 0  -0.03136339580500359 -0.04496180428920909 0  -0.0303747380627551 -0.04302198425974124 0  -0.02007378472222222 -0.03177083333333333 0  -0.02239389172413698 -0.03214132682270486 0  -0.02109822763807408 -0.03280530166237346 0  2.405987640392848e-05 -0.0604407265430706 0  0.001342218073462028 -0.05912647428938291 0  3.695705182295165e-05 -0.05913549804748571 0  -0.03283032834564539 -0.06088737538203123 0  -0.03433327775466556 -0.0618046716509543 0  -0.03409636453940582 -0.0605029372505023 0  -0.04413627809979717 -0.04502964300775884 0  -0.04604771420796538 -0.04508688933511684 0  -0.0453151101858084 -0.04400389013742394 0  -0.01746961805555555 -0.03101128472222222 0  -0.01915147569444444 -0.03008897569444444 0  -0.01783316571178066 -0.02961095015928098 0  -0.01494018809894989 -0.06003035061353305 0  -0.0139058884867534 -0.05871666257001249 0  -0.01350821235199411 -0.060367617048519 0  -0.02618825764425157 -0.05952228886785037 0  -0.02772777262491462 -0.05918827740577445 0  -0.02679509387602945 -0.05805767104796359 0  -0.007626619839192271 -0.03955527372186517 0  -0.008951299015395937 -0.03848096315329933 0  -0.006518133045618423 -0.03864485562360071 0  -0.02267804660897878 -0.04479166666666666 0  -0.02081249562573519 -0.04491928487043712 0  -0.02268977356564392 -0.04325592999463841 0  -0.03383223677127735 -0.05380273720232678 0  -0.03489161592695806 -0.0546732075058699 0  -0.03481246927755723 -0.05292618308003903 0  -0.02991071428571428 -0.05329326110353833 0  -0.03053860460529459 -0.05152671902895579 0  -0.02880624554896211 -0.05190583657473875 0  0.003880552158806201 -0.04910058949648512 0  0.004639589519810899 -0.05108934613081326 0  0.005570108460811736 -0.0499414484761177 0  -0.02327795588347301 -0.03930652618770811 0  -0.02486310391344979 -0.03854942208631368 0  -0.02458387340884331 -0.04000276088388564 0  -0.02965977176321958 -0.04987064838119242 0  -0.03151498146247666 -0.0499473597007698 0  -0.005208333333333331 -0.04663513209089385 0  -0.004696030535063632 -0.0487673722035586 0  -0.006160787771090825 -0.04799163790095413 0  0.002256955057953323 -0.03542009683155154 0  0.002478844003272855 -0.03693214507778883 0  0.0009942345205310021 -0.03581760440233908 0  -0.03955829636164478 -0.06618721975980241 0  -0.03751342210215539 -0.06518999255878076 0  -0.03914413830697622 -0.06478332168464747 0  -0.03541666666666667 -0.06041666666666666 0  -0.03777505276601351 -0.0612893992546924 0  -0.03774064596242072 -0.05942192948826657 0  -0.03882629768826652 -0.06033597897025076 0  -0.02991071428571428 -0.06211553281168236 0  -0.03170383056757221 -0.06229380722247076 0  -0.0306656133500556 -0.06060665342614047 0  0.002672434464373351 -0.05782442806434116 0  0.004205271826810189 -0.05906909110223223 0  0.003621073244015077 -0.05672544031758242 0  0.01066098305406274 -0.05999515557027461 0  0.009461554335003694 -0.05904950974817084 0  0.0004382181809313461 -0.04439373199081217 0  0.0007479406588227182 -0.04630941102478892 0  0.001434473698376028 -0.04521553686097385 0  0.009039169047364189 -0.04062936042476101 0  0.007849009582011639 -0.03910743039857202 0  0.009507271836584152 -0.03875260097857094 0  0.003579743803523502 -0.05527424030410576 0  0.00495579046143639 -0.05615428398934548 0  0.007184194424042271 -0.04772337119454249 0  0.009116470808511714 -0.04731590763080268 0  0.007927373114962557 -0.04646231940317579 0  -0.003294269781653621 -0.04595817884714862 0  -0.003588698982274615 -0.04756559079455246 0  -0.01934692347958504 -0.05893848545414168 0  -0.02083333333333332 -0.03958333333333333 0  -0.02215660612617937 -0.04033657149359295 0  -0.02121677367915418 -0.03828125 0  -0.005615842898686297 -0.03437124196063728 0  -0.007416067229776028 -0.03518034726825829 0  -0.006054704616810422 -0.03580205691967763 0  -0.01302083333333333 -0.05260416666666667 0  -0.01171875 -0.05390625 0  -0.01171875 -0.05260416666666666 0  -0.01770064247689481 -0.05432205180650591 0  -0.01897546044124709 -0.05332939113838762 0  -0.0187022681159755 -0.05532589189681572 0  -0.01302083333333333 -0.05130208333333334 0  -0.004157923962185587 -0.03660884936063957 0  -0.002121340039484437 -0.0366645371443241 0  -0.003389459586812602 -0.03835665334840834 0  -0.007913035375586628 -0.0615410109990858 0  -0.03681366160742916 -0.05780040947227882 0  -0.03472060866939086 -0.05732774700086921 0  -0.03549333970893096 -0.05877650436040723 0  -0.03690476190476191 -0.03750000000000001 0  -0.03847177245354389 -0.0367681266259752 0  -0.03638515588252184 -0.0361370125666952 0  -0.03619427440804578 -0.04043490771729352 0  -0.03451268287663042 -0.03865576143836598 0  -0.03608409179926118 -0.03885478264740441 0  -0.005175004679933259 -0.03128537442936601 0  -0.003579275799392356 -0.02990168269634324 0  -0.003587402364175357 -0.03149153588773727 0  0.003782179117330453 -0.03352803109814534 0  0.001800461004723053 -0.0329743674150207 0  0.009302575519085478 -0.04534992603921641 0  0.009513501161241235 -0.04296668972212099 0  0.01124108542315425 -0.04409850809919492 0  0.01270832488148558 -0.05007117248908488 0  0.01282123189459499 -0.04818811416515179 0  0.01182500023256633 -0.04907329480983055 0  -0.04283499587290376 -0.06521972076452692 0  -0.04477892619379116 -0.06439657994007053 0  -0.04421236657091408 -0.06576555653762778 0  -0.04398521510889171 -0.06244044890584508 0  -0.04337105816452184 -0.06088063454299558 0  -0.04263792540377773 -0.0620701115857645 0  -0.04435012479767778 -0.04795947098448357 0  -0.04263708544801918 -0.04860338475299016 0  -0.04350328610589898 -0.04664713184197014 0  -0.01041666666666667 -0.05260416666666667 0  -0.009114583333333332 -0.05390625 0  -0.009114583333333337 -0.05260416666666667 0  -0.006602877926868728 -0.04666859936192611 0  -0.007999101390003741 -0.03706595863040997 0  -0.03625638963978759 -0.06329372195147459 0  -0.03627204387618492 -0.06172808081227613 0  -0.03475873843657866 -0.06324156506234664 0  0.01439721346977286 -0.05583102001882564 0  0.01422104128432557 -0.0574728398015178 0  -0.04123325213729569 -0.04977742938180724 0  -0.04229970360231513 -0.05150309473625565 0  -0.04267707282590829 -0.05007751950731253 0  -0.03540046447454039 -0.05174997538409749 0  -0.03593530277956502 -0.05378398284441666 0  -0.0368728613793078 -0.05195415959969768 0  -0.03333335481254267 -0.05633735472828818 0  -0.03198050037053014 -0.05611098325631581 0  -0.03322753170044795 -0.05500012028855297 0  -0.03969267205397397 -0.04450107246028451 0  -0.03852757389427703 -0.04665666493922895 0  -0.0378169977058336 -0.04487993423739384 0  -0.04024433245980837 -0.05148967613615939 0  -0.006315940723374573 -0.05930905927662544 0  -0.006818132723183277 -0.05716888666069714 0  -0.004760658602505579 -0.05781510592441898 0  -0.01506155066908195 -0.06265730892296595 0  -0.01624188870473453 -0.06128649604741916 0  -0.01410738797557291 -0.06163287547965644 0  -0.01543676622175152 -0.05764123715386302 0  -0.01708984054418851 -0.05920016068972921 0  -0.0270349353787649 -0.0519910321998235 0  -0.02827478243375398 -0.05346223359486457 0  -0.03134471120132367 -0.05906217432111517 0  -0.02981756157736552 -0.05834495495195317 0  -0.03203978345072137 -0.0574813644810117 0  -0.03978145327372433 -0.06138564745740099 0  0.006734928674614752 -0.05146463867314664 0  0.008637288779891891 -0.05258740018528525 0  0.00688671743750553 -0.05338047456655459 0  0.01132326291384637 -0.05562964572743351 0  0.01288299677436642 -0.05538292627510294 0  -0.02844810693838604 -0.03529440998727736 0  -0.0282840145203564 -0.03722042418493871 0  -0.02741121811358063 -0.03617606647412757 0  -0.02787221863249389 -0.04050912559888084 0  -0.02706591328673005 -0.04152970640829271 0  -0.02868111738535834 -0.04149984328948978 0  -0.01562499999999999 -0.04739583333333333 0  -0.01432291666666666 -0.04609375 0  -0.01432291666666666 -0.04739583333333333 0  -0.02299098630487812 -0.04174997663113473 0  -0.0214381564438239 -0.04167905004622655 0  -0.002966979231171331 -0.05174252990113383 0  -0.
[...]
<PointData  Vectors="displacement"> 
<DataArray  type="Float64"  Name="displacement"  NumberOfComponents="3" format="ascii">2.4834190244323525e-11 5.9417796603817977e-02 0.0000000000000000e+00  1.1338040398412419e-11 5.9202420411032491e-02 0.0000000000000000e+00  -1.3055452247409306e-12 6.0308634525206718e-02 0.0000000000000000e+00  -3.1291107190197767e-28 5.2038433912040216e-02 0.0000000000000000e+00  -5.3747644422357449e-12 5.2692195386980133e-02 0.0000000000000000e+00  -2.5309016428662684e-28 5.3773048388264959e-02 0.0000000000000000e+00  1.5592047540320063e-11 5.7689357403427767e-02 0.0000000000000000e+00  -2.8650546626334362e-11 5.9250525568512430e-02 0.0000000000000000e+00  5.3222995085589294e-13 4.7110319989188583e-02 0.0000000000000000e+00  -4.6741441109704123e-12 4.7874262649188787e-02 0.0000000000000000e+00  6.3772466259493394e-12 4.6140224130214513e-02 0.0000000000000000e+00  2.2843119226496702e-14 4.5068834146648459e-02 0.0000000000000000e+00  -1.2354216966395097e-12 4.3295934902542556e-02 0.0000000000000000e+00  -1.9188169595104044e-12 4.5037954430723712e-02 0.0000000000000000e+00  4.6897481383086923e-11 4.6961493294468817e-02 0.0000000000000000e+00  -7.1915670304216702e-12 4.7280615409671232e-02 0.0000000000000000e+00  -1.8282671806158128e-10 4.5533470813026347e-02 0.0000000000000000e+00  1.0578965101268078e-11 5.7544724678950020e-02 0.0000000000000000e+00  2.1428442386668776e-11 5.5737868074088710e-02 0.0000000000000000e+00  -1.5339887667793951e-11 5.5868340961279149e-02 0.0000000000000000e+00  7.4099401332392604e-12 5.9072826901763846e-02 0.0000000000000000e+00  -7.5648206622442393e-12 5.7298762791988860e-02 0.0000000000000000e+00  -6.5360095280879235e-13 5.9844198994383695e-02 0.0000000000000000e+00  -3.8106731472925960e-12 5.2605647136992485e-02 0.0000000000000000e+00  -1.1461410407598291e-12 5.4785014606732428e-02 0.0000000000000000e+00  2.3425900557359665e-12 5.3815758492237652e-02 0.0000000000000000e+00  -3.3888259586284711e-12 4.0622298257074765e-02 0.0000000000000000e+00  -5.6794111780804135e-12 4.2886794471786761e-02 0.0000000000000000e+00  2.8122861883094182e-12 4.0612980518783329e-02 0.0000000000000000e+00  6.2554190768721740e-13 6.8318359213370206e-02 0.0000000000000000e+00  3.7392310994180173e-12 6.5813353600310029e-02 0.0000000000000000e+00  1.1396198664700633e-11 6.6528572447279402e-02 0.0000000000000000e+00  2.5440296720067438e-12 7.3727940187577182e-02 0.0000000000000000e+00  7.7870199416082479e-12 7.5710340950012792e-02 0.0000000000000000e+00  -1.3976314636581068e-12 7.3802475863525285e-02 0.0000000000000000e+00  -1.2821916973526306e-11 7.2699920700907694e-02 0.0000000000000000e+00  9.1165515111005130e-12 7.4348651208990008e-02 0.0000000000000000e+00  9.5617883405835379e-12 7.4497428256368320e-02 0.0000000000000000e+00  1.3597795137401130e-11 5.6506584802979827e-02 0.0000000000000000e+00  -6.2932374774411963e-12 5.4859089200752741e-02 0.0000000000000000e+00  2.3938608537957559e-12 5.6183706462513826e-02 0.0000000000000000e+00  -2.2557587065325003e-12 6.1841221079207614e-02 0.0000000000000000e+00  1.4315548166615926e-12 6.1100832202591528e-02 0.0000000000000000e+00  -2.5725832933864158e-12 6.3254329721397981e-02 0.0000000000000000e+00  -3.3133036604038543e-11 7.5744831574948393e-02 0.0000000000000000e+00  -2.6997191874964102e-12 7.5333527028041580e-02 0.0000000000000000e+00  4.3393508853945871e-11 7.4596413196668404e-02 0.0000000000000000e+00  -2.0697173678188993e-12 4.3916856267657074e-02 0.0000000000000000e+00  1.2521685353641153e-12 4.5375877685616219e-02 0.0000000000000000e+00  -1.9608433440797237e-11 4.5365859911323428e-02 0.0000000000000000e+00  2.6247039540188592e-12 4.3421007601159155e-02 0.0000000000000000e+00  5.9737901753431639e-12 4.2402668156642349e-02 0.0000000000000000e+00  3.1744342005023396e-12 4.3847792834020662e-02 0.0000000000000000e+00  8.3340387899367796e-12 6.1025520878756116e-02 0.0000000000000000e+00  1.5545239760691061e-11 6.0961968654827232e-02 0.0000000000000000e+00  3.9197723852859460e-11 6.2164263726895548e-02 0.0000000000000000e+00  -8.4576112783432838e-12 7.6588046973082483e-02 0.0000000000000000e+00  -2.4595479488673541e-11 7.7611951317573799e-02 0.0000000000000000e+00  3.1678662971454480e-11 7.8142632879639018e-02 0.0000000000000000e+00  4.9180852832565972e-13 4.4372436434693477e-02 0.0000000000000000e+00  -9.1627536955970275e-13 4.5830831490112148e-02 0.0000000000000000e+00  -2.2558419017352473e-12 4.3998019009985789e-02 0.0000000000000000e+00  4.7523652104160610e-12 4.4936462843412114e-02 0.0000000000000000e+00  5.1474173843756294e-12 4.5307266750368287e-02 0.0000000000000000e+00  -7.5211668490707370e-12 4.6562413068058923e-02 0.0000000000000000e+00  2.9580128823827940e-12 6.7102909732189381e-02 0.0000000000000000e+00  2.3486149393517549e-12 6.8295559102402884e-02 0.0000000000000000e+00  5.6154470823690994e-12 6.8113613337403886e-02 0.0000000000000000e+00  -6.9486579422941793e-12 6.1289711045990493e-02 0.0000000000000000e+00  -3.1840953495736024e-12 6.1148035282613054e-02 0.0000000000000000e+00  2.4457029048197167e-11 6.2994614107308375e-02 0.0000000000000000e+00  -2.5764497920683866e-11 5.1286041749251603e-02 0.0000000000000000e+00  2.7161823015356563e-12 5.0319686290084632e-02 0.0000000000000000e+00  5.9258358381847159e-14 5.2259151188634299e-02 0.0000000000000000e+00  -1.5378523404173401e-12 5.1851638294012264e-02 0.0000000000000000e+00  1.4081801017104214e-11 5.3812770767587725e-02 0.0000000000000000e+00  -5.5417416934724617e-12 5.3391892129501788e-02 0.0000000000000000e+00  -7.0762499117253003e-12 5.6506146330310411e-02 0.0000000000000000e+00  8.8866018401704213e-12 5.4298321681087634e-02 0.0000000000000000e+00  -2.2149828970869271e-11 5.5572664003671959e-02 0.0000000000000000e+00  1.8831085883543553e-11 6.7379057631264089e-02 0.0000000000000000e+00  -1.3335661750495820e-11 6.8219559208114067e-02 0.0000000000000000e+00  -1.3753063717196366e-11 6.6606130393223162e-02 0.0000000000000000e+00  -3.5354638879487684e-11 5.5651262910541607e-02 0.0000000000000000e+00  7.2101202731339227e-12 5.5566101645909562e-02 0.0000000000000000e+00  -4.1513402497649382e-12 5.9243181910035532e-02 0.0000000000000000e+00  9.2634125583451678e-12 5.6876068593293957e-02 0.0000000000000000e+00  5.2166699746197968e-13 5.7737252546026449e-02 0.0000000000000000e+00  -8.9673670509447092e-12 7.1693589826152954e-02 0.0000000000000000e+00  -8.1712519369935086e-13 7.0014984532427105e-02 0.0000000000000000e+00  -5.8523496805867872e-12 7.1252295501179425e-02 0.0000000000000000e+00  3.1950087242940044e-12 3.7537368103730269e-02 0.0000000000000000e+00  3.6117410667985046e-12 3.8644443128376067e-02 0.0000000000000000e+00  7.4514666332219588e-12 3.9095910122926722e-02 0.0000000000000000e+00  -7.0635866795128196e-13 4.3943566417636123e-02 0.0000000000000000e+00  8.5929504717247694e-12 4.2974699484623423e-02 0.0000000000000000e+00  3.7050048067448893e-12 4.5047877123865869e-02 0.0000000000000000e+00  -3.2619896836894687e-12 4.4033142132356921e-02 0.0000000000000000e+00  1.9285324241380966e-12 4.2057564626027479e-02 0.0000000000000000e+00  3.8096644200969437e-12 4.1859652707690015e-02 0.0000000000000000e+00  1.6763610903498165e-12 4.3732651992702203e-02 0.0000000000000000e+00  -1.7038824766665424e-12 4.6821348522456251e-02 0.0000000000000000e+00  -2.4659433936056304e-11 4.5439581815284964e-02 0.0000000000000000e+00  -8.5024045311810691e-12 4.8041393382193473e-02 0.0000000000000000e+00  7.0856726864957045e-11 4.4411508313654320e-02 0.0000000000000000e+00  -1.5468126189768225e-10 4.5461320178395825e-02 0.0000000000000000e+00  -1.9399192071242409e-12 6.1731479535527704e-02 0.0000000000000000e+00  1.8212510860056941e-11 5.9604782213880270e-02 0.0000000000000000e+00  -2.5808236395725676e-11 6.0819150135098234e-02 0.0000000000000000e+00  1.6448226430962260e-12 6.5910508868054524e-02 0.0000000000000000e+00  8.0420226321049861e-13 6.7600084456222093e-02 0.0000000000000000e+00  -8.5407433387104675e-12 6.7993999487229201e-02 0.0000000000000000e+00  -1.3535073585840626e-11 4.9652447780023284e-02 0.0000000000000000e+00  1.0866719740977431e-11 4.8675464410416903e-02 0.0000000000000000e+00  -1.3059138011390128e-11 5.8035069732805575e-02 0.0000000000000000e+00  -9.1824954518113465e-12 5.8487416729635769e-02 0.0000000000000000e+00  9.9447628819759043e-13 5.9435030465744929e-02 0.0000000000000000e+00  -1.8016448029036276e-11 5.9994703733887642e-02 0.0000000000000000e+00  -2.7638125393531584e-12 5.8210230150380397e-02 0.0000000000000000e+00  2.2370435742223355e-12 4.5584574100470648e-02 0.0000000000000000e+00  7.9220934931889482e-12 6.7071759244703003e-02 0.0000000000000000e+00  -8.5476015608464693e-12 6.6235549447118305e-02 0.0000000000000000e+00  1.4374095590668130e-11 6.8517271318854489e-02 0.0000000000000000e+00  2.9856134552110745e-12 7.2857979460140609e-02 0.0000000000000000e+00  -4.4299225259368855e-12 7.1959748589039266e-02 0.0000000000000000e+00  -7.9972483106735391e-12 7.1269555560239825e-02 0.0000000000000000e+00  3.2575993659211279e-12 5.2616638727953371e-02 0.0000000000000000e+00  -4.8933462860024237e-12 5.1171126685527812e-02 0.0000000000000000e+00  -6.1679534951868973e-13 5.2616638724410456e-02 0.0000000000000000e+00  -5.7017760219106481e-12 5.0709522949503219e-02 0.0000000000000000e+00  6.1289832624861478e-13 5.1811528419893720e-02 0.0000000000000000e+00  6.3364487992155204e-12 4.9595106610686654e-02 0.0000000000000000e+00  1.3121932660317134e-12 5.4062150794831274e-02 0.0000000000000000e+00  2.0699765031156963e-11 7.0373892316438313e-02 0.0000000000000000e+00  1.1365383786167152e-11 7.0312070366814833e-02 0.0000000000000000e+00  -5.6010944579180035e-12 6.8433562033425335e-02 0.0000000000000000e+00  -4.3570890171389696e-12 4.2695371892001933e-02 0.0000000000000000e+00  4.4231886216044477e-12 4.6848012863205564e-02 0.0000000000000000e+00  3.7810064139730926e-12 4.7372740625206279e-02 0.0000000000000000e+00  -2.0001981586659501e-12 4.5764397937415963e-02 0.0000000000000000e+00  -2.6024564780344818e-11 6.9384578534727251e-02 0.0000000000000000e+00  -2.0590856075665981e-11 7.0197070164908740e-02 0.0000000000000000e+00  5.8055793061969437e-11 7.0897703441325996e-02 0.0000000000000000e+00  1.3093464908892987e-11 6.6126381200862408e-02 0.0000000000000000e+00  1.2012309347732827e-11 6.8101506233939887e-02 0.0000000000000000e+00  -2.6726546793115325e-11 6.7880562151278009e-02 0.0000000000000000e+00  2.3011113590654788e-11 7.6283765356691957e-02 0.0000000000000000e+00  1.7963572725599126e-11 7.7819875230037888e-02 0.0000000000000000e+00  -4.4232909385509034e-11 7.6054894556878874e-02 0.0000000000000000e+00  3.9620988066654480e-12 7.3794072745512806e-02 0.0000000000000000e+00  1.8853593727291558e-12 7.4408724300585150e-02 0.0000000000000000e+00  -2.0084213195395962e-12 6.0669957583613043e-02 0.0000000000000000e+00  9.4252026585621431e-12 6.3315715147304719e-02 0.0000000000000000e+00  -1.7025802837005943e-11 6.2059223296355007e-02 0.0000000000000000e+00  -1.2936248868088610e-12 5.5428650484959999e-02 0.0000000000000000e+00  7.0477747459980888e-12 5.7519133799196334e-02 0.0000000000000000e+00  -2.0430776469051503e-11 5.6536447626767260e-02 0.0000000000000000e+00  8.1936799159880587e-13 3.8611440258617971e-02 0.0000000000000000e+00  -3.3229917460144854e-12 3.9525252728876463e-02 0.0000000000000000e+00  3.8429463402328276e-12 3.8005478912331477e-02 0.0000000000000000e+00  -2.9227570022346856e-12 4.1696857968462814e-02 0.0000000000000000e+00  2.2506403894368462e-12 4.3428490966270966e-02 0.0000000000000000e+00  -3.0168816266996664e-12 4.2107989149515981e-02 0.0000000000000000e+00  1.9820169089909892e-11 5.7772962748341164e-02 0.0000000000000000e+00  -4.5821503103813299e-12 5.7058119805581710e-02 0.0000000000000000e+00  -3.8279279872844821e-11 5.9229860319569609e-02 0.0000000000000000e+00  2.1762006134449221e-12 5.2616638728394546e-02 0.0000000000000000e+00  4.9372823135144690e-12 5.1171126678948235e-02 0.0000000000000000e+00  -1.2061108258110950e-11 5.2616638736356108e-02 0.0000000000000000e+00  -7.8294237424827392e-13 5.9206028108697191e-02 0.0000000000000000e+00  3.1191647827537989e-12 6.9866430979825714e-02 0.0000000000000000e+00  7.7572649186247862e-12 4.0749594114230257e-02 0.0000000000000000e+00  2.5043961870950466e-12 4.2487695724711276e-02 0.0000000000000000e+00  9.0360958510590483e-13 4.0807496265003462e-02 0.0000000000000000e+00  -7.4813509827660223e-12 4.9034336926044100e-02 0.0000000000000000e+00  -7.3302649061322342e-11 4.7211665421673606e-02 0.0000000000000000e+00  -2.3769352777355290e-12 5.5754750340394968e-02 0.0000000000000000e+00  7.0197341605297737e-12 5.3838997313654352e-02 0.0000000000000000e+00  -1.4468858558614454e-12 5.5421604263685538e-02 0.0000000000000000e+00  8.6638155745241179e-12 5.3564921953901098e-02 0.0000000000000000e+00  -5.1544224069131062e-12 5.1306861969094529e-02 0.0000000000000000e+00  1.5150009242873407e-11 5.3338246229547616e-02 0.0000000000000000e+00  -3.3581466042295843e-12 4.8472227844688451e-02 0.0000000000000000e+00  1.8408667675946089e-11 4.8723534871873211e-02 0.0000000000000000e+00  3.3765318487969472e-12 4.9956763005733200e-02 0.0000000000000000e+00  -2.2673285986544664e-11 6.1612315130146866e-02 0.0000000000000000e+00  4.4220658795672844e-13 5.9219277153509713e-02 0.0000000000000000e+00  -1.7562994029773098e-11 6.1191720510004245e-02 0.0000000000000000e+00  3.8593869268129739e-12 5.3853894025294363e-02 0.0000000000000000e+00  5.7097335691216218e-13 4.5173180363733342e-02 0.0000000000000000e+00  -1.0581071554741797e-12 4.7549099959895980e-02 0.0000000000000000e+00  -4.2637221284834586e-12 4.6831697533803625e-02 0.0000000000000000e+00  -4.8661321499525559e-12 4.1456110112633247e-02 0.0000000000000000e+00  -8.2599724004072588e-13 4.2977922496382298e-02 0.0000000000000000e+00  -1.7904385225517077e-12 4.2593388234119678e-02 0.0000000000000000e+00  -5.2254946640884120e-13 4.7024718525666823e-02 0.0000000000000000e+00  -2.4817366142188219e-13 4.5294074479436716e-02 0.0000000000000000e+00  1.5049657648516229e-11 5.3297311981210092e-02 0.0000000000000000e+00  5.8604177123074903e-12 5.1664052930878418e-02 0.0000000000000000e+00  -4.2564867842441152e-13 4.5447260495661009e-02 0.0000000000000000e+00  1.5582073182457110e-12 4.6243483912063524e-02 0.0000000000000000e+00  7.5592050646128831e-12 4.7202201695255637e-02 0.0000000000000000e+00  4.7214415785640888e-12 4.2867849234821266e-02 0.0000000000000000e+00  9.1883257956325747e-13 5.3881689435989345e-02 0.0000000000000000e+00  -9.1529772667868470e-12 5.2635252107180029e-02 0.0000000000000000e+00  -1.6710153976266125e-11 5.1754817970094943e-02 0.0000000000000000e+00  -3.4390839002305091e-11 4.9257893317155931e-02 0.0000000000000000e+00  6.2938994014553499e-11 4.9531789761693840e-02 0.0000000000000000e+00  -6.7040318837944263e-12 7.1833121456050503e-02 0.0000000000000000e+00  1.3350357727292575e-11 6.9694950574694270e-02 0.0000000000000000e+00  8.3164125850147366e-12 7.0854347676264987e-02 0.0000000000000000e+00  9.3477131440822079e-12 6.6043987958516390e-02 0.0000000000000000e+00  1.9169636342608316e-11 6.4910986841534082e-02 0.0000000000000000e+00  1.6691178117263554e-11 6.4944139486885571e-02 0.0000000000000000e+00  -1.4698985251175976e-12 5.8398686937461017e-02 0.0000000000000000e+00  -4.0589540319867403e-14 5.9844198991165366e-02 0.0000000000000000e+00  -1.1071654614306732e-11 5.8398686948400273e-02 0.0000000000000000e+00  -2.2591110743746477e-12 6.4666453163585547e-02 0.0000000000000000e+00  -1.0648981455840558e-11 6.4745192547685917e-02 0.0000000000000000e+00  9.4130146583471086e-12 5.3573187590129544e-02 0.0000000000000000e+00  -5.7573551786716654e-12 5.5447143419002011e-02 0.0000000000000000e+00  -3.0754776553768989e-13 4.4767651911105849e-02 0.0000000000000000e+00  1.5723382181097943e-11 4.5317285075721622e-02 0.0000000000000000e+00  6.4070511058837220e-12 5.8365072510125258e-02 0.0000000000000000e+00  3.7727254308648988e-12 5.6955029299508055e-02 0.0000000000000000e+00  3.2125959021473927e-12 5.8523757903559237e-02 0.0000000000000000e+00  7.8240306070715271e-12 5.4062150777994443e-02 0.0000000000000000e+00  -3.1794023057595226e-12 5.5507662835644310e-02 0.0000000000000000e+00  -4.1634953778607290e-12 5.4062150781921031e-02 0.0000000000000000e+00  -1.4855403203427419e-12 4.4820786041837972e-02 0.0000000000000000e+00  8.6183985036309574e-12 4.3934276128552718e-02 0.0000000000000000e+00  1.0614707329482215e-12 5.4484398258488789e-02 0.0000000000000000e+00  -5.3169441073336994e-12 5.1978983005046643e-02 0.0000000000000000e+00  8.2985882332106124e-12 5.2911378050173020e-02 0.0000000000000000e+00  8.0013956913828631e-12 5.6953174892085096e-02 0.0000000000000000e+00  -6.2304170431904641e-12 5.6953174888752393e-02 0.0000000000000000e+00  -5.3290053800847433e-12 5.5507662835869089e-02 0.0000000000000000e+00  1.3209358502574800e-12 5.4062150779739679e-02 0.0000000000000000e+00  1.3164233807343609e-11 7.2853807474478699e-02 0.0000000000000000e+00  -7.5619581663211834e-12 7.4489723003136249e-02 0.0000000000000000e+00  -1.0112944901229347e-11 7.2853807439013693e-02 0.0000000000000000e+00  7.6216375829118465e-12 6.9962783366386366e-02 0.0000000000000000e+00  -3.4048223661546622e-12 6.8517271323480997e-02 0.0000000000000000e+00  -4.5931615027600245e-12 6.9962783344953469e-02 0.0000000000000000e+00  4.8211354519594208e-12 7.1408295411513431e-02 0.0000000000000000e+00  1.9126203844877468e-11 7.0563660237505335e-02 0.0000000000000000e+00  9.2152456641140376e-12 6.3811848172435612e-02 0.0000000000000000e+00  5.4397367468514827e-13 5.0369839748254756e-02 0.0000000000000000e+00  7.8926115789257999e-12 4.9549285406940105e-02 0.0000000000000000e+00  1.8055482319261797e-12 4.6546760339325338e-02 0.0000000000000000e+00  2.1172094562734845e-12 4.4392750252906413e-02 0.0000000000000000e+00  1.6327241065225066e-12 6.2568912199542512e-02 0.0000000000000000e+00  2.4775828955380382e-11 6.2532048922496919e-02 0.0000000000000000e+00  -1.8696125933954136e-11 6.4040389568821909e-02 0.0000000000000000e+00  -5.9130214204839741e-12 6.5799771453647377e-02 0.0000000000000000e+00  1.5474776202133028e-11 6.3878461378667026e-02 0.0000000000000000e+00  4.2417193354308607e-11 6.4589262507305720e-02 0.0000000000000000e+00  1.8106612804883599e-11 6.7328503533966619e-02 0.0000000000000000e+00  -3.4256330753920794e-11 5.7955212454885524e-02 0.0000000000000000e+00  -3.1960952755934033e-11 5.8196669108838472e-02 0.0000000000000000e+00  -7.4152284840012579e-12 5.7823011081404807e-02 0.0000000000000000e+00  4.1389688990687168e-11 5.6792103221416299e-02 0.0000000000000000e+00  4.1964172302184818e-12 6.3106582029300223e-02 0.0000000000000000e+00  3.8303856056804610e-12 6.4606512391909884e-02 0.0000000000000000e+00  -5.7054404948937707e-12 6.2465575781352846e-02 0.0000000000000000e+00  -1.0720829715885657e-11 5.8884986052811852e-02 0.0000000000000000e+00  4.9823749224865206e-11 6.0320538852777508e-02 0.0000000000000000e+00  1.0008948817541805e-11 6.9608450480999964e-02 0.0000000000000000e+00  3.2889068993443776e-12 6.9554084134199598e-02 0.0000000000000000e+00  -2.0365816343569555e-13 5.9633071839133314e-02 0.0000000000000000e+00  1.2460666189262505e-12 6.2057601518675939e-02 0.0000000000000000e+00  7.9646330509282533e-12 6.0219881941568770e-02 0.0000000000000000e+00  -1.3406144487095835e-12 5.7665952126637547e-02 0.0000000000000000e+00  8.8897388257917942e-12 5.8397570991573951e-02 0.0000000000000000e+00  -6.4439510783537873e-12 4.3310135266589986e-02 0.0000000000000000e+00  -4.5724125726293837e-12 4.0822927951422942e-02 0.0000000000000000e+00  -8.1897500809433009e-13 4.2160384527652139e-02 0.0000000000000000e+00  1.0565132180512879e-10 6.8819837402710943e-02 0.0000000000000000e+00  -3.1677382199738578e-13 6.8660695939897667e-02 0.0000000000000000e+00  3.6069506628786763e-12 6.6185969180018719e-02 0.0000000000000000e+00  8.7257744992358956e-12 6.7955671178039356e-02 0.0000000000000000e+00  2.6513754300634844e-13 6.9579540663570222e-02 0.0000000000000000e+00  6.2