<?xml version="1.0"?>
<VTKFile type="UnstructuredGrid"  version="0.1"  >
<UnstructuredGrid>
<Piece  NumberOfPoints="527" NumberOfCells="971">
<Points>
<DataArray  type="Float64"  NumberOfComponents="3"  format="ascii">0.01552943322599933 -0.01039223976967649 0  0.01561231669066057 -0.008674083460499629 0  0.01413052010119659 -0.009389502160894639 0  0.009071852058287186 -0.03111646240531644 0  0.009454590536262899 -0.02926375325908127 0  0.008053957990568473 -0.0299402944179232 0  -0.005263160237910004 -0.02021752904783427 0  -0.007142011617282996 -0.01910283839912953 0  -0.005721283706472954 -0.01885557948612299 0  0.005715900577929808 -0.01040157292959515 0  0.004247300133094481 -0.009831459016042156 0  0.004907604482269278 -0.01163228449796421 0  0.006078421240027776 -0.01533115251916825 0  0.007761962215727216 -0.01436391407193771 0  0.007560746450350726 -0.01596246015309179 0  0.01492528999248245 -0.002433543897202234 0  0.01607090679295778 -0.003444215195152167 0  0.01610599002356381 -0.001455662474053389 0  0.006028532990060553 -0.03846042534778643 0  0.006689526301856015 -0.04071687560886686 0  0.00470687896267873 -0.04007262327868574 0  0.01533845899304755 -0.03450745320159019 0  0.01291635033112928 -0.03408703642975243 0  0.01431567335582407 -0.03550779203295518 0  0.007681421014797305 -0.0335876017633407 0  0.007398918941703169 -0.03180190167941388 0  0.009257982989763691 -0.03352046177391386 0  -7.74643124966494e-05 -0.01210497681433211 0  0.002001407188016981 -0.01282170755437008 0  0.0005044285752298626 -0.01379044141987053 0  -0.00554502207324609 -0.01082482616207859 0  -0.006966384852671079 -0.01037459975243556 0  -0.007325780537656768 -0.01169056999739311 0  0.0002817996959115863 -0.02849048409288438 0  -0.000521210781477624 -0.03017876919236858 0  -0.001093500833290798 -0.02871309477119382 0  -0.002501899107215252 -0.03451361758785813 0  -0.003994222433335283 -0.03302847981728372 0  -0.00237569780992264 -0.03289446498059487 0  -0.002527586879520364 -0.00629891729928651 0  -0.0001503063646937945 -0.006276275587524281 0  -0.001326895479615754 -0.004595719664517121 0  0.003472222222222224 -0.02569444444444444 0  0.0056511112593847 -0.02488019662884799 0  0.003895180821987836 -0.0236393607118779 0  -0.008984816994941665 -0.02386872512578754 0  -0.01047523617110418 -0.02424834223494819 0  -0.008755951219614224 -0.02540612226970509 0  0.001146640918992101 -0.03102340112947342 0  0.002374909778313783 -0.03024414641598028 0  0.0007456373584565139 -0.02974621554810341 0  0.0182766464026848 -0.03019791398854459 0  0.02042604155621803 -0.02955189065163524 0  0.0197299190175258 -0.03137365445772399 0  0.01379230725571167 -0.03273328139531854 0  0.01501791995124707 -0.03322599139945957 0  0.01329990464676595 -0.03651525526650057 0  0.01388418709928712 -0.03784026285822586 0  0.01225930750566253 -0.03749767039702803 0  0.002256955057953323 -0.03542009683155154 0  0.002478844003272855 -0.03693214507778883 0  0.0009942345205310021 -0.03581760440233908 0  7.979462213787225e-05 -0.02582162422291141 0  -0.0009137538293355649 -0.02723890034088429 0  -0.001688252126561377 -0.02596267815987898 0  -0.007685836574511986 -0.007395433330292244 0  -0.009035679641316699 -0.005678099849451732 0  -0.009317707561007742 -0.00723817591573791 0  0.0004382181809313461 -0.04439373199081217 0  0.0007479406588227182 -0.04630941102478892 0  0.001434473698376028 -0.04521553686097385 0  0.009039169047364189 -0.04062936042476101 0  0.007849009582011639 -0.03910743039857202 0  0.009507271836584152 -0.03875260097857094 0  0.0116140763143414 -0.0200294715722589 0  0.01255567389343238 -0.01875669977713929 0  0.01289863565765652 -0.02096070221481863 0  -0.001242692848311552 -0.02453787375321078 0  0.0002330144247192046 -0.02434070912065012 0  -0.005615842898686297 -0.03437124196063728 0  -0.007416067229776028 -0.03518034726825829 0  -0.006054704616810422 -0.03580205691967763 0  -0.004157923962185587 -0.03660884936063957 0  -0.002121340039484437 -0.0366645371443241 0  -0.003389459586812602 -0.03835665334840834 0  0.01436274818423154 -0.02590687146513118 0  0.01376997500590554 -0.02405110063143605 0  0.01312811451181107 -0.02527868237689237 0  0.015181836533936 -0.03191525840546049 0  0.01661043679905785 -0.0331297702723849 0  0.01668600241955626 -0.03097866552280258 0  0.004614118426858764 -0.003565458483726032 0  0.002509334680925278 -0.004358807632452355 0  0.002343081211279474 -0.002873718352678741 0  0.01731419597837964 -0.008924158772178585 0  0.01891769558890485 -0.008130063332440622 0  0.01661233695577045 -0.007784557864161785 0  0.003888413565608712 -0.01876506087328944 0  0.004891551310597494 -0.02075766768178287 0  0.00544129398496433 -0.01923210266410404 0  0.003071894030292726 -0.02042492932582908 0  0.002062167648373497 -0.0188974618762693 0  -0.0057072681558855 -0.02389109188241274 0  -0.007219239710984426 -0.02563954733366955 0  -0.007346103689937933 -0.02388886401972043 0  -0.004305627510404235 -0.01860920323802679 0  -0.003838294149787177 -0.01997663600034633 0  -0.005175004679933259 -0.03128537442936601 0  -0.003579275799392356 -0.02990168269634324 0  -0.003587402364175357 -0.03149153588773727 0  0.003782179117330453 -0.03352803109814534 0  0.001800461004723053 -0.0329743674150207 0  0.009302575519085478 -0.04534992603921641 0  0.009513501161241235 -0.04296668972212099 0  0.01124108542315425 -0.04409850809919492 0  -0.0009083904135866786 -0.008529558496548306 0  0.000950029780725288 -0.009981924865605908 0  0.0008390356868680526 -0.007863289832610657 0  -0.0078125 -0.001818766801925782 0  -0.009005249798019331 -0.003220453989580621 0  -0.006849416828355778 -0.002880654960679921 0  -0.005471962873640671 -0.002483469538180225 0  -0.004703752454419383 -0.003891541969087049 0  -0.006032357434950986 -0.00440111221351207 0  0.015625 0 0  0.0140625 0 0  0.01388737105418562 -0.001431809280784936 0  -0.007999101390003741 -0.03706595863040997 0  -0.002966181741115359 -0.02519100039815357 0  -0.003650638982939926 -0.02687347943237787 0  -0.004763226258762934 -0.02544039938959696 0  -0.00733492014463835 -0.0222500651304849 0  -0.005550790196063865 -0.02199648679170341 0  0.01595944973070434 -0.01665864079534912 0  0.01490811737430122 -0.01815748923040521 0  0.01620791970234805 -0.01795106480095328 0  0.01520615639784498 -0.01268049936812179 0  0.01475119078452227 -0.0148270426093771 0  0.01391218072944126 -0.01352772495826596 0  0.001807424563025037 -0.0170842299175074 0  -8.496028144727461e-05 -0.0173220879651638 0  0.001003955519332805 -0.01812162078302066 0  0.001645105436913761 -0.01133910380044415 0  0.01398706243080254 -0.0221150896608866 0  0.01258564041330076 -0.02332910432433855 0  0.009194419875177533 -0.02206075900562258 0  0.01024587951903527 -0.02330935545630703 0  0.01055332124836828 -0.02122269026435361 0  0.007590321611890428 -0.01002544604880517 0  0.009217381127136798 -0.01087786990918838 0  0.008858123610367597 -0.009584568252459222 0  0.01075672523973394 -0.01188005193203498 0  0.008545263046002623 -0.01258731613206785 0  -0.002401366537453123 -0.02012997179630549 0  -0.003768377061401588 -0.02226186400376761 0  -0.001934031832172576 -0.02146311508091197 0  -0.001242172060814776 -0.02269478175693585 0  -0.002687248212944535 -0.02354019374584471 0  -0.008385574756346015 -0.01083162927881422 0  -0.007996120807677542 -0.009276532098770388 0  0.01135833061239636 -0.03411864136424596 0  0.01234457162076637 -0.03542175489045764 0  0.01484586826671411 -0.03892294491435778 0  0.01682229953162608 -0.03997649591280195 0  0.01537065409622362 -0.04031910134814119 0  0.01953075217518766 -0.02799030610032226 0  -0.006023660024602393 -0.03729834141399786 0  0.01556230856807037 -0.006954656242163968 0  0.01452119780971544 -0.007845376921609476 0  0.01493929066620763 -0.005842453764582118 0  0.00260771577430766 -0.04575534361521472 0  0.001593906033397699 -0.04805586364640495 0  0.003215512932028335 -0.04739683855119951 0  0.01388889061737944 -0.01961056581486995 0  0.00848679002385368 -0.01728089887285961 0  0.01091258567492647 -0.01676505135253015 0  0.009026629356790904 -0.01591729099564875 0  -0.0007291972817302392 -0.03815205647041336 0  -0.0008318520259667226 -0.04038123225473551 0  0.0007661706505117675 -0.03878712621920281 0  0.008592979660450702 -0.03732438270432173 0  0.008168121474082026 -0.03544844926309867 0  0.006801984231713659 -0.03674392697831581 0  0.001825126981212151 -0.008873854041609817 0  0.0004213409092374296 -0.003522267437169826 0  0.001176028743070504 -0.005312707133933157 0  0.003235556574780704 -0.04154949902408906 0  0.005169085000972016 -0.0420044241556977 0  0.01805191463477333 -0.01489685993184803 0  0.02031059517510626 -0.01433651055799742 0  0.01957410453124071 -0.01620020054378964 0  0.01748238166535701 -0.01634392573638821 0  0.01570862682144985 -0.02385902104839043 0  0.01610131562394197 -0.02156661281752332 0  0.01619085190094634 -0.01938421123497572 0  0.01478188997540652 -0.02082974819103365 0  -0.01088465027479771 -0.02276583133720164 0  -0.007808666799817795 -0.01546134924060014 0  -0.005536251248839077 -0.01513289695023397 0  -0.007593318388070634 -0.01416090010898731 0  -0.009529647465935568 -0.008809308805338086 0  0.00648040877914181 -0.009352850839624468 0  0.009688124777025769 -0.01460836901279954 0  0.01107020214776975 -0.01357625950359936 0  0.009744700986594435 -0.01324271814211144 0  -0.008680555555555554 -0.02743055555555555 0  -0.01026658336100219 -0.02577212780879937 0  -0.002375017943413014 -0.02816654106277556 0  0.001823757237959144 -0.02703169908190218 0  0.003833816990584821 -0.02734430907162308 0  0.017292207270899 -0.03696063516466189 0  0.01604828773016203 -0.03791592173361046 0  0.01751563465771312 -0.03854040120278274 0  -0.004350183622882246 -0.01639694235721915 0  -0.00654316002217061 -0.01619168547737489 0  -0.007439175550382293 -0.004187299635792556 0  0.01353758505471251 -0.04075172725089799 0  0.0129699535640053 -0.03896329809606121 0  0.01295019700693523 -0.
[...]
<PointData  Vectors="displacement"> 
<DataArray  type="Float64"  Name="displacement"  NumberOfComponents="3" format="ascii">7.0905738125825266e-14 9.9478346845622290e-02 0.0000000000000000e+00  1.0115971161061102e-13 1.0138576366774113e-01 0.0000000000000000e+00  4.6137277846995641e-14 1.0059153926767334e-01 0.0000000000000000e+00  1.5283731996204054e-14 7.6471283593998782e-02 0.0000000000000000e+00  1.4789334288929043e-13 7.8528074686486385e-02 0.0000000000000000e+00  4.9301363077805474e-14 7.7777010315667250e-02 0.0000000000000000e+00  1.3574458024961179e-13 8.8570769955524362e-02 0.0000000000000000e+00  8.4689111640891557e-14 8.9808247409368269e-02 0.0000000000000000e+00  1.2933173341150993e-13 9.0082742696891580e-02 0.0000000000000000e+00  6.0661726619465454e-14 9.9467985607808174e-02 0.0000000000000000e+00  9.7720452969030721e-14 1.0010089942563988e-01 0.0000000000000000e+00  4.0664277852550626e-14 9.8101707152104284e-02 0.0000000000000000e+00  8.4077708953385258e-14 9.3995396772245735e-02 0.0000000000000000e+00  7.0944031723658773e-14 9.5069179684463670e-02 0.0000000000000000e+00  1.6359756198613973e-15 9.3294548546364792e-02 0.0000000000000000e+00  6.6157510511294616e-14 1.0831371898758996e-01 0.0000000000000000e+00  5.5724149861406036e-14 1.0719171895469980e-01 0.0000000000000000e+00  5.3300306396136487e-14 1.0939931723416048e-01 0.0000000000000000e+00  9.3744092860181348e-14 6.8318359216314212e-02 0.0000000000000000e+00  1.3283457781562417e-13 6.5813353610333733e-02 0.0000000000000000e+00  1.9716162943204603e-13 6.6528572433053157e-02 0.0000000000000000e+00  -1.5998701599862545e-13 7.2706764117955999e-02 0.0000000000000000e+00  1.4948268856511879e-14 7.3173491166320534e-02 0.0000000000000000e+00  5.3636045333326322e-13 7.1596234706523779e-02 0.0000000000000000e+00  1.0279139290775571e-13 7.3727940187956753e-02 0.0000000000000000e+00  1.7920897516007398e-13 7.5710340951612984e-02 0.0000000000000000e+00  8.8105479531973567e-14 7.3802475865846928e-02 0.0000000000000000e+00  7.8485150490044538e-14 9.7576946237707990e-02 0.0000000000000000e+00  8.3038068566437508e-14 9.6781265272484318e-02 0.0000000000000000e+00  8.0035443404249334e-14 9.5705822216831340e-02 0.0000000000000000e+00  8.1558553560059748e-14 9.8998109653383792e-02 0.0000000000000000e+00  8.9447250585268707e-14 9.9497929968312276e-02 0.0000000000000000e+00  1.0601996279018902e-13 9.8037001315133376e-02 0.0000000000000000e+00  -4.4977276990776076e-14 7.9386521969701820e-02 0.0000000000000000e+00  1.0596490896619957e-13 7.7512266768311425e-02 0.0000000000000000e+00  2.8030743912365445e-13 7.9139389999960869e-02 0.0000000000000000e+00  3.1711969091902040e-14 7.2699920704655696e-02 0.0000000000000000e+00  1.8825793013733458e-13 7.4348651237108085e-02 0.0000000000000000e+00  1.6630071810981875e-13 7.4497428244850492e-02 0.0000000000000000e+00  1.3609703643745647e-13 1.0402256211691077e-01 0.0000000000000000e+00  4.0586147495331228e-14 1.0404769788704860e-01 0.0000000000000000e+00  3.6197594433965205e-14 1.0591337251807362e-01 0.0000000000000000e+00  8.0309472207038167e-14 8.2490554491254683e-02 0.0000000000000000e+00  7.7171916745049675e-14 8.3394494355534796e-02 0.0000000000000000e+00  7.4734118264415135e-14 8.4772012389728410e-02 0.0000000000000000e+00  1.2813642024823255e-13 8.4517382738654778e-02 0.0000000000000000e+00  -3.6258949119634525e-14 8.4095949568594397e-02 0.0000000000000000e+00  5.6480770772802483e-14 8.2810636292653395e-02 0.0000000000000000e+00  1.6187508892256585e-13 7.6574595872375834e-02 0.0000000000000000e+00  8.9322640591107685e-14 7.7439688030579698e-02 0.0000000000000000e+00  2.3231819675805576e-13 7.7992467605013396e-02 0.0000000000000000e+00  1.7472083433438279e-13 7.7491013110204066e-02 0.0000000000000000e+00  -1.1421664186543856e-13 7.8208198021631620e-02 0.0000000000000000e+00  -9.0471117845271010e-14 7.6185760999234936e-02 0.0000000000000000e+00  -2.1091971778364864e-13 7.4676366726746102e-02 0.0000000000000000e+00  -5.2172401260512886e-14 7.4129383111412109e-02 0.0000000000000000e+00  2.3436517343291717e-13 7.0477796117008176e-02 0.0000000000000000e+00  -8.3379967473851284e-14 6.9006834623635008e-02 0.0000000000000000e+00  8.0049936778795491e-14 6.9387164760648684e-02 0.0000000000000000e+00  3.7050196349998569e-14 7.1693589820181619e-02 0.0000000000000000e+00  8.2903641292525161e-14 7.0014984535224686e-02 0.0000000000000000e+00  5.2652459139545424e-14 7.1252295495923462e-02 0.0000000000000000e+00  1.0509988860249129e-13 8.2349365446008807e-02 0.0000000000000000e+00  1.8113876470377595e-15 8.0775971748156566e-02 0.0000000000000000e+00  1.0221896593190781e-13 8.2192773958425655e-02 0.0000000000000000e+00  1.1735675091464189e-13 1.0280526127407598e-01 0.0000000000000000e+00  8.3265504139484930e-14 1.0471176463072777e-01 0.0000000000000000e+00  5.4614857763366621e-14 1.0297984110508590e-01 0.0000000000000000e+00  1.0385138120061149e-13 6.1731479523611951e-02 0.0000000000000000e+00  2.2787628305437234e-13 5.9604782205223555e-02 0.0000000000000000e+00  -1.9949439500948018e-14 6.0819150170331356e-02 0.0000000000000000e+00  7.2660837305101179e-14 6.5910508876954280e-02 0.0000000000000000e+00  8.6241499538734413e-14 6.7600084452114795e-02 0.0000000000000000e+00  -3.2191142672277571e-14 6.7993999488290685e-02 0.0000000000000000e+00  1.0143358124698271e-13 8.8779542574515050e-02 0.0000000000000000e+00  1.7725455893318719e-14 9.0192514327788145e-02 0.0000000000000000e+00  2.9495282241655192e-14 8.7745733843662382e-02 0.0000000000000000e+00  1.9134353592134153e-14 8.3774525210762021e-02 0.0000000000000000e+00  1.1930988462806861e-13 8.3993408169690087e-02 0.0000000000000000e+00  1.3762555052912220e-13 7.2857979470846532e-02 0.0000000000000000e+00  2.8139977657389450e-13 7.1959748578770577e-02 0.0000000000000000e+00  8.1046433938765654e-14 7.1269555584155403e-02 0.0000000000000000e+00  2.6939886063066476e-13 7.0373892328457380e-02 0.0000000000000000e+00  1.8828923551343229e-13 7.0312070354209416e-02 0.0000000000000000e+00  6.6186348156178765e-14 6.8433562039411172e-02 0.0000000000000000e+00  8.9052104083449944e-14 8.2254727942440972e-02 0.0000000000000000e+00  2.1609056412162296e-13 8.4314917977100584e-02 0.0000000000000000e+00  4.4374205187079144e-14 8.2952114104566724e-02 0.0000000000000000e+00  2.8785457947409427e-13 7.5584497613090801e-02 0.0000000000000000e+00  -8.3160911257467806e-14 7.4236203308388565e-02 0.0000000000000000e+00  6.7073369189974636e-14 7.6624259252099813e-02 0.0000000000000000e+00  5.5665258400486701e-14 1.0705712032312169e-01 0.0000000000000000e+00  3.0060533602769835e-14 1.0617638118196610e-01 0.0000000000000000e+00  7.8429305450963979e-14 1.0782505788239520e-01 0.0000000000000000e+00  3.2824381769844542e-14 1.0110814174607469e-01 0.0000000000000000e+00  6.2146629965883855e-14 1.0198970938462307e-01 0.0000000000000000e+00  7.0656080076744249e-14 1.0237327340549790e-01 0.0000000000000000e+00  6.2190224375177824e-14 9.0183232229700136e-02 0.0000000000000000e+00  5.7342028246899389e-14 8.7971133291934359e-02 0.0000000000000000e+00  4.6752912021643922e-14 8.9664744264697893e-02 0.0000000000000000e+00  5.8435668835971879e-14 8.8340523861460768e-02 0.0000000000000000e+00  7.3107228173168106e-14 9.0036246825094340e-02 0.0000000000000000e+00  9.2874703913940979e-14 8.4492552210937821e-02 0.0000000000000000e+00  2.0213897988396012e-13 8.2551498697542552e-02 0.0000000000000000e+00  1.4007481755677370e-13 8.4495025479980751e-02 0.0000000000000000e+00  1.3319446324111338e-13 9.0356258091117511e-02 0.0000000000000000e+00  1.0391031258574361e-13 8.8838198156670212e-02 0.0000000000000000e+00  3.0865775015080343e-13 7.6283765360502492e-02 0.0000000000000000e+00  2.2672713351889060e-13 7.7819875244063003e-02 0.0000000000000000e+00  -2.3192227921684952e-13 7.6054894546142129e-02 0.0000000000000000e+00  1.1183268499888065e-13 7.3794072755850065e-02 0.0000000000000000e+00  1.2854759347479209e-13 7.4408724296950626e-02 0.0000000000000000e+00  1.1749339838087209e-13 6.0669957586584174e-02 0.0000000000000000e+00  2.2916533704826569e-13 6.3315715145596599e-02 0.0000000000000000e+00  -1.5020373284003798e-13 6.2059223288514202e-02 0.0000000000000000e+00  5.8365536902912185e-14 1.0154620852729361e-01 0.0000000000000000e+00  3.6070913118159913e-14 9.9933859272730879e-02 0.0000000000000000e+00  8.2335705899198618e-14 1.0228586885436458e-01 0.0000000000000000e+00  -3.6260996588243359e-14 1.0899621578214405e-01 0.0000000000000000e+00  4.6878896165863099e-14 1.0744012818590552e-01 0.0000000000000000e+00  5.6457571069728370e-14 1.0781735718433604e-01 0.0000000000000000e+00  9.9445106612871584e-14 1.0825829387476660e-01 0.0000000000000000e+00  4.5590851619750700e-14 1.0669511767985175e-01 0.0000000000000000e+00  9.9335012727310530e-14 1.0612941661348227e-01 0.0000000000000000e+00  6.4848684934825738e-14 1.1101532567041435e-01 0.0000000000000000e+00  5.6676469808024605e-14 1.1101532567043265e-01 0.0000000000000000e+00  7.2054609267507318e-14 1.0942579793438448e-01 0.0000000000000000e+00  1.8074921456158681e-13 6.9866430983978836e-02 0.0000000000000000e+00  1.1359784084232490e-13 8.3049454538712014e-02 0.0000000000000000e+00  1.4517153580372745e-13 8.1181644959710392e-02 0.0000000000000000e+00  1.3364063530592517e-13 8.2772583436295039e-02 0.0000000000000000e+00  1.9285377831048537e-13 8.6314343404028160e-02 0.0000000000000000e+00  9.6867465983698748e-14 8.6595854222591931e-02 0.0000000000000000e+00  1.0013283139575555e-13 9.2521681339151840e-02 0.0000000000000000e+00  2.1339452827453604e-14 9.0857729867686893e-02 0.0000000000000000e+00  -1.3821286711004119e-13 9.1086892620183643e-02 0.0000000000000000e+00  5.3036328368725173e-14 9.6938028000211549e-02 0.0000000000000000e+00  2.3914997842529219e-14 9.4555036030249937e-02 0.0000000000000000e+00  8.6095520299555331e-14 9.5997477752217508e-02 0.0000000000000000e+00  5.6320493844991432e-14 9.2049212189293753e-02 0.0000000000000000e+00  7.5922732509167968e-14 9.1785153303028472e-02 0.0000000000000000e+00  1.3744414027136311e-13 9.0897549341426062e-02 0.0000000000000000e+00  1.8178524955622433e-13 9.8427182658324924e-02 0.0000000000000000e+00  7.4916470597225733e-15 8.6464186861070783e-02 0.0000000000000000e+00  1.4687864857883366e-13 8.5116444528586008e-02 0.0000000000000000e+00  -2.3460839688737302e-14 8.6524502214974527e-02 0.0000000000000000e+00  1.2922271791801373e-13 8.5138368798863939e-02 0.0000000000000000e+00  2.0709737871735146e-14 8.7454886957374287e-02 0.0000000000000000e+00  5.7756463981782694e-14 9.9885544089424697e-02 0.0000000000000000e+00  7.9323673728884591e-14 9.8939222964727000e-02 0.0000000000000000e+00  6.6878753205570972e-14 1.0037498601083675e-01 0.0000000000000000e+00  4.3510102133117049e-14 9.7826647328193184e-02 0.0000000000000000e+00  4.2762016159662811e-14 9.7041475673246030e-02 0.0000000000000000e+00  7.9433669854920759e-14 8.8667971923447858e-02 0.0000000000000000e+00  7.8307702010078342e-14 8.6301244846354208e-02 0.0000000000000000e+00  6.5832232778384073e-14 8.7187978564408630e-02 0.0000000000000000e+00  8.8034815064537609e-14 8.5820639792814263e-02 0.0000000000000000e+00  1.1981966849112857e-13 8.4882102920044056e-02 0.0000000000000000e+00  1.0864452390370356e-13 9.8990557151215089e-02 0.0000000000000000e+00  4.8234841827159489e-14 1.0071695335011599e-01 0.0000000000000000e+00  1.4075469671618951e-14 7.3138404845490460e-02 0.0000000000000000e+00  2.8749875228160270e-13 7.1691749120584111e-02 0.0000000000000000e+00  -1.5813491385658039e-14 6.7804891613111234e-02 0.0000000000000000e+00  3.1011448914142239e-13 6.6635288541283061e-02 0.0000000000000000e+00  2.6404786378349835e-13 6.6254944001590724e-02 0.0000000000000000e+00  1.8287271527939775e-13 7.9941796196856693e-02 0.0000000000000000e+00  1.7026293213357500e-13 6.9608450480091746e-02 0.0000000000000000e+00  4.6289467762740887e-14 1.0329459139388611e-01 0.0000000000000000e+00  8.4236819089274771e-14 1.0230575493079339e-01 0.0000000000000000e+00  2.1702460018152766e-14 1.0452930659647687e-01 0.0000000000000000e+00  1.9286262911016403e-13 6.0219881944373312e-02 0.0000000000000000e+00  1.3726498661987800e-13 5.7665952139561986e-02 0.0000000000000000e+00  1.9992183757853530e-13 5.8397570995232885e-02 0.0000000000000000e+00  9.3954859494908003e-14 8.9244592165281397e-02 0.0000000000000000e+00  8.9180209050640855e-14 9.1830879507989266e-02 0.0000000000000000e+00  3.9842610135490742e-14 9.2403549312482902e-02 0.0000000000000000e+00  6.6167165173980467e-14 9.3344693233715650e-02 0.0000000000000000e+00  1.4120094013949666e-13 6.8660695929931972e-02 0.0000000000000000e+00  1.6537594855622574e-13 6.6185969173178219e-02 0.0000000000000000e+00  1.7182687954977266e-13 6.7955671179930871e-02 0.0000000000000000e+00  7.5183146738528667e-14 6.9579540656801928e-02 0.0000000000000000e+00  1.4961282502821718e-13 7.1662114275795441e-02 0.0000000000000000e+00  1.2406952414012684e-13 7.0223935471354693e-02 0.0000000000000000e+00  6.9062822008724090e-14 1.0116398770666069e-01 0.0000000000000000e+00  5.6774319834578026e-14 1.0710506900413555e-01 0.0000000000000000e+00  6.5100787293105585e-14 1.0511740654384422e-01 0.0000000000000000e+00  5.6228616548856002e-14 6.4889014014456403e-02 0.0000000000000000e+00  7.4512032017853705e-14 6.4383977397971512e-02 0.0000000000000000e+00  5.6470885844009007e-14 9.4477528102346581e-02 0.0000000000000000e+00  -3.1145690370355325e-14 9.5099601784572885e-02 0.0000000000000000e+00  1.4490560623466886e-14 9.3030620277357118e-02 0.0000000000000000e+00  -7.0040804615682944e-14 9.2871063286717015e-02 0.0000000000000000e+00  1.3220588472577763e-14 8.4528155751786099e-02 0.0000000000000000e+00  1.7538002455884891e-13 8.7073080214840726e-02 0.0000000000000000e+00  1.3834140174080843e-13 8.9495880439210918e-02 0.0000000000000000e+00  -1.6069206757744988e-13 8.7891112879743591e-02 0.0000000000000000e+00  2.0397100629317070e-13 8.5741763869839185e-02 0.0000000000000000e+00  1.3140262301202872e-13 9.3850858458015107e-02 0.0000000000000000e+00  9.8171597684930333e-14 9.4215490837812207e-02 0.0000000000000000e+00  7.1527810201912169e-14 9.5294556296612362e-02 0.0000000000000000e+00  9.3418648818837277e-14 1.0123564281090669e-01 0.0000000000000000e+00  7.4156530393238152e-14 1.0063222785139225e-01 0.0000000000000000e+00  -6.0123714019101778e-15 9.4797797235667738e-02 0.0000000000000000e+00  9.8978181095206718e-14 9.5943596968677033e-02 0.0000000000000000e+00  9.2962035837782772e-14 9.6313878997276767e-02 0.0000000000000000e+00  6.4810434947310094e-14 8.0563205087278031e-02 0.0000000000000000e+00  1.3985208133482305e-14 8.2404314051238908e-02 0.0000000000000000e+00  6.0523573718687333e-14 7.9746148379391382e-02 0.0000000000000000e+00  1.1517659315653497e-13 8.1005996900334235e-02 0.0000000000000000e+00  2.4440062399039773e-14 8.0658951902333242e-02 0.0000000000000000e+00  -1.8976587839801057e-13 6.9983356172480540e-02 0.0000000000000000e+00  1.4149617953276494e-13 6.8922841676758814e-02 0.0000000000000000e+00  4.6376638511742175e-13 6.8229573760486856e-02 0.0000000000000000e+00  1.2787443753049946e-13 9.2812206712620873e-02 0.0000000000000000e+00  6.2264956219585790e-14 9.3040073306252413e-02 0.0000000000000000e+00  3.5911621775147606e-14 1.0636678134299360e-01 0.0000000000000000e+00  -1.5427160975160307e-14 6.5774662946424547e-02 0.0000000000000000e+00  1.6634422984410529e-13 6.7760093397051219e-02 0.0000000000000000e+00  5.5448567379888287e-14 1.0655464701690920e-01 0.0000000000000000e+00  4.8716197705220435e-14 1.0435035291375451e-01 0.0000000000000000e+00  5.9483847359171713e-14 1.0609718008781006e-01 0.0000000000000000e+00  8.5409871584107555e-14 9.9047479065888705e-02 0.0000000000000000e+00  6.4344929551160160e-14 1.0050522340944910e-01 0.0000000000000000e+00  9.0053805147604532e-15 9.8918987619889487e-02 0.0000000000000000e+00  2.2020623577164700e-14 9.7143582271403822e-02 0.0000000000000000e+00  -1.1635654809058306e-14 9.7614442992329603e-02 0.0000000000000000e+00  2.8011672801287702e-14 9.6019715038195910e-02 0.0000000000000000e+00  1.4707564034685857e-13 6.8225070244120445e-02 0.0000000000000000e+00  1.4341104427367883e-13 6.8196436267970839e-02 0.0000000000000000e+00  5.5212186357769432e-14 6.6656076602168907e-02 0.0000000000000000e+00  1.1246586040195821e-14 7.1378514591811146e-02 0.0000000000000000e+00  1.3777774169201243e-13 5.9633071853103577e-02 0.0000000000000000e+00  1.6561759970591569e-13 6.2057601517347606e-02 0.0000000000000000e+00  -5.0235905387543752e-15 6.0986357310632164e-02 0.0000000000000000e+00  2.4524485980781665e-15 6.8986333693392715e-02 0.0000000000000000e+00  1.3550064352241484e-13 6.5973606201871718e-02 0.0000000000000000e+00  2.2871154331753895e-13 7.8784016625370198e-02 0.0000000000000000e+00  6.4787474291695703e-14 7.7691792023933628e-02 0.0000000000000000e+00  5.7979354270933292e-14 7.9383263723363143e-02 0.0000000000000000e+00  2.3832407349705567e-14 7.9859385824355589e-02 0.0000000000000000e+00  9.4794533223555422e-14 7.8071462879403322e-02 0.0000000000000000e+00  -1.2506723578889279e-14 7.9465128524267362e-02 0.0000000000000000e+00  2.6690474876654069e-14 7.9541268146524860e-02 0.0000000000000000e+00  8.4163464095121478e-14 7.8015126819144270e-02 0.0000000000000000e+00  8.3912859876971924e-14 7.7416817992991577e-02 0.0000000000000000e+00  8.6314786842486392e-14 8.2220815775979533e-02 0.0000000000000000e+00  -4.3330046866503538e-14 8.3649071522237828e-02 0.0000000000000000e+00  2.0972227099747038e-14 8.2687221387649071e-02 0.0000000000000000e+00  5.5950540374702305e-14 9.1331833202162371e-02 0.0000000000000000e+00  2.9521993088867255e-14 9.2684350343282193e-02 0.0000000000000000e+00  7.2111986887281114e-14 9.4624836711160232e-02 0.0000000000000000e+00  8.2351465030617893e-14 9.6681744127023406e-02 0.0000000000000000e+00  8.0315899227306148e-14 1.1101532567046088e-01 0.0000000000000000e+00  8.5417973249711808e-14 1.1101532567045706e-01 0.0000000000000000e+00  7.4161264079365121e-14 1.0971000483794398e-01 0.0000000000000000e+00  2.3225398712684958e-13 8.8155774236041304e-02 0.0000000000000000e+00  7.8230038524350988e-14 8.9779896882271462e-02 0.0000000000000000e+00  1.8596075963609737e-13 8.7921970675046493e-02 0.0000000000000000e+00  1.1572374119793998e-13 6.3428564948963331e-02 0.0000000000000000e+00  1.4310962087748909e-13 6.4175349996172248e-02 0.0000000000000000e+00  2.2346697761565410e-13 6.5480154850991262e-02 0.0000000000000000e+00  -1.8813476786748775e-13 6.2096963615821461e-02 0.0000000000000000e+00  9.3742261512380206e-14 7.8366460900738427e-02 0.0000000000000000e+00  8.9833118602792064e-15 8.0379457503967022e-02 0.0000000000000000e+00  2.2195338594102396e-13 7.9057808820767073e-02 0.0000000000000000e+00  6.4591982164751961e-14 6.4286205128396362e-02 0.0000000000000000e+00  9.0477243357786571e-14 6.6233671456000703e-02 0.0000000000000000e+00  7.8152709352907981e-14 1.0555340555680454e-01 0.0000000000000000e+00  5.0176863735332550e-14 1.0370199211443387e-01 0.0000000000000000e+00  4.6759862680570296e-14 1.0823258812552990e-01 0.0000000000000000e+00  6.2984986616538695e-14 1.0603955709146928e-01 0.0000000000000000e+00  8.0044976568560030e-14 1.0754588523132148e-01 0.0000000000000000e+00  7.3381773145542087e-14 1.0660795210778745e-01 0.0000000000000000e+00  9.0119588384057610e-15 8.3541835984255700e-02 0.0000000000000000e+00  1.0989585974957475e-13 8.5339531122379408e-02 0.0000000000000000e+00  -2.6990256700179316e-13 6.7807095805556411e-02 0.0000000000000000e+00  2.4324125423969963e-13 6.9112704266711913e-02 0.0000000000000000e+00  -3.3723977701795280e-13 6.9848240477399501e-02 0.0000000000000000e+00  2.0893493645993577e-13 7.4678577489788261e-02 0.0000000000000000e+00  7.9075747656987688e-14 9.1147538987673887e-02 0.0000000000000000e+00  1.1087301345239428e-13 9.1601778302355663e-02 0.0000000000000000e+00  9.6701423253433793e-14 8.9654832101642365e-02 0.0000000000000000e+00  9.3174121973862638e-14 9.1677637911987672e-02 0.0000000000000000e+00  1.3004568292800791e-13 7.90017413274