<?xml version="1.0"?>
<VTKFile type="UnstructuredGrid"  version="0.1"  >
<UnstructuredGrid>
<Piece  NumberOfPoints="506" NumberOfCells="927">
<Points>
<DataArray  type="Float64"  NumberOfComponents="3"  format="ascii">0.0253163763831596 -0.05095008515408326 0  0.02646635899959049 -0.05225988253257415 0  0.02502149670340228 -0.05243561046763882 0  0.01846824474048517 -0.04149541481145257 0  0.01782868919038702 -0.04338851755545801 0  0.01904305817301197 -0.04274419001873621 0  0.0192363369162766 -0.06806970979678284 0  0.01785689970612189 -0.06858119646279974 0  0.01816465710605705 -0.06729533536873264 0  0.03307580228966352 -0.05623244866465846 0  0.03304454983566926 -0.05808833194342944 0  0.03147362087845901 -0.05656070851086208 0  0.01533533535351063 -0.06979991037261025 0  0.0177806445325376 -0.07005043122102393 0  0.01646203234597888 -0.06811342443084387 0  0.01017345837010273 -0.05769818894326342 0  0.01257096511573747 -0.05741073122222133 0  0.01199697692997241 -0.058984518130708 0  0.01470753125203114 -0.04816506250406229 0  0.01581567795051093 -0.04979263651326838 0  0.01423898291326179 -0.04967510961170915 0  0.05 -0.046875 0  0.04838162252857063 -0.0484375 0  0.04830480312230745 -0.04673855680545282 0  0.03965658412817928 -0.06102022076500465 0  0.03788556172893791 -0.06203052595151176 0  0.04026188792608635 -0.06274413791360257 0  0.03646473132841593 -0.0487266977067035 0  0.03567804538662531 -0.04684423509208469 0  0.03720001892537535 -0.04655850289330472 0  0.03072628767995273 -0.06184751883997637 0  0.03115040578880909 -0.06003372802837696 0  0.03202687516019807 -0.06100224316397799 0  0.01914387172830702 -0.06345432668240811 0  0.01904183715184792 -0.06150750363943223 0  0.01763933584190689 -0.06216030655882796 0  0.0328125 -0.05312500000000001 0  0.03185172221986971 -0.05133039393955258 0  0.03328223773659549 -0.05171902792461655 0  0.003880552158806201 -0.04910058949648512 0  0.004639589519810899 -0.05108934613081326 0  0.005570108460811736 -0.0499414484761177 0  0.03470250342566425 -0.06222309747987002 0  0.03270661615787385 -0.06211766788261659 0  0.03364747500351112 -0.06325105457070009 0  0.0337884473891351 -0.05460718489330078 0  0.0321356245381919 -0.05463308953185839 0  0.0396437922234081 -0.05261372697940805 0  0.03997754446209789 -0.0511507576845467 0  0.04105826602165569 -0.05283533998746703 0  0.0247793305670809 -0.05631957595084435 0  0.02619917778579364 -0.05802778737135143 0  0.02492128034734876 -0.05869428615775265 0  0.02164306295595804 -0.06702658770968295 0  0.02309723803175772 -0.06832518233624925 0  0.02097971601908238 -0.06879409185499595 0  0.01711132032047017 -0.07193570335093875 0  0.01598258986133356 -0.07106798872868814 0  0.01066098305406274 -0.05999515557027461 0  0.01209909079558958 -0.06050787089223954 0  0.01649073826091686 -0.06319659086967212 0  0.01570123454296709 -0.06506178719416507 0  0.01770106090999505 -0.06452207583910662 0  0.01728938824664831 -0.06065342293474459 0  0.002672434464373351 -0.05782442806434116 0  0.004205271826810189 -0.05906909110223223 0  0.003621073244015077 -0.05672544031758242 0  0.009461554335003694 -0.05904950974817084 0  0.03290049244401597 -0.04238139970258363 0  0.03373646600975794 -0.04433173846458283 0  0.03511731072848739 -0.04293786140075419 0  0.04464334080337827 -0.06477056026673604 0  0.04502387202811982 -0.06659229383285178 0  0.04636594091932174 -0.06552590861214863 0  0.003579743803523502 -0.05527424030410576 0  0.00495579046143639 -0.05615428398934548 0  0.01809300284513205 -0.05689299134079161 0  0.01981701831826052 -0.05842591866861049 0  0.01792103282159441 -0.05882232399720749 0  0.01454995940546648 -0.05199794358506395 0  0.01686434304608255 -0.05145915617355584 0  0.007184194424042271 -0.04772337119454249 0  0.009116470808511714 -0.04731590763080268 0  0.007927373114962557 -0.04646231940317579 0  0.02185322155471688 -0.04796886364206988 0  0.02117147262782209 -0.04651482738331746 0  0.02317806061277227 -0.04726948819474937 0  0.03869863810845114 -0.05851213874557144 0  0.04018585363524062 -0.05724246148436949 0  0.03970578764389624 -0.05956444608131971 0  0.01270832488148558 -0.05007117248908488 0  0.01282123189459499 -0.04818811416515179 0  0.01182500023256633 -0.04907329480983055 0  0.04205467609998415 -0.06146564627654705 0  0.04107518642763387 -0.06006088126008405 0  0.04241869617792832 -0.06016796568913897 0  0.01439721346977286 -0.05583102001882564 0  0.01422104128432557 -0.0574728398015178 0  0.02088671269095009 -0.06240702469651116 0  0.0278582381998454 -0.05655080703154879 0  0.02860271266695176 -0.05463752982112181 0  0.02637310899341614 -0.0557118438524549 0  0.02378330144214598 -0.0516705092605356 0  0.02507311958935473 -0.06271161136998743 0  0.02657608507230502 -0.06228073040903606 0  0.02551730029560318 -0.06142426381158862 0  0.0305796626780135 -0.05519119088158705 0  0.0314309378115113 -0.04933875006157912 0  0.03311732503601984 -0.04913370444965118 0  0.0376081921684235 -0.05245551308128505 0  0.03762419922489806 -0.05459874974087802 0  0.03635973676985995 -0.05369008569158945 0  0.04767128262860884 -0.05537540323700023 0  0.04546530640752131 -0.05503961419206276 0  0.04578782911147741 -0.05675321623119051 0  0.03686548041120438 -0.06032818054708596 0  0.036644526860098 -0.05856190909012812 0  0.03769074722308389 -0.05932798700863462 0  0.01172901776142153 -0.07037684730407788 0  0.01149171032184903 -0.07201869888808959 0  0.01024567414151233 -0.07100052562916147 0  0.04321758283034931 -0.06704044172466167 0  0.04133630972986371 -0.06599851068428712 0  0.04130559735643655 -0.06764829107165204 0  0.04313110864619899 -0.06285939600837437 0  0.04345056050076136 -0.06150011966148285 0  0.006734928674614752 -0.05146463867314664 0  0.008637288779891891 -0.05258740018528525 0  0.00688671743750553 -0.05338047456655459 0  0.01132326291384637 -0.05562964572743351 0  0.01288299677436642 -0.05538292627510294 0  0.02073553625659391 -0.06054214652517984 0  0.01913420206319778 -0.05989244632510003 0  0.02307251020656784 -0.04577510415514846 0  0.0213724062387126 -0.04492151990354357 0  0.04141166808534667 -0.05159229946940671 0  0.04316771177950235 -0.05055961249403544 0  0.04178869705860652 -0.05022403725139264 0  0.037033205797572 -0.05682482417137066 0  0.03841317868273451 -0.05712832193281868 0  0.005332838990544739 -0.06042849285714701 0  0.005783754170669378 -0.06253278840008002 0  0.006730960667624127 -0.06048731509119946 0  0.01437979286162626 -0.04363939227738707 0  0.01278171761862835 -0.04367259786063482 0  0.01355286895323156 -0.0423139200217296 0  0.0472227281394374 -0.06404123962307648 0  0.04542281870194612 -0.06345085768052849 0  0.04651019676850526 -0.06237066804404576 0  0.01512933394003292 -0.07220768844695416 0  0.02448333984417315 -0.04800472330961902 0  0.02500654499424886 -0.04669303744947168 0  0.02389766944944421 -0.05336055352824819 0  0.02505789171550941 -0.05462571702396751 0  0.0200352813999171 -0.04944197410413204 0  0.01897132622274226 -0.04818917069836885 0  0.02039596393456947 -0.04786566231201216 0  0.02255522939491745 -0.05050381790686167 0  0.02095559199324484 -0.05077897888898596 0  0.02151442938367597 -0.04940906557037485 0  0.04101455865131804 -0.05412690199292355 0  0.04137242529330159 -0.05622945225612468 0  0.04300194989211428 -0.05554265833234732 0  0.04458359100409873 -0.05142183950571137 0  0.0450942789909098 -0.0535172481422591 0  0.04558556164603902 -0.05228757776095139 0  0.04038356695604921 -0.04718651728124535 0  0.04087499337498022 -0.04913801795025204 0  0.03949842572283077 -0.04854765949591838 0  0.04661131594773271 -0.05312500000000001 0  0.03574277499268416 -0.04107817866960801 0  0.03820043002416379 -0.04093979798944077 0  0.03707928880466434 -0.04292150796345522 0  0.03243759091146019 -0.06496581287053931 0  0.03455716392834415 -0.06440960832956279 0  0.03353474093578226 -0.06589739558154034 0  0.0323993317698328 -0.06678194662539473 0  0.03108390978108366 -0.06594845893192823 0  0.02679267124047066 -0.0428532372923227 0  0.02821806380327154 -0.04112526145165905 0  0.02615798433030357 -0.04116160286013801 0  0.02372950319315786 -0.05788378649075276 0  0.02250150625287546 -0.06335204673888746 0  0.02250509796962503 -0.06529043073346426 0  0.02084932671181944 -0.0642776468381467 0  0.03083821191399366 -0.04255063245582474 0  0.03197162211996991 -0.04371228374323241 0  0.03072615116502058 -0.04446503378680532 0  0.01965556274601837 -0.05175082112889391 0  0.01877450229532074 -0.05042027151892382 0  0.04223301087510136 -0.04569262834787229 0  0.04031932057730703 -0.04493236495192904 0  0.03939012096774194 -0.04309475806451613 0  0.04119780571004474 -0.04209087172511992 0  0.04081367777890351 -0.04352865775540111 0  0.01197199101441062 -0.06755294829741498 0  0.01337340521578251 -0.06909593087496524 0  0.01186406041631937 -0.06896606418534836 0  0.04808091073522938 -0.06576331931689557 0  0.04861206813000137 -0.06395989746230757 0  0.04678717767873879 -0.06718750000000001 0  0.008313665520766877 -0.06005709425733914 0  0.007768576962588843 -0.05771474349345229 0  0.00657822564587902 -0.05909631678341087 0  0.01354726629139471 -0.05961923898792222 0  0.003215512932028335 -0.04739683855119951 0  0.002603650539220802 -0.04934298948539233 0  0.002176752981164273 -0.0505705863148308 0  0.01395860158789553 -0.06402955474289401 0  0.01448547405983569 -0.06574069725137739 0  0.01349893281808287 -0.07116271226355417 0  0.04717288172427113 -0.0578125 0  0.04846232952183962 -0.05680668843943944 0  0.04858644086213557 -0.05859375 0  0.03479367289758345 -0.04895195240542109 0  0.02934782918035935 -0.04845372965486152 0  0.03107876921314726 -0.04727360457566997 0  0.03580429802300419 -0.04480791474934491 0  0.03387767081518499 -0.04110627416298633 0  0.031751809693708 -0.04128127335665044 0  0.02805149774555685 -0.05153506231567133 0  0.02853879771183543 -0.04983387946955761 0  0.02677174314827488 -0.05083202728684691 0  0.03031862075128205 -0.05266953722613586 0  0.029
[...]
<PointData  Vectors="displacement"> 
<DataArray  type="Float64"  Name="displacement"  NumberOfComponents="3" format="ascii">-3.0415717453138091e-12 5.4452922708071491e-02 0.0000000000000000e+00  2.9966933432655237e-12 5.2998846882265818e-02 0.0000000000000000e+00  2.0329994810781284e-12 5.2803761944017480e-02 0.0000000000000000e+00  -4.5276109702376292e-13 6.4949055778561499e-02 0.0000000000000000e+00  -9.2992572074295538e-13 6.2847421602313464e-02 0.0000000000000000e+00  3.3199876086552574e-12 6.3562723916278679e-02 0.0000000000000000e+00  7.6696170240924135e-13 3.5447515658036999e-02 0.0000000000000000e+00  9.4564371471168781e-13 3.4879687070602475e-02 0.0000000000000000e+00  -7.1290296915131732e-13 3.6307189949655580e-02 0.0000000000000000e+00  1.4838487811630282e-12 4.8588689653106788e-02 0.0000000000000000e+00  1.1631258955363949e-13 4.6528374785387835e-02 0.0000000000000000e+00  -3.8282937012117818e-12 4.8224270916009560e-02 0.0000000000000000e+00  1.3909762461280652e-13 3.3526727852747712e-02 0.0000000000000000e+00  1.7251557614599210e-12 3.3248611315735956e-02 0.0000000000000000e+00  2.2234923723864606e-13 3.5398985711838027e-02 0.0000000000000000e+00  -1.0308925383981941e-12 4.6961493309470498e-02 0.0000000000000000e+00  5.2375382834167018e-13 4.7280615434760899e-02 0.0000000000000000e+00  5.0886050431657946e-12 4.5533470771462317e-02 0.0000000000000000e+00  -2.6004510243489871e-13 5.7544724671880668e-02 0.0000000000000000e+00  -5.9158826651417343e-13 5.5737868085505397e-02 0.0000000000000000e+00  5.1320649385188537e-13 5.5868340957852591e-02 0.0000000000000000e+00  1.0626107804406655e-29 5.8976891761294420e-02 0.0000000000000000e+00  3.5134712061047073e-13 5.7242277299009985e-02 0.0000000000000000e+00  -3.0339153980880706e-13 5.9128364619176664e-02 0.0000000000000000e+00  5.8318462390372499e-14 4.3273528862905648e-02 0.0000000000000000e+00  1.1270976788761278e-13 4.2151935270053384e-02 0.0000000000000000e+00  -4.0298078950269778e-13 4.1359716626536105e-02 0.0000000000000000e+00  -1.6343853229217749e-12 5.6921223525693496e-02 0.0000000000000000e+00  5.0739131353148127e-13 5.9011045525829128e-02 0.0000000000000000e+00  3.4381749876147965e-12 5.9328252054066194e-02 0.0000000000000000e+00  -2.1539144225664074e-12 4.2355101211144913e-02 0.0000000000000000e+00  1.4025704348427724e-12 4.4368686988083501e-02 0.0000000000000000e+00  1.5297188790039839e-13 4.3293486751953020e-02 0.0000000000000000e+00  2.0876665390953924e-12 4.0571298250800199e-02 0.0000000000000000e+00  -4.2743940705354827e-12 4.2732570193117846e-02 0.0000000000000000e+00  1.9675638573234346e-12 4.2007858906040418e-02 0.0000000000000000e+00  1.4089669830289643e-12 5.2038433907158121e-02 0.0000000000000000e+00  -2.1925370222302016e-12 5.4030721667948721e-02 0.0000000000000000e+00  1.9886578227793275e-12 5.3599278391339503e-02 0.0000000000000000e+00  3.5189511260810469e-13 5.6506146334984256e-02 0.0000000000000000e+00  3.3713867475940268e-13 5.4298321680312102e-02 0.0000000000000000e+00  3.9529274736576326e-13 5.5572664000130910e-02 0.0000000000000000e+00  3.8106139638850695e-14 4.1938151360240247e-02 0.0000000000000000e+00  8.4158383403988278e-15 4.2055194370701363e-02 0.0000000000000000e+00  4.1779131269613165e-13 4.0796961448929053e-02 0.0000000000000000e+00  1.5485761317420501e-12 5.0392981526305801e-02 0.0000000000000000e+00  -6.0332730128912269e-13 5.0364223398171315e-02 0.0000000000000000e+00  1.3274469338216155e-12 5.2606025317788907e-02 0.0000000000000000e+00  2.5729561550613981e-13 5.4230145445351131e-02 0.0000000000000000e+00  7.9780163935111967e-13 5.2360000913809573e-02 0.0000000000000000e+00  -3.2801291993956194e-12 4.8491965007873311e-02 0.0000000000000000e+00  -2.4457466393983050e-12 4.6595588543212274e-02 0.0000000000000000e+00  1.3779941663213483e-12 4.5855672745101751e-02 0.0000000000000000e+00  -1.0763925423342925e-13 3.6605541039135346e-02 0.0000000000000000e+00  7.8743918986848599e-14 3.5163901984119499e-02 0.0000000000000000e+00  -7.4398088238395110e-14 3.4643340555992053e-02 0.0000000000000000e+00  -8.7068907234250797e-13 3.1155670322115876e-02 0.0000000000000000e+00  1.8229107138442107e-13 3.2118966536599444e-02 0.0000000000000000e+00  -1.6280563591013523e-12 4.4411508327969203e-02 0.0000000000000000e+00  -3.5574955496649668e-12 4.3842315745405556e-02 0.0000000000000000e+00  5.0750013932470973e-13 4.0857424502553051e-02 0.0000000000000000e+00  4.1064210341350792e-13 3.8786770729876137e-02 0.0000000000000000e+00  -1.7072071033584812e-12 3.9385933048373005e-02 0.0000000000000000e+00  -1.5454099673611698e-12 4.3680730670451043e-02 0.0000000000000000e+00  2.2778565063643354e-13 4.6821348537994668e-02 0.0000000000000000e+00  8.0715741986500048e-13 4.5439581812694578e-02 0.0000000000000000e+00  5.0056307881292609e-13 4.8041393363460257e-02 0.0000000000000000e+00  4.3368269648660569e-12 4.5461320114917055e-02 0.0000000000000000e+00  -1.5877437342845563e-13 6.3965476767450166e-02 0.0000000000000000e+00  -5.2087583276781089e-14 6.1800301838469060e-02 0.0000000000000000e+00  2.0396886456833403e-13 6.3347718999614888e-02 0.0000000000000000e+00  -1.0835179338394321e-13 3.9110077251739150e-02 0.0000000000000000e+00  -7.5835836208216359e-15 3.7087673800200491e-02 0.0000000000000000e+00  3.6113697640756791e-13 3.8271524825658591e-02 0.0000000000000000e+00  2.9798248753310856e-13 4.9652447785038870e-02 0.0000000000000000e+00  5.2342281371234598e-14 4.8675464421994358e-02 0.0000000000000000e+00  3.6938692631979485e-12 4.7855386050004445e-02 0.0000000000000000e+00  -1.1448804694745651e-12 4.6153601783429608e-02 0.0000000000000000e+00  -3.5878041032465610e-13 4.5713531121816642e-02 0.0000000000000000e+00  -2.5608571609757289e-13 5.3289639257115280e-02 0.0000000000000000e+00  -3.5675767338541211e-13 5.3887775856608415e-02 0.0000000000000000e+00  3.6889305987159943e-13 5.8035069717429152e-02 0.0000000000000000e+00  4.9793998105174826e-13 5.8487416719911603e-02 0.0000000000000000e+00  9.8895279883399761e-14 5.9435030470729421e-02 0.0000000000000000e+00  1.2928557274883071e-13 5.7762535478067339e-02 0.0000000000000000e+00  -3.5824157313826842e-13 5.9376738564855869e-02 0.0000000000000000e+00  1.1709267077180263e-12 5.8538949407234607e-02 0.0000000000000000e+00  -8.5093180965129037e-13 4.6057884284418801e-02 0.0000000000000000e+00  -4.7698235980821474e-13 4.7467420631821938e-02 0.0000000000000000e+00  1.1956587306141679e-13 4.4889661868104447e-02 0.0000000000000000e+00  2.3134287656537089e-13 5.5428650464087126e-02 0.0000000000000000e+00  -1.1086602187585168e-13 5.7519133795190233e-02 0.0000000000000000e+00  3.1514713806729953e-13 5.6536447619768886e-02 0.0000000000000000e+00  1.0037518883704186e-13 4.2779038280442237e-02 0.0000000000000000e+00  1.2362609785524433e-13 4.4338542739464151e-02 0.0000000000000000e+00  -9.4508434787164079e-13 4.4219662611707421e-02 0.0000000000000000e+00  3.0062424495492721e-13 4.9034336972515295e-02 0.0000000000000000e+00  2.2210541929771418e-12 4.7211665391951298e-02 0.0000000000000000e+00  2.8745729676521615e-12 4.1733963960636764e-02 0.0000000000000000e+00  -4.5488259409198684e-13 4.8235263071872932e-02 0.0000000000000000e+00  1.0332527953865458e-12 5.0359294002906466e-02 0.0000000000000000e+00  1.6071046400477029e-12 4.9166640779340361e-02 0.0000000000000000e+00  -2.4514447310071754e-13 5.3653141536536109e-02 0.0000000000000000e+00  -3.6868232757253620e-12 4.1395826070653570e-02 0.0000000000000000e+00  1.0992400244415459e-13 4.1874169978934950e-02 0.0000000000000000e+00  2.5156754244942528e-12 4.2824979158559894e-02 0.0000000000000000e+00  2.6820312556174534e-12 4.9744645372334542e-02 0.0000000000000000e+00  1.1411323500580797e-12 5.6241751608368647e-02 0.0000000000000000e+00  4.1009061270136539e-13 5.6469383662654735e-02 0.0000000000000000e+00  7.3009048417183666e-14 5.2781666991717720e-02 0.0000000000000000e+00  3.2544711839615875e-13 5.0402345832324370e-02 0.0000000000000000e+00  6.2386124405856309e-12 5.1411102191488804e-02 0.0000000000000000e+00  -9.2849785483469751e-13 4.9540141425156725e-02 0.0000000000000000e+00  1.2064386960281104e-12 4.9912918727826633e-02 0.0000000000000000e+00  9.3093049918972372e-13 4.8010557842532463e-02 0.0000000000000000e+00  5.6645508618988726e-13 4.4041799564924267e-02 0.0000000000000000e+00  6.0973048088306918e-14 4.6002631574887758e-02 0.0000000000000000e+00  -2.5770502338462221e-13 4.5152167679737738e-02 0.0000000000000000e+00  -3.9135094885976150e-13 3.2886239439245527e-02 0.0000000000000000e+00  3.9870924091313829e-13 3.1063532555250264e-02 0.0000000000000000e+00  7.2962672249019268e-13 3.2193860915544159e-02 0.0000000000000000e+00  1.4738930140334908e-13 3.6590160958782945e-02 0.0000000000000000e+00  7.3346016367642711e-15 3.7746864096438966e-02 0.0000000000000000e+00  1.2368114931600861e-13 3.5915355026623158e-02 0.0000000000000000e+00  1.8898573363430159e-13 4.1231762477060875e-02 0.0000000000000000e+00  -3.4679354965234075e-13 4.2740767539615754e-02 0.0000000000000000e+00  3.9961835015493635e-13 5.3881689442484691e-02 0.0000000000000000e+00  5.1114673512367765e-13 5.2635252092714475e-02 0.0000000000000000e+00  4.3012252216722779e-13 5.1754817986138166e-02 0.0000000000000000e+00  9.7834861624262207e-13 4.9257893296332914e-02 0.0000000000000000e+00  -1.4107111279712326e-12 4.9531789698752340e-02 0.0000000000000000e+00  1.0576003280359443e-12 4.3804264536696350e-02 0.0000000000000000e+00  1.3570966050177182e-12 4.4525531328076039e-02 0.0000000000000000e+00  -4.1247631864145039e-13 6.0197944716228149e-02 0.0000000000000000e+00  2.7649799142487308e-13 6.1145554053711478e-02 0.0000000000000000e+00  3.2342070803036309e-13 5.3739966392633842e-02 0.0000000000000000e+00  -1.1057157784055742e-13 5.4886407203127249e-02 0.0000000000000000e+00  4.0667355244779091e-14 5.5258947150920140e-02 0.0000000000000000e+00  -8.7319676352374537e-13 4.7931062056514803e-02 0.0000000000000000e+00  1.4289074384835672e-12 4.7594133026875617e-02 0.0000000000000000e+00  -2.0288081461176745e-13 4.3930437527777449e-02 0.0000000000000000e+00  -1.0184706710724401e-15 4.1594346977866278e-02 0.0000000000000000e+00  1.5487563285609676e-12 4.3865135833655915e-02 0.0000000000000000e+00  3.2561804632604049e-14 6.2568912213627245e-02 0.0000000000000000e+00  -9.0789915884766440e-13 6.2532048926692438e-02 0.0000000000000000e+00  1.0543862410884589e-12 6.4040389553650309e-02 0.0000000000000000e+00  -9.5653631391136659e-14 3.9919734939484371e-02 0.0000000000000000e+00  8.3304027873234432e-15 4.0575149375158263e-02 0.0000000000000000e+00  3.0302885597808095e-13 4.1774325418241498e-02 0.0000000000000000e+00  2.8102150711780734e-13 3.0853725181265342e-02 0.0000000000000000e+00  -1.3962850262045237e-12 5.7722725750961483e-02 0.0000000000000000e+00  -5.9624533071231124e-13 5.9178898081189854e-02 0.0000000000000000e+00  -4.6920451081962499e-12 5.1776933392622834e-02 0.0000000000000000e+00  3.9331961982109671e-12 5.0372408017607860e-02 0.0000000000000000e+00  8.4697773063462041e-14 5.6127157103459453e-02 0.0000000000000000e+00  -6.6478357942000039e-13 5.7517960881699533e-02 0.0000000000000000e+00  -2.5319248680092447e-13 5.7877104770289366e-02 0.0000000000000000e+00  2.1913082747299616e-13 5.4948347746531387e-02 0.0000000000000000e+00  -3.8669925670056346e-13 5.4642876884965455e-02 0.0000000000000000e+00  1.7157901033712850e-12 5.6163690615961513e-02 0.0000000000000000e+00  4.0272070942077081e-14 5.0926169148275545e-02 0.0000000000000000e+00  -3.4830661540442078e-13 4.8592016123845942e-02 0.0000000000000000e+00  9.5709951524170059e-13 4.9354462635401837e-02 0.0000000000000000e+00  -5.9243202324090732e-13 5.3929203075763689e-02 0.0000000000000000e+00  -2.8394632372046147e-13 5.1602978355076844e-02 0.0000000000000000e+00  7.4374238629740933e-13 5.2968100936431450e-02 0.0000000000000000e+00  7.0941190827691036e-13 5.8631059835611427e-02 0.0000000000000000e+00  -1.8954109329802274e-12 5.6464595014884572e-02 0.0000000000000000e+00  -1.8606327249933820e-12 5.7119983378139866e-02 0.0000000000000000e+00  -3.2323989595953178e-13 5.2038433906795196e-02 0.0000000000000000e+00  -7.8682362959477085e-13 6.5412251841915584e-02 0.0000000000000000e+00  2.4703840214191499e-13 6.5565875603328730e-02 0.0000000000000000e+00  -6.5902537229245572e-13 6.3365873821287805e-02 0.0000000000000000e+00  1.9729438625464947e-13 3.8893316937491117e-02 0.0000000000000000e+00  -1.3320397003439030e-13 3.9510789220405025e-02 0.0000000000000000e+00  7.8432226335137497e-13 3.7859117357723709e-02 0.0000000000000000e+00  8.5159293575384050e-13 3.6877130134357193e-02 0.0000000000000000e+00  1.2453662285297701e-12 3.7802429211807063e-02 0.0000000000000000e+00  -1.8014321074144869e-12 6.3441664726517980e-02 0.0000000000000000e+00  8.7438782436974838e-13 6.5359982736812400e-02 0.0000000000000000e+00  1.4272372806121447e-12 6.5319638204091549e-02 0.0000000000000000e+00  -5.3108444841728314e-12 4.6755451591401355e-02 0.0000000000000000e+00  2.7669769869987074e-12 4.0684844663370426e-02 0.0000000000000000e+00  6.9605075595703840e-13 3.8532941360810050e-02 0.0000000000000000e+00  -1.2810742838548073e-12 3.9657286699756329e-02 0.0000000000000000e+00  4.5282112431078712e-13 6.3777602474817938e-02 0.0000000000000000e+00  7.6616736800863589e-13 6.2487991511757719e-02 0.0000000000000000e+00  -1.9377211194627995e-12 6.1652323604358739e-02 0.0000000000000000e+00  -7.6388915418349746e-13 5.3563983058466574e-02 0.0000000000000000e+00  -1.3459813160820150e-12 5.5041097039398204e-02 0.0000000000000000e+00  1.0438155599998365e-12 6.0289505503252440e-02 0.0000000000000000e+00  -9.1907910319331444e-13 6.1133514388135017e-02 0.0000000000000000e+00  -6.2117694495535517e-13 6.3173539659674552e-02 0.0000000000000000e+00  2.8125097263562271e-13 6.4288007347233264e-02 0.0000000000000000e+00  1.1174071243186640e-12 6.2691844502115818e-02 0.0000000000000000e+00  1.0877813957801711e-12 3.6021200117978970e-02 0.0000000000000000e+00  1.9632217272686298e-13 3.4308252983448119e-02 0.0000000000000000e+00  6.7576667738642097e-13 3.4452424914327089e-02 0.0000000000000000e+00  -4.5990646903092993e-14 3.8007962558717107e-02 0.0000000000000000e+00  4.0337129073477416e-13 4.0010037204127213e-02 0.0000000000000000e+00  -1.6988321225941536e-13 3.6426903735622726e-02 0.0000000000000000e+00  3.5282143285199537e-13 4.4342746893867177e-02 0.0000000000000000e+00  -6.5984168739346839e-13 4.6943115221491541e-02 0.0000000000000000e+00  1.2624967064621260e-12 4.5409357133308938e-02 0.0000000000000000e+00  3.8089702458451610e-13 4.4828833346677137e-02 0.0000000000000000e+00  -6.3725551337160485e-14 5.8397570995580204e-02 0.0000000000000000e+00  4.5325480503986269e-13 5.6237045197069277e-02 0.0000000000000000e+00  2.1963119299228019e-14 5.4874224579563979e-02 0.0000000000000000e+00  1.8517398672412043e-14 3.9932706946430252e-02 0.0000000000000000e+00  -1.2910601141600554e-13 3.8033076518382843e-02 0.0000000000000000e+00  9.7432063872957712e-13 3.2013808895307264e-02 0.0000000000000000e+00  8.8449054410811810e-14 4.6834590516532659e-02 0.0000000000000000e+00  1.0088925179947821e-12 4.7951195495767797e-02 0.0000000000000000e+00  1.0695162234355080e-13 4.5967283284491706e-02 0.0000000000000000e+00  -3.5338128679634770e-14 5.6671156282670082e-02 0.0000000000000000e+00  -1.2779545623071377e-12 5.7224259893069042e-02 0.0000000000000000e+00  -8.4562463517363615e-13 5.8534379595778258e-02 0.0000000000000000e+00  -2.7393894524451467e-13 6.1271673184983534e-02 0.0000000000000000e+00  1.1248118916384918e-12 6.5381061537618593e-02 0.0000000000000000e+00  -1.6187527958149229e-12 6.5186785610419434e-02 0.0000000000000000e+00  -7.8397788234303572e-13 5.3803508405531469e-02 0.0000000000000000e+00  3.7905209479123844e-12 5.5692082084742876e-02 0.0000000000000000e+00  4.3898141703697956e-13 5.4583985033138757e-02 0.0000000000000000e+00  3.2794046584442872e-12 5.2544067390410329e-02 0.0000000000000000e+00  -2.6512059219207638e-13 5.4755097325405989e-02 0.0000000000000000e+00  -7.9713466372769943e-13 5.8210864226926791e-02 0.0000000000000000e+00  -7.9716606564812347e-13 4.0468252978165128e-02 0.0000000000000000e+00  2.3507980152655529e-12 4.1613231769556794e-02 0.0000000000000000e+00  1.8296429113025116e-13 3.5031304642748222e-02 0.0000000000000000e+00  8.6490549860786253e-14 3.5526327046435879e-02 0.0000000000000000e+00  1.5804513716439764e-14 3.6646543936925124e-02 0.0000000000000000e+00  1.0437739085130095e-13 4.0522150872568857e-02 0.0000000000000000e+00  6.1880292042615632e-13 4.2283050235685446e-02 0.0000000000000000e+00  1.3339552064356531e-12 5.6647692718367157e-02 0.0000000000000000e+00  1.7490726288508451e-12 5.5532337788388016e-02 0.0000000000000000e+00  3.0625652231558153e-13 5.1275657723953469e-02 0.0000000000000000e+00  -1.5351724256268854e-12 5.1396808900099657e-02 0.0000000000000000e+00  2.2433594366422039e-12 5.2806242941224268e-02 0.0000000000000000e+00  3.9076174378727017e-13 5.6355427050890909e-02 0.0000000000000000e+00  -1.9147872166196421e-13 5.9216402717437396e-02 0.0000000000000000e+00  2.5537166786310699e-13 3.8529626504329235e-02 0.0000000000000000e+00  1.2333131451692611e-12 5.0322344406129010e-02 0.0000000000000000e+00  -3.2847986302993389e-13 5.1044494044727606e-02 0.0000000000000000e+00  3.5976272017242236e-13 5.5702496256491978e-02 0.0000000000000000e+00  2.7729677497560833e-14 5.6893015655645987e-02 0.0000000000000000e+00  6.8804027971165974e-14 5.7027844358158587e-02 0.0000000000000000e+00  4.2102222798550486e-14 6.0767093631158085e-02 0.0000000000000000e+00  7.4246809431676693e-13 6.2059223288124570e-02 0.0000000000000000e+00  -6.6750344021646810e-13 5.9836364984311448e-02 0.0000000000000000e+00  -2.5296041322216353e-12 4.4323380451462301e-02 0.0000000000000000e+00  1.0938486388615105e-12 4.3539240758125750e-02 0.0000000000000000e+00  -1.9198000215930454e-12 3.6188824906859707e-02 0.0000000000000000e+00  -1.1021458376235723e-12 3.7074015379765152e-02 0.0000000000000000e+00  6.0177133302619205e-14 5.0853872438520131e-02 0.0000000000000000e+00  2.5219921543537670e-13 4.8701793649737514e-02 0.0000000000000000e+00  -2.9009431860504056e-14 4.7830158089609519e-02 0.0000000000000000e+00  -3.1373221909261246e-12 4.8980004031725997e-02 0.0000000000000000e+00  4.3858654046479116e-12 4.6436114443839237e-02 0.0000000000000000e+00  -3.1273088832980143e-12 4.5404542955687313e-02 0.0000000000000000e+00  5.3405158865140173e-13 5.6076568487600204e-02 0.0000000000000000e+00  -1.9698340543417202e-13 5.8499045217656857e-02 0.0000000000000000e+00  -8.1984775508390195e-14 3.3806956794844301e-02 0.0000000000000000e+00  -1.4906843428044127e-13 3.4878887090085173e-02 0.0000000000000000e+00  2.6083131571131740e-13 3.5484183935893400e-02 0.0000000000000000e+00  8.0374091077913675e-14 3.8030058294959514e-02 0.0000000000000000e+00  3.8947325810893880e-13 3.9294554318443961e-02 0.0000000000000000e+00  -8.2104956451568711e-14 3.4487555608926600e-02 0.0000000000000000e+00  -6.4543254395002086e-13 3.8513619101489482e-02 0.0000000000000000e+00  -1.1747422833714578e-12 3.6423120928176747e-02 0.0000000000000000e+00  2.2533520661687049e-13 3.5819886199385059e-02 0.0000000000000000e+00  2.5840619504310468e-12 3.7763147127210336e-02 0.0000000000000000e+00  1.6396794862422919e-13 5.7665952139460686e-02 0.0000000000000000e+00  3.4814993783065661e-13 5.6121568155595901e-02 0.0000000000000000e+00  -8.3136699835382819e-13 6.4180735152889704e-02 0.0000000000000000e+00  -2.6201703860613216e-13 6.2533346991832675e-02 0.0000000000000000e+00  -5.4510944108871053e-14 6.4019115228862916e-02 0.0000000000000000e+00  5.8358962858808263e-13 6.0711506225684740e-02 0.0000000000000000e+00  -1.1927514310364210e-12 6.1434444137448113e-02 0.0000000000000000e+00  3.4536981099757224e-13 5.9827018275448077e-02 0.0000000000000000e+00  -5.0625891485167029e-14 6.4608067030916344e-02 0.0000000000000000e+00  9.3006162582694666e-13 6.2993234732756725e-02 0.0000000000000000e+00  3.1780139792718512e-13 5.9047695162284163e-02 0.0000000000000000e+00  -4.7151469984873996e-14 6.