<?xml version="1.0"?>
<VTKFile type="UnstructuredGrid"  version="0.1"  >
<UnstructuredGrid>
<Piece  NumberOfPoints="546" NumberOfCells="1002">
<Points>
<DataArray  type="Float64"  NumberOfComponents="3"  format="ascii">0.01263888697332505 -0.07850851049115726 0  0.01156618300102526 -0.08035095936378936 0  0.01063628931142468 -0.07857606263072298 0  0.03742133235740961 -0.09005672929239181 0  0.03821948520829777 -0.08878625345726171 0  0.03882498194897689 -0.09005259581168121 0  0.02831316747097568 -0.08353943177895332 0  0.02680418453963673 -0.08396552000116861 0  0.02856782985571023 -0.08503864443391608 0  0.02197300492838798 -0.07785849992225746 0  0.0236515119744492 -0.07882937295138227 0  0.02399582230499316 -0.07726175314528801 0  0.03830062369057925 -0.07890970096328502 0  0.04001413922274079 -0.07947217220789768 0  0.0394739904630113 -0.07822641714535092 0  0.01008019185444602 -0.0897030704995445 0  0.01216681726782447 -0.08857720631714282 0  0.01204980799896014 -0.09085690702402351 0  0.01427753806508674 -0.08965722182118722 0  0.01499662781635355 -0.09120498855657148 0  0.01375614872125667 -0.09084038570529977 0  0.02454468748321089 -0.07169143887984709 0  0.02436733001795869 -0.07015802637527714 0  0.02295612571718715 -0.0715890179003351 0  0.04364884417698481 -0.07754216050898051 0  0.04382140937462677 -0.07954037552804112 0  0.0421967587521993 -0.07768066254010801 0  0.03348214285714286 -0.08348214285714287 0  0.03423230346285393 -0.08200465277485418 0  0.03243162425094744 -0.08246417709341107 0  0.01719551374627341 -0.0830513925183794 0  0.01933763519132608 -0.08192062756666578 0  0.01921813111793967 -0.08404606885628335 0  0.01400809758125955 -0.08758125694359854 0  0.01289591636702387 -0.089754840573112 0  0.03188613320287887 -0.09091108404481391 0  0.0300036120570274 -0.09202382523642311 0  0.03071003455387907 -0.09027106838440507 0  0.03949346768185091 -0.08799370978142433 0  0.04083982813554821 -0.0893700658764271 0  0.02938595614515601 -0.08632050280733992 0  0.03040971863707885 -0.08765127485705719 0  0.02890982094386123 -0.08799498718573706 0  0.04345783710819453 -0.09110483561269606 0  0.04497005514864892 -0.09093463669157506 0  0.0430759581110159 -0.08978773661708545 0  0.02057363836381549 -0.07561467685960577 0  0.01923138543540909 -0.07596279202513538 0  0.0201836820135381 -0.07437805413953116 0  0.03169978531106885 -0.08534923982812244 0  0.0331891491596804 -0.0863907328258092 0  0.03075063691921128 -0.08632983044099815 0  0.03505406134441619 -0.08335106406575787 0  0.03311297132996835 -0.08491400694606925 0  0.02804257120035339 -0.07849071976552029 0  0.03034478515829682 -0.07792111926930155 0  0.02892546366582221 -0.07680880088540872 0  0.02416154146863935 -0.08070016162395202 0  0.0224843414054342 -0.08250864398128172 0  0.02411024678398856 -0.08233455566936589 0  0.025334823172674 -0.08341820123348352 0  0.02522643562136178 -0.08512845143297179 0  0.04500704918173798 -0.08941332064415353 0  0.0468279944940574 -0.09080811063091072 0  0.04534211210420257 -0.09241021952437389 0  0.04670060681091085 -0.09670060681091086 0  0.04504539898905737 -0.09601953464091741 0  0.04639081665769942 -0.09510162937447562 0  0.03694482364888862 -0.07483282559208632 0  0.03610885884382378 -0.07281806235528819 0  0.03807023319162758 -0.07320682963349499 0  0.02958027680234551 -0.07172324007054222 0  0.02856154711422706 -0.07386136174728263 0  0.02755543059494003 -0.07239631376986599 0  0.03639778858618781 -0.07619102435699082 0  0.0384705842660954 -0.07508656202965074 0  0.04684624656174251 -0.07187500000000001 0  0.04842312328087126 -0.07343340336823168 0  0.04685549256184014 -0.07344263060849651 0  0.04337196116786825 -0.07463925880684733 0  0.04210124169070797 -0.07622511749289544 0  0.04354979210673399 -0.07608378292408841 0  0.03637679552963742 -0.07765509762578199 0  0.0385769480595515 -0.0766296156204922 0  0.02736491626781095 -0.07590524263897044 0  0.02687859119369121 -0.07741425412276508 0  0.009435764744425919 -0.08043238240966273 0  0.00926086646052551 -0.08713687094856779 0  0.01084917183279576 -0.08758400344942135 0  0.009765258461052893 -0.08838972595063958 0  0.025 -0.1 0  0.02574660752638188 -0.09831523885802962 0  0.02425762309203308 -0.09845112215652949 0  0.02717161535066178 -0.09714682300539645 0  0.02814040517327717 -0.09840897789012983 0  0.0287187101773846 -0.09677522339481145 0  0.01875 -0.09260679016400503 0  0.01746426634563599 -0.0946966824898527 0  0.02000489244543809 -0.09471513491297798 0  0.04446421559415197 -0.08718473081338503 0  0.04367940145364908 -0.0885562994627993 0  0.02063243529930224 -0.08719964433792667 0  0.01908514024155837 -0.0863776329894482 0  0.0199696387685163 -0.08525850927813482 0  0.006250000000000001 -0.08914373740925415 0  0.007964066885959199 -0.090800007287408 0  0.008299592740779536 -0.0888576775342028 0  0.008695080668314235 -0.07807940410525299 0  0.0155154430127655 -0.07780260757679426 0  0.01598440846056885 -0.07579471522088828 0  0.01473201805325772 -0.07656091781105955 0  0.03660603257347798 -0.08363301208285871 0  0.03867852709227757 -0.08328665052822476 0  0.03686505600937307 -0.08180844633712978 0  0.03556210456271347 -0.08208668761276301 0  0.05 -0.08437500000000001 0  0.05 -0.0859375 0  0.04860490583514159 -0.08575133884125646 0  0.04553386586880761 -0.08075612830980353 0  0.04441800636074661 -0.08248315021781349 0  0.0457909677211155 -0.08214624565084092 0  0.04210310889254143 -0.08866781429134733 0  0.04143681828516032 -0.09324577512300852 0  0.04028474823910268 -0.09217836090091314 0  0.04215449354704975 -0.0918988737706147 0  0.02353466441496152 -0.07572444547906115 0  0.02206053129225047 -0.07549746227010537 0  0.02286879863971965 -0.07432437058595016 0  0.03419217537052396 -0.09402564429600242 0  0.03559757304728373 -0.09285131497116357 0  0.03429324813307534 -0.09271847386402299 0  0.03956847501260272 -0.09552117233795018 0  0.03805996984719173 -0.09658899459631076 0  0.04047475625143419 -0.09699905835395513 0  0.021875 -0.09630339508200252 0  0.02335217755244849 -0.09453533706230265 0  0.02164218989516194 -0.09394860151095942 0  0.02801599660666901 -0.09111197895245939 0  0.02801963102625338 -0.09364296901250888 0  0.02628176258387535 -0.09237996689571155 0  0.02253985872597661 -0.09237936377706879 0  0.02062850538455265 -0.09221938595856524 0  0.02242496556936416 -0.09046477137638677 0  0.01187454317038147 -0.09313287027544383 0  0.009910112500182363 -0.09198184781439322 0  0.01688858667846797 -0.09056366599870737 0  0.01764947219127456 -0.09173994572038108 0  0.01625296255263216 -0.09179990316518254 0  0.02697966311363632 -0.07071490726518369 0  0.02609227306527468 -0.0696292428199545 0  0.0278269162131673 -0.06895195205344769 0  0.02605302166616394 -0.07334573645615944 0  0.02424416368163389 -0.07395314126881693 0  0.02629553281523661 -0.0748373994305143 0  0.02304765214605689 -0.08425167778391449 0  0.02674041402623413 -0.08553220886045218 0  0.02774713882407576 -0.08698701816670062 0  0.0180017596950669 -0.07990004588807104 0  0.01961158282036853 -0.07814826220849896 0  0.01788910098074691 -0.07818094157394692 0  0.02061992817115868 -0.08305880541037541 0  0.02070031550459481 -0.08167682264990829 0  0.02970767836655067 -0.09552881632074735 0  0.02730891305492326 -0.09532550536422786 0  0.03207920091081376 -0.08782980447886177 0  0.03194967090723326 -0.08936837677953377 0  0.03168778796663628 -0.09223868535998714 0  0.03357330044966135 -0.08821922624794785 0  0.04686470104227086 -0.07501026143783775 0  0.04825304035632092 -0.07674812451049505 0  0.04669563736793854 -0.07656881046473733 0  0.0450928172781495 -0.07775830671609242 0  0.025 -0.06875000000000001 0  0.02667407024001682 -0.06835345269888123 0  0.02543721539204963 -0.07608124881349417 0  0.0125 -0.1 0  0.0109375 -0.09841128814130186 0  0.01246317096784876 -0.09783892639182749 0  0.04495896917553115 -0.07156372452692503 0  0.04605668764667573 -0.07078516954377073 0  0.04393038059928881 -0.0857332574576833 0  0.0428158667599428 -0.08754642106528769 0  0.03221917584393987 -0.07213630776030797 0  0.03113792071697103 -0.07040805974324374 0  0.03275835058135572 -0.069768389810276 0  0.02875062544373486 -0.07533420221239408 0  0.02729742967311976 -0.07365149246096568 0  0.01807873790021638 -0.08781185019060267 0  0.0161096756288325 -0.088593513415249 0  0.01659128493613079 -0.086935787868913 0  0.02210989970907484 -0.08621085361415046 0  0.02317961095949602 -0.08712881835118516 0  0.02191870350157453 -0.08762026643638271 0  0.01179919481827354 -0.08623489346281316 0  0.01349963178219429 -0.08593027521196091 0  0.01149399840999109 -0.08468367462389963 0  0.01522637390923149 -0.08587889648352846 0  0.01610567133630874 -0.08439183027780817 0  0.01470208406690262 -0.08456538963721666 0  0.01349267938609449 -0.07577377880835154 0  0.01170516222480349 -0.07472039534385352 0  0.01203391992632195 -0.07620585356677018 0  0.01309433409399386 -0.07710744596856833 0  0.01160410178989929 -0.07754957646168527 0  0.04073902625376655 -0.07773311114842162 0  0.04181753717862587 -0.07945588747012097 0  0.03494853149871441 -0.07598220592097449 0  0.01535380637842265 -0.08747509280206515 0  0.01448543107539198 -0.07407078558366757 0  0.01880866011394939 -0.07464213673518118 0  0.04535460376886166 -0.07919470684593669 0  0.04673823607916674 -0.079826857186824 0  0.04804717473543341 -0.08445910057906754 0  0.04669872692324387 -0.084778557186234 0  0.0476981558346735 -0.08316803029933817 0  0.03765012642225032 -0.07127449431099875 0  0.03976053609378098 -0.07423312666419081 0  0.04156726546556366 -0.07442715079550234 0  0.04030153452271364 -0.07596865022997004 0  0.01284084887861751 -0.07298400536762802 0  0.01349893281808287 -0.07116271226355417 0  0.01149171032184903 -0.07201869888808959 0  0.02055120955905793 -0.09815169754100125 0  0.02030037282362401 -0.09657382979855417 0  0.0256560691365745 -0.09454823090098792 0  0.02441072590370595 -0.0929054837984588 0  0.007976246520282971 -0.09318
[...]
<PointData  Vectors="displacement"> 
<DataArray  type="Float64"  Name="displacement"  NumberOfComponents="3" format="ascii">2.7365106832154909e-14 2.3858847069561422e-02 0.0000000000000000e+00  2.3197370216633790e-13 2.1813446453578897e-02 0.0000000000000000e+00  -4.6192454156538538e-14 2.3783853841870949e-02 0.0000000000000000e+00  -1.0621145849245291e-13 1.1038554358145205e-02 0.0000000000000000e+00  5.6965617262905185e-14 1.2448977244276772e-02 0.0000000000000000e+00  1.9452354020302443e-13 1.1043143155386962e-02 0.0000000000000000e+00  -4.0723729618349770e-13 1.8273753417980917e-02 0.0000000000000000e+00  -7.7299451949828024e-14 1.7800730190115324e-02 0.0000000000000000e+00  3.6006201383263541e-13 1.6609397605787307e-02 0.0000000000000000e+00  2.0300122248406013e-13 2.4580458419566732e-02 0.0000000000000000e+00  -5.9244708818054849e-14 2.3502640564178456e-02 0.0000000000000000e+00  3.5697101372767343e-13 2.5242938797810841e-02 0.0000000000000000e+00  1.8700896490593790e-13 2.3413464160299376e-02 0.0000000000000000e+00  1.6365834348740174e-13 2.2789034876263384e-02 0.0000000000000000e+00  2.3385239560573829e-15 2.4172013916284148e-02 0.0000000000000000e+00  2.9838647566634946e-13 1.1431169819114085e-02 0.0000000000000000e+00  8.5880945616824550e-14 1.2681051607551327e-02 0.0000000000000000e+00  -1.2513618068262244e-13 1.0150234443881034e-02 0.0000000000000000e+00  3.8251350195686525e-14 1.1482068878847460e-02 0.0000000000000000e+00  3.1295062469697634e-13 9.7638105969471024e-03 0.0000000000000000e+00  -5.1315767242359783e-13 1.0168575638696851e-02 0.0000000000000000e+00  -2.7461276251047897e-14 3.1426841320084248e-02 0.0000000000000000e+00  7.2322692577716343e-13 3.3129164205524732e-02 0.0000000000000000e+00  -7.2054698404494683e-13 3.1540544303948342e-02 0.0000000000000000e+00  -2.0389365924089836e-14 2.4931643649388737e-02 0.0000000000000000e+00  -2.5522203989374977e-15 2.2713318738425716e-02 0.0000000000000000e+00  6.1083528311879818e-14 2.4777885168426592e-02 0.0000000000000000e+00  -4.7328654240111893e-14 1.8337352900365641e-02 0.0000000000000000e+00  2.2440775824394405e-13 1.9977593327586203e-02 0.0000000000000000e+00  3.5827799677196883e-13 1.9467450908830328e-02 0.0000000000000000e+00  -2.2658942635277740e-13 1.8815551792372938e-02 0.0000000000000000e+00  2.9062406808752037e-13 2.0070874185811511e-02 0.0000000000000000e+00  3.3120042845912653e-13 1.7711308616279547e-02 0.0000000000000000e+00  -1.5181694921696208e-13 1.3786708048175549e-02 0.0000000000000000e+00  6.8775360447213697e-13 1.1373697103179221e-02 0.0000000000000000e+00  -1.7941947770526633e-13 1.0090089647444114e-02 0.0000000000000000e+00  7.0327216677628916e-14 8.8547763898583921e-03 0.0000000000000000e+00  2.6939480169481222e-13 1.0800605117167442e-02 0.0000000000000000e+00  -1.3701048767840951e-13 1.3328822186755048e-02 0.0000000000000000e+00  2.5132565647604671e-13 1.1800855985900024e-02 0.0000000000000000e+00  1.2105687412267947e-13 1.5186338358940276e-02 0.0000000000000000e+00  -1.4792311952422452e-13 1.3708977433669495e-02 0.0000000000000000e+00  1.5390966804049068e-13 1.3327404072520366e-02 0.0000000000000000e+00  6.9931532596033589e-14 9.8749957134159697e-03 0.0000000000000000e+00  5.4065365480374453e-15 1.0063942599883240e-02 0.0000000000000000e+00  1.4609922603602477e-13 1.1337177452858402e-02 0.0000000000000000e+00  1.6667330671054313e-13 2.7071445899471643e-02 0.0000000000000000e+00  1.0390957082120434e-13 2.6684984715431403e-02 0.0000000000000000e+00  7.1672945162238363e-14 2.8444286640094428e-02 0.0000000000000000e+00  5.8313512463646936e-13 1.6264589117648613e-02 0.0000000000000000e+00  2.5357603026245675e-14 1.5108372274851666e-02 0.0000000000000000e+00  -4.1753794912811370e-13 1.5175983255390404e-02 0.0000000000000000e+00  9.0895027942997638e-14 1.8482870447975228e-02 0.0000000000000000e+00  -1.0547601209160536e-13 1.6747764319469210e-02 0.0000000000000000e+00  -1.2564996861830318e-13 2.3878597501721742e-02 0.0000000000000000e+00  1.5327578892462004e-13 2.4510941347496068e-02 0.0000000000000000e+00  1.4338292246807372e-13 2.5745785223690181e-02 0.0000000000000000e+00  3.2181331034125602e-13 2.1425778427181748e-02 0.0000000000000000e+00  1.5655960065044557e-13 1.9418085848278730e-02 0.0000000000000000e+00  -1.8246722340365556e-13 1.9611350554710753e-02 0.0000000000000000e+00  -1.2890095403588984e-13 1.8408337902762216e-02 0.0000000000000000e+00  -5.0326723208719363e-14 1.6509698073748198e-02 0.0000000000000000e+00  5.0334212075195122e-14 1.1752836564518962e-02 0.0000000000000000e+00  9.5818067197332221e-14 1.0204405918270640e-02 0.0000000000000000e+00  7.8749163388266342e-14 8.4258195125945529e-03 0.0000000000000000e+00  -3.6751717954323345e-14 3.6628320939444381e-03 0.0000000000000000e+00  5.7684273134906253e-14 4.4189265814242066e-03 0.0000000000000000e+00  -4.1762805157622206e-14 5.4379421023717598e-03 0.0000000000000000e+00  1.5289899500397262e-13 2.7939420630862872e-02 0.0000000000000000e+00  -2.7296563404445949e-14 3.0176116599796184e-02 0.0000000000000000e+00  6.0786807655232058e-14 2.9744525339772045e-02 0.0000000000000000e+00  6.5574909442462031e-13 3.1391537124499817e-02 0.0000000000000000e+00  3.0781289492424930e-13 2.9017894381717573e-02 0.0000000000000000e+00  -5.4490878952300100e-13 3.0644322164926983e-02 0.0000000000000000e+00  1.0148112011050091e-13 2.6431611848670360e-02 0.0000000000000000e+00  -3.4441543953961903e-14 2.7657734298493986e-02 0.0000000000000000e+00  1.0015959452258876e-15 3.1223060344818591e-02 0.0000000000000000e+00  -8.0674558615280177e-14 2.9492993770231388e-02 0.0000000000000000e+00  1.2423710707996465e-13 2.9482750119240612e-02 0.0000000000000000e+00  -3.3981222282644626e-14 2.8154309427856614e-02 0.0000000000000000e+00  -2.6689900024279460e-14 2.6393763242977365e-02 0.0000000000000000e+00  5.5541721164748219e-14 2.6550666274602307e-02 0.0000000000000000e+00  4.0097957678775443e-15 2.4806266141590264e-02 0.0000000000000000e+00  4.2176146679808090e-15 2.5944708329282078e-02 0.0000000000000000e+00  1.7964119654264725e-14 2.6748873353964229e-02 0.0000000000000000e+00  9.8087535459425855e-15 2.5073639340442641e-02 0.0000000000000000e+00  1.0274183882146279e-13 2.1723054393650999e-02 0.0000000000000000e+00  -1.5516536619773103e-14 1.4280044607876618e-02 0.0000000000000000e+00  -1.5016937790531673e-14 1.3783659006138477e-02 0.0000000000000000e+00  -1.2428009942159563e-13 1.2889183546580337e-02 0.0000000000000000e+00  -1.5427503556700866e-29 0.0000000000000000e+00 0.0000000000000000e+00  -1.5996620714359261e-13 1.8703430688267067e-03 0.0000000000000000e+00  -2.1041767995481520e-14 1.7194917820925538e-03 0.0000000000000000e+00  -9.5203340805087350e-14 3.1674637325896896e-03 0.0000000000000000e+00  1.0279341112653429e-13 1.7662783772286854e-03 0.0000000000000000e+00  2.7187813608001774e-13 3.5799962506557121e-03 0.0000000000000000e+00  2.8076782055762170e-13 8.2075959761362238e-03 0.0000000000000000e+00  2.3271643265566375e-14 5.8874952047722222e-03 0.0000000000000000e+00  1.2517596531944342e-13 5.8670101879488307e-03 0.0000000000000000e+00  5.3734818950728188e-14 1.4226912823092221e-02 0.0000000000000000e+00  4.2040473945719541e-14 1.2704261419902850e-02 0.0000000000000000e+00  1.8370176392889453e-13 1.4210356524974680e-02 0.0000000000000000e+00  -6.8548107737324902e-14 1.5122915101007725e-02 0.0000000000000000e+00  -4.3592642498928972e-13 1.6365313933616357e-02 0.0000000000000000e+00  2.0809199440626400e-13 1.2052115270858508e-02 0.0000000000000000e+00  -2.5909580648303424e-13 1.0213401871760348e-02 0.0000000000000000e+00  3.0794201154377027e-13 1.2369685572611614e-02 0.0000000000000000e+00  2.6569834853398218e-13 2.4335220921609640e-02 0.0000000000000000e+00  2.0437975029188529e-13 2.4642507488904668e-02 0.0000000000000000e+00  3.4558511630089557e-13 2.6871575727447996e-02 0.0000000000000000e+00  -1.2972410924979956e-14 2.6020973425942884e-02 0.0000000000000000e+00  -2.2629304646956857e-14 1.8169864938522573e-02 0.0000000000000000e+00  2.2532332484927174e-14 1.8554379346721491e-02 0.0000000000000000e+00  1.1949786080386812e-13 2.0195412543064662e-02 0.0000000000000000e+00  -5.2486258412726394e-14 1.9886522085175173e-02 0.0000000000000000e+00  8.8335834083064781e-30 1.7346144635958377e-02 0.0000000000000000e+00  -7.2521876388063947e-30 1.5611530172301302e-02 0.0000000000000000e+00  3.6606804739609450e-14 1.5818197588827791e-02 0.0000000000000000e+00  -2.2429991048290509e-14 2.1363646828483473e-02 0.0000000000000000e+00  5.8678484026177122e-14 1.9446387832866535e-02 0.0000000000000000e+00  7.9405362480162835e-14 1.9820403535031589e-02 0.0000000000000000e+00  -1.4431740867284413e-13 1.2580462869969980e-02 0.0000000000000000e+00  1.3431908761684227e-13 7.4982247437020387e-03 0.0000000000000000e+00  6.9900770121045036e-14 8.6832181184820934e-03 0.0000000000000000e+00  4.3027388929513710e-14 8.9934916665663760e-03 0.0000000000000000e+00  1.3837813131305989e-13 2.6949585909867301e-02 0.0000000000000000e+00  3.8886564754764324e-13 2.7201572058521469e-02 0.0000000000000000e+00  -2.6278254920389210e-13 2.8503883611539022e-02 0.0000000000000000e+00  4.1103632416554927e-14 6.6324504415731962e-03 0.0000000000000000e+00  -1.0810332457598233e-14 7.9361359657773248e-03 0.0000000000000000e+00  -1.4691600715977646e-13 8.0836099540861541e-03 0.0000000000000000e+00  8.9894327771525144e-14 4.9721851153171669e-03 0.0000000000000000e+00  -5.1399148323900042e-14 3.7867387577375121e-03 0.0000000000000000e+00  1.7533667344104570e-13 3.3315051415325823e-03 0.0000000000000000e+00  -1.5694492693586923e-13 4.1037979886132860e-03 0.0000000000000000e+00  -3.2090229422355412e-13 6.0666133569831603e-03 0.0000000000000000e+00  9.6968132104187369e-14 6.7179797395618213e-03 0.0000000000000000e+00  -2.3285139158179068e-14 9.8670655116154856e-03 0.0000000000000000e+00  1.0770495412754168e-13 7.0572786539216774e-03 0.0000000000000000e+00  -1.0744721374741200e-13 8.4594045669170517e-03 0.0000000000000000e+00  2.4163155054186554e-13 8.4600741212451595e-03 0.0000000000000000e+00  -1.9582897878995259e-13 8.6376740169733963e-03 0.0000000000000000e+00  -6.1607660520917959e-13 1.0585565109858395e-02 0.0000000000000000e+00  2.6314581526574833e-14 7.6235664276622190e-03 0.0000000000000000e+00  4.0737389350719511e-13 8.9013777618751535e-03 0.0000000000000000e+00  -4.2333906849848944e-13 1.0475776923199752e-02 0.0000000000000000e+00  4.3813141974603833e-13 9.1699261582544253e-03 0.0000000000000000e+00  3.3089207615539739e-13 9.1033642064567814e-03 0.0000000000000000e+00  -1.3389384828738530e-13 3.2510941072575017e-02 0.0000000000000000e+00  -2.2421428476401948e-13 3.3716194992451397e-02 0.0000000000000000e+00  1.8044520074916639e-12 3.4468091541165036e-02 0.0000000000000000e+00  2.2010724894773148e-13 2.9590317478175893e-02 0.0000000000000000e+00  1.9073434947814157e-13 2.8916005047787043e-02 0.0000000000000000e+00  -1.5095275831024115e-13 2.7934342968753318e-02 0.0000000000000000e+00  -1.6159040663132219e-13 1.7483051195805645e-02 0.0000000000000000e+00  -1.0040484129104437e-13 1.6061465451344389e-02 0.0000000000000000e+00  2.4708599241368477e-14 1.4446404161537009e-02 0.0000000000000000e+00  1.5077301929971922e-13 2.2314029516560977e-02 0.0000000000000000e+00  1.5763986394892422e-13 2.4258777873650515e-02 0.0000000000000000e+00  8.9380735309878277e-14 2.4222498770094643e-02 0.0000000000000000e+00  -6.1694674804544769e-13 1.8807322346474385e-02 0.0000000000000000e+00  6.1607180999821148e-13 2.0341535008450148e-02 0.0000000000000000e+00  6.5723724946372921e-14 4.9636991229770246e-03 0.0000000000000000e+00  8.3763369276484887e-14 5.1894054434596928e-03 0.0000000000000000e+00  5.4885906697454134e-13 1.3510782192372332e-02 0.0000000000000000e+00  -1.3802681482714815e-13 1.1802731142311517e-02 0.0000000000000000e+00  5.0227570457645651e-13 8.6162487238948347e-03 0.0000000000000000e+00  -7.1950600427911910e-14 1.3078464347492711e-02 0.0000000000000000e+00  -5.4202471671300898e-14 2.7742439648893658e-02 0.0000000000000000e+00  -2.5680438456666798e-14 2.5813145299024481e-02 0.0000000000000000e+00  -3.5612188345694604e-15 2.6012211370940855e-02 0.0000000000000000e+00  4.5855359989653481e-15 2.4691688233616269e-02 0.0000000000000000e+00  -1.0178443146377448e-12 3.4692289272356132e-02 0.0000000000000000e+00  9.1042703182615542e-13 3.5132517547824080e-02 0.0000000000000000e+00  -2.1675919101229725e-14 2.6553479525880722e-02 0.0000000000000000e+00  -3.7574438975406179e-29 -8.0690493282458643e-20 0.0000000000000000e+00  6.9944023907052216e-14 1.7637136446981142e-03 0.0000000000000000e+00  1.2974924742853476e-12 2.3991229038113839e-03 0.0000000000000000e+00  6.1622468122017811e-15 3.1568623824894372e-02 0.0000000000000000e+00  1.1352540336790261e-13 3.2432939174908443e-02 0.0000000000000000e+00  2.8510979220221329e-14 1.5838270695755649e-02 0.0000000000000000e+00  1.8313487208423190e-13 1.3825381211741886e-02 0.0000000000000000e+00  -1.2242793137711794e-13 3.0932968683641308e-02 0.0000000000000000e+00  -1.4810158483531382e-13 3.2851588848181082e-02 0.0000000000000000e+00  4.7644553573684756e-13 3.3561720507790320e-02 0.0000000000000000e+00  -9.0650192545214046e-14 2.7382815742746657e-02 0.0000000000000000e+00  1.2887178874583645e-13 2.9250881453805763e-02 0.0000000000000000e+00  1.3006079049765539e-13 1.3530714203619126e-02 0.0000000000000000e+00  3.0778277962840199e-13 1.2662948229417504e-02 0.0000000000000000e+00  -6.0142334662470448e-15 1.4503277643816207e-02 0.0000000000000000e+00  3.1688724779816911e-13 1.5308065767261835e-02 0.0000000000000000e+00  2.7497824471245085e-13 1.4288984224717831e-02 0.0000000000000000e+00  -1.5190644330172011e-13 1.3743401533081311e-02 0.0000000000000000e+00  -3.8100298890334027e-14 1.5281377851102205e-02 0.0000000000000000e+00  1.5953469940386232e-13 1.5619550794372558e-02 0.0000000000000000e+00  1.7298786265626489e-13 1.7003468497138543e-02 0.0000000000000000e+00  2.2342509441372013e-13 1.5676589057244054e-02 0.0000000000000000e+00  1.1161978627212519e-13 1.7327460448053032e-02 0.0000000000000000e+00  -1.2199724631299235e-13 1.7134782960185578e-02 0.0000000000000000e+00  -9.7353580529802640e-14 2.6894818353803390e-02 0.0000000000000000e+00  2.2770025976903047e-13 2.8064235437113495e-02 0.0000000000000000e+00  3.3997448633379216e-14 2.6415149153414631e-02 0.0000000000000000e+00  6.9285097895455331e-14 2.5414243412091135e-02 0.0000000000000000e+00  4.3813363884307237e-13 2.4923410805597405e-02 0.0000000000000000e+00  -5.1086610900847881e-14 2.4719659175216038e-02 0.0000000000000000e+00  -6.0369973373002830e-14 2.2807113431160424e-02 0.0000000000000000e+00  3.8199919824687540e-14 2.6663432315767795e-02 0.0000000000000000e+00  1.6986122580534418e-13 1.3904566515755478e-02 0.0000000000000000e+00  3.4539906660139214e-13 2.8785401827914489e-02 0.0000000000000000e+00  -7.5502889641529774e-13 2.8151114486036650e-02 0.0000000000000000e+00  1.3831638958253488e-14 2.3097063951558101e-02 0.0000000000000000e+00  5.2240320831055137e-14 2.2395280191860038e-02 0.0000000000000000e+00  4.8703532728427879e-14 1.7252780104143002e-02 0.0000000000000000e+00  -2.6746456699703887e-15 1.6898134311349830e-02 0.0000000000000000e+00  -5.7140946192683116e-14 1.8686065979921888e-02 0.0000000000000000e+00  5.9154269754000625e-14 3.1889713690883455e-02 0.0000000000000000e+00  2.2122198386453936e-14 2.8605178348680416e-02 0.0000000000000000e+00  -1.3246227459338860e-14 2.8389781827510879e-02 0.0000000000000000e+00  2.1040644870567068e-14 2.6678481210082389e-02 0.0000000000000000e+00  -5.7158895672110157e-14 2.9991894423867311e-02 0.0000000000000000e+00  -2.2188015396144608e-13 3.2013808894997373e-02 0.0000000000000000e+00  9.1673265686851435e-14 3.1063532556576082e-02 0.0000000000000000e+00  2.7594218250246336e-13 2.0518989939000555e-03 0.0000000000000000e+00  9.4306399053338612e-14 3.8035740066259031e-03 0.0000000000000000e+00  -1.4600538306486777e-13 6.0522992201642077e-03 0.0000000000000000e+00  2.6092740954895547e-13 7.8760002658045721e-03 0.0000000000000000e+00  -4.5336018805744896e-13 7.5673435254685747e-03 0.0000000000000000e+00  2.1264688505002164e-13 2.6623580868513012e-02 0.0000000000000000e+00  6.0504274550212815e-15 2.4571857974671648e-02 0.0000000000000000e+00  2.3327837818507320e-13 2.3771565090924658e-02 0.0000000000000000e+00  -1.2277954483865627e-13 2.1018195905663003e-02 0.0000000000000000e+00  1.2300964393386749e-13 2.2511377002687846e-02 0.0000000000000000e+00  -2.1210800680635098e-13 3.4505853926817653e-02 0.0000000000000000e+00  2.4515263233339468e-13 3.2846380324529710e-02 0.0000000000000000e+00  2.0831424857594009e-13 3.2868008512124153e-02 0.0000000000000000e+00  1.1300172878528197e-13 6.9146462706974627e-03 0.0000000000000000e+00  7.4515076882746849e-14 8.0056430208598362e-03 0.0000000000000000e+00  1.4022326296599447e-13 9.6141790666380324e-03 0.0000000000000000e+00  -1.0845346545332694e-13 8.4276638672295852e-03 0.0000000000000000e+00  7.4932462512475365e-13 3.1371874539172034e-02 0.0000000000000000e+00  2.6306737538463627e-13 3.2741373760447494e-02 0.0000000000000000e+00  1.2217468968687548e-13 3.0845635244296763e-02 0.0000000000000000e+00  -1.3388208312116736e-13 3.1783555200651369e-02 0.0000000000000000e+00  1.5707736633864242e-13 7.7487744227657763e-03 0.0000000000000000e+00  -1.1684089038433883e-13 3.1497257507696483e-02 0.0000000000000000e+00  9.6508509748705595e-14 2.9834231686715909e-02 0.0000000000000000e+00  -9.1176018623454674e-15 3.1103771864019053e-02 0.0000000000000000e+00  -6.4600759213645551e-14 3.3574503322656012e-02 0.0000000000000000e+00  4.6011715355712097e-14 3.5915355026600211e-02 0.0000000000000000e+00  8.0988600142023441e-14 3.5526327046477221e-02 0.0000000000000000e+00  1.1491461424619165e-13 3.4487555608966658e-02 0.0000000000000000e+00  6.0310560734026639e-14 2.5132638941196671e-03 0.0000000000000000e+00  1.1216592052964610e-13 4.0851188198369635e-03 0.0000000000000000e+00  2.2014789210441562e-29 5.6731679812308110e-19 0.0000000000000000e+00  9.2507002517266968e-15 1.6375873379496798e-03 0.0000000000000000e+00  3.9678734269666290e-14 1.5659952378947906e-02 0.0000000000000000e+00  -2.3842964729600118e-13 1.3696139172975724e-02 0.0000000000000000e+00  2.3601866051013759e-13 1.3281598111176261e-02 0.0000000000000000e+00  4.1677086459432370e-14 1.4834859382059969e-02 0.0000000000000000e+00  -4.3659651595593940e-14 7.9895771548500766e-03 0.0000000000000000e+00  7.3933531785468281e-14 9.5172400989850508e-03 0.0000000000000000e+00  1.3977865071373483e-13 9.5113613976042285e-03 0.0000000000000000e+00  0.0000000000000000e+00 2.7463534831519916e-19 0.0000000000000000e+00  -2.7469284097910256e-29 0.0000000000000000e+00 0.0000000000000000e+00  1.0944624466400988e-13 1.6730370971365545e-03 0.0000000000000000e+00  -4.4634093447551271e-15 7.1343317431993665e-03 0.0000000000000000e+00  -4.9671251843596998e-29 -1.0666820110981441e-19 0.0000000000000000e+00  6.9612231353254906e-29 2.2233099550057915e-19 0.0000000000000000e+00  -5.6224573800908636e-13 1.6164076255195579e-03 0.0000000000000000e+00  2.4635747986528217e-13 3.5469065962790655e-03 0.0000000000000000e+00  1.4500333750763998e-13 4.2928977069487638e-03 0.0000000000000000e+00  7.9977019489000642e-14 7.9938373473022392e-03 0.0000000000000000e+00  4.5254277774760600e-14 6.6641421859748549e-03 0.0000000000000000e+00  2.1807931794832971e-14 3.3305039188644935e-03 0.0000000000000000e+00  -6.9967172728198835e-14 5.4276031505286985e-03 0.0000000000000000e+00  2.7126354248678204e-13 4.3386152356565894e-03 0.0000000000000000e+00  -2.6494872352251302e-13 2.3191814088624084e-03 0.0000000000000000e+00  2.0744228011426671e-13 4.4928358013298798e-03 0.0000000000000000e+00  -4.9714632619747213e-13 3.3575896807677419e-02 0.0000000000000000e+00  1.0917371269388353e-12 3.2122261365314826e-02 0.0000000000000000e+00  2.2917523742405005e-13 3.3357696688201814e-02 0.0000000000000000e+00  4.3583853272574234e-14 3.6152135321725960e-02 0.0000000000000000e+00  -1.1722751705914230e-14 3.46