<?xml version="1.0"?>
<VTKFile type="UnstructuredGrid"  version="0.1"  >
<UnstructuredGrid>
<Piece  NumberOfPoints="3167" NumberOfCells="6038">
<Points>
<DataArray  type="Float64"  NumberOfComponents="3"  format="ascii">2.2 2.9 0  0 2.9 0  2.8 2.9 0  5 2.9 0  5 0 0  0 0 0  2.16271186440678 2.9 0  2.125423728813559 2.9 0  2.088135593220339 2.9 0  2.050847457627119 2.9 0  2.013559322033898 2.9 0  1.976271186440678 2.9 0  1.938983050847457 2.9 0  1.901694915254237 2.9 0  1.864406779661016 2.9 0  1.827118644067796 2.9 0  1.789830508474575 2.9 0  1.752542372881355 2.9 0  1.715254237288134 2.9 0  1.677966101694914 2.9 0  1.640677966101693 2.9 0  1.603389830508473 2.9 0  1.566101694915253 2.9 0  1.528813559322032 2.9 0  1.491525423728812 2.9 0  1.454237288135591 2.9 0  1.416949152542371 2.9 0  1.37966101694915 2.9 0  1.34237288135593 2.9 0  1.305084745762709 2.9 0  1.267796610169489 2.9 0  1.230508474576268 2.9 0  1.193220338983048 2.9 0  1.155932203389827 2.9 0  1.118644067796607 2.9 0  1.081355932203387 2.9 0  1.044067796610166 2.9 0  1.006779661016946 2.9 0  0.9694915254237257 2.9 0  0.9322033898305055 2.9 0  0.8949152542372856 2.9 0  0.8576271186440652 2.9 0  0.820338983050845 2.9 0  0.783050847457625 2.9 0  0.7457627118644048 2.9 0  0.7084745762711844 2.9 0  0.6711864406779642 2.9 0  0.633898305084744 2.9 0  0.5966101694915238 2.9 0  0.5593220338983036 2.9 0  0.5220338983050834 2.9 0  0.4847457627118632 2.9 0  0.447457627118643 2.9 0  0.4101694915254228 2.9 0  0.3728813559322024 2.9 0  0.3355932203389822 2.9 0  0.2983050847457622 2.9 0  0.2610169491525418 2.9 0  0.2237288135593216 2.9 0  0.1864406779661016 2.9 0  0.1491525423728812 2.9 0  0.1118644067796613 2.9 0  0.07457627118644039 2.9 0  0.03728813559321997 2.9 0  2.792405063291139 2.9 0  2.784810126582279 2.9 0  2.777215189873418 2.9 0  2.769620253164557 2.9 0  2.762025316455697 2.9 0  2.754430379746836 2.9 0  2.746835443037975 2.9 0  2.739240506329114 2.9 0  2.731645569620254 2.9 0  2.724050632911393 2.9 0  2.716455696202532 2.9 0  2.708860759493671 2.9 0  2.701265822784811 2.9 0  2.69367088607595 2.9 0  2.686075949367089 2.9 0  2.678481012658228 2.9 0  2.670886075949368 2.9 0  2.663291139240507 2.9 0  2.655696202531646 2.9 0  2.648101265822786 2.9 0  2.640506329113925 2.9 0  2.632911392405064 2.9 0  2.625316455696203 2.9 0  2.617721518987342 2.9 0  2.610126582278482 2.9 0  2.602531645569621 2.9 0  2.59493670886076 2.9 0  2.587341772151899 2.9 0  2.579746835443038 2.9 0  2.572151898734178 2.9 0  2.564556962025317 2.9 0  2.556962025316456 2.9 0  2.549367088607595 2.9 0  2.541772151898734 2.9 0  2.534177215189874 2.9 0  2.526582278481013 2.9 0  2.518987341772152 2.9 0  2.511392405063292 2.9 0  2.503797468354431 2.9 0  2.49620253164557 2.9 0  2.488607594936709 2.9 0  2.481012658227848 2.9 0  2.473417721518988 2.9 0  2.465822784810127 2.9 0  2.458227848101266 2.9 0  2.450632911392406 2.9 0  2.443037974683545 2.9 0  2.435443037974684 2.9 0  2.427848101265823 2.9 0  2.420253164556962 2.9 0  2.412658227848102 2.9 0  2.405063291139241 2.9 0  2.39746835443038 2.9 0  2.389873417721519 2.9 0  2.382278481012658 2.9 0  2.374683544303798 2.9 0  2.367088607594937 2.9 0  2.359493670886076 2.9 0  2.351898734177215 2.9 0  2.344303797468355 2.9 0  2.336708860759494 2.9 0  2.329113924050633 2.9 0  2.321518987341773 2.9 0  2.313924050632912 2.9 0  2.306329113924051 2.9 0  2.29873417721519 2.9 0  2.291139240506329 2.9 0  2.283544303797469 2.9 0  2.275949367088608 2.9 0  2.268354430379747 2.9 0  2.260759493670887 2.9 0  2.253164556962026 2.9 0  2.245569620253165 2.9 0  2.237974683544304 2.9 0  2.230379746835443 2.9 0  2.222784810126583 2.9 0  2.215189873417722 2.9 0  2.207594936708861 2.9 0  4.96271186440678 2.9 0  4.925423728813559 2.9 0  4.888135593220339 2.9 0  4.850847457627118 2.9 0  4.813559322033898 2.9 0  4.776271186440677 2.9 0  4.738983050847457 2.9 0  4.701694915254237 2.9 0  4.664406779661016 2.9 0  4.627118644067796 2.9 0  4.589830508474575 2.9 0  4.552542372881355 2.9 0  4.515254237288135 2.9 0  4.477966101694914 2.9 0  4.440677966101694 2.9 0  4.403389830508473 2.9 0  4.366101694915252 2.9 0  4.328813559322032 2.9 0  4.291525423728811 2.9 0  4.254237288135591 2.9 0  4.21694915254237 2.9 0  4.17966101694915 2.9 0  4.14237288135593 2.9 0  4.105084745762709 2.9 0  4.067796610169489 2.9 0  4.030508474576268 2.9 0  3.993220338983048 2.9 0  3.955932203389827 2.9 0  3.918644067796607 2.9 0  3.881355932203387 2.9 0  3.844067796610166 2.9 0  3.806779661016946 2.9 0  3.769491525423725 2.9 0  3.732203389830505 2.9 0  3.694915254237285 2.9 0  3.657627118644065 2.9 0  3.620338983050845 2.9 0  3.583050847457625 2.9 0  3.545762711864405 2.9 0  3.508474576271184 2.9 0  3.471186440677964 2.9 0  3.433898305084744 2.9 0  3.396610169491524 2.9 0  3.359322033898303 2.9 0  3.322033898305083 2.9 0  3.284745762711863 2.9 0  3.247457627118643 2.9 0  3.210169491525423 2.9 0  3.172881355932202 2.9 0  3.135593220338982 2.9 0  3.098305084745762 2.9 0  3.061016949152542 2.9 0  3.023728813559321 2.9 0  2.986440677966101 2.9 0  2.949152542372881 2.9 0  2.911864406779661 2.9 0  2.87457627118644 2.9 0  2.83728813559322 2.9 0  5 0.1063822625082082 0  5 0.210636880010749 0  5 0.3128064053694972 0  5 0.4129325400644018 0  5 0.5110561521032336 0  5 0.6072172918830103 0  5 0.7014552087832795 0  5 0.7938083674443693 0  5 0.88431446261646 0  5 0.9730104359544682 0  5 1.059932489996267 0  5 1.145116102913299 0  5 1.228596043483191 0  5 1.310406385079062 0  5 1.390580519944147 0  5 1.469151172477827 0  5 1.546150411986101 0  5 1.621609666658609 0  5 1.695559736099044 0  5 1.76803080383987 0  5 1.839052450169751 0  5 1.908653663631169 0  5 1.97686285289587 0  5 2.043707858613779 0  5 2.109215964341413 0  5 2.173413907925942 0  5 2.236327892833935 0  5 2.297983597762904 0  5 2.35840618845912 0  5 2.41762032730194 0  5 2.475650183444628 0  5 2.532519442457069 0  5 2.588251316112828 0  5 2.642868552557322 0  5 2.696393444426347 0  5 2.748847838312051 0  5 2.800253144313381 0  5 2.850630344319807 0  0.2631578947368421 0 0  0.5263157894736842 0 0  0.7894736842105263 0 0  1.052631578947368 0 0  1.31578947368421 0 0  1.578947368421053 0 0  1.842105263157895 0 0  2.105263157894737 0 0  2.368421052631579 0 0  2.631578947368421 0 0  2.894736842105263 0 0  3.157894736842105 0 0  3.421052631578947 0 0  3.684210526315789 0 0  3.947368421052632 0 0  4.210526315789473 0 0  4.473684210526315 0 0  4.736842105263158 0 0  0 2.850203682350569 0  0 2.799411438503675 0  0 2.747603349778291 0  0 2.694759099502208 0  0 2.640857964382145 0  0 2.58587880633613 0  0 2.52980006535898 0  0 2.472599749459174 0  0 2.414255427218689 0  0 2.35474421880616 0  0 2.294042786119219 0  0 2.232127324764723 0  0 2.1689735539481 0  0 2.104556707683347 0  0 2.038851524813415 0  0 1.971832238155655 0  0 1.903472565412126 0  0 1.83374569926617 0  0 1.762624296208475 0  0 1.690080464918761 0  0 1.616085756774206 0  0 1.540611154706337 0  0 1.463627060685571 0  0 1.385103284916206 0  0 1.305009033716617 0  0 1.223312897337225 0  0 1.139982838163732 0  0 1.054986177579938 0  0 0.9682895835804817 0  0 0.8798590579197976 0  0 0.7896599218415354 0  0 0.6976568029903638 0  0 0.6038136217958798 0  0 0.508093576867624 0  0 0.4104591310957497 0  0 0.3108719963522191 0  0 0.2092931188294389 0  0 0.1056826638508546 0  1.434832105763824 2.866945754981483 0  1.737156300467626 2.870039440267515 0  2.032203389830508 2.867707527316512 0  2.332911392405064 2.893422591869991 0  2.469810913293406 2.891944186606167 0  2.606221408823969 2.892519154985628 0  2.255455320628894 2.892068685006691 0  2.538247299216212 2.894964578182811 0  2.674683544303798 2.893422591869991 0  2.40126582278481 2.893422591869991 0  3.566125247295424 2.865029336199714 0  3.266101694915253 2.867707527316512 0  2.967796610169491 2.867707527316512 0  1.174288529834642 2.870795313888584 0  3.825423728813556 2.867707527316512 0  2.727766680262011 2.892655387647729 0  0.06601655192030442 1.502119107695954 0  4.933983535508361 1.507650792231964 0  0.9532124728485543 2.868722489783638 0  4.048935912500257 2.870640982995992 0  0.05930163367361763 1.866907161167414 0  4.943402512618553 1.871280731473148 0  4.271733870017743 2.86520865624265 0  0.7249420921613114 2.863922936177041 0  0.05494499779910056 2.196469063120752 0  4.947228695426367 2.208030108792719 0  0.5406152150397161 2.866493807382013 0  4.459322033898304 2.868847558178794 0  2.18135593220339 2.875780645487384 0  2.817027156509632 2.876587550645167 0  4.928427208322876 1.186856073198245 0  0.07189226971603224 1.174626666111662 0  4.610299014423113 2.867003104093161 0  0.3897270066746357 2.869433095314657 0  1.581132500042262 2.868247328632392 0  1.887637879411437 2.869235851794358 0  3.413449426418068 2.867372048034327 0  3.116721298814773 2.865731235547652 0  2.644303797468355 2.893422591869991 0  2.370983221828106 2.892719513369796 0  2.302531645569621 2.893336787387268 0  2.758987341772152 2.894242393897099 0  0.04979653335696277 2.443411216910286 0  4.950470983477169 2.446866954595817 0  2.482937483021586 0.2513241087417575 0  1.707129504814338 0.1999998659920923 0  3.28584657955054 0.229200625631625 0  4.907807122600524 0.834082362900164 0  4.757627118644067 2.867707527316512 0  0.0773489124676745 0.8347594898806663 0  0.2390604736599387 2.861365431805741 0  0.8363213715215729 2.863896768908178 0  4.160865610207075 2.868916854015731 0  1.282549332053297 2.867610952980761 0  1.065094818402487 2.861284686038041 0  3.93818127737282 2.86865134411395 0  3.711492629432973 2.863574306925269 0  4.91369361998929 0.5579891344254361 0  0.08208328472281323 0.5559535993317519 0  2.696596932532885 2.892010483922337 0  0.04706410140274553 2.613055974506516 0  4.955577063972248 2.616518038840186 0  2.234177215189874 2.893422591869991 0  2.279795840559739 2.89403861893984 0  0.9117357887652362 0.2117925286661764 0  4.055948041993057 0.2039101057937727 0  4.872119713780579 2.867632926423075 0  2.780113878992455 2.891535929611743 0  0.1327442468251063 2.85
[...]
<PointData  Scalars=" mean stress"> 
<DataArray  type="Float64"  Name=" mean stress"  format="ascii">4.6614551657579859e+03  1.0671527052618349e+03  4.3411494000231005e+03  1.0671582809072345e+03  7.6393404367497874e+02  7.5988418281372731e+02  -5.8010420168753865e+02  2.4072533148587797e+02  5.7022010708050550e+02  9.6978072024568337e+02  1.2561457454113470e+03  1.4170669559804653e+03  1.4203742641287727e+03  1.4070605860904195e+03  1.4061970091787878e+03  1.3614315449182257e+03  1.3433493684896334e+03  1.3376967055347579e+03  1.3319660900140004e+03  1.3289499969817916e+03  1.3224282293306019e+03  1.3159550484092367e+03  1.3085904128883083e+03  1.3004310396347344e+03  1.2930909131964386e+03  1.2848726548911434e+03  1.2772180982418151e+03  1.2692152056839836e+03  1.2608153415614365e+03  1.2525106385942815e+03  1.2445926434242117e+03  1.2365254663544117e+03  1.2282624817288383e+03  1.2202957385435534e+03  1.2122167208458422e+03  1.2043701191805064e+03  1.1958654960275780e+03  1.1882060143646097e+03  1.1804087159145884e+03  1.1730791914351853e+03  1.1655543059266304e+03  1.1582317956600480e+03  1.1512157569006099e+03  1.1443093233445384e+03  1.1376786976160397e+03  1.1312529463361707e+03  1.1250762227341854e+03  1.1191073275314923e+03  1.1134569830768003e+03  1.1080580878464293e+03  1.1030079251801283e+03  1.0981901502065382e+03  1.0937172592369602e+03  1.0895473598967421e+03  1.0857114990418684e+03  1.0822338600185499e+03  1.0791110123074336e+03  1.0763614563948595e+03  1.0738884030657748e+03  1.0718075552828552e+03  1.0701512432014406e+03  1.0688670707888086e+03  1.0678912927072292e+03  1.0672650067694949e+03  4.6479232868540630e+03  1.0208836388957948e+03  1.4713980713036344e+03  1.4009418979018999e+03  1.3667760290286544e+03  1.3943269283089101e+03  1.3938142937955126e+03  1.4029462179801133e+03  1.4052131014935135e+03  1.4071138154266305e+03  1.4058151619520215e+03  1.4070274023090324e+03  1.4111227534865704e+03  1.4108858399713856e+03  1.4109716465187419e+03  1.4108126172006794e+03  1.4115709018796274e+03  1.4118511475744701e+03  1.4124547142407826e+03  1.4128692284818062e+03  1.4130571465621108e+03  1.4133189817797852e+03  1.4135841723604860e+03  1.4138065328902499e+03  1.4141199633086319e+03  1.4148541638440790e+03  1.4147969063991600e+03  1.4150064399473365e+03  1.4151116052162315e+03  1.4153401533901963e+03  1.4154822200617275e+03  1.4155410754106647e+03  1.4158355382213672e+03  1.4158306295807149e+03  1.4158223512035222e+03  1.4160108616146340e+03  1.4160669256169963e+03  1.4160824444739205e+03  1.4161136500825410e+03  1.4160935996477799e+03  1.4160620660415941e+03  1.4160117695395538e+03  1.4159925989602657e+03  1.4159199604925864e+03  1.4158625473128577e+03  1.4156166824975958e+03  1.4155402317708783e+03  1.4154908991679495e+03  1.4152859844933446e+03  1.4150730522206595e+03  1.4148502794161404e+03  1.4146523292576780e+03  1.4142871089440091e+03  1.4138992737811041e+03  1.4141320297637153e+03  1.4137898945898964e+03  1.4135782707875946e+03  1.4126308882012720e+03  1.4128533304695222e+03  1.4116704351618346e+03  1.4116315889978705e+03  1.4111259793834413e+03  1.4108289702020695e+03  1.4106401908122157e+03  1.4099526201297167e+03  1.4086887517189623e+03  1.4079153723760926e+03  1.4079537604784177e+03  1.4070001142885565e+03  1.4089116802992091e+03  1.3979149187273354e+03  1.3960429635564481e+03  1.3949812147989917e+03  1.4053311719984597e+03  1.3750467724228361e+03  1.4620820168444691e+03  1.6235067008706071e+03  2.7332050134930146e+03  1.0672759851544308e+03  1.0678639161136286e+03  1.0688095896020093e+03  1.0701234597221048e+03  1.0718500551626882e+03  1.0738996588813768e+03  1.0763202686268371e+03  1.0790776929768558e+03  1.0822183612040583e+03  1.0857117200683529e+03  1.0895613303453417e+03  1.0937132677547527e+03  1.0981923006962554e+03  1.1029830823066004e+03  1.1080957103750814e+03  1.1134454265174888e+03  1.1190751676049313e+03  1.1250495504615028e+03  1.1312805128029750e+03  1.1378908073254979e+03  1.1444426071547439e+03  1.1513103771515621e+03  1.1582919997596894e+03  1.1655747815926309e+03  1.1729737254290358e+03  1.1805584803373588e+03  1.1882598772233107e+03  1.1960457391302796e+03  1.2039626038392782e+03  1.2121081982559535e+03  1.2201561691028480e+03  1.2279103953150031e+03  1.2362781664365036e+03  1.2448873587470798e+03  1.2527285087300922e+03  1.2607675523865119e+03  1.2691460870967242e+03  1.2770154630009035e+03  1.2848340384949661e+03  1.2927385158537488e+03  1.3009018143106950e+03  1.3083794576592009e+03  1.3153620711535220e+03  1.3230208545175644e+03  1.3264337607986668e+03  1.3317471611420917e+03  1.3401801918468959e+03  1.3564858824394555e+03  1.3569572136216318e+03  1.3969514385970244e+03  1.3959355411401941e+03  1.4027475868937720e+03  1.3690034858666127e+03  1.2197096319102025e+03  1.0452178288926848e+03  5.6989925220331293e+02  4.1689605800226786e+02  -5.7904959679166836e+02  5.6337952525455421e+02  3.7384659202829027e+02  2.1338291440264948e+02  5.0162899996608964e+01  3.1414850150657195e+01  1.7125470903409732e+02  2.7561998280906357e+02  3.7198267091294082e+02  4.5986075564926983e+02  5.4041853416279969e+02  6.1222651470960398e+02  6.7631546357397031e+02  7.3216309727739554e+02  7.7925800388796961e+02  8.1704583494756059e+02  8.4493622426290653e+02  8.6266503163702271e+02  8.6936640532304511e+02  8.6477031013048691e+02  8.4852993789033405e+02  8.2045032007117186e+02  7.8055817372895831e+02  7.2892230871955587e+02  6.6595253400740353e+02  5.9196407813286589e+02  5.0755390042428769e+02  4.1366420323603370e+02  3.1150942008507752e+02  2.0028968594050576e+02  7.9812203610594139e+01  1.8949372774347278e+01  1.6813410627385124e+02  2.9328249256815320e+02  4.2484365522906882e+02  5.5653945851741071e+02  6.8765357649897771e+02  8.1710528761553815e+02  9.4393595151881914e+02  8.4365727749061796e+02  1.0469735410143651e+03  1.2877608183328896e+03  1.5064325393879435e+03  1.6591933730011501e+03  1.7573606593753657e+03  1.7884443987374980e+03  1.7831166174223140e+03  1.7628041543283096e+03  1.7747953976525891e+03  1.7827753803203238e+03  1.7929256434725935e+03  1.7540268796075261e+03  1.6621239818315273e+03  1.5096491509638440e+03  1.2850331914425105e+03  1.0501646086861235e+03  8.3879352757145944e+02  9.4284405366357919e+02  8.1497462588409758e+02  6.8454485408148969e+02  5.5246537651032634e+02  4.1997020062032306e+02  2.8750930332138711e+02  1.6272984775338719e+02  1.1637939435009621e+01  8.8234595064620379e+01  2.0693231972700141e+02  3.1835318571967161e+02  4.2023646087308890e+02  5.1383370286228376e+02  5.9767809150743403e+02  6.7092847401452809e+02  7.3316443917241315e+02  7.8411266509536699e+02  8.2302508381110863e+02  8.5016209577165239e+02  8.6549155167396566e+02  8.6924126472778835e+02  8.6167866211448893e+02  8.4340382825303880e+02  8.1473297844187925e+02  7.7638662182484973e+02  7.2898552168723290e+02  6.7275852320133231e+02  6.0824814314318166e+02  5.3590245326119987e+02  4.5600384922651421e+02  3.6829735325370137e+02  2.7101985683159410e+02  1.6717891950467737e+02  2.7055011841194169e+01  5.5026355744122192e+01  2.1627565774299399e+02  3.7590828063801229e+02  5.6573464819692606e+02  1.0274312869583043e+03  9.0441112965974980e+02  2.6629979473464755e+02  2.1361055897875449e+03  2.0311617298625044e+03  2.0620497267564401e+03  3.1923893361587711e+03  1.8027352698314603e+03  2.1668398632979702e+03  1.9731350774310415e+03  1.0129717224618014e+03  8.6441930072472371e+02  2.4983192196603062e+02  1.0731759352164381e+03  1.0574457436905268e+03  2.7242684592209821e+03  8.5618772314647094e+02  8.5743503480207892e+02  1.0517513571918882e+03  1.0592171784168027e+03  8.0799329366174993e+02  8.0575902387788733e+02  1.0200479985902865e+03  1.0155132293012142e+03  4.7644891502626086e+02  4.5910144897446759e+02  1.0080367017967376e+03  1.0149221275206299e+03  8.6234077955185421e+03  8.6801085879977691e+03  7.0791980098019701e+02  6.9963941298909367e+02  9.9829128774010542e+02  1.0048591031110254e+03  9.8452150204400709e+02  4.9268990487360031e+02  9.7616906064715931e+02  4.1077357302566469e+02  2.0621146863492559e+03  2.0906129179596578e+03  2.3025523615855468e+03  3.1112165965871345e+03  1.7425422643728680e+01  8.9420690279236066e+00  2.3306472755615359e+03  1.9207243010003654e+03  1.9491261045883675e+03  4.1983110486156590e+02  9.9205265981336368e+02  4.1818858372205415e+02  9.7555890962228932e+02  1.0242927674236878e+03  1.0426866025194495e+03  1.0534181174203966e+03  1.0255829984057893e+03  1.0584521288384508e+03  1.0289205661412711e+03  1.3951471681471747e+02  1.3566795129873364e+02  2.4713798376667478e+03  3.5279690314975340e+02  3.6101435441897081e+02  3.7229836641694551e+03  2.3910452839490572e+03  1.1751240125304639e+03  1.2132228723281171e+03  9.8801231761265603e+02  6.3006594323885820e+03  9.6210110032152761e+02  2.5862202435115489e+02  2.6176906199070231e+02  6.2957496997740270e+02  6.3179549318040449e+02  8.6100244925297557e+02  8.6134253002543426e+02  6.3296115841708047e+02  6.3223510005703451e+02  8.0160815729181593e+02  7.9897232803962913e+02  1.0056380120272790e+03  1.0196575282180352e+03  1.0180287848974651e+03  5.8024764161714779e+02  5.7615292898710277e+02  1.0462905166111209e+03  1.0056646162300493e+03  1.0137646689669332e+03  1.0231971393191308e+03  1.0275700055911423e+03  1.0846011324586266e+03  9.9649993835467308e+02  9.2695639622714396e+02  9.3700740141106417e+02  7.9682748549546011e+02  7.2855016466118366e+02  1.5320092399436869e+03  2.4452743578565287e+02  1.6318756975402723e+03  1.7921226603560939e+02  2.1083290050444093e+03  2.0251573224011429e+03  1.9964554755443135e+03  2.1977928959858518e+03  2.2035192467626330e+03  1.7072811256966290e+02  1.8428252435844519e+02  2.4187089666446009e+03  3.2191738308360909e+03  9.9921833019516762e+03  8.9195370415321349e+02  8.6863013460304524e+02  1.1703808360242323e+04  5.9199974652815411e+02  6.2713820603229010e+02  9.0191227094444650e+02  9.3759255831645305e+02  1.1969045804871898e+03  1.0190757716414904e+03  1.3003640309486696e+03  1.1726688652171044e+03  1.4726800205971376e+03  1.3718275748935671e+03  1.6888012256956517e+03  1.5990298258519965e+03  1.9312705030870547e+03  1.8464632380263272e+03  2.1915761828280820e+03  2.1063277982486411e+03  2.4610709996338023e+03  2.3720955711501392e+03  2.7345633286613461e+03  2.6206253932499926e+03  3.0135110808297354e+03  2.8595744581846238e+03  3.2911105791416494e+03  2.4843910187752585e+03  3.4271715701244307e+03  3.7569506194221617e+03  3.8680971518839315e+03  4.2471807580674322e+03  4.3158437575752005e+03  4.7451860776035282e+03  4.7580662270936300e+03  5.2338930851924670e+03  5.1704781204482333e+03  5.6708450042142013e+03  5.5155640376207775e+03  6.0074503686108046e+03  5.7882686569886646e+03  6.3702549965762100e+03  5.9867559868299159e+03  6.5123262411141204e+03  6.0414356627065263e+03  6.5329625319514898e+03  5.9875075576478885e+03  6.4098491461120311e+03  5.8186828372619002e+03  6.1395000667904242e+03  5.5427321537168482e+03  5.7505886662788735e+03  5.1533928841081133e+03  5.3048618763144987e+03  4.7449833401432479e+03  4.8253205709579925e+03  4.3747944108042630e+03  4.3405020294702272e+03  3.9601081384794547e+03  3.8742766797970667e+03  3.5579742812175514e+03  3.4438369525236312e+03  3.1834315267488560e+03  3.0586485999232564e+03  2.8407351666528962e+03  2.7106031085276782e+03  2.5334063412120927e+03  2.3949851129981234e+03  2.2563565026807651e+03  2.1172417418865793e+03  2.0146942269410172e+03  1.8797604851544652e+03  1.8020499213135236e+03  1.6732791270153241e+03  6.9561328570320920e+03  1.6142041438294914e+03  1.4926511859425921e+03  1.5229767892758373e+03  1.3574485370059106e+03  1.7205689871532154e+03  2.6349464620235835e+03  2.2267129944905701e+03  2.6683131633194730e+03  2.3260797719432289e+03  6.8029385468400333e+03  3.2466174809934510e+03  1.3595290115462776e+03  1.2097651863025021e+03  1.2157523020701772e+03  1.0764254209213182e+03  4.1060665828010724e+03  5.7484983810286558e+03  2.4514562917208418e+03  2.1465088903919286e+03  4.7772664539961552e+03  2.2289990645938519e+03  1.9467329561526042e+03  1.8869536131785469e+03  1.7119962014530247e+03  1.6717038922261979e+03  1.5222182057625066e+03  1.5243369586709330e+03  1.3548228690943511e+03  1.1907254297541617e+03  1.0932217899028999e+03  9.6066148091165621e+02  1.4940533532282300e+03  1.3273447869461154e+03  1.1873303126428868e+03  9.8678327999573514e+02  8.5686148863219398e+02  8.1887405690635967e+02  7.2964982354626500e+02  6.7541836152284918e+02  5.9478204165182080e+02  1.1384430770450431e+03  1.0176763750934236e+03  1.0684648864931662e+03  9.1538349936298778e+02  4.3363312740767788e+03  8.4471014217487846e+02  7.5808337466247212e+02  3.9416832644955589e+03  4.9326434275623596e+03  5.5352310061494600e+03  9.6902855952975119e+02  5.2922992264288644e+02  4.5648523064241169e+02  8.8862011141024357e+02  9.9924040900906789e+02  6.7396246521547835e+02  6.0242785744511616e+02  5.3163582724945945e+03  5.2770120410397476e+02  3.9181545026710290e+02  3.8478942173031766e+02  5.0907187114000851e+02  5.8448660629695178e+02  4.4414243223943026e+02  5.4020436822502120e+02  3.9187791478626531e+02  9.1673499341295883e+02  1.0100274057979644e+03  4.8819573398100721e+02  1.2743666945659534e+03  4.5653266271269769e+02  3.4358326805042140e+02  3.1243860242053859e+02  3.7938710887125336e+02  2.2759732416421484e+03  4.8698492871262602e+02  3.3716445221022803e+02  3.5529757169465671e+02  9.3445931092752471e+02  1.0166091825682057e+03  2.3936536745247392e+02  3.0218347100478650e+02  1.8404152203645910e+02  1.5473755752656375e+03  4.4537279532426237e+02  4.0605940544013458e+02  2.8117763388417052e+02  3.2503829451939458e+02  2.2923673488292476e+02  1.8629166875868077e+02  2.3194527471324290e+02  9.4581840379473999e+02  1.0140318008242044e+03  2.0927880135619358e+02  1.1695196277107095e+02  9.2191300408576723e+01  1.0428652463375366e+02  3.5118691714580939e+02  2.3308279693327873e+02  1.6127879479796729e+02  1.1818507731135760e+02  8.2157457038080878e+01  4.0937541639599755e+02  5.2650156826233376e+02  7.7083586454310364e+01  1.5283869044274846e+02  1.0537969163878823e+02  2.0740578326522581e+02  2.0323441967551133e+02  9.5094449645540749e+02  1.0057349346843419e+03  1.0721613291394133e+03  1.0495114245420821e+03  1.1212418209959560e+03  1.0818379794590542e+03  1.1601383459614285e+03  1.1033737873270206e+03  1.1883608873004641e+03  1.1147103254778920e+03  1.2093209452516337e+03  1.1169021353885134e+03  1.2179748281155044e+03  1.1074942244331171e+03  1.2233355389951048e+03  1.0879002943066637e+03  1.2253703091105124e+03  1.3784319621175184e+03  1.4008238827927451e+03  8.8481899327749022e+02  1.7903774735251091e+02  1.9163199461902906e+02  2.8878939472196106e+02  2.2576591881888376e+02  3.5710592125021259e+02  2.7910118290386220e+02  4.3754338727224331e+02  3.4921456288798072e+02  5.3110566695635248e+02  4.3569794935894976e+02  6.3389152825307610e+02  5.3634754889085627e+02  7.5641268210896692e+02  6.5703176736408182e+02  9.0579404528487112e+02  8.0064454412492967e+02  1.0688281053084547e+03  9.6571799100004785e+02  1.2461470755832934e+03  1.1581709402317010e+03  1.4717992293087964e+03  1.3864398323810137e+03  1.7438668360721415e+03  1.6556427537939937e+03  2.0473418994892413e+03  1.9684388040781137e+03  2.3949682491175195e+03  2.3462956978416787e+03  2.8038668299644341e+03  2.7978930303724737e+03  3.2818729173584748e+03  3.3282413463475546e+03  3.8390472929722519e+03  3.9514526118000231e+03  4.4696456105030056e+03  4.6654606024823470e+03  5.1746477920918551e+03  5.4742871390363844e+03  5.9400877959152613e+03  6.3400501393413642e+03  6.7306882382780632e+03  7.2623931820757825e+03  7.5346640238341115e+03  8.1625464280714777e+03  7.8765688400607241e+03  8.8262150454994917e+03  8.9490285518364926e+03  9.6493494853153243e+03  9.6307336814906557e+03  1.0337931430526902e+04  1.0199282529523720e+04  1.0886135203670214e+04  1.1088674078687054e+04  1.1523599887598730e+04  1.1279677160274510e+04  1.1831048107675906e+04  1.1542991750705427e+04  1.2095486954577689e+04  1.1712773738127331e+04  1.2132125778543208e+04  1.1766445132033807e+04  1.2140922623396289e+04  1.1737849797036153e+04  1.2140612886366867e+04  1.1620954499149680e+04  1.1915738841917311e+04  1.1380528083026353e+04  1.1637035752057705e+04  1.2449258876290445e+04  1.1029137771126037e+04  1.1192928719078436e+04  1.0537602002169488e+04  1.2049704679763234e+04  1.2150093824559182e+04  1.0589119901375132e+04  9.9080864731971196e+03  9.8671200625431666e+03  9.1825798211679576e+03  9.0465738232122530e+03  8.3403848527360915e+03  7.9538154890696078e+03  7.4486054125849496e+03  6.9416979480058926e+03  6.5595030078806330e+03  1.1193024810726298e+04  5.9916222846305654e+03  5.7424019846564734e+03  5.1403738621345019e+03  5.0018060069356825e+03  4.3748153007009141e+03  4.3356534826659417e+03  3.7454114584813965e+03  1.1244764496909856e+04  3.7545069113754021e+03  3.1834988714736783e+03  3.2504144329246692e+03  2.7283471793958920e+03  1.0592679216865294e+04  2.8171306741630269e+03  2.3383416417875460e+03  9.8898488663229928e+03  8.5752139051122813e+03  2.4332914387540131e+03  2.0051160033394892e+03  2.1049186270155828e+03  1.7243512206005430e+03  5.5185621585476838e+03  2.8064125261490040e+03  7.7882472292479342e+03  4.8474737806013072e+03  1.5699650089586955e+03  1.3388289928741708e+03  1.4897490347402331e+03  1.1427460312159310e+03  2.5750221236249918e+03  7.3216143939299318e+03  2.7670705139411580e+03  4.4020805755626961e+03  1.1454900035124131e+03  1.5364874955614323e+03  5.4039446147630383e+02  1.5884964621682059e+03  1.6212728726774421e+03  1.8464406698033815e+03  1.8782078093809273e+03  1.7836829970856789e+02  1.2886123188060974e+03  9.7501692742152477e+02  1.7746534146678875e+03  9.4936692459995047e+03  2.6829678746482688e+02  2.4483636583436436e+02  2.9341749457340836e+02  8.1758141511424049e+02  6.8256356931383652e+02  8.3054372660494766e+02  5.7075109068270683e+02  7.0771170918912981e+02  4.7326614984060666e+02  2.2782778984130866e+02  2.1454215754589259e+02  1.0325359246956889e+03  4.9472250779746264e+02  5.9964553706218237e+02  3.6832727116394717e+03  1.0655015075713529e+03  6.9669771437744421e+03  6.0022392697308362e+02  3.8846919276119951e+02  7.2247135226544543e+01  3.2039040501866145e+02  3.2645894222420787e+02  9.9086334820276909e+02  2.3242246132543187e+02  2.6186407972866897e+02  2.1414633533271926e+03  2.1595190211289646e+03  3.0812676095111755e+02  4.1780723144258212e+02  9.8182976092991225e+02  1.6142417759991672e+03  1.4467683112868738e+03  2.6319426706939663e+02  2.3610338465162479e+02  3.6261805399033562e+02  3.3764571432385998e+02  4.1742167667969619e+02  1.3455235826353583e+03  3.1513048906430896e+02  2.1271849749082511e+02  1.8473417729635134e+03  2.5482208379874446e+03  2.4810622318442593e+03  2.4734959101922154e+03  5.7007190510943974e+02  6.6388684177731852e+02  1.0993267035547431e+03  2.8354377987269440e+03  2.7985534437339743e+03  2.0376536667775122e+02  3.1931233301460884e+02  2.2890147810713611e+03  2.5618597499665475e+02  2.7881888704519656e+02  2.0656243042215715e+02  3.0468394687536698e+02  2.1418058877591389e+02  3.2899961694332399e+02  2.3009342853209404e+02  3.5317823993600496e+02  8.2930488081561555e+02  8.3973165962458256e+02  3.1402175706760909e+02  4.3496715526562662e+02  4.3884889565629703e+02  4.3171394227894643e+02  4.6334749913547421e+02  2.4994659998469322e+02  3.7720461093862781e+02  2.7055916765275998e+02  3.9806593615188393e+02  2.9066080444273564e+02  4.1809945175145674e+02  3.3213460041419711e+02  3.7831325842732662e+02  4.8151103460765120e+02  1.5459381719182024e+03  1.3882422403916039e+03  1.3026247647015534e+03  1.2563091162797741e+03  1.1861897987381005e+03  1.1511869371013377e+03  1.2021470154294780e+03  1.1067892306461608e+03  1.0663611526066652e+03  1.1401736374020470e+03  1.0541416999524936e+03  1.0700973457334696e+03  9.9436805737934958e+02  9.9269277562454965e+02  9.8839411304855355e+02  4.5956462934669094e+02  4.3349979011252731e+02  4