<?xml version="1.0"?>
<VTKFile type="UnstructuredGrid"  version="0.1"  >
<UnstructuredGrid>
<Piece  NumberOfPoints="3167" NumberOfCells="6038">
<Points>
<DataArray  type="Float64"  NumberOfComponents="3"  format="ascii">2.2 2.9 0  0 2.9 0  2.8 2.9 0  5 2.9 0  5 0 0  0 0 0  2.16271186440678 2.9 0  2.125423728813559 2.9 0  2.088135593220339 2.9 0  2.050847457627119 2.9 0  2.013559322033898 2.9 0  1.976271186440678 2.9 0  1.938983050847457 2.9 0  1.901694915254237 2.9 0  1.864406779661016 2.9 0  1.827118644067796 2.9 0  1.789830508474575 2.9 0  1.752542372881355 2.9 0  1.715254237288134 2.9 0  1.677966101694914 2.9 0  1.640677966101693 2.9 0  1.603389830508473 2.9 0  1.566101694915253 2.9 0  1.528813559322032 2.9 0  1.491525423728812 2.9 0  1.454237288135591 2.9 0  1.416949152542371 2.9 0  1.37966101694915 2.9 0  1.34237288135593 2.9 0  1.305084745762709 2.9 0  1.267796610169489 2.9 0  1.230508474576268 2.9 0  1.193220338983048 2.9 0  1.155932203389827 2.9 0  1.118644067796607 2.9 0  1.081355932203387 2.9 0  1.044067796610166 2.9 0  1.006779661016946 2.9 0  0.9694915254237257 2.9 0  0.9322033898305055 2.9 0  0.8949152542372856 2.9 0  0.8576271186440652 2.9 0  0.820338983050845 2.9 0  0.783050847457625 2.9 0  0.7457627118644048 2.9 0  0.7084745762711844 2.9 0  0.6711864406779642 2.9 0  0.633898305084744 2.9 0  0.5966101694915238 2.9 0  0.5593220338983036 2.9 0  0.5220338983050834 2.9 0  0.4847457627118632 2.9 0  0.447457627118643 2.9 0  0.4101694915254228 2.9 0  0.3728813559322024 2.9 0  0.3355932203389822 2.9 0  0.2983050847457622 2.9 0  0.2610169491525418 2.9 0  0.2237288135593216 2.9 0  0.1864406779661016 2.9 0  0.1491525423728812 2.9 0  0.1118644067796613 2.9 0  0.07457627118644039 2.9 0  0.03728813559321997 2.9 0  2.792405063291139 2.9 0  2.784810126582279 2.9 0  2.777215189873418 2.9 0  2.769620253164557 2.9 0  2.762025316455697 2.9 0  2.754430379746836 2.9 0  2.746835443037975 2.9 0  2.739240506329114 2.9 0  2.731645569620254 2.9 0  2.724050632911393 2.9 0  2.716455696202532 2.9 0  2.708860759493671 2.9 0  2.701265822784811 2.9 0  2.69367088607595 2.9 0  2.686075949367089 2.9 0  2.678481012658228 2.9 0  2.670886075949368 2.9 0  2.663291139240507 2.9 0  2.655696202531646 2.9 0  2.648101265822786 2.9 0  2.640506329113925 2.9 0  2.632911392405064 2.9 0  2.625316455696203 2.9 0  2.617721518987342 2.9 0  2.610126582278482 2.9 0  2.602531645569621 2.9 0  2.59493670886076 2.9 0  2.587341772151899 2.9 0  2.579746835443038 2.9 0  2.572151898734178 2.9 0  2.564556962025317 2.9 0  2.556962025316456 2.9 0  2.549367088607595 2.9 0  2.541772151898734 2.9 0  2.534177215189874 2.9 0  2.526582278481013 2.9 0  2.518987341772152 2.9 0  2.511392405063292 2.9 0  2.503797468354431 2.9 0  2.49620253164557 2.9 0  2.488607594936709 2.9 0  2.481012658227848 2.9 0  2.473417721518988 2.9 0  2.465822784810127 2.9 0  2.458227848101266 2.9 0  2.450632911392406 2.9 0  2.443037974683545 2.9 0  2.435443037974684 2.9 0  2.427848101265823 2.9 0  2.420253164556962 2.9 0  2.412658227848102 2.9 0  2.405063291139241 2.9 0  2.39746835443038 2.9 0  2.389873417721519 2.9 0  2.382278481012658 2.9 0  2.374683544303798 2.9 0  2.367088607594937 2.9 0  2.359493670886076 2.9 0  2.351898734177215 2.9 0  2.344303797468355 2.9 0  2.336708860759494 2.9 0  2.329113924050633 2.9 0  2.321518987341773 2.9 0  2.313924050632912 2.9 0  2.306329113924051 2.9 0  2.29873417721519 2.9 0  2.291139240506329 2.9 0  2.283544303797469 2.9 0  2.275949367088608 2.9 0  2.268354430379747 2.9 0  2.260759493670887 2.9 0  2.253164556962026 2.9 0  2.245569620253165 2.9 0  2.237974683544304 2.9 0  2.230379746835443 2.9 0  2.222784810126583 2.9 0  2.215189873417722 2.9 0  2.207594936708861 2.9 0  4.96271186440678 2.9 0  4.925423728813559 2.9 0  4.888135593220339 2.9 0  4.850847457627118 2.9 0  4.813559322033898 2.9 0  4.776271186440677 2.9 0  4.738983050847457 2.9 0  4.701694915254237 2.9 0  4.664406779661016 2.9 0  4.627118644067796 2.9 0  4.589830508474575 2.9 0  4.552542372881355 2.9 0  4.515254237288135 2.9 0  4.477966101694914 2.9 0  4.440677966101694 2.9 0  4.403389830508473 2.9 0  4.366101694915252 2.9 0  4.328813559322032 2.9 0  4.291525423728811 2.9 0  4.254237288135591 2.9 0  4.21694915254237 2.9 0  4.17966101694915 2.9 0  4.14237288135593 2.9 0  4.105084745762709 2.9 0  4.067796610169489 2.9 0  4.030508474576268 2.9 0  3.993220338983048 2.9 0  3.955932203389827 2.9 0  3.918644067796607 2.9 0  3.881355932203387 2.9 0  3.844067796610166 2.9 0  3.806779661016946 2.9 0  3.769491525423725 2.9 0  3.732203389830505 2.9 0  3.694915254237285 2.9 0  3.657627118644065 2.9 0  3.620338983050845 2.9 0  3.583050847457625 2.9 0  3.545762711864405 2.9 0  3.508474576271184 2.9 0  3.471186440677964 2.9 0  3.433898305084744 2.9 0  3.396610169491524 2.9 0  3.359322033898303 2.9 0  3.322033898305083 2.9 0  3.284745762711863 2.9 0  3.247457627118643 2.9 0  3.210169491525423 2.9 0  3.172881355932202 2.9 0  3.135593220338982 2.9 0  3.098305084745762 2.9 0  3.061016949152542 2.9 0  3.023728813559321 2.9 0  2.986440677966101 2.9 0  2.949152542372881 2.9 0  2.911864406779661 2.9 0  2.87457627118644 2.9 0  2.83728813559322 2.9 0  5 0.1063822625082082 0  5 0.210636880010749 0  5 0.3128064053694972 0  5 0.4129325400644018 0  5 0.5110561521032336 0  5 0.6072172918830103 0  5 0.7014552087832795 0  5 0.7938083674443693 0  5 0.88431446261646 0  5 0.9730104359544682 0  5 1.059932489996267 0  5 1.145116102913299 0  5 1.228596043483191 0  5 1.310406385079062 0  5 1.390580519944147 0  5 1.469151172477827 0  5 1.546150411986101 0  5 1.621609666658609 0  5 1.695559736099044 0  5 1.76803080383987 0  5 1.839052450169751 0  5 1.908653663631169 0  5 1.97686285289587 0  5 2.043707858613779 0  5 2.109215964341413 0  5 2.173413907925942 0  5 2.236327892833935 0  5 2.297983597762904 0  5 2.35840618845912 0  5 2.41762032730194 0  5 2.475650183444628 0  5 2.532519442457069 0  5 2.588251316112828 0  5 2.642868552557322 0  5 2.696393444426347 0  5 2.748847838312051 0  5 2.800253144313381 0  5 2.850630344319807 0  0.2631578947368421 0 0  0.5263157894736842 0 0  0.7894736842105263 0 0  1.052631578947368 0 0  1.31578947368421 0 0  1.578947368421053 0 0  1.842105263157895 0 0  2.105263157894737 0 0  2.368421052631579 0 0  2.631578947368421 0 0  2.894736842105263 0 0  3.157894736842105 0 0  3.421052631578947 0 0  3.684210526315789 0 0  3.947368421052632 0 0  4.210526315789473 0 0  4.473684210526315 0 0  4.736842105263158 0 0  0 2.850203682350569 0  0 2.799411438503675 0  0 2.747603349778291 0  0 2.694759099502208 0  0 2.640857964382145 0  0 2.58587880633613 0  0 2.52980006535898 0  0 2.472599749459174 0  0 2.414255427218689 0  0 2.35474421880616 0  0 2.294042786119219 0  0 2.232127324764723 0  0 2.1689735539481 0  0 2.104556707683347 0  0 2.038851524813415 0  0 1.971832238155655 0  0 1.903472565412126 0  0 1.83374569926617 0  0 1.762624296208475 0  0 1.690080464918761 0  0 1.616085756774206 0  0 1.540611154706337 0  0 1.463627060685571 0  0 1.385103284916206 0  0 1.305009033716617 0  0 1.223312897337225 0  0 1.139982838163732 0  0 1.054986177579938 0  0 0.9682895835804817 0  0 0.8798590579197976 0  0 0.7896599218415354 0  0 0.6976568029903638 0  0 0.6038136217958798 0  0 0.508093576867624 0  0 0.4104591310957497 0  0 0.3108719963522191 0  0 0.2092931188294389 0  0 0.1056826638508546 0  1.434832105763824 2.866945754981483 0  1.737156300467626 2.870039440267515 0  2.032203389830508 2.867707527316512 0  2.332911392405064 2.893422591869991 0  2.469810913293406 2.891944186606167 0  2.606221408823969 2.892519154985628 0  2.255455320628894 2.892068685006691 0  2.538247299216212 2.894964578182811 0  2.674683544303798 2.893422591869991 0  2.40126582278481 2.893422591869991 0  3.566125247295424 2.865029336199714 0  3.266101694915253 2.867707527316512 0  2.967796610169491 2.867707527316512 0  1.174288529834642 2.870795313888584 0  3.825423728813556 2.867707527316512 0  2.727766680262011 2.892655387647729 0  0.06601655192030442 1.502119107695954 0  4.933983535508361 1.507650792231964 0  0.9532124728485543 2.868722489783638 0  4.048935912500257 2.870640982995992 0  0.05930163367361763 1.866907161167414 0  4.943402512618553 1.871280731473148 0  4.271733870017743 2.86520865624265 0  0.7249420921613114 2.863922936177041 0  0.05494499779910056 2.196469063120752 0  4.947228695426367 2.208030108792719 0  0.5406152150397161 2.866493807382013 0  4.459322033898304 2.868847558178794 0  2.18135593220339 2.875780645487384 0  2.817027156509632 2.876587550645167 0  4.928427208322876 1.186856073198245 0  0.07189226971603224 1.174626666111662 0  4.610299014423113 2.867003104093161 0  0.3897270066746357 2.869433095314657 0  1.581132500042262 2.868247328632392 0  1.887637879411437 2.869235851794358 0  3.413449426418068 2.867372048034327 0  3.116721298814773 2.865731235547652 0  2.644303797468355 2.893422591869991 0  2.370983221828106 2.892719513369796 0  2.302531645569621 2.893336787387268 0  2.758987341772152 2.894242393897099 0  0.04979653335696277 2.443411216910286 0  4.950470983477169 2.446866954595817 0  2.482937483021586 0.2513241087417575 0  1.707129504814338 0.1999998659920923 0  3.28584657955054 0.229200625631625 0  4.907807122600524 0.834082362900164 0  4.757627118644067 2.867707527316512 0  0.0773489124676745 0.8347594898806663 0  0.2390604736599387 2.861365431805741 0  0.8363213715215729 2.863896768908178 0  4.160865610207075 2.868916854015731 0  1.282549332053297 2.867610952980761 0  1.065094818402487 2.861284686038041 0  3.93818127737282 2.86865134411395 0  3.711492629432973 2.863574306925269 0  4.91369361998929 0.5579891344254361 0  0.08208328472281323 0.5559535993317519 0  2.696596932532885 2.892010483922337 0  0.04706410140274553 2.613055974506516 0  4.955577063972248 2.616518038840186 0  2.234177215189874 2.893422591869991 0  2.279795840559739 2.89403861893984 0  0.9117357887652362 0.2117925286661764 0  4.055948041993057 0.2039101057937727 0  4.872119713780579 2.867632926423075 0  2.780113878992455 2.891535929611743 0  0.1327442468251063 2.85
[...]
<PointData  Scalars=" mean stress"> 
<DataArray  type="Float64"  Name=" mean stress"  format="ascii">4.5584395819839528e+03  1.0435692200626866e+03  4.2452123967078969e+03  1.0435746724893972e+03  7.4705152337276991e+02  7.4309116219905889e+02  -5.6728421932972151e+02  2.3540543465750540e+02  5.5761855775269510e+02  9.4834910211872318e+02  1.2283856184409378e+03  1.3857505591631093e+03  1.3889847776286190e+03  1.3759653245194434e+03  1.3751208321804118e+03  1.3313446599475903e+03  1.3136620896279046e+03  1.3081343474014157e+03  1.3025303753175406e+03  1.2995809362750181e+03  1.2932032960856677e+03  1.2868731688863297e+03  1.2796712877415762e+03  1.2716922321289615e+03  1.2645143184296423e+03  1.2564776790924207e+03  1.2489922839160886e+03  1.2411662508621782e+03  1.2329520190959713e+03  1.2248308454761896e+03  1.2170878336248095e+03  1.2091989367112274e+03  1.2011185594807052e+03  1.1933278769182953e+03  1.1854274010481477e+03  1.1777542049444639e+03  1.1694375292645250e+03  1.1619473179145432e+03  1.1543223354523766e+03  1.1471547894145137e+03  1.1397961997182756e+03  1.1326355128830362e+03  1.1257745247039036e+03  1.1190207195137218e+03  1.1125366269504761e+03  1.1062528812237592e+03  1.1002126598008213e+03  1.0943756738843940e+03  1.0888501989204160e+03  1.0835706162918148e+03  1.0786320594302833e+03  1.0739207546218474e+03  1.0695467120714784e+03  1.0654689652028783e+03  1.0617178747536411e+03  1.0583170896313952e+03  1.0552632551293639e+03  1.0525744628833681e+03  1.0501560626665312e+03  1.0481212004699757e+03  1.0465014919704672e+03  1.0452456990586604e+03  1.0442914851335868e+03  1.0436790397690602e+03  4.5452067501274141e+03  9.9832267450049665e+02  1.4388809868560645e+03  1.3699818559591313e+03  1.3365710339120319e+03  1.3635130735402640e+03  1.3630117679653417e+03  1.3719418816712591e+03  1.3741586683117655e+03  1.3760173775167218e+03  1.3747474235657680e+03  1.3759328740823951e+03  1.3799377202615485e+03  1.3797060424016256e+03  1.3797899526730855e+03  1.3796344378144931e+03  1.3803759648216044e+03  1.3806500172416997e+03  1.3812402454176424e+03  1.3816455991221558e+03  1.3818293643171621e+03  1.3820854131226122e+03  1.3823447431375814e+03  1.3825621896235082e+03  1.3828686934025507e+03  1.3835866685105807e+03  1.3835306764236796e+03  1.3837355793958511e+03  1.3838384205703501e+03  1.3840619179552782e+03  1.3842008450323710e+03  1.3842583997103106e+03  1.3845463550568970e+03  1.3845415548932044e+03  1.3845334594636518e+03  1.3847178038994025e+03  1.3847726289180962e+03  1.3847878048175091e+03  1.3848183207992197e+03  1.3847987134670520e+03  1.3847678767381210e+03  1.3847186917599079e+03  1.3846999448402332e+03  1.3846289116407149e+03  1.3845727672608989e+03  1.3843323359227486e+03  1.3842575747153960e+03  1.3842093323362221e+03  1.3840089461622949e+03  1.3838007195742539e+03  1.3835828699269575e+03  1.3833892943554331e+03  1.3830321452110036e+03  1.3826528809916740e+03  1.3828804931949021e+03  1.3825459190188758e+03  1.3823389719864417e+03  1.3814125260317571e+03  1.3816300524480741e+03  1.3804732984727596e+03  1.3804353107882887e+03  1.3799408748663027e+03  1.3796504294233300e+03  1.3794658219546388e+03  1.3787934462037840e+03  1.3775575085866553e+03  1.3768012205003943e+03  1.3768387602465637e+03  1.3759061891114202e+03  1.3777755105686426e+03  1.3670217713516051e+03  1.3651911853569918e+03  1.3641529006600870e+03  1.3742741295240339e+03  1.3446589984462410e+03  1.4297708120520613e+03  1.5876280997458696e+03  2.6728026927525661e+03  1.0436897755377599e+03  1.0442647135475838e+03  1.0451894881743374e+03  1.0464743224906747e+03  1.0481627611259462e+03  1.0501670697348306e+03  1.0525341853422724e+03  1.0552306721375887e+03  1.0583019333321465e+03  1.0617180908955645e+03  1.0654826269122993e+03  1.0695428087988494e+03  1.0739228575869508e+03  1.0786077655705537e+03  1.0836074073833779e+03  1.0888388977546572e+03  1.0943442246744467e+03  1.1001865769706390e+03  1.1062798384868788e+03  1.1127440491525601e+03  1.1191510578253549e+03  1.1258670538996034e+03  1.1326943865053142e+03  1.1398162228834010e+03  1.1470516541488694e+03  1.1544687901641917e+03  1.1619999904338433e+03  1.1696137890942193e+03  1.1773556954671392e+03  1.1853212767475261e+03  1.1931913918850857e+03  1.2007742539821070e+03  1.2089571019849063e+03  1.2173760359018395e+03  1.2250439008023127e+03  1.2329052860353595e+03  1.2410986597575825e+03  1.2487941268019927e+03  1.2564399160972062e+03  1.2641697088735361e+03  1.2721526029446932e+03  1.2794649945065237e+03  1.2862932961004310e+03  1.2937828245834417e+03  1.2971203075213602e+03  1.3023162846527578e+03  1.3105629500380126e+03  1.3265082938771777e+03  1.3269692089006269e+03  1.3660795836004486e+03  1.3650861369162026e+03  1.3717476402220661e+03  1.3387492651845628e+03  1.1927547229176328e+03  1.0221190923425726e+03  5.5730479359108699e+02  4.0768288544981488e+02  -5.6625292061945402e+02  5.5092914900583514e+02  3.6558478888954193e+02  2.0866726988546787e+02  4.9054327620989007e+01  3.0720599318597387e+01  1.6747007458030757e+02  2.6952893346521682e+02  3.6376205940104995e+02  4.4969808701613226e+02  5.2847558313157538e+02  5.9869664698121278e+02  6.6136926548393978e+02  7.1598269733755876e+02  7.6203683253132760e+02  7.9898957340175571e+02  8.2626360052229154e+02  8.4360061104835813e+02  8.5015388807833745e+02  8.4565936405025298e+02  8.2977789506402621e+02  8.0231882128506811e+02  7.6330826933715605e+02  7.1281352841636044e+02  6.5123535093541454e+02  5.7888199905810939e+02  4.9633723964142763e+02  4.0452245288827339e+02  3.0462523400584593e+02  1.9586339453850744e+02  7.8048398005938182e+01  1.8530602105300975e+01  1.6441843541697199e+02  2.8680111151692506e+02  4.1545484516876030e+02  5.4424024396453558e+02  6.7245681237745464e+02  7.9904771219862084e+02  9.2307548850183173e+02  8.2501291776706898e+02  1.0238360041963687e+03  1.2593020157177998e+03  1.4731412125506388e+03  1.6225261161392448e+03  1.7185239597206596e+03  1.7489207656162284e+03  1.7437107253245822e+03  1.7238471564426025e+03  1.7355733999144061e+03  1.7433770293740195e+03  1.7533029773185017e+03  1.7152638546438243e+03  1.6253919601335908e+03  1.4762867387878462e+03  1.2566346678747198e+03  1.0269565510356015e+03  8.2025665403396852e+02  9.2200772098592722e+02  7.9696413691428700e+02  6.6941679100786439e+02  5.4025619691893746e+02  4.1068909121434478e+02  2.8115550656290003e+02  1.5913360802402900e+02  1.1380747403296587e+01  8.6284659262084276e+01  2.0235922978828526e+02  3.1131775620100558e+02  4.1094946726263561e+02  5.0247826191505141e+02  5.8446973589401057e+02  6.5610132541751909e+02  7.1696191012993199e+02  7.6678420840817523e+02  8.0483668416887440e+02  8.3137398315791506e+02  8.4636466655410106e+02  8.5003151302109882e+02  8.4263603974731609e+02  8.2476506961761356e+02  7.9672782974703318e+02  7.5922890642540631e+02  7.1287534441237869e+02  6.5789093152837495e+02  5.9480619522842028e+02  5.2405930512282714e+02  4.4592641609443490e+02  3.6015818522599608e+02  2.6503046773034208e+02  1.6348435774767023e+02  2.6457111027029217e+01  5.3810303683475226e+01  2.1149608519618658e+02  3.6760091532004498e+02  5.5323222503235172e+02  1.0047256231581360e+03  8.8442414336890135e+02  2.6041471639794167e+02  2.0888988364225311e+03  1.9862741778212569e+03  2.0164795670487811e+03  3.1218392955801578e+03  1.7628958163547145e+03  2.1189538994682530e+03  1.9295298823510291e+03  9.9058560704830256e+02  8.4531611175846263e+02  2.4431077451932757e+02  1.0494593399630369e+03  1.0340767769791382e+03  2.6640636313929199e+03  8.3726644749682464e+02  8.3848619425396510e+02  1.0285082332760426e+03  1.0358090639766322e+03  7.9013708827696007e+02  7.8795219462091859e+02  9.9750550138388326e+02  9.9307094799069046e+02  4.6591965723562629e+02  4.4895556059934171e+02  9.8575964761338480e+02  9.9249290923287322e+02  8.4328352475513457e+03  8.4882829838428825e+03  6.9227516449444454e+02  6.8417776850314715e+02  9.7622960182319753e+02  9.8265227210304647e+02  9.6276412078339422e+02  4.8180173018017638e+02  9.5459626372674018e+02  4.0169570400848403e+02  2.0165430910706000e+03  2.0444115275074250e+03  2.2516672265236093e+03  3.0424604287065918e+03  1.7040330430607796e+01  8.7444542427773371e+00  2.2791412584220525e+03  1.8782773551219057e+03  1.9060514945422135e+03  4.1055306939500872e+02  9.7012884412688243e+02  4.0894684706521150e+02  9.5399959670245846e+02  1.0016564631712256e+03  1.0196438046737261e+03  1.0301381590243341e+03  1.0029181807614557e+03  1.0350609215713234e+03  1.0061819900939804e+03  1.3643151865306578e+02  1.3266976452969951e+02  2.4167637086578779e+03  3.4500028650555737e+02  3.5303613664175856e+02  3.6407077820889003e+03  2.3382045041934989e+03  1.1491544210933264e+03  1.1864113171385470e+03  9.6617779125657887e+02  6.1614183399594476e+03  9.4083919755199508e+02  2.5290662049808807e+02  2.5598411034450001e+02  6.1566171097237634e+02  6.1783316183940030e+02  8.4197477081644422e+02  8.4230733599172186e+02  6.1897306651835947e+02  6.1826305364694099e+02  7.8389305989309855e+02  7.8131548101112742e+02  9.8341396756259621e+02  9.9712366019111391e+02  9.9553091119807846e+02  5.6742448931621368e+02  5.6342026757302472e+02  1.0231680742550989e+03  9.8343998382718200e+02  9.9136102987374534e+02  1.0005850478424625e+03  1.0048612761857809e+03  1.0606320466584780e+03  9.7447784026948671e+02  9.0647117200112223e+02  9.1630005552354226e+02  7.7921803830222711e+02  7.1244960853607222e+02  1.4981526821547918e+03  2.3912351455285972e+02  1.5958121462133170e+03  1.7525177396850049e+02  2.0617360988556143e+03  1.9804024644470392e+03  1.9523349125485995e+03  2.1492228872344831e+03  2.1548226888236159e+03  1.6695511560679589e+02  1.8020998238367267e+02  2.3652568347847437e+03  3.1480318677238238e+03  9.7713615715223004e+03  8.7224202008352404e+02  8.4943388853446424e+02  1.1445160661673406e+04  5.7891687920156403e+02  6.1327879816417203e+02  8.8198050805064543e+02  9.1687228078459873e+02  1.1704536505316712e+03  9.9655476011350243e+02  1.2716267042978709e+03  1.1467535311791555e+03  1.4401346057773135e+03  1.3415109434042063e+03  1.6514796516471292e+03  1.5636921501425606e+03  1.8885904919691111e+03  1.8056574206113760e+03  2.1431435600031568e+03  2.0597791176243659e+03  2.4066826902496318e+03  2.3196735695777597e+03  2.6741309899063958e+03  2.5627110199184881e+03  2.9469141508666480e+03  2.7963794425341339e+03  3.2183788536357574e+03  2.4294873498520515e+03  3.3514329718896270e+03  3.6739240863962627e+03  3.7826143418975389e+03  4.1533204098228389e+03  4.2204659949768584e+03  4.6403200869382708e+03  4.6529155922407253e+03  5.1182269396633264e+03  5.0562134106040721e+03  5.5455224626845975e+03  5.3936731196622941e+03  5.8746890344978592e+03  5.6603511176077063e+03  6.2294758806297641e+03  5.8544519871209750e+03  6.3684074291557772e+03  5.9079232723704899e+03  6.3885876693669125e+03  5.8551869486390960e+03  6.2681950213360651e+03  5.6900931613003240e+03  6.0038205073033268e+03  5.4202408354026602e+03  5.6235038338749109e+03  5.0395057485477028e+03  5.1876273597108520e+03  4.6401218298638314e+03  4.7186836522627855e+03  4.2781138713389673e+03  4.2445793326863741e+03  3.8725919365240957e+03  3.7886573056579050e+03  3.4793450153342887e+03  3.3677300585451999e+03  3.1130794488096585e+03  2.9910541557260626e+03  2.7779564889368053e+03  2.6507002773999907e+03  2.4774194607433215e+03  2.3420572651970670e+03  2.2064922705773106e+03  2.0704518691377102e+03  1.9701705976163582e+03  1.8382188169742583e+03  1.7622256136601854e+03  1.6363005827718939e+03  6.8024061640590335e+03  1.5785311240763538e+03  1.4596644194024157e+03  1.4893198436564821e+03  1.3274496743096465e+03  1.6825453631277251e+03  2.5767156009843802e+03  2.1775038675405108e+03  2.6093449166162786e+03  2.2746746941102301e+03  6.6525973634844504e+03  3.1748690283748174e+03  1.3294841715120963e+03  1.1830300440637725e+03  1.1888848478807756e+03  1.0526370138291270e+03  4.0153247798662505e+03  5.6214597427738890e+03  2.3972804620695615e+03  2.0990722298307760e+03  4.6716915047365710e+03  2.1797394167575139e+03  1.9037112333646996e+03  1.8452529808431118e+03  1.6741620312551674e+03  1.6347601598013061e+03  1.4885780244196883e+03  1.4906499540594214e+03  1.3248820322082820e+03  1.1644110556159458e+03  1.0690621923359831e+03  9.3943139293570914e+02  1.4610355995657274e+03  1.2980112004942591e+03  1.1610909687170822e+03  9.6497591469195845e+02  8.3792532313755430e+02  8.0077739266533933e+02  7.1352496556734604e+02  6.6049198889250647e+02  5.8163768714017795e+02  1.1132841140164189e+03  9.9518628945600096e+02  1.0448524028137635e+03  8.9515402976380688e+02  4.2405007486828163e+03  8.2604251472350415e+02  7.4133015091302536e+02  3.8545742420757733e+03  4.8236347330305998e+03  5.4129054590522301e+03  9.4761356373903823e+02  5.1753423374469821e+02  4.4639715924699681e+02  8.6898209789841189e+02  9.7715774803648901e+02  6.5906826708916947e+02  5.8911453462865302e+02  5.1988696918869819e+03  5.1603929904090660e+02  3.8315654528881862e+02  3.7628578810092193e+02  4.9782166404299437e+02  5.7156977521857323e+02  4.3432712986949855e+02  5.2826615014270101e+02  3.8321762937662641e+02  8.9647565654195148e+02  9.8770635815601656e+02  4.7740687798142733e+02  1.2462038946860412e+03  4.4644354309473272e+02  3.3599026765151922e+02  3.0553388192505662e+02  3.7100286337133872e+02  2.2256754904456398e+03  4.7622283084051963e+02  3.2971330409508317e+02  3.4744569165720804e+02  9.1380827643188377e+02  9.9414268129598088e+02  2.3407552507783024e+02  2.9550538324776772e+02  1.7997430607985709e+02  1.5131794299558987e+03  4.3553030260990772e+02  3.9708571692211927e+02  2.7496376352208642e+02  3.1785512778968564e+02  2.2417072969214411e+02  1.8217472580268762e+02  2.2681941228864358e+02  9.2491633962247647e+02  9.9162225826455472e+02  2.0465385546986775e+02  1.1436738900817704e+02  9.0153923603967101e+01  1.0198185005621093e+02  3.4342588030280825e+02  2.2793179589607917e+02  1.5771462253723857e+02  1.1557325239839913e+02  8.0341822628399967e+01  4.0032844586791322e+02  5.1486617448858226e+02  7.5380081781288041e+01  1.4946103982522607e+02  1.0305085867439861e+02  2.0282223004389056e+02  1.9874305128488820e+02  9.2992914846744259e+02  9.8350874828247095e+02  1.0484671561197590e+03  1.0263178019002698e+03  1.0964629962225665e+03  1.0579299578135519e+03  1.1344999294760894e+03  1.0789898362258716e+03  1.1620987682441034e+03  1.0900758431468878e+03  1.1825956204946872e+03  1.0922192152694315e+03  1.1910582573284173e+03  1.0830192139484088e+03  1.1963004994593023e+03  1.0638582988523701e+03  1.1982903022793344e+03  1.3479693773193446e+03  1.3698664489188745e+03  8.6526498237632620e+02  1.7508111205190241e+02  1.8739703341198393e+02  2.8240730865075710e+02  2.2077661674554093e+02  3.4921407768666063e+02  2.7293320096124251e+02  4.2787392015020669e+02  3.4149711398438092e+02  5.1936852514515351e+02  4.2606926539520560e+02  6.1988287569499607e+02  5.2449456438497225e+02  7.3969637974190834e+02  6.4251172830631526e+02  8.8577649732275142e+02  7.8295074204482330e+02  1.0452075946939033e+03  9.4437615694479462e+02  1.2186079136919611e+03  1.1325760023260270e+03  1.4392732794898250e+03  1.3558002780742484e+03  1.7053283424572849e+03  1.6190539636549138e+03  2.0020967746386436e+03  1.9249373940432290e+03  2.3420407739989082e+03  2.2944438592153438e+03  2.7419029221199326e+03  2.7360611401984702e+03  3.2093453390743093e+03  3.2546890514006504e+03  3.7542064688181422e+03  3.8641276922021902e+03  4.3708689119283845e+03  4.5623565007700108e+03  5.0602909348080448e+03  5.3533084177317523e+03  5.8088151374419858e+03  6.1999385340519948e+03  6.5819437468244487e+03  7.1018983051238192e+03  7.3681521117051789e+03  7.9821586617052481e+03  7.7025010203908432e+03  8.6311605693558777e+03  8.7512599650555221e+03  9.4361041928221384e+03  9.4178997879770832e+03  1.0109468857476630e+04  9.9738840205839806e+03  1.0645557630108422e+04  1.0843620507887288e+04  1.1268934696712602e+04  1.1030402526898246e+04  1.1569588480986889e+04  1.1287898010358367e+04  1.1828183375470995e+04  1.1453927909660333e+04  1.1864012501669453e+04  1.1506413195414234e+04  1.1872614941111360e+04  1.1478449801521539e+04  1.1872312049099079e+04  1.1364137825135225e+04  1.1652407596792045e+04  1.1129024699976095e+04  1.1379863691238679e+04  1.2174137133168084e+04  1.0785399919830463e+04  1.0945571178325299e+04  1.0304726819801119e+04  1.1783412863635847e+04  1.1881583463795452e+04  1.0355106201897297e+04  9.6891232362203318e+03  9.6490621606085533e+03  8.9796498803687246e+03  8.8466495398263742e+03  8.1560669554380383e+03  7.7780405611343340e+03  7.2839953482184183e+03  6.7882902585471948e+03  6.4145416154412678e+03  1.0945665146400901e+04  5.8592107424288088e+03  5.6154980733933435e+03  5.0267744397668594e+03  4.8912688576111359e+03  4.2781342995804544e+03  4.2398379360876816e+03  3.6626399345370783e+03  1.0996261414105205e+04  3.6715343829472195e+03  3.1131453052532593e+03  3.1785820697661215e+03  2.6680522141053743e+03  1.0358586858481445e+04  2.7548736426898222e+03  2.2866655834054945e+03  9.6712886703822332e+03  8.3857064154964464e+03  2.3795170423174595e+03  1.9608040474645702e+03  2.0584010882969951e+03  1.6862440113055088e+03  5.3966049837731289e+03  2.7443923598252663e+03  7.6161312683805672e+03  4.7403472882123579e+03  1.5352696496447250e+03  1.3092416118161746e+03  1.4568264041382440e+03  1.1174919752774554e+03  2.5181155573570531e+03  7.1598107609149474e+03  2.7059197843513102e+03  4.3047970269314665e+03  1.1201753073022103e+03  1.5025319707976619e+03  5.2845204243814680e+02  1.5533915679766390e+03  1.5854436379221411e+03  1.8056353511336911e+03  1.8367004544774770e+03  1.7442645883103350e+02  1.2601346985009991e+03  9.5346959200888784e+02  1.7354345546752279e+03  9.2838644007839957e+03  2.6236757669212409e+02  2.3942561741813674e+02  2.8693313005245011e+02  7.9951331754264663e+02  6.6747929153894916e+02  8.1218916911091787e+02  5.5813780691070622e+02  6.9207167141699199e+02  4.6280722940213735e+02  2.2279292155751401e+02  2.0980089439570853e+02  1.0097174512217509e+03  4.8378941370248918e+02  5.8639370198898348e+02  3.6018744196695279e+03  1.0419545129288879e+03  6.8130107980556631e+03  5.8695930980241008e+02  3.7988423822505001e+02  7.0650513453583045e+01  3.1330995407902014e+02  3.1924437996511102e+02  9.6896581564580686e+02  2.2728605334034106e+02  2.5607702824294444e+02  2.0941381963475933e+03  2.1117948438664494e+03  3.0131732976987661e+02  4.0857392246042559e+02  9.6013186566074546e+02  1.5785679245958759e+03  1.4147955309269398e+03  2.5737781917835929e+02  2.3088563029468170e+02  3.5460439533861671e+02  3.3018393058188923e+02  4.0819688824478794e+02  1.3157882548423127e+03  3.0816627936122512e+02  2.0801753622032007e+02  1.8065165404118377e+03  2.4919065653247526e+03  2.4262321272731083e+03  2.4188330171492976e+03  5.5747363096337438e+02  6.4921530936235160e+02  1.0750321907690013e+03  2.7727761899152956e+03  2.7367069587895785e+03  1.9926226465172417e+02  3.1225570687064220e+02  2.2384288190587240e+03  2.5052440648844629e+02  2.7265714368507400e+02  2.0199751483271521e+02  2.9795059998308506e+02  2.0944731609578258e+02  3.2172890717661653e+02  2.2500849088497944e+02  3.4537319595951544e+02  8.1097770112909666e+02  8.2117405388702025e+02  3.0708204972909425e+02  4.2535462144760191e+02  4.2915057752024410e+02  4.2217330267057190e+02  4.5310777539767548e+02  2.4442291821707394e+02  3.6886859743721311e+02  2.6457995952783511e+02  3.8926889888885972e+02  2.8423736125063232e+02  4.0885968486191524e+02  3.2479460924482225e+02  3.6995274442892861e+02  4.7086990677101608e+02  1.5117737924282972e+03  1.3575628538636158e+03  1.2738374770838384e+03  1.2285453789034291e+03  1.1599756595394715e+03  1.1257463418062764e+03  1.1755802305581085e+03  1.0823298001346438e+03  1.0427951602838648e+03  1.1149764299456458e+03  1.0308457507822718e+03  1.0464487856067633e+03  9.7239307268588414e+02  9.7075481373229479e+02  9.6655114922427538e+02  4.4940850494124072e+02  4.2391968425369623e+02  4