<?xml version="1.0"?>
<VTKFile type="UnstructuredGrid"  version="0.1"  >
<UnstructuredGrid>
<Piece  NumberOfPoints="3167" NumberOfCells="6038">
<Points>
<DataArray  type="Float64"  NumberOfComponents="3"  format="ascii">2.2 2.9 0  0 2.9 0  2.8 2.9 0  5 2.9 0  5 0 0  0 0 0  2.16271186440678 2.9 0  2.125423728813559 2.9 0  2.088135593220339 2.9 0  2.050847457627119 2.9 0  2.013559322033898 2.9 0  1.976271186440678 2.9 0  1.938983050847457 2.9 0  1.901694915254237 2.9 0  1.864406779661016 2.9 0  1.827118644067796 2.9 0  1.789830508474575 2.9 0  1.752542372881355 2.9 0  1.715254237288134 2.9 0  1.677966101694914 2.9 0  1.640677966101693 2.9 0  1.603389830508473 2.9 0  1.566101694915253 2.9 0  1.528813559322032 2.9 0  1.491525423728812 2.9 0  1.454237288135591 2.9 0  1.416949152542371 2.9 0  1.37966101694915 2.9 0  1.34237288135593 2.9 0  1.305084745762709 2.9 0  1.267796610169489 2.9 0  1.230508474576268 2.9 0  1.193220338983048 2.9 0  1.155932203389827 2.9 0  1.118644067796607 2.9 0  1.081355932203387 2.9 0  1.044067796610166 2.9 0  1.006779661016946 2.9 0  0.9694915254237257 2.9 0  0.9322033898305055 2.9 0  0.8949152542372856 2.9 0  0.8576271186440652 2.9 0  0.820338983050845 2.9 0  0.783050847457625 2.9 0  0.7457627118644048 2.9 0  0.7084745762711844 2.9 0  0.6711864406779642 2.9 0  0.633898305084744 2.9 0  0.5966101694915238 2.9 0  0.5593220338983036 2.9 0  0.5220338983050834 2.9 0  0.4847457627118632 2.9 0  0.447457627118643 2.9 0  0.4101694915254228 2.9 0  0.3728813559322024 2.9 0  0.3355932203389822 2.9 0  0.2983050847457622 2.9 0  0.2610169491525418 2.9 0  0.2237288135593216 2.9 0  0.1864406779661016 2.9 0  0.1491525423728812 2.9 0  0.1118644067796613 2.9 0  0.07457627118644039 2.9 0  0.03728813559321997 2.9 0  2.792405063291139 2.9 0  2.784810126582279 2.9 0  2.777215189873418 2.9 0  2.769620253164557 2.9 0  2.762025316455697 2.9 0  2.754430379746836 2.9 0  2.746835443037975 2.9 0  2.739240506329114 2.9 0  2.731645569620254 2.9 0  2.724050632911393 2.9 0  2.716455696202532 2.9 0  2.708860759493671 2.9 0  2.701265822784811 2.9 0  2.69367088607595 2.9 0  2.686075949367089 2.9 0  2.678481012658228 2.9 0  2.670886075949368 2.9 0  2.663291139240507 2.9 0  2.655696202531646 2.9 0  2.648101265822786 2.9 0  2.640506329113925 2.9 0  2.632911392405064 2.9 0  2.625316455696203 2.9 0  2.617721518987342 2.9 0  2.610126582278482 2.9 0  2.602531645569621 2.9 0  2.59493670886076 2.9 0  2.587341772151899 2.9 0  2.579746835443038 2.9 0  2.572151898734178 2.9 0  2.564556962025317 2.9 0  2.556962025316456 2.9 0  2.549367088607595 2.9 0  2.541772151898734 2.9 0  2.534177215189874 2.9 0  2.526582278481013 2.9 0  2.518987341772152 2.9 0  2.511392405063292 2.9 0  2.503797468354431 2.9 0  2.49620253164557 2.9 0  2.488607594936709 2.9 0  2.481012658227848 2.9 0  2.473417721518988 2.9 0  2.465822784810127 2.9 0  2.458227848101266 2.9 0  2.450632911392406 2.9 0  2.443037974683545 2.9 0  2.435443037974684 2.9 0  2.427848101265823 2.9 0  2.420253164556962 2.9 0  2.412658227848102 2.9 0  2.405063291139241 2.9 0  2.39746835443038 2.9 0  2.389873417721519 2.9 0  2.382278481012658 2.9 0  2.374683544303798 2.9 0  2.367088607594937 2.9 0  2.359493670886076 2.9 0  2.351898734177215 2.9 0  2.344303797468355 2.9 0  2.336708860759494 2.9 0  2.329113924050633 2.9 0  2.321518987341773 2.9 0  2.313924050632912 2.9 0  2.306329113924051 2.9 0  2.29873417721519 2.9 0  2.291139240506329 2.9 0  2.283544303797469 2.9 0  2.275949367088608 2.9 0  2.268354430379747 2.9 0  2.260759493670887 2.9 0  2.253164556962026 2.9 0  2.245569620253165 2.9 0  2.237974683544304 2.9 0  2.230379746835443 2.9 0  2.222784810126583 2.9 0  2.215189873417722 2.9 0  2.207594936708861 2.9 0  4.96271186440678 2.9 0  4.925423728813559 2.9 0  4.888135593220339 2.9 0  4.850847457627118 2.9 0  4.813559322033898 2.9 0  4.776271186440677 2.9 0  4.738983050847457 2.9 0  4.701694915254237 2.9 0  4.664406779661016 2.9 0  4.627118644067796 2.9 0  4.589830508474575 2.9 0  4.552542372881355 2.9 0  4.515254237288135 2.9 0  4.477966101694914 2.9 0  4.440677966101694 2.9 0  4.403389830508473 2.9 0  4.366101694915252 2.9 0  4.328813559322032 2.9 0  4.291525423728811 2.9 0  4.254237288135591 2.9 0  4.21694915254237 2.9 0  4.17966101694915 2.9 0  4.14237288135593 2.9 0  4.105084745762709 2.9 0  4.067796610169489 2.9 0  4.030508474576268 2.9 0  3.993220338983048 2.9 0  3.955932203389827 2.9 0  3.918644067796607 2.9 0  3.881355932203387 2.9 0  3.844067796610166 2.9 0  3.806779661016946 2.9 0  3.769491525423725 2.9 0  3.732203389830505 2.9 0  3.694915254237285 2.9 0  3.657627118644065 2.9 0  3.620338983050845 2.9 0  3.583050847457625 2.9 0  3.545762711864405 2.9 0  3.508474576271184 2.9 0  3.471186440677964 2.9 0  3.433898305084744 2.9 0  3.396610169491524 2.9 0  3.359322033898303 2.9 0  3.322033898305083 2.9 0  3.284745762711863 2.9 0  3.247457627118643 2.9 0  3.210169491525423 2.9 0  3.172881355932202 2.9 0  3.135593220338982 2.9 0  3.098305084745762 2.9 0  3.061016949152542 2.9 0  3.023728813559321 2.9 0  2.986440677966101 2.9 0  2.949152542372881 2.9 0  2.911864406779661 2.9 0  2.87457627118644 2.9 0  2.83728813559322 2.9 0  5 0.1063822625082082 0  5 0.210636880010749 0  5 0.3128064053694972 0  5 0.4129325400644018 0  5 0.5110561521032336 0  5 0.6072172918830103 0  5 0.7014552087832795 0  5 0.7938083674443693 0  5 0.88431446261646 0  5 0.9730104359544682 0  5 1.059932489996267 0  5 1.145116102913299 0  5 1.228596043483191 0  5 1.310406385079062 0  5 1.390580519944147 0  5 1.469151172477827 0  5 1.546150411986101 0  5 1.621609666658609 0  5 1.695559736099044 0  5 1.76803080383987 0  5 1.839052450169751 0  5 1.908653663631169 0  5 1.97686285289587 0  5 2.043707858613779 0  5 2.109215964341413 0  5 2.173413907925942 0  5 2.236327892833935 0  5 2.297983597762904 0  5 2.35840618845912 0  5 2.41762032730194 0  5 2.475650183444628 0  5 2.532519442457069 0  5 2.588251316112828 0  5 2.642868552557322 0  5 2.696393444426347 0  5 2.748847838312051 0  5 2.800253144313381 0  5 2.850630344319807 0  0.2631578947368421 0 0  0.5263157894736842 0 0  0.7894736842105263 0 0  1.052631578947368 0 0  1.31578947368421 0 0  1.578947368421053 0 0  1.842105263157895 0 0  2.105263157894737 0 0  2.368421052631579 0 0  2.631578947368421 0 0  2.894736842105263 0 0  3.157894736842105 0 0  3.421052631578947 0 0  3.684210526315789 0 0  3.947368421052632 0 0  4.210526315789473 0 0  4.473684210526315 0 0  4.736842105263158 0 0  0 2.850203682350569 0  0 2.799411438503675 0  0 2.747603349778291 0  0 2.694759099502208 0  0 2.640857964382145 0  0 2.58587880633613 0  0 2.52980006535898 0  0 2.472599749459174 0  0 2.414255427218689 0  0 2.35474421880616 0  0 2.294042786119219 0  0 2.232127324764723 0  0 2.1689735539481 0  0 2.104556707683347 0  0 2.038851524813415 0  0 1.971832238155655 0  0 1.903472565412126 0  0 1.83374569926617 0  0 1.762624296208475 0  0 1.690080464918761 0  0 1.616085756774206 0  0 1.540611154706337 0  0 1.463627060685571 0  0 1.385103284916206 0  0 1.305009033716617 0  0 1.223312897337225 0  0 1.139982838163732 0  0 1.054986177579938 0  0 0.9682895835804817 0  0 0.8798590579197976 0  0 0.7896599218415354 0  0 0.6976568029903638 0  0 0.6038136217958798 0  0 0.508093576867624 0  0 0.4104591310957497 0  0 0.3108719963522191 0  0 0.2092931188294389 0  0 0.1056826638508546 0  1.434832105763824 2.866945754981483 0  1.737156300467626 2.870039440267515 0  2.032203389830508 2.867707527316512 0  2.332911392405064 2.893422591869991 0  2.469810913293406 2.891944186606167 0  2.606221408823969 2.892519154985628 0  2.255455320628894 2.892068685006691 0  2.538247299216212 2.894964578182811 0  2.674683544303798 2.893422591869991 0  2.40126582278481 2.893422591869991 0  3.566125247295424 2.865029336199714 0  3.266101694915253 2.867707527316512 0  2.967796610169491 2.867707527316512 0  1.174288529834642 2.870795313888584 0  3.825423728813556 2.867707527316512 0  2.727766680262011 2.892655387647729 0  0.06601655192030442 1.502119107695954 0  4.933983535508361 1.507650792231964 0  0.9532124728485543 2.868722489783638 0  4.048935912500257 2.870640982995992 0  0.05930163367361763 1.866907161167414 0  4.943402512618553 1.871280731473148 0  4.271733870017743 2.86520865624265 0  0.7249420921613114 2.863922936177041 0  0.05494499779910056 2.196469063120752 0  4.947228695426367 2.208030108792719 0  0.5406152150397161 2.866493807382013 0  4.459322033898304 2.868847558178794 0  2.18135593220339 2.875780645487384 0  2.817027156509632 2.876587550645167 0  4.928427208322876 1.186856073198245 0  0.07189226971603224 1.174626666111662 0  4.610299014423113 2.867003104093161 0  0.3897270066746357 2.869433095314657 0  1.581132500042262 2.868247328632392 0  1.887637879411437 2.869235851794358 0  3.413449426418068 2.867372048034327 0  3.116721298814773 2.865731235547652 0  2.644303797468355 2.893422591869991 0  2.370983221828106 2.892719513369796 0  2.302531645569621 2.893336787387268 0  2.758987341772152 2.894242393897099 0  0.04979653335696277 2.443411216910286 0  4.950470983477169 2.446866954595817 0  2.482937483021586 0.2513241087417575 0  1.707129504814338 0.1999998659920923 0  3.28584657955054 0.229200625631625 0  4.907807122600524 0.834082362900164 0  4.757627118644067 2.867707527316512 0  0.0773489124676745 0.8347594898806663 0  0.2390604736599387 2.861365431805741 0  0.8363213715215729 2.863896768908178 0  4.160865610207075 2.868916854015731 0  1.282549332053297 2.867610952980761 0  1.065094818402487 2.861284686038041 0  3.93818127737282 2.86865134411395 0  3.711492629432973 2.863574306925269 0  4.91369361998929 0.5579891344254361 0  0.08208328472281323 0.5559535993317519 0  2.696596932532885 2.892010483922337 0  0.04706410140274553 2.613055974506516 0  4.955577063972248 2.616518038840186 0  2.234177215189874 2.893422591869991 0  2.279795840559739 2.89403861893984 0  0.9117357887652362 0.2117925286661764 0  4.055948041993057 0.2039101057937727 0  4.872119713780579 2.867632926423075 0  2.780113878992455 2.891535929611743 0  0.1327442468251063 2.85
[...]
<PointData  Scalars=" mean stress"> 
<DataArray  type="Float64"  Name=" mean stress"  format="ascii">3.9660999752857447e+03  9.0796418016753307e+02  3.6935746276441555e+03  9.0796892408681992e+02  6.4997703163506355e+02  6.4653129366471853e+02  -4.9356932077268908e+02  2.0481602789412460e+02  4.8515964911805975e+02  8.2511729788842615e+02  1.0687648883610050e+03  1.2056812774639357e+03  1.2084952302531751e+03  1.1971675704858415e+03  1.1964328144394840e+03  1.1583450713667762e+03  1.1429602361735315e+03  1.1381507881346170e+03  1.1332750158130239e+03  1.1307088372110522e+03  1.1251599299276609e+03  1.1196523616299426e+03  1.1133863181480983e+03  1.1064440889709331e+03  1.1001988985207004e+03  1.0932065682499097e+03  1.0866938515427823e+03  1.0798847606372403e+03  1.0727379149197063e+03  1.0656720350469957e+03  1.0589351772781122e+03  1.0520713912628564e+03  1.0450410065538063e+03  1.0382626725730245e+03  1.0313888122113908e+03  1.0247126980872426e+03  1.0174767203770296e+03  1.0109598133268265e+03  1.0043256477947072e+03  9.9808947779570985e+02  9.9168708902047877e+02  9.8545688691519479e+02  9.7948743957287968e+02  9.7361124748652321e+02  9.6796972062359293e+02  9.6250250682746741e+02  9.5724717293405968e+02  9.5216866541355512e+02  9.4736119002115686e+02  9.4276765485276121e+02  9.3847083136873448e+02  9.3437173000994289e+02  9.3056606587010117e+02  9.2701819571324552e+02  9.2375453509638794e+02  9.2079565990527590e+02  9.1813865135550520e+02  9.1579925019231109e+02  9.1369510537087683e+02  9.1192466029591048e+02  9.1051542239239325e+02  9.0942281161036317e+02  9.0859259158516898e+02  9.0805972951658885e+02  3.9545866639524424e+03  8.6859712922596191e+02  1.2519077512759152e+03  1.1919616147897166e+03  1.1628923119908086e+03  1.1863334086175846e+03  1.1858972444449357e+03  1.1936669478962558e+03  1.1955956775136679e+03  1.1972128595357271e+03  1.1961079278486045e+03  1.1971393367721582e+03  1.2006237792086113e+03  1.2004222063841530e+03  1.2004952130584095e+03  1.2003599063467136e+03  1.2010050767365362e+03  1.2012435178258618e+03  1.2017570496850522e+03  1.2021097303100119e+03  1.2022696164109459e+03  1.2024923933368091e+03  1.2027180251023337e+03  1.2029072158294450e+03  1.2031738914339464e+03  1.2037985703424361e+03  1.2037498540653685e+03  1.2039281312243493e+03  1.2040176088580447e+03  1.2042120642097066e+03  1.2043329386176531e+03  1.2043830144377375e+03  1.2046335518563324e+03  1.2046293754433188e+03  1.2046223319628430e+03  1.2047827220370070e+03  1.2048304229007890e+03  1.2048436267893026e+03  1.2048701774193405e+03  1.2048531179312843e+03  1.2048262882366421e+03  1.2047834945271400e+03  1.2047671836464913e+03  1.2047053807502723e+03  1.2046565319676160e+03  1.2044473431211168e+03  1.2043822966448256e+03  1.2043403230486781e+03  1.2041659757581281e+03  1.2039848068620736e+03  1.2037952653603695e+03  1.2036268436764879e+03  1.2033161037415148e+03  1.2029861224466499e+03  1.2031841579212105e+03  1.2028930594855740e+03  1.2027130038746800e+03  1.2019069435537924e+03  1.2020962038249725e+03  1.2010897625146454e+03  1.2010567110814800e+03  1.2006265238953715e+03  1.2003738199506224e+03  1.2002132010224443e+03  1.1996281961313175e+03  1.1985528605773607e+03  1.1978948472159211e+03  1.1979275089152734e+03  1.1971161193395112e+03  1.1987425346182658e+03  1.1893861739445556e+03  1.1877934607060024e+03  1.1868900943599692e+03  1.1956961352901017e+03  1.1699292980834132e+03  1.2439813844982177e+03  1.3813261432813422e+03  2.3254893484969175e+03  9.0806907024188945e+02  9.0856929879280938e+02  9.0937390496525336e+02  9.1049178340995945e+02  9.1196082041464149e+02  9.1370468214216055e+02  9.1576420645599353e+02  9.1811030231179973e+02  9.2078247306864239e+02  9.2375472315207844e+02  9.2703008217228034e+02  9.3056266980238468e+02  9.3437355970844078e+02  9.3844969433821711e+02  9.4279966518100605e+02  9.4735135736844143e+02  9.5214130282410042e+02  9.5722447939819631e+02  9.6252596116938469e+02  9.6815018965815398e+02  9.7372464918137007e+02  9.7956794520081326e+02  9.8550811029273223e+02  9.9170451030532627e+02  9.9799974428775897e+02  1.0044530716682735e+03  1.0110056413944235e+03  1.0176300763870991e+03  1.0243659723273968e+03  1.0312964780741006e+03  1.0381439228830504e+03  1.0447414413177539e+03  1.0518609813879798e+03  1.0591859295417128e+03  1.0658574052178235e+03  1.0726972545166327e+03  1.0798259525575352e+03  1.0865214436581916e+03  1.0931737123105179e+03  1.0998990687374426e+03  1.1068446375902847e+03  1.1132068313785483e+03  1.1191478395449731e+03  1.1256641524624840e+03  1.1285679511767235e+03  1.1330887448391152e+03  1.1402638096375942e+03  1.1541371596444205e+03  1.1545381817554771e+03  1.1885664173698674e+03  1.1877020626277092e+03  1.1934979468598892e+03  1.1647874962621950e+03  1.0377639962107557e+03  8.8930135717944427e+02  4.8488665657085608e+02  3.5470714327271401e+02  -4.9267203262922425e+02  4.7933948557570056e+02  3.1807942084174567e+02  1.8155231391164915e+02  4.2680036461207358e+01  2.6728657034274118e+01  1.4570842647100187e+02  2.3450539973810015e+02  3.1649354320769453e+02  3.9126274237561586e+02  4.5980361470204957e+02  5.2089990754297924e+02  5.7542862646624826e+02  6.2294539768352888e+02  6.6301509723064862e+02  6.9516606951339315e+02  7.1889601401374387e+02  7.3398019266354697e+02  7.3968191392126460e+02  7.3577142408891962e+02  7.2195364881276510e+02  6.9806270326498134e+02  6.6412131908430229e+02  6.2018804167299277e+02  5.6661154827148948e+02  5.0366004437824353e+02  4.3184144013999827e+02  3.5195738838866981e+02  2.6504116405028645e+02  1.7041221897700365e+02  6.7906515779177198e+01  1.6122670758287956e+01  1.4305332798990906e+02  2.4953317047235052e+02  3.6146918732196991e+02  4.7351976028552991e+02  5.8507541867869338e+02  6.9521665355134257e+02  8.0312782615413244e+02  7.1780784935665986e+02  8.9079516749288587e+02  1.0956639006810199e+03  1.2817160832361487e+03  1.4116893891832972e+03  1.4952129367061136e+03  1.5216598751689198e+03  1.5171268457626336e+03  1.4998444185997751e+03  1.5100469129198814e+03  1.5168365114327621e+03  1.5254726469324801e+03  1.4923764611025363e+03  1.4141828353704698e+03  1.2844528687758657e+03  1.0933431573599237e+03  8.9351021954509963e+02  7.1366963119339562e+02  8.0219880808945231e+02  6.9340382533785441e+02  5.8243042833452512e+02  4.7005341426845553e+02  3.5732271212999666e+02  2.4462117520161445e+02  1.3845522958022511e+02  9.9018932209527506e+00  7.5072528397520855e+01  1.7606396264065771e+02  2.7086403646866808e+02  3.5754925400251636e+02  4.3718447646846471e+02  5.0852169111681530e+02  5.7084522098473644e+02  6.2379736813564955e+02  6.6714558245682576e+02  7.0025338622602749e+02  7.2334233562891882e+02  7.3638507711486750e+02  7.3957544070762026e+02  7.3314096113608343e+02  7.1759220746390758e+02  6.9319822475165586e+02  6.6057204287860304e+02  6.2024182508195872e+02  5.7240227940886882e+02  5.1751499471850843e+02  4.5596120332720841e+02  3.8798117558498564e+02  3.1335796906668691e+02  2.3059148039814525e+02  1.4224062764486706e+02  2.3019181345545789e+01  4.6818004334765966e+01  1.8401354305205243e+02  3.1983356474173621e+02  4.8134329183605524e+02  8.7416805630708984e+02  7.6949897219667139e+02  2.2657551596208197e+02  1.8174600045713348e+03  1.7281707535853050e+03  1.7544511487328341e+03  2.7161765622563335e+03  1.5338189588629511e+03  1.8436096074468337e+03  1.6788000106327656e+03  8.6186544342058914e+02  7.3547277520232160e+02  2.1256417670036163e+02  9.1308891725599040e+02  8.9970521838862544e+02  2.3178858713806985e+03  7.2846911251136476e+02  7.2953036110232142e+02  8.9486027075993218e+02  9.0121240594574408e+02  6.8746390731441704e+02  6.8556292639333947e+02  8.6788614244698886e+02  8.6402783045516458e+02  4.0537642493946936e+02  3.9061670244236791e+02  8.5766658605909925e+02  8.6352490407832977e+02  7.3370430967395559e+03  7.3852857599537692e+03  6.0231850470138272e+02  5.9527331270894899e+02  8.4937490780097278e+02  8.5496299380716243e+02  8.3765917853468113e+02  4.1919472569352916e+02  8.3055268143457295e+02  3.4949795715989831e+02  1.7545064182198664e+03  1.7787535324074665e+03  1.9590776999131081e+03  2.6471124633939949e+03  1.4826050205159746e+01  7.6081692281783999e+00  1.9829816598700327e+03  1.6342074163207558e+03  1.6583724867768447e+03  3.5720436546232384e+02  8.4406690392960024e+02  3.5580686128837476e+02  8.3003354741343480e+02  8.7149771371959832e+02  8.8714771706072497e+02  8.9627839824717375e+02  8.7259547930658243e+02  9.0056147978520505e+02  8.7543517782188189e+02  1.1870312922357115e+02  1.1543019060776221e+02  2.1027209668546507e+03  3.0016974080144763e+02  3.0716138442276866e+02  3.1676214601226266e+03  2.0343700205970740e+03  9.9982927032978910e+02  1.0322448747985113e+03  8.4062926470911111e+02  5.3607820584958490e+03  8.1858325662715481e+02  2.2004304834297361e+02  2.2272063837883147e+02  5.3566047169347985e+02  5.3754975662863387e+02  7.3256561980640026e+02  7.3285497029788303e+02  5.3854153810072410e+02  5.3792378678886064e+02  6.8203124985049135e+02  6.7978861059725216e+02  8.5562571189061111e+02  8.6755391903634211e+02  8.6616813742656836e+02  4.9369136358585610e+02  4.9020746444206640e+02  8.9021403070782401e+02  8.5564834751066985e+02  8.6254010508788747e+02  8.7056552185163764e+02  8.7428608210517916e+02  9.2280980330738350e+02  8.4785077627966541e+02  7.8868113270154220e+02  7.9723281667018205e+02  6.7796371694090874e+02  6.1987141081666857e+02  1.3034774748691163e+03  2.0805096746405627e+02  1.3884467260840142e+03  1.5247894458279947e+02  1.7938268882698842e+03  1.7230620312147300e+03  1.6986416753245430e+03  1.8699453369157095e+03  1.8748174806713580e+03  1.4526038307031868e+02  1.5679286602873313e+02  2.0579070765924193e+03  2.7389655798268468e+03  8.5016366215505222e+03  7.5889983668284447e+02  7.3905547364015490e+02  9.9579363949021063e+03  5.0369039207367786e+02  5.3358720292250064e+02  7.6737287141129821e+02  7.9773068497643044e+02  1.0183608032874409e+03  8.6705894382756799e+02  1.1063870760557770e+03  9.9774036046096239e+02  1.2529984705633115e+03  1.1671903123403854e+03  1.4368806008681240e+03  1.3605005148133018e+03  1.6431804280409199e+03  1.5710239704754363e+03  1.8646559787598019e+03  1.7921242040347670e+03  2.0939499112906360e+03  2.0182470605365777e+03  2.3266450420654578e+03  2.2297033732624232e+03  2.5639818035788803e+03  2.4330081025438258e+03  2.8001714319768726e+03  2.1137912535435835e+03  2.9159360320395654e+03  3.1965215214973132e+03  3.2910881844758073e+03  3.6136234074164845e+03  3.6720438600363577e+03  4.0373406406129561e+03  4.0482994418365734e+03  4.4531466028709256e+03  4.3991913290001412e+03  4.8249178488894258e+03  4.6928003414010927e+03  5.1113113633484436e+03  4.9248252661671768e+03  5.4199959639377448e+03  5.0937039887945084e+03  5.5408742603954270e+03  5.1402270279381537e+03  5.5584322095056723e+03  5.0943434468385558e+03  5.4536838038742990e+03  4.9507025245211662e+03  5.2236630402526098e+03  4.7159157550960754e+03  4.8927660475521989e+03  4.3846547190754036e+03  4.5135288892399576e+03  4.0371681457572313e+03  4.1055213697653535e+03  3.7222007694135868e+03  3.6930238261791023e+03  3.3693737752808488e+03  3.2963459043577191e+03  3.0272267365055568e+03  2.9301154181692696e+03  2.7085550006592553e+03  2.6023861015921866e+03  2.4169790920693158e+03  2.3062589984158094e+03  2.1554948980478530e+03  2.0377221403409610e+03  1.9197729359825257e+03  1.8014101008316800e+03  1.7141597289995400e+03  1.5993542249380537e+03  1.5332358446534975e+03  1.4236739533721411e+03  5.9184776794638055e+03  1.3734112604958157e+03  1.2699905117964656e+03  1.2957924063451901e+03  1.1549562138061310e+03  1.4639095249811853e+03  2.2418881500090120e+03  1.8945513875776260e+03  2.2702774980729278e+03  1.9790954965704830e+03  5.7881355591898691e+03  2.7623154258176146e+03  1.1567263413156045e+03  1.0293029761910800e+03  1.0343969862917540e+03  9.1585367304907095e+02  3.4935594129909664e+03  4.8909875728089219e+03  2.0857694415746550e+03  1.8263114316041674e+03  4.0646355464939570e+03  1.8964964416986393e+03  1.6563363273342543e+03  1.6054743449143484e+03  1.4566155526174909e+03  1.4223336983582042e+03  1.2951469816984854e+03  1.2969496775432219e+03  1.1527222201134211e+03  1.0131034043212284e+03  9.3014450632622629e+02  8.1735838707401399e+02  1.2711835160063345e+03  1.1293430783961378e+03  1.0102147411436745e+03  8.3958356419526820e+02  7.2904237154340194e+02  6.9672157327944547e+02  6.2080703218854160e+02  5.7466534626806094e+02  5.0605764869823366e+02  9.6862007660186157e+02  8.6586829704080890e+02  9.0908062165716876e+02  7.7883457956851464e+02  3.6894752276675144e+03  7.1870365687807862e+02  6.4499911435370734e+02  3.3536973631619535e+03  4.1968347394729708e+03  4.7095335632431725e+03  8.2447733794243845e+02  4.5028402258013472e+02  3.8839074872337341e+02  7.5606352020539873e+02  8.5018244744417325e+02  5.7342662786289054e+02  5.1256292843396727e+02  4.5233103533931908e+03  4.4898334492825074e+02  3.3336784166371001e+02  3.2738989473188013e+02  4.3313297323514666e+02  4.9729799651785021e+02  3.7788914124239653e+02  4.5962139616935571e+02  3.3342098827118519e+02  7.7998446953368386e+02  8.5936033421483864e+02  4.1537095598383598e+02  1.0842677953765497e+03  3.8843110529146088e+02  2.9233051535781982e+02  2.6583173907604305e+02  3.2279345174680833e+02  1.9364634210657002e+03  4.1434076807593857e+02  2.8686920243301131e+02  3.0229738144186024e+02  7.9506482808197620e+02  8.6496029898069287e+02  2.0365893142365664e+02  2.5710637864494771e+02  1.5658781432936570e+02  1.3165515944249075e+03  3.7893596950240521e+02  3.4548700794353482e+02  2.3923400894012227e+02  2.7655191909385286e+02  1.9504119984514517e+02  1.5850230380572336e+02  1.9734570334718737e+02  8.0472947063197751e+02  8.6276738854656378e+02  1.7806041662349782e+02  9.9506089871519023e+01  7.8439006977471024e+01  8.8729971235348131e+01  2.9879991845554895e+02  1.9831353993217914e+02  1.3722063203804788e+02  1.0055525914888895e+02  6.9901924772727710e+01  3.4830836533140643e+02  4.4796266028949810e+02  6.5584929911402000e+01  1.3003954877449465e+02  8.9660069129139046e+01  1.7646679902123918e+02  1.7291768303883021e+02  8.0909089753664671e+02  8.5570817647175750e+02  9.1222566125673848e+02  8.9295447170983516e+02  9.5398475377556974e+02  9.2045883335190308e+02  9.8707903468541144e+02  9.3878211739426081e+02  1.0110915836700046e+03  9.4842756974362476e+02  1.0289250031422741e+03  9.5029242458470014e+02  1.0362879753026953e+03  9.4228790366133001e+02  1.0408490221284317e+03  9.2561682499019662e+02  1.0425802630001035e+03  1.1728095147298259e+03  1.1918612041441031e+03  7.5282941969466378e+02  1.5233045907341841e+02  1.6304600647143596e+02  2.4571031374134577e+02  1.9208812982380508e+02  3.0383597719629762e+02  2.3746730479113097e+02  3.7227448419850072e+02  2.9712178278867333e+02  4.5187995973081883e+02  3.7070433260374955e+02  5.3933312348604079e+02  4.5633990347619721e+02  6.4357764113136818e+02  5.5902150372413257e+02  7.7067559654069805e+02  6.8121138008419939e+02  9.0938965866024409e+02  8.2166061112709519e+02  1.0602577328167149e+03  9.8540510936841338e+02  1.2522490680306760e+03  1.1796228408103566e+03  1.4837320041718949e+03  1.4086684203551126e+03  1.7419373067477225e+03  1.6748042863427142e+03  2.0377077920668489e+03  1.9962957871139199e+03  2.3856104520139183e+03  2.3805277716981459e+03  2.7923117639403995e+03  2.8317633554559202e+03  3.2663717299321575e+03  3.3620094045149103e+03  3.8029028951240880e+03  3.9695079159241855e+03  4.4027390054261787e+03  4.6576807702299284e+03  5.0539973512207089e+03  5.3942968036384373e+03  5.7266629209659150e+03  6.1790527626501362e+03  6.4107086169638205e+03  6.9449290050995087e+03  6.7016110572892067e+03  7.5095973315298888e+03  7.6140905910652264e+03  8.2099437609865217e+03  8.1941049002738146e+03  8.7958090624372471e+03  8.6778425941803907e+03  9.2622365821282674e+03  9.4345624757890509e+03  9.8046098491171324e+03  9.5970733849849075e+03  1.0066195627525367e+04  9.8211090033626951e+03  1.0291187795607411e+04  9.9655643959757526e+03  1.0322361159644515e+04  1.0011229559851981e+04  1.0329845767972662e+04  9.9868998273124344e+03  1.0329582234809299e+04  9.8874419495527363e+03  1.0138252937322024e+04  9.6828802474368440e+03  9.9011243415297231e+03  1.0592187110213841e+04  9.3839072748807375e+03  9.5232653189948196e+03  8.9656945211828952e+03  1.0252234920903453e+04  1.0337648889403863e+04  9.0095274298994100e+03  8.4300846236041089e+03  8.3952292244842665e+03  7.8128027207726891e+03  7.6970849103573937e+03  7.0962390459744174e+03  6.7673347255067119e+03  6.3374874781109493e+03  5.9061960441596975e+03  5.5810136089149883e+03  9.5233470765295369e+03  5.0978443747685888e+03  4.8858005836303937e+03  4.3735777611530648e+03  4.2556802489950187e+03  3.7222185431378061e+03  3.6888985432627119e+03  3.1867036718571244e+03  9.5673686879785564e+03  3.1944423444851464e+03  2.7086122994858915e+03  2.7655459816044277e+03  2.3213561636848649e+03  9.0125557977748940e+03  2.3968957117188374e+03  1.9895282477087753e+03  8.4145675437223799e+03  7.2960383502060304e+03  2.0703142628072615e+03  1.7060103011838567e+03  1.7909252406651995e+03  1.4671275578590366e+03  4.6953512288195798e+03  2.3877764034637862e+03  6.6264644933932450e+03  4.1243699569756900e+03  1.3357713335892061e+03  1.1391141707327063e+03  1.2675212781767634e+03  9.7228115363125175e+02  2.1909028013163247e+03  6.2294398710785763e+03  2.3543030892096231e+03  3.7454166223019729e+03  9.7461580409342218e+02  1.3072877034058574e+03  4.5978313296877855e+02  1.3515384263751614e+03  1.3794255380791581e+03  1.5710047687829863e+03  1.5980331637826623e+03  1.5176087378519435e+02  1.0963883817466415e+03  8.2957241338625181e+02  1.5099261097174237e+03  8.0774865407951393e+03  2.2827461474907659e+02  2.0831381402482288e+02  2.4964803405693314e+02  6.9562175650605207e+02  5.8074469433332035e+02  7.0665046352022921e+02  4.8561142522174009e+02  6.0214145422722754e+02  4.0266843688095690e+02  1.9384242892575230e+02  1.8253863128214189e+02  8.7851122874660041e+02  4.2092412265640286e+02  5.1019565031809918e+02  3.1338342408424164e+03  9.0655929373473839e+02  5.9277043101726986e+03  5.1068776107101303e+02  3.3052074964212244e+02  6.1469938259047076e+01  2.7259736117609935e+02  2.7776064697528915e+02  8.4305500344324810e+02  1.9775170742605229e+02  2.2280148220008272e+02  1.8220185437148491e+03  1.8373808246069684e+03  2.6216310047774442e+02  3.5548239581303130e+02  8.3536896786302611e+02  1.3734432790269238e+03  1.2309520438573350e+03  2.2393324380490259e+02  2.0088354274227018e+02  3.0852585809122468e+02  2.8727867406559562e+02  3.5515435474406570e+02  1.1448101200322906e+03  2.6812207356851894e+02  1.8098700891484174e+02  1.5717714532396656e+03  2.1680994975141662e+03  2.1109590259890379e+03  2.1045213821524940e+03  4.8503355462350328e+02  5.6485399797628213e+02  9.3533874225099748e+02  2.4124719392483285e+03  2.3810896703593053e+03  1.7336942800206509e+02  2.7168010654281824e+02  1.9475595374861225e+03  2.1797038756622214e+02  2.3722711936441866e+02  1.7574925019343274e+02  2.5923385535250469e+02  1.8223099818503681e+02  2.7992232601807979e+02  1.9577009941403887e+02  3.0049419309471426e+02  7.0559641793151809e+02  7.1446782089605699e+02  2.6717873253267146e+02  3.7008255199396046e+02  3.7338524823795075e+02  3.6731462492241673e+02  3.9422936390532084e+02  2.1266174805328336e+02  3.2093651980412699e+02  2.3019951280952046e+02  3.3868593462646396e+02  2.4730256289602576e+02  3.5573102524709765e+02  2.8258966002092154e+02  3.2187978893816370e+02  4.0968342171037261e+02  1.3153286103613441e+03  1.1811563813276671e+03  1.1083105732819849e+03  1.0689038889894225e+03  1.0092443591473334e+03  9.7946291885969617e+02  1.0228212175477347e+03  9.4168807469341743e+02  9.0729070442777504e+02  9.7009248707135646e+02  8.9689404305350513e+02  9.1046956487819864e+02  8.4603691069845308e+02  8.4461153285182490e+02  8.4095410723468069e+02  3.9101078960989616e+02  3.6883407556536537e+02  4