<?xml version="1.0"?>
<VTKFile type="UnstructuredGrid"  version="0.1"  >
<UnstructuredGrid>
<Piece  NumberOfPoints="3167" NumberOfCells="6038">
<Points>
<DataArray  type="Float64"  NumberOfComponents="3"  format="ascii">2.2 2.9 0  0 2.9 0  2.8 2.9 0  5 2.9 0  5 0 0  0 0 0  2.16271186440678 2.9 0  2.125423728813559 2.9 0  2.088135593220339 2.9 0  2.050847457627119 2.9 0  2.013559322033898 2.9 0  1.976271186440678 2.9 0  1.938983050847457 2.9 0  1.901694915254237 2.9 0  1.864406779661016 2.9 0  1.827118644067796 2.9 0  1.789830508474575 2.9 0  1.752542372881355 2.9 0  1.715254237288134 2.9 0  1.677966101694914 2.9 0  1.640677966101693 2.9 0  1.603389830508473 2.9 0  1.566101694915253 2.9 0  1.528813559322032 2.9 0  1.491525423728812 2.9 0  1.454237288135591 2.9 0  1.416949152542371 2.9 0  1.37966101694915 2.9 0  1.34237288135593 2.9 0  1.305084745762709 2.9 0  1.267796610169489 2.9 0  1.230508474576268 2.9 0  1.193220338983048 2.9 0  1.155932203389827 2.9 0  1.118644067796607 2.9 0  1.081355932203387 2.9 0  1.044067796610166 2.9 0  1.006779661016946 2.9 0  0.9694915254237257 2.9 0  0.9322033898305055 2.9 0  0.8949152542372856 2.9 0  0.8576271186440652 2.9 0  0.820338983050845 2.9 0  0.783050847457625 2.9 0  0.7457627118644048 2.9 0  0.7084745762711844 2.9 0  0.6711864406779642 2.9 0  0.633898305084744 2.9 0  0.5966101694915238 2.9 0  0.5593220338983036 2.9 0  0.5220338983050834 2.9 0  0.4847457627118632 2.9 0  0.447457627118643 2.9 0  0.4101694915254228 2.9 0  0.3728813559322024 2.9 0  0.3355932203389822 2.9 0  0.2983050847457622 2.9 0  0.2610169491525418 2.9 0  0.2237288135593216 2.9 0  0.1864406779661016 2.9 0  0.1491525423728812 2.9 0  0.1118644067796613 2.9 0  0.07457627118644039 2.9 0  0.03728813559321997 2.9 0  2.792405063291139 2.9 0  2.784810126582279 2.9 0  2.777215189873418 2.9 0  2.769620253164557 2.9 0  2.762025316455697 2.9 0  2.754430379746836 2.9 0  2.746835443037975 2.9 0  2.739240506329114 2.9 0  2.731645569620254 2.9 0  2.724050632911393 2.9 0  2.716455696202532 2.9 0  2.708860759493671 2.9 0  2.701265822784811 2.9 0  2.69367088607595 2.9 0  2.686075949367089 2.9 0  2.678481012658228 2.9 0  2.670886075949368 2.9 0  2.663291139240507 2.9 0  2.655696202531646 2.9 0  2.648101265822786 2.9 0  2.640506329113925 2.9 0  2.632911392405064 2.9 0  2.625316455696203 2.9 0  2.617721518987342 2.9 0  2.610126582278482 2.9 0  2.602531645569621 2.9 0  2.59493670886076 2.9 0  2.587341772151899 2.9 0  2.579746835443038 2.9 0  2.572151898734178 2.9 0  2.564556962025317 2.9 0  2.556962025316456 2.9 0  2.549367088607595 2.9 0  2.541772151898734 2.9 0  2.534177215189874 2.9 0  2.526582278481013 2.9 0  2.518987341772152 2.9 0  2.511392405063292 2.9 0  2.503797468354431 2.9 0  2.49620253164557 2.9 0  2.488607594936709 2.9 0  2.481012658227848 2.9 0  2.473417721518988 2.9 0  2.465822784810127 2.9 0  2.458227848101266 2.9 0  2.450632911392406 2.9 0  2.443037974683545 2.9 0  2.435443037974684 2.9 0  2.427848101265823 2.9 0  2.420253164556962 2.9 0  2.412658227848102 2.9 0  2.405063291139241 2.9 0  2.39746835443038 2.9 0  2.389873417721519 2.9 0  2.382278481012658 2.9 0  2.374683544303798 2.9 0  2.367088607594937 2.9 0  2.359493670886076 2.9 0  2.351898734177215 2.9 0  2.344303797468355 2.9 0  2.336708860759494 2.9 0  2.329113924050633 2.9 0  2.321518987341773 2.9 0  2.313924050632912 2.9 0  2.306329113924051 2.9 0  2.29873417721519 2.9 0  2.291139240506329 2.9 0  2.283544303797469 2.9 0  2.275949367088608 2.9 0  2.268354430379747 2.9 0  2.260759493670887 2.9 0  2.253164556962026 2.9 0  2.245569620253165 2.9 0  2.237974683544304 2.9 0  2.230379746835443 2.9 0  2.222784810126583 2.9 0  2.215189873417722 2.9 0  2.207594936708861 2.9 0  4.96271186440678 2.9 0  4.925423728813559 2.9 0  4.888135593220339 2.9 0  4.850847457627118 2.9 0  4.813559322033898 2.9 0  4.776271186440677 2.9 0  4.738983050847457 2.9 0  4.701694915254237 2.9 0  4.664406779661016 2.9 0  4.627118644067796 2.9 0  4.589830508474575 2.9 0  4.552542372881355 2.9 0  4.515254237288135 2.9 0  4.477966101694914 2.9 0  4.440677966101694 2.9 0  4.403389830508473 2.9 0  4.366101694915252 2.9 0  4.328813559322032 2.9 0  4.291525423728811 2.9 0  4.254237288135591 2.9 0  4.21694915254237 2.9 0  4.17966101694915 2.9 0  4.14237288135593 2.9 0  4.105084745762709 2.9 0  4.067796610169489 2.9 0  4.030508474576268 2.9 0  3.993220338983048 2.9 0  3.955932203389827 2.9 0  3.918644067796607 2.9 0  3.881355932203387 2.9 0  3.844067796610166 2.9 0  3.806779661016946 2.9 0  3.769491525423725 2.9 0  3.732203389830505 2.9 0  3.694915254237285 2.9 0  3.657627118644065 2.9 0  3.620338983050845 2.9 0  3.583050847457625 2.9 0  3.545762711864405 2.9 0  3.508474576271184 2.9 0  3.471186440677964 2.9 0  3.433898305084744 2.9 0  3.396610169491524 2.9 0  3.359322033898303 2.9 0  3.322033898305083 2.9 0  3.284745762711863 2.9 0  3.247457627118643 2.9 0  3.210169491525423 2.9 0  3.172881355932202 2.9 0  3.135593220338982 2.9 0  3.098305084745762 2.9 0  3.061016949152542 2.9 0  3.023728813559321 2.9 0  2.986440677966101 2.9 0  2.949152542372881 2.9 0  2.911864406779661 2.9 0  2.87457627118644 2.9 0  2.83728813559322 2.9 0  5 0.1063822625082082 0  5 0.210636880010749 0  5 0.3128064053694972 0  5 0.4129325400644018 0  5 0.5110561521032336 0  5 0.6072172918830103 0  5 0.7014552087832795 0  5 0.7938083674443693 0  5 0.88431446261646 0  5 0.9730104359544682 0  5 1.059932489996267 0  5 1.145116102913299 0  5 1.228596043483191 0  5 1.310406385079062 0  5 1.390580519944147 0  5 1.469151172477827 0  5 1.546150411986101 0  5 1.621609666658609 0  5 1.695559736099044 0  5 1.76803080383987 0  5 1.839052450169751 0  5 1.908653663631169 0  5 1.97686285289587 0  5 2.043707858613779 0  5 2.109215964341413 0  5 2.173413907925942 0  5 2.236327892833935 0  5 2.297983597762904 0  5 2.35840618845912 0  5 2.41762032730194 0  5 2.475650183444628 0  5 2.532519442457069 0  5 2.588251316112828 0  5 2.642868552557322 0  5 2.696393444426347 0  5 2.748847838312051 0  5 2.800253144313381 0  5 2.850630344319807 0  0.2631578947368421 0 0  0.5263157894736842 0 0  0.7894736842105263 0 0  1.052631578947368 0 0  1.31578947368421 0 0  1.578947368421053 0 0  1.842105263157895 0 0  2.105263157894737 0 0  2.368421052631579 0 0  2.631578947368421 0 0  2.894736842105263 0 0  3.157894736842105 0 0  3.421052631578947 0 0  3.684210526315789 0 0  3.947368421052632 0 0  4.210526315789473 0 0  4.473684210526315 0 0  4.736842105263158 0 0  0 2.850203682350569 0  0 2.799411438503675 0  0 2.747603349778291 0  0 2.694759099502208 0  0 2.640857964382145 0  0 2.58587880633613 0  0 2.52980006535898 0  0 2.472599749459174 0  0 2.414255427218689 0  0 2.35474421880616 0  0 2.294042786119219 0  0 2.232127324764723 0  0 2.1689735539481 0  0 2.104556707683347 0  0 2.038851524813415 0  0 1.971832238155655 0  0 1.903472565412126 0  0 1.83374569926617 0  0 1.762624296208475 0  0 1.690080464918761 0  0 1.616085756774206 0  0 1.540611154706337 0  0 1.463627060685571 0  0 1.385103284916206 0  0 1.305009033716617 0  0 1.223312897337225 0  0 1.139982838163732 0  0 1.054986177579938 0  0 0.9682895835804817 0  0 0.8798590579197976 0  0 0.7896599218415354 0  0 0.6976568029903638 0  0 0.6038136217958798 0  0 0.508093576867624 0  0 0.4104591310957497 0  0 0.3108719963522191 0  0 0.2092931188294389 0  0 0.1056826638508546 0  1.434832105763824 2.866945754981483 0  1.737156300467626 2.870039440267515 0  2.032203389830508 2.867707527316512 0  2.332911392405064 2.893422591869991 0  2.469810913293406 2.891944186606167 0  2.606221408823969 2.892519154985628 0  2.255455320628894 2.892068685006691 0  2.538247299216212 2.894964578182811 0  2.674683544303798 2.893422591869991 0  2.40126582278481 2.893422591869991 0  3.566125247295424 2.865029336199714 0  3.266101694915253 2.867707527316512 0  2.967796610169491 2.867707527316512 0  1.174288529834642 2.870795313888584 0  3.825423728813556 2.867707527316512 0  2.727766680262011 2.892655387647729 0  0.06601655192030442 1.502119107695954 0  4.933983535508361 1.507650792231964 0  0.9532124728485543 2.868722489783638 0  4.048935912500257 2.870640982995992 0  0.05930163367361763 1.866907161167414 0  4.943402512618553 1.871280731473148 0  4.271733870017743 2.86520865624265 0  0.7249420921613114 2.863922936177041 0  0.05494499779910056 2.196469063120752 0  4.947228695426367 2.208030108792719 0  0.5406152150397161 2.866493807382013 0  4.459322033898304 2.868847558178794 0  2.18135593220339 2.875780645487384 0  2.817027156509632 2.876587550645167 0  4.928427208322876 1.186856073198245 0  0.07189226971603224 1.174626666111662 0  4.610299014423113 2.867003104093161 0  0.3897270066746357 2.869433095314657 0  1.581132500042262 2.868247328632392 0  1.887637879411437 2.869235851794358 0  3.413449426418068 2.867372048034327 0  3.116721298814773 2.865731235547652 0  2.644303797468355 2.893422591869991 0  2.370983221828106 2.892719513369796 0  2.302531645569621 2.893336787387268 0  2.758987341772152 2.894242393897099 0  0.04979653335696277 2.443411216910286 0  4.950470983477169 2.446866954595817 0  2.482937483021586 0.2513241087417575 0  1.707129504814338 0.1999998659920923 0  3.28584657955054 0.229200625631625 0  4.907807122600524 0.834082362900164 0  4.757627118644067 2.867707527316512 0  0.0773489124676745 0.8347594898806663 0  0.2390604736599387 2.861365431805741 0  0.8363213715215729 2.863896768908178 0  4.160865610207075 2.868916854015731 0  1.282549332053297 2.867610952980761 0  1.065094818402487 2.861284686038041 0  3.93818127737282 2.86865134411395 0  3.711492629432973 2.863574306925269 0  4.91369361998929 0.5579891344254361 0  0.08208328472281323 0.5559535993317519 0  2.696596932532885 2.892010483922337 0  0.04706410140274553 2.613055974506516 0  4.955577063972248 2.616518038840186 0  2.234177215189874 2.893422591869991 0  2.279795840559739 2.89403861893984 0  0.9117357887652362 0.2117925286661764 0  4.055948041993057 0.2039101057937727 0  4.872119713780579 2.867632926423075 0  2.780113878992455 2.891535929611743 0  0.1327442468251063 2.85
[...]
<PointData  Scalars=" mean stress"> 
<DataArray  type="Float64"  Name=" mean stress"  format="ascii">2.0972466760030024e+03  4.7571979623325353e+02  1.9860813155676299e+03  4.7572383849148343e+02  3.4212793936008143e+02  3.4031849083055238e+02  -2.7794927171948274e+02  1.3044774910886684e+02  2.7726382115232997e+02  4.5329857695594887e+02  5.7487602082346507e+02  6.4098921303359032e+02  6.3820812075678805e+02  6.3021696511858227e+02  6.2877193376145135e+02  6.0755256417158955e+02  5.9867744389481231e+02  5.9567826461719210e+02  5.9280223017131675e+02  5.9128949479371568e+02  5.8827747961436182e+02  5.8534216424836359e+02  5.8202921185013270e+02  5.7839108773419957e+02  5.7514679478230164e+02  5.7151988514573202e+02  5.6815585660233501e+02  5.6464341539582654e+02  5.6095888886056048e+02  5.5731966670716383e+02  5.5385397062019672e+02  5.5032137740769315e+02  5.4670028968009365e+02  5.4320965101516401e+02  5.3966651498203009e+02  5.3622457680003356e+02  5.3248620148699240e+02  5.2912296232202812e+02  5.2569503700169332e+02  5.2247320975202410e+02  5.1916134326039696e+02  5.1593690285936486e+02  5.1284680201251922e+02  5.0980307172192823e+02  5.0687994205439435e+02  5.0404589406511298e+02  5.0132070985921803e+02  4.9868603218043273e+02  4.9619136635802579e+02  4.9380686422803234e+02  4.9157596128712470e+02  4.8944689631889781e+02  4.8746996619096643e+02  4.8562646028980316e+02  4.8393027227217880e+02  4.8239242602797532e+02  4.8101109199666422e+02  4.7979471495035705e+02  4.7870045786251490e+02  4.7777982539439722e+02  4.7704690064370573e+02  4.7647860485806888e+02  4.7604671468412118e+02  4.7576960812476176e+02  2.1664037702694577e+03  5.0176339238568568e+02  7.0076270902431179e+02  6.6798630523018846e+02  6.5104275259846622e+02  6.6171078095050916e+02  6.5946777362572493e+02  6.6130558889271481e+02  6.5976673363606471e+02  6.5775723253941317e+02  6.5411760539835302e+02  6.5141325593278600e+02  6.4980892165582861e+02  6.4623473706098594e+02  6.4279513952200728e+02  6.3924406656870428e+02  6.3615721645554731e+02  6.3294991502872267e+02  6.2999271337018774e+02  6.2707943606648314e+02  6.2421403083797327e+02  6.2153078996759746e+02  6.1900648399105421e+02  6.1663385825769080e+02  6.1446226081706766e+02  6.1263671238802249e+02  6.1062106658177129e+02  6.0888513058363048e+02  6.0728338775952432e+02  6.0588844985123023e+02  6.0460633583880826e+02  6.0344483247718824e+02  6.0255084746986370e+02  6.0166049574541660e+02  6.0090071276349204e+02  6.0045110575997614e+02  6.0000852017044440e+02  5.9973413434987492e+02  5.9961482224419751e+02  5.9959935335251180e+02  5.9972883462681682e+02  5.9999453689768302e+02  6.0042847446130941e+02  6.0099684502803734e+02  6.0168631081745002e+02  6.0244785411951307e+02  6.0344752594996237e+02  6.0460815559074149e+02  6.0585894557486949e+02  6.0726119858369475e+02  6.0880723959843579e+02  6.1053028097922424e+02  6.1234486336904024e+02  6.1430777279680706e+02  6.1671234165923397e+02  6.1902953604610150e+02  6.2155841599307951e+02  6.2392984183911187e+02  6.2695039675065379e+02  6.2950065079020760e+02  6.3268178620447645e+02  6.3576346445859258e+02  6.3902130466062363e+02  6.4238244997197035e+02  6.4553975923845292e+02  6.4842469628711058e+02  6.5142996012284539e+02  6.5469432322685475e+02  6.5733434614768430e+02  6.6094598760274062e+02  6.5854233105943229e+02  6.5991941227276402e+02  6.6120579853952722e+02  6.6719422163223646e+02  6.5406211209178616e+02  6.9555806724661227e+02  7.5598590156142188e+02  1.2753131760612439e+03  4.7577600809272184e+02  4.7603619310960096e+02  4.7645470865471697e+02  4.7703612869835155e+02  4.7780021456982871e+02  4.7870706605150588e+02  4.7977816028447040e+02  4.8099782557311426e+02  4.8238702085292988e+02  4.8393199344982594e+02  4.8563434444230859e+02  4.8746988387923204e+02  4.8944967204981720e+02  4.9156673693601300e+02  4.9382553252560155e+02  4.9618816190113955e+02  4.9867365137790910e+02  5.0131087995697430e+02  5.0406042529506874e+02  5.0697692263945299e+02  5.0986508904283420e+02  5.1289173977411099e+02  5.1596640815193950e+02  5.1917307065777368e+02  5.2242887224195306e+02  5.2576484668865874e+02  5.2915007880121379e+02  5.3257022765305533e+02  5.3604621492722572e+02  5.3962175685659361e+02  5.4315120650438496e+02  5.4654719470619955e+02  5.5021559737764267e+02  5.5399071313835657e+02  5.5742210132978300e+02  5.6094268338877271e+02  5.6461691713810910e+02  5.6807044626857396e+02  5.7150823211290913e+02  5.7499062321039901e+02  5.7861360273427408e+02  5.8193722022012525e+02  5.8507207204840404e+02  5.8853834038087848e+02  5.9017184174278498e+02  5.9277281047005704e+02  5.9683820025000898e+02  6.0465427932576893e+02  6.0547183852572471e+02  6.2466264296973088e+02  6.2519907656120233e+02  6.3038716578061985e+02  6.2016234001236364e+02  5.5847346225939930e+02  4.8764128399016073e+02  2.7654809217742553e+02  2.1211396256564370e+02  -2.7744089701241904e+02  2.5244307476051389e+02  1.6769030320247160e+02  9.5915870528758120e+01  2.3051708984849082e+01  1.3573303321076720e+01  7.6113481846503078e+01  1.2282493762763045e+02  1.6595316234311730e+02  2.0529343606525691e+02  2.4136949097921888e+02  2.7353813138907901e+02  3.0226150077036499e+02  3.2730664026477365e+02  3.4844377306589166e+02  3.6542464951406384e+02  3.7798478448082750e+02  3.8600528939406695e+02  3.8909806083120111e+02  3.8714131301689071e+02  3.7997894025953156e+02  3.6752272214050231e+02  3.4978337181173856e+02  3.2679070451967954e+02  2.9872683620586997e+02  2.6573149340996423e+02  2.2807015030867754e+02  1.8616636896595497e+02  1.4055975420808900e+02  9.0813498489479400e+01  3.7608251553860313e+01  7.0166982111840888e+00  7.3849112178398130e+01  1.2961237659271666e+02  1.8846874948024757e+02  2.4734075496922122e+02  3.0597057648171796e+02  3.6386517290886701e+02  4.2059697701820295e+02  3.7773732648867787e+02  4.6857875819070739e+02  5.7618923637164551e+02  6.7392749102360801e+02  7.4220701143269923e+02  7.8608666792848874e+02  7.9999416359923362e+02  7.9762954994982067e+02  7.8856485005752540e+02  7.9392273637994936e+02  7.9747586563560640e+02  8.0199604539392885e+02  7.8459874384530633e+02  7.4351862151956038e+02  6.7536512459244909e+02  5.7497140754435873e+02  4.7000539417672013e+02  3.7556508450009744e+02  4.2010719778283965e+02  3.6291090154153221e+02  3.0457913322883911e+02  2.4551726373135571e+02  1.8629142812065598e+02  1.2702910319716210e+02  7.1403004791580372e+01  3.8982553943850626e+00  4.1280861103508499e+01  9.3808068142716365e+01  1.4360907715796557e+02  1.8910093120656703e+02  2.3087262322559056e+02  2.6828023693466309e+02  3.0094485444493483e+02  3.2867995188356116e+02  3.5136510256340000e+02  3.6866591676881097e+02  3.8070052307727229e+02  3.8745562156431606e+02  3.8903407221016329e+02  3.8555648294997411e+02  3.7729235962081515e+02  3.6438366625180760e+02  3.4715357977309378e+02  3.2588027186136094e+02  3.0066649327567092e+02  2.7175418964304924e+02  2.3934607970120058e+02  2.0356703017321820e+02  1.6430348461240280e+02  1.2076444907008857e+02  7.4285882734699314e+01  1.1639912882251600e+01  2.5226730577404243e+01  9.7207435054528688e+01  1.6861318989624328e+02  2.5349614527201086e+02  4.5644670174093278e+02  4.0194346530318705e+02  1.1031923109597930e+02  9.5979584690855870e+02  8.8129136403447626e+02  9.0710746684192611e+02  1.4599374013516156e+03  7.7777912523801740e+02  9.7672336232431189e+02  8.6496515605450395e+02  4.4999113204175291e+02  3.8390393681081827e+02  1.0298442919477833e+02  4.7739266223886352e+02  4.7036249978852675e+02  1.2463597648420375e+03  3.8305765131220335e+02  3.8362292615135220e+02  4.6818240919607388e+02  4.7152723763665767e+02  3.6199369071939691e+02  3.6100131184303820e+02  4.5428718883474795e+02  4.5226015431313721e+02  2.1419305985296444e+02  2.0645053770022813e+02  4.4907865605029093e+02  4.5216041172126131e+02  3.8327306016659199e+03  3.8484612142967630e+03  3.1643431883285803e+02  3.1272002663714295e+02  4.4481500003458865e+02  4.4775143215125217e+02  4.3711999107089542e+02  2.1927430392992821e+02  4.3343529299569479e+02  1.8208377721848427e+02  9.1836061697813375e+02  9.2622336149052012e+02  1.0463973233120021e+03  1.4277630546709020e+03  9.0823977479022933e+00  5.0227580158026086e+00  1.0424003243151828e+03  8.5918404729609256e+02  8.7188851477689752e+02  1.8738615899403121e+02  4.4208466482976195e+02  1.8664635237761377e+02  4.3470578197317121e+02  4.5606049648258511e+02  4.6428578029298808e+02  4.6835190690957620e+02  4.5630530511386058e+02  4.7101171513240882e+02  4.5739215988135214e+02  6.2012719210997631e+01  6.0289940122395656e+01  1.1218255815003392e+03  1.5624776512071546e+02  1.5992771157410931e+02  1.7012548026081352e+03  1.0946916302880416e+03  5.2582256474333337e+02  5.4285766327129352e+02  4.4030451534763824e+02  2.8544730225496564e+03  4.2871051110875538e+02  1.1697286505004988e+02  1.1838237607934596e+02  2.8251015195068123e+02  2.8350003126128524e+02  3.8550375340788128e+02  3.8565277860602782e+02  2.8151076875154479e+02  2.8118754755906053e+02  3.5848297503885908e+02  3.5729774301097427e+02  4.4805809363929353e+02  4.5422327312438335e+02  4.5348888196544783e+02  2.5921442536090353e+02  2.5738150631600877e+02  4.6501403680900654e+02  4.4806827778740876e+02  4.5176889712195521e+02  4.5444617737008156e+02  4.5642031497141835e+02  4.8214862839030025e+02  4.4404940039259594e+02  4.1159528824065717e+02  4.1604137930314312e+02  3.5436300980758710e+02  3.2376253060187406e+02  6.6249610717957626e+02  1.0914997013845090e+02  7.0573676982244297e+02  7.8859726601621958e+01  9.4459895413937363e+02  8.9680323085700911e+02  8.7933401434272480e+02  9.7974785908059391e+02  9.9598820435931339e+02  7.6779107540959174e+01  8.2842610312521913e+01  1.1044906591158906e+03  1.4718437594118543e+03  4.5084660277523953e+03  3.9734327536226266e+02  3.8690847841785830e+02  5.2738414114649959e+03  2.6511644467460826e+02  2.8082549698636768e+02  4.0365677280140335e+02  4.1958371258444123e+02  5.3557449589391217e+02  4.5601961655366330e+02  5.8185728123067031e+02  5.2473043530579844e+02  6.5894679170346058e+02  6.1384560635465311e+02  7.5564586287450754e+02  7.1552875541480375e+02  8.6415284502258419e+02  8.2628975183519344e+02  9.8066683723209985e+02  9.4263960301220243e+02  1.1013262730361521e+03  1.0616707142590433e+03  1.2238177161768278e+03  1.1730423894140031e+03  1.3488047539977624e+03  1.2801695849006198e+03  1.4732442746115009e+03  1.1122876211895809e+03  1.5338252353903524e+03  1.6816292927929107e+03  1.7309918352095269e+03  1.9008552543493909e+03  1.9311309804541752e+03  2.1234466599686475e+03  2.1287122664287890e+03  2.3417403469837759e+03  2.3128621044518045e+03  2.5367390453089693e+03  2.4668246935081529e+03  2.6867938506663090e+03  2.5884386732695152e+03  2.8485652867866816e+03  2.6769455369166799e+03  2.9117911207249404e+03  2.7013753873686210e+03  2.9211242617368930e+03  2.6774874568505284e+03  2.8665778908883431e+03  2.6024274464860873e+03  2.7464163529126272e+03  2.4795450048937105e+03  2.5731728464503149e+03  2.3059085300402594e+03  2.3743335051978743e+03  2.1236094948971463e+03  2.1601479374885571e+03  1.9582434488548929e+03  1.9434104781964488e+03  1.7728761479394916e+03  1.7348814053817046e+03  1.5930389902772472e+03  1.5423010184483865e+03  1.4254916793862528e+03  1.3699241476716541e+03  1.2721573905616669e+03  1.2141451449576134e+03  1.1346284562166447e+03  1.0728706389401536e+03  1.0106373387136545e+03  9.4854422035607331e+02  9.0247589009184628e+02  8.4223588583131811e+02  8.0729673181080182e+02  7.4980155121127382e+02  3.1102329839682925e+03  7.2321202358852725e+02  6.6893960733831341e+02  6.8266115496831446e+02  6.0855379593193902e+02  7.7068790975487332e+02  1.1798813141849805e+03  9.9772867317618807e+02  1.1948187344033299e+03  1.0416377658823958e+03  3.0429720830581546e+03  1.4543462701397552e+03  6.0962865667184838e+02  5.4257185094982367e+02  5.4511764694271983e+02  4.8287107783832403e+02  1.8381668597421599e+03  2.5721991666716744e+03  1.0979811905060005e+03  9.6145412285525185e+02  2.1392868076763898e+03  9.9860481844569472e+02  8.7220071738202819e+02  8.4524837506703648e+02  7.6708352643615581e+02  7.4887267258284044e+02  6.8210022556803483e+02  6.8322836652906415e+02  6.0730369869219192e+02  5.3418806008830552e+02  4.9026169125224521e+02  4.3104043496791411e+02  6.6932768112960616e+02  5.9517515567772944e+02  5.3245747947814709e+02  4.4261013693194263e+02  3.8456906894445848e+02  3.6768181885006618e+02  3.2773262248743458e+02  3.0356402693488872e+02  2.6746024556674320e+02  5.1073448467517949e+02  4.5663043949400202e+02  4.7921446210208961e+02  4.1080312107476993e+02  1.9399396726037942e+03  3.7930668589229481e+02  3.4049621100637745e+02  1.7642481985571167e+03  2.2066983679905302e+03  2.4751630548354879e+03  4.3467201895743210e+02  2.3820409327542276e+02  2.0562646278423861e+02  3.9866617226169734e+02  4.4806846089904508e+02  3.0296164630060400e+02  2.7090959589496532e+02  2.3774683447737016e+03  2.3742303438026022e+02  1.7666762296936798e+02  1.7358562787212421e+02  2.2921895124820529e+02  2.6302199851332693e+02  2.0012217561535840e+02  2.4303116934680261e+02  1.7669686647287642e+02  4.1113091005278778e+02  4.5277876480557677e+02  2.1972772478958595e+02  5.7163042393374906e+02  2.0573200795168981e+02  1.5514004700522790e+02  1.4118345692736401e+02  1.7121458915676325e+02  1.0183137994978053e+03  2.1917317499336602e+02  1.5218912008296789e+02  1.6030113647278887e+02  4.1894734429014613e+02  4.5560770550424149e+02  1.0837429958635234e+02  1.3658822912578432e+02  8.3364294929774502e+01  6.9246537677379831e+02  2.0053942137989623e+02  1.8296356434888861e+02  1.2710945002706040e+02  1.4673445116497379e+02  1.0387069803449748e+02  8.4049303854546153e+01  1.0486628576219984e+02  4.2391645700315229e+02  4.5434122874366346e+02  9.4954305830779248e+01  5.3307478872797624e+01  4.2043022686092499e+01  4.5718969133834229e+01  1.5840794287596356e+02  1.0556639720263126e+02  7.3442080134217548e+01  5.4102135463240820e+01  3.6798865220390347e+01  1.8441054233611698e+02  2.3675035609071810e+02  3.3823150824199345e+01  6.6927093880247952e+01  4.5959294866744678e+01  9.1280428117726998e+01  8.9407944001636636e+01  4.2609840587322316e+02  4.5051776923656024e+02  4.8025776302123336e+02  4.7001148129588842e+02  5.0212859600860151e+02  4.8438605955746095e+02  5.1944616921412535e+02  4.9393828518782431e+02  5.3199442385563327e+02  4.9893706716790007e+02  5.4130175297575420e+02  4.9985318548431468e+02  5.4511232895427520e+02  4.9559083753088345e+02  5.4746299804402315e+02  4.8678643613392097e+02  5.4833978111798422e+02  6.1689231886064715e+02  6.2687271191743923e+02  3.9660953511231281e+02  7.9656339902114098e+01  8.5947277100665318e+01  1.3053816625651513e+02  1.0180424055477013e+02  1.6127019894777547e+02  1.2607696063136052e+02  1.9739687625192815e+02  1.5771521859100591e+02  2.3937770774549514e+02  1.9660800257904549e+02  2.8546996979597594e+02  2.4179970608676965e+02  3.4039116223724278e+02  2.9592982570891695e+02  4.0733095886670731e+02  3.6031512287560531e+02  4.8038190794986451e+02  4.3429631590832912e+02  5.5983718297806809e+02  5.2053900501203293e+02  6.6093959364883744e+02  6.2282363864847389e+02  7.8283531585715127e+02  7.4345102633393037e+02  9.1882406080545297e+02  8.8362274875001924e+02  1.0746258824670363e+03  1.0529859961466793e+03  1.2579274877186933e+03  1.2554484345908004e+03  1.4722663401538885e+03  1.4932853714690903e+03  1.7221761818891607e+03  1.7728738724643754e+03  2.0051363762166040e+03  2.0933495793032466e+03  2.3216015659745667e+03  2.4565717219720586e+03  2.6653579513129994e+03  2.8456180222382782e+03  3.0205296363180864e+03  3.2603483623583043e+03  3.3817846733447705e+03  3.6653308333126611e+03  3.5369872003033006e+03  3.9647534176144959e+03  4.0192408685663236e+03  4.3358081668334289e+03  4.3256759181305115e+03  4.6459768518296287e+03  4.5801879536338156e+03  4.8923332118058343e+03  4.9846383209991118e+03  5.1792914996471009e+03  5.0667101337043505e+03  5.3203506813640415e+03  5.1812777058458059e+03  5.4355296894372905e+03  5.2540030398015288e+03  5.4494609479860228e+03  5.2729786842244594e+03  5.4559132493160405e+03  5.2594543893235295e+03  5.4536111071594905e+03  5.2096598183665183e+03  5.3582843969965606e+03  5.1057283877237824e+03  5.2307072564210239e+03  5.7269979560752681e+03  4.9526187319352830e+03  5.0308258862044349e+03  4.7335594734155566e+03  5.4145616806187318e+03  5.4520215998135591e+03  4.7598015354580375e+03  4.4509569258940346e+03  4.4340382173000844e+03  4.1245962999874600e+03  4.0641189110721498e+03  3.7453498370600983e+03  3.5718067078863628e+03  3.3439252668890208e+03  3.1163403060795631e+03  2.9440155589456485e+03  5.0135927559133743e+03  2.6891329457488087e+03  2.5767532191265009e+03  2.3066622406351676e+03  2.2440765640852496e+03  1.9628970055518901e+03  1.9449932792069515e+03  1.6804075471673625e+03  5.0298796332391084e+03  1.6841854709634608e+03  1.4283108324113016e+03  1.4580469481970308e+03  1.2241744545243844e+03  4.7601054792228742e+03  1.2637287691659005e+03  1.0493036098243513e+03  4.4388110856992780e+03  3.8508517371418620e+03  1.0916411084751130e+03  8.9992408377317588e+02  9.4445036800146295e+02  7.7407699874667719e+02  2.4755801200872315e+03  1.2586746606590987e+03  3.4953228508056432e+03  2.1752031690402091e+03  7.0507089737768979e+02  6.0147568116504931e+02  6.6893582423070973e+02  5.1359369891092922e+02  1.1556200369207065e+03  3.2866211086094472e+03  1.2417637763295711e+03  1.9752605914160506e+03  5.1460542706370484e+02  6.9017604884809384e+02  2.4365752435100160e+02  7.1090316066055186e+02  7.2551499986160093e+02  8.2631138887423617e+02  8.4044960694665281e+02  7.8314150130286166e+01  5.7879697150835489e+02  4.3841995529663001e+02  7.9644820483129217e+02  4.2603672728999227e+03  1.1847729086254147e+02  1.0800748291756013e+02  1.2968434738118080e+02  3.6797343546586558e+02  3.0741918945935350e+02  3.7366293343856142e+02  2.5725404543222055e+02  3.1859122586018714e+02  2.1351487495315209e+02  1.0234323184599424e+02  9.4482397380008919e+01  4.6212286911810497e+02  2.2250766432329962e+02  2.6937848626912631e+02  1.6520101219475730e+03  4.7674609871552849e+02  3.1255343490665605e+03  2.7038542145808810e+02  1.7541181820768529e+02  3.2848880281252626e+01  1.4172550624026385e+02  1.4444062512503868e+02  4.4375803467641367e+02  1.0259123655285913e+02  1.1556270198698806e+02  9.5827116841308145e+02  9.6625317075730800e+02  1.3913671746493671e+02  1.8814368610743855e+02  4.3927296846612285e+02  7.2299666845492936e+02  6.4800793804018508e+02  1.1858281890534599e+02  1.0611424819596519e+02  1.6057787361271994e+02  1.4940788628961784e+02  1.8844636162321433e+02  6.0350389274109295e+02  1.4237246882203098e+02  9.5078290266266833e+01  8.2657198648561155e+02  1.1415565432400388e+03  1.1101311138591416e+03  1.1066314022898725e+03  2.5612196170514125e+02  2.9801704681934717e+02  4.9189721442487246e+02  1.2685539617855432e+03  1.2519310573426876e+03  8.9690729474611217e+01  1.4125381238340887e+02  1.0257183703450210e+03  1.1314915356677673e+02  1.2306324939814431e+02  9.1750451322095117e+01  1.3454098253461873e+02  9.4714045669157500e+01  1.4538334372275068e+02  1.0155690781937271e+02  1.5618866955129232e+02  3.7296889481305254e+02  3.7793164688557164e+02  1.4178201182172185e+02  1.9293426144612184e+02  1.9468588625501090e+02  1.9146090377091818e+02  2.0845188969887408e+02  1.1027669572856162e+02  1.6693766561805404e+02  1.1942301163647279e+02  1.7627610330588854e+02  1.2839165514308448e+02  1.8524774891288456e+02  1.4698194382336590e+02  1.7047095318657685e+02  2.1656925086037546e+02  6.9228091871346089e+02  6.2167306399536869e+02  5.8345169313106589e+02  5.6259269693699468e+02  5.3129628375650145e+02  5.1550935015236632e+02  5.3823070647399504e+02  4.9551659615703176e+02  4.7751360373248974e+02  5.1038125295798511e+02  4.7183984045508663e+02  4.7891484903877739e+02  4.4498067046224782e+02  4.4417842242461575e+02  4.4237442484562246e+02  2.0389568261925177e+02  1.9222542262642585e+02  2