<?xml version="1.0"?>
<VTKFile type="UnstructuredGrid"  version="0.1"  >
<UnstructuredGrid>
<Piece  NumberOfPoints="3167" NumberOfCells="6038">
<Points>
<DataArray  type="Float64"  NumberOfComponents="3"  format="ascii">2.2 2.9 0  0 2.9 0  2.8 2.9 0  5 2.9 0  5 0 0  0 0 0  2.16271186440678 2.9 0  2.125423728813559 2.9 0  2.088135593220339 2.9 0  2.050847457627119 2.9 0  2.013559322033898 2.9 0  1.976271186440678 2.9 0  1.938983050847457 2.9 0  1.901694915254237 2.9 0  1.864406779661016 2.9 0  1.827118644067796 2.9 0  1.789830508474575 2.9 0  1.752542372881355 2.9 0  1.715254237288134 2.9 0  1.677966101694914 2.9 0  1.640677966101693 2.9 0  1.603389830508473 2.9 0  1.566101694915253 2.9 0  1.528813559322032 2.9 0  1.491525423728812 2.9 0  1.454237288135591 2.9 0  1.416949152542371 2.9 0  1.37966101694915 2.9 0  1.34237288135593 2.9 0  1.305084745762709 2.9 0  1.267796610169489 2.9 0  1.230508474576268 2.9 0  1.193220338983048 2.9 0  1.155932203389827 2.9 0  1.118644067796607 2.9 0  1.081355932203387 2.9 0  1.044067796610166 2.9 0  1.006779661016946 2.9 0  0.9694915254237257 2.9 0  0.9322033898305055 2.9 0  0.8949152542372856 2.9 0  0.8576271186440652 2.9 0  0.820338983050845 2.9 0  0.783050847457625 2.9 0  0.7457627118644048 2.9 0  0.7084745762711844 2.9 0  0.6711864406779642 2.9 0  0.633898305084744 2.9 0  0.5966101694915238 2.9 0  0.5593220338983036 2.9 0  0.5220338983050834 2.9 0  0.4847457627118632 2.9 0  0.447457627118643 2.9 0  0.4101694915254228 2.9 0  0.3728813559322024 2.9 0  0.3355932203389822 2.9 0  0.2983050847457622 2.9 0  0.2610169491525418 2.9 0  0.2237288135593216 2.9 0  0.1864406779661016 2.9 0  0.1491525423728812 2.9 0  0.1118644067796613 2.9 0  0.07457627118644039 2.9 0  0.03728813559321997 2.9 0  2.792405063291139 2.9 0  2.784810126582279 2.9 0  2.777215189873418 2.9 0  2.769620253164557 2.9 0  2.762025316455697 2.9 0  2.754430379746836 2.9 0  2.746835443037975 2.9 0  2.739240506329114 2.9 0  2.731645569620254 2.9 0  2.724050632911393 2.9 0  2.716455696202532 2.9 0  2.708860759493671 2.9 0  2.701265822784811 2.9 0  2.69367088607595 2.9 0  2.686075949367089 2.9 0  2.678481012658228 2.9 0  2.670886075949368 2.9 0  2.663291139240507 2.9 0  2.655696202531646 2.9 0  2.648101265822786 2.9 0  2.640506329113925 2.9 0  2.632911392405064 2.9 0  2.625316455696203 2.9 0  2.617721518987342 2.9 0  2.610126582278482 2.9 0  2.602531645569621 2.9 0  2.59493670886076 2.9 0  2.587341772151899 2.9 0  2.579746835443038 2.9 0  2.572151898734178 2.9 0  2.564556962025317 2.9 0  2.556962025316456 2.9 0  2.549367088607595 2.9 0  2.541772151898734 2.9 0  2.534177215189874 2.9 0  2.526582278481013 2.9 0  2.518987341772152 2.9 0  2.511392405063292 2.9 0  2.503797468354431 2.9 0  2.49620253164557 2.9 0  2.488607594936709 2.9 0  2.481012658227848 2.9 0  2.473417721518988 2.9 0  2.465822784810127 2.9 0  2.458227848101266 2.9 0  2.450632911392406 2.9 0  2.443037974683545 2.9 0  2.435443037974684 2.9 0  2.427848101265823 2.9 0  2.420253164556962 2.9 0  2.412658227848102 2.9 0  2.405063291139241 2.9 0  2.39746835443038 2.9 0  2.389873417721519 2.9 0  2.382278481012658 2.9 0  2.374683544303798 2.9 0  2.367088607594937 2.9 0  2.359493670886076 2.9 0  2.351898734177215 2.9 0  2.344303797468355 2.9 0  2.336708860759494 2.9 0  2.329113924050633 2.9 0  2.321518987341773 2.9 0  2.313924050632912 2.9 0  2.306329113924051 2.9 0  2.29873417721519 2.9 0  2.291139240506329 2.9 0  2.283544303797469 2.9 0  2.275949367088608 2.9 0  2.268354430379747 2.9 0  2.260759493670887 2.9 0  2.253164556962026 2.9 0  2.245569620253165 2.9 0  2.237974683544304 2.9 0  2.230379746835443 2.9 0  2.222784810126583 2.9 0  2.215189873417722 2.9 0  2.207594936708861 2.9 0  4.96271186440678 2.9 0  4.925423728813559 2.9 0  4.888135593220339 2.9 0  4.850847457627118 2.9 0  4.813559322033898 2.9 0  4.776271186440677 2.9 0  4.738983050847457 2.9 0  4.701694915254237 2.9 0  4.664406779661016 2.9 0  4.627118644067796 2.9 0  4.589830508474575 2.9 0  4.552542372881355 2.9 0  4.515254237288135 2.9 0  4.477966101694914 2.9 0  4.440677966101694 2.9 0  4.403389830508473 2.9 0  4.366101694915252 2.9 0  4.328813559322032 2.9 0  4.291525423728811 2.9 0  4.254237288135591 2.9 0  4.21694915254237 2.9 0  4.17966101694915 2.9 0  4.14237288135593 2.9 0  4.105084745762709 2.9 0  4.067796610169489 2.9 0  4.030508474576268 2.9 0  3.993220338983048 2.9 0  3.955932203389827 2.9 0  3.918644067796607 2.9 0  3.881355932203387 2.9 0  3.844067796610166 2.9 0  3.806779661016946 2.9 0  3.769491525423725 2.9 0  3.732203389830505 2.9 0  3.694915254237285 2.9 0  3.657627118644065 2.9 0  3.620338983050845 2.9 0  3.583050847457625 2.9 0  3.545762711864405 2.9 0  3.508474576271184 2.9 0  3.471186440677964 2.9 0  3.433898305084744 2.9 0  3.396610169491524 2.9 0  3.359322033898303 2.9 0  3.322033898305083 2.9 0  3.284745762711863 2.9 0  3.247457627118643 2.9 0  3.210169491525423 2.9 0  3.172881355932202 2.9 0  3.135593220338982 2.9 0  3.098305084745762 2.9 0  3.061016949152542 2.9 0  3.023728813559321 2.9 0  2.986440677966101 2.9 0  2.949152542372881 2.9 0  2.911864406779661 2.9 0  2.87457627118644 2.9 0  2.83728813559322 2.9 0  5 0.1063822625082082 0  5 0.210636880010749 0  5 0.3128064053694972 0  5 0.4129325400644018 0  5 0.5110561521032336 0  5 0.6072172918830103 0  5 0.7014552087832795 0  5 0.7938083674443693 0  5 0.88431446261646 0  5 0.9730104359544682 0  5 1.059932489996267 0  5 1.145116102913299 0  5 1.228596043483191 0  5 1.310406385079062 0  5 1.390580519944147 0  5 1.469151172477827 0  5 1.546150411986101 0  5 1.621609666658609 0  5 1.695559736099044 0  5 1.76803080383987 0  5 1.839052450169751 0  5 1.908653663631169 0  5 1.97686285289587 0  5 2.043707858613779 0  5 2.109215964341413 0  5 2.173413907925942 0  5 2.236327892833935 0  5 2.297983597762904 0  5 2.35840618845912 0  5 2.41762032730194 0  5 2.475650183444628 0  5 2.532519442457069 0  5 2.588251316112828 0  5 2.642868552557322 0  5 2.696393444426347 0  5 2.748847838312051 0  5 2.800253144313381 0  5 2.850630344319807 0  0.2631578947368421 0 0  0.5263157894736842 0 0  0.7894736842105263 0 0  1.052631578947368 0 0  1.31578947368421 0 0  1.578947368421053 0 0  1.842105263157895 0 0  2.105263157894737 0 0  2.368421052631579 0 0  2.631578947368421 0 0  2.894736842105263 0 0  3.157894736842105 0 0  3.421052631578947 0 0  3.684210526315789 0 0  3.947368421052632 0 0  4.210526315789473 0 0  4.473684210526315 0 0  4.736842105263158 0 0  0 2.850203682350569 0  0 2.799411438503675 0  0 2.747603349778291 0  0 2.694759099502208 0  0 2.640857964382145 0  0 2.58587880633613 0  0 2.52980006535898 0  0 2.472599749459174 0  0 2.414255427218689 0  0 2.35474421880616 0  0 2.294042786119219 0  0 2.232127324764723 0  0 2.1689735539481 0  0 2.104556707683347 0  0 2.038851524813415 0  0 1.971832238155655 0  0 1.903472565412126 0  0 1.83374569926617 0  0 1.762624296208475 0  0 1.690080464918761 0  0 1.616085756774206 0  0 1.540611154706337 0  0 1.463627060685571 0  0 1.385103284916206 0  0 1.305009033716617 0  0 1.223312897337225 0  0 1.139982838163732 0  0 1.054986177579938 0  0 0.9682895835804817 0  0 0.8798590579197976 0  0 0.7896599218415354 0  0 0.6976568029903638 0  0 0.6038136217958798 0  0 0.508093576867624 0  0 0.4104591310957497 0  0 0.3108719963522191 0  0 0.2092931188294389 0  0 0.1056826638508546 0  1.434832105763824 2.866945754981483 0  1.737156300467626 2.870039440267515 0  2.032203389830508 2.867707527316512 0  2.332911392405064 2.893422591869991 0  2.469810913293406 2.891944186606167 0  2.606221408823969 2.892519154985628 0  2.255455320628894 2.892068685006691 0  2.538247299216212 2.894964578182811 0  2.674683544303798 2.893422591869991 0  2.40126582278481 2.893422591869991 0  3.566125247295424 2.865029336199714 0  3.266101694915253 2.867707527316512 0  2.967796610169491 2.867707527316512 0  1.174288529834642 2.870795313888584 0  3.825423728813556 2.867707527316512 0  2.727766680262011 2.892655387647729 0  0.06601655192030442 1.502119107695954 0  4.933983535508361 1.507650792231964 0  0.9532124728485543 2.868722489783638 0  4.048935912500257 2.870640982995992 0  0.05930163367361763 1.866907161167414 0  4.943402512618553 1.871280731473148 0  4.271733870017743 2.86520865624265 0  0.7249420921613114 2.863922936177041 0  0.05494499779910056 2.196469063120752 0  4.947228695426367 2.208030108792719 0  0.5406152150397161 2.866493807382013 0  4.459322033898304 2.868847558178794 0  2.18135593220339 2.875780645487384 0  2.817027156509632 2.876587550645167 0  4.928427208322876 1.186856073198245 0  0.07189226971603224 1.174626666111662 0  4.610299014423113 2.867003104093161 0  0.3897270066746357 2.869433095314657 0  1.581132500042262 2.868247328632392 0  1.887637879411437 2.869235851794358 0  3.413449426418068 2.867372048034327 0  3.116721298814773 2.865731235547652 0  2.644303797468355 2.893422591869991 0  2.370983221828106 2.892719513369796 0  2.302531645569621 2.893336787387268 0  2.758987341772152 2.894242393897099 0  0.04979653335696277 2.443411216910286 0  4.950470983477169 2.446866954595817 0  2.482937483021586 0.2513241087417575 0  1.707129504814338 0.1999998659920923 0  3.28584657955054 0.229200625631625 0  4.907807122600524 0.834082362900164 0  4.757627118644067 2.867707527316512 0  0.0773489124676745 0.8347594898806663 0  0.2390604736599387 2.861365431805741 0  0.8363213715215729 2.863896768908178 0  4.160865610207075 2.868916854015731 0  1.282549332053297 2.867610952980761 0  1.065094818402487 2.861284686038041 0  3.93818127737282 2.86865134411395 0  3.711492629432973 2.863574306925269 0  4.91369361998929 0.5579891344254361 0  0.08208328472281323 0.5559535993317519 0  2.696596932532885 2.892010483922337 0  0.04706410140274553 2.613055974506516 0  4.955577063972248 2.616518038840186 0  2.234177215189874 2.893422591869991 0  2.279795840559739 2.89403861893984 0  0.9117357887652362 0.2117925286661764 0  4.055948041993057 0.2039101057937727 0  4.872119713780579 2.867632926423075 0  2.780113878992455 2.891535929611743 0  0.1327442468251063 2.85
[...]
<PointData  Scalars=" mean stress"> 
<DataArray  type="Float64"  Name=" mean stress"  format="ascii">4.4039162063234862e+03  1.0081939922639415e+03  4.1013068917347682e+03  1.0081992598626381e+03  7.2172774291945382e+02  7.1790163127705489e+02  -5.4805424579308180e+02  2.2742558941488610e+02  5.3871623376095704e+02  9.1620167492826477e+02  1.1867454279853455e+03  1.3387759639372887e+03  1.3419005478784950e+03  1.3293224321627110e+03  1.3285065666827720e+03  1.2862143324918111e+03  1.2691311713354785e+03  1.2637908102013700e+03  1.2583768032729347e+03  1.2555273452148315e+03  1.2493658962183831e+03  1.2432503496020338e+03  1.2362926000215357e+03  1.2285840208703855e+03  1.2216494262794856e+03  1.2138852153944192e+03  1.2066535624274122e+03  1.1990928186296742e+03  1.1911570353978045e+03  1.1833111557989839e+03  1.1758306189256543e+03  1.1682091422464459e+03  1.1604026761084722e+03  1.1528760844804003e+03  1.1452434213516028e+03  1.1378303335904177e+03  1.1297955791199715e+03  1.1225592732394559e+03  1.1151927647590778e+03  1.1082681863835314e+03  1.1011590404058272e+03  1.0942410887175290e+03  1.0876126764088635e+03  1.0810878137675120e+03  1.0748235209521647e+03  1.0687527835551480e+03  1.0629173154007995e+03  1.0572781934137279e+03  1.0519400226858277e+03  1.0468394089598874e+03  1.0420682608055299e+03  1.0375166612448290e+03  1.0332908913232918e+03  1.0293513731621069e+03  1.0257274383213194e+03  1.0224419340506722e+03  1.0194916193622765e+03  1.0168939726161441e+03  1.0145575520676663e+03  1.0125916682506528e+03  1.0110268651240099e+03  1.0098136414634492e+03  1.0088917737731392e+03  1.0083000892684159e+03  4.3911319450379287e+03  9.6448122790677473e+02  1.3901053601832843e+03  1.3235417930456970e+03  1.2912635412367690e+03  1.3172922913871730e+03  1.3168079792209446e+03  1.3254353772082022e+03  1.3275770185380397e+03  1.3293727206519327e+03  1.3281458159867900e+03  1.3292910817405264e+03  1.3331601704207526e+03  1.3329363460489978e+03  1.3330174119034032e+03  1.3328671687362353e+03  1.3335835592347610e+03  1.3338483217414296e+03  1.3344185421828138e+03  1.3348101550843594e+03  1.3349876909506113e+03  1.3352350601346780e+03  1.3354855993018280e+03  1.3356956747210486e+03  1.3359917885410305e+03  1.3366854255094581e+03  1.3366313314608174e+03  1.3368292885680216e+03  1.3369286436019117e+03  1.3371445648050183e+03  1.3372787824896070e+03  1.3373343861617261e+03  1.3376125803084501e+03  1.3376079428631053e+03  1.3376001218543042e+03  1.3377782173266644e+03  1.3378311838694933e+03  1.3378458453317410e+03  1.3378753268740149e+03  1.3378563841973273e+03  1.3378265927810496e+03  1.3377790750909130e+03  1.3377609636595478e+03  1.3376923383658702e+03  1.3376380971849865e+03  1.3374058160609648e+03  1.3373335891326894e+03  1.3372869820884098e+03  1.3370933886650564e+03  1.3368922206060902e+03  1.3366817556915551e+03  1.3364947420046619e+03  1.3361496996101578e+03  1.3357832918064717e+03  1.3360031883416739e+03  1.3356799556629292e+03  1.3354800237834122e+03  1.3345849827768091e+03  1.3347951354165657e+03  1.3336775934396055e+03  1.3336408934733590e+03  1.3331632180909003e+03  1.3328826182564178e+03  1.3327042686675493e+03  1.3320546853145668e+03  1.3308606438895515e+03  1.3301299926868242e+03  1.3301662598994094e+03  1.3292653013456959e+03  1.3310712559730853e+03  1.3206820502885398e+03  1.3189135180557830e+03  1.3179104294515346e+03  1.3276885658103765e+03  1.2990773374823511e+03  1.3813040048646742e+03  1.5338101980594665e+03  2.5821992116428273e+03  1.0083104611127471e+03  1.0088659096985049e+03  1.0097593360328360e+03  1.0110006166435290e+03  1.0126318200708189e+03  1.0145681860150038e+03  1.0168550604154192e+03  1.0194601408786897e+03  1.0224272915242825e+03  1.0257276471363944e+03  1.0293645717627235e+03  1.0332871203649970e+03  1.0375186929229803e+03  1.0420447904664561e+03  1.0468749528958037e+03  1.0519291046104297e+03  1.0572478102787106e+03  1.0628921167343590e+03  1.0687788270127553e+03  1.0750239118931459e+03  1.0812137338312757e+03  1.0877020690216491e+03  1.0942979666237948e+03  1.1011783848195714e+03  1.1081685472286019e+03  1.1153342549043957e+03  1.1226101602496353e+03  1.1299658640401883e+03  1.1374453329089281e+03  1.1451408944849027e+03  1.1527442260584692e+03  1.1600700419826826e+03  1.1679755053074448e+03  1.1761090516339848e+03  1.1835169889107226e+03  1.1911118865087142e+03  1.1990275187488594e+03  1.2064621225035532e+03  1.2138487325007145e+03  1.2213164984032496e+03  1.2290287858957586e+03  1.2360932997774391e+03  1.2426901335207942e+03  1.2499257796823172e+03  1.2531501276053391e+03  1.2581699699187677e+03  1.2661370873248284e+03  1.2815419110338391e+03  1.2819872018192791e+03  1.3197718011054719e+03  1.3188120305800430e+03  1.3252477202145383e+03  1.2933679341613781e+03  1.1523223594288925e+03  9.8747098751742897e+02  5.3841310567274797e+02  3.9386312662096856e+02  -5.4705790636103848e+02  5.3225358463275973e+02  3.5319208418142108e+02  2.0159380310968808e+02  4.7391469057571058e+01  2.9679223070507280e+01  1.6179312289961746e+02  2.6039235944945091e+02  3.5143114213321593e+02  4.3445408406642929e+02  5.1056115658474636e+02  5.7840184538862775e+02  6.3894996834888843e+02  6.9171209742781343e+02  7.3620507549636352e+02  7.7190518108305537e+02  7.9825466491136683e+02  8.1500398016536440e+02  8.2133511221127117e+02  8.1699294492990430e+02  8.0164983082456376e+02  7.7512157310591613e+02  7.3743341274945658e+02  6.8865035796156826e+02  6.2915957632743755e+02  5.5925888044596786e+02  4.7951224846714126e+02  3.9080982736663765e+02  2.9429895488700714e+02  1.8922395743550422e+02  7.5402689598954879e+01  1.7902446101732327e+01  1.5884492913165337e+02  2.7707903994008001e+02  4.0137163007829270e+02  5.2579142213522937e+02  6.4966166619516741e+02  7.7196134907324540e+02  8.9178479397634578e+02  7.9704637818174490e+02  9.8912969896937147e+02  1.2166138117951607e+03  1.4232042222946859e+03  1.5675252308463873e+03  1.6602689102386050e+03  1.6896353159343198e+03  1.6846018871779884e+03  1.6654116596140386e+03  1.6767404033071414e+03  1.6842795029545568e+03  1.6938689780873647e+03  1.6571193171982709e+03  1.5702939275866902e+03  1.4262431205238490e+03  1.2140368825230348e+03  9.9214446455981840e+02  7.9245134372773396e+02  8.9075322196946104e+02  7.6994840345956425e+02  6.4672469639743019e+02  5.2194242753185290e+02  3.9676742710538770e+02  2.7162481142517396e+02  1.5373924842999270e+02  1.0994959355727946e+01  8.3359755558284476e+01  1.9549959488021182e+02  3.0076461192300343e+02  3.9701897684694893e+02  4.8544510049420052e+02  5.6465720247387242e+02  6.3386060252201162e+02  6.9265811656620622e+02  7.4079152337738515e+02  7.7755408470552300e+02  8.0319181423730629e+02  8.1767433887430036e+02  8.2121688546106407e+02  8.1407210619656030e+02  7.9680693166447270e+02  7.6972010670476118e+02  7.3349233332624010e+02  6.8871007850010005e+02  6.3558954401893527e+02  5.7464327335626626e+02  5.0629458291527351e+02  4.3081026639631540e+02  3.4794943318443944e+02  2.5604638407846465e+02  1.5794251511215967e+02  2.5560259805769093e+01  5.1986225592509015e+01  2.0432672637597867e+02  3.5513986734309526e+02  5.3447859028549237e+02  9.7066712745782957e+02  8.5444366393270184e+02  2.5158709889298379e+02  2.0180887063738173e+03  1.9189428497599386e+03  1.9481243274881240e+03  3.0160142347134451e+03  1.7031366361394232e+03  2.0471249537238734e+03  1.8641220897285989e+03  9.5700643392803079e+02  8.1666132830905053e+02  2.3602905334918376e+02  1.0138844470829268e+03  9.9902332691205288e+02  2.5737563896509264e+03  8.0888453402235882e+02  8.1006293343179516e+02  9.9364354740229214e+02  1.0006968923163832e+03  7.6335278019977693e+02  7.6124195073546025e+02  9.6369175557425262e+02  9.5940752602490477e+02  4.5012577054967545e+02  4.3373672803665266e+02  9.5234406633835624e+02  9.5884908180126251e+02  8.1469764256005892e+03  8.2005445776108591e+03  6.6880820976581947e+02  6.6098530177422549e+02  9.4313707294783865e+02  9.4934202559107234e+02  9.3012804889241283e+02  4.6546946814024437e+02  9.2223706834620418e+02  3.8807890048276670e+02  1.9481856981527219e+03  1.9751094418292548e+03  2.1753395239293664e+03  2.9393261768858169e+03  1.6462692110924174e+01  8.4480320650554059e+00  2.2018822327128300e+03  1.8146069363042127e+03  1.8414395794729876e+03  3.9663601619517965e+02  9.3724312059715169e+02  3.9508424207994995e+02  9.2166062732271075e+02  9.6770200679255174e+02  9.8507960790512402e+02  9.9521822143032989e+02  9.6892095429496442e+02  9.9997411067060546e+02  9.7207412602300576e+02  1.3180672141059208e+02  1.2817248437614771e+02  2.3348395151438353e+03  3.3330536153926732e+02  3.4106880997593368e+02  3.5172939589668335e+03  2.2589433345589136e+03  1.1102000339376211e+03  1.1461939843541900e+03  9.3342600172245170e+02  5.9525567013173804e+03  9.0894634339768800e+02  2.4433351471849355e+02  2.4730668287519762e+02  5.9479182246483879e+02  5.9688966482789726e+02  8.1343325316165283e+02  8.1375454494115843e+02  5.9799092867027946e+02  5.9730498403178740e+02  7.5732041379502880e+02  7.5483021046837803e+02  9.5007790086555997e+02  9.6332285815074056e+02  9.6178410064899128e+02  5.4818976086481450e+02  5.4432127545190281e+02  9.8848441072099547e+02  9.5010303522288609e+02  9.5775557123395447e+02  9.6666691062746258e+02  9.7079818207779590e+02  1.0246784179581907e+03  9.4144469314169919e+02  8.7574333566213932e+02  8.8523903669220635e+02  7.5280386751229730e+02  6.8829877434836976e+02  1.4473678454715364e+03  2.3101763270361698e+02  1.5417168192231225e+03  1.6931103586793057e+02  1.9918467395723299e+03  1.9132701775169935e+03  1.8861540680553742e+03  2.0763678741076938e+03  2.0817778519144276e+03  1.6129562016249650e+02  1.7410116942151490e+02  2.2850786369958914e+03  3.0413189230551325e+03  9.4401289758774819e+03  8.4267449397899600e+02  8.2063951943160100e+02  1.1057189113820077e+04  5.5929257821168028e+02  5.9248968636199447e+02  8.5208286370994642e+02  8.8579186448681639e+02  1.1307772555983936e+03  9.6277324282151869e+02  1.2285207143216719e+03  1.1078805301222337e+03  1.3913164835475768e+03  1.2960359961701658e+03  1.5954972905743443e+03  1.5106856365784070e+03  1.8245704752921886e+03  1.7444486944889575e+03  2.0704946257657543e+03  1.9899560966879453e+03  2.3251002261733702e+03  2.2410405672191901e+03  2.5834824817739841e+03  2.4758394599212579e+03  2.8470187559220044e+03  2.7015869190584012e+03  3.1092812653769211e+03  2.3471318464672372e+03  3.2378250745374426e+03  3.5493842868573993e+03  3.6543901269179510e+03  4.0125298874559735e+03  4.0773993510793239e+03  4.4830211009403592e+03  4.4951896399613624e+03  4.9447277213696771e+03  4.8848163458378258e+03  5.3575386503901955e+03  5.2108367427246039e+03  5.6755470333284566e+03  5.4684748085362735e+03  6.0183072067100829e+03  5.6559959875575687e+03  6.1525292112182888e+03  5.7076546868663982e+03  6.1720253754900932e+03  5.6567060351259051e+03  6.0557138341721229e+03  5.4972086473579138e+03  5.8003011680727132e+03  5.2365038579313959e+03  5.4328765852689994e+03  4.8686750452071119e+03  5.0117755848054112e+03  4.4828295644447189e+03  4.5587282742199714e+03  4.1330930621410553e+03  4.1006952875105526e+03  3.7413176335910744e+03  3.6602282444491616e+03  3.3614011165093989e+03  3.2535697175775608e+03  3.0075513319008660e+03  2.8896624894302677e+03  2.6837884723626712e+03  2.5608460307084679e+03  2.3934391400401628e+03  2.2626654934954722e+03  2.1316959224221441e+03  2.0002670600143917e+03  1.9033851536293578e+03  1.7759063147039428e+03  1.7024891521801753e+03  1.5808327664067410e+03  6.5718161245994215e+03  1.5250215944466481e+03  1.4101842695921725e+03  1.4388344252274496e+03  1.2824513802652502e+03  1.6255099270894982e+03  2.4893693094255927e+03  2.1036901771154094e+03  2.5208925465614857e+03  2.1975670773607371e+03  6.4270855884510775e+03  3.0672463494468602e+03  1.2844169114608367e+03  1.1429273307056806e+03  1.1485836665966804e+03  1.0169544031908548e+03  3.8792120754639873e+03  5.4309017853917012e+03  2.3160167175926317e+03  2.0279172389890512e+03  4.5133290808472048e+03  2.1058499450030240e+03  1.8391786491828416e+03  1.7827020323399529e+03  1.6174107759583890e+03  1.5793445611639713e+03  1.4381177524054642e+03  1.4401194471421454e+03  1.2799707768791877e+03  1.1249394944086248e+03  1.0328227959856147e+03  9.0758626097178967e+02  1.4115089690719735e+03  1.2540108208164918e+03  1.1217319528283633e+03  9.3226486673629529e+02  8.0952107489560308e+02  7.7363239630379849e+02  6.8933767859896318e+02  6.3810242994700184e+02  5.6192115537271650e+02  1.0755456694735014e+03  9.6145116099985808e+02  1.0094336772946514e+03  8.6480982536503734e+02  4.0967549605918730e+03  7.9804107354643600e+02  7.1620031528884977e+02  3.7239107084460734e+03  4.6601216912329583e+03  5.2294171384063957e+03  9.1549107005296821e+02  4.9999070039741883e+02  4.3126505215387897e+02  8.3952507763067149e+02  9.4403375657761944e+02  6.3672696989970495e+02  5.6914455040395410e+02  5.0226368209755510e+03  4.9854644144630163e+02  3.7016818782139774e+02  3.6353033765682704e+02  4.8094635339746736e+02  5.5219452860098943e+02  4.1960417631460479e+02  5.1035882301921788e+02  3.7022720126216132e+02  8.6608665123545200e+02  9.5422478669310146e+02  4.6122359398205077e+02  1.2039596948661674e+03  4.3130986366779149e+02  3.2460076705315953e+02  2.9517680118183438e+02  3.5842649512146710e+02  2.1502288636508692e+03  4.6007968403236862e+02  3.1853658192236554e+02  3.3566787160103070e+02  8.8283172468843031e+02  9.6044292938765022e+02  2.2614076151587287e+02  2.8548825161225335e+02  1.7387348214494580e+02  1.4618852119912947e+03  4.2076656353838615e+02  3.8362518414509719e+02  2.6564295797897023e+02  3.0708037769511884e+02  2.1657172190597294e+02  1.7599931136870032e+02  2.1913061865173884e+02  8.9356324336407954e+02  9.5800794442508231e+02  1.9771643664038135e+02  1.1049052836382759e+02  8.7097858397055802e+01  9.8524838189900919e+01  3.3178432503830379e+02  2.2020529434027696e+02  1.5236836414614621e+02  1.1165551502896237e+02  7.7618371013877905e+01  3.8675799007578047e+02  4.9741308382795194e+02  7.2824824771752077e+01  1.4439456389894761e+02  9.9557609227808911e+01  1.9594690021189442e+02  1.9200599869896195e+02  8.9840612648549757e+02  9.5016946867967761e+02  1.0129258965902720e+03  9.9152736793754877e+02  1.0592947590624783e+03  1.0220679253452989e+03  1.0960423047480904e+03  1.0424139095741432e+03  1.1227055896595521e+03  1.0531241196503838e+03  1.1425076333592742e+03  1.0551948350908033e+03  1.1506834011477968e+03  1.0463066982213427e+03  1.1557479401555975e+03  1.0277953056709339e+03  1.1576702920325802e+03  1.3022755001220764e+03  1.3234302981080609e+03  8.3593396602459313e+02  1.6914615910099923e+02  1.8104459160140675e+02  2.7283417954395304e+02  2.1329266363551415e+02  3.3737631234135364e+02  2.6368122804730018e+02  4.1336971946715477e+02  3.2992094062898292e+02  5.0176281242837200e+02  4.1162623944960592e+02  5.9886989685788274e+02  5.0671508762617287e+02  7.1462192619132702e+02  6.2073166971965043e+02  8.5575017537960866e+02  7.5641003892466244e+02  1.0097768287720751e+03  9.1236340586192307e+02  1.1772991708549441e+03  1.0941835954675187e+03  1.3904843547613457e+03  1.3098409466140970e+03  1.6475206020350090e+03  1.5641707784462785e+03  1.9342290873627442e+03  1.8596852789909140e+03  2.2626495613209809e+03  2.2166661012758586e+03  2.6489570603531220e+03  2.6433133049375310e+03  3.1005539716480657e+03  3.1443606089803006e+03  3.6269452325870316e+03  3.7331403128055163e+03  4.2227038640663759e+03  4.4077003482015480e+03  4.8887556488823520e+03  5.1718403357747493e+03  5.6119061497320699e+03  5.9897711261180611e+03  6.3588270096439855e+03  6.8611559896958724e+03  7.1183842435117313e+03  7.7115770121559535e+03  7.4413992908860446e+03  8.3385788551403766e+03  8.4546070848841700e+03  9.1162362540824342e+03  9.0986489477066225e+03  9.7667749979011405e+03  9.6357862571743481e+03  1.0284691269765808e+04  1.0476040151687779e+04  1.0886936910383341e+04  1.0656490576833918e+04  1.1177399040953387e+04  1.0905257399837803e+04  1.1427228006810876e+04  1.1065659166960057e+04  1.1461842586358562e+04  1.1116365290484906e+04  1.1470153417683941e+04  1.1089349808249599e+04  1.1469860793197407e+04  1.0978912814113786e+04  1.1257410729104271e+04  1.0751769625400633e+04  1.0994105600010282e+04  1.1761454518484301e+04  1.0419793142887031e+04  1.0574534867195523e+04  9.9554140462484920e+03  1.1383975139444792e+04  1.1478817922649816e+04  1.0004085652680458e+04  9.3606783807552511e+03  9.3219753077065961e+03  8.6752549691696986e+03  8.5467631147474913e+03  7.8795901094910650e+03  7.5143781692314606e+03  7.0370802516686426e+03  6.5581787243591662e+03  6.1970995267822145e+03  1.0574625649912688e+04  5.6605934291261401e+03  5.4251422064986937e+03  4.8563753062154510e+03  4.7254631336242746e+03  4.1331127978997256e+03  4.0961146162203122e+03  3.5384826486205643e+03  1.0623506789898267e+04  3.5470755903049439e+03  3.0076149559226392e+03  3.0708335250282771e+03  2.5776097661695985e+03  1.0007448320905733e+04  2.6614880954800092e+03  2.2091514958324278e+03  9.3434483764709494e+03  8.1014451810728897e+03  2.2988554476626155e+03  1.8943361136521955e+03  1.9886247802191349e+03  1.6290831973629402e+03  5.2136692216113370e+03  2.6513621103396663e+03  7.3579573270795063e+03  4.5796575496288488e+03  1.4832266106737275e+03  1.2648605402291855e+03  1.4074424582352478e+03  1.0796108913697581e+03  2.4327557079551220e+03  6.9171053113924008e+03  2.6141936899665220e+03  4.1588717039846488e+03  1.0822032629868693e+03  1.4515986836519694e+03  5.1053841388091399e+02  1.5007342266892988e+03  1.5316997857891936e+03  1.7444273731291569e+03  1.7744394221223106e+03  1.6851369751473013e+02  1.2174182680433398e+03  9.2114858888993945e+02  1.6766062646862365e+03  8.9691571329608360e+03  2.5347376053306672e+02  2.3130949479379160e+02  2.7720658327100705e+02  7.7241117118528427e+02  6.4485287487661435e+02  7.8465733286986529e+02  5.3921788125271189e+02  6.6861161475880817e+02  4.4711884874443513e+02  2.1524061913183320e+02  2.0268899967042969e+02  9.7548974101084127e+02  4.6738977256002886e+02  5.6651594937918856e+02  3.4797769817146345e+03  1.0066340209651967e+03  6.5820612794774797e+03  5.6706238404639157e+02  3.6700680642080687e+02  6.8255580794140130e+01  3.0268927766956261e+02  3.0842253657645915e+02  9.3611951681035941e+02  2.1958144136269524e+02  2.4739645101437543e+02  2.0231504608781820e+03  2.0402085779726685e+03  2.9110318299801582e+02  3.9472395898719213e+02  9.2758502275699061e+02  1.5250571474909327e+03  1.3668363603870419e+03  2.4865314734180765e+02  2.2305899875926508e+02  3.4258390736103775e+02  3.1899125496894658e+02  3.9435970559242514e+02  1.2711852631527336e+03  2.9771996480661471e+02  2.0096609431453572e+02  1.7452786915843139e+03  2.4074351563306841e+03  2.3439869704163957e+03  2.3368386775849081e+03  5.3857621974428025e+02  6.2720801073989605e+02  1.0385904215903956e+03  2.6787837766978305e+03  2.6439372313729914e+03  1.9250761161268153e+02  3.0167076765468732e+02  2.1625498760397918e+03  2.4203205372613459e+02  2.6341452864490742e+02  1.9515014144855812e+02  2.8785057964466176e+02  2.0234740707559388e+02  3.1082284252657024e+02  2.1738108441430026e+02  3.3366562999478742e+02  7.8348693159928848e+02  7.9333764528068161e+02  2.9667248872133041e+02  4.1093582072056279e+02  4.1460310031616939e+02  4.0786234325801405e+02  4.3774818979097387e+02  2.3613739556565221e+02  3.5636457718510081e+02  2.5561114734045725e+02  3.7607334299431977e+02  2.7460219646247373e+02  3.9500003452762024e+02  3.1378462249076080e+02  3.5741197343133786e+02  4.5490821501606530e+02  1.4605272231934393e+03  1.3115437740716291e+03  1.2306565456572653e+03  1.1868997728389056e+03  1.1206544507415244e+03  1.0875854488636921e+03  1.1357300532510553e+03  1.0456406543673681e+03  1.0074461717996671e+03  1.0771806187610503e+03  9.9590182702693926e+02  1.0109759454167015e+03  9.3943059564568159e+02  9.3784787089391295e+02  9.3378670348785909e+02  4.3417431833306210e+02  4.0954952546543524e+02  4