<?xml version="1.0"?>
<VTKFile type="UnstructuredGrid"  version="0.1"  >
<UnstructuredGrid>
<Piece  NumberOfPoints="3167" NumberOfCells="6038">
<Points>
<DataArray  type="Float64"  NumberOfComponents="3"  format="ascii">2.2 2.9 0  0 2.9 0  2.8 2.9 0  5 2.9 0  5 0 0  0 0 0  2.16271186440678 2.9 0  2.125423728813559 2.9 0  2.088135593220339 2.9 0  2.050847457627119 2.9 0  2.013559322033898 2.9 0  1.976271186440678 2.9 0  1.938983050847457 2.9 0  1.901694915254237 2.9 0  1.864406779661016 2.9 0  1.827118644067796 2.9 0  1.789830508474575 2.9 0  1.752542372881355 2.9 0  1.715254237288134 2.9 0  1.677966101694914 2.9 0  1.640677966101693 2.9 0  1.603389830508473 2.9 0  1.566101694915253 2.9 0  1.528813559322032 2.9 0  1.491525423728812 2.9 0  1.454237288135591 2.9 0  1.416949152542371 2.9 0  1.37966101694915 2.9 0  1.34237288135593 2.9 0  1.305084745762709 2.9 0  1.267796610169489 2.9 0  1.230508474576268 2.9 0  1.193220338983048 2.9 0  1.155932203389827 2.9 0  1.118644067796607 2.9 0  1.081355932203387 2.9 0  1.044067796610166 2.9 0  1.006779661016946 2.9 0  0.9694915254237257 2.9 0  0.9322033898305055 2.9 0  0.8949152542372856 2.9 0  0.8576271186440652 2.9 0  0.820338983050845 2.9 0  0.783050847457625 2.9 0  0.7457627118644048 2.9 0  0.7084745762711844 2.9 0  0.6711864406779642 2.9 0  0.633898305084744 2.9 0  0.5966101694915238 2.9 0  0.5593220338983036 2.9 0  0.5220338983050834 2.9 0  0.4847457627118632 2.9 0  0.447457627118643 2.9 0  0.4101694915254228 2.9 0  0.3728813559322024 2.9 0  0.3355932203389822 2.9 0  0.2983050847457622 2.9 0  0.2610169491525418 2.9 0  0.2237288135593216 2.9 0  0.1864406779661016 2.9 0  0.1491525423728812 2.9 0  0.1118644067796613 2.9 0  0.07457627118644039 2.9 0  0.03728813559321997 2.9 0  2.792405063291139 2.9 0  2.784810126582279 2.9 0  2.777215189873418 2.9 0  2.769620253164557 2.9 0  2.762025316455697 2.9 0  2.754430379746836 2.9 0  2.746835443037975 2.9 0  2.739240506329114 2.9 0  2.731645569620254 2.9 0  2.724050632911393 2.9 0  2.716455696202532 2.9 0  2.708860759493671 2.9 0  2.701265822784811 2.9 0  2.69367088607595 2.9 0  2.686075949367089 2.9 0  2.678481012658228 2.9 0  2.670886075949368 2.9 0  2.663291139240507 2.9 0  2.655696202531646 2.9 0  2.648101265822786 2.9 0  2.640506329113925 2.9 0  2.632911392405064 2.9 0  2.625316455696203 2.9 0  2.617721518987342 2.9 0  2.610126582278482 2.9 0  2.602531645569621 2.9 0  2.59493670886076 2.9 0  2.587341772151899 2.9 0  2.579746835443038 2.9 0  2.572151898734178 2.9 0  2.564556962025317 2.9 0  2.556962025316456 2.9 0  2.549367088607595 2.9 0  2.541772151898734 2.9 0  2.534177215189874 2.9 0  2.526582278481013 2.9 0  2.518987341772152 2.9 0  2.511392405063292 2.9 0  2.503797468354431 2.9 0  2.49620253164557 2.9 0  2.488607594936709 2.9 0  2.481012658227848 2.9 0  2.473417721518988 2.9 0  2.465822784810127 2.9 0  2.458227848101266 2.9 0  2.450632911392406 2.9 0  2.443037974683545 2.9 0  2.435443037974684 2.9 0  2.427848101265823 2.9 0  2.420253164556962 2.9 0  2.412658227848102 2.9 0  2.405063291139241 2.9 0  2.39746835443038 2.9 0  2.389873417721519 2.9 0  2.382278481012658 2.9 0  2.374683544303798 2.9 0  2.367088607594937 2.9 0  2.359493670886076 2.9 0  2.351898734177215 2.9 0  2.344303797468355 2.9 0  2.336708860759494 2.9 0  2.329113924050633 2.9 0  2.321518987341773 2.9 0  2.313924050632912 2.9 0  2.306329113924051 2.9 0  2.29873417721519 2.9 0  2.291139240506329 2.9 0  2.283544303797469 2.9 0  2.275949367088608 2.9 0  2.268354430379747 2.9 0  2.260759493670887 2.9 0  2.253164556962026 2.9 0  2.245569620253165 2.9 0  2.237974683544304 2.9 0  2.230379746835443 2.9 0  2.222784810126583 2.9 0  2.215189873417722 2.9 0  2.207594936708861 2.9 0  4.96271186440678 2.9 0  4.925423728813559 2.9 0  4.888135593220339 2.9 0  4.850847457627118 2.9 0  4.813559322033898 2.9 0  4.776271186440677 2.9 0  4.738983050847457 2.9 0  4.701694915254237 2.9 0  4.664406779661016 2.9 0  4.627118644067796 2.9 0  4.589830508474575 2.9 0  4.552542372881355 2.9 0  4.515254237288135 2.9 0  4.477966101694914 2.9 0  4.440677966101694 2.9 0  4.403389830508473 2.9 0  4.366101694915252 2.9 0  4.328813559322032 2.9 0  4.291525423728811 2.9 0  4.254237288135591 2.9 0  4.21694915254237 2.9 0  4.17966101694915 2.9 0  4.14237288135593 2.9 0  4.105084745762709 2.9 0  4.067796610169489 2.9 0  4.030508474576268 2.9 0  3.993220338983048 2.9 0  3.955932203389827 2.9 0  3.918644067796607 2.9 0  3.881355932203387 2.9 0  3.844067796610166 2.9 0  3.806779661016946 2.9 0  3.769491525423725 2.9 0  3.732203389830505 2.9 0  3.694915254237285 2.9 0  3.657627118644065 2.9 0  3.620338983050845 2.9 0  3.583050847457625 2.9 0  3.545762711864405 2.9 0  3.508474576271184 2.9 0  3.471186440677964 2.9 0  3.433898305084744 2.9 0  3.396610169491524 2.9 0  3.359322033898303 2.9 0  3.322033898305083 2.9 0  3.284745762711863 2.9 0  3.247457627118643 2.9 0  3.210169491525423 2.9 0  3.172881355932202 2.9 0  3.135593220338982 2.9 0  3.098305084745762 2.9 0  3.061016949152542 2.9 0  3.023728813559321 2.9 0  2.986440677966101 2.9 0  2.949152542372881 2.9 0  2.911864406779661 2.9 0  2.87457627118644 2.9 0  2.83728813559322 2.9 0  5 0.1063822625082082 0  5 0.210636880010749 0  5 0.3128064053694972 0  5 0.4129325400644018 0  5 0.5110561521032336 0  5 0.6072172918830103 0  5 0.7014552087832795 0  5 0.7938083674443693 0  5 0.88431446261646 0  5 0.9730104359544682 0  5 1.059932489996267 0  5 1.145116102913299 0  5 1.228596043483191 0  5 1.310406385079062 0  5 1.390580519944147 0  5 1.469151172477827 0  5 1.546150411986101 0  5 1.621609666658609 0  5 1.695559736099044 0  5 1.76803080383987 0  5 1.839052450169751 0  5 1.908653663631169 0  5 1.97686285289587 0  5 2.043707858613779 0  5 2.109215964341413 0  5 2.173413907925942 0  5 2.236327892833935 0  5 2.297983597762904 0  5 2.35840618845912 0  5 2.41762032730194 0  5 2.475650183444628 0  5 2.532519442457069 0  5 2.588251316112828 0  5 2.642868552557322 0  5 2.696393444426347 0  5 2.748847838312051 0  5 2.800253144313381 0  5 2.850630344319807 0  0.2631578947368421 0 0  0.5263157894736842 0 0  0.7894736842105263 0 0  1.052631578947368 0 0  1.31578947368421 0 0  1.578947368421053 0 0  1.842105263157895 0 0  2.105263157894737 0 0  2.368421052631579 0 0  2.631578947368421 0 0  2.894736842105263 0 0  3.157894736842105 0 0  3.421052631578947 0 0  3.684210526315789 0 0  3.947368421052632 0 0  4.210526315789473 0 0  4.473684210526315 0 0  4.736842105263158 0 0  0 2.850203682350569 0  0 2.799411438503675 0  0 2.747603349778291 0  0 2.694759099502208 0  0 2.640857964382145 0  0 2.58587880633613 0  0 2.52980006535898 0  0 2.472599749459174 0  0 2.414255427218689 0  0 2.35474421880616 0  0 2.294042786119219 0  0 2.232127324764723 0  0 2.1689735539481 0  0 2.104556707683347 0  0 2.038851524813415 0  0 1.971832238155655 0  0 1.903472565412126 0  0 1.83374569926617 0  0 1.762624296208475 0  0 1.690080464918761 0  0 1.616085756774206 0  0 1.540611154706337 0  0 1.463627060685571 0  0 1.385103284916206 0  0 1.305009033716617 0  0 1.223312897337225 0  0 1.139982838163732 0  0 1.054986177579938 0  0 0.9682895835804817 0  0 0.8798590579197976 0  0 0.7896599218415354 0  0 0.6976568029903638 0  0 0.6038136217958798 0  0 0.508093576867624 0  0 0.4104591310957497 0  0 0.3108719963522191 0  0 0.2092931188294389 0  0 0.1056826638508546 0  1.434832105763824 2.866945754981483 0  1.737156300467626 2.870039440267515 0  2.032203389830508 2.867707527316512 0  2.332911392405064 2.893422591869991 0  2.469810913293406 2.891944186606167 0  2.606221408823969 2.892519154985628 0  2.255455320628894 2.892068685006691 0  2.538247299216212 2.894964578182811 0  2.674683544303798 2.893422591869991 0  2.40126582278481 2.893422591869991 0  3.566125247295424 2.865029336199714 0  3.266101694915253 2.867707527316512 0  2.967796610169491 2.867707527316512 0  1.174288529834642 2.870795313888584 0  3.825423728813556 2.867707527316512 0  2.727766680262011 2.892655387647729 0  0.06601655192030442 1.502119107695954 0  4.933983535508361 1.507650792231964 0  0.9532124728485543 2.868722489783638 0  4.048935912500257 2.870640982995992 0  0.05930163367361763 1.866907161167414 0  4.943402512618553 1.871280731473148 0  4.271733870017743 2.86520865624265 0  0.7249420921613114 2.863922936177041 0  0.05494499779910056 2.196469063120752 0  4.947228695426367 2.208030108792719 0  0.5406152150397161 2.866493807382013 0  4.459322033898304 2.868847558178794 0  2.18135593220339 2.875780645487384 0  2.817027156509632 2.876587550645167 0  4.928427208322876 1.186856073198245 0  0.07189226971603224 1.174626666111662 0  4.610299014423113 2.867003104093161 0  0.3897270066746357 2.869433095314657 0  1.581132500042262 2.868247328632392 0  1.887637879411437 2.869235851794358 0  3.413449426418068 2.867372048034327 0  3.116721298814773 2.865731235547652 0  2.644303797468355 2.893422591869991 0  2.370983221828106 2.892719513369796 0  2.302531645569621 2.893336787387268 0  2.758987341772152 2.894242393897099 0  0.04979653335696277 2.443411216910286 0  4.950470983477169 2.446866954595817 0  2.482937483021586 0.2513241087417575 0  1.707129504814338 0.1999998659920923 0  3.28584657955054 0.229200625631625 0  4.907807122600524 0.834082362900164 0  4.757627118644067 2.867707527316512 0  0.0773489124676745 0.8347594898806663 0  0.2390604736599387 2.861365431805741 0  0.8363213715215729 2.863896768908178 0  4.160865610207075 2.868916854015731 0  1.282549332053297 2.867610952980761 0  1.065094818402487 2.861284686038041 0  3.93818127737282 2.86865134411395 0  3.711492629432973 2.863574306925269 0  4.91369361998929 0.5579891344254361 0  0.08208328472281323 0.5559535993317519 0  2.696596932532885 2.892010483922337 0  0.04706410140274553 2.613055974506516 0  4.955577063972248 2.616518038840186 0  2.234177215189874 2.893422591869991 0  2.279795840559739 2.89403861893984 0  0.9117357887652362 0.2117925286661764 0  4.055948041993057 0.2039101057937727 0  4.872119713780579 2.867632926423075 0  2.780113878992455 2.891535929611743 0  0.1327442468251063 2.85
[...]
<PointData  Scalars=" mean stress"> 
<DataArray  type="Float64"  Name=" mean stress"  format="ascii">2.6526512821715110e+03  6.0727474387828761e+02  2.4703778353725461e+03  6.0727791675937010e+02  4.3472489778189333e+02  4.3242028082769809e+02  -3.3011454571155110e+02  1.3698734333157799e+02  3.2448989518924208e+02  5.5186416676962494e+02  7.1482326948812977e+02  8.0639721804427961e+02  8.0827927737695325e+02  8.0070298545467358e+02  8.0021155770947416e+02  7.7473728799219123e+02  7.6444743068743344e+02  7.6123072193429880e+02  7.5796965343341276e+02  7.5625331319954773e+02  7.5254203105556019e+02  7.4885839771357905e+02  7.4466747252761752e+02  7.4002429327270090e+02  7.3584731524437063e+02  7.3117062681646996e+02  7.2681471888904719e+02  7.2226058665996345e+02  7.1748055348526702e+02  7.1275467279119891e+02  7.0824885233530415e+02  7.0365813831213870e+02  6.9895599788985919e+02  6.9442243685084372e+02  6.8982498479072740e+02  6.8535979157784061e+02  6.8052014414832024e+02  6.7616143358870136e+02  6.7172429690165598e+02  6.6755335203217589e+02  6.6327123486436949e+02  6.5910428150821519e+02  6.5511172906496415e+02  6.5118154864359121e+02  6.4740831963783921e+02  6.4375167664434309e+02  6.4023674553379044e+02  6.3684008141293418e+02  6.3362469202712055e+02  6.3055239253140383e+02  6.2767854305832998e+02  6.2493693630532562e+02  6.2239158951053400e+02  6.2001866336666103e+02  6.1783582542161992e+02  6.1585683746913048e+02  6.1407974733517813e+02  6.1251508292083463e+02  6.1110776528051315e+02  6.0992363643168324e+02  6.0898109419750665e+02  6.0825032205108926e+02  6.0769504502123937e+02  6.0733865026108583e+02  2.6449508206954692e+03  5.8094483318415712e+02  8.3731492455473756e+02  7.9722108002034190e+02  7.7777862425378817e+02  7.9345676030888069e+02  7.9316504011575637e+02  7.9836165995535009e+02  7.9965165444078900e+02  8.0073327618274016e+02  7.9999426343121775e+02  8.0068410186603342e+02  8.0301460557757378e+02  8.0287978738570098e+02  8.0292861652703266e+02  8.0283811918017000e+02  8.0326962924714098e+02  8.0342910607792248e+02  8.0377257219225942e+02  8.0400845598658157e+02  8.0411539279491785e+02  8.0426439294739419e+02  8.0441530250349206e+02  8.0454183915947510e+02  8.0472020011611357e+02  8.0513800483871501e+02  8.0510542187494741e+02  8.0522465919500962e+02  8.0528450462668854e+02  8.0541456242552977e+02  8.0549540699621923e+02  8.0552889926708394e+02  8.0569646650025129e+02  8.0569367318359002e+02  8.0568896228836456e+02  8.0579623616793333e+02  8.0582813999259099e+02  8.0583697116523672e+02  8.0585472905112545e+02  8.0584331913457811e+02  8.0582537459812136e+02  8.0579675283504321e+02  8.0578584360876039e+02  8.0574450790497110e+02  8.0571183631653844e+02  8.0557192429457450e+02  8.0552841918381114e+02  8.0550034593705686e+02  8.0538373703333457e+02  8.0526256562851779e+02  8.0513579436454961e+02  8.0502314869245788e+02  8.0481531613802633e+02  8.0459461436366439e+02  8.0472706666255112e+02  8.0453237095603640e+02  8.0441194414998802e+02  8.0387282588388564e+02  8.0399940905190351e+02  8.0332626973389029e+02  8.0330416390548908e+02  8.0301644130559839e+02  8.0284742503021357e+02  8.0273999808669066e+02  8.0234872858066103e+02  8.0162951064674087e+02  8.0118941080015259e+02  8.0121125596207457e+02  8.0066857332459278e+02  8.0175637055670461e+02  7.9549854491072745e+02  7.9443328865435740e+02  7.9382908908411571e+02  7.9971884373333546e+02  7.8248517988825313e+02  8.3201352339859432e+02  9.2387397894857088e+02  1.5553597590604691e+03  6.0734489762930787e+02  6.0767946607569411e+02  6.0821761176247583e+02  6.0896528370925364e+02  6.0994782144616124e+02  6.1111417052364345e+02  6.1249164457770371e+02  6.1406078661114270e+02  6.1584801770175488e+02  6.1783595119914401e+02  6.2002661340094369e+02  6.2238931811458679e+02  6.2493816006472844e+02  6.2766440595348445e+02  6.3057380203665571e+02  6.3361811564250922e+02  6.3682178046032288e+02  6.4022156738968272e+02  6.4376736363926125e+02  6.4752902295320337e+02  6.5125739523171762e+02  6.5516557373821865e+02  6.5913854129970002e+02  6.6328288676264322e+02  6.6749333546517903e+02  6.7180952195996576e+02  6.7619208482868976e+02  6.8062271342774568e+02  6.8512789058263274e+02  6.8976322884172578e+02  6.9434301335682335e+02  6.9875563932293960e+02  7.0351740962960423e+02  7.0841656326488271e+02  7.1287865413923032e+02  7.1745335854037114e+02  7.2222125398333083e+02  7.2669940712209177e+02  7.3114865174014631e+02  7.3564677973994935e+02  7.4029219267404187e+02  7.4454742618183639e+02  7.4852095761786700e+02  7.5287927080288352e+02  7.5482142189104013e+02  7.5784506960008275e+02  7.6264397657573727e+02  7.7192290547652078e+02  7.7219112156369090e+02  7.9495026616290988e+02  7.9437215877046481e+02  7.9824862679587864e+02  7.7904618256503477e+02  6.9408890655648565e+02  5.9479246616546959e+02  3.2430730926476014e+02  2.3723919322795516e+02  -3.2951441143402411e+02  3.2059718840452791e+02  2.1274143082272451e+02  1.2142784631753359e+02  2.8545738672103489e+01  1.7876958925519386e+01  9.7454337185144837e+01  1.5684452060405425e+02  2.1168074643112232e+02  2.6168871730317449e+02  3.0753098905396484e+02  3.4839409400601738e+02  3.8486460081833241e+02  4.1664529845067329e+02  4.4344516243348761e+02  4.6494873480441123e+02  4.8082006132087355e+02  4.9090883015808834e+02  4.9472231905123169e+02  4.9210686156596523e+02  4.8286510277736988e+02  4.6688609374215798e+02  4.4418503808885617e+02  4.1480109280725901e+02  3.7896746410366717e+02  3.3686353617505546e+02  2.8882901515857270e+02  2.3540007145476090e+02  1.7726779154012183e+02  1.1397700360150424e+02  4.5417994319842443e+01  1.0783344727950682e+01  9.5678524564674277e+01  1.6689556206916987e+02  2.4176185905300295e+02  3.1670477473642194e+02  3.9131667612925389e+02  4.6498256698563210e+02  5.3715692268750263e+02  4.8009226288140326e+02  5.9579157306342290e+02  7.3281416733860283e+02  8.5725166606053858e+02  9.4418186419402389e+02  1.0000450161086337e+03  1.0177335528727228e+03  1.0147017215165625e+03  1.0031426955569856e+03  1.0099664417580997e+03  1.0145075368673662e+03  1.0202836534678293e+03  9.9814789281533137e+02  9.4584955872180421e+02  8.5908211353190916e+02  7.3126198187059651e+02  5.9760748450094331e+02  4.7732449359038725e+02  5.3653556644943990e+02  4.6377009097271866e+02  3.8954762414581842e+02  3.1438637447825255e+02  2.3898856720382949e+02  1.6361026653095240e+02  9.2603173030930421e+01  6.6226948166157555e+00  5.0210846915223627e+01  1.1775706592199629e+02  1.8116231010566574e+02  2.3914008546921787e+02  2.9240260439124575e+02  3.4011515704565170e+02  3.8179907637291518e+02  4.1721512284397267e+02  4.4620775969514847e+02  4.6835129078753596e+02  4.8379389980375726e+02  4.9251729183657056e+02  4.9465110644730424e+02  4.9034752595465102e+02  4.7994803486222344e+02  4.6363257889233950e+02  4.4181117153569028e+02  4.1483706482754155e+02  3.8284048557865788e+02  3.4613015880523557e+02  3.0496106456299930e+02  2.5949390315100032e+02  2.0958357671343350e+02  1.5422676935720170e+02  9.5134965242994497e+01  1.5395945964879211e+01  3.1313340561564530e+01  1.2307399308026665e+02  2.1391465693765903e+02  3.2193739648774863e+02  5.8467084285471401e+02  5.1466489698867611e+02  1.5154076716937837e+02  1.2155738991609658e+03  1.1558544650601575e+03  1.1734316124636662e+03  1.8166635448858008e+03  1.0258659270321161e+03  1.2330635686163832e+03  1.1228337733456106e+03  5.7644247189816031e+02  4.9190711588207444e+02  1.4216954675417517e+02  6.1070232777510341e+02  6.0175089281836415e+02  1.5502743165728921e+03  4.8722284797838012e+02  4.8793264411388873e+02  5.9851044083296790e+02  6.0275894683382467e+02  4.5979728865834318e+02  4.5852585336697547e+02  5.8046930306517982e+02  5.7788874374599504e+02  2.7112838810886490e+02  2.6125662565950734e+02  5.7363414522134246e+02  5.7755237090953074e+02  4.9072431101570446e+03  4.9395093069821996e+03  4.0284938950806622e+02  3.9813734551312592e+02  5.6808841236038256e+02  5.7182589845542827e+02  5.6025256746150706e+02  2.8037049835346977e+02  5.5549952069971732e+02  2.3375512719137936e+02  1.1734685784199924e+03  1.1896858041419102e+03  1.3102922278632961e+03  1.7704713229199863e+03  9.9161244878614330e+00  5.0885807175466953e+00  1.3262799413416449e+03  1.0930088563703725e+03  1.1091712086884070e+03  2.3890941326375724e+02  5.6453825392694569e+02  2.3797471891365223e+02  5.5515230768560434e+02  5.8288483450077706e+02  5.9335204452762343e+02  5.9945892869781505e+02  5.8361905434141283e+02  6.0232358712904818e+02  5.8551833321852325e+02  7.9392352662516231e+01  7.7203309302590355e+01  1.4063653219873520e+03  2.0076287858798048e+02  2.0543910776327857e+02  2.1186039635874499e+03  1.3606500787108168e+03  6.6871697950628777e+02  6.9039754613147272e+02  5.6223905366907695e+02  3.5854581300325358e+03  5.4749399631556082e+02  1.4717164921640378e+02  1.4896250488974138e+02  3.5826641937940406e+02  3.5953003203083745e+02  4.8996271974064649e+02  4.9015624636806615e+02  3.6019336639204238e+02  3.5978019506008059e+02  4.5616375801688446e+02  4.5466381098387166e+02  5.7226914496580332e+02  5.8024710169312925e+02  5.7932024775933360e+02  3.3019617174898463e+02  3.2786603141255176e+02  5.9540289066822879e+02  5.7228428437403363e+02  5.7689370664968669e+02  5.8226135552415064e+02  5.8474978218725244e+02  6.1720395935490285e+02  5.6706902569352928e+02  5.2749452381982417e+02  5.3321415660402602e+02  4.5344326522676050e+02  4.1458932022156478e+02  8.7180636306174335e+02  1.3915097174535876e+02  9.2863644666651430e+02  1.0198267072742549e+02  1.1997673343623292e+03  1.1524375923057394e+03  1.1361044971320202e+03  1.2506777253399966e+03  1.2539363669427946e+03  9.7154671793785397e+01  1.0486795585038469e+02  1.3763923953836877e+03  1.8319055501443224e+03  5.6861595585692603e+03  5.0757586479436162e+02  4.9430333626581830e+02  6.6601782381485191e+03  3.3688383365966564e+02  3.5687975260401060e+02  5.1324289451535049e+02  5.3354714644527314e+02  6.8111144635458686e+02  5.7991604684570973e+02  7.3998616125808235e+02  6.6731985147713635e+02  8.3804443161052404e+02  7.8065326085103300e+02  9.6103053174946433e+02  9.0994514951798635e+02  1.0990102862871045e+03  1.0507497984348647e+03  1.2471400377419432e+03  1.1986285260752065e+03  1.4004989666424360e+03  1.3498665404887408e+03  1.5561327229398851e+03  1.4912951132859030e+03  1.7148709465495092e+03  1.6272716530000828e+03  1.8728419317767361e+03  1.4137694747726503e+03  1.9502689045459415e+03  2.1379332254170449e+03  2.2011823571494056e+03  2.4169039672980325e+03  2.4559773869074415e+03  2.7002992596307458e+03  2.7076288474621283e+03  2.9784032473746920e+03  2.9423162784870956e+03  3.2270554443870969e+03  3.1386911374306037e+03  3.4186043534083483e+03  3.2938766390598639e+03  3.6250622356207027e+03  3.4068279925054271e+03  3.7059094079268098e+03  3.4379440511534231e+03  3.7176527115524909e+03  3.4072556819764245e+03  3.6475937129808726e+03  3.3111841560108951e+03  3.4937486567923520e+03  3.1541514465902324e+03  3.2724344344018054e+03  2.9325937406802977e+03  3.0187888025435846e+03  2.7001838896947829e+03  2.7459006564014776e+03  2.4895238912311684e+03  2.4700094421847371e+03  2.2535422003501690e+03  2.2046988840834119e+03  2.0247035964939771e+03  1.9597525199443828e+03  1.8115660069344119e+03  1.7405569380778952e+03  1.6165509511892249e+03  1.5424979015378303e+03  1.4416621720709654e+03  1.3628920808774130e+03  1.2840039766636341e+03  1.2048392232835040e+03  1.1464834551100844e+03  1.0696979556403855e+03  1.0254759220734402e+03  9.5219751426838229e+02  3.9584623440569439e+03  9.1858025864329954e+02  8.4940923840931214e+02  8.6666634969841425e+02  7.7247071442877882e+02  9.7910831865625028e+02  1.4994446717592714e+03  1.2671350189642553e+03  1.5184323526072185e+03  1.3236807541997396e+03  3.8712854714061959e+03  1.8475226549299746e+03  7.7365463087991293e+02  6.8842991264728278e+02  6.9183694537694203e+02  6.1255148262373700e+02  2.3366014255718569e+03  3.2712449350604952e+03  1.3950276135207025e+03  1.2214940094495455e+03  2.7185549434342679e+03  1.2684359317854423e+03  1.1078093617884938e+03  1.0737912826375134e+03  9.7422988259481644e+02  9.5130110994088000e+02  8.6623466957755943e+02  8.6744036874644496e+02  7.7097654981611026e+02  6.7759513405899679e+02  6.2210963734805478e+02  5.4667476538066637e+02  8.5020715680943124e+02  7.5533985113507606e+02  6.7566310608960293e+02  5.6153965657216645e+02  4.8760626148682195e+02  4.6598910420638236e+02  4.1521509295726980e+02  3.8435409523123883e+02  3.3846712867479198e+02  6.4784329798695660e+02  5.7911970516365682e+02  6.0802145474472559e+02  5.2090884217894006e+02  2.4676360288944952e+03  4.8069140687300035e+02  4.3139551154825773e+02  2.2430573273096161e+03  2.8069738841929484e+03  3.1498828377535551e+03  5.5143614161084054e+02  3.0116398912827560e+02  2.5976783843186712e+02  5.0567884792958813e+02  5.6862852004382887e+02  3.8352560175245509e+02  3.4281806252401327e+02  3.0253309506460710e+03  3.0029405537407945e+02  2.2296680319066516e+02  2.1896856595704202e+02  2.8969283274818298e+02  3.3260840026843556e+02  2.5274403602575850e+02  3.0740911561976424e+02  2.2300234929825837e+02  5.2167792442837174e+02  5.7476697678004882e+02  2.7781304198918542e+02  7.2519209690769526e+02  2.5979483016247326e+02  1.9551976027178671e+02  1.7779655275864991e+02  2.1589432162285888e+02  1.2951670933101764e+03  2.7712402020663234e+02  1.9186706396493176e+02  2.0218591096435983e+02  5.3176413826262285e+02  5.7851240775980989e+02  1.3621344114699568e+02  1.7196075974305276e+02  1.0473081088264065e+02  8.8055074172575405e+02  2.5344418739446618e+02  2.3107247933886052e+02  1.6000716182358690e+02  1.8496654329004755e+02  1.3044963366265856e+02  1.0601128111682662e+02  1.3199095743351191e+02  5.3822815243567425e+02  5.7704572091101522e+02  1.1909235657286325e+02  6.6552774394580837e+01  5.2462452718703062e+01  5.9345370371693924e+01  1.9984669870728527e+02  1.3263827670787998e+02  9.1777435713764049e+01  6.7254491508668366e+01  4.6752586049289896e+01  2.3295949109827833e+02  2.9961138967414115e+02  4.3865245330362526e+01  8.6974503401118739e+01  5.9967448833129929e+01  1.1802649544927472e+02  1.1565273605842849e+02  5.4114521069009243e+02  5.7232429984799660e+02  6.1012495525612678e+02  5.9723578302670785e+02  6.3805473791482450e+02  6.1563155737172906e+02  6.6018922449738579e+02  6.2788674085460570e+02  6.7624956570136976e+02  6.3433792002332814e+02  6.8817711249126455e+02  6.3558519306639084e+02  6.9310169776738621e+02  6.3023151998127969e+02  6.9615226804693714e+02  6.1908138294798505e+02  6.9731017590266708e+02  7.8441155855306738e+02  7.9715392225223093e+02  5.0351578070487000e+02  1.0188335899066625e+02  1.0905025108154393e+02  1.6433871633350262e+02  1.2847452838865217e+02  2.0321497176116026e+02  1.5882553502263940e+02  2.4898877839250503e+02  1.9872430926775763e+02  3.0223140163814924e+02  2.4793861206614636e+02  3.6072280337054366e+02  3.0521435102627612e+02  4.3044478595149781e+02  3.7389100573757474e+02  5.1545186002398202e+02  4.5561540356280028e+02  6.0822814832471897e+02  5.4955222692265806e+02  7.0913341870209888e+02  6.5906965107109352e+02  8.3754320783871106e+02  7.8896852339910777e+02  9.9236621058250819e+02  9.4216134608168534e+02  1.1650619649027030e+03  1.1201613083980585e+03  1.3628824843044226e+03  1.3351848446281572e+03  1.5955706269963262e+03  1.5921711719798989e+03  1.8675851408172816e+03  1.8939715948828905e+03  2.1846512219676097e+03  2.2486166796430816e+03  2.5434999882972884e+03  2.6549306190921588e+03  2.9446890750577872e+03  3.1152020735953306e+03  3.3802709556865379e+03  3.6078738361997698e+03  3.8301706549317769e+03  4.1327430815127082e+03  4.2876817373199365e+03  4.6449849839302724e+03  4.4822463564985410e+03  5.0226527606985874e+03  5.0925411096085063e+03  5.4910662816987760e+03  5.4804727579753162e+03  5.8829112560457597e+03  5.8040116051985797e+03  6.1948725192155607e+03  6.3101294480925962e+03  6.5576286653187180e+03  6.4188218094380381e+03  6.7325853872410134e+03  6.5686638139373481e+03  6.8830671619971454e+03  6.6652800830227152e+03  6.9039168795025134e+03  6.6958223679528610e+03  6.9089228188388997e+03  6.6795498845012162e+03  6.9087465596451002e+03  6.6130293558697176e+03  6.7807795619751869e+03  6.4762121135453217e+03  6.6221805660880818e+03  7.0843848854027692e+03  6.2762496708617773e+03  6.3694566743925698e+03  5.9965359459860065e+03  6.8570142652795448e+03  6.9141417896661942e+03  6.0258527615560824e+03  5.6383033521507532e+03  5.6149909748173650e+03  5.2254459755817643e+03  5.1480502971871019e+03  4.7461858554243872e+03  4.5262043943323770e+03  4.2387091574378801e+03  3.9502480035613344e+03  3.7327558553132317e+03  6.3695113563800942e+03  3.4095972116959074e+03  3.2677757150255256e+03  2.9251851259659938e+03  2.8463315951070267e+03  2.4895357788519282e+03  2.4672503243899992e+03  2.1313667415667483e+03  6.3989543822193373e+03  2.1365426070257813e+03  1.8116043301756247e+03  1.8496833513328411e+03  1.5525953562307998e+03  6.0278782283818600e+03  1.6031185604353086e+03  1.3306585033376577e+03  5.6279250454766170e+03  4.8798178576054343e+03  1.3846907082412160e+03  1.1410328637788200e+03  1.1978266220033470e+03  9.8126063934728506e+02  3.1403972504443032e+03  1.5970192828361605e+03  4.4319859923344402e+03  2.7585071790161874e+03  8.9340550233560543e+02  7.6187506224331594e+02  8.4775773800132924e+02  6.5029194041569326e+02  1.4653440813998575e+03  4.1664435501369699e+03  1.5746312869389374e+03  2.5050513772539075e+03  6.5185342741311877e+02  8.7435476266753199e+02  3.0751729023237692e+02  9.0395102543273242e+02  9.2260279494904489e+02  1.0507369557444638e+03  1.0688143887637339e+03  1.0150240259659004e+02  7.3329872285652743e+02  5.5484388687520698e+02  1.0098856448110050e+03  5.4024747642981038e+03  1.5267717739710980e+02  1.3932677171790172e+02  1.6697238641469644e+02  4.6525351246832514e+02  3.8842015270345757e+02  4.7262985547133115e+02  3.2479205712882901e+02  4.0273097263248087e+02  2.6931720129051121e+02  1.2964785830747755e+02  1.2208752611728131e+02  5.8757569195389817e+02  2.8152717294551229e+02  3.4123475313483073e+02  2.0960060182257785e+03  6.0633511204336367e+02  3.9646334022583701e+03  3.4156389214490150e+02  2.2106257930609445e+02  4.1113010653780705e+01  1.8232161169569761e+02  1.8577497817178852e+02  5.6386146334191233e+02  1.3226250561612440e+02  1.4901657575718579e+02  1.2186227922248627e+03  1.2288975645098542e+03  1.7534285291692936e+02  2.3775770629053417e+02  5.5872080318111136e+02  9.1860167363489359e+02  8.2329909426821166e+02  1.4977353319416412e+02  1.3435717469124040e+02  2.0635171028179010e+02  1.9214093135556186e+02  2.3753830219894138e+02  7.6568469067095953e+02  1.7932839985427378e+02  1.2104975271577240e+02  1.0512497382057468e+03  1.4500925210646662e+03  1.4118751927069427e+03  1.4075694958552410e+03  3.2440555926117401e+02  3.7779195968543434e+02  6.2558370423280576e+02  1.6135364268998574e+03  1.5925469873182362e+03  1.1595487717020899e+02  1.8170812320720768e+02  1.3025885218251376e+03  1.4578538908650779e+02  1.5866489152297058e+02  1.1754657642807577e+02  1.7338368247602455e+02  1.2188177151336063e+02  1.8722077649261138e+02  1.3093714441329374e+02  2.0097988239450976e+02  4.7192487692822891e+02  4.7785834774215351e+02  1.7869746396666608e+02  2.4752274581414551e+02  2.4973169200330591e+02  2.4567146991565042e+02  2.6367288624836522e+02  1.4223480551616342e+02  2.1465234766119607e+02  1.5396460921675620e+02  2.2652370952290534e+02  1.6540366219670562e+02  2.3792399740552534e+02  1.8900477261139423e+02  2.1528323545863975e+02  2.7400904179329945e+02  8.7973277186505311e+02  7.8999420309577874e+02  7.4127265615612566e+02  7.1491623744098285e+02  6.7501408436476572e+02  6.5509532884771738e+02  6.8409471043776546e+02  6.2983033567157656e+02  6.0682430231208207e+02  6.4882809200226814e+02  5.9987069113318626e+02  6.0895042326269424e+02  5.6585585585675710e+02  5.6490251872557258e+02  5.6245631847513846e+02  2.6152020344038272e+02  2.4668772586514513e+02  2