<?xml version="1.0"?>
<VTKFile type="UnstructuredGrid"  version="0.1"  >
<UnstructuredGrid>
<Piece  NumberOfPoints="3167" NumberOfCells="6038">
<Points>
<DataArray  type="Float64"  NumberOfComponents="3"  format="ascii">2.2 2.9 0  0 2.9 0  2.8 2.9 0  5 2.9 0  5 0 0  0 0 0  2.16271186440678 2.9 0  2.125423728813559 2.9 0  2.088135593220339 2.9 0  2.050847457627119 2.9 0  2.013559322033898 2.9 0  1.976271186440678 2.9 0  1.938983050847457 2.9 0  1.901694915254237 2.9 0  1.864406779661016 2.9 0  1.827118644067796 2.9 0  1.789830508474575 2.9 0  1.752542372881355 2.9 0  1.715254237288134 2.9 0  1.677966101694914 2.9 0  1.640677966101693 2.9 0  1.603389830508473 2.9 0  1.566101694915253 2.9 0  1.528813559322032 2.9 0  1.491525423728812 2.9 0  1.454237288135591 2.9 0  1.416949152542371 2.9 0  1.37966101694915 2.9 0  1.34237288135593 2.9 0  1.305084745762709 2.9 0  1.267796610169489 2.9 0  1.230508474576268 2.9 0  1.193220338983048 2.9 0  1.155932203389827 2.9 0  1.118644067796607 2.9 0  1.081355932203387 2.9 0  1.044067796610166 2.9 0  1.006779661016946 2.9 0  0.9694915254237257 2.9 0  0.9322033898305055 2.9 0  0.8949152542372856 2.9 0  0.8576271186440652 2.9 0  0.820338983050845 2.9 0  0.783050847457625 2.9 0  0.7457627118644048 2.9 0  0.7084745762711844 2.9 0  0.6711864406779642 2.9 0  0.633898305084744 2.9 0  0.5966101694915238 2.9 0  0.5593220338983036 2.9 0  0.5220338983050834 2.9 0  0.4847457627118632 2.9 0  0.447457627118643 2.9 0  0.4101694915254228 2.9 0  0.3728813559322024 2.9 0  0.3355932203389822 2.9 0  0.2983050847457622 2.9 0  0.2610169491525418 2.9 0  0.2237288135593216 2.9 0  0.1864406779661016 2.9 0  0.1491525423728812 2.9 0  0.1118644067796613 2.9 0  0.07457627118644039 2.9 0  0.03728813559321997 2.9 0  2.792405063291139 2.9 0  2.784810126582279 2.9 0  2.777215189873418 2.9 0  2.769620253164557 2.9 0  2.762025316455697 2.9 0  2.754430379746836 2.9 0  2.746835443037975 2.9 0  2.739240506329114 2.9 0  2.731645569620254 2.9 0  2.724050632911393 2.9 0  2.716455696202532 2.9 0  2.708860759493671 2.9 0  2.701265822784811 2.9 0  2.69367088607595 2.9 0  2.686075949367089 2.9 0  2.678481012658228 2.9 0  2.670886075949368 2.9 0  2.663291139240507 2.9 0  2.655696202531646 2.9 0  2.648101265822786 2.9 0  2.640506329113925 2.9 0  2.632911392405064 2.9 0  2.625316455696203 2.9 0  2.617721518987342 2.9 0  2.610126582278482 2.9 0  2.602531645569621 2.9 0  2.59493670886076 2.9 0  2.587341772151899 2.9 0  2.579746835443038 2.9 0  2.572151898734178 2.9 0  2.564556962025317 2.9 0  2.556962025316456 2.9 0  2.549367088607595 2.9 0  2.541772151898734 2.9 0  2.534177215189874 2.9 0  2.526582278481013 2.9 0  2.518987341772152 2.9 0  2.511392405063292 2.9 0  2.503797468354431 2.9 0  2.49620253164557 2.9 0  2.488607594936709 2.9 0  2.481012658227848 2.9 0  2.473417721518988 2.9 0  2.465822784810127 2.9 0  2.458227848101266 2.9 0  2.450632911392406 2.9 0  2.443037974683545 2.9 0  2.435443037974684 2.9 0  2.427848101265823 2.9 0  2.420253164556962 2.9 0  2.412658227848102 2.9 0  2.405063291139241 2.9 0  2.39746835443038 2.9 0  2.389873417721519 2.9 0  2.382278481012658 2.9 0  2.374683544303798 2.9 0  2.367088607594937 2.9 0  2.359493670886076 2.9 0  2.351898734177215 2.9 0  2.344303797468355 2.9 0  2.336708860759494 2.9 0  2.329113924050633 2.9 0  2.321518987341773 2.9 0  2.313924050632912 2.9 0  2.306329113924051 2.9 0  2.29873417721519 2.9 0  2.291139240506329 2.9 0  2.283544303797469 2.9 0  2.275949367088608 2.9 0  2.268354430379747 2.9 0  2.260759493670887 2.9 0  2.253164556962026 2.9 0  2.245569620253165 2.9 0  2.237974683544304 2.9 0  2.230379746835443 2.9 0  2.222784810126583 2.9 0  2.215189873417722 2.9 0  2.207594936708861 2.9 0  4.96271186440678 2.9 0  4.925423728813559 2.9 0  4.888135593220339 2.9 0  4.850847457627118 2.9 0  4.813559322033898 2.9 0  4.776271186440677 2.9 0  4.738983050847457 2.9 0  4.701694915254237 2.9 0  4.664406779661016 2.9 0  4.627118644067796 2.9 0  4.589830508474575 2.9 0  4.552542372881355 2.9 0  4.515254237288135 2.9 0  4.477966101694914 2.9 0  4.440677966101694 2.9 0  4.403389830508473 2.9 0  4.366101694915252 2.9 0  4.328813559322032 2.9 0  4.291525423728811 2.9 0  4.254237288135591 2.9 0  4.21694915254237 2.9 0  4.17966101694915 2.9 0  4.14237288135593 2.9 0  4.105084745762709 2.9 0  4.067796610169489 2.9 0  4.030508474576268 2.9 0  3.993220338983048 2.9 0  3.955932203389827 2.9 0  3.918644067796607 2.9 0  3.881355932203387 2.9 0  3.844067796610166 2.9 0  3.806779661016946 2.9 0  3.769491525423725 2.9 0  3.732203389830505 2.9 0  3.694915254237285 2.9 0  3.657627118644065 2.9 0  3.620338983050845 2.9 0  3.583050847457625 2.9 0  3.545762711864405 2.9 0  3.508474576271184 2.9 0  3.471186440677964 2.9 0  3.433898305084744 2.9 0  3.396610169491524 2.9 0  3.359322033898303 2.9 0  3.322033898305083 2.9 0  3.284745762711863 2.9 0  3.247457627118643 2.9 0  3.210169491525423 2.9 0  3.172881355932202 2.9 0  3.135593220338982 2.9 0  3.098305084745762 2.9 0  3.061016949152542 2.9 0  3.023728813559321 2.9 0  2.986440677966101 2.9 0  2.949152542372881 2.9 0  2.911864406779661 2.9 0  2.87457627118644 2.9 0  2.83728813559322 2.9 0  5 0.1063822625082082 0  5 0.210636880010749 0  5 0.3128064053694972 0  5 0.4129325400644018 0  5 0.5110561521032336 0  5 0.6072172918830103 0  5 0.7014552087832795 0  5 0.7938083674443693 0  5 0.88431446261646 0  5 0.9730104359544682 0  5 1.059932489996267 0  5 1.145116102913299 0  5 1.228596043483191 0  5 1.310406385079062 0  5 1.390580519944147 0  5 1.469151172477827 0  5 1.546150411986101 0  5 1.621609666658609 0  5 1.695559736099044 0  5 1.76803080383987 0  5 1.839052450169751 0  5 1.908653663631169 0  5 1.97686285289587 0  5 2.043707858613779 0  5 2.109215964341413 0  5 2.173413907925942 0  5 2.236327892833935 0  5 2.297983597762904 0  5 2.35840618845912 0  5 2.41762032730194 0  5 2.475650183444628 0  5 2.532519442457069 0  5 2.588251316112828 0  5 2.642868552557322 0  5 2.696393444426347 0  5 2.748847838312051 0  5 2.800253144313381 0  5 2.850630344319807 0  0.2631578947368421 0 0  0.5263157894736842 0 0  0.7894736842105263 0 0  1.052631578947368 0 0  1.31578947368421 0 0  1.578947368421053 0 0  1.842105263157895 0 0  2.105263157894737 0 0  2.368421052631579 0 0  2.631578947368421 0 0  2.894736842105263 0 0  3.157894736842105 0 0  3.421052631578947 0 0  3.684210526315789 0 0  3.947368421052632 0 0  4.210526315789473 0 0  4.473684210526315 0 0  4.736842105263158 0 0  0 2.850203682350569 0  0 2.799411438503675 0  0 2.747603349778291 0  0 2.694759099502208 0  0 2.640857964382145 0  0 2.58587880633613 0  0 2.52980006535898 0  0 2.472599749459174 0  0 2.414255427218689 0  0 2.35474421880616 0  0 2.294042786119219 0  0 2.232127324764723 0  0 2.1689735539481 0  0 2.104556707683347 0  0 2.038851524813415 0  0 1.971832238155655 0  0 1.903472565412126 0  0 1.83374569926617 0  0 1.762624296208475 0  0 1.690080464918761 0  0 1.616085756774206 0  0 1.540611154706337 0  0 1.463627060685571 0  0 1.385103284916206 0  0 1.305009033716617 0  0 1.223312897337225 0  0 1.139982838163732 0  0 1.054986177579938 0  0 0.9682895835804817 0  0 0.8798590579197976 0  0 0.7896599218415354 0  0 0.6976568029903638 0  0 0.6038136217958798 0  0 0.508093576867624 0  0 0.4104591310957497 0  0 0.3108719963522191 0  0 0.2092931188294389 0  0 0.1056826638508546 0  1.434832105763824 2.866945754981483 0  1.737156300467626 2.870039440267515 0  2.032203389830508 2.867707527316512 0  2.332911392405064 2.893422591869991 0  2.469810913293406 2.891944186606167 0  2.606221408823969 2.892519154985628 0  2.255455320628894 2.892068685006691 0  2.538247299216212 2.894964578182811 0  2.674683544303798 2.893422591869991 0  2.40126582278481 2.893422591869991 0  3.566125247295424 2.865029336199714 0  3.266101694915253 2.867707527316512 0  2.967796610169491 2.867707527316512 0  1.174288529834642 2.870795313888584 0  3.825423728813556 2.867707527316512 0  2.727766680262011 2.892655387647729 0  0.06601655192030442 1.502119107695954 0  4.933983535508361 1.507650792231964 0  0.9532124728485543 2.868722489783638 0  4.048935912500257 2.870640982995992 0  0.05930163367361763 1.866907161167414 0  4.943402512618553 1.871280731473148 0  4.271733870017743 2.86520865624265 0  0.7249420921613114 2.863922936177041 0  0.05494499779910056 2.196469063120752 0  4.947228695426367 2.208030108792719 0  0.5406152150397161 2.866493807382013 0  4.459322033898304 2.868847558178794 0  2.18135593220339 2.875780645487384 0  2.817027156509632 2.876587550645167 0  4.928427208322876 1.186856073198245 0  0.07189226971603224 1.174626666111662 0  4.610299014423113 2.867003104093161 0  0.3897270066746357 2.869433095314657 0  1.581132500042262 2.868247328632392 0  1.887637879411437 2.869235851794358 0  3.413449426418068 2.867372048034327 0  3.116721298814773 2.865731235547652 0  2.644303797468355 2.893422591869991 0  2.370983221828106 2.892719513369796 0  2.302531645569621 2.893336787387268 0  2.758987341772152 2.894242393897099 0  0.04979653335696277 2.443411216910286 0  4.950470983477169 2.446866954595817 0  2.482937483021586 0.2513241087417575 0  1.707129504814338 0.1999998659920923 0  3.28584657955054 0.229200625631625 0  4.907807122600524 0.834082362900164 0  4.757627118644067 2.867707527316512 0  0.0773489124676745 0.8347594898806663 0  0.2390604736599387 2.861365431805741 0  0.8363213715215729 2.863896768908178 0  4.160865610207075 2.868916854015731 0  1.282549332053297 2.867610952980761 0  1.065094818402487 2.861284686038041 0  3.93818127737282 2.86865134411395 0  3.711492629432973 2.863574306925269 0  4.91369361998929 0.5579891344254361 0  0.08208328472281323 0.5559535993317519 0  2.696596932532885 2.892010483922337 0  0.04706410140274553 2.613055974506516 0  4.955577063972248 2.616518038840186 0  2.234177215189874 2.893422591869991 0  2.279795840559739 2.89403861893984 0  0.9117357887652362 0.2117925286661764 0  4.055948041993057 0.2039101057937727 0  4.872119713780579 2.867632926423075 0  2.780113878992455 2.891535929611743 0  0.1327442468251063 2.85
[...]
<CellData  Scalars="Plastic strain"> 
<DataArray  type="Float64"  Name="Plastic strain"  format="ascii">0.0000000000000000e+00   -8.2762841750214623e-17   0.0000000000000000e+00   0.0000000000000000e+00   -1.1353564875374651e-16   0.0000000000000000e+00   0.0000000000000000e+00   0.0000000000000000e+00   -9.2134109245081886e-17   1.3060373725216807e-16   0.0000000000000000e+00   0.0000000000000000e+00   7.1194300861686036e-17   9.8535563449988203e-17   0.0000000000000000e+00   0.0000000000000000e+00   0.0000000000000000e+00   7.6781222809580329e-17   0.0000000000000000e+00   0.0000000000000000e+00   0.0000000000000000e+00   0.0000000000000000e+00   0.0000000000000000e+00   0.0000000000000000e+00   -7.5354998976709867e-17   -8.3808513616524904e-17   0.0000000000000000e+00   1.1538901693321793e-16   0.0000000000000000e+00   1.0784061653256384e-16   0.0000000000000000e+00   0.0000000000000000e+00   -1.0310271436124184e-16   0.0000000000000000e+00   0.0000000000000000e+00   6.8922426269143029e-17   6.7863609153501439e-17   0.0000000000000000e+00   0.0000000000000000e+00   -1.1861498764764578e-16   0.0000000000000000e+00   7.6473258691743429e-17   8.6276932529558585e-17   -8.6177922600843251e-17   -7.0688479099290018e-17   0.0000000000000000e+00   0.0000000000000000e+00   6.6172302648215011e-17   0.0000000000000000e+00   7.8916665232287790e-17   -1.2311242928006081e-16   1.0509237328303005e-16   0.0000000000000000e+00   0.0000000000000000e+00   7.7474553812535233e-17   -9.4397067151271897e-17   0.0000000000000000e+00   0.0000000000000000e+00   9.2951796657498435e-17   0.0000000000000000e+00   0.0000000000000000e+00   0.0000000000000000e+00   0.0000000000000000e+00   0.0000000000000000e+00   0.0000000000000000e+00   1.0559975792400508e-16   1.0391793513780430e-16   0.0000000000000000e+00   0.0000000000000000e+00   0.0000000000000000e+00   0.0000000000000000e+00   0.0000000000000000e+00   0.0000000000000000e+00   0.0000000000000000e+00   0.0000000000000000e+00   9.6436845124376096e-17   0.0000000000000000e+00   0.0000000000000000e+00   0.0000000000000000e+00   0.0000000000000000e+00   0.0000000000000000e+00   0.0000000000000000e+00   -7.2768128209683529e-17   -8.0115751210991059e-17   -7.1280207392041325e-17   6.8820426551220472e-17   0.0000000000000000e+00   0.0000000000000000e+00   0.0000000000000000e+00   0.0000000000000000e+00   0.0000000000000000e+00   9.0540572478352889e-17   0.0000000000000000e+00   0.0000000000000000e+00   0.0000000000000000e+00   0.0000000000000000e+00   0.0000000000000000e+00   6.8898707493555025e-17   -1.1570752670812364e-16   0.0000000000000000e+00   0.0000000000000000e+00   -8.2299193122085416e-17   -8.5808929526512573e-17   -8.4449804094973935e-17   0.0000000000000000e+00   0.0000000000000000e+00   0.0000000000000000e+00   -8.8344891928954552e-17   -6.7286728236695015e-17   0.0000000000000000e+00   0.0000000000000000e+00   0.0000000000000000e+00   0.0000000000000000e+00   0.0000000000000000e+00   0.0000000000000000e+00   0.0000000000000000e+00   0.0000000000000000e+00   0.0000000000000000e+00   -8.6290442934894074e-17   8.7087821758911918e-17   9.5028718941559892e-17   1.2741710797943710e-16   7.8128177198484069e-17   0.0000000000000000e+00   0.0000000000000000e+00   0.0000000000000000e+00   1.2448324946833041e-16   0.0000000000000000e+00   0.0000000000000000e+00   0.0000000000000000e+00   0.0000000000000000e+00   0.0000000000000000e+00   0.0000000000000000e+00   1.2854094722454142e-16   -8.4945930191790696e-17   1.2429447706784698e-16   0.0000000000000000e+00   0.0000000000000000e+00   0.0000000000000000e+00   1.3486403970594803e-16   0.0000000000000000e+00   -1.0603407254327918e-16   0.0000000000000000e+00   0.0000000000000000e+00   0.0000000000000000e+00   -1.1261764038832664e-16   0.0000000000000000e+00   0.0000000000000000e+00   0.0000000000000000e+00   1.0337674834263410e-16   9.6950774831961483e-17   0.0000000000000000e+00   -6.7276805036019982e-17   0.0000000000000000e+00   0.0000000000000000e+00   0.0000000000000000e+00   -1.0994376693304244e-16   0.0000000000000000e+00   0.0000000000000000e+00   0.0000000000000000e+00   6.7934640874175538e-17   0.0000000000000000e+00   0.0000000000000000e+00   1.0641039107909302e-16   0.0000000000000000e+00   0.0000000000000000e+00   0.0000000000000000e+00   0.0000000000000000e+00   0.0000000000000000e+00   0.0000000000000000e+00   0.0000000000000000e+00   0.0000000000000000e+00   -7.1531958227654919e-17   1.0734322043851191e-16   0.0000000000000000e+00   -6.9605929081819257e-17   8.3523643732519961e-17   6.7303824509229089e-17   0.0000000000000000e+00   9.6204766375630815e-17   -9.5560529921936836e-17   0.0000000000000000e+00   0.0000000000000000e+00   0.0000000000000000e+00   7.7430170488224673e-17   0.0000000000000000e+00   0.0000000000000000e+00   0.0000000000000000e+00   0.0000000000000000e+00   7.0917849783015125e-17   0.0000000000000000e+00   -1.2196406036857521e-16   1.3427000803173301e-16   0.0000000000000000e+00   0.0000000000000000e+00   0.0000000000000000e+00   0.0000000000000000e+00   0.0000000000000000e+00   0.0000000000000000e+00   0.0000000000000000e+00   -9.4148570110196902e-17   0.0000000000000000e+00   0.0000000000000000e+00   9.1070764563090883e-17   0.0000000000000000e+00   -1.0783782322401826e-16   8.7453949073077084e-17   0.0000000000000000e+00   -6.7991987820690024e-17   1.2105818949948690e-16   0.0000000000000000e+00   0.0000000000000000e+00   6.7339567120609678e-17   -7.2134180877922266e-17   9.3448284982441505e-17   0.0000000000000000e+00   0.0000000000000000e+00   0.0000000000000000e+00   0.0000000000000000e+00   -7.1808628483891002e-17   0.0000000000000000e+00   0.0000000000000000e+00   0.0000000000000000e+00   -1.2736042362463914e-16   0.0000000000000000e+00   0.0000000000000000e+00   0.0000000000000000e+00   0.0000000000000000e+00   0.0000000000000000e+00   0.0000000000000000e+00   0.0000000000000000e+00   7.3660444371977028e-17   0.0000000000000000e+00   8.1433490278825524e-17   -6.5803083835738374e-17   0.0000000000000000e+00   0.0000000000000000e+00   0.0000000000000000e+00   7.3633629788972744e-17   -7.0110443436404039e-17   0.0000000000000000e+00   0.0000000000000000e+00   0.0000000000000000e+00   -9.4036426761505754e-17   0.0000000000000000e+00   0.0000000000000000e+00   0.0000000000000000e+00   7.6297885987347653e-17   0.0000000000000000e+00   0.0000000000000000e+00   8.2752516840530838e-17   -8.6499536370763373e-17   0.0000000000000000e+00   0.0000000000000000e+00   0.0000000000000000e+00   9.3873443565319077e-17   0.0000000000000000e+00   0.0000000000000000e+00   0.0000000000000000e+00   8.1284623260953846e-17   0.0000000000000000e+00   0.0000000000000000e+00   -7.9568541335990987e-17   -7.2392850239770472e-17   0.0000000000000000e+00   0.0000000000000000e+00   0.0000000000000000e+00   0.0000000000000000e+00   -9.1973188852352754e-17   -8.2035700028340612e-17   0.0000000000000000e+00   0.0000000000000000e+00   0.0000000000000000e+00   0.0000000000000000e+00   0.0000000000000000e+00   0.0000000000000000e+00   0.0000000000000000e+00   6.7707611630743438e-17   0.0000000000000000e+00   0.0000000000000000e+00   9.6495198127771445e-17   1.2289771624632914e-16   0.0000000000000000e+00   0.0000000000000000e+00   0.0000000000000000e+00   0.0000000000000000e+00   -1.2500363612636683e-16   0.0000000000000000e+00   -6.9611045655596187e-17   -7.7535359047373280e-17   0.0000000000000000e+00   0.0000000000000000e+00   0.0000000000000000e+00   0.0000000000000000e+00   0.0000000000000000e+00   6.6993317636709853e-17   -7.2275025256968318e-17   0.0000000000000000e+00   0.0000000000000000e+00   0.0000000000000000e+00   0.0000000000000000e+00   0.0000000000000000e+00   0.0000000000000000e+00   1.1185167362807709e-16   0.0000000000000000e+00   0.0000000000000000e+00   6.9065574606490285e-17   0.0000000000000000e+00   0.0000000000000000e+00   0.0000000000000000e+00   -1.0708717449628228e-16   -8.6785307714111168e-17   0.0000000000000000e+00   -7.0530347150604392e-17   0.0000000000000000e+00   0.0000000000000000e+00   -8.0355013997243231e-17   -7.3404083489770699e-17   0.0000000000000000e+00   0.0000000000000000e+00   0.0000000000000000e+00   0.0000000000000000e+00   1.2468805032717320e-16   7.6659684964428331e-17   0.0000000000000000e+00   -9.3106408069602185e-17   -9.4450067983799752e-17   0.0000000000000000e+00   0.0000000000000000e+00   -9.9343762424318512e-17   8.0028062181804431e-17   8.8300855946518178e-17   0.0000000000000000e+00   0.0000000000000000e+00   0.0000000000000000e+00   -1.0808788817470374e-16   1.2212369443008771e-16   -7.0212216992004731e-17   -8.3153660968701223e-17   0.0000000000000000e+00   0.0000000000000000e+00   -7.1939911298545879e-17   7.0918643478489385e-17   0.0000000000000000e+00   6.9832179272281048e-17   6.5488472127889587e-17   0.0000000000000000e+00   0.0000000000000000e+00   1.0176425155655199e-16   0.0000000000000000e+00   0.0000000000000000e+00   6.9516956424252656e-17   0.0000000000000000e+00   0.0000000000000000e+00   0.0000000000000000e+00   0.0000000000000000e+00   0.0000000000000000e+00   0.0000000000000000e+00   0.0000000000000000e+00   0.0000000000000000e+00   0.0000000000000000e+00   0.0000000000000000e+00   0.0000000000000000e+00   -7.5319011548734983e-17   0.0000000000000000e+00   1.2547640468155591e-16   0.0000000000000000e+00   0.0000000000000000e+00   0.0000000000000000e+00   0.0000000000000000e+00   0.0000000000000000e+00   0.0000000000000000e+00   0.0000000000000000e+00   0.0000000000000000e+00   0.0000000000000000e+00   0.0000000000000000e+00   -1.0345200693091410e-16   0.0000000000000000e+00   0.0000000000000000e+00   0.0000000000000000e+00   0.0000000000000000e+00   1.1343265900310537e-16   0.0000000000000000e+00   0.0000000000000000e+00   -9.3381093104820372e-17   -1.0292730915469003e-16   0.0000000000000000e+00   0.0000000000000000e+00   -1.1353465400183302e-16   0.0000000000000000e+00   0.0000000000000000e+00   0.0000000000000000e+00   8.9669281076851482e-17   0.0000000000000000e+00   0.0000000000000000e+00   0.0000000000000000e+00   0.0000000000000000e+00   0.0000000000000000e+00   -1.3061002359436204e-16   1.2137797651840648e-16   0.0000000000000000e+00   0.0000000000000000e+00   7.3335460014746982e-17   0.0000000000000000e+00   0.0000000000000000e+00   0.0000000000000000e+00   9.5588000461261917e-17   7.8633513116947299e-17   0.0000000000000000e+00   0.0000000000000000e+00   -9.9178315562755385e-17   0.0000000000000000e+00   -8.2612183421517803e-17   0.0000000000000000e+00   0.0000000000000000e+00   0.0000000000000000e+00   0.0000000000000000e+00   0.0000000000000000e+00   0.0000000000000000e+00   0.0000000000000000e+00   0.0000000000000000e+00   -6.8325264345055316e-17   0.0000000000000000e+00   0.0000000000000000e+00   0.0000000000000000e+00   -9.5324021482515536e-17   0.0000000000000000e+00   0.0000000000000000e+00   -7.4654854323935472e-17   0.0000000000000000e+00   -1.0594408450831016e-16   -8.0828086222616442e-17   0.0000000000000000e+00   0.0000000000000000e+00   -6.7721909689628182e-17   1.1991394350323123e-16   0.0000000000000000e+00   0.0000000000000000e+00   0.0000000000000000e+00   -6.7445387294914416e-17   0.0000000000000000e+00   7.5421491855307619e-17   0.0000000000000000e+00   -7.3078017776814344e-17   1.1756862765779440e-16   0.0000000000000000e+00   -9.3041514860590642e-17   0.0000000000000000e+00   0.0000000000000000e+00   -7.5811320585278625e-17   0.0000000000000000e+00   0.0000000000000000e+00   0.0000000000000000e+00   -7.0230059997567213e-17   0.0000000000000000e+00   0.0000000000000000e+00   -8.1591406910446186e-17   1.2737887002274547e-16   0.0000000000000000e+00   0.0000000000000000e+00   0.0000000000000000e+00   0.0000000000000000e+00   0.0000000000000000e+00   0.0000000000000000e+00   0.0000000000000000e+00   -6.6907027677877452e-17   0.0000000000000000e+00   0.0000000000000000e+00   0.0000000000000000e+00   1.0645764516327505e-16   7.6013178235163658e-17   0.0000000000000000e+00   0.0000000000000000e+00   0.0000000000000000e+00   0.0000000000000000e+00   0.0000000000000000e+00   0.0000000000000000e+00   0.0000000000000000e+00   0.0000000000000000e+00   0.0000000000000000e+00   -7.2605433066986190e-17   0.0000000000000000e+00   0.0000000000000000e+00   0.0000000000000000e+00   0.0000000000000000e+00   0.0000000000000000e+00   7.8893518175214959e-17   7.2801362222904579e-17   0.0000000000000000e+00   -7.9164720746492778e-17   0.0000000000000000e+00   0.0000000000000000e+00   1.0659523949294369e-16   0.0000000000000000e+00   9.3806997851249908e-17   0.0000000000000000e+00   -1.0957064907251120e-16   0.0000000000000000e+00   0.0000000000000000e+00   0.0000000000000000e+00   7.3271874026464452e-17   0.0000000000000000e+00   -1.2070390523599753e-16   0.0000000000000000e+00   0.0000000000000000e+00   0.0000000000000000e+00   0.0000000000000000e+00   -1.0988368799593460e-16   0.0000000000000000e+00   9.1794397963237236e-17   0.0000000000000000e+00   0.0000000000000000e+00   0.0000000000000000e+00   0.0000000000000000e+00   0.0000000000000000e+00   0.0000000000000000e+00   -9.5335918060338077e-17   0.0000000000000000e+00   0.0000000000000000e+00   0.0000000000000000e+00   0.0000000000000000e+00   0.0000000000000000e+00   6.7983050834581819e-17   0.0000000000000000e+00   0.0000000000000000e+00   0.0000000000000000e+00   0.0000000000000000e+00   0.0000000000000000e+00   8.5631633450523872e-17   0.0000000000000000e+00   -1.2499211386254178e-16   7.5609310385706734e-17   0.0000000000000000e+00   0.0000000000000000e+00   0.0000000000000000e+00   -6.9326838774950326e-17   0.0000000000000000e+00   -6.9573541042187222e-17   1.3048295375837071e-16   0.0000000000000000e+00   0.0000000000000000e+00   7.2769545261385418e-17   9.5306123135276994e-17   1.2667932825991197e-16   1.1212843979643064e-16   0.0000000000000000e+00   -7.4110120409427611e-17   8.5817636553564266e-17   0.0000000000000000e+00   8.3985815544666164e-17   0.0000000000000000e+00   -7.2404013741927335e-17   8.3210075255675870e-17   0.0000000000000000e+00   0.0000000000000000e+00   0.0000000000000000e+00   0.0000000000000000e+00   1.1765644386556763e-16   0.0000000000000000e+00   9.1091057315318035e-17   0.0000000000000000e+00   0.0000000000000000e+00   -1.2108734456874029e-16   -9.2024622726239140e-17   -6.7653843241920253e-17   6.9680438450627841e-17   0.0000000000000000e+00   0.0000000000000000e+00   7.5811307734051214e-17   0.0000000000000000e+00   0.0000000000000000e+00   0.0000000000000000e+00   0.0000000000000000e+00   0.0000000000000000e+00   0.0000000000000000e+00   8.0196097045153047e-17   -7.1602460872838645e-17   -1.3357490725326763e-16   1.0785191577331636e-16   0.0000000000000000e+00   -1.0868855768810908e-16   0.0000000000000000e+00   0.0000000000000000e+00   -6.8467547645644521e-17   -6.6262486071832276e-17   0.0000000000000000e+00   0.0000000000000000e+00   -8.4752188687718726e-17   0.0000000000000000e+00   0.0000000000000000e+00   -6.5486476324476443e-17   9.0660590359901032e-17   0.0000000000000000e+00   1.1745657732014498e-16   0.0000000000000000e+00   6.6124157176542260e-17   -8.0307812507211684e-17   0.0000000000000000e+00   0.0000000000000000e+00   0.0000000000000000e+00   0.0000000000000000e+00   0.0000000000000000e+00   0.0000000000000000e+00   0.0000000000000000e+00   0.0000000000000000e+00   0.0000000000000000e+00   0.0000000000000000e+00   0.0000000000000000e+00   0.0000000000000000e+00   0.0000000000000000e+00   0.0000000000000000e+00   0.0000000000000000e+00   -1.1219021024308033e-16   0.0000000000000000e+00   0.0000000000000000e+00   1.1283428675993864e-16   0.0000000000000000e+00   0.0000000000000000e+00   0.0000000000000000e+00   0.0000000000000000e+00   0.0000000000000000e+00   0.0000000000000000e+00   0.0000000000000000e+00   0.0000000000000000e+00   -6.6864850542656066e-17   0.0000000000000000e+00   8.4750585801547245e-17   0.0000000000000000e+00   0.0000000000000000e+00   0.0000000000000000e+00   0.0000000000000000e+00   8.0116515103495526e-17   0.0000000000000000e+00   0.0000000000000000e+00   0.0000000000000000e+00   0.0000000000000000e+00   0.0000000000000000e+00   -1.0947089346855195e-16   0.0000000000000000e+00   -7.9013199927751599e-17   1.3879255147622908e-16   0.0000000000000000e+00   1.0660341487765613e-16   0.0000000000000000e+00   8.5148557606904114e-17   -1.0926773495819578e-16   -8.6978823732836137e-17   -1.0820692443462520e-16   8.7078665415015687e-17   8.9693108114542543e-17   0.0000000000000000e+00   -7.6739073153663764e-17   -8.0270601062916643e-17   0.0000000000000000e+00   0.0000000000000000e+00   0.0000000000000000e+00   0.0000000000000000e+00   -1.2419849195983100e-16   0.0000000000000000e+00   9.4629319775032828e-17   0.0000000000000000e+00   -1.0625526594026270e-16   0.0000000000000000e+00   0.0000000000000000e+00   -1.0926005034284536e-16   0.0000000000000000e+00   0.0000000000000000e+00   6.6570645162621873e-17   0.0000000000000000e+00   0.0000000000000000e+00   0.0000000000000000e+00   0.0000000000000000e+00   -1.2047010266173817e-16   0.0000000000000000e+00   0.0000000000000000e+00   -9.0600340024669870e-17   0.0000000000000000e+00   0.0000000000000000e+00   0.0000000000000000e+00   0.0000000000000000e+00   0.0000000000000000e+00   -1.2769948746959642e-16   0.0000000000000000e+00   0.0000000000000000e+00   -9.4540931745360678e-17   0.0000000000000000e+00   0.0000000000000000e+00   9.5562671827886804e-17   0.0000000000000000e+00   0.0000000000000000e+00   0.0000000000000000e+00   0.0000000000000000e+00   0.0000000000000000e+00   1.0571479606436072e-16   0.0000000000000000e+00   0.0000000000000000e+00   0.0000000000000000e+00   -1.1496119040106710e-16   0.0000000000000000e+00   0.0000000000000000e+00   0.0000000000000000e+00   1.1414835475486041e-16   0.0000000000000000e+00   -7.1521108318079055e-17   0.0000000000000000e+00   -1.1253011420219406e-16   -8.3970826625315747e-17   0.0000000000000000e+00   0.0000000000000000e+00   0.0000000000000000e+00   0.0000000000000000e+00   0.0000000000000000e+00   0.0000000000000000e+00   0.0000000000000000e+00   1.3454990584523153e-16   0.0000000000000000e+00   -7.9779858491600586e-17   0.0000000000000000e+00   6.5947873134776888e-17   0.0000000000000000e+00   1.1172581341543544e-16   0.0000000000000000e+00   0.0000000000000000e+00   0.0000000000000000e+00   0.0000000000000000e+00   0.0000000000000000e+00   0.0000000000000000e+00   -7.5582009436762246e-17   -1.2830280372309723e-16   1.0053861291997991e-16   6.6799498437326722e-17   0.0000000000000000e+00   0.0000000000000000e+00   0.0000000000000000e+00   0.0000000000000000e+00   0.0000000000000000e+00   0.0000000000000000e+00   0.0000000000000000e+00   0.0000000000000000e+00   0.0000000000000000e+00   0.0000000000000000e+00   1.1422272968574080e-16   -8.5548992363786551e-17   0.0000000000000000e+00   6.5973744462700175e-17   0.0000000000000000e+00   -1.1330308950768177e-16   0.0000000000000000e+00   -1.0698624323951952e-16   0.0000000000000000e+00   0.0000000000000000e+00   0.0000000000000000e+00   9.7365412636510413e-17   -9.2323883182430743e-17   0.0000000000000000e+00   0.0000000000000000e+00   0.0000000000000000e+00   1.1798568252025983e-16   0.0000000000000000e+00   8.6821356713042863e-17   0.0000000000000000e+00   0.0000000000000000e+00   0.0000000000000000e+00   7.6353565371554125e-17   0.0000000000000000e+00   0.0000000000000000e+00   9.1063178416947168e-17   0.0000000000000000e+00   0.0000000000000000e+00   1.2991156204059585e-16   6.9194488644526969e-17   0.0000000000000000e+00   -7.4166042924434620e-17   -1.1427986001222116e-16   -1.3013021254833841e-16   0.0000000000000000e+00   0.0000000000000000e+00   -7.2473965041939628e-17   0.0000000000000000e+00   0.0000000000000000e+00   0.0000000000000000e+00   0.0000000000000000e+00   0.0000000000000000e+00   0.0000000000000000e+00   0.0000000000000000e+00   0.0000000000000000e+00   0.0000000000000000e+00   0.0000000000000000e+00   0.0000000000000000e+00   -1.2341221892445850e-16   0.000000000