<?xml version="1.0"?>
<VTKFile type="UnstructuredGrid"  version="0.1"  >
<UnstructuredGrid>
<Piece  NumberOfPoints="3167" NumberOfCells="6038">
<Points>
<DataArray  type="Float64"  NumberOfComponents="3"  format="ascii">2.2 2.9 0  0 2.9 0  2.8 2.9 0  5 2.9 0  5 0 0  0 0 0  2.16271186440678 2.9 0  2.125423728813559 2.9 0  2.088135593220339 2.9 0  2.050847457627119 2.9 0  2.013559322033898 2.9 0  1.976271186440678 2.9 0  1.938983050847457 2.9 0  1.901694915254237 2.9 0  1.864406779661016 2.9 0  1.827118644067796 2.9 0  1.789830508474575 2.9 0  1.752542372881355 2.9 0  1.715254237288134 2.9 0  1.677966101694914 2.9 0  1.640677966101693 2.9 0  1.603389830508473 2.9 0  1.566101694915253 2.9 0  1.528813559322032 2.9 0  1.491525423728812 2.9 0  1.454237288135591 2.9 0  1.416949152542371 2.9 0  1.37966101694915 2.9 0  1.34237288135593 2.9 0  1.305084745762709 2.9 0  1.267796610169489 2.9 0  1.230508474576268 2.9 0  1.193220338983048 2.9 0  1.155932203389827 2.9 0  1.118644067796607 2.9 0  1.081355932203387 2.9 0  1.044067796610166 2.9 0  1.006779661016946 2.9 0  0.9694915254237257 2.9 0  0.9322033898305055 2.9 0  0.8949152542372856 2.9 0  0.8576271186440652 2.9 0  0.820338983050845 2.9 0  0.783050847457625 2.9 0  0.7457627118644048 2.9 0  0.7084745762711844 2.9 0  0.6711864406779642 2.9 0  0.633898305084744 2.9 0  0.5966101694915238 2.9 0  0.5593220338983036 2.9 0  0.5220338983050834 2.9 0  0.4847457627118632 2.9 0  0.447457627118643 2.9 0  0.4101694915254228 2.9 0  0.3728813559322024 2.9 0  0.3355932203389822 2.9 0  0.2983050847457622 2.9 0  0.2610169491525418 2.9 0  0.2237288135593216 2.9 0  0.1864406779661016 2.9 0  0.1491525423728812 2.9 0  0.1118644067796613 2.9 0  0.07457627118644039 2.9 0  0.03728813559321997 2.9 0  2.792405063291139 2.9 0  2.784810126582279 2.9 0  2.777215189873418 2.9 0  2.769620253164557 2.9 0  2.762025316455697 2.9 0  2.754430379746836 2.9 0  2.746835443037975 2.9 0  2.739240506329114 2.9 0  2.731645569620254 2.9 0  2.724050632911393 2.9 0  2.716455696202532 2.9 0  2.708860759493671 2.9 0  2.701265822784811 2.9 0  2.69367088607595 2.9 0  2.686075949367089 2.9 0  2.678481012658228 2.9 0  2.670886075949368 2.9 0  2.663291139240507 2.9 0  2.655696202531646 2.9 0  2.648101265822786 2.9 0  2.640506329113925 2.9 0  2.632911392405064 2.9 0  2.625316455696203 2.9 0  2.617721518987342 2.9 0  2.610126582278482 2.9 0  2.602531645569621 2.9 0  2.59493670886076 2.9 0  2.587341772151899 2.9 0  2.579746835443038 2.9 0  2.572151898734178 2.9 0  2.564556962025317 2.9 0  2.556962025316456 2.9 0  2.549367088607595 2.9 0  2.541772151898734 2.9 0  2.534177215189874 2.9 0  2.526582278481013 2.9 0  2.518987341772152 2.9 0  2.511392405063292 2.9 0  2.503797468354431 2.9 0  2.49620253164557 2.9 0  2.488607594936709 2.9 0  2.481012658227848 2.9 0  2.473417721518988 2.9 0  2.465822784810127 2.9 0  2.458227848101266 2.9 0  2.450632911392406 2.9 0  2.443037974683545 2.9 0  2.435443037974684 2.9 0  2.427848101265823 2.9 0  2.420253164556962 2.9 0  2.412658227848102 2.9 0  2.405063291139241 2.9 0  2.39746835443038 2.9 0  2.389873417721519 2.9 0  2.382278481012658 2.9 0  2.374683544303798 2.9 0  2.367088607594937 2.9 0  2.359493670886076 2.9 0  2.351898734177215 2.9 0  2.344303797468355 2.9 0  2.336708860759494 2.9 0  2.329113924050633 2.9 0  2.321518987341773 2.9 0  2.313924050632912 2.9 0  2.306329113924051 2.9 0  2.29873417721519 2.9 0  2.291139240506329 2.9 0  2.283544303797469 2.9 0  2.275949367088608 2.9 0  2.268354430379747 2.9 0  2.260759493670887 2.9 0  2.253164556962026 2.9 0  2.245569620253165 2.9 0  2.237974683544304 2.9 0  2.230379746835443 2.9 0  2.222784810126583 2.9 0  2.215189873417722 2.9 0  2.207594936708861 2.9 0  4.96271186440678 2.9 0  4.925423728813559 2.9 0  4.888135593220339 2.9 0  4.850847457627118 2.9 0  4.813559322033898 2.9 0  4.776271186440677 2.9 0  4.738983050847457 2.9 0  4.701694915254237 2.9 0  4.664406779661016 2.9 0  4.627118644067796 2.9 0  4.589830508474575 2.9 0  4.552542372881355 2.9 0  4.515254237288135 2.9 0  4.477966101694914 2.9 0  4.440677966101694 2.9 0  4.403389830508473 2.9 0  4.366101694915252 2.9 0  4.328813559322032 2.9 0  4.291525423728811 2.9 0  4.254237288135591 2.9 0  4.21694915254237 2.9 0  4.17966101694915 2.9 0  4.14237288135593 2.9 0  4.105084745762709 2.9 0  4.067796610169489 2.9 0  4.030508474576268 2.9 0  3.993220338983048 2.9 0  3.955932203389827 2.9 0  3.918644067796607 2.9 0  3.881355932203387 2.9 0  3.844067796610166 2.9 0  3.806779661016946 2.9 0  3.769491525423725 2.9 0  3.732203389830505 2.9 0  3.694915254237285 2.9 0  3.657627118644065 2.9 0  3.620338983050845 2.9 0  3.583050847457625 2.9 0  3.545762711864405 2.9 0  3.508474576271184 2.9 0  3.471186440677964 2.9 0  3.433898305084744 2.9 0  3.396610169491524 2.9 0  3.359322033898303 2.9 0  3.322033898305083 2.9 0  3.284745762711863 2.9 0  3.247457627118643 2.9 0  3.210169491525423 2.9 0  3.172881355932202 2.9 0  3.135593220338982 2.9 0  3.098305084745762 2.9 0  3.061016949152542 2.9 0  3.023728813559321 2.9 0  2.986440677966101 2.9 0  2.949152542372881 2.9 0  2.911864406779661 2.9 0  2.87457627118644 2.9 0  2.83728813559322 2.9 0  5 0.1063822625082082 0  5 0.210636880010749 0  5 0.3128064053694972 0  5 0.4129325400644018 0  5 0.5110561521032336 0  5 0.6072172918830103 0  5 0.7014552087832795 0  5 0.7938083674443693 0  5 0.88431446261646 0  5 0.9730104359544682 0  5 1.059932489996267 0  5 1.145116102913299 0  5 1.228596043483191 0  5 1.310406385079062 0  5 1.390580519944147 0  5 1.469151172477827 0  5 1.546150411986101 0  5 1.621609666658609 0  5 1.695559736099044 0  5 1.76803080383987 0  5 1.839052450169751 0  5 1.908653663631169 0  5 1.97686285289587 0  5 2.043707858613779 0  5 2.109215964341413 0  5 2.173413907925942 0  5 2.236327892833935 0  5 2.297983597762904 0  5 2.35840618845912 0  5 2.41762032730194 0  5 2.475650183444628 0  5 2.532519442457069 0  5 2.588251316112828 0  5 2.642868552557322 0  5 2.696393444426347 0  5 2.748847838312051 0  5 2.800253144313381 0  5 2.850630344319807 0  0.2631578947368421 0 0  0.5263157894736842 0 0  0.7894736842105263 0 0  1.052631578947368 0 0  1.31578947368421 0 0  1.578947368421053 0 0  1.842105263157895 0 0  2.105263157894737 0 0  2.368421052631579 0 0  2.631578947368421 0 0  2.894736842105263 0 0  3.157894736842105 0 0  3.421052631578947 0 0  3.684210526315789 0 0  3.947368421052632 0 0  4.210526315789473 0 0  4.473684210526315 0 0  4.736842105263158 0 0  0 2.850203682350569 0  0 2.799411438503675 0  0 2.747603349778291 0  0 2.694759099502208 0  0 2.640857964382145 0  0 2.58587880633613 0  0 2.52980006535898 0  0 2.472599749459174 0  0 2.414255427218689 0  0 2.35474421880616 0  0 2.294042786119219 0  0 2.232127324764723 0  0 2.1689735539481 0  0 2.104556707683347 0  0 2.038851524813415 0  0 1.971832238155655 0  0 1.903472565412126 0  0 1.83374569926617 0  0 1.762624296208475 0  0 1.690080464918761 0  0 1.616085756774206 0  0 1.540611154706337 0  0 1.463627060685571 0  0 1.385103284916206 0  0 1.305009033716617 0  0 1.223312897337225 0  0 1.139982838163732 0  0 1.054986177579938 0  0 0.9682895835804817 0  0 0.8798590579197976 0  0 0.7896599218415354 0  0 0.6976568029903638 0  0 0.6038136217958798 0  0 0.508093576867624 0  0 0.4104591310957497 0  0 0.3108719963522191 0  0 0.2092931188294389 0  0 0.1056826638508546 0  1.434832105763824 2.866945754981483 0  1.737156300467626 2.870039440267515 0  2.032203389830508 2.867707527316512 0  2.332911392405064 2.893422591869991 0  2.469810913293406 2.891944186606167 0  2.606221408823969 2.892519154985628 0  2.255455320628894 2.892068685006691 0  2.538247299216212 2.894964578182811 0  2.674683544303798 2.893422591869991 0  2.40126582278481 2.893422591869991 0  3.566125247295424 2.865029336199714 0  3.266101694915253 2.867707527316512 0  2.967796610169491 2.867707527316512 0  1.174288529834642 2.870795313888584 0  3.825423728813556 2.867707527316512 0  2.727766680262011 2.892655387647729 0  0.06601655192030442 1.502119107695954 0  4.933983535508361 1.507650792231964 0  0.9532124728485543 2.868722489783638 0  4.048935912500257 2.870640982995992 0  0.05930163367361763 1.866907161167414 0  4.943402512618553 1.871280731473148 0  4.271733870017743 2.86520865624265 0  0.7249420921613114 2.863922936177041 0  0.05494499779910056 2.196469063120752 0  4.947228695426367 2.208030108792719 0  0.5406152150397161 2.866493807382013 0  4.459322033898304 2.868847558178794 0  2.18135593220339 2.875780645487384 0  2.817027156509632 2.876587550645167 0  4.928427208322876 1.186856073198245 0  0.07189226971603224 1.174626666111662 0  4.610299014423113 2.867003104093161 0  0.3897270066746357 2.869433095314657 0  1.581132500042262 2.868247328632392 0  1.887637879411437 2.869235851794358 0  3.413449426418068 2.867372048034327 0  3.116721298814773 2.865731235547652 0  2.644303797468355 2.893422591869991 0  2.370983221828106 2.892719513369796 0  2.302531645569621 2.893336787387268 0  2.758987341772152 2.894242393897099 0  0.04979653335696277 2.443411216910286 0  4.950470983477169 2.446866954595817 0  2.482937483021586 0.2513241087417575 0  1.707129504814338 0.1999998659920923 0  3.28584657955054 0.229200625631625 0  4.907807122600524 0.834082362900164 0  4.757627118644067 2.867707527316512 0  0.0773489124676745 0.8347594898806663 0  0.2390604736599387 2.861365431805741 0  0.8363213715215729 2.863896768908178 0  4.160865610207075 2.868916854015731 0  1.282549332053297 2.867610952980761 0  1.065094818402487 2.861284686038041 0  3.93818127737282 2.86865134411395 0  3.711492629432973 2.863574306925269 0  4.91369361998929 0.5579891344254361 0  0.08208328472281323 0.5559535993317519 0  2.696596932532885 2.892010483922337 0  0.04706410140274553 2.613055974506516 0  4.955577063972248 2.616518038840186 0  2.234177215189874 2.893422591869991 0  2.279795840559739 2.89403861893984 0  0.9117357887652362 0.2117925286661764 0  4.055948041993057 0.2039101057937727 0  4.872119713780579 2.867632926423075 0  2.780113878992455 2.891535929611743 0  0.1327442468251063 2.85
[...]
<CellData  Scalars="Plastic strain"> 
<DataArray  type="Float64"  Name="Plastic strain"  format="ascii">6.6753095651801090e-04   0.0000000000000000e+00   0.0000000000000000e+00   -3.1789682122932687e-17   -2.0719189752947683e-17   -1.8786495755116331e-17   0.0000000000000000e+00   2.7336640959623905e-17   1.6813609761530257e-17   0.0000000000000000e+00   0.0000000000000000e+00   -2.4825540276342221e-17   2.5984582729273264e-17   2.3305843827931211e-03   0.0000000000000000e+00   0.0000000000000000e+00   -2.1451730210013809e-17   3.0766013648293014e-06   0.0000000000000000e+00   0.0000000000000000e+00   0.0000000000000000e+00   6.4390463972840818e-05   -1.6699747096163695e-17   2.3805084664011872e-17   0.0000000000000000e+00   -3.0588533479903647e-17   0.0000000000000000e+00   0.0000000000000000e+00   0.0000000000000000e+00   1.9679899851185063e-17   0.0000000000000000e+00   0.0000000000000000e+00   -1.8815277195692613e-17   0.0000000000000000e+00   1.8295987667241601e-03   2.5155391170595621e-17   0.0000000000000000e+00   0.0000000000000000e+00   2.2243922648794181e-17   0.0000000000000000e+00   0.0000000000000000e+00   0.0000000000000000e+00   3.1489460024302709e-17   0.0000000000000000e+00   -2.5799967285731229e-17   -1.6798521929530174e-17   0.0000000000000000e+00   2.4151647698452177e-17   0.0000000000000000e+00   0.0000000000000000e+00   0.0000000000000000e+00   0.0000000000000000e+00   -1.9086091349268889e-17   0.0000000000000000e+00   0.0000000000000000e+00   5.6939805567538903e-04   7.6936640553279333e-06   0.0000000000000000e+00   0.0000000000000000e+00   -2.1334014854601800e-17   -3.0820522359549164e-17   0.0000000000000000e+00   1.6992410035469341e-17   -1.9171563756632090e-17   0.0000000000000000e+00   0.0000000000000000e+00   6.2911744004805095e-04   -1.8701080207913980e-17   -2.0400044035320488e-17   0.0000000000000000e+00   0.0000000000000000e+00   0.0000000000000000e+00   0.0000000000000000e+00   2.1419017190007570e-17   0.0000000000000000e+00   0.0000000000000000e+00   0.0000000000000000e+00   0.0000000000000000e+00   0.0000000000000000e+00   -2.1174856062580486e-17   0.0000000000000000e+00   0.0000000000000000e+00   0.0000000000000000e+00   0.0000000000000000e+00   0.0000000000000000e+00   2.5118163189189186e-17   -1.5925864824867082e-17   2.0848398714161240e-17   -2.5507769636753060e-17   -2.3826121308327521e-17   0.0000000000000000e+00   1.6522804265542220e-17   0.0000000000000000e+00   0.0000000000000000e+00   0.0000000000000000e+00   -3.0107225628985940e-17   2.0426965785358872e-17   2.5146734262963332e-17   0.0000000000000000e+00   0.0000000000000000e+00   3.1576049189655715e-17   0.0000000000000000e+00   0.0000000000000000e+00   0.0000000000000000e+00   0.0000000000000000e+00   -2.1411999016400072e-17   0.0000000000000000e+00   1.6122113183585102e-17   0.0000000000000000e+00   2.7578040157740918e-04   0.0000000000000000e+00   1.9885148095022619e-03   0.0000000000000000e+00   0.0000000000000000e+00   -2.3626330323397950e-17   0.0000000000000000e+00   0.0000000000000000e+00   2.7412896000199318e-03   -3.1494391068514105e-17   0.0000000000000000e+00   1.7341848849608491e-17   0.0000000000000000e+00   0.0000000000000000e+00   0.0000000000000000e+00   2.7390326318207656e-17   2.0785190437458561e-17   0.0000000000000000e+00   2.3206403356376311e-03   2.2447043041356880e-17   -1.7761492403119962e-17   0.0000000000000000e+00   0.0000000000000000e+00   1.1795576355374076e-03   0.0000000000000000e+00   -3.1003669168293381e-17   1.7636886698935781e-03   1.4593377121889397e-05   0.0000000000000000e+00   0.0000000000000000e+00   2.4611420819704446e-17   0.0000000000000000e+00   0.0000000000000000e+00   0.0000000000000000e+00   4.2455877905693508e-03   0.0000000000000000e+00   0.0000000000000000e+00   0.0000000000000000e+00   0.0000000000000000e+00   2.7291412643920767e-17   -1.8865285824009318e-17   0.0000000000000000e+00   3.0070476659432006e-17   -2.4554770326573150e-17   0.0000000000000000e+00   0.0000000000000000e+00   0.0000000000000000e+00   0.0000000000000000e+00   0.0000000000000000e+00   0.0000000000000000e+00   1.8107074224940586e-17   0.0000000000000000e+00   0.0000000000000000e+00   0.0000000000000000e+00   0.0000000000000000e+00   -2.7840772976270953e-17   0.0000000000000000e+00   0.0000000000000000e+00   -1.6688666474810113e-17   0.0000000000000000e+00   1.6530314250642996e-17   1.6200135621766494e-06   0.0000000000000000e+00   0.0000000000000000e+00   1.9589129734766491e-17   0.0000000000000000e+00   1.7414260121346252e-03   3.0484561322323442e-17   9.0651715697823143e-04   0.0000000000000000e+00   1.6167773444027730e-03   0.0000000000000000e+00   1.0360931928344105e-04   0.0000000000000000e+00   -2.5947168276138834e-17   0.0000000000000000e+00   2.2019764365057127e-17   0.0000000000000000e+00   0.0000000000000000e+00   0.0000000000000000e+00   3.4873849247801575e-04   1.7882674779321554e-17   -2.2257295726537945e-17   0.0000000000000000e+00   2.2137927506722175e-17   3.9981826549673297e-04   0.0000000000000000e+00   0.0000000000000000e+00   0.0000000000000000e+00   0.0000000000000000e+00   0.0000000000000000e+00   0.0000000000000000e+00   0.0000000000000000e+00   0.0000000000000000e+00   0.0000000000000000e+00   4.7118097888967875e-06   -1.9679390098605779e-17   -1.5959524478692993e-17   0.0000000000000000e+00   -2.4815798611279735e-17   2.2091982799414791e-17   -1.8744284492871084e-17   0.0000000000000000e+00   2.4577677308726846e-17   0.0000000000000000e+00   0.0000000000000000e+00   -2.0385321128527218e-17   0.0000000000000000e+00   0.0000000000000000e+00   0.0000000000000000e+00   -2.6208800773819782e-17   -2.7214728864890052e-17   -1.8704985857242225e-17   1.8154834056005405e-17   0.0000000000000000e+00   2.5930841709100976e-17   -1.9072323602611936e-17   0.0000000000000000e+00   0.0000000000000000e+00   0.0000000000000000e+00   0.0000000000000000e+00   0.0000000000000000e+00   0.0000000000000000e+00   1.9597512667488441e-17   2.9721694566458873e-17   -2.4016889766119353e-17   4.6358313880895041e-03   0.0000000000000000e+00   1.8477996590330126e-17   0.0000000000000000e+00   0.0000000000000000e+00   2.3907914824829830e-17   0.0000000000000000e+00   3.5445447305697923e-03   0.0000000000000000e+00   0.0000000000000000e+00   0.0000000000000000e+00   3.0942299449467260e-04   0.0000000000000000e+00   0.0000000000000000e+00   0.0000000000000000e+00   0.0000000000000000e+00   0.0000000000000000e+00   0.0000000000000000e+00   0.0000000000000000e+00   0.0000000000000000e+00   1.7131021941936883e-17   0.0000000000000000e+00   0.0000000000000000e+00   -2.9646348925817303e-17   1.7282134855884910e-03   1.6464688869088196e-17   2.3263680746576375e-17   0.0000000000000000e+00   0.0000000000000000e+00   0.0000000000000000e+00   2.9044479470422555e-03   0.0000000000000000e+00   0.0000000000000000e+00   1.4445576971135582e-03   -2.9941489815056820e-17   0.0000000000000000e+00   -2.2057758193333422e-17   0.0000000000000000e+00   -2.0896768544593317e-17   -2.4720319689307184e-17   0.0000000000000000e+00   1.7734618040132900e-03   0.0000000000000000e+00   0.0000000000000000e+00   2.2563069874735133e-17   1.7609467530272995e-17   0.0000000000000000e+00   0.0000000000000000e+00   1.7298281761811815e-17   0.0000000000000000e+00   2.2984351201044690e-17   -2.2811989759517319e-17   0.0000000000000000e+00   0.0000000000000000e+00   -2.8298949876964431e-17   0.0000000000000000e+00   -2.5715375479434350e-17   0.0000000000000000e+00   0.0000000000000000e+00   1.2859657335019710e-05   0.0000000000000000e+00   2.6379026836692966e-17   1.8275057623492850e-17   8.1585787493070393e-06   0.0000000000000000e+00   0.0000000000000000e+00   2.2937342828486221e-03   2.2321692038392552e-17   2.0411880105704941e-17   2.7259275303597516e-17   0.0000000000000000e+00   0.0000000000000000e+00   0.0000000000000000e+00   0.0000000000000000e+00   0.0000000000000000e+00   0.0000000000000000e+00   3.1675007418976642e-17   0.0000000000000000e+00   0.0000000000000000e+00   0.0000000000000000e+00   2.5744250018788000e-17   0.0000000000000000e+00   0.0000000000000000e+00   0.0000000000000000e+00   0.0000000000000000e+00   0.0000000000000000e+00   0.0000000000000000e+00   0.0000000000000000e+00   0.0000000000000000e+00   0.0000000000000000e+00   0.0000000000000000e+00   0.0000000000000000e+00   0.0000000000000000e+00   1.6841464431997177e-17   0.0000000000000000e+00   0.0000000000000000e+00   1.6114077030305753e-17   -1.6559454194967151e-17   -2.9605540224556693e-17   1.7223729497530359e-17   0.0000000000000000e+00   0.0000000000000000e+00   0.0000000000000000e+00   0.0000000000000000e+00   2.1204148397507630e-17   0.0000000000000000e+00   2.6256716535573798e-17   2.5883972961470041e-17   0.0000000000000000e+00   2.5487433930860515e-17   0.0000000000000000e+00   0.0000000000000000e+00   0.0000000000000000e+00   0.0000000000000000e+00   2.1261834943623592e-17   0.0000000000000000e+00   2.5372383511464402e-17   2.3793447722233721e-17   0.0000000000000000e+00   -2.3701386154161904e-17   0.0000000000000000e+00   0.0000000000000000e+00   0.0000000000000000e+00   -2.1097376574595445e-17   1.9147872375011253e-17   2.5339650135523041e-17   0.0000000000000000e+00   -2.8100975687123449e-17   0.0000000000000000e+00   -1.8346580374481259e-17   2.2898265581355741e-17   -1.9703931977250168e-17   0.0000000000000000e+00   0.0000000000000000e+00   6.1397511457342274e-03   1.6224577052823599e-17   0.0000000000000000e+00   -2.2339621563438501e-17   0.0000000000000000e+00   1.1489222444540203e-04   0.0000000000000000e+00   -1.8879019809662533e-17   1.6860621007608414e-17   -1.6916017175522594e-17   0.0000000000000000e+00   0.0000000000000000e+00   0.0000000000000000e+00   1.5106630967862331e-04   0.0000000000000000e+00   -1.7041172606261274e-17   -1.8783267392621123e-17   0.0000000000000000e+00   3.6737490415494249e-06   1.7468268819050188e-03   0.0000000000000000e+00   0.0000000000000000e+00   0.0000000000000000e+00   1.6363801766538798e-17   0.0000000000000000e+00   0.0000000000000000e+00   0.0000000000000000e+00   0.0000000000000000e+00   2.3740543436187421e-17   -2.3835102826232469e-17   2.2150340927441121e-17   0.0000000000000000e+00   0.0000000000000000e+00   0.0000000000000000e+00   -2.3317963253895714e-17   7.3762366443513351e-04   0.0000000000000000e+00   1.4228822462583715e-04   0.0000000000000000e+00   2.1738018440105157e-17   -2.3112727799488143e-17   0.0000000000000000e+00   0.0000000000000000e+00   0.0000000000000000e+00   0.0000000000000000e+00   1.8183979924504238e-17   0.0000000000000000e+00   0.0000000000000000e+00   0.0000000000000000e+00   0.0000000000000000e+00   2.3915537075149100e-17   0.0000000000000000e+00   0.0000000000000000e+00   0.0000000000000000e+00   4.8058695879947972e-04   1.3599298475860165e-03   0.0000000000000000e+00   4.1180241080287101e-04   0.0000000000000000e+00   0.0000000000000000e+00   -2.4824581370409430e-17   -1.9333800565943982e-17   0.0000000000000000e+00   -2.1750709657239518e-17   1.6628656317149612e-17   -2.4717225165722936e-17   -2.1883168650020247e-17   0.0000000000000000e+00   -1.9395956161487257e-17   -2.2762201114073002e-17   -2.4616299684961560e-17   -2.9280960534491792e-17   2.5989846465460068e-03   0.0000000000000000e+00   0.0000000000000000e+00   0.0000000000000000e+00   0.0000000000000000e+00   1.6979202765463256e-17   1.9436226018819175e-17   0.0000000000000000e+00   0.0000000000000000e+00   0.0000000000000000e+00   0.0000000000000000e+00   -2.6777958502164120e-17   2.3117628468851876e-03   1.3667515065402119e-03   -2.5189442164399269e-17   -2.9779331171201286e-17   0.0000000000000000e+00   1.8593931590238271e-03   0.0000000000000000e+00   0.0000000000000000e+00   1.2825564383522835e-03   0.0000000000000000e+00   0.0000000000000000e+00   2.0162629198224158e-17   2.4419808535562198e-17   1.9718742474298565e-17   0.0000000000000000e+00   0.0000000000000000e+00   0.0000000000000000e+00   2.7743382468266702e-17   1.7199611063556291e-03   1.6235536407738746e-17   0.0000000000000000e+00   3.7055601352253243e-17   0.0000000000000000e+00   4.4253007489183872e-05   0.0000000000000000e+00   5.7065334981165619e-05   0.0000000000000000e+00   0.0000000000000000e+00   0.0000000000000000e+00   3.1144068545155632e-17   0.0000000000000000e+00   1.5576351358463227e-04   -1.6496783539763752e-17   -2.8794652451324733e-17   0.0000000000000000e+00   -1.7435047665732728e-17   3.0579754990621151e-04   1.7453253324879925e-03   0.0000000000000000e+00   1.9452630236036965e-17   -2.4676655845431713e-17   8.2511418803073557e-04   0.0000000000000000e+00   0.0000000000000000e+00   -3.0778950389308461e-17   2.8712259523445579e-17   0.0000000000000000e+00   0.0000000000000000e+00   -2.6202973730401743e-17   1.1306530958695750e-03   0.0000000000000000e+00   0.0000000000000000e+00   0.0000000000000000e+00   0.0000000000000000e+00   -2.0052741208001769e-17   0.0000000000000000e+00   0.0000000000000000e+00   -2.0433190295236397e-17   0.0000000000000000e+00   0.0000000000000000e+00   2.4725032989137969e-17   -1.7203945502297533e-17   2.6544849884008208e-17   0.0000000000000000e+00   0.0000000000000000e+00   0.0000000000000000e+00   0.0000000000000000e+00   -2.0131964821804571e-17   -2.3499585172492203e-17   2.4812536779193918e-17   0.0000000000000000e+00   -2.0823487488559655e-17   0.0000000000000000e+00   1.0002529899592043e-03   0.0000000000000000e+00   1.1787179822630633e-03   0.0000000000000000e+00   0.0000000000000000e+00   9.1749958459556207e-04   0.0000000000000000e+00   0.0000000000000000e+00   0.0000000000000000e+00   0.0000000000000000e+00   8.9168719855925167e-04   -2.5393035834306671e-17   0.0000000000000000e+00   1.8829487718608699e-17   0.0000000000000000e+00   0.0000000000000000e+00   1.7392472510026859e-17   2.3117787838477927e-17   2.0462387332485756e-17   0.0000000000000000e+00   3.7867992644553865e-04   0.0000000000000000e+00   0.0000000000000000e+00   0.0000000000000000e+00   0.0000000000000000e+00   0.0000000000000000e+00   0.0000000000000000e+00   1.1851286676951079e-03   0.0000000000000000e+00   -2.1332164947860480e-17   0.0000000000000000e+00   0.0000000000000000e+00   1.7291967492591501e-03   0.0000000000000000e+00   0.0000000000000000e+00   0.0000000000000000e+00   -2.2097303325775913e-17   0.0000000000000000e+00   2.0553910695550737e-03   0.0000000000000000e+00   1.9763868675818793e-03   -1.7164173573136037e-17   0.0000000000000000e+00   0.0000000000000000e+00   -1.6699831108794060e-17   0.0000000000000000e+00   2.0703263209914412e-17   0.0000000000000000e+00   1.9354158648004765e-17   0.0000000000000000e+00   2.6133553467776355e-17   2.4639215489256005e-04   -1.9681961856518075e-17   0.0000000000000000e+00   -1.9834641149569517e-17   0.0000000000000000e+00   1.7338152686001368e-03   -2.4989369015998757e-17   -2.4184562954356521e-17   0.0000000000000000e+00   -4.6219751375645738e-17   0.0000000000000000e+00   0.0000000000000000e+00   0.0000000000000000e+00   0.0000000000000000e+00   0.0000000000000000e+00   0.0000000000000000e+00   0.0000000000000000e+00   0.0000000000000000e+00   0.0000000000000000e+00   0.0000000000000000e+00   -1.6025384276043270e-17   9.6683765784347600e-04   3.0549697736436457e-17   -1.8494463916225211e-17   1.1951274094180848e-03   0.0000000000000000e+00   2.8840785515603227e-17   1.1236997982697120e-03   0.0000000000000000e+00   0.0000000000000000e+00   1.7337715587862213e-17   1.8428296367937910e-17   0.0000000000000000e+00   0.0000000000000000e+00   -1.9292440204754191e-17   0.0000000000000000e+00   0.0000000000000000e+00   0.0000000000000000e+00   0.0000000000000000e+00   0.0000000000000000e+00   0.0000000000000000e+00   0.0000000000000000e+00   0.0000000000000000e+00   0.0000000000000000e+00   2.4558933605584731e-17   -1.8095609155951963e-17   -2.2136185313522059e-17   0.0000000000000000e+00   -1.9925274680845846e-17   0.0000000000000000e+00   -1.6029849922369515e-17   1.9996270204450275e-03   0.0000000000000000e+00   0.0000000000000000e+00   0.0000000000000000e+00   0.0000000000000000e+00   1.6592970428816080e-17   0.0000000000000000e+00   2.3543493661315658e-17   0.0000000000000000e+00   -1.9977410083058192e-17   0.0000000000000000e+00   -2.8838334043282697e-17   0.0000000000000000e+00   0.0000000000000000e+00   0.0000000000000000e+00   -1.7376064702831605e-17   0.0000000000000000e+00   0.0000000000000000e+00   0.0000000000000000e+00   1.3184384577460419e-03   0.0000000000000000e+00   1.6368149977172124e-17   -2.4757254714196620e-17   0.0000000000000000e+00   2.9816906850866931e-03   -2.3008701983907825e-17   1.8135222581931850e-17   0.0000000000000000e+00   0.0000000000000000e+00   0.0000000000000000e+00   -1.8496899549386771e-17   1.2194278335462582e-03   0.0000000000000000e+00   -1.9390588255158707e-17   2.4183733976525947e-04   0.0000000000000000e+00   0.0000000000000000e+00   0.0000000000000000e+00   0.0000000000000000e+00   6.5532458778508171e-06   4.3155085651436454e-03   0.0000000000000000e+00   0.0000000000000000e+00   0.0000000000000000e+00   -2.1984662473893462e-17   2.2086286383438342e-04   0.0000000000000000e+00   0.0000000000000000e+00   2.1821725110195481e-04   -2.3276945540548096e-17   1.7546533165421925e-17   1.1061664631868226e-04   -2.3763530446022993e-17   -2.3303957314547198e-17   0.0000000000000000e+00   0.0000000000000000e+00   1.7252832266816687e-17   0.0000000000000000e+00   2.1053598580853188e-17   1.7439290237334533e-17   -1.7510029704566698e-17   0.0000000000000000e+00   8.4919463657984846e-04   0.0000000000000000e+00   0.0000000000000000e+00   0.0000000000000000e+00   0.0000000000000000e+00   2.0802831410646821e-03   2.1295717375357385e-17   0.0000000000000000e+00   2.0302813877702095e-17   -2.0100046624489914e-17   -2.7449171359764515e-17   2.0831002844599470e-17   2.0175306194862900e-17   0.0000000000000000e+00   0.0000000000000000e+00   -2.0535689139656183e-17   7.9621203517791074e-04   0.0000000000000000e+00   0.0000000000000000e+00   -3.1842224481435311e-17   -2.1414629461320446e-17   0.0000000000000000e+00   2.8993182254748775e-17   1.1316144047800510e-03   2.9159537716440427e-03   0.0000000000000000e+00   0.0000000000000000e+00   1.2246483082876197e-03   2.4069735141010933e-17   0.0000000000000000e+00   1.2687779181689275e-05   -2.0898753400394825e-17   0.0000000000000000e+00   0.0000000000000000e+00   -2.6647539151622921e-17   -1.7206184961254856e-17   0.0000000000000000e+00   0.0000000000000000e+00   -2.3414056865433041e-17   0.0000000000000000e+00   1.7584825826206594e-03   0.0000000000000000e+00   2.0017421233515465e-17   0.0000000000000000e+00   3.2420145254385452e-17   0.0000000000000000e+00   1.3208997908308859e-05   0.0000000000000000e+00   0.0000000000000000e+00   0.0000000000000000e+00   0.0000000000000000e+00   0.0000000000000000e+00   -3.1223775535087615e-17   -1.9613975058915774e-17   0.0000000000000000e+00   -1.9981608219862305e-17   0.0000000000000000e+00   0.0000000000000000e+00   1.3496595981373511e-03   1.7818858401339236e-03   0.0000000000000000e+00   -2.1238089052113417e-17   0.0000000000000000e+00   0.0000000000000000e+00   2.3473377386789063e-17   2.6508352581308802e-17   0.0000000000000000e+00   0.0000000000000000e+00   0.0000000000000000e+00   0.0000000000000000e+00   0.0000000000000000e+00   1.6562279856897055e-17   0.0000000000000000e+00   -2.7867617380309760e-17   1.7388119367838654e-03   2.7473703126284973e-17   1.6618174941859381e-17   3.4739013930746394e-03   0.0000000000000000e+00   2.3707640151500164e-17   0.0000000000000000e+00   4.1929888668502268e-05   0.0000000000000000e+00   0.0000000000000000e+00   -2.3747541815948482e-17   0.0000000000000000e+00   1.9686489971079265e-17   0.0000000000000000e+00   0.0000000000000000e+00   0.0000000000000000e+00   0.0000000000000000e+00   5.9358933424777715e-05   0.0000000000000000e+00   0.0000000000000000e+00   0.0000000000000000e+00   0.0000000000000000e+00   0.0000000000000000e+00   0.0000000000000000e+00   1.8526197947019455e-17   0.0000000000000000e+00   -1.9961618981