<?xml version="1.0"?>
<VTKFile type="UnstructuredGrid"  version="0.1"  >
<UnstructuredGrid>
<Piece  NumberOfPoints="3167" NumberOfCells="6038">
<Points>
<DataArray  type="Float64"  NumberOfComponents="3"  format="ascii">2.2 2.9 0  0 2.9 0  2.8 2.9 0  5 2.9 0  5 0 0  0 0 0  2.16271186440678 2.9 0  2.125423728813559 2.9 0  2.088135593220339 2.9 0  2.050847457627119 2.9 0  2.013559322033898 2.9 0  1.976271186440678 2.9 0  1.938983050847457 2.9 0  1.901694915254237 2.9 0  1.864406779661016 2.9 0  1.827118644067796 2.9 0  1.789830508474575 2.9 0  1.752542372881355 2.9 0  1.715254237288134 2.9 0  1.677966101694914 2.9 0  1.640677966101693 2.9 0  1.603389830508473 2.9 0  1.566101694915253 2.9 0  1.528813559322032 2.9 0  1.491525423728812 2.9 0  1.454237288135591 2.9 0  1.416949152542371 2.9 0  1.37966101694915 2.9 0  1.34237288135593 2.9 0  1.305084745762709 2.9 0  1.267796610169489 2.9 0  1.230508474576268 2.9 0  1.193220338983048 2.9 0  1.155932203389827 2.9 0  1.118644067796607 2.9 0  1.081355932203387 2.9 0  1.044067796610166 2.9 0  1.006779661016946 2.9 0  0.9694915254237257 2.9 0  0.9322033898305055 2.9 0  0.8949152542372856 2.9 0  0.8576271186440652 2.9 0  0.820338983050845 2.9 0  0.783050847457625 2.9 0  0.7457627118644048 2.9 0  0.7084745762711844 2.9 0  0.6711864406779642 2.9 0  0.633898305084744 2.9 0  0.5966101694915238 2.9 0  0.5593220338983036 2.9 0  0.5220338983050834 2.9 0  0.4847457627118632 2.9 0  0.447457627118643 2.9 0  0.4101694915254228 2.9 0  0.3728813559322024 2.9 0  0.3355932203389822 2.9 0  0.2983050847457622 2.9 0  0.2610169491525418 2.9 0  0.2237288135593216 2.9 0  0.1864406779661016 2.9 0  0.1491525423728812 2.9 0  0.1118644067796613 2.9 0  0.07457627118644039 2.9 0  0.03728813559321997 2.9 0  2.792405063291139 2.9 0  2.784810126582279 2.9 0  2.777215189873418 2.9 0  2.769620253164557 2.9 0  2.762025316455697 2.9 0  2.754430379746836 2.9 0  2.746835443037975 2.9 0  2.739240506329114 2.9 0  2.731645569620254 2.9 0  2.724050632911393 2.9 0  2.716455696202532 2.9 0  2.708860759493671 2.9 0  2.701265822784811 2.9 0  2.69367088607595 2.9 0  2.686075949367089 2.9 0  2.678481012658228 2.9 0  2.670886075949368 2.9 0  2.663291139240507 2.9 0  2.655696202531646 2.9 0  2.648101265822786 2.9 0  2.640506329113925 2.9 0  2.632911392405064 2.9 0  2.625316455696203 2.9 0  2.617721518987342 2.9 0  2.610126582278482 2.9 0  2.602531645569621 2.9 0  2.59493670886076 2.9 0  2.587341772151899 2.9 0  2.579746835443038 2.9 0  2.572151898734178 2.9 0  2.564556962025317 2.9 0  2.556962025316456 2.9 0  2.549367088607595 2.9 0  2.541772151898734 2.9 0  2.534177215189874 2.9 0  2.526582278481013 2.9 0  2.518987341772152 2.9 0  2.511392405063292 2.9 0  2.503797468354431 2.9 0  2.49620253164557 2.9 0  2.488607594936709 2.9 0  2.481012658227848 2.9 0  2.473417721518988 2.9 0  2.465822784810127 2.9 0  2.458227848101266 2.9 0  2.450632911392406 2.9 0  2.443037974683545 2.9 0  2.435443037974684 2.9 0  2.427848101265823 2.9 0  2.420253164556962 2.9 0  2.412658227848102 2.9 0  2.405063291139241 2.9 0  2.39746835443038 2.9 0  2.389873417721519 2.9 0  2.382278481012658 2.9 0  2.374683544303798 2.9 0  2.367088607594937 2.9 0  2.359493670886076 2.9 0  2.351898734177215 2.9 0  2.344303797468355 2.9 0  2.336708860759494 2.9 0  2.329113924050633 2.9 0  2.321518987341773 2.9 0  2.313924050632912 2.9 0  2.306329113924051 2.9 0  2.29873417721519 2.9 0  2.291139240506329 2.9 0  2.283544303797469 2.9 0  2.275949367088608 2.9 0  2.268354430379747 2.9 0  2.260759493670887 2.9 0  2.253164556962026 2.9 0  2.245569620253165 2.9 0  2.237974683544304 2.9 0  2.230379746835443 2.9 0  2.222784810126583 2.9 0  2.215189873417722 2.9 0  2.207594936708861 2.9 0  4.96271186440678 2.9 0  4.925423728813559 2.9 0  4.888135593220339 2.9 0  4.850847457627118 2.9 0  4.813559322033898 2.9 0  4.776271186440677 2.9 0  4.738983050847457 2.9 0  4.701694915254237 2.9 0  4.664406779661016 2.9 0  4.627118644067796 2.9 0  4.589830508474575 2.9 0  4.552542372881355 2.9 0  4.515254237288135 2.9 0  4.477966101694914 2.9 0  4.440677966101694 2.9 0  4.403389830508473 2.9 0  4.366101694915252 2.9 0  4.328813559322032 2.9 0  4.291525423728811 2.9 0  4.254237288135591 2.9 0  4.21694915254237 2.9 0  4.17966101694915 2.9 0  4.14237288135593 2.9 0  4.105084745762709 2.9 0  4.067796610169489 2.9 0  4.030508474576268 2.9 0  3.993220338983048 2.9 0  3.955932203389827 2.9 0  3.918644067796607 2.9 0  3.881355932203387 2.9 0  3.844067796610166 2.9 0  3.806779661016946 2.9 0  3.769491525423725 2.9 0  3.732203389830505 2.9 0  3.694915254237285 2.9 0  3.657627118644065 2.9 0  3.620338983050845 2.9 0  3.583050847457625 2.9 0  3.545762711864405 2.9 0  3.508474576271184 2.9 0  3.471186440677964 2.9 0  3.433898305084744 2.9 0  3.396610169491524 2.9 0  3.359322033898303 2.9 0  3.322033898305083 2.9 0  3.284745762711863 2.9 0  3.247457627118643 2.9 0  3.210169491525423 2.9 0  3.172881355932202 2.9 0  3.135593220338982 2.9 0  3.098305084745762 2.9 0  3.061016949152542 2.9 0  3.023728813559321 2.9 0  2.986440677966101 2.9 0  2.949152542372881 2.9 0  2.911864406779661 2.9 0  2.87457627118644 2.9 0  2.83728813559322 2.9 0  5 0.1063822625082082 0  5 0.210636880010749 0  5 0.3128064053694972 0  5 0.4129325400644018 0  5 0.5110561521032336 0  5 0.6072172918830103 0  5 0.7014552087832795 0  5 0.7938083674443693 0  5 0.88431446261646 0  5 0.9730104359544682 0  5 1.059932489996267 0  5 1.145116102913299 0  5 1.228596043483191 0  5 1.310406385079062 0  5 1.390580519944147 0  5 1.469151172477827 0  5 1.546150411986101 0  5 1.621609666658609 0  5 1.695559736099044 0  5 1.76803080383987 0  5 1.839052450169751 0  5 1.908653663631169 0  5 1.97686285289587 0  5 2.043707858613779 0  5 2.109215964341413 0  5 2.173413907925942 0  5 2.236327892833935 0  5 2.297983597762904 0  5 2.35840618845912 0  5 2.41762032730194 0  5 2.475650183444628 0  5 2.532519442457069 0  5 2.588251316112828 0  5 2.642868552557322 0  5 2.696393444426347 0  5 2.748847838312051 0  5 2.800253144313381 0  5 2.850630344319807 0  0.2631578947368421 0 0  0.5263157894736842 0 0  0.7894736842105263 0 0  1.052631578947368 0 0  1.31578947368421 0 0  1.578947368421053 0 0  1.842105263157895 0 0  2.105263157894737 0 0  2.368421052631579 0 0  2.631578947368421 0 0  2.894736842105263 0 0  3.157894736842105 0 0  3.421052631578947 0 0  3.684210526315789 0 0  3.947368421052632 0 0  4.210526315789473 0 0  4.473684210526315 0 0  4.736842105263158 0 0  0 2.850203682350569 0  0 2.799411438503675 0  0 2.747603349778291 0  0 2.694759099502208 0  0 2.640857964382145 0  0 2.58587880633613 0  0 2.52980006535898 0  0 2.472599749459174 0  0 2.414255427218689 0  0 2.35474421880616 0  0 2.294042786119219 0  0 2.232127324764723 0  0 2.1689735539481 0  0 2.104556707683347 0  0 2.038851524813415 0  0 1.971832238155655 0  0 1.903472565412126 0  0 1.83374569926617 0  0 1.762624296208475 0  0 1.690080464918761 0  0 1.616085756774206 0  0 1.540611154706337 0  0 1.463627060685571 0  0 1.385103284916206 0  0 1.305009033716617 0  0 1.223312897337225 0  0 1.139982838163732 0  0 1.054986177579938 0  0 0.9682895835804817 0  0 0.8798590579197976 0  0 0.7896599218415354 0  0 0.6976568029903638 0  0 0.6038136217958798 0  0 0.508093576867624 0  0 0.4104591310957497 0  0 0.3108719963522191 0  0 0.2092931188294389 0  0 0.1056826638508546 0  1.434832105763824 2.866945754981483 0  1.737156300467626 2.870039440267515 0  2.032203389830508 2.867707527316512 0  2.332911392405064 2.893422591869991 0  2.469810913293406 2.891944186606167 0  2.606221408823969 2.892519154985628 0  2.255455320628894 2.892068685006691 0  2.538247299216212 2.894964578182811 0  2.674683544303798 2.893422591869991 0  2.40126582278481 2.893422591869991 0  3.566125247295424 2.865029336199714 0  3.266101694915253 2.867707527316512 0  2.967796610169491 2.867707527316512 0  1.174288529834642 2.870795313888584 0  3.825423728813556 2.867707527316512 0  2.727766680262011 2.892655387647729 0  0.06601655192030442 1.502119107695954 0  4.933983535508361 1.507650792231964 0  0.9532124728485543 2.868722489783638 0  4.048935912500257 2.870640982995992 0  0.05930163367361763 1.866907161167414 0  4.943402512618553 1.871280731473148 0  4.271733870017743 2.86520865624265 0  0.7249420921613114 2.863922936177041 0  0.05494499779910056 2.196469063120752 0  4.947228695426367 2.208030108792719 0  0.5406152150397161 2.866493807382013 0  4.459322033898304 2.868847558178794 0  2.18135593220339 2.875780645487384 0  2.817027156509632 2.876587550645167 0  4.928427208322876 1.186856073198245 0  0.07189226971603224 1.174626666111662 0  4.610299014423113 2.867003104093161 0  0.3897270066746357 2.869433095314657 0  1.581132500042262 2.868247328632392 0  1.887637879411437 2.869235851794358 0  3.413449426418068 2.867372048034327 0  3.116721298814773 2.865731235547652 0  2.644303797468355 2.893422591869991 0  2.370983221828106 2.892719513369796 0  2.302531645569621 2.893336787387268 0  2.758987341772152 2.894242393897099 0  0.04979653335696277 2.443411216910286 0  4.950470983477169 2.446866954595817 0  2.482937483021586 0.2513241087417575 0  1.707129504814338 0.1999998659920923 0  3.28584657955054 0.229200625631625 0  4.907807122600524 0.834082362900164 0  4.757627118644067 2.867707527316512 0  0.0773489124676745 0.8347594898806663 0  0.2390604736599387 2.861365431805741 0  0.8363213715215729 2.863896768908178 0  4.160865610207075 2.868916854015731 0  1.282549332053297 2.867610952980761 0  1.065094818402487 2.861284686038041 0  3.93818127737282 2.86865134411395 0  3.711492629432973 2.863574306925269 0  4.91369361998929 0.5579891344254361 0  0.08208328472281323 0.5559535993317519 0  2.696596932532885 2.892010483922337 0  0.04706410140274553 2.613055974506516 0  4.955577063972248 2.616518038840186 0  2.234177215189874 2.893422591869991 0  2.279795840559739 2.89403861893984 0  0.9117357887652362 0.2117925286661764 0  4.055948041993057 0.2039101057937727 0  4.872119713780579 2.867632926423075 0  2.780113878992455 2.891535929611743 0  0.1327442468251063 2.85
[...]
<CellData  Scalars="Plastic strain"> 
<DataArray  type="Float64"  Name="Plastic strain"  format="ascii">1.9107537568627645e-17   0.0000000000000000e+00   0.0000000000000000e+00   -2.8318736699493242e-17   -1.8456972201596690e-17   -1.6735298727995194e-17   0.0000000000000000e+00   2.4351899292057313e-17   1.4977821607763828e-17   0.0000000000000000e+00   0.0000000000000000e+00   -2.2114972266465176e-17   2.3147465070928014e-17   1.0346547066085693e-04   0.0000000000000000e+00   0.0000000000000000e+00   -1.9109530482776143e-17   0.0000000000000000e+00   0.0000000000000000e+00   0.0000000000000000e+00   0.0000000000000000e+00   0.0000000000000000e+00   -1.4876390998047475e-17   2.1205934746449941e-17   0.0000000000000000e+00   -2.7248735054703130e-17   0.0000000000000000e+00   0.0000000000000000e+00   0.0000000000000000e+00   1.7531156807512379e-17   0.0000000000000000e+00   0.0000000000000000e+00   -1.6760937676958564e-17   0.0000000000000000e+00   2.1972432861582484e-07   2.2408808505164648e-17   0.0000000000000000e+00   0.0000000000000000e+00   1.9815227664723343e-17   0.0000000000000000e+00   0.0000000000000000e+00   0.0000000000000000e+00   2.8051294246637184e-17   0.0000000000000000e+00   -2.2983006800596470e-17   -1.4964381135470829e-17   0.0000000000000000e+00   2.1514658416102884e-17   0.0000000000000000e+00   0.0000000000000000e+00   0.0000000000000000e+00   0.0000000000000000e+00   -1.7002183081048042e-17   0.0000000000000000e+00   0.0000000000000000e+00   0.0000000000000000e+00   0.0000000000000000e+00   0.0000000000000000e+00   0.0000000000000000e+00   -1.9004667837641507e-17   -2.7455394308938092e-17   0.0000000000000000e+00   1.5137099635769823e-17   -1.7078323213240306e-17   0.0000000000000000e+00   0.0000000000000000e+00   1.6893464397652360e-17   -1.6659209247706822e-17   -1.8172672298524192e-17   0.0000000000000000e+00   0.0000000000000000e+00   0.0000000000000000e+00   0.0000000000000000e+00   1.9080389222520081e-17   0.0000000000000000e+00   0.0000000000000000e+00   0.0000000000000000e+00   0.0000000000000000e+00   0.0000000000000000e+00   -1.8862886743158349e-17   0.0000000000000000e+00   0.0000000000000000e+00   0.0000000000000000e+00   0.0000000000000000e+00   0.0000000000000000e+00   2.2375645248003858e-17   -1.4187004794294115e-17   1.8572073527167426e-17   -2.2722712650638476e-17   -2.1224674512047852e-17   0.0000000000000000e+00   1.4718767609054293e-17   0.0000000000000000e+00   0.0000000000000000e+00   0.0000000000000000e+00   -2.6819978634653709e-17   1.8196654606616431e-17   2.2401096798991478e-17   0.0000000000000000e+00   0.0000000000000000e+00   2.8128429203985248e-17   0.0000000000000000e+00   0.0000000000000000e+00   0.0000000000000000e+00   0.0000000000000000e+00   -1.9074137325765227e-17   0.0000000000000000e+00   1.4361825843990433e-17   0.0000000000000000e+00   0.0000000000000000e+00   0.0000000000000000e+00   4.4034070811712265e-07   0.0000000000000000e+00   0.0000000000000000e+00   -2.1046697636554921e-17   0.0000000000000000e+00   0.0000000000000000e+00   1.5216188139542909e-17   -2.8055686896495585e-17   0.0000000000000000e+00   1.5448385094112016e-17   0.0000000000000000e+00   0.0000000000000000e+00   0.0000000000000000e+00   2.4399723033372878e-17   1.8515766624246847e-17   0.0000000000000000e+00   7.0346494023095619e-05   1.9996170427631033e-17   -1.5822210011693002e-17   0.0000000000000000e+00   0.0000000000000000e+00   0.0000000000000000e+00   0.0000000000000000e+00   -2.7618544296853139e-17   1.2024747497831035e-04   0.0000000000000000e+00   0.0000000000000000e+00   0.0000000000000000e+00   2.1924231368480871e-17   0.0000000000000000e+00   0.0000000000000000e+00   0.0000000000000000e+00   0.0000000000000000e+00   0.0000000000000000e+00   0.0000000000000000e+00   0.0000000000000000e+00   0.0000000000000000e+00   2.4311609214326879e-17   -1.6805486130526839e-17   0.0000000000000000e+00   2.6787242088602348e-17   -2.1873766239805540e-17   0.0000000000000000e+00   0.0000000000000000e+00   0.0000000000000000e+00   0.0000000000000000e+00   0.0000000000000000e+00   0.0000000000000000e+00   1.6130059602086034e-17   0.0000000000000000e+00   0.0000000000000000e+00   0.0000000000000000e+00   0.0000000000000000e+00   -2.4800987829212402e-17   0.0000000000000000e+00   0.0000000000000000e+00   -1.4866520210495548e-17   0.0000000000000000e+00   1.4725457619035002e-17   0.0000000000000000e+00   0.0000000000000000e+00   0.0000000000000000e+00   1.7450297394791628e-17   0.0000000000000000e+00   1.4153089420399151e-04   2.7156115061108790e-17   0.0000000000000000e+00   0.0000000000000000e+00   1.4424373014558625e-04   0.0000000000000000e+00   0.0000000000000000e+00   0.0000000000000000e+00   -2.3114135701890216e-17   0.0000000000000000e+00   1.9615544025496864e-17   0.0000000000000000e+00   0.0000000000000000e+00   0.0000000000000000e+00   0.0000000000000000e+00   1.5930161132154075e-17   -1.9827140607609115e-17   0.0000000000000000e+00   1.9720805565497713e-17   0.0000000000000000e+00   0.0000000000000000e+00   0.0000000000000000e+00   0.0000000000000000e+00   0.0000000000000000e+00   0.0000000000000000e+00   0.0000000000000000e+00   0.0000000000000000e+00   0.0000000000000000e+00   0.0000000000000000e+00   1.9729617787621006e-17   -1.7530702712091770e-17   -1.4216989330484381e-17   0.0000000000000000e+00   -2.2106294241725813e-17   1.9679877315132025e-17   -1.6697696287786642e-17   0.0000000000000000e+00   2.1894172131052954e-17   0.0000000000000000e+00   0.0000000000000000e+00   -1.8159556907205790e-17   0.0000000000000000e+00   0.0000000000000000e+00   0.0000000000000000e+00   -2.3347201946000687e-17   -2.4243298127128989e-17   -1.6662688460066958e-17   1.6172604792550871e-17   0.0000000000000000e+00   2.3099591745415167e-17   -1.6989918561037558e-17   0.0000000000000000e+00   0.0000000000000000e+00   0.0000000000000000e+00   0.0000000000000000e+00   0.0000000000000000e+00   0.0000000000000000e+00   1.7457765039910078e-17   2.6476541647553295e-17   -2.1394613981901122e-17   0.0000000000000000e+00   0.0000000000000000e+00   1.6460482937582114e-17   0.0000000000000000e+00   0.0000000000000000e+00   2.1297537431802668e-17   0.0000000000000000e+00   -2.1189750434082750e-17   0.0000000000000000e+00   0.0000000000000000e+00   0.0000000000000000e+00   0.0000000000000000e+00   0.0000000000000000e+00   0.0000000000000000e+00   0.0000000000000000e+00   0.0000000000000000e+00   0.0000000000000000e+00   0.0000000000000000e+00   0.0000000000000000e+00   0.0000000000000000e+00   1.5260577249276297e-17   0.0000000000000000e+00   0.0000000000000000e+00   -2.6409422594568368e-17   1.7547985768980281e-04   1.4666997522017753e-17   2.0723643828074579e-17   0.0000000000000000e+00   0.0000000000000000e+00   0.0000000000000000e+00   -2.3010641834274201e-17   0.0000000000000000e+00   0.0000000000000000e+00   8.1216514213470164e-07   -2.6672338628119972e-17   0.0000000000000000e+00   -1.9649389510802490e-17   0.0000000000000000e+00   -1.8615162114430048e-17   -2.2021240152753291e-17   0.0000000000000000e+00   1.4759396461792285e-04   0.0000000000000000e+00   0.0000000000000000e+00   2.0099528911424876e-17   1.5686783921891952e-17   0.0000000000000000e+00   0.0000000000000000e+00   1.5409574863694909e-17   0.0000000000000000e+00   2.0474812782148690e-17   -2.0321270564869403e-17   0.0000000000000000e+00   0.0000000000000000e+00   -2.5209138843819993e-17   0.0000000000000000e+00   -2.2907651121348339e-17   0.0000000000000000e+00   0.0000000000000000e+00   0.0000000000000000e+00   0.0000000000000000e+00   2.3498841935203959e-17   1.6279701791494902e-17   1.9957777313436083e-17   0.0000000000000000e+00   0.0000000000000000e+00   0.0000000000000000e+00   1.9884505830475356e-17   1.8183216051666413e-17   2.4282980778367166e-17   0.0000000000000000e+00   0.0000000000000000e+00   0.0000000000000000e+00   0.0000000000000000e+00   0.0000000000000000e+00   0.0000000000000000e+00   2.8216582713339320e-17   0.0000000000000000e+00   0.0000000000000000e+00   0.0000000000000000e+00   2.2933373004131352e-17   0.0000000000000000e+00   0.0000000000000000e+00   0.0000000000000000e+00   0.0000000000000000e+00   0.0000000000000000e+00   0.0000000000000000e+00   0.0000000000000000e+00   0.0000000000000000e+00   0.0000000000000000e+00   0.0000000000000000e+00   0.0000000000000000e+00   0.0000000000000000e+00   1.5002634975690993e-17   0.0000000000000000e+00   0.0000000000000000e+00   1.4354667115321340e-17   -1.4751415928638809e-17   -2.6373069577209510e-17   1.5343162562547213e-17   0.0000000000000000e+00   0.0000000000000000e+00   0.0000000000000000e+00   0.0000000000000000e+00   1.8888980804649983e-17   0.0000000000000000e+00   2.3389886041916469e-17   2.3057840345748351e-17   0.0000000000000000e+00   2.2704597291744908e-17   0.0000000000000000e+00   0.0000000000000000e+00   0.0000000000000000e+00   0.0000000000000000e+00   1.8940368865223967e-17   0.0000000000000000e+00   2.2602108612511013e-17   2.1195568380126163e-17   0.0000000000000000e+00   -2.1113558522453269e-17   0.0000000000000000e+00   0.0000000000000000e+00   0.0000000000000000e+00   -1.8793866826212496e-17   1.7057218566909675e-17   2.2572949218875544e-17   0.0000000000000000e+00   -2.5032780397273666e-17   0.0000000000000000e+00   -1.6343415355708342e-17   2.0398126391005899e-17   -1.7552564994223246e-17   0.0000000000000000e+00   0.0000000000000000e+00   0.0000000000000000e+00   1.4453102231182835e-17   0.0000000000000000e+00   -1.9900477726544022e-17   0.0000000000000000e+00   1.6979314900919696e-17   0.0000000000000000e+00   -1.6817720575717079e-17   1.5019699947234296e-17   -1.5069047703756559e-17   0.0000000000000000e+00   0.0000000000000000e+00   0.0000000000000000e+00   0.0000000000000000e+00   0.0000000000000000e+00   -1.5180538082172245e-17   -1.6732422853139985e-17   0.0000000000000000e+00   0.0000000000000000e+00   1.7258704175832781e-04   0.0000000000000000e+00   0.0000000000000000e+00   0.0000000000000000e+00   1.4577125742790046e-17   0.0000000000000000e+00   0.0000000000000000e+00   0.0000000000000000e+00   0.0000000000000000e+00   2.1148440430213787e-17   -2.1232675386033575e-17   1.9731863631178288e-17   0.0000000000000000e+00   0.0000000000000000e+00   0.0000000000000000e+00   -2.0771999518648024e-17   1.9670175084341671e-17   0.0000000000000000e+00   0.0000000000000000e+00   0.0000000000000000e+00   1.9364560431700116e-17   -2.0589172626189851e-17   0.0000000000000000e+00   0.0000000000000000e+00   0.0000000000000000e+00   0.0000000000000000e+00   1.6198568379500400e-17   0.0000000000000000e+00   0.0000000000000000e+00   0.0000000000000000e+00   0.0000000000000000e+00   2.1304327449362910e-17   0.0000000000000000e+00   0.0000000000000000e+00   0.0000000000000000e+00   0.0000000000000000e+00   0.0000000000000000e+00   0.0000000000000000e+00   -1.8400246654530325e-17   0.0000000000000000e+00   0.0000000000000000e+00   -2.2114118058344272e-17   -1.7222846252763095e-17   0.0000000000000000e+00   -1.9375865962690774e-17   1.4813062241098083e-17   -2.2018483503653944e-17   -1.9493862466258565e-17   0.0000000000000000e+00   -1.7278215411151763e-17   -2.0276918075419846e-17   -2.1928577536526035e-17   -2.6083929008096357e-17   0.0000000000000000e+00   0.0000000000000000e+00   0.0000000000000000e+00   0.0000000000000000e+00   0.0000000000000000e+00   1.5125334396961364e-17   1.7314088418069504e-17   0.0000000000000000e+00   0.0000000000000000e+00   0.0000000000000000e+00   0.0000000000000000e+00   -2.3854216385061018e-17   1.7835396662144680e-05   1.3628386388627416e-04   -2.2439141653012826e-17   -2.6527885219585296e-17   0.0000000000000000e+00   3.6090118151053102e-06   0.0000000000000000e+00   0.0000000000000000e+00   1.2400269011835565e-04   0.0000000000000000e+00   0.0000000000000000e+00   1.7961179518121897e-17   2.1753540205164759e-17   1.7565758412285128e-17   0.0000000000000000e+00   0.0000000000000000e+00   0.0000000000000000e+00   2.4714230870066421e-17   2.6403684031658698e-07   1.4462864992730382e-17   0.0000000000000000e+00   3.3009698363068698e-17   0.0000000000000000e+00   0.0000000000000000e+00   0.0000000000000000e+00   1.6679949462452251e-17   0.0000000000000000e+00   0.0000000000000000e+00   0.0000000000000000e+00   2.7743614216418856e-17   0.0000000000000000e+00   -1.7410357773377725e-17   -1.4695587947200468e-17   -2.5650718304422523e-17   0.0000000000000000e+00   -1.5531408029802930e-17   0.0000000000000000e+00   -1.6415485347599549e-17   0.0000000000000000e+00   1.7328701546516506e-17   -2.1982343730536307e-17   0.0000000000000000e+00   0.0000000000000000e+00   0.0000000000000000e+00   -2.7418361359858159e-17   2.5577321419814262e-17   0.0000000000000000e+00   0.0000000000000000e+00   -2.3342011126298434e-17   5.4455493357694744e-05   0.0000000000000000e+00   0.0000000000000000e+00   0.0000000000000000e+00   0.0000000000000000e+00   -1.7863289610021830e-17   0.0000000000000000e+00   0.0000000000000000e+00   -1.8202199495540560e-17   0.0000000000000000e+00   0.0000000000000000e+00   2.2025438832575808e-17   -1.5325538675976229e-17   2.3646559650576780e-17   0.0000000000000000e+00   0.0000000000000000e+00   0.0000000000000000e+00   0.0000000000000000e+00   -1.7933863221012588e-17   -2.0933791111017562e-17   2.2103388551645650e-17   0.0000000000000000e+00   -1.8549882225098248e-17   0.0000000000000000e+00   0.0000000000000000e+00   0.0000000000000000e+00   0.0000000000000000e+00   0.0000000000000000e+00   0.0000000000000000e+00   -2.4582920964281435e-17   0.0000000000000000e+00   0.0000000000000000e+00   0.0000000000000000e+00   0.0000000000000000e+00   0.0000000000000000e+00   -2.2620506018642396e-17   0.0000000000000000e+00   1.6773596628855807e-17   0.0000000000000000e+00   0.0000000000000000e+00   1.5493481427715120e-17   2.0593680186576484e-17   1.8228208664398319e-17   0.0000000000000000e+00   0.0000000000000000e+00   0.0000000000000000e+00   0.0000000000000000e+00   0.0000000000000000e+00   0.0000000000000000e+00   0.0000000000000000e+00   0.0000000000000000e+00   0.0000000000000000e+00   0.0000000000000000e+00   -1.9003019912326510e-17   0.0000000000000000e+00   0.0000000000000000e+00   1.7396704910956228e-04   0.0000000000000000e+00   0.0000000000000000e+00   0.0000000000000000e+00   -1.9684616921666648e-17   0.0000000000000000e+00   1.4719311746279413e-04   0.0000000000000000e+00   1.6766059939087214e-04   -1.5290109231114214e-17   0.0000000000000000e+00   0.0000000000000000e+00   -1.4876465837787916e-17   0.0000000000000000e+00   1.8442784592643946e-17   0.0000000000000000e+00   1.7240981544690722e-17   0.0000000000000000e+00   2.3280170490984879e-17   0.0000000000000000e+00   -1.7532993673507854e-17   0.0000000000000000e+00   -1.7669002730870193e-17   0.0000000000000000e+00   0.0000000000000000e+00   -2.2260913421969725e-17   -2.1543979831200615e-17   0.0000000000000000e+00   -4.1173263842696262e-17   0.0000000000000000e+00   0.0000000000000000e+00   0.0000000000000000e+00   0.0000000000000000e+00   0.0000000000000000e+00   0.0000000000000000e+00   0.0000000000000000e+00   0.0000000000000000e+00   0.0000000000000000e+00   0.0000000000000000e+00   -1.4275658248689732e-17   0.0000000000000000e+00   2.7214139578424889e-17   -1.6475152284207361e-17   4.3519009564268033e-05   0.0000000000000000e+00   2.5691814346068719e-17   -1.5070013666151446e-17   0.0000000000000000e+00   0.0000000000000000e+00   1.5444703121116809e-17   1.6416209216744372e-17   0.0000000000000000e+00   0.0000000000000000e+00   -1.7186001808273202e-17   0.0000000000000000e+00   0.0000000000000000e+00   0.0000000000000000e+00   0.0000000000000000e+00   0.0000000000000000e+00   0.0000000000000000e+00   0.0000000000000000e+00   0.0000000000000000e+00   0.0000000000000000e+00   2.1877474952641345e-17   -1.6119846342680834e-17   -1.9719253593058269e-17   0.0000000000000000e+00   -1.7749740471450125e-17   0.0000000000000000e+00   -1.4279636314969757e-17   0.0000000000000000e+00   0.0000000000000000e+00   0.0000000000000000e+00   0.0000000000000000e+00   0.0000000000000000e+00   1.4781272704112563e-17   0.0000000000000000e+00   2.0972905466708683e-17   0.0000000000000000e+00   -1.7796183487843437e-17   0.0000000000000000e+00   -2.5689630536903761e-17   0.0000000000000000e+00   0.0000000000000000e+00   0.0000000000000000e+00   -1.5478865101261100e-17   0.0000000000000000e+00   0.0000000000000000e+00   0.0000000000000000e+00   0.0000000000000000e+00   0.0000000000000000e+00   1.4580999195552580e-17   -2.2054142439752843e-17   0.0000000000000000e+00   2.1209333299031532e-05   -2.0496504833225549e-17   1.6155134590476177e-17   0.0000000000000000e+00   0.0000000000000000e+00   0.0000000000000000e+00   -1.6477321983606434e-17   0.0000000000000000e+00   0.0000000000000000e+00   -1.7273433597815040e-17   0.0000000000000000e+00   0.0000000000000000e+00   0.0000000000000000e+00   0.0000000000000000e+00   0.0000000000000000e+00   0.0000000000000000e+00   0.0000000000000000e+00   0.0000000000000000e+00   0.0000000000000000e+00   0.0000000000000000e+00   -1.9584274722152656e-17   -1.9279954861863243e-17   0.0000000000000000e+00   0.0000000000000000e+00   0.0000000000000000e+00   -2.0735460310114429e-17   1.5630721023852413e-17   0.0000000000000000e+00   -2.1168917611348374e-17   -2.0759522812932450e-17   0.0000000000000000e+00   0.0000000000000000e+00   1.5369087756056810e-17   0.0000000000000000e+00   1.8754868717542366e-17   1.5535187377694983e-17   -1.5598203180717591e-17   0.0000000000000000e+00   1.6950245177431367e-17   0.0000000000000000e+00   0.0000000000000000e+00   0.0000000000000000e+00   0.0000000000000000e+00   1.2937092792395611e-04   1.8970551855393465e-17   0.0000000000000000e+00   1.8086058181962795e-17   -1.7905430001008039e-17   -2.4452143099464620e-17   1.8556577019593880e-17   1.7972472381276829e-17   0.0000000000000000e+00   0.0000000000000000e+00   -1.8293507039161209e-17   -2.7301508024675028e-17   0.0000000000000000e+00   0.0000000000000000e+00   -2.8365542238795342e-17   -1.9076480566468754e-17   0.0000000000000000e+00   2.5827571700075445e-17   2.9615804397180640e-05   2.1873164060560695e-17   0.0000000000000000e+00   0.0000000000000000e+00   7.5059485417799897e-05   2.1441689452852782e-17   0.0000000000000000e+00   0.0000000000000000e+00   -1.8616930254438878e-17   0.0000000000000000e+00   0.0000000000000000e+00   -2.3738036826101823e-17   -1.5327533620383548e-17   0.0000000000000000e+00   0.0000000000000000e+00   -2.0857601182518261e-17   0.0000000000000000e+00   3.8174378411344371e-05   0.0000000000000000e+00   1.7831826034706965e-17   0.0000000000000000e+00   2.8880362932473692e-17   0.0000000000000000e+00   2.0064997508072777e-17   0.0000000000000000e+00   0.0000000000000000e+00   0.0000000000000000e+00   0.0000000000000000e+00   0.0000000000000000e+00   -2.7814618426283689e-17   -1.7472429990835723e-17   0.0000000000000000e+00   -1.7799923252535780e-17   0.0000000000000000e+00   0.0000000000000000e+00   1.3267330215763480e-04   1.3754568493452062e-05   0.0000000000000000e+00   -1.8919215660647371e-17   0.0000000000000000e+00   0.0000000000000000e+00   2.0910444813312104e-17   2.3614047293221673e-17   0.0000000000000000e+00   0.0000000000000000e+00   0.0000000000000000e+00   0.0000000000000000e+00   0.0000000000000000e+00   1.4753933071650341e-17   0.0000000000000000e+00   -2.4824901236301203e-17   1.5167115579990440e-04   2.4473996373560903e-17   1.4803725271135785e-17   9.9328048593287415e-07   0.0000000000000000e+00   2.1119129679259952e-17   0.0000000000000000e+00   -1.5648358156746951e-17   0.0000000000000000e+00   0.0000000000000000e+00   -2.1154674694306466e-17   0.0000000000000000e+00   1.7537027387450247e-17   0.0000000000000000e+00   0.0000000000000000e+00   0.0000000000000000e+00   0.0000000000000000e+00   0.0000000000000000e+00   0.0000000000000000e+00   0.0000000000000000e+00   0.0000000000000000e+00   0.0000000000000000e+00   0.0000000000000000e+00   0.0000000000000000e+00   1.6503421445849200e-17   0.0000000000000000e+00   -1.