<?xml version="1.0"?>
<VTKFile type="UnstructuredGrid"  version="0.1"  >
<UnstructuredGrid>
<Piece  NumberOfPoints="3167" NumberOfCells="6038">
<Points>
<DataArray  type="Float64"  NumberOfComponents="3"  format="ascii">2.2 2.9 0  0 2.9 0  2.8 2.9 0  5 2.9 0  5 0 0  0 0 0  2.16271186440678 2.9 0  2.125423728813559 2.9 0  2.088135593220339 2.9 0  2.050847457627119 2.9 0  2.013559322033898 2.9 0  1.976271186440678 2.9 0  1.938983050847457 2.9 0  1.901694915254237 2.9 0  1.864406779661016 2.9 0  1.827118644067796 2.9 0  1.789830508474575 2.9 0  1.752542372881355 2.9 0  1.715254237288134 2.9 0  1.677966101694914 2.9 0  1.640677966101693 2.9 0  1.603389830508473 2.9 0  1.566101694915253 2.9 0  1.528813559322032 2.9 0  1.491525423728812 2.9 0  1.454237288135591 2.9 0  1.416949152542371 2.9 0  1.37966101694915 2.9 0  1.34237288135593 2.9 0  1.305084745762709 2.9 0  1.267796610169489 2.9 0  1.230508474576268 2.9 0  1.193220338983048 2.9 0  1.155932203389827 2.9 0  1.118644067796607 2.9 0  1.081355932203387 2.9 0  1.044067796610166 2.9 0  1.006779661016946 2.9 0  0.9694915254237257 2.9 0  0.9322033898305055 2.9 0  0.8949152542372856 2.9 0  0.8576271186440652 2.9 0  0.820338983050845 2.9 0  0.783050847457625 2.9 0  0.7457627118644048 2.9 0  0.7084745762711844 2.9 0  0.6711864406779642 2.9 0  0.633898305084744 2.9 0  0.5966101694915238 2.9 0  0.5593220338983036 2.9 0  0.5220338983050834 2.9 0  0.4847457627118632 2.9 0  0.447457627118643 2.9 0  0.4101694915254228 2.9 0  0.3728813559322024 2.9 0  0.3355932203389822 2.9 0  0.2983050847457622 2.9 0  0.2610169491525418 2.9 0  0.2237288135593216 2.9 0  0.1864406779661016 2.9 0  0.1491525423728812 2.9 0  0.1118644067796613 2.9 0  0.07457627118644039 2.9 0  0.03728813559321997 2.9 0  2.792405063291139 2.9 0  2.784810126582279 2.9 0  2.777215189873418 2.9 0  2.769620253164557 2.9 0  2.762025316455697 2.9 0  2.754430379746836 2.9 0  2.746835443037975 2.9 0  2.739240506329114 2.9 0  2.731645569620254 2.9 0  2.724050632911393 2.9 0  2.716455696202532 2.9 0  2.708860759493671 2.9 0  2.701265822784811 2.9 0  2.69367088607595 2.9 0  2.686075949367089 2.9 0  2.678481012658228 2.9 0  2.670886075949368 2.9 0  2.663291139240507 2.9 0  2.655696202531646 2.9 0  2.648101265822786 2.9 0  2.640506329113925 2.9 0  2.632911392405064 2.9 0  2.625316455696203 2.9 0  2.617721518987342 2.9 0  2.610126582278482 2.9 0  2.602531645569621 2.9 0  2.59493670886076 2.9 0  2.587341772151899 2.9 0  2.579746835443038 2.9 0  2.572151898734178 2.9 0  2.564556962025317 2.9 0  2.556962025316456 2.9 0  2.549367088607595 2.9 0  2.541772151898734 2.9 0  2.534177215189874 2.9 0  2.526582278481013 2.9 0  2.518987341772152 2.9 0  2.511392405063292 2.9 0  2.503797468354431 2.9 0  2.49620253164557 2.9 0  2.488607594936709 2.9 0  2.481012658227848 2.9 0  2.473417721518988 2.9 0  2.465822784810127 2.9 0  2.458227848101266 2.9 0  2.450632911392406 2.9 0  2.443037974683545 2.9 0  2.435443037974684 2.9 0  2.427848101265823 2.9 0  2.420253164556962 2.9 0  2.412658227848102 2.9 0  2.405063291139241 2.9 0  2.39746835443038 2.9 0  2.389873417721519 2.9 0  2.382278481012658 2.9 0  2.374683544303798 2.9 0  2.367088607594937 2.9 0  2.359493670886076 2.9 0  2.351898734177215 2.9 0  2.344303797468355 2.9 0  2.336708860759494 2.9 0  2.329113924050633 2.9 0  2.321518987341773 2.9 0  2.313924050632912 2.9 0  2.306329113924051 2.9 0  2.29873417721519 2.9 0  2.291139240506329 2.9 0  2.283544303797469 2.9 0  2.275949367088608 2.9 0  2.268354430379747 2.9 0  2.260759493670887 2.9 0  2.253164556962026 2.9 0  2.245569620253165 2.9 0  2.237974683544304 2.9 0  2.230379746835443 2.9 0  2.222784810126583 2.9 0  2.215189873417722 2.9 0  2.207594936708861 2.9 0  4.96271186440678 2.9 0  4.925423728813559 2.9 0  4.888135593220339 2.9 0  4.850847457627118 2.9 0  4.813559322033898 2.9 0  4.776271186440677 2.9 0  4.738983050847457 2.9 0  4.701694915254237 2.9 0  4.664406779661016 2.9 0  4.627118644067796 2.9 0  4.589830508474575 2.9 0  4.552542372881355 2.9 0  4.515254237288135 2.9 0  4.477966101694914 2.9 0  4.440677966101694 2.9 0  4.403389830508473 2.9 0  4.366101694915252 2.9 0  4.328813559322032 2.9 0  4.291525423728811 2.9 0  4.254237288135591 2.9 0  4.21694915254237 2.9 0  4.17966101694915 2.9 0  4.14237288135593 2.9 0  4.105084745762709 2.9 0  4.067796610169489 2.9 0  4.030508474576268 2.9 0  3.993220338983048 2.9 0  3.955932203389827 2.9 0  3.918644067796607 2.9 0  3.881355932203387 2.9 0  3.844067796610166 2.9 0  3.806779661016946 2.9 0  3.769491525423725 2.9 0  3.732203389830505 2.9 0  3.694915254237285 2.9 0  3.657627118644065 2.9 0  3.620338983050845 2.9 0  3.583050847457625 2.9 0  3.545762711864405 2.9 0  3.508474576271184 2.9 0  3.471186440677964 2.9 0  3.433898305084744 2.9 0  3.396610169491524 2.9 0  3.359322033898303 2.9 0  3.322033898305083 2.9 0  3.284745762711863 2.9 0  3.247457627118643 2.9 0  3.210169491525423 2.9 0  3.172881355932202 2.9 0  3.135593220338982 2.9 0  3.098305084745762 2.9 0  3.061016949152542 2.9 0  3.023728813559321 2.9 0  2.986440677966101 2.9 0  2.949152542372881 2.9 0  2.911864406779661 2.9 0  2.87457627118644 2.9 0  2.83728813559322 2.9 0  5 0.1063822625082082 0  5 0.210636880010749 0  5 0.3128064053694972 0  5 0.4129325400644018 0  5 0.5110561521032336 0  5 0.6072172918830103 0  5 0.7014552087832795 0  5 0.7938083674443693 0  5 0.88431446261646 0  5 0.9730104359544682 0  5 1.059932489996267 0  5 1.145116102913299 0  5 1.228596043483191 0  5 1.310406385079062 0  5 1.390580519944147 0  5 1.469151172477827 0  5 1.546150411986101 0  5 1.621609666658609 0  5 1.695559736099044 0  5 1.76803080383987 0  5 1.839052450169751 0  5 1.908653663631169 0  5 1.97686285289587 0  5 2.043707858613779 0  5 2.109215964341413 0  5 2.173413907925942 0  5 2.236327892833935 0  5 2.297983597762904 0  5 2.35840618845912 0  5 2.41762032730194 0  5 2.475650183444628 0  5 2.532519442457069 0  5 2.588251316112828 0  5 2.642868552557322 0  5 2.696393444426347 0  5 2.748847838312051 0  5 2.800253144313381 0  5 2.850630344319807 0  0.2631578947368421 0 0  0.5263157894736842 0 0  0.7894736842105263 0 0  1.052631578947368 0 0  1.31578947368421 0 0  1.578947368421053 0 0  1.842105263157895 0 0  2.105263157894737 0 0  2.368421052631579 0 0  2.631578947368421 0 0  2.894736842105263 0 0  3.157894736842105 0 0  3.421052631578947 0 0  3.684210526315789 0 0  3.947368421052632 0 0  4.210526315789473 0 0  4.473684210526315 0 0  4.736842105263158 0 0  0 2.850203682350569 0  0 2.799411438503675 0  0 2.747603349778291 0  0 2.694759099502208 0  0 2.640857964382145 0  0 2.58587880633613 0  0 2.52980006535898 0  0 2.472599749459174 0  0 2.414255427218689 0  0 2.35474421880616 0  0 2.294042786119219 0  0 2.232127324764723 0  0 2.1689735539481 0  0 2.104556707683347 0  0 2.038851524813415 0  0 1.971832238155655 0  0 1.903472565412126 0  0 1.83374569926617 0  0 1.762624296208475 0  0 1.690080464918761 0  0 1.616085756774206 0  0 1.540611154706337 0  0 1.463627060685571 0  0 1.385103284916206 0  0 1.305009033716617 0  0 1.223312897337225 0  0 1.139982838163732 0  0 1.054986177579938 0  0 0.9682895835804817 0  0 0.8798590579197976 0  0 0.7896599218415354 0  0 0.6976568029903638 0  0 0.6038136217958798 0  0 0.508093576867624 0  0 0.4104591310957497 0  0 0.3108719963522191 0  0 0.2092931188294389 0  0 0.1056826638508546 0  1.434832105763824 2.866945754981483 0  1.737156300467626 2.870039440267515 0  2.032203389830508 2.867707527316512 0  2.332911392405064 2.893422591869991 0  2.469810913293406 2.891944186606167 0  2.606221408823969 2.892519154985628 0  2.255455320628894 2.892068685006691 0  2.538247299216212 2.894964578182811 0  2.674683544303798 2.893422591869991 0  2.40126582278481 2.893422591869991 0  3.566125247295424 2.865029336199714 0  3.266101694915253 2.867707527316512 0  2.967796610169491 2.867707527316512 0  1.174288529834642 2.870795313888584 0  3.825423728813556 2.867707527316512 0  2.727766680262011 2.892655387647729 0  0.06601655192030442 1.502119107695954 0  4.933983535508361 1.507650792231964 0  0.9532124728485543 2.868722489783638 0  4.048935912500257 2.870640982995992 0  0.05930163367361763 1.866907161167414 0  4.943402512618553 1.871280731473148 0  4.271733870017743 2.86520865624265 0  0.7249420921613114 2.863922936177041 0  0.05494499779910056 2.196469063120752 0  4.947228695426367 2.208030108792719 0  0.5406152150397161 2.866493807382013 0  4.459322033898304 2.868847558178794 0  2.18135593220339 2.875780645487384 0  2.817027156509632 2.876587550645167 0  4.928427208322876 1.186856073198245 0  0.07189226971603224 1.174626666111662 0  4.610299014423113 2.867003104093161 0  0.3897270066746357 2.869433095314657 0  1.581132500042262 2.868247328632392 0  1.887637879411437 2.869235851794358 0  3.413449426418068 2.867372048034327 0  3.116721298814773 2.865731235547652 0  2.644303797468355 2.893422591869991 0  2.370983221828106 2.892719513369796 0  2.302531645569621 2.893336787387268 0  2.758987341772152 2.894242393897099 0  0.04979653335696277 2.443411216910286 0  4.950470983477169 2.446866954595817 0  2.482937483021586 0.2513241087417575 0  1.707129504814338 0.1999998659920923 0  3.28584657955054 0.229200625631625 0  4.907807122600524 0.834082362900164 0  4.757627118644067 2.867707527316512 0  0.0773489124676745 0.8347594898806663 0  0.2390604736599387 2.861365431805741 0  0.8363213715215729 2.863896768908178 0  4.160865610207075 2.868916854015731 0  1.282549332053297 2.867610952980761 0  1.065094818402487 2.861284686038041 0  3.93818127737282 2.86865134411395 0  3.711492629432973 2.863574306925269 0  4.91369361998929 0.5579891344254361 0  0.08208328472281323 0.5559535993317519 0  2.696596932532885 2.892010483922337 0  0.04706410140274553 2.613055974506516 0  4.955577063972248 2.616518038840186 0  2.234177215189874 2.893422591869991 0  2.279795840559739 2.89403861893984 0  0.9117357887652362 0.2117925286661764 0  4.055948041993057 0.2039101057937727 0  4.872119713780579 2.867632926423075 0  2.780113878992455 2.891535929611743 0  0.1327442468251063 2.85
[...]
<CellData  Scalars="Plastic strain"> 
<DataArray  type="Float64"  Name="Plastic strain"  format="ascii">3.2875614031465844e-01   1.2229114854092238e+00   0.0000000000000000e+00   -5.9359697535174196e-17   1.1817199476526259e-01   -3.5079328615402419e-17   1.3164431535850091e-03   2.0853653989559508e-03   3.1395431576175038e-17   5.0770454533246401e-01   1.9845191640350051e+00   1.0013040287770556e-02   6.6896227753912119e-01   1.9696332422880787e+00   0.0000000000000000e+00   1.0376290666074659e+00   -4.0056022326627354e-17   7.2019173787386148e-01   2.6606368861043775e-03   9.2875001675988399e-03   0.0000000000000000e+00   3.2581495803376619e+00   6.4574342089049197e-01   3.0221954288841402e-01   1.4688356087549242e-01   6.6241158133635081e-01   0.0000000000000000e+00   1.8465697479959575e-02   0.0000000000000000e+00   3.6747549037180988e-17   1.9671436630352299e+00   0.0000000000000000e+00   5.7520245980801565e-01   1.3686528788341563e+00   2.7600668283569245e+00   4.6971731440760752e-17   6.4595063098974070e-01   1.1643150271277722e+00   6.3389739628045595e-04   6.2578056625161804e-01   4.5340028751910630e-04   0.0000000000000000e+00   1.2362974856600890e+00   0.0000000000000000e+00   -4.8175324577832284e-17   -3.1367258625576691e-17   1.7616080978924651e+00   6.5327912988587311e-01   0.0000000000000000e+00   2.4935825209774160e-01   0.0000000000000000e+00   0.0000000000000000e+00   -3.5638752386391865e-17   6.4161458366799562e-01   0.0000000000000000e+00   2.1040480162398780e+00   1.4874452829102855e+00   0.0000000000000000e+00   1.1157435983500457e+00   9.5812362950606023e-01   1.7886720679155593e-01   0.0000000000000000e+00   8.3614006686400610e-01   -3.5798351851056609e-17   0.0000000000000000e+00   0.0000000000000000e+00   1.3292232725403830e+00   -3.4919835323612796e-17   -3.8092247634250514e-17   0.0000000000000000e+00   0.0000000000000000e+00   0.0000000000000000e+00   1.2039086187657959e+00   3.9994938514416738e-17   0.0000000000000000e+00   1.0241311700231899e+00   0.0000000000000000e+00   4.2492962306731458e-01   6.5945165114094817e-01   1.8652586846766223e-03   0.0000000000000000e+00   0.0000000000000000e+00   1.1709302524851191e+00   1.4600289488862341e+00   0.0000000000000000e+00   5.9136990635584358e-04   1.9794794847907810e-03   1.1878168531381740e-02   1.3873849080840914e+00   -4.4489634996331890e-17   1.2950112039594222e+00   3.0852421230344526e-17   6.9146489940600586e-01   9.7799391617174655e-03   0.0000000000000000e+00   -5.6218108757703399e-17   3.8142517622267886e-17   8.2691201498805173e-03   0.0000000000000000e+00   0.0000000000000000e+00   5.8960788661098821e-17   0.0000000000000000e+00   0.0000000000000000e+00   1.6140263955085807e-03   9.5414773141954368e-01   -3.9981833738440076e-17   9.5314095143070876e-03   1.2252505685145267e+00   9.0905760754330222e-03   1.6155770836901637e-01   1.2737975838073314e+00   2.8347585140894260e+00   0.0000000000000000e+00   7.5674192691417841e-01   -4.4116572680395100e-17   5.0414141573749593e-01   0.0000000000000000e+00   4.6544694278404428e+00   1.1935769626659477e-02   0.0000000000000000e+00   8.0803759180958568e-01   0.0000000000000000e+00   0.0000000000000000e+00   6.5631431334019807e-01   5.1144943172163295e-17   3.8811417264486729e-17   4.6133706999658125e-01   1.8879918759901628e+00   4.1914533160203180e-17   6.4916890470005273e-01   0.0000000000000000e+00   6.2555511389345531e-01   2.4762748375019989e+00   0.0000000000000000e+00   2.0034065517763111e-01   2.1310033971937723e+00   2.2446895978350381e+00   0.0000000000000000e+00   4.1392321315128616e-01   4.5955995725878940e-17   9.8704486961752602e-03   0.0000000000000000e+00   0.0000000000000000e+00   2.8436830078331994e+00   1.0712518513829074e-02   3.2171323863743784e-01   1.3136384385506892e-04   4.5511664499095682e-02   2.3346921755958805e-03   -3.5226450396619892e-17   1.1925235698604517e+00   9.5140496606810121e-01   3.1242515956234551e-01   1.2654884740908947e+00   8.7289029430627191e-02   0.0000000000000000e+00   1.2037301417775976e+00   0.0000000000000000e+00   0.0000000000000000e+00   8.4380690715444051e-01   1.4527915684867201e+00   9.1885273212293422e-02   1.2486255461399707e+00   6.4181283322536942e-01   -5.1986045554847399e-17   2.2102611184877841e-03   9.3331777785967385e-01   1.3407918026841572e+00   8.0126467741246377e-01   3.0866444347730597e-17   1.4184010105283127e+00   1.0491380894281592e+00   0.0000000000000000e+00   3.6578057356358178e-17   0.0000000000000000e+00   2.2088382708716514e+00   8.6681535536300447e-01   1.8402419191661101e+00   0.0000000000000000e+00   2.3310744555845062e+00   0.0000000000000000e+00   1.4997649414873298e+00   0.0000000000000000e+00   -4.8450187542289860e-17   0.0000000000000000e+00   4.1116691492887932e-17   2.1714718426954080e+00   0.0000000000000000e+00   0.0000000000000000e+00   1.9891945163855753e+00   3.3391657139429358e-17   3.2424460299951596e-01   0.0000000000000000e+00   2.9467913695973058e-01   1.2880547880205855e+00   8.6289573333721470e-01   1.0199593172843306e+00   8.2215016158258998e-03   0.0000000000000000e+00   0.0000000000000000e+00   1.0829750886726965e-02   0.0000000000000000e+00   0.0000000000000000e+00   1.2440933187437015e+00   1.3374615580454328e+00   -3.6746597195045321e-17   -2.9800629719949802e-17   1.1859090426693586e+00   -4.6337622816200326e-17   3.9055188777680150e-01   7.8486234646308872e-01   1.0286849590576197e+00   1.2662300208275388e-03   0.0000000000000000e+00   4.8440239802125662e-01   -3.8064756094992335e-17   1.1289326104960735e+00   0.0000000000000000e+00   0.0000000000000000e+00   -4.8938724227484011e-17   -5.0817056542892455e-17   6.6850792891553601e-01   8.3028370479084557e-01   0.0000000000000000e+00   1.2176561014729830e+00   4.2736979536766623e-01   0.0000000000000000e+00   0.0000000000000000e+00   6.1198702926560233e-01   0.0000000000000000e+00   0.0000000000000000e+00   1.0081027455684499e+00   1.1136632799384092e+00   5.5498220865351313e-17   -4.4845849881085442e-17   6.4343882562937571e+00   5.5678759657148325e-01   2.0342850905987172e-03   0.0000000000000000e+00   1.4605328627283571e+00   6.1880777883549787e-01   0.0000000000000000e+00   3.1898343509988600e+00   3.4831142512839214e-01   1.2572905076989791e+00   6.7318476217386192e-01   1.7667180981311423e+00   5.6220330631754123e-01   1.2496281352426808e+00   1.6732449866321965e-02   3.2091372818645453e-01   0.0000000000000000e+00   1.8009159255050859e-03   0.0000000000000000e+00   0.0000000000000000e+00   8.2683946831879651e-01   5.0065018402138894e-01   1.2983464150874349e-01   6.8421236279049460e-02   2.2801587161487356e+00   4.6238554124399117e-01   4.3439410539919988e-17   6.7812324668533264e-01   0.0000000000000000e+00   1.8208201259001280e+00   3.8943614997547216e+00   9.3282782701866229e-01   1.8773396115008492e-01   2.4747359360748091e+00   1.0328298678429533e+00   0.0000000000000000e+00   9.5769641727671516e-03   9.2870869744119944e-01   -3.9019762936691140e-17   7.2411633109396223e-01   0.0000000000000000e+00   2.1713411180517754e+00   0.0000000000000000e+00   0.0000000000000000e+00   4.2131185774364707e-17   3.2881507349153830e-17   7.3076920786413521e-02   0.0000000000000000e+00   3.2300441674395781e-17   0.0000000000000000e+00   4.2917828811883875e-17   7.0570366513044569e-01   0.0000000000000000e+00   0.0000000000000000e+00   1.0364726014488814e+00   6.8788326677859446e-02   8.2288684185943106e-01   3.9656974277496593e-01   5.9528129354109638e-01   1.7958654662243034e+00   0.0000000000000000e+00   4.9256581058064469e-17   3.4124339110199906e-17   1.6990759448082093e+00   0.0000000000000000e+00   0.0000000000000000e+00   2.1050142781874581e+00   3.0908851289068212e-01   3.8114348690665887e-17   5.0900236460128441e-17   0.0000000000000000e+00   6.6158932018717670e-02   7.8174546624755847e-01   1.0085696201469654e+00   0.0000000000000000e+00   9.6890386214095445e-02   1.1922290709440913e-02   0.0000000000000000e+00   1.7307698505864334e-05   1.5073456800655813e-01   4.8071285786237986e-17   9.3378691518623169e-01   7.0027728366888931e-01   4.7770704016001486e-01   0.0000000000000000e+00   9.0194977245682784e-01   1.5325327025711768e+00   0.0000000000000000e+00   1.5899529579411883e-01   0.0000000000000000e+00   2.8147435576449514e-01   0.0000000000000000e+00   0.0000000000000000e+00   2.5654771663407505e+00   8.5102228224640109e-01   4.2984162181885743e-01   8.5980268568657237e-01   6.6627596557648805e-01   2.7527698599295752e-01   1.4686738229433072e+00   0.0000000000000000e+00   1.4081779843746469e+00   6.9604731689245025e-02   0.0000000000000000e+00   1.6772941165685118e+00   3.3047153212133945e-01   4.9028195557014343e-17   4.8332185268788849e-17   0.0000000000000000e+00   4.7591742604818587e-17   0.0000000000000000e+00   1.5755062587792681e+00   0.0000000000000000e+00   1.5852511948851269e-01   7.7727272486269117e-01   6.1807856265562788e-01   4.7376913212368607e-17   4.4428624817607263e-17   0.0000000000000000e+00   1.0211735442731560e+00   3.4556949745576848e-01   0.0000000000000000e+00   0.0000000000000000e+00   5.0204040494412472e-01   5.7670745542472990e-01   4.4826164466745888e-01   0.0000000000000000e+00   -5.2471912451984218e-17   0.0000000000000000e+00   -3.4257890897510593e-17   4.2757084318525841e-17   -3.6792423337239579e-17   0.0000000000000000e+00   1.0816312005693576e+00   6.1772010252281691e+00   7.0694811794164758e-01   0.0000000000000000e+00   -4.1713949007981794e-17   0.0000000000000000e+00   1.5628057296478970e+00   1.2188141350953899e-03   -3.5252095360013195e-17   2.0343427261220785e-02   -3.1586653152296409e-17   1.1369065868340886e+00   0.0000000000000000e+00   5.4076317643194227e-01   1.5776708922881773e+00   6.4009557330178413e-01   6.7572649439754162e-01   -3.5073300413531486e-17   0.0000000000000000e+00   2.5907295837975424e+00   2.2400747366174092e+00   2.2781275249187377e-01   0.0000000000000000e+00   0.0000000000000000e+00   3.0555521745421039e-17   0.0000000000000000e+00   0.0000000000000000e+00   9.4111939123411670e-01   9.6180898831312001e-01   4.4329838601190279e-17   -4.4506405852491456e-17   1.6733452271143585e+00   0.0000000000000000e+00   7.8402778899115666e-01   0.0000000000000000e+00   -4.3540770257940023e-17   2.3385553473332106e+00   0.0000000000000000e+00   7.9855540331625424e-02   3.7732531130544748e-05   4.5863166109912236e-02   -4.3157541685536701e-17   7.3902611886118885e-01   1.3732924623203084e+00   5.8048090256934370e-01   8.9347669998123269e-01   7.8003602192941177e-03   0.0000000000000000e+00   1.2420951742193258e+00   0.0000000000000000e+00   0.0000000000000000e+00   4.4656597750249252e-17   0.0000000000000000e+00   0.0000000000000000e+00   1.1671485734415079e+00   1.9269934823274890e+00   4.5605646177259533e+00   0.0000000000000000e+00   1.9049602364972074e+00   0.0000000000000000e+00   0.0000000000000000e+00   -4.6354022537450969e-17   -3.6101290643982711e-17   0.0000000000000000e+00   -4.0614295589251448e-17   3.4504980612211583e-01   5.8041748479826094e-01   -4.0861631366843405e-17   1.4663805588905932e+00   7.0196104705907658e-01   5.9188989981229190e-01   1.2706166548847713e+00   -5.4675254510108946e-17   3.0429516507384338e+00   0.0000000000000000e+00   1.7319838826406763e-02   1.1645277575270496e+00   5.1555182692501400e-01   8.0568506831155129e-03   5.7364173956871178e-01   0.0000000000000000e+00   5.2780317841747319e-05   0.0000000000000000e+00   8.9184470279653794e-01   1.3501126420109753e-02   2.5802306174307703e+00   2.3306804811382431e+00   -4.7035313601951924e-17   -5.5605843565422155e-17   0.0000000000000000e+00   1.7456838527463463e+00   6.6027602197021940e-01   2.5693663393300210e+00   2.3446185464136780e+00   1.3500579297829023e+00   0.0000000000000000e+00   6.2265768284813983e-01   6.0420845813283375e-01   3.6820078430541197e-17   0.0000000000000000e+00   0.0000000000000000e+00   2.0404211450639575e-03   1.9621268951987552e-02   2.5971082326600312e+00   6.8402582726659689e-01   8.3119280468397760e-01   4.2386477277790350e-04   0.0000000000000000e+00   1.5664278290248677e+00   2.8844345713008920e-03   1.7887430840804603e+00   8.1619418110184447e-05   0.0000000000000000e+00   1.4901010237882259e-01   5.8154167182487782e-17   0.0000000000000000e+00   1.6211354697362257e+00   6.1216575717534893e-01   3.9017205500715019e-04   0.0000000000000000e+00   8.6034172134114517e-01   1.8558387336119304e+00   1.4758080224913495e+00   1.1410447187958206e+00   3.6323176891465344e-17   -4.6077806676390969e-17   2.3162074748286177e+00   0.0000000000000000e+00   0.0000000000000000e+00   6.4788964134315596e-01   2.6978585734060872e-05   0.0000000000000000e+00   7.0999470013349808e-01   6.3762886134674812e-01   2.2800112150199481e+00   1.1560410176340552e+00   3.7377632490833990e-01   6.3677931886595174e-01   0.0000000000000000e+00   6.4125538034694485e-01   1.7225387092112512e+00   1.0263052239872934e+00   -3.8154140419319016e-17   7.2753300431492207e-01   6.2416533088787929e-01   1.3128185551304918e+00   6.8275955208351158e-01   2.0650731371333236e-01   6.7114223429404218e-01   1.8193953616376056e-03   0.0000000000000000e+00   0.0000000000000000e+00   -3.7591673235040259e-17   8.2806701475205607e-02   4.6331532117800873e-17   8.0225380314547490e-01   1.0563173325320243e+00   7.1624706451454534e-01   2.4040527817663855e+00   0.0000000000000000e+00   2.6735261048500663e+00   0.0000000000000000e+00   1.3751662311431305e+00   2.1198852694515802e+00   5.2011582229307867e-03   0.0000000000000000e+00   9.6142436346226945e-01   1.6826046648279687e+00   2.8866184486524129e+00   -4.7415476530887333e-17   7.3176331979315146e-01   1.1732829117202810e+00   8.8079800308759233e-03   0.0000000000000000e+00   3.2476320574443769e-17   4.3166990109172649e-17   3.8208658966983098e-17   7.9522171841823919e-01   3.9855384823552487e+00   0.0000000000000000e+00   0.0000000000000000e+00   6.6612996853838935e-01   0.0000000000000000e+00   0.0000000000000000e+00   0.0000000000000000e+00   2.0362004808171577e+00   6.6067865718425500e-01   1.1706198134358934e+00   5.6349021217087281e-01   6.6370848860513798e-01   2.2687962575407727e+00   1.1238031471666907e+00   4.4362439244550751e-02   0.0000000000000000e+00   5.8330420985036331e-02   0.0000000000000000e+00   2.2122245573871591e+00   5.2431355290156789e-01   2.1323697435876006e+00   -3.2050026414312331e-17   0.0000000000000000e+00   5.7357951558727567e-03   6.5113035314830003e-01   0.0000000000000000e+00   1.8664823507029891e-02   0.0000000000000000e+00   4.2579809763978771e-01   4.0980425299793821e-03   4.8798217716289537e-17   1.7413943278585668e+00   -3.6751399343466216e-17   0.0000000000000000e+00   1.6891301317566196e-01   8.3039344695879438e-03   1.4933440234963347e+00   -4.6661724412603040e-17   -4.5158939823288313e-17   0.0000000000000000e+00   -8.6304432085846221e-17   1.2577826095500014e-01   0.0000000000000000e+00   9.5789628454482323e-01   2.2862185264410679e+00   9.3640403739640322e-03   0.0000000000000000e+00   7.8067572754510517e-01   4.7716335668181214e-06   1.1104694869494174e+00   0.0000000000000000e+00   -2.9923607283403317e-17   4.4784978972421441e-01   1.2369250788200306e+00   1.4121547764056581e+00   2.2776080976636024e+00   1.1312162891532305e+00   5.3853331979310307e-17   2.5702290996339148e+00   6.9962164930477577e-01   0.0000000000000000e+00   3.2374074999131577e-17   1.9498022058148285e+00   1.6520134567011284e-02   0.0000000000000000e+00   6.1662234065002108e-01   5.8284149247587769e-01   0.0000000000000000e+00   9.7194189924026550e-02   0.0000000000000000e+00   0.0000000000000000e+00   4.0775404174212970e-01   8.4703187226659338e-01   0.0000000000000000e+00   0.0000000000000000e+00   1.2227338590545997e+00   6.7421659123480038e-01   -4.1334080023572591e-17   1.0626844926017496e+00   1.0421573776563171e+00   0.0000000000000000e+00   -2.9931945819605090e-17   4.0462497280020813e+00   0.0000000000000000e+00   2.1415848298069926e-01   0.0000000000000000e+00   6.1983954956794152e-01   3.0983439911595665e-17   0.0000000000000000e+00   4.6213104385040672e-04   3.9403694414748824e-01   7.5272522310015888e-01   1.3532285602994456e+00   7.0076420604667122e-01   0.0000000000000000e+00   3.8106257238608807e-03   0.0000000000000000e+00   6.7574184622280252e-03   0.0000000000000000e+00   0.0000000000000000e+00   1.4722622829828194e+00   1.5546485189023205e+00   1.6004561894653810e-01   3.0563640998297333e-17   -4.6228305962702200e-17   3.3918152089256873e-02   2.3113742328472360e+00   -4.2963298127994396e-17   8.9466169330993428e-01   2.5127883697707881e-04   0.0000000000000000e+00   4.6924870896857984e-01   8.6709672045925079e-01   2.6289816497457412e+00   0.0000000000000000e+00   1.3198973916668952e+00   2.6697954939688477e+00   0.0000000000000000e+00   2.1000751506139576e-02   0.0000000000000000e+00   0.0000000000000000e+00   1.5127132477693037e+00   3.3396275954033223e+00   1.2540187352488560e-02   6.5451235286960840e-01   1.0679984182390393e-02   -4.1051147029928855e-17   1.6708249220912259e+00   1.1726659294692787e+00   3.4631945578178672e-03   4.6555404673444761e-01   -4.3464179399041763e-17   1.0905306037184129e-01   1.5363912599861063e+00   -4.4372761394372031e-17   4.9857811375465083e-01   0.0000000000000000e+00   9.7524669584519352e-01   3.2215575513557661e-17   0.0000000000000000e+00   9.5718998721772774e-01   1.4064127614292743e+00   -3.2695830775394623e-17   0.0000000000000000e+00   2.3500500167373573e+00   0.0000000000000000e+00   1.3587266286819820e-02   0.0000000000000000e+00   7.7242034083516253e-01   2.0038728127995569e+00   1.8159882224665619e-01   2.8403387716756351e-01   3.7910693357450692e-17   3.8019053423507289e-03   3.0392576086848113e-02   3.8896961077750619e-17   3.7672602977764724e-17   0.0000000000000000e+00   0.0000000000000000e+00   1.1645631720844982e+00   2.6231194196062244e+00   3.8613346902579990e-05   0.0000000000000000e+00   -5.9457807937676457e-17   1.1385976820454801e-03   0.0000000000000000e+00   1.5659094157609701e-02   2.2536319732393384e+00   3.5318515075573158e+00   0.0000000000000000e+00   0.0000000000000000e+00   2.3384093648589874e+00   4.4944526094882319e-17   0.0000000000000000e+00   2.5270077914363238e+00   6.5277179652516182e-01   0.0000000000000000e+00   4.2950027943042912e-01   3.2577602055947380e-01   -3.2128472725355080e-17   0.0000000000000000e+00   7.2636728955479890e-01   -4.3720202304283276e-17   3.7730542124631734e-02   1.9367624383133393e+00   0.0000000000000000e+00   7.8507830680408031e-01   0.0000000000000000e+00   6.0536938019850723e-17   6.8815343841945309e-01   1.7815169839990728e+00   8.3591764065542196e-01   0.0000000000000000e+00   0.0000000000000000e+00   0.0000000000000000e+00   5.9764319611019656e-01   -5.8303001096444683e-17   1.1961220799467838e+00   0.0000000000000000e+00   -3.7310917913889338e-17   1.3551642860095472e-01   1.8209913829059596e-01   2.3349248492902221e+00   1.8703554782788827e+00   5.9958727028679170e-04   7.7931088962226958e-01   1.1909955581857352e+00   9.9876990335492355e-01   8.9868920941310593e-01   4.9498066237256285e-17   7.3921449492709082e-03   8.2325871930276784e-01   1.2472240285502951e-05   0.0000000000000000e+00   2.1377579246760176e-02   3.0926132541888432e-17   1.2779328209046152e+00   1.8354502332271758e-01   2.2626131111384273e+00   5.1300629601797240e-17   3.1030503366492323e-17   2.2640675939170163e+00   7.7591460947105284e-01   4.4268399514778641e-17   3.9063229732842694e-03   2.7723095543774909e+00   4.1547331175879304e-02   0.0000000000000000e+00   7.6799495275826746e-01   6.2895564564451707e-03   3.6759854524292432e-17   0.0000000000000000e+00   4.5332960091134050e-01   0.0000000000000000e+00   0.0000000000000000e+00   3.0375985990966483e+00   0.0000000000000000e+00   0.0000000000000000e+00   1.0470515354679732e+00   4.2647892152025263e-01   1.2185468750683525e-03   1.3443729024651103e+00   9.5253314962352974e-03   7.3249138822298454e-01   6.1916811752888379e-01   -3.8432748496376333e-17   2.6187469010702182e+00   0.0000