<?xml version="1.0"?>
<VTKFile type="UnstructuredGrid"  version="0.1"  >
<UnstructuredGrid>
<Piece  NumberOfPoints="3167" NumberOfCells="6038">
<Points>
<DataArray  type="Float64"  NumberOfComponents="3"  format="ascii">2.2 2.9 0  0 2.9 0  2.8 2.9 0  5 2.9 0  5 0 0  0 0 0  2.16271186440678 2.9 0  2.125423728813559 2.9 0  2.088135593220339 2.9 0  2.050847457627119 2.9 0  2.013559322033898 2.9 0  1.976271186440678 2.9 0  1.938983050847457 2.9 0  1.901694915254237 2.9 0  1.864406779661016 2.9 0  1.827118644067796 2.9 0  1.789830508474575 2.9 0  1.752542372881355 2.9 0  1.715254237288134 2.9 0  1.677966101694914 2.9 0  1.640677966101693 2.9 0  1.603389830508473 2.9 0  1.566101694915253 2.9 0  1.528813559322032 2.9 0  1.491525423728812 2.9 0  1.454237288135591 2.9 0  1.416949152542371 2.9 0  1.37966101694915 2.9 0  1.34237288135593 2.9 0  1.305084745762709 2.9 0  1.267796610169489 2.9 0  1.230508474576268 2.9 0  1.193220338983048 2.9 0  1.155932203389827 2.9 0  1.118644067796607 2.9 0  1.081355932203387 2.9 0  1.044067796610166 2.9 0  1.006779661016946 2.9 0  0.9694915254237257 2.9 0  0.9322033898305055 2.9 0  0.8949152542372856 2.9 0  0.8576271186440652 2.9 0  0.820338983050845 2.9 0  0.783050847457625 2.9 0  0.7457627118644048 2.9 0  0.7084745762711844 2.9 0  0.6711864406779642 2.9 0  0.633898305084744 2.9 0  0.5966101694915238 2.9 0  0.5593220338983036 2.9 0  0.5220338983050834 2.9 0  0.4847457627118632 2.9 0  0.447457627118643 2.9 0  0.4101694915254228 2.9 0  0.3728813559322024 2.9 0  0.3355932203389822 2.9 0  0.2983050847457622 2.9 0  0.2610169491525418 2.9 0  0.2237288135593216 2.9 0  0.1864406779661016 2.9 0  0.1491525423728812 2.9 0  0.1118644067796613 2.9 0  0.07457627118644039 2.9 0  0.03728813559321997 2.9 0  2.792405063291139 2.9 0  2.784810126582279 2.9 0  2.777215189873418 2.9 0  2.769620253164557 2.9 0  2.762025316455697 2.9 0  2.754430379746836 2.9 0  2.746835443037975 2.9 0  2.739240506329114 2.9 0  2.731645569620254 2.9 0  2.724050632911393 2.9 0  2.716455696202532 2.9 0  2.708860759493671 2.9 0  2.701265822784811 2.9 0  2.69367088607595 2.9 0  2.686075949367089 2.9 0  2.678481012658228 2.9 0  2.670886075949368 2.9 0  2.663291139240507 2.9 0  2.655696202531646 2.9 0  2.648101265822786 2.9 0  2.640506329113925 2.9 0  2.632911392405064 2.9 0  2.625316455696203 2.9 0  2.617721518987342 2.9 0  2.610126582278482 2.9 0  2.602531645569621 2.9 0  2.59493670886076 2.9 0  2.587341772151899 2.9 0  2.579746835443038 2.9 0  2.572151898734178 2.9 0  2.564556962025317 2.9 0  2.556962025316456 2.9 0  2.549367088607595 2.9 0  2.541772151898734 2.9 0  2.534177215189874 2.9 0  2.526582278481013 2.9 0  2.518987341772152 2.9 0  2.511392405063292 2.9 0  2.503797468354431 2.9 0  2.49620253164557 2.9 0  2.488607594936709 2.9 0  2.481012658227848 2.9 0  2.473417721518988 2.9 0  2.465822784810127 2.9 0  2.458227848101266 2.9 0  2.450632911392406 2.9 0  2.443037974683545 2.9 0  2.435443037974684 2.9 0  2.427848101265823 2.9 0  2.420253164556962 2.9 0  2.412658227848102 2.9 0  2.405063291139241 2.9 0  2.39746835443038 2.9 0  2.389873417721519 2.9 0  2.382278481012658 2.9 0  2.374683544303798 2.9 0  2.367088607594937 2.9 0  2.359493670886076 2.9 0  2.351898734177215 2.9 0  2.344303797468355 2.9 0  2.336708860759494 2.9 0  2.329113924050633 2.9 0  2.321518987341773 2.9 0  2.313924050632912 2.9 0  2.306329113924051 2.9 0  2.29873417721519 2.9 0  2.291139240506329 2.9 0  2.283544303797469 2.9 0  2.275949367088608 2.9 0  2.268354430379747 2.9 0  2.260759493670887 2.9 0  2.253164556962026 2.9 0  2.245569620253165 2.9 0  2.237974683544304 2.9 0  2.230379746835443 2.9 0  2.222784810126583 2.9 0  2.215189873417722 2.9 0  2.207594936708861 2.9 0  4.96271186440678 2.9 0  4.925423728813559 2.9 0  4.888135593220339 2.9 0  4.850847457627118 2.9 0  4.813559322033898 2.9 0  4.776271186440677 2.9 0  4.738983050847457 2.9 0  4.701694915254237 2.9 0  4.664406779661016 2.9 0  4.627118644067796 2.9 0  4.589830508474575 2.9 0  4.552542372881355 2.9 0  4.515254237288135 2.9 0  4.477966101694914 2.9 0  4.440677966101694 2.9 0  4.403389830508473 2.9 0  4.366101694915252 2.9 0  4.328813559322032 2.9 0  4.291525423728811 2.9 0  4.254237288135591 2.9 0  4.21694915254237 2.9 0  4.17966101694915 2.9 0  4.14237288135593 2.9 0  4.105084745762709 2.9 0  4.067796610169489 2.9 0  4.030508474576268 2.9 0  3.993220338983048 2.9 0  3.955932203389827 2.9 0  3.918644067796607 2.9 0  3.881355932203387 2.9 0  3.844067796610166 2.9 0  3.806779661016946 2.9 0  3.769491525423725 2.9 0  3.732203389830505 2.9 0  3.694915254237285 2.9 0  3.657627118644065 2.9 0  3.620338983050845 2.9 0  3.583050847457625 2.9 0  3.545762711864405 2.9 0  3.508474576271184 2.9 0  3.471186440677964 2.9 0  3.433898305084744 2.9 0  3.396610169491524 2.9 0  3.359322033898303 2.9 0  3.322033898305083 2.9 0  3.284745762711863 2.9 0  3.247457627118643 2.9 0  3.210169491525423 2.9 0  3.172881355932202 2.9 0  3.135593220338982 2.9 0  3.098305084745762 2.9 0  3.061016949152542 2.9 0  3.023728813559321 2.9 0  2.986440677966101 2.9 0  2.949152542372881 2.9 0  2.911864406779661 2.9 0  2.87457627118644 2.9 0  2.83728813559322 2.9 0  5 0.1063822625082082 0  5 0.210636880010749 0  5 0.3128064053694972 0  5 0.4129325400644018 0  5 0.5110561521032336 0  5 0.6072172918830103 0  5 0.7014552087832795 0  5 0.7938083674443693 0  5 0.88431446261646 0  5 0.9730104359544682 0  5 1.059932489996267 0  5 1.145116102913299 0  5 1.228596043483191 0  5 1.310406385079062 0  5 1.390580519944147 0  5 1.469151172477827 0  5 1.546150411986101 0  5 1.621609666658609 0  5 1.695559736099044 0  5 1.76803080383987 0  5 1.839052450169751 0  5 1.908653663631169 0  5 1.97686285289587 0  5 2.043707858613779 0  5 2.109215964341413 0  5 2.173413907925942 0  5 2.236327892833935 0  5 2.297983597762904 0  5 2.35840618845912 0  5 2.41762032730194 0  5 2.475650183444628 0  5 2.532519442457069 0  5 2.588251316112828 0  5 2.642868552557322 0  5 2.696393444426347 0  5 2.748847838312051 0  5 2.800253144313381 0  5 2.850630344319807 0  0.2631578947368421 0 0  0.5263157894736842 0 0  0.7894736842105263 0 0  1.052631578947368 0 0  1.31578947368421 0 0  1.578947368421053 0 0  1.842105263157895 0 0  2.105263157894737 0 0  2.368421052631579 0 0  2.631578947368421 0 0  2.894736842105263 0 0  3.157894736842105 0 0  3.421052631578947 0 0  3.684210526315789 0 0  3.947368421052632 0 0  4.210526315789473 0 0  4.473684210526315 0 0  4.736842105263158 0 0  0 2.850203682350569 0  0 2.799411438503675 0  0 2.747603349778291 0  0 2.694759099502208 0  0 2.640857964382145 0  0 2.58587880633613 0  0 2.52980006535898 0  0 2.472599749459174 0  0 2.414255427218689 0  0 2.35474421880616 0  0 2.294042786119219 0  0 2.232127324764723 0  0 2.1689735539481 0  0 2.104556707683347 0  0 2.038851524813415 0  0 1.971832238155655 0  0 1.903472565412126 0  0 1.83374569926617 0  0 1.762624296208475 0  0 1.690080464918761 0  0 1.616085756774206 0  0 1.540611154706337 0  0 1.463627060685571 0  0 1.385103284916206 0  0 1.305009033716617 0  0 1.223312897337225 0  0 1.139982838163732 0  0 1.054986177579938 0  0 0.9682895835804817 0  0 0.8798590579197976 0  0 0.7896599218415354 0  0 0.6976568029903638 0  0 0.6038136217958798 0  0 0.508093576867624 0  0 0.4104591310957497 0  0 0.3108719963522191 0  0 0.2092931188294389 0  0 0.1056826638508546 0  1.434832105763824 2.866945754981483 0  1.737156300467626 2.870039440267515 0  2.032203389830508 2.867707527316512 0  2.332911392405064 2.893422591869991 0  2.469810913293406 2.891944186606167 0  2.606221408823969 2.892519154985628 0  2.255455320628894 2.892068685006691 0  2.538247299216212 2.894964578182811 0  2.674683544303798 2.893422591869991 0  2.40126582278481 2.893422591869991 0  3.566125247295424 2.865029336199714 0  3.266101694915253 2.867707527316512 0  2.967796610169491 2.867707527316512 0  1.174288529834642 2.870795313888584 0  3.825423728813556 2.867707527316512 0  2.727766680262011 2.892655387647729 0  0.06601655192030442 1.502119107695954 0  4.933983535508361 1.507650792231964 0  0.9532124728485543 2.868722489783638 0  4.048935912500257 2.870640982995992 0  0.05930163367361763 1.866907161167414 0  4.943402512618553 1.871280731473148 0  4.271733870017743 2.86520865624265 0  0.7249420921613114 2.863922936177041 0  0.05494499779910056 2.196469063120752 0  4.947228695426367 2.208030108792719 0  0.5406152150397161 2.866493807382013 0  4.459322033898304 2.868847558178794 0  2.18135593220339 2.875780645487384 0  2.817027156509632 2.876587550645167 0  4.928427208322876 1.186856073198245 0  0.07189226971603224 1.174626666111662 0  4.610299014423113 2.867003104093161 0  0.3897270066746357 2.869433095314657 0  1.581132500042262 2.868247328632392 0  1.887637879411437 2.869235851794358 0  3.413449426418068 2.867372048034327 0  3.116721298814773 2.865731235547652 0  2.644303797468355 2.893422591869991 0  2.370983221828106 2.892719513369796 0  2.302531645569621 2.893336787387268 0  2.758987341772152 2.894242393897099 0  0.04979653335696277 2.443411216910286 0  4.950470983477169 2.446866954595817 0  2.482937483021586 0.2513241087417575 0  1.707129504814338 0.1999998659920923 0  3.28584657955054 0.229200625631625 0  4.907807122600524 0.834082362900164 0  4.757627118644067 2.867707527316512 0  0.0773489124676745 0.8347594898806663 0  0.2390604736599387 2.861365431805741 0  0.8363213715215729 2.863896768908178 0  4.160865610207075 2.868916854015731 0  1.282549332053297 2.867610952980761 0  1.065094818402487 2.861284686038041 0  3.93818127737282 2.86865134411395 0  3.711492629432973 2.863574306925269 0  4.91369361998929 0.5579891344254361 0  0.08208328472281323 0.5559535993317519 0  2.696596932532885 2.892010483922337 0  0.04706410140274553 2.613055974506516 0  4.955577063972248 2.616518038840186 0  2.234177215189874 2.893422591869991 0  2.279795840559739 2.89403861893984 0  0.9117357887652362 0.2117925286661764 0  4.055948041993057 0.2039101057937727 0  4.872119713780579 2.867632926423075 0  2.780113878992455 2.891535929611743 0  0.1327442468251063 2.85
[...]
<CellData  Scalars="Plastic strain"> 
<DataArray  type="Float64"  Name="Plastic strain"  format="ascii">2.4299365227406686e+00   2.8254735037391852e+00   0.0000000000000000e+00   -6.8244798382057536e-17   7.9600179117945613e-01   -4.0330086037205655e-17   3.4221738305146455e-03   4.1585768226590535e-03   3.6094774518757347e-17   8.2267759597117840e-01   4.4747600073937823e+00   2.3417060872615157e-02   1.4108960253926641e+00   5.1431261114504068e+00   0.0000000000000000e+00   2.1118090199206043e+00   -4.6051703111324775e-17   2.0624066804139058e+00   4.6280641172265907e-01   2.1698466563544949e-01   0.0000000000000000e+00   7.0203831450199390e+00   1.3463953076017146e+00   9.4768023977979188e-01   7.9345478786499457e-01   1.3865277761280472e+00   0.0000000000000000e+00   3.3661255967480389e-02   0.0000000000000000e+00   4.2248009663309855e-17   4.5729809318372601e+00   0.0000000000000000e+00   9.9286715760883670e-01   3.2944326016625642e+00   6.3017764458479641e+00   5.4002572030145097e-17   8.8186538369145817e-01   2.7397810376888816e+00   4.1687922862081273e-01   8.7929188137540759e-01   3.7537474875314791e-01   0.0000000000000000e+00   2.5820560003782504e+00   0.0000000000000000e+00   -5.5386321853412028e-17   -3.6062384573841065e-17   4.1311179673717255e+00   9.4282108630680239e-01   0.0000000000000000e+00   8.7576437328843770e-01   0.0000000000000000e+00   8.0523278417490504e-04   -4.0973245690077571e-17   1.0575183830552410e+00   0.0000000000000000e+00   4.8340138377558155e+00   3.5540373034342987e+00   0.0000000000000000e+00   2.6198882172493700e+00   2.1134301131529520e+00   1.0477411636512424e+00   4.7767022325110919e-04   1.8554531947716817e+00   -4.1156734382577671e-17   0.0000000000000000e+00   5.0140927650762036e-02   3.3905998955874486e+00   -4.0146719409789396e-17   1.2468685465508652e-04   0.0000000000000000e+00   0.0000000000000000e+00   6.1182164952621859e-05   2.5489849278392431e+00   4.5981476128677990e-17   0.0000000000000000e+00   2.1091205908132427e+00   0.0000000000000000e+00   5.8196166777026570e-01   1.3871114363431560e+00   4.5581009877884965e-01   0.0000000000000000e+00   0.0000000000000000e+00   2.4215844179495547e+00   3.4038188990786842e+00   0.0000000000000000e+00   2.6015362395587550e-03   2.6002550757046111e-01   1.7377600346732185e-02   3.3092450392118007e+00   -5.1148949480695690e-17   3.0194779060547736e+00   3.5470485091598189e-17   1.4722577177385601e+00   5.1563697707168021e-01   0.0000000000000000e+00   -6.4632969117078818e-17   4.3851780467265653e-17   5.1287112420579806e-01   8.8065570250207771e-04   3.1175059593849235e-03   6.7786179878013506e-17   0.0000000000000000e+00   0.0000000000000000e+00   2.8982563115583571e-01   2.1877131507598988e+00   -4.5966409798634124e-17   1.3632206070541728e-02   2.6211038127528843e+00   5.1881040583947735e-01   1.9580869430300449e+00   3.0474380664400944e+00   6.4860141776359290e+00   0.0000000000000000e+00   1.6375356978744038e+00   -5.0720046309146288e-17   6.5758815381802838e-01   9.6506227642251122e-04   1.0168714402236610e+01   1.8640173441213510e-02   0.0000000000000000e+00   1.7863009110036805e+00   0.0000000000000000e+00   0.0000000000000000e+00   9.8982598247283204e-01   5.8800440028822854e-17   4.4620802600405829e-17   1.0047654435574476e+00   5.0481242883849573e+00   4.8188400271095401e-17   1.3686393813082025e+00   0.0000000000000000e+00   1.8143513747275626e+00   5.5736556841468028e+00   0.0000000000000000e+00   1.2083866581682083e+00   4.9185317461646125e+00   5.0956063279064274e+00   2.1042100536096170e-01   1.3633875309966890e+00   3.5247102924966667e-01   1.9737147416477540e-02   0.0000000000000000e+00   0.0000000000000000e+00   7.1271448846796073e+00   1.6919363782918063e-02   8.9577575654802977e-01   1.8898981919265631e-03   6.3447936444617015e-01   1.8382552178247835e-01   -4.0499229356893992e-17   2.4452311563374023e+00   1.9913623135165406e+00   8.8630734548936119e-01   3.0058130080831802e+00   6.9589781175094079e-01   6.6000358374501033e-05   2.8379038871704294e+00   0.0000000000000000e+00   0.0000000000000000e+00   1.8908668235602546e+00   3.4819408035895756e+00   9.1802390185847116e-01   2.7828010342007921e+00   1.3306809906200709e+00   -5.9767440618590555e-17   4.1786982457820299e-03   2.1138647233814924e+00   3.0839411712796907e+00   1.7650230067317363e+00   6.8132750666667153e-04   3.4814594660724585e+00   2.3705047286583851e+00   0.0000000000000000e+00   4.2053148064186393e-17   0.0000000000000000e+00   4.9805418262869336e+00   1.9442874955009308e+00   4.8914111792398147e+00   0.0000000000000000e+00   5.3353369575135385e+00   6.3071018469490231e-02   3.7688433150879090e+00   0.0000000000000000e+00   -5.5702326960765979e-17   8.3026790233743139e-02   4.7271135763565385e-17   4.9630342796980260e+00   0.0000000000000000e+00   0.0000000000000000e+00   4.6339779513717927e+00   3.8389799876807295e-17   8.9713991620686517e-01   0.0000000000000000e+00   6.5784973203557451e-01   3.1960099888725653e+00   1.9274927646035847e+00   2.3873426826708859e+00   1.3914362284394468e-02   0.0000000000000000e+00   0.0000000000000000e+00   3.8873766113098042e-02   0.0000000000000000e+00   0.0000000000000000e+00   2.6198630054480820e+00   3.0355968114943237e+00   -4.2246915347177244e-17   -3.4261258923888791e-17   2.4922108249793009e+00   -5.3273548517014692e-17   9.5255998135705222e-01   1.7152844731692307e+00   2.4089471954002653e+00   3.1197733757142199e-03   0.0000000000000000e+00   1.4709348114420373e+00   -4.3762379409457763e-17   2.6390606717061327e+00   6.4831409977302685e-04   0.0000000000000000e+00   -5.6263988980077271e-17   -5.8423474548271004e-17   1.4034591952934914e+00   1.8567556944997432e+00   0.0000000000000000e+00   2.8962851844078736e+00   1.4362375746867697e+00   0.0000000000000000e+00   0.0000000000000000e+00   1.0949221422446040e+00   0.0000000000000000e+00   0.0000000000000000e+00   2.0969410210445978e+00   2.5413972440521451e+00   6.3805326691135824e-17   -5.1558483457453037e-17   1.1983438649538323e+01   8.6728982729780568e-01   4.5022771164468945e-03   0.0000000000000000e+00   3.4332513366957054e+00   1.0862459496260206e+00   0.0000000000000000e+00   7.3837960144049619e+00   1.3625664931606818e+00   2.6493006651334121e+00   1.4352648302367494e+00   4.1773258934296784e+00   8.1376824452449126e-01   2.9701464497935404e+00   3.4659089280028234e-02   8.9174597948414258e-01   2.6394927244626915e-01   2.2634652816022119e-01   0.0000000000000000e+00   0.0000000000000000e+00   1.7636879658988198e+00   1.0354467973326538e+00   7.3426422585830997e-01   6.5912787681666862e-01   5.0843034165191421e+00   1.0520904634687804e+00   4.9941524927339976e-17   1.4444631714542491e+00   0.0000000000000000e+00   4.0387516487996766e+00   8.9944892991872631e+00   2.0509553377963132e+00   4.3200983064625365e-01   5.6342211450669568e+00   2.3991138142839414e+00   0.0000000000000000e+00   1.9657044013383226e-01   2.1375493260207801e+00   -4.4860333948842004e-17   1.5505068245164828e+00   0.0000000000000000e+00   4.9877305669311509e+00   6.1669734087951454e-04   3.0926534788626659e-04   4.8437481964337525e-17   3.7803289651390951e-17   6.7268052579703497e-01   2.2636959936530321e-04   3.7135248683070646e-17   0.0000000000000000e+00   4.9341871604502621e-17   1.5105018562036641e+00   0.0000000000000000e+00   0.0000000000000000e+00   2.2311427572236338e+00   8.6371378884440575e-01   1.7625886420882575e+00   1.3308633383062376e+00   1.2064675752166154e+00   4.2628136896819466e+00   0.0000000000000000e+00   5.6629423377792474e-17   1.8028646250397720e-01   4.0662228578717841e+00   0.0000000000000000e+00   0.0000000000000000e+00   5.6927285013363891e+00   4.8212105458081311e-01   4.3819395142918646e-17   1.5678864962944442e-03   0.0000000000000000e+00   6.3381620885531009e-01   1.6724427172388101e+00   2.1584066633520442e+00   0.0000000000000000e+00   9.0751695897677442e-01   4.0339544863340127e-01   0.0000000000000000e+00   5.6454793231001830e-03   7.5412888898688135e-01   5.5266710287802894e-17   2.0094959843771925e+00   1.4928975285270008e+00   7.1349443753013519e-01   0.0000000000000000e+00   2.0466308058859219e+00   2.5702477922555365e+00   0.0000000000000000e+00   1.0806964683088365e+00   0.0000000000000000e+00   8.5927990910625052e-01   0.0000000000000000e+00   0.0000000000000000e+00   5.0696303916672720e+00   1.8983140014306616e+00   1.0780044387212782e+00   1.9216242542187036e+00   1.4013552988644553e+00   1.2579579088596680e+00   3.4897764516839889e+00   0.0000000000000000e+00   3.2891098572158759e+00   6.6503407293398853e-01   0.0000000000000000e+00   3.6907556369689738e+00   1.2339198226036285e+00   5.6366852591219405e-17   5.5566661826034953e-17   4.2913391354528136e-04   5.4715387941322542e-17   0.0000000000000000e+00   3.2033698736425449e+00   0.0000000000000000e+00   7.6685238553287904e-01   1.7045891097832437e+00   1.0322151111551696e+00   5.4468402373958379e-17   5.1078807153170390e-17   0.0000000000000000e+00   2.3597387963747085e+00   8.6588883540488792e-01   0.0000000000000000e+00   0.0000000000000000e+00   7.2336426621437910e-01   1.4302297060909330e+00   9.9702788010836307e-01   0.0000000000000000e+00   -6.0326033229612038e-17   0.0000000000000000e+00   -3.9385693566072738e-17   4.9157066492688409e-17   -4.2299600855435111e-17   0.0000000000000000e+00   2.1841211678167523e+00   1.2249816175847267e+01   1.5025187467123433e+00   1.6777836063056766e-03   1.3255429917219982e-01   8.2203825752955766e-04   3.7243455510295007e+00   3.2116534847257214e-03   -4.0528712919461934e-17   6.0864153733571169e-01   -3.6314618595640806e-17   2.6694783379497373e+00   0.0000000000000000e+00   1.3131954769340759e+00   3.7690373605965704e+00   1.4942010316649690e+00   1.4185418383619706e+00   3.9522190961875344e-03   0.0000000000000000e+00   5.6379784508482818e+00   5.2234816274516511e+00   8.1942795184434791e-01   0.0000000000000000e+00   0.0000000000000000e+00   3.5129144984931811e-17   1.3669669301886480e-03   0.0000000000000000e+00   2.0039659819989080e+00   2.0235162809477418e+00   5.0965234380696119e-17   -5.1168230638532206e-17   3.9697712593783430e+00   0.0000000000000000e+00   1.7238735306618018e+00   1.2363673595413934e-02   -5.0058056409264095e-17   5.2708096398449404e+00   0.0000000000000000e+00   1.6553289741479069e+00   1.3757824474349160e-03   6.3050276176861575e-01   1.2683999480322440e-06   1.5751984126706631e+00   3.1351049648328160e+00   1.0855377261670103e+00   2.0165505962495116e+00   4.3405598266271578e-02   0.0000000000000000e+00   2.6884513013433735e+00   0.0000000000000000e+00   0.0000000000000000e+00   5.1340903617113777e-17   0.0000000000000000e+00   0.0000000000000000e+00   2.7359022902999794e+00   4.4986686187525304e+00   9.7816916815942037e+00   0.0000000000000000e+00   4.4590177901564081e+00   0.0000000000000000e+00   0.0000000000000000e+00   -5.3292402987585580e-17   -4.1505017775246505e-17   0.0000000000000000e+00   -4.6693540045000149e-17   8.4606016868800415e-01   1.0823659369242620e+00   1.2086734082898734e-01   3.5229726485827544e+00   1.3516764043543783e+00   1.4119875037750513e+00   3.0448928982450174e+00   6.2125859605042417e-03   6.9731735799003074e+00   8.4560539551567282e-02   2.2460692475322012e-02   2.7438751368501162e+00   1.3335036572841323e+00   1.1522274350175986e-02   9.6931664554269203e-01   5.9155407165373200e-05   1.5875995983385916e-03   0.0000000000000000e+00   1.9461402982487872e+00   5.6676910020994897e-01   6.1439048010448278e+00   5.2129373590929813e+00   6.4438365065418754e-04   -6.3929058613174610e-17   0.0000000000000000e+00   4.5729299498140827e+00   1.3810211912679891e+00   4.7485298787419330e+00   5.2339104959495044e+00   3.0539444393066217e+00   0.0000000000000000e+00   1.1545956787190994e+00   1.0896164763841574e+00   4.2331395428941599e-17   0.0000000000000000e+00   2.6708402463020061e-04   6.5533889512679857e-03   5.6942652733886179e-01   5.9637171492609902e+00   1.4951945453612849e+00   1.8591536480356785e+00   2.0927328611824803e-03   0.0000000000000000e+00   3.7419686033496293e+00   5.5883684189771340e-03   4.2456615285912660e+00   1.6779644040140697e-03   0.0000000000000000e+00   1.0110963473660144e+00   6.6858821376130508e-17   0.0000000000000000e+00   3.8651766142507804e+00   1.2562840665357899e+00   1.9952622209905490e-03   1.0955891481121032e-03   1.9395678359805504e+00   4.3521169262666506e+00   4.2232221219235715e+00   2.6702000196292182e+00   4.1760116484505061e-17   -5.2974842478844844e-17   5.2105902105811062e+00   0.0000000000000000e+00   0.0000000000000000e+00   8.9840312835075220e-01   1.0650664057550902e-02   0.0000000000000000e+00   1.5645064507838444e+00   1.0871877617285322e+00   5.1216910156408524e+00   2.6356094290621224e+00   5.4013966768768473e-01   1.3125476102833438e+00   0.0000000000000000e+00   1.3241158395142398e+00   3.8225371879216943e+00   2.2585037580472878e+00   -4.3865142992250220e-17   1.5781815552422878e+00   1.0955975896806254e+00   2.7974523446296313e+00   1.4369864096982565e+00   5.6972384691128719e-01   1.4172702863819007e+00   4.1390754070732179e-03   0.0000000000000000e+00   0.0000000000000000e+00   -4.3218484380742265e-17   8.6951508468228533e-01   5.3266546148378470e-17   1.7705803477308693e+00   2.4598877062494213e+00   1.5282929366600810e+00   5.4178373796600905e+00   0.0000000000000000e+00   5.9725375281651063e+00   0.0000000000000000e+00   3.1658850529671225e+00   4.8609157178490641e+00   1.2418892626637056e-02   0.0000000000000000e+00   2.2313828870161516e+00   3.9611173774200270e+00   6.3337098953929916e+00   -5.4512737941802108e-17   1.5814391327208170e+00   2.7680319038619303e+00   1.2607927313441764e-02   0.0000000000000000e+00   3.7337453555599198e-17   4.9628327957957037e-17   4.3927822005922971e-17   1.7565391744314427e+00   8.3168296333822305e+00   0.0000000000000000e+00   0.0000000000000000e+00   1.4034663543139958e+00   2.5733991039525361e-01   0.0000000000000000e+00   0.0000000000000000e+00   5.3808517541089991e+00   1.3790765835593277e+00   2.7640495299959582e+00   1.0771299108701864e+00   1.3941750190634765e+00   5.0626278559224813e+00   2.3020639285086801e+00   1.1126150854359524e+00   0.0000000000000000e+00   6.7822625176889706e-01   0.0000000000000000e+00   5.4057735789787849e+00   1.0492950776623817e+00   5.1885134703325848e+00   7.7578146041351367e-02   0.0000000000000000e+00   4.9448963601020163e-01   1.3621651166280866e+00   0.0000000000000000e+00   5.7000873768886939e-01   0.0000000000000000e+00   1.2296773666632435e+00   6.6847400637957584e-03   7.7648212623236213e-04   4.1114819639942901e+00   9.0605472233013873e-05   0.0000000000000000e+00   1.0240169295000368e+00   1.2828322642199746e-02   4.2116805345771029e+00   -5.3646162411967555e-17   -5.1918437447589603e-17   0.0000000000000000e+00   -9.9222684948596207e-17   7.6992882046510880e-01   9.1332714206008386e-02   2.2191028993989672e+00   5.1277204415017090e+00   5.2573465821253751e-01   0.0000000000000000e+00   1.7064509212284709e+00   1.4742945450383660e-01   2.6226138864388293e+00   0.0000000000000000e+00   -3.4402644061817241e-17   2.7634279439017084e+00   2.5868401124273750e+00   3.3708394416792062e+00   5.1349121605720454e+00   2.6468222080581310e+00   6.1914226920584655e-17   5.7581853217195018e+00   1.4873260305017353e+00   1.3052694469113635e-01   3.7219903619154479e-17   4.1491742160519420e+00   7.4534984516154951e-02   9.1680356704013305e-04   1.2490281518985766e+00   9.1707599376809923e-01   0.0000000000000000e+00   7.0879033565891036e-01   0.0000000000000000e+00   0.0000000000000000e+00   6.8423061362522419e-01   1.8960949318939566e+00   0.0000000000000000e+00   2.5097277783014970e-04   2.7684714460606838e+00   1.2219586922658225e+00   -4.7521063527067809e-17   2.4293735607920346e+00   2.4179176970854135e+00   0.0000000000000000e+00   -3.4412230729969554e-17   8.4953898302039139e+00   0.0000000000000000e+00   8.1425498214505443e-01   0.0000000000000000e+00   9.9492756747601885e-01   3.5621114960979996e-17   1.9223769524886385e-04   7.0793514028473581e-03   1.5698540668030174e+00   1.6962058681780579e+00   3.0417767559881050e+00   1.5004052899339781e+00   2.6966519467753878e-04   4.8236039650277979e-01   0.0000000000000000e+00   1.0022706473342019e-02   0.0000000000000000e+00   0.0000000000000000e+00   3.4893304331345298e+00   4.2399525931537765e+00   4.5810049051516777e-01   3.8552835828596594e-04   -5.3147868856630316e-17   5.9903146921065098e-01   5.9558745291725437e+00   -4.9394146876099042e-17   2.0140328321748426e+00   1.5792082831833634e-01   0.0000000000000000e+00   9.9919402624755160e-01   2.0056176790195086e+00   6.4991229310677090e+00   0.0000000000000000e+00   2.8964157703076499e+00   5.8805426254578652e+00   0.0000000000000000e+00   5.8920018097196136e-01   0.0000000000000000e+00   4.4770365787694527e-03   3.6181662682632050e+00   7.8643121822936983e+00   3.1014920934012882e-02   1.0307128979210916e+00   1.5711081610474111e-02   -4.7195780449346496e-17   3.9718927238555470e+00   2.7363699369724412e+00   8.0421417692607099e-03   2.0509257495424755e+00   2.9664520031673652e-01   1.0830736057223853e+00   3.6562114538029822e+00   -5.1014581959749185e-17   1.0303447963687000e+00   1.8671761064278652e-01   2.1576004750118911e+00   3.7037679553234264e-17   0.0000000000000000e+00   2.1799129527337411e+00   3.3544474099242363e+00   -3.7589820566024395e-17   0.0000000000000000e+00   5.3043219567759188e+00   1.4836445104058683e-04   2.2573292036354400e-02   0.0000000000000000e+00   1.6865329414180747e+00   5.0429768634460848e+00   8.6554931619051756e-01   1.0797349076300000e+00   4.3585256194578048e-17   8.9833982781363595e-03   6.4547190399323850e-01   4.4719150815296350e-17   4.3311527880030146e-17   4.4952591515224282e-07   0.0000000000000000e+00   2.6754851287287513e+00   5.8100932677506405e+00   3.6749587328307659e-01   0.0000000000000000e+00   -6.8357594183181400e-17   3.0381828696614266e-03   0.0000000000000000e+00   4.5319652048376118e-02   5.0874916199455535e+00   7.8124689267323788e+00   0.0000000000000000e+00   0.0000000000000000e+00   5.2088118009836446e+00   4.2886482011041553e-02   0.0000000000000000e+00   5.6231494988449207e+00   1.3582919714599728e+00   1.5573324435458211e-01   1.1910861800246906e+00   4.2958001059119094e-01   -3.6937539012324726e-17   0.0000000000000000e+00   1.5692007876806253e+00   -5.0264346271484481e-17   6.1601724134663904e-01   4.6641403412079461e+00   0.0000000000000000e+00   1.6335921078361599e+00   0.0000000000000000e+00   6.9598251025180232e-17   1.2608168784730904e+00   4.2497499941409620e+00   1.8836789940574439e+00   0.0000000000000000e+00   0.0000000000000000e+00   0.0000000000000000e+00   9.5171076428056078e-01   -6.7029933104662884e-17   2.8241364332887784e+00   0.0000000000000000e+00   3.7052120587714019e-05   8.4185090012892383e-01   1.2580343955402948e+00   5.2183567777581441e+00   4.6118345587311751e+00   2.4318983291969328e-03   1.7063193084661161e+00   2.8147761691105360e+00   2.3061854926770673e+00   2.0013288885215128e+00   5.6907054633518406e-17   5.1771775911851825e-01   1.8323469660622995e+00   1.2797249736919147e-03   7.5161018432837855e-03   6.4416107585877869e-01   3.5555229687741226e-17   2.9214483327252685e+00   7.8677181639882188e-01   5.2938548679478377e+00   5.8979429973892849e-17   3.5675222985851295e-17   6.0988461904073814e+00   1.6949832822000310e+00   5.0894598945560095e-17   4.4744650650181883e-01   6.0997193376211696e+00   8.0917249646685152e-01   1.3116426346940713e-01   1.6855152610430237e+00   2.3744483346533687e-02   4.2262157065028249e-17   0.0000000000000000e+00   1.2829362552197725e+00   0.0000000000000000e+00   0.0000000000000000e+00   6.5838297334934595e+00   0.0000000000000000e+00   0.0000000000000000e+00   2.1804547438878510e+00   8.3849151297968805e-01   6.4352480499863571e-02   3.0112530794455057e+00   5.3565114561207106e-01   1.5820495836533492e+00   1.1061622842194405e+00   5.0821091397720973e-02   6.0642553374740134e+00   1.7331909075048037