<?xml version="1.0"?>
<VTKFile type="UnstructuredGrid"  version="0.1"  >
<UnstructuredGrid>
<Piece  NumberOfPoints="3167" NumberOfCells="6038">
<Points>
<DataArray  type="Float64"  NumberOfComponents="3"  format="ascii">2.2 2.9 0  0 2.9 0  2.8 2.9 0  5 2.9 0  5 0 0  0 0 0  2.16271186440678 2.9 0  2.125423728813559 2.9 0  2.088135593220339 2.9 0  2.050847457627119 2.9 0  2.013559322033898 2.9 0  1.976271186440678 2.9 0  1.938983050847457 2.9 0  1.901694915254237 2.9 0  1.864406779661016 2.9 0  1.827118644067796 2.9 0  1.789830508474575 2.9 0  1.752542372881355 2.9 0  1.715254237288134 2.9 0  1.677966101694914 2.9 0  1.640677966101693 2.9 0  1.603389830508473 2.9 0  1.566101694915253 2.9 0  1.528813559322032 2.9 0  1.491525423728812 2.9 0  1.454237288135591 2.9 0  1.416949152542371 2.9 0  1.37966101694915 2.9 0  1.34237288135593 2.9 0  1.305084745762709 2.9 0  1.267796610169489 2.9 0  1.230508474576268 2.9 0  1.193220338983048 2.9 0  1.155932203389827 2.9 0  1.118644067796607 2.9 0  1.081355932203387 2.9 0  1.044067796610166 2.9 0  1.006779661016946 2.9 0  0.9694915254237257 2.9 0  0.9322033898305055 2.9 0  0.8949152542372856 2.9 0  0.8576271186440652 2.9 0  0.820338983050845 2.9 0  0.783050847457625 2.9 0  0.7457627118644048 2.9 0  0.7084745762711844 2.9 0  0.6711864406779642 2.9 0  0.633898305084744 2.9 0  0.5966101694915238 2.9 0  0.5593220338983036 2.9 0  0.5220338983050834 2.9 0  0.4847457627118632 2.9 0  0.447457627118643 2.9 0  0.4101694915254228 2.9 0  0.3728813559322024 2.9 0  0.3355932203389822 2.9 0  0.2983050847457622 2.9 0  0.2610169491525418 2.9 0  0.2237288135593216 2.9 0  0.1864406779661016 2.9 0  0.1491525423728812 2.9 0  0.1118644067796613 2.9 0  0.07457627118644039 2.9 0  0.03728813559321997 2.9 0  2.792405063291139 2.9 0  2.784810126582279 2.9 0  2.777215189873418 2.9 0  2.769620253164557 2.9 0  2.762025316455697 2.9 0  2.754430379746836 2.9 0  2.746835443037975 2.9 0  2.739240506329114 2.9 0  2.731645569620254 2.9 0  2.724050632911393 2.9 0  2.716455696202532 2.9 0  2.708860759493671 2.9 0  2.701265822784811 2.9 0  2.69367088607595 2.9 0  2.686075949367089 2.9 0  2.678481012658228 2.9 0  2.670886075949368 2.9 0  2.663291139240507 2.9 0  2.655696202531646 2.9 0  2.648101265822786 2.9 0  2.640506329113925 2.9 0  2.632911392405064 2.9 0  2.625316455696203 2.9 0  2.617721518987342 2.9 0  2.610126582278482 2.9 0  2.602531645569621 2.9 0  2.59493670886076 2.9 0  2.587341772151899 2.9 0  2.579746835443038 2.9 0  2.572151898734178 2.9 0  2.564556962025317 2.9 0  2.556962025316456 2.9 0  2.549367088607595 2.9 0  2.541772151898734 2.9 0  2.534177215189874 2.9 0  2.526582278481013 2.9 0  2.518987341772152 2.9 0  2.511392405063292 2.9 0  2.503797468354431 2.9 0  2.49620253164557 2.9 0  2.488607594936709 2.9 0  2.481012658227848 2.9 0  2.473417721518988 2.9 0  2.465822784810127 2.9 0  2.458227848101266 2.9 0  2.450632911392406 2.9 0  2.443037974683545 2.9 0  2.435443037974684 2.9 0  2.427848101265823 2.9 0  2.420253164556962 2.9 0  2.412658227848102 2.9 0  2.405063291139241 2.9 0  2.39746835443038 2.9 0  2.389873417721519 2.9 0  2.382278481012658 2.9 0  2.374683544303798 2.9 0  2.367088607594937 2.9 0  2.359493670886076 2.9 0  2.351898734177215 2.9 0  2.344303797468355 2.9 0  2.336708860759494 2.9 0  2.329113924050633 2.9 0  2.321518987341773 2.9 0  2.313924050632912 2.9 0  2.306329113924051 2.9 0  2.29873417721519 2.9 0  2.291139240506329 2.9 0  2.283544303797469 2.9 0  2.275949367088608 2.9 0  2.268354430379747 2.9 0  2.260759493670887 2.9 0  2.253164556962026 2.9 0  2.245569620253165 2.9 0  2.237974683544304 2.9 0  2.230379746835443 2.9 0  2.222784810126583 2.9 0  2.215189873417722 2.9 0  2.207594936708861 2.9 0  4.96271186440678 2.9 0  4.925423728813559 2.9 0  4.888135593220339 2.9 0  4.850847457627118 2.9 0  4.813559322033898 2.9 0  4.776271186440677 2.9 0  4.738983050847457 2.9 0  4.701694915254237 2.9 0  4.664406779661016 2.9 0  4.627118644067796 2.9 0  4.589830508474575 2.9 0  4.552542372881355 2.9 0  4.515254237288135 2.9 0  4.477966101694914 2.9 0  4.440677966101694 2.9 0  4.403389830508473 2.9 0  4.366101694915252 2.9 0  4.328813559322032 2.9 0  4.291525423728811 2.9 0  4.254237288135591 2.9 0  4.21694915254237 2.9 0  4.17966101694915 2.9 0  4.14237288135593 2.9 0  4.105084745762709 2.9 0  4.067796610169489 2.9 0  4.030508474576268 2.9 0  3.993220338983048 2.9 0  3.955932203389827 2.9 0  3.918644067796607 2.9 0  3.881355932203387 2.9 0  3.844067796610166 2.9 0  3.806779661016946 2.9 0  3.769491525423725 2.9 0  3.732203389830505 2.9 0  3.694915254237285 2.9 0  3.657627118644065 2.9 0  3.620338983050845 2.9 0  3.583050847457625 2.9 0  3.545762711864405 2.9 0  3.508474576271184 2.9 0  3.471186440677964 2.9 0  3.433898305084744 2.9 0  3.396610169491524 2.9 0  3.359322033898303 2.9 0  3.322033898305083 2.9 0  3.284745762711863 2.9 0  3.247457627118643 2.9 0  3.210169491525423 2.9 0  3.172881355932202 2.9 0  3.135593220338982 2.9 0  3.098305084745762 2.9 0  3.061016949152542 2.9 0  3.023728813559321 2.9 0  2.986440677966101 2.9 0  2.949152542372881 2.9 0  2.911864406779661 2.9 0  2.87457627118644 2.9 0  2.83728813559322 2.9 0  5 0.1063822625082082 0  5 0.210636880010749 0  5 0.3128064053694972 0  5 0.4129325400644018 0  5 0.5110561521032336 0  5 0.6072172918830103 0  5 0.7014552087832795 0  5 0.7938083674443693 0  5 0.88431446261646 0  5 0.9730104359544682 0  5 1.059932489996267 0  5 1.145116102913299 0  5 1.228596043483191 0  5 1.310406385079062 0  5 1.390580519944147 0  5 1.469151172477827 0  5 1.546150411986101 0  5 1.621609666658609 0  5 1.695559736099044 0  5 1.76803080383987 0  5 1.839052450169751 0  5 1.908653663631169 0  5 1.97686285289587 0  5 2.043707858613779 0  5 2.109215964341413 0  5 2.173413907925942 0  5 2.236327892833935 0  5 2.297983597762904 0  5 2.35840618845912 0  5 2.41762032730194 0  5 2.475650183444628 0  5 2.532519442457069 0  5 2.588251316112828 0  5 2.642868552557322 0  5 2.696393444426347 0  5 2.748847838312051 0  5 2.800253144313381 0  5 2.850630344319807 0  0.2631578947368421 0 0  0.5263157894736842 0 0  0.7894736842105263 0 0  1.052631578947368 0 0  1.31578947368421 0 0  1.578947368421053 0 0  1.842105263157895 0 0  2.105263157894737 0 0  2.368421052631579 0 0  2.631578947368421 0 0  2.894736842105263 0 0  3.157894736842105 0 0  3.421052631578947 0 0  3.684210526315789 0 0  3.947368421052632 0 0  4.210526315789473 0 0  4.473684210526315 0 0  4.736842105263158 0 0  0 2.850203682350569 0  0 2.799411438503675 0  0 2.747603349778291 0  0 2.694759099502208 0  0 2.640857964382145 0  0 2.58587880633613 0  0 2.52980006535898 0  0 2.472599749459174 0  0 2.414255427218689 0  0 2.35474421880616 0  0 2.294042786119219 0  0 2.232127324764723 0  0 2.1689735539481 0  0 2.104556707683347 0  0 2.038851524813415 0  0 1.971832238155655 0  0 1.903472565412126 0  0 1.83374569926617 0  0 1.762624296208475 0  0 1.690080464918761 0  0 1.616085756774206 0  0 1.540611154706337 0  0 1.463627060685571 0  0 1.385103284916206 0  0 1.305009033716617 0  0 1.223312897337225 0  0 1.139982838163732 0  0 1.054986177579938 0  0 0.9682895835804817 0  0 0.8798590579197976 0  0 0.7896599218415354 0  0 0.6976568029903638 0  0 0.6038136217958798 0  0 0.508093576867624 0  0 0.4104591310957497 0  0 0.3108719963522191 0  0 0.2092931188294389 0  0 0.1056826638508546 0  1.434832105763824 2.866945754981483 0  1.737156300467626 2.870039440267515 0  2.032203389830508 2.867707527316512 0  2.332911392405064 2.893422591869991 0  2.469810913293406 2.891944186606167 0  2.606221408823969 2.892519154985628 0  2.255455320628894 2.892068685006691 0  2.538247299216212 2.894964578182811 0  2.674683544303798 2.893422591869991 0  2.40126582278481 2.893422591869991 0  3.566125247295424 2.865029336199714 0  3.266101694915253 2.867707527316512 0  2.967796610169491 2.867707527316512 0  1.174288529834642 2.870795313888584 0  3.825423728813556 2.867707527316512 0  2.727766680262011 2.892655387647729 0  0.06601655192030442 1.502119107695954 0  4.933983535508361 1.507650792231964 0  0.9532124728485543 2.868722489783638 0  4.048935912500257 2.870640982995992 0  0.05930163367361763 1.866907161167414 0  4.943402512618553 1.871280731473148 0  4.271733870017743 2.86520865624265 0  0.7249420921613114 2.863922936177041 0  0.05494499779910056 2.196469063120752 0  4.947228695426367 2.208030108792719 0  0.5406152150397161 2.866493807382013 0  4.459322033898304 2.868847558178794 0  2.18135593220339 2.875780645487384 0  2.817027156509632 2.876587550645167 0  4.928427208322876 1.186856073198245 0  0.07189226971603224 1.174626666111662 0  4.610299014423113 2.867003104093161 0  0.3897270066746357 2.869433095314657 0  1.581132500042262 2.868247328632392 0  1.887637879411437 2.869235851794358 0  3.413449426418068 2.867372048034327 0  3.116721298814773 2.865731235547652 0  2.644303797468355 2.893422591869991 0  2.370983221828106 2.892719513369796 0  2.302531645569621 2.893336787387268 0  2.758987341772152 2.894242393897099 0  0.04979653335696277 2.443411216910286 0  4.950470983477169 2.446866954595817 0  2.482937483021586 0.2513241087417575 0  1.707129504814338 0.1999998659920923 0  3.28584657955054 0.229200625631625 0  4.907807122600524 0.834082362900164 0  4.757627118644067 2.867707527316512 0  0.0773489124676745 0.8347594898806663 0  0.2390604736599387 2.861365431805741 0  0.8363213715215729 2.863896768908178 0  4.160865610207075 2.868916854015731 0  1.282549332053297 2.867610952980761 0  1.065094818402487 2.861284686038041 0  3.93818127737282 2.86865134411395 0  3.711492629432973 2.863574306925269 0  4.91369361998929 0.5579891344254361 0  0.08208328472281323 0.5559535993317519 0  2.696596932532885 2.892010483922337 0  0.04706410140274553 2.613055974506516 0  4.955577063972248 2.616518038840186 0  2.234177215189874 2.893422591869991 0  2.279795840559739 2.89403861893984 0  0.9117357887652362 0.2117925286661764 0  4.055948041993057 0.2039101057937727 0  4.872119713780579 2.867632926423075 0  2.780113878992455 2.891535929611743 0  0.1327442468251063 2.85
[...]
<CellData  Scalars="Plastic strain"> 
<DataArray  type="Float64"  Name="Plastic strain"  format="ascii">0.0000000000000000e+00   -8.2107236946476428e-17   0.0000000000000000e+00   0.0000000000000000e+00   -1.1263627754869367e-16   0.0000000000000000e+00   0.0000000000000000e+00   0.0000000000000000e+00   -9.1404270064456369e-17   1.2956916140003499e-16   0.0000000000000000e+00   0.0000000000000000e+00   7.0630336108221273e-17   9.7755015230875189e-17   0.0000000000000000e+00   0.0000000000000000e+00   0.0000000000000000e+00   7.6173001324595812e-17   0.0000000000000000e+00   0.0000000000000000e+00   0.0000000000000000e+00   0.0000000000000000e+00   0.0000000000000000e+00   0.0000000000000000e+00   -7.4758075305771640e-17   -8.3144625536328409e-17   0.0000000000000000e+00   1.1447496429558173e-16   0.0000000000000000e+00   1.0698635845319269e-16   0.0000000000000000e+00   0.0000000000000000e+00   -1.0228598751397284e-16   0.0000000000000000e+00   0.0000000000000000e+00   6.8376458141517390e-17   6.7326028432260301e-17   0.0000000000000000e+00   0.0000000000000000e+00   -1.1767538052381302e-16   0.0000000000000000e+00   7.5867476740621735e-17   8.5593490900175109e-17   -8.5495265277357317e-17   -7.0128521206515978e-17   0.0000000000000000e+00   0.0000000000000000e+00   6.5648119590055597e-17   0.0000000000000000e+00   7.8291527867171248e-17   -1.2213719572924236e-16   1.0425988537778695e-16   0.0000000000000000e+00   0.0000000000000000e+00   7.6860840114783430e-17   -9.3649301978225376e-17   0.0000000000000000e+00   0.0000000000000000e+00   9.2215480176381543e-17   0.0000000000000000e+00   0.0000000000000000e+00   0.0000000000000000e+00   0.0000000000000000e+00   0.0000000000000000e+00   0.0000000000000000e+00   1.0476325077774836e-16   1.0309475052946860e-16   0.0000000000000000e+00   0.0000000000000000e+00   0.0000000000000000e+00   0.0000000000000000e+00   0.0000000000000000e+00   0.0000000000000000e+00   0.0000000000000000e+00   0.0000000000000000e+00   9.5672921875924645e-17   0.0000000000000000e+00   0.0000000000000000e+00   0.0000000000000000e+00   0.0000000000000000e+00   0.0000000000000000e+00   0.0000000000000000e+00   -7.2191696402794997e-17   -7.9481115301466038e-17   -7.0715562131083309e-17   6.8275266413069775e-17   0.0000000000000000e+00   0.0000000000000000e+00   0.0000000000000000e+00   0.0000000000000000e+00   0.0000000000000000e+00   8.9823356479062254e-17   0.0000000000000000e+00   0.0000000000000000e+00   0.0000000000000000e+00   0.0000000000000000e+00   0.0000000000000000e+00   6.8352927253910102e-17   -1.1479095099933564e-16   0.0000000000000000e+00   0.0000000000000000e+00   -8.1647261105088414e-17   -8.5129195176996129e-17   -8.3780836040366599e-17   0.0000000000000000e+00   0.0000000000000000e+00   0.0000000000000000e+00   -8.7645068985354338e-17   -6.6753717270337158e-17   0.0000000000000000e+00   0.0000000000000000e+00   0.0000000000000000e+00   0.0000000000000000e+00   0.0000000000000000e+00   0.0000000000000000e+00   0.0000000000000000e+00   0.0000000000000000e+00   0.0000000000000000e+00   -8.5606894283005671e-17   8.6397956680758170e-17   9.4275950146848802e-17   1.2640777497076802e-16   7.7509285831350686e-17   0.0000000000000000e+00   0.0000000000000000e+00   0.0000000000000000e+00   1.2349715698273538e-16   0.0000000000000000e+00   0.0000000000000000e+00   0.0000000000000000e+00   0.0000000000000000e+00   0.0000000000000000e+00   0.0000000000000000e+00   1.2752271173751203e-16   -8.4273032080584839e-17   1.2330987994043388e-16   0.0000000000000000e+00   0.0000000000000000e+00   0.0000000000000000e+00   1.3379571592183234e-16   0.0000000000000000e+00   -1.0519412497926120e-16   0.0000000000000000e+00   0.0000000000000000e+00   0.0000000000000000e+00   -1.1172554117492503e-16   0.0000000000000000e+00   0.0000000000000000e+00   0.0000000000000000e+00   1.0255785073864879e-16   9.6182780495834057e-17   0.0000000000000000e+00   -6.6743872676170679e-17   0.0000000000000000e+00   0.0000000000000000e+00   0.0000000000000000e+00   -1.0907284877438473e-16   0.0000000000000000e+00   0.0000000000000000e+00   0.0000000000000000e+00   6.7396497476057786e-17   0.0000000000000000e+00   0.0000000000000000e+00   1.0556746251255509e-16   0.0000000000000000e+00   0.0000000000000000e+00   0.0000000000000000e+00   0.0000000000000000e+00   0.0000000000000000e+00   0.0000000000000000e+00   0.0000000000000000e+00   0.0000000000000000e+00   -7.0965318725637956e-17   1.0649290247600632e-16   0.0000000000000000e+00   -6.9054546595311267e-17   8.2862012245505250e-17   6.6770678114964690e-17   0.0000000000000000e+00   9.5442681536051036e-17   -9.4803548393273632e-17   0.0000000000000000e+00   0.0000000000000000e+00   0.0000000000000000e+00   7.6816808372414826e-17   0.0000000000000000e+00   0.0000000000000000e+00   0.0000000000000000e+00   0.0000000000000000e+00   7.0356074933272144e-17   0.0000000000000000e+00   -1.2099792360755896e-16   1.3320638986200842e-16   0.0000000000000000e+00   0.0000000000000000e+00   0.0000000000000000e+00   0.0000000000000000e+00   0.0000000000000000e+00   0.0000000000000000e+00   0.0000000000000000e+00   -9.3402773403317072e-17   0.0000000000000000e+00   0.0000000000000000e+00   9.0349348653909430e-17   0.0000000000000000e+00   -1.0698358727180539e-16   8.6761183722036742e-17   0.0000000000000000e+00   -6.7453390149461098e-17   1.2009922858309824e-16   0.0000000000000000e+00   0.0000000000000000e+00   6.6806137591701457e-17   -7.1562770876801041e-17   9.2708035575340568e-17   0.0000000000000000e+00   0.0000000000000000e+00   0.0000000000000000e+00   0.0000000000000000e+00   -7.1239797341939933e-17   0.0000000000000000e+00   0.0000000000000000e+00   0.0000000000000000e+00   -1.2635153964036937e-16   0.0000000000000000e+00   0.0000000000000000e+00   0.0000000000000000e+00   0.0000000000000000e+00   0.0000000000000000e+00   0.0000000000000000e+00   0.0000000000000000e+00   7.3076944093899244e-17   0.0000000000000000e+00   8.0788415915947843e-17   -6.5281825539730363e-17   0.0000000000000000e+00   0.0000000000000000e+00   0.0000000000000000e+00   7.3050341922274941e-17   -6.9555064445819745e-17   0.0000000000000000e+00   0.0000000000000000e+00   0.0000000000000000e+00   -9.3291518396743643e-17   0.0000000000000000e+00   0.0000000000000000e+00   0.0000000000000000e+00   7.5693493248884827e-17   0.0000000000000000e+00   0.0000000000000000e+00   8.2096993825434064e-17   -8.5814331387868350e-17   0.0000000000000000e+00   0.0000000000000000e+00   0.0000000000000000e+00   9.3129826269883353e-17   0.0000000000000000e+00   0.0000000000000000e+00   0.0000000000000000e+00   8.0640728146274649e-17   0.0000000000000000e+00   0.0000000000000000e+00   -7.8938240142567038e-17   -7.1819391192572270e-17   0.0000000000000000e+00   0.0000000000000000e+00   0.0000000000000000e+00   0.0000000000000000e+00   -9.1244624400582141e-17   -8.1385855268551828e-17   0.0000000000000000e+00   0.0000000000000000e+00   0.0000000000000000e+00   0.0000000000000000e+00   0.0000000000000000e+00   0.0000000000000000e+00   0.0000000000000000e+00   6.7171266641905009e-17   0.0000000000000000e+00   0.0000000000000000e+00   9.5730812636741932e-17   1.2192418354209066e-16   0.0000000000000000e+00   0.0000000000000000e+00   0.0000000000000000e+00   0.0000000000000000e+00   -1.2401342140444454e-16   0.0000000000000000e+00   -6.9059622638213756e-17   -7.6921163681723054e-17   0.0000000000000000e+00   0.0000000000000000e+00   0.0000000000000000e+00   0.0000000000000000e+00   0.0000000000000000e+00   6.6462630918707306e-17   -7.1702499558880561e-17   0.0000000000000000e+00   0.0000000000000000e+00   0.0000000000000000e+00   0.0000000000000000e+00   0.0000000000000000e+00   0.0000000000000000e+00   1.1096564201067507e-16   0.0000000000000000e+00   0.0000000000000000e+00   6.8518472531121542e-17   0.0000000000000000e+00   0.0000000000000000e+00   0.0000000000000000e+00   -1.0623888479846829e-16   -8.6097838997135630e-17   0.0000000000000000e+00   -6.9971641898061048e-17   0.0000000000000000e+00   0.0000000000000000e+00   -7.9718482770584301e-17   -7.2822613971177607e-17   0.0000000000000000e+00   0.0000000000000000e+00   0.0000000000000000e+00   0.0000000000000000e+00   1.2370033551416616e-16   7.6052426239946404e-17   0.0000000000000000e+00   -9.2368866836140593e-17   -9.3701882965328974e-17   0.0000000000000000e+00   0.0000000000000000e+00   -9.8556812067256361e-17   7.9394120899814640e-17   8.7601381833395655e-17   0.0000000000000000e+00   0.0000000000000000e+00   0.0000000000000000e+00   -1.0723167133614806e-16   1.2115629312987302e-16   -6.9656031803487436e-17   -8.2494960295468757e-17   0.0000000000000000e+00   0.0000000000000000e+00   -7.1370040201439632e-17   7.0356862341497737e-17   0.0000000000000000e+00   6.9279004547751980e-17   6.4969706024544566e-17   0.0000000000000000e+00   0.0000000000000000e+00   1.0095812732545494e-16   0.0000000000000000e+00   0.0000000000000000e+00   6.8966278733525830e-17   0.0000000000000000e+00   0.0000000000000000e+00   0.0000000000000000e+00   0.0000000000000000e+00   0.0000000000000000e+00   0.0000000000000000e+00   0.0000000000000000e+00   0.0000000000000000e+00   0.0000000000000000e+00   0.0000000000000000e+00   0.0000000000000000e+00   -7.4722372951752070e-17   0.0000000000000000e+00   1.2448244492950557e-16   0.0000000000000000e+00   0.0000000000000000e+00   0.0000000000000000e+00   0.0000000000000000e+00   0.0000000000000000e+00   0.0000000000000000e+00   0.0000000000000000e+00   0.0000000000000000e+00   0.0000000000000000e+00   0.0000000000000000e+00   -1.0263251316697398e-16   0.0000000000000000e+00   0.0000000000000000e+00   0.0000000000000000e+00   0.0000000000000000e+00   1.1253410363005912e-16   0.0000000000000000e+00   0.0000000000000000e+00   -9.2641375957327858e-17   -1.0211197177754533e-16   0.0000000000000000e+00   0.0000000000000000e+00   -1.1263529067669487e-16   0.0000000000000000e+00   0.0000000000000000e+00   0.0000000000000000e+00   8.8958967001373455e-17   0.0000000000000000e+00   0.0000000000000000e+00   0.0000000000000000e+00   0.0000000000000000e+00   0.0000000000000000e+00   -1.2957539794504879e-16   1.2041648241319368e-16   0.0000000000000000e+00   0.0000000000000000e+00   7.2754534096143015e-17   0.0000000000000000e+00   0.0000000000000000e+00   0.0000000000000000e+00   9.4830801325069023e-17   7.8010618737729734e-17   0.0000000000000000e+00   0.0000000000000000e+00   -9.8392675790913737e-17   0.0000000000000000e+00   -8.1957772055824125e-17   0.0000000000000000e+00   0.0000000000000000e+00   0.0000000000000000e+00   0.0000000000000000e+00   0.0000000000000000e+00   0.0000000000000000e+00   0.0000000000000000e+00   0.0000000000000000e+00   -6.7784026628055541e-17   0.0000000000000000e+00   0.0000000000000000e+00   0.0000000000000000e+00   -9.4568913452462670e-17   0.0000000000000000e+00   0.0000000000000000e+00   -7.4063476840005371e-17   0.0000000000000000e+00   -1.0510484978337259e-16   -8.0187807560309935e-17   0.0000000000000000e+00   0.0000000000000000e+00   -6.7185451438897212e-17   1.1896404671702397e-16   0.0000000000000000e+00   0.0000000000000000e+00   0.0000000000000000e+00   -6.6911119512834382e-17   0.0000000000000000e+00   7.4824041461872903e-17   0.0000000000000000e+00   -7.2499131183640777e-17   1.1663730926138182e-16   0.0000000000000000e+00   -9.2304487677863158e-17   0.0000000000000000e+00   0.0000000000000000e+00   -7.5210782168491892e-17   0.0000000000000000e+00   0.0000000000000000e+00   0.0000000000000000e+00   -6.9673733465907164e-17   0.0000000000000000e+00   0.0000000000000000e+00   -8.0945081612969225e-17   1.2636983991556652e-16   0.0000000000000000e+00   0.0000000000000000e+00   0.0000000000000000e+00   0.0000000000000000e+00   0.0000000000000000e+00   0.0000000000000000e+00   0.0000000000000000e+00   -6.6377024504691986e-17   0.0000000000000000e+00   0.0000000000000000e+00   0.0000000000000000e+00   1.0561434227410718e-16   7.5411040805557429e-17   0.0000000000000000e+00   0.0000000000000000e+00   0.0000000000000000e+00   0.0000000000000000e+00   0.0000000000000000e+00   0.0000000000000000e+00   0.0000000000000000e+00   0.0000000000000000e+00   0.0000000000000000e+00   -7.2030290047611989e-17   0.0000000000000000e+00   0.0000000000000000e+00   0.0000000000000000e+00   0.0000000000000000e+00   0.0000000000000000e+00   7.8268564169218151e-17   7.2224667153200824e-17   0.0000000000000000e+00   -7.8537618412759079e-17   0.0000000000000000e+00   0.0000000000000000e+00   1.0575084665203425e-16   0.0000000000000000e+00   9.3063906904697447e-17   0.0000000000000000e+00   -1.0870268656226470e-16   0.0000000000000000e+00   0.0000000000000000e+00   0.0000000000000000e+00   7.2691451803462113e-17   0.0000000000000000e+00   -1.1974775077791946e-16   0.0000000000000000e+00   0.0000000000000000e+00   0.0000000000000000e+00   0.0000000000000000e+00   -1.0901324575181706e-16   0.0000000000000000e+00   9.1067249801232501e-17   0.0000000000000000e+00   0.0000000000000000e+00   0.0000000000000000e+00   0.0000000000000000e+00   0.0000000000000000e+00   0.0000000000000000e+00   -9.4580715791694538e-17   0.0000000000000000e+00   0.0000000000000000e+00   0.0000000000000000e+00   0.0000000000000000e+00   0.0000000000000000e+00   6.7444523957575279e-17   0.0000000000000000e+00   0.0000000000000000e+00   0.0000000000000000e+00   0.0000000000000000e+00   0.0000000000000000e+00   8.4953303549630034e-17   0.0000000000000000e+00   -1.2400199041408658e-16   7.5010372190159908e-17   0.0000000000000000e+00   0.0000000000000000e+00   0.0000000000000000e+00   -6.8777667098776907e-17   0.0000000000000000e+00   -6.9022415117125366e-17   1.2944933469115544e-16   0.0000000000000000e+00   0.0000000000000000e+00   7.2193102229339720e-17   9.4551156886755338e-17   1.2567583956395609e-16   1.1124021577932789e-16   0.0000000000000000e+00   -7.3523058028308839e-17   8.5137833231443205e-17   0.0000000000000000e+00   8.3320522969489331e-17   0.0000000000000000e+00   -7.1830466263188044e-17   8.2550927697382944e-17   0.0000000000000000e+00   0.0000000000000000e+00   0.0000000000000000e+00   0.0000000000000000e+00   1.1672442983417633e-16   0.0000000000000000e+00   9.0369480657356569e-17   0.0000000000000000e+00   0.0000000000000000e+00   -1.2012815270083945e-16   -9.1295650841687327e-17   -6.7117924178693564e-17   6.9128465739097594e-17   0.0000000000000000e+00   0.0000000000000000e+00   7.5210769419065305e-17   0.0000000000000000e+00   0.0000000000000000e+00   0.0000000000000000e+00   0.0000000000000000e+00   0.0000000000000000e+00   0.0000000000000000e+00   7.9560824677119297e-17   -7.1035262885009932e-17   -1.3251679531556464e-16   1.0699756818715255e-16   0.0000000000000000e+00   -1.0782758265360315e-16   0.0000000000000000e+00   0.0000000000000000e+00   -6.7925182833279416e-17   -6.5737588626823807e-17   0.0000000000000000e+00   0.0000000000000000e+00   -8.4080825297386031e-17   0.0000000000000000e+00   0.0000000000000000e+00   -6.4967726030862910e-17   8.9942423640480254e-17   0.0000000000000000e+00   1.1652614652906435e-16   0.0000000000000000e+00   6.5600355502127561e-17   -7.9671655186558757e-17   0.0000000000000000e+00   0.0000000000000000e+00   0.0000000000000000e+00   0.0000000000000000e+00   0.0000000000000000e+00   0.0000000000000000e+00   0.0000000000000000e+00   0.0000000000000000e+00   0.0000000000000000e+00   0.0000000000000000e+00   0.0000000000000000e+00   0.0000000000000000e+00   0.0000000000000000e+00   0.0000000000000000e+00   0.0000000000000000e+00   -1.1130149691216605e-16   0.0000000000000000e+00   0.0000000000000000e+00   1.1194047138504551e-16   0.0000000000000000e+00   0.0000000000000000e+00   0.0000000000000000e+00   0.0000000000000000e+00   0.0000000000000000e+00   0.0000000000000000e+00   0.0000000000000000e+00   0.0000000000000000e+00   -6.6335181475113590e-17   0.0000000000000000e+00   8.4079235108457039e-17   0.0000000000000000e+00   0.0000000000000000e+00   0.0000000000000000e+00   0.0000000000000000e+00   7.9481873142805732e-17   0.0000000000000000e+00   0.0000000000000000e+00   0.0000000000000000e+00   0.0000000000000000e+00   0.0000000000000000e+00   -1.0860372117106002e-16   0.0000000000000000e+00   -7.8387297864266368e-17   1.3769310803583198e-16   0.0000000000000000e+00   1.0575895727554019e-16   0.0000000000000000e+00   8.4474054385193271e-17   -1.0840217197827310e-16   -8.6289822081166764e-17   -1.0734976465184270e-16   8.6388872868724264e-17   8.8982605293486966e-17   0.0000000000000000e+00   -7.6131185556645252e-17   -7.9634738512248918e-17   0.0000000000000000e+00   0.0000000000000000e+00   0.0000000000000000e+00   0.0000000000000000e+00   -1.2321465517723654e-16   0.0000000000000000e+00   9.3879714815765861e-17   0.0000000000000000e+00   -1.0541356619554925e-16   0.0000000000000000e+00   0.0000000000000000e+00   -1.0839454823650596e-16   0.0000000000000000e+00   0.0000000000000000e+00   6.6043306639274796e-17   0.0000000000000000e+00   0.0000000000000000e+00   0.0000000000000000e+00   0.0000000000000000e+00   -1.1951580026779378e-16   0.0000000000000000e+00   0.0000000000000000e+00   -8.9882650577517300e-17   0.0000000000000000e+00   0.0000000000000000e+00   0.0000000000000000e+00   0.0000000000000000e+00   0.0000000000000000e+00   -1.2668791759536892e-16   0.0000000000000000e+00   0.0000000000000000e+00   -9.3792026950752386e-17   0.0000000000000000e+00   0.0000000000000000e+00   9.4805673332142704e-17   0.0000000000000000e+00   0.0000000000000000e+00   0.0000000000000000e+00   0.0000000000000000e+00   0.0000000000000000e+00   1.0487737764493074e-16   0.0000000000000000e+00   0.0000000000000000e+00   0.0000000000000000e+00   -1.1405052678589217e-16   0.0000000000000000e+00   0.0000000000000000e+00   0.0000000000000000e+00   1.1324413000697216e-16   0.0000000000000000e+00   -7.0954554763483506e-17   0.0000000000000000e+00   -1.1163870832636844e-16   -8.3305652784673891e-17   0.0000000000000000e+00   0.0000000000000000e+00   0.0000000000000000e+00   0.0000000000000000e+00   0.0000000000000000e+00   0.0000000000000000e+00   0.0000000000000000e+00   1.3348407046851882e-16   0.0000000000000000e+00   -7.9147883352002245e-17   0.0000000000000000e+00   6.5425467892168542e-17   0.0000000000000000e+00   1.1084077879811539e-16   0.0000000000000000e+00   0.0000000000000000e+00   0.0000000000000000e+00   0.0000000000000000e+00   0.0000000000000000e+00   0.0000000000000000e+00   -7.4983287505337051e-17   -1.2728645468680131e-16   9.9742197569834645e-17   6.6270347055659700e-17   0.0000000000000000e+00   0.0000000000000000e+00   0.0000000000000000e+00   0.0000000000000000e+00   0.0000000000000000e+00   0.0000000000000000e+00   0.0000000000000000e+00   0.0000000000000000e+00   0.0000000000000000e+00   0.0000000000000000e+00   1.1331791577777868e-16   -8.4871317103215681e-17   0.0000000000000000e+00   6.5451134280695033e-17   0.0000000000000000e+00   -1.1240556051775409e-16   0.0000000000000000e+00   -1.0613875306737894e-16   0.0000000000000000e+00   0.0000000000000000e+00   0.0000000000000000e+00   9.6594133752260619e-17   -9.1592540709961711e-17   0.0000000000000000e+00   0.0000000000000000e+00   0.0000000000000000e+00   1.1705106042903118e-16   0.0000000000000000e+00   8.6133602434378432e-17   0.0000000000000000e+00   0.0000000000000000e+00   0.0000000000000000e+00   7.5748731569553839e-17   0.0000000000000000e+00   0.0000000000000000e+00   9.0341822601326382e-17   0.0000000000000000e+00   0.0000000000000000e+00   1.2888246924564326e-16   6.8646365378237091e-17   0.0000000000000000e+00   -7.3578537553820808e-17   -1.1337459354710068e-16   -1.2909938771615529e-16   0.0000000000000000e+00   0.0000000000000000e+00   -7.1899863444862384e-17   0.0000000000000000e+00   0.0000000000000000e+00   0.0000000000000000e+00   0.0000000000000000e+00   0.0000000000000000e+00   0.0000000000000000e+00   0.0000000000000000e+00   0.0000000000000000e+00   0.0000000000000000e+00   0.0000000000000000e+00   0.0000000000000000e+00   -1.2243461059376516e-16   0.000000000