<?xml version="1.0"?>
<VTKFile type="UnstructuredGrid"  version="0.1"  >
<UnstructuredGrid>
<Piece  NumberOfPoints="3167" NumberOfCells="6038">
<Points>
<DataArray  type="Float64"  NumberOfComponents="3"  format="ascii">2.2 2.9 0  0 2.9 0  2.8 2.9 0  5 2.9 0  5 0 0  0 0 0  2.16271186440678 2.9 0  2.125423728813559 2.9 0  2.088135593220339 2.9 0  2.050847457627119 2.9 0  2.013559322033898 2.9 0  1.976271186440678 2.9 0  1.938983050847457 2.9 0  1.901694915254237 2.9 0  1.864406779661016 2.9 0  1.827118644067796 2.9 0  1.789830508474575 2.9 0  1.752542372881355 2.9 0  1.715254237288134 2.9 0  1.677966101694914 2.9 0  1.640677966101693 2.9 0  1.603389830508473 2.9 0  1.566101694915253 2.9 0  1.528813559322032 2.9 0  1.491525423728812 2.9 0  1.454237288135591 2.9 0  1.416949152542371 2.9 0  1.37966101694915 2.9 0  1.34237288135593 2.9 0  1.305084745762709 2.9 0  1.267796610169489 2.9 0  1.230508474576268 2.9 0  1.193220338983048 2.9 0  1.155932203389827 2.9 0  1.118644067796607 2.9 0  1.081355932203387 2.9 0  1.044067796610166 2.9 0  1.006779661016946 2.9 0  0.9694915254237257 2.9 0  0.9322033898305055 2.9 0  0.8949152542372856 2.9 0  0.8576271186440652 2.9 0  0.820338983050845 2.9 0  0.783050847457625 2.9 0  0.7457627118644048 2.9 0  0.7084745762711844 2.9 0  0.6711864406779642 2.9 0  0.633898305084744 2.9 0  0.5966101694915238 2.9 0  0.5593220338983036 2.9 0  0.5220338983050834 2.9 0  0.4847457627118632 2.9 0  0.447457627118643 2.9 0  0.4101694915254228 2.9 0  0.3728813559322024 2.9 0  0.3355932203389822 2.9 0  0.2983050847457622 2.9 0  0.2610169491525418 2.9 0  0.2237288135593216 2.9 0  0.1864406779661016 2.9 0  0.1491525423728812 2.9 0  0.1118644067796613 2.9 0  0.07457627118644039 2.9 0  0.03728813559321997 2.9 0  2.792405063291139 2.9 0  2.784810126582279 2.9 0  2.777215189873418 2.9 0  2.769620253164557 2.9 0  2.762025316455697 2.9 0  2.754430379746836 2.9 0  2.746835443037975 2.9 0  2.739240506329114 2.9 0  2.731645569620254 2.9 0  2.724050632911393 2.9 0  2.716455696202532 2.9 0  2.708860759493671 2.9 0  2.701265822784811 2.9 0  2.69367088607595 2.9 0  2.686075949367089 2.9 0  2.678481012658228 2.9 0  2.670886075949368 2.9 0  2.663291139240507 2.9 0  2.655696202531646 2.9 0  2.648101265822786 2.9 0  2.640506329113925 2.9 0  2.632911392405064 2.9 0  2.625316455696203 2.9 0  2.617721518987342 2.9 0  2.610126582278482 2.9 0  2.602531645569621 2.9 0  2.59493670886076 2.9 0  2.587341772151899 2.9 0  2.579746835443038 2.9 0  2.572151898734178 2.9 0  2.564556962025317 2.9 0  2.556962025316456 2.9 0  2.549367088607595 2.9 0  2.541772151898734 2.9 0  2.534177215189874 2.9 0  2.526582278481013 2.9 0  2.518987341772152 2.9 0  2.511392405063292 2.9 0  2.503797468354431 2.9 0  2.49620253164557 2.9 0  2.488607594936709 2.9 0  2.481012658227848 2.9 0  2.473417721518988 2.9 0  2.465822784810127 2.9 0  2.458227848101266 2.9 0  2.450632911392406 2.9 0  2.443037974683545 2.9 0  2.435443037974684 2.9 0  2.427848101265823 2.9 0  2.420253164556962 2.9 0  2.412658227848102 2.9 0  2.405063291139241 2.9 0  2.39746835443038 2.9 0  2.389873417721519 2.9 0  2.382278481012658 2.9 0  2.374683544303798 2.9 0  2.367088607594937 2.9 0  2.359493670886076 2.9 0  2.351898734177215 2.9 0  2.344303797468355 2.9 0  2.336708860759494 2.9 0  2.329113924050633 2.9 0  2.321518987341773 2.9 0  2.313924050632912 2.9 0  2.306329113924051 2.9 0  2.29873417721519 2.9 0  2.291139240506329 2.9 0  2.283544303797469 2.9 0  2.275949367088608 2.9 0  2.268354430379747 2.9 0  2.260759493670887 2.9 0  2.253164556962026 2.9 0  2.245569620253165 2.9 0  2.237974683544304 2.9 0  2.230379746835443 2.9 0  2.222784810126583 2.9 0  2.215189873417722 2.9 0  2.207594936708861 2.9 0  4.96271186440678 2.9 0  4.925423728813559 2.9 0  4.888135593220339 2.9 0  4.850847457627118 2.9 0  4.813559322033898 2.9 0  4.776271186440677 2.9 0  4.738983050847457 2.9 0  4.701694915254237 2.9 0  4.664406779661016 2.9 0  4.627118644067796 2.9 0  4.589830508474575 2.9 0  4.552542372881355 2.9 0  4.515254237288135 2.9 0  4.477966101694914 2.9 0  4.440677966101694 2.9 0  4.403389830508473 2.9 0  4.366101694915252 2.9 0  4.328813559322032 2.9 0  4.291525423728811 2.9 0  4.254237288135591 2.9 0  4.21694915254237 2.9 0  4.17966101694915 2.9 0  4.14237288135593 2.9 0  4.105084745762709 2.9 0  4.067796610169489 2.9 0  4.030508474576268 2.9 0  3.993220338983048 2.9 0  3.955932203389827 2.9 0  3.918644067796607 2.9 0  3.881355932203387 2.9 0  3.844067796610166 2.9 0  3.806779661016946 2.9 0  3.769491525423725 2.9 0  3.732203389830505 2.9 0  3.694915254237285 2.9 0  3.657627118644065 2.9 0  3.620338983050845 2.9 0  3.583050847457625 2.9 0  3.545762711864405 2.9 0  3.508474576271184 2.9 0  3.471186440677964 2.9 0  3.433898305084744 2.9 0  3.396610169491524 2.9 0  3.359322033898303 2.9 0  3.322033898305083 2.9 0  3.284745762711863 2.9 0  3.247457627118643 2.9 0  3.210169491525423 2.9 0  3.172881355932202 2.9 0  3.135593220338982 2.9 0  3.098305084745762 2.9 0  3.061016949152542 2.9 0  3.023728813559321 2.9 0  2.986440677966101 2.9 0  2.949152542372881 2.9 0  2.911864406779661 2.9 0  2.87457627118644 2.9 0  2.83728813559322 2.9 0  5 0.1063822625082082 0  5 0.210636880010749 0  5 0.3128064053694972 0  5 0.4129325400644018 0  5 0.5110561521032336 0  5 0.6072172918830103 0  5 0.7014552087832795 0  5 0.7938083674443693 0  5 0.88431446261646 0  5 0.9730104359544682 0  5 1.059932489996267 0  5 1.145116102913299 0  5 1.228596043483191 0  5 1.310406385079062 0  5 1.390580519944147 0  5 1.469151172477827 0  5 1.546150411986101 0  5 1.621609666658609 0  5 1.695559736099044 0  5 1.76803080383987 0  5 1.839052450169751 0  5 1.908653663631169 0  5 1.97686285289587 0  5 2.043707858613779 0  5 2.109215964341413 0  5 2.173413907925942 0  5 2.236327892833935 0  5 2.297983597762904 0  5 2.35840618845912 0  5 2.41762032730194 0  5 2.475650183444628 0  5 2.532519442457069 0  5 2.588251316112828 0  5 2.642868552557322 0  5 2.696393444426347 0  5 2.748847838312051 0  5 2.800253144313381 0  5 2.850630344319807 0  0.2631578947368421 0 0  0.5263157894736842 0 0  0.7894736842105263 0 0  1.052631578947368 0 0  1.31578947368421 0 0  1.578947368421053 0 0  1.842105263157895 0 0  2.105263157894737 0 0  2.368421052631579 0 0  2.631578947368421 0 0  2.894736842105263 0 0  3.157894736842105 0 0  3.421052631578947 0 0  3.684210526315789 0 0  3.947368421052632 0 0  4.210526315789473 0 0  4.473684210526315 0 0  4.736842105263158 0 0  0 2.850203682350569 0  0 2.799411438503675 0  0 2.747603349778291 0  0 2.694759099502208 0  0 2.640857964382145 0  0 2.58587880633613 0  0 2.52980006535898 0  0 2.472599749459174 0  0 2.414255427218689 0  0 2.35474421880616 0  0 2.294042786119219 0  0 2.232127324764723 0  0 2.1689735539481 0  0 2.104556707683347 0  0 2.038851524813415 0  0 1.971832238155655 0  0 1.903472565412126 0  0 1.83374569926617 0  0 1.762624296208475 0  0 1.690080464918761 0  0 1.616085756774206 0  0 1.540611154706337 0  0 1.463627060685571 0  0 1.385103284916206 0  0 1.305009033716617 0  0 1.223312897337225 0  0 1.139982838163732 0  0 1.054986177579938 0  0 0.9682895835804817 0  0 0.8798590579197976 0  0 0.7896599218415354 0  0 0.6976568029903638 0  0 0.6038136217958798 0  0 0.508093576867624 0  0 0.4104591310957497 0  0 0.3108719963522191 0  0 0.2092931188294389 0  0 0.1056826638508546 0  1.434832105763824 2.866945754981483 0  1.737156300467626 2.870039440267515 0  2.032203389830508 2.867707527316512 0  2.332911392405064 2.893422591869991 0  2.469810913293406 2.891944186606167 0  2.606221408823969 2.892519154985628 0  2.255455320628894 2.892068685006691 0  2.538247299216212 2.894964578182811 0  2.674683544303798 2.893422591869991 0  2.40126582278481 2.893422591869991 0  3.566125247295424 2.865029336199714 0  3.266101694915253 2.867707527316512 0  2.967796610169491 2.867707527316512 0  1.174288529834642 2.870795313888584 0  3.825423728813556 2.867707527316512 0  2.727766680262011 2.892655387647729 0  0.06601655192030442 1.502119107695954 0  4.933983535508361 1.507650792231964 0  0.9532124728485543 2.868722489783638 0  4.048935912500257 2.870640982995992 0  0.05930163367361763 1.866907161167414 0  4.943402512618553 1.871280731473148 0  4.271733870017743 2.86520865624265 0  0.7249420921613114 2.863922936177041 0  0.05494499779910056 2.196469063120752 0  4.947228695426367 2.208030108792719 0  0.5406152150397161 2.866493807382013 0  4.459322033898304 2.868847558178794 0  2.18135593220339 2.875780645487384 0  2.817027156509632 2.876587550645167 0  4.928427208322876 1.186856073198245 0  0.07189226971603224 1.174626666111662 0  4.610299014423113 2.867003104093161 0  0.3897270066746357 2.869433095314657 0  1.581132500042262 2.868247328632392 0  1.887637879411437 2.869235851794358 0  3.413449426418068 2.867372048034327 0  3.116721298814773 2.865731235547652 0  2.644303797468355 2.893422591869991 0  2.370983221828106 2.892719513369796 0  2.302531645569621 2.893336787387268 0  2.758987341772152 2.894242393897099 0  0.04979653335696277 2.443411216910286 0  4.950470983477169 2.446866954595817 0  2.482937483021586 0.2513241087417575 0  1.707129504814338 0.1999998659920923 0  3.28584657955054 0.229200625631625 0  4.907807122600524 0.834082362900164 0  4.757627118644067 2.867707527316512 0  0.0773489124676745 0.8347594898806663 0  0.2390604736599387 2.861365431805741 0  0.8363213715215729 2.863896768908178 0  4.160865610207075 2.868916854015731 0  1.282549332053297 2.867610952980761 0  1.065094818402487 2.861284686038041 0  3.93818127737282 2.86865134411395 0  3.711492629432973 2.863574306925269 0  4.91369361998929 0.5579891344254361 0  0.08208328472281323 0.5559535993317519 0  2.696596932532885 2.892010483922337 0  0.04706410140274553 2.613055974506516 0  4.955577063972248 2.616518038840186 0  2.234177215189874 2.893422591869991 0  2.279795840559739 2.89403861893984 0  0.9117357887652362 0.2117925286661764 0  4.055948041993057 0.2039101057937727 0  4.872119713780579 2.867632926423075 0  2.780113878992455 2.891535929611743 0  0.1327442468251063 2.85
[...]
<CellData  Scalars="Plastic strain"> 
<DataArray  type="Float64"  Name="Plastic strain"  format="ascii">1.7223081197136003e-02   2.4392026384798629e-03   0.0000000000000000e+00   -4.4929118042704997e-17   -2.9282926408624054e-17   -2.6551403758186769e-17   0.0000000000000000e+00   3.8635528465381230e-17   2.3763076798896907e-17   0.0000000000000000e+00   3.0089904965995536e-03   1.0782020318179594e-03   9.3303539378127216e-04   3.0533723387327731e-02   0.0000000000000000e+00   0.0000000000000000e+00   -3.0318243356409395e-17   1.5188601527770018e-02   0.0000000000000000e+00   0.0000000000000000e+00   0.0000000000000000e+00   3.5039553860344207e-02   8.3417650964092078e-04   3.3644295490278649e-17   0.0000000000000000e+00   8.8156985809798743e-04   0.0000000000000000e+00   5.9167447834377572e-03   0.0000000000000000e+00   2.7814073134271922e-17   4.9337545555316643e-03   0.0000000000000000e+00   -2.6592081256504943e-17   4.0522305846824357e-03   3.5757502173717017e-02   3.5552715970657362e-17   0.0000000000000000e+00   2.6767488687298112e-03   3.1437867876618954e-17   0.0000000000000000e+00   0.0000000000000000e+00   0.0000000000000000e+00   1.6985104010340457e-03   0.0000000000000000e+00   -3.6463710810191935e-17   -2.3741752805082865e-17   3.4513528094763835e-03   3.4134101315432654e-17   0.0000000000000000e+00   0.0000000000000000e+00   0.0000000000000000e+00   0.0000000000000000e+00   -2.6974829376684686e-17   0.0000000000000000e+00   0.0000000000000000e+00   7.2333855981945141e-03   4.7777854928098109e-03   0.0000000000000000e+00   2.6194434684137127e-03   1.5336967961700689e-03   -4.3559381370192419e-17   0.0000000000000000e+00   1.7504889012929759e-03   -2.7095629574213075e-17   0.0000000000000000e+00   0.0000000000000000e+00   2.0029944830675685e-02   -2.6430683922483588e-17   -2.8831870133048677e-17   0.0000000000000000e+00   0.0000000000000000e+00   0.0000000000000000e+00   4.4733690859755145e-03   3.0272009262853203e-17   0.0000000000000000e+00   0.0000000000000000e+00   0.0000000000000000e+00   0.0000000000000000e+00   8.5080120827559413e-04   -2.9926930501977602e-17   0.0000000000000000e+00   0.0000000000000000e+00   7.0615258430057780e-04   3.1863860473072248e-03   0.0000000000000000e+00   3.5500100774172141e-17   -2.2508405648147008e-17   2.5943012319248442e-03   4.4540366844000511e-03   -3.3674027082813156e-17   2.7426600007640512e-03   2.3352074436363440e-17   9.6968063463083356e-04   0.0000000000000000e+00   0.0000000000000000e+00   -4.2551262041316460e-17   2.8869919286252320e-17   3.5540480956057608e-17   0.0000000000000000e+00   0.0000000000000000e+00   4.4627185508749721e-17   0.0000000000000000e+00   0.0000000000000000e+00   0.0000000000000000e+00   1.9519822711887226e-03   -3.0262090310243473e-17   1.3424912952657480e-03   7.6048115442956454e-03   0.0000000000000000e+00   1.5609702942565175e-02   3.0817690502671809e-03   4.1683204037789336e-02   0.0000000000000000e+00   1.3353342908128301e-03   -3.3391657705508382e-17   0.0000000000000000e+00   0.0000000000000000e+00   1.1904800864930964e-01   2.3622673157826864e-03   0.0000000000000000e+00   1.5966800464338805e-03   0.0000000000000000e+00   0.0000000000000000e+00   0.0000000000000000e+00   3.8711403266634267e-17   2.9376206754549569e-17   0.0000000000000000e+00   2.8876851142760850e-02   3.1724942785359436e-17   8.4298146460676975e-04   0.0000000000000000e+00   1.3692530652168676e-02   1.6589399502602211e-02   0.0000000000000000e+00   4.2244162380624499e-03   1.7221323634895123e-02   5.8609901151487238e-03   0.0000000000000000e+00   1.8486013353531954e-03   3.4783909663868556e-17   7.0138592706221053e-04   0.0000000000000000e+00   0.0000000000000000e+00   7.4561434250811090e-02   1.8648654709369139e-03   0.0000000000000000e+00   0.0000000000000000e+00   0.0000000000000000e+00   3.8571606205094362e-17   -2.6662759646936976e-17   5.5192227606605651e-05   4.2499323843738658e-17   -3.4703844167043828e-17   3.8888701827067720e-03   0.0000000000000000e+00   0.0000000000000000e+00   3.6473041625134555e-03   0.0000000000000000e+00   0.0000000000000000e+00   1.6840267982999228e-03   4.6783319808121919e-03   0.0000000000000000e+00   1.5411940358623694e-02   7.9703185468939968e-04   -3.9348030301588751e-17   0.0000000000000000e+00   1.8032069555023642e-03   1.7520142533478226e-02   1.5662964610942541e-03   2.3362688477919025e-17   2.3382364664920045e-02   0.0000000000000000e+00   0.0000000000000000e+00   2.7685785557832809e-17   0.0000000000000000e+00   1.6199016378684827e-02   1.9172353151589493e-03   4.2877658585443956e-02   0.0000000000000000e+00   1.8059289987382470e-02   0.0000000000000000e+00   2.7248922058363045e-02   0.0000000000000000e+00   -3.6671753490469481e-17   0.0000000000000000e+00   3.1121059613128722e-17   4.6052836103062334e-03   0.0000000000000000e+00   0.0000000000000000e+00   6.4573980107181170e-03   2.5274011956849364e-17   -3.1456768367231586e-17   0.0000000000000000e+00   3.1288062407294320e-17   1.8407183776610773e-02   1.4894508130046686e-03   2.5222701491457787e-03   2.0017060073934025e-04   0.0000000000000000e+00   0.0000000000000000e+00   1.0666225748037349e-03   0.0000000000000000e+00   0.0000000000000000e+00   3.8273370422464534e-03   1.7804972859332680e-02   -2.7813352688760113e-17   -2.2555977641920739e-17   3.0177335881811784e-05   -3.5072761684706169e-17   3.1223127653619583e-17   1.4822757417595931e-03   2.5468699920480429e-03   3.4736219152776775e-17   0.0000000000000000e+00   9.8549927018196960e-04   -2.8811061896757141e-17   3.2015712927914702e-03   0.0000000000000000e+00   0.0000000000000000e+00   -3.7041524956779127e-17   -3.8463227186181584e-17   8.6438452522089330e-04   1.6624096321492868e-03   0.0000000000000000e+00   3.1035248818595978e-03   4.9633108748681183e-03   0.0000000000000000e+00   0.0000000000000000e+00   0.0000000000000000e+00   0.0000000000000000e+00   0.0000000000000000e+00   0.0000000000000000e+00   2.7697633357139285e-17   4.2006381770088077e-17   -3.3943644706726746e-17   1.9020767631895599e-01   0.0000000000000000e+00   2.6115394510369970e-17   0.0000000000000000e+00   3.4247941558590705e-03   3.3789627815901576e-17   0.0000000000000000e+00   7.3401071853416822e-02   5.8275207395072229e-03   2.7606796295388480e-03   9.4569448486028047e-04   5.7698530657727702e-03   0.0000000000000000e+00   3.7006535194897797e-03   5.2210381560211872e-03   0.0000000000000000e+00   0.0000000000000000e+00   0.0000000000000000e+00   0.0000000000000000e+00   0.0000000000000000e+00   1.1457734320696150e-03   0.0000000000000000e+00   0.0000000000000000e+00   -4.1899893974164281e-17   1.4920799540830455e-02   2.3269938556637277e-17   3.2879116385272891e-17   9.5009865516484905e-04   0.0000000000000000e+00   1.7021941985248226e-03   9.9342504909932711e-02   4.0341139749890684e-04   0.0000000000000000e+00   2.1636441935664441e-02   2.3560480340733335e-03   0.0000000000000000e+00   -3.1174757199311525e-17   2.0326777917297574e-03   -2.9533902761922438e-17   1.1730408145086395e-03   0.0000000000000000e+00   1.7130807965913673e-02   0.0000000000000000e+00   0.0000000000000000e+00   3.1888926283930252e-17   2.4887881617604145e-17   0.0000000000000000e+00   0.0000000000000000e+00   2.4448075328559310e-17   0.0000000000000000e+00   3.2484333257984115e-17   1.0905460391429074e-03   0.0000000000000000e+00   0.0000000000000000e+00   1.4204737924139086e-03   0.0000000000000000e+00   -3.6344155187211447e-17   7.7513749775264256e-05   6.2573521474801829e-04   5.3455222390234097e-03   0.0000000000000000e+00   3.7282109522651738e-17   2.5828576014946277e-17   5.1834202978492247e-03   0.0000000000000000e+00   0.0000000000000000e+00   5.3426997873231505e-02   3.1547781214910957e-17   2.8848598334400554e-17   3.8526185733402348e-17   0.0000000000000000e+00   0.0000000000000000e+00   0.0000000000000000e+00   3.3553767626623806e-04   0.0000000000000000e+00   0.0000000000000000e+00   4.4767045540984810e-17   0.0000000000000000e+00   0.0000000000000000e+00   0.0000000000000000e+00   3.6384964264258294e-17   1.3676125595333450e-03   1.0539414105083641e-03   0.0000000000000000e+00   0.0000000000000000e+00   1.9800833299610803e-03   2.9321321720497955e-03   0.0000000000000000e+00   2.4379709695419934e-03   0.0000000000000000e+00   0.0000000000000000e+00   0.0000000000000000e+00   0.0000000000000000e+00   9.3427669404643459e-03   1.8173432609669869e-03   0.0000000000000000e+00   1.8554101602260545e-03   8.6890605269338461e-04   4.1877872123596361e-03   3.6397335047030615e-03   0.0000000000000000e+00   2.8706916623429880e-03   0.0000000000000000e+00   0.0000000000000000e+00   2.6266137894988958e-03   2.8494438475163434e-04   3.7109245448844039e-17   3.6582438040836448e-17   0.0000000000000000e+00   3.6021999945044919e-17   0.0000000000000000e+00   3.1240185515997746e-04   0.0000000000000000e+00   0.0000000000000000e+00   1.4380589447455050e-03   0.0000000000000000e+00   3.5859396435707486e-17   3.3627848722148517e-17   0.0000000000000000e+00   2.7296439310872740e-03   0.0000000000000000e+00   0.0000000000000000e+00   0.0000000000000000e+00   -2.9817426888569096e-17   2.7062145977953090e-17   3.5813133572621328e-17   0.0000000000000000e+00   -3.9715781015978252e-17   0.0000000000000000e+00   -2.5929660829493062e-17   3.2362666392809823e-17   -2.7848038312804382e-17   0.0000000000000000e+00   0.0000000000000000e+00   2.3696864634003434e-01   9.9695582128101856e-04   0.0000000000000000e+00   -3.1573121441470155e-17   0.0000000000000000e+00   5.1362884092699245e-03   0.0000000000000000e+00   -2.6682170217329741e-17   2.3829518917324273e-17   -2.3907811646320581e-17   3.2706663681328365e-03   0.0000000000000000e+00   0.0000000000000000e+00   5.2349818188082362e-03   0.0000000000000000e+00   8.6834397929902842e-04   -2.6546841036261105e-17   0.0000000000000000e+00   2.8589166867776298e-02   2.0358276739790862e-02   0.0000000000000000e+00   0.0000000000000000e+00   0.0000000000000000e+00   2.3127352401736477e-17   0.0000000000000000e+00   0.0000000000000000e+00   1.2696743910096536e-03   1.2779296176924184e-03   3.3553077829393196e-17   -3.3686720876874798e-17   4.2523200117993865e-03   0.0000000000000000e+00   0.0000000000000000e+00   0.0000000000000000e+00   -3.2955835151115663e-17   9.2228330733464502e-03   0.0000000000000000e+00   1.4838930049261439e-02   0.0000000000000000e+00   3.0722861359013853e-17   -3.2665770974884882e-17   1.0178387650862392e-03   2.4783568540263897e-03   0.0000000000000000e+00   1.9494949989491128e-03   2.5699853724704644e-17   0.0000000000000000e+00   1.0995040322060806e-02   0.0000000000000000e+00   0.0000000000000000e+00   3.3800400524575490e-17   0.0000000000000000e+00   0.0000000000000000e+00   3.4107295372620989e-03   6.3959941551276168e-03   9.4752229498941604e-02   0.0000000000000000e+00   6.3149237086034451e-03   0.0000000000000000e+00   0.0000000000000000e+00   -3.5085174568237143e-17   -2.7324922736952446e-17   0.0000000000000000e+00   -3.0740798159719537e-17   2.3501677672512195e-17   -3.4933445476567590e-17   -3.0928005622173807e-17   4.5487061747254238e-03   -2.7412768726678876e-17   -3.2170363227011452e-17   3.7093845943249222e-03   -4.1383481821887556e-17   5.7169695889419954e-02   0.0000000000000000e+00   5.4939125137788286e-03   3.4401177973850555e-03   0.0000000000000000e+00   6.8320742782488676e-04   2.7469683079160668e-17   0.0000000000000000e+00   0.0000000000000000e+00   0.0000000000000000e+00   1.4483712604566974e-03   -3.7845929186516756e-17   4.2958495962877402e-02   1.0001591357494772e-02   -3.5600841054581113e-17   -4.2087840962037128e-17   0.0000000000000000e+00   2.0467135064377615e-02   8.7857655157991385e-04   7.0038607097542629e-03   8.5725799282198190e-03   1.9001367303379296e-03   0.0000000000000000e+00   2.8496326065645255e-17   3.4513099439992526e-17   2.7868970342498357e-17   0.0000000000000000e+00   0.0000000000000000e+00   0.0000000000000000e+00   3.9210385967384891e-17   3.1794181468588111e-02   2.2946071902484145e-17   1.5799803340311772e-03   5.2371567631932508e-17   0.0000000000000000e+00   4.9999066046176373e-03   0.0000000000000000e+00   5.6014768893275215e-03   0.0000000000000000e+00   0.0000000000000000e+00   0.0000000000000000e+00   4.4016656932406791e-17   0.0000000000000000e+00   5.3243859066798597e-03   6.9671278505002352e-04   -4.0696170977153665e-17   0.0000000000000000e+00   1.7354316505686757e-03   5.9815685644152797e-03   2.1216862884089943e-02   3.2440776309105705e-03   2.7492867551686267e-17   -3.4876107885923300e-17   9.1084472468528476e-03   0.0000000000000000e+00   0.0000000000000000e+00   -4.3500626710394647e-17   4.0579723081630478e-17   0.0000000000000000e+00   0.0000000000000000e+00   -3.7033289456953872e-17   7.9193617524040069e-03   2.3057875707005950e-03   0.0000000000000000e+00   7.8043934631659407e-04   0.0000000000000000e+00   8.0445604857189851e-04   2.8187145487974245e-03   1.5209855765950244e-03   -2.8878716534930812e-17   1.1635776739276568e-03   0.0000000000000000e+00   4.5830072303260274e-03   9.0452244436185910e-04   3.7516471201331551e-17   8.8143804209258388e-04   0.0000000000000000e+00   0.0000000000000000e+00   0.0000000000000000e+00   -2.8452987369066454e-17   -3.3212525752431176e-17   3.5068151659407608e-17   1.5676921578616622e-03   2.9144187848200369e-03   1.1407472742576467e-03   1.1946596916555639e-02   0.0000000000000000e+00   2.0949397040635039e-02   0.0000000000000000e+00   1.5648960089560814e-02   7.1605363293562154e-03   0.0000000000000000e+00   0.0000000000000000e+00   2.1792901979272544e-03   4.2172292053365180e-03   1.7997895933778253e-02   -3.5888584857511991e-17   1.2175612185335867e-03   3.4294824231455531e-03   1.1336501100208494e-03   0.0000000000000000e+00   2.4581197365725936e-17   3.2672922449007649e-17   2.8919981405966664e-17   1.4860885493356889e-03   6.1077460695203763e-02   0.0000000000000000e+00   0.0000000000000000e+00   9.1558403584792814e-04   0.0000000000000000e+00   0.0000000000000000e+00   0.0000000000000000e+00   4.9951982263903204e-02   8.8242789337392602e-04   3.3987928343393713e-03   0.0000000000000000e+00   8.9829400237408335e-04   1.5111981430456462e-02   0.0000000000000000e+00   1.2897428186259469e-02   0.0000000000000000e+00   -3.1230647280774179e-17   0.0000000000000000e+00   2.8115477654939401e-02   0.0000000000000000e+00   2.4400767821632311e-02   -2.4258537018103532e-17   0.0000000000000000e+00   0.0000000000000000e+00   8.5237309442551506e-04   0.0000000000000000e+00   2.9260417044447783e-17   0.0000000000000000e+00   2.7353695301223274e-17   0.0000000000000000e+00   3.6935176139494758e-17   5.6849225868670838e-03   -2.7816987415725036e-17   0.0000000000000000e+00   3.7556938810046176e-06   2.9085878339548700e-04   2.2101576216436759e-02   -3.5318072888894469e-17   -3.4180621233820396e-17   0.0000000000000000e+00   -6.5323480034511638e-17   0.0000000000000000e+00   0.0000000000000000e+00   2.1826423611028584e-03   2.1908484068316955e-02   0.0000000000000000e+00   0.0000000000000000e+00   1.4539384328975402e-03   0.0000000000000000e+00   3.0431511787068662e-03   0.0000000000000000e+00   -2.2649058868652620e-17   1.8500913139540498e-02   2.8478408055750636e-03   4.4726452425749965e-03   9.0701286728263001e-03   3.2429890350058428e-03   4.0761371940240518e-17   1.7273723179465010e-02   9.6429090990963909e-04   0.0000000000000000e+00   2.4503808098035975e-17   3.5928987810290112e-03   4.6566959899420127e-03   0.0000000000000000e+00   6.4109074462375207e-04   0.0000000000000000e+00   0.0000000000000000e+00   0.0000000000000000e+00   0.0000000000000000e+00   0.0000000000000000e+00   0.0000000000000000e+00   1.7890122471381110e-03   0.0000000000000000e+00   0.0000000000000000e+00   2.1697904067620060e-03   -2.5574957203989051e-17   -3.1285600123977395e-17   0.0000000000000000e+00   2.3489870712692078e-03   0.0000000000000000e+00   -2.2655370273408210e-17   7.2585709046378233e-02   0.0000000000000000e+00   0.0000000000000000e+00   0.0000000000000000e+00   0.0000000000000000e+00   2.3451241953048381e-17   0.0000000000000000e+00   3.3274582669823323e-17   1.3184204893751694e-02   -2.8234551460385695e-17   2.4734758332229396e-03   1.0018328708546241e-03   0.0000000000000000e+00   0.0000000000000000e+00   0.0000000000000000e+00   3.7618925866528219e-05   0.0000000000000000e+00   0.0000000000000000e+00   3.4508753951782200e-03   2.9499424429464120e-02   0.0000000000000000e+00   2.3133497831818576e-17   -3.4990020194792695e-17   0.0000000000000000e+00   4.5112411729442831e-02   -3.2518748801790419e-17   1.7233473921872604e-03   0.0000000000000000e+00   0.0000000000000000e+00   0.0000000000000000e+00   -2.6142110514497585e-17   6.1977831291514206e-02   0.0000000000000000e+00   1.4104937319818803e-02   8.9588133844615905e-03   0.0000000000000000e+00   0.0000000000000000e+00   0.0000000000000000e+00   0.0000000000000000e+00   4.8505772838610857e-03   8.2254922356842577e-02   2.4422025059716887e-03   0.0000000000000000e+00   2.6496786421787858e-03   -3.1071449270832251e-17   5.4729158648830064e-03   2.6307422672829563e-03   0.0000000000000000e+00   1.6191289993927504e-02   -3.2897863835840773e-17   1.1396464923724866e-02   5.0786223564250133e-03   -3.3585565920162918e-17   -3.2936040222061143e-17   0.0000000000000000e+00   1.5987468079298479e-03   2.4383840470289228e-17   0.0000000000000000e+00   1.9423731810704551e-03   3.4905958913867617e-03   -2.4747343760327335e-17   0.0000000000000000e+00   1.0201549479824884e-02   0.0000000000000000e+00   3.5185165351734422e-03   0.0000000000000000e+00   1.2701065993956061e-03   2.5069622005778475e-02   3.0097746685906402e-17   0.0000000000000000e+00   2.8694452425880198e-17   -2.8407876617429651e-17   3.7821257232057851e-03   2.9440954525234872e-17   2.8514242768184334e-17   0.0000000000000000e+00   0.0000000000000000e+00   2.3462492657347891e-03   1.3549439264708986e-02   0.0000000000000000e+00   0.0000000000000000e+00   -4.5003377414606756e-17   -3.0265807980960506e-17   0.0000000000000000e+00   4.6202741220857831e-03   8.3674242306485472e-03   7.3079917686852347e-02   0.0000000000000000e+00   0.0000000000000000e+00   8.7584458741757874e-03   3.4018332338938122e-17   0.0000000000000000e+00   6.1469495063576325e-03   8.4779606551984405e-04   0.0000000000000000e+00   0.0000000000000000e+00   -3.7661604399220667e-17   -2.4317912717697772e-17   0.0000000000000000e+00   1.1735524183153203e-03   -3.3091646550525515e-17   0.0000000000000000e+00   1.8653832201289716e-02   0.0000000000000000e+00   9.9270147769464179e-04   0.0000000000000000e+00   4.5820166664867218e-17   0.0000000000000000e+00   5.4430710891214774e-03   5.8403310572361377e-05   0.0000000000000000e+00   0.0000000000000000e+00   0.0000000000000000e+00   0.0000000000000000e+00   -4.4129308727590967e-17   3.4948021013260565e-03   0.0000000000000000e+00   -2.8240484787535762e-17   0.0000000000000000e+00   1.1764096120889762e-02   9.7006580393922386e-03   1.9655741597024792e-02   0.0000000000000000e+00   1.4528864257406099e-03   2.7863044794924885e-03   2.0639373884834738e-03   1.5555945272323905e-03   3.7464888690538251e-17   0.0000000000000000e+00   1.5726649147514624e-03   0.0000000000000000e+00   0.0000000000000000e+00   0.0000000000000000e+00   2.3407866233743743e-17   2.4440705659882437e-03   -3.9385970139841301e-17   2.0588888505647569e-02   3.8829241703572466e-17   2.3486864094136534e-17   5.5144861974763475e-02   1.4393263618719219e-03   3.3506574830212846e-17   0.0000000000000000e+00   7.9860989063171919e-03   1.9970430358423425e-03   0.0000000000000000e+00   1.3086189572491442e-03   0.0000000000000000e+00   2.7823387108331061e-17   0.0000000000000000e+00   0.0000000000000000e+00   0.0000000000000000e+00   0.0000000000000000e+00   1.0526456523381970e-02   0.0000000000000000e+00   0.0000000000000000e+00   0.0000000000000000e+00   0.0000000000000000e+00   0.0000000000000000e+00   1.5498046219298078e-02   2.6183518640587407e-17   1.2281036364661935e-03   -2.8212233518866305e-17   -2.9089593875980964e-17   3.