<?xml version="1.0"?>
<VTKFile type="UnstructuredGrid"  version="0.1"  >
<UnstructuredGrid>
<Piece  NumberOfPoints="3167" NumberOfCells="6038">
<Points>
<DataArray  type="Float64"  NumberOfComponents="3"  format="ascii">2.2 2.9 0  0 2.9 0  2.8 2.9 0  5 2.9 0  5 0 0  0 0 0  2.16271186440678 2.9 0  2.125423728813559 2.9 0  2.088135593220339 2.9 0  2.050847457627119 2.9 0  2.013559322033898 2.9 0  1.976271186440678 2.9 0  1.938983050847457 2.9 0  1.901694915254237 2.9 0  1.864406779661016 2.9 0  1.827118644067796 2.9 0  1.789830508474575 2.9 0  1.752542372881355 2.9 0  1.715254237288134 2.9 0  1.677966101694914 2.9 0  1.640677966101693 2.9 0  1.603389830508473 2.9 0  1.566101694915253 2.9 0  1.528813559322032 2.9 0  1.491525423728812 2.9 0  1.454237288135591 2.9 0  1.416949152542371 2.9 0  1.37966101694915 2.9 0  1.34237288135593 2.9 0  1.305084745762709 2.9 0  1.267796610169489 2.9 0  1.230508474576268 2.9 0  1.193220338983048 2.9 0  1.155932203389827 2.9 0  1.118644067796607 2.9 0  1.081355932203387 2.9 0  1.044067796610166 2.9 0  1.006779661016946 2.9 0  0.9694915254237257 2.9 0  0.9322033898305055 2.9 0  0.8949152542372856 2.9 0  0.8576271186440652 2.9 0  0.820338983050845 2.9 0  0.783050847457625 2.9 0  0.7457627118644048 2.9 0  0.7084745762711844 2.9 0  0.6711864406779642 2.9 0  0.633898305084744 2.9 0  0.5966101694915238 2.9 0  0.5593220338983036 2.9 0  0.5220338983050834 2.9 0  0.4847457627118632 2.9 0  0.447457627118643 2.9 0  0.4101694915254228 2.9 0  0.3728813559322024 2.9 0  0.3355932203389822 2.9 0  0.2983050847457622 2.9 0  0.2610169491525418 2.9 0  0.2237288135593216 2.9 0  0.1864406779661016 2.9 0  0.1491525423728812 2.9 0  0.1118644067796613 2.9 0  0.07457627118644039 2.9 0  0.03728813559321997 2.9 0  2.792405063291139 2.9 0  2.784810126582279 2.9 0  2.777215189873418 2.9 0  2.769620253164557 2.9 0  2.762025316455697 2.9 0  2.754430379746836 2.9 0  2.746835443037975 2.9 0  2.739240506329114 2.9 0  2.731645569620254 2.9 0  2.724050632911393 2.9 0  2.716455696202532 2.9 0  2.708860759493671 2.9 0  2.701265822784811 2.9 0  2.69367088607595 2.9 0  2.686075949367089 2.9 0  2.678481012658228 2.9 0  2.670886075949368 2.9 0  2.663291139240507 2.9 0  2.655696202531646 2.9 0  2.648101265822786 2.9 0  2.640506329113925 2.9 0  2.632911392405064 2.9 0  2.625316455696203 2.9 0  2.617721518987342 2.9 0  2.610126582278482 2.9 0  2.602531645569621 2.9 0  2.59493670886076 2.9 0  2.587341772151899 2.9 0  2.579746835443038 2.9 0  2.572151898734178 2.9 0  2.564556962025317 2.9 0  2.556962025316456 2.9 0  2.549367088607595 2.9 0  2.541772151898734 2.9 0  2.534177215189874 2.9 0  2.526582278481013 2.9 0  2.518987341772152 2.9 0  2.511392405063292 2.9 0  2.503797468354431 2.9 0  2.49620253164557 2.9 0  2.488607594936709 2.9 0  2.481012658227848 2.9 0  2.473417721518988 2.9 0  2.465822784810127 2.9 0  2.458227848101266 2.9 0  2.450632911392406 2.9 0  2.443037974683545 2.9 0  2.435443037974684 2.9 0  2.427848101265823 2.9 0  2.420253164556962 2.9 0  2.412658227848102 2.9 0  2.405063291139241 2.9 0  2.39746835443038 2.9 0  2.389873417721519 2.9 0  2.382278481012658 2.9 0  2.374683544303798 2.9 0  2.367088607594937 2.9 0  2.359493670886076 2.9 0  2.351898734177215 2.9 0  2.344303797468355 2.9 0  2.336708860759494 2.9 0  2.329113924050633 2.9 0  2.321518987341773 2.9 0  2.313924050632912 2.9 0  2.306329113924051 2.9 0  2.29873417721519 2.9 0  2.291139240506329 2.9 0  2.283544303797469 2.9 0  2.275949367088608 2.9 0  2.268354430379747 2.9 0  2.260759493670887 2.9 0  2.253164556962026 2.9 0  2.245569620253165 2.9 0  2.237974683544304 2.9 0  2.230379746835443 2.9 0  2.222784810126583 2.9 0  2.215189873417722 2.9 0  2.207594936708861 2.9 0  4.96271186440678 2.9 0  4.925423728813559 2.9 0  4.888135593220339 2.9 0  4.850847457627118 2.9 0  4.813559322033898 2.9 0  4.776271186440677 2.9 0  4.738983050847457 2.9 0  4.701694915254237 2.9 0  4.664406779661016 2.9 0  4.627118644067796 2.9 0  4.589830508474575 2.9 0  4.552542372881355 2.9 0  4.515254237288135 2.9 0  4.477966101694914 2.9 0  4.440677966101694 2.9 0  4.403389830508473 2.9 0  4.366101694915252 2.9 0  4.328813559322032 2.9 0  4.291525423728811 2.9 0  4.254237288135591 2.9 0  4.21694915254237 2.9 0  4.17966101694915 2.9 0  4.14237288135593 2.9 0  4.105084745762709 2.9 0  4.067796610169489 2.9 0  4.030508474576268 2.9 0  3.993220338983048 2.9 0  3.955932203389827 2.9 0  3.918644067796607 2.9 0  3.881355932203387 2.9 0  3.844067796610166 2.9 0  3.806779661016946 2.9 0  3.769491525423725 2.9 0  3.732203389830505 2.9 0  3.694915254237285 2.9 0  3.657627118644065 2.9 0  3.620338983050845 2.9 0  3.583050847457625 2.9 0  3.545762711864405 2.9 0  3.508474576271184 2.9 0  3.471186440677964 2.9 0  3.433898305084744 2.9 0  3.396610169491524 2.9 0  3.359322033898303 2.9 0  3.322033898305083 2.9 0  3.284745762711863 2.9 0  3.247457627118643 2.9 0  3.210169491525423 2.9 0  3.172881355932202 2.9 0  3.135593220338982 2.9 0  3.098305084745762 2.9 0  3.061016949152542 2.9 0  3.023728813559321 2.9 0  2.986440677966101 2.9 0  2.949152542372881 2.9 0  2.911864406779661 2.9 0  2.87457627118644 2.9 0  2.83728813559322 2.9 0  5 0.1063822625082082 0  5 0.210636880010749 0  5 0.3128064053694972 0  5 0.4129325400644018 0  5 0.5110561521032336 0  5 0.6072172918830103 0  5 0.7014552087832795 0  5 0.7938083674443693 0  5 0.88431446261646 0  5 0.9730104359544682 0  5 1.059932489996267 0  5 1.145116102913299 0  5 1.228596043483191 0  5 1.310406385079062 0  5 1.390580519944147 0  5 1.469151172477827 0  5 1.546150411986101 0  5 1.621609666658609 0  5 1.695559736099044 0  5 1.76803080383987 0  5 1.839052450169751 0  5 1.908653663631169 0  5 1.97686285289587 0  5 2.043707858613779 0  5 2.109215964341413 0  5 2.173413907925942 0  5 2.236327892833935 0  5 2.297983597762904 0  5 2.35840618845912 0  5 2.41762032730194 0  5 2.475650183444628 0  5 2.532519442457069 0  5 2.588251316112828 0  5 2.642868552557322 0  5 2.696393444426347 0  5 2.748847838312051 0  5 2.800253144313381 0  5 2.850630344319807 0  0.2631578947368421 0 0  0.5263157894736842 0 0  0.7894736842105263 0 0  1.052631578947368 0 0  1.31578947368421 0 0  1.578947368421053 0 0  1.842105263157895 0 0  2.105263157894737 0 0  2.368421052631579 0 0  2.631578947368421 0 0  2.894736842105263 0 0  3.157894736842105 0 0  3.421052631578947 0 0  3.684210526315789 0 0  3.947368421052632 0 0  4.210526315789473 0 0  4.473684210526315 0 0  4.736842105263158 0 0  0 2.850203682350569 0  0 2.799411438503675 0  0 2.747603349778291 0  0 2.694759099502208 0  0 2.640857964382145 0  0 2.58587880633613 0  0 2.52980006535898 0  0 2.472599749459174 0  0 2.414255427218689 0  0 2.35474421880616 0  0 2.294042786119219 0  0 2.232127324764723 0  0 2.1689735539481 0  0 2.104556707683347 0  0 2.038851524813415 0  0 1.971832238155655 0  0 1.903472565412126 0  0 1.83374569926617 0  0 1.762624296208475 0  0 1.690080464918761 0  0 1.616085756774206 0  0 1.540611154706337 0  0 1.463627060685571 0  0 1.385103284916206 0  0 1.305009033716617 0  0 1.223312897337225 0  0 1.139982838163732 0  0 1.054986177579938 0  0 0.9682895835804817 0  0 0.8798590579197976 0  0 0.7896599218415354 0  0 0.6976568029903638 0  0 0.6038136217958798 0  0 0.508093576867624 0  0 0.4104591310957497 0  0 0.3108719963522191 0  0 0.2092931188294389 0  0 0.1056826638508546 0  1.434832105763824 2.866945754981483 0  1.737156300467626 2.870039440267515 0  2.032203389830508 2.867707527316512 0  2.332911392405064 2.893422591869991 0  2.469810913293406 2.891944186606167 0  2.606221408823969 2.892519154985628 0  2.255455320628894 2.892068685006691 0  2.538247299216212 2.894964578182811 0  2.674683544303798 2.893422591869991 0  2.40126582278481 2.893422591869991 0  3.566125247295424 2.865029336199714 0  3.266101694915253 2.867707527316512 0  2.967796610169491 2.867707527316512 0  1.174288529834642 2.870795313888584 0  3.825423728813556 2.867707527316512 0  2.727766680262011 2.892655387647729 0  0.06601655192030442 1.502119107695954 0  4.933983535508361 1.507650792231964 0  0.9532124728485543 2.868722489783638 0  4.048935912500257 2.870640982995992 0  0.05930163367361763 1.866907161167414 0  4.943402512618553 1.871280731473148 0  4.271733870017743 2.86520865624265 0  0.7249420921613114 2.863922936177041 0  0.05494499779910056 2.196469063120752 0  4.947228695426367 2.208030108792719 0  0.5406152150397161 2.866493807382013 0  4.459322033898304 2.868847558178794 0  2.18135593220339 2.875780645487384 0  2.817027156509632 2.876587550645167 0  4.928427208322876 1.186856073198245 0  0.07189226971603224 1.174626666111662 0  4.610299014423113 2.867003104093161 0  0.3897270066746357 2.869433095314657 0  1.581132500042262 2.868247328632392 0  1.887637879411437 2.869235851794358 0  3.413449426418068 2.867372048034327 0  3.116721298814773 2.865731235547652 0  2.644303797468355 2.893422591869991 0  2.370983221828106 2.892719513369796 0  2.302531645569621 2.893336787387268 0  2.758987341772152 2.894242393897099 0  0.04979653335696277 2.443411216910286 0  4.950470983477169 2.446866954595817 0  2.482937483021586 0.2513241087417575 0  1.707129504814338 0.1999998659920923 0  3.28584657955054 0.229200625631625 0  4.907807122600524 0.834082362900164 0  4.757627118644067 2.867707527316512 0  0.0773489124676745 0.8347594898806663 0  0.2390604736599387 2.861365431805741 0  0.8363213715215729 2.863896768908178 0  4.160865610207075 2.868916854015731 0  1.282549332053297 2.867610952980761 0  1.065094818402487 2.861284686038041 0  3.93818127737282 2.86865134411395 0  3.711492629432973 2.863574306925269 0  4.91369361998929 0.5579891344254361 0  0.08208328472281323 0.5559535993317519 0  2.696596932532885 2.892010483922337 0  0.04706410140274553 2.613055974506516 0  4.955577063972248 2.616518038840186 0  2.234177215189874 2.893422591869991 0  2.279795840559739 2.89403861893984 0  0.9117357887652362 0.2117925286661764 0  4.055948041993057 0.2039101057937727 0  4.872119713780579 2.867632926423075 0  2.780113878992455 2.891535929611743 0  0.1327442468251063 2.85
[...]
<PointData  Vectors="displacement"> 
<DataArray  type="Float64"  Name="displacement"  NumberOfComponents="3" format="ascii">-2.4563368007934271e-04 -5.3772981977492171e-03 0.0000000000000000e+00  0.0000000000000000e+00 -2.8980957416177339e-04 0.0000000000000000e+00  1.6878483552810536e-04 -5.5647535239904747e-03 0.0000000000000000e+00  0.0000000000000000e+00 -2.8947035298428899e-04 0.0000000000000000e+00  0.0000000000000000e+00 0.0000000000000000e+00 0.0000000000000000e+00  0.0000000000000000e+00 0.0000000000000000e+00 0.0000000000000000e+00  -3.3570536609947577e-04 -4.5253046702169748e-03 0.0000000000000000e+00  -3.6678253267484066e-04 -4.0997409689965810e-03 0.0000000000000000e+00  -3.7838617839910623e-04 -3.7751418667458757e-03 0.0000000000000000e+00  -3.8163744551228840e-04 -3.5059533667695622e-03 0.0000000000000000e+00  -3.7973185449028670e-04 -3.2749242653380742e-03 0.0000000000000000e+00  -3.7412236552682903e-04 -3.0722882802090368e-03 0.0000000000000000e+00  -3.6576309363188015e-04 -2.8917037583322800e-03 0.0000000000000000e+00  -3.5533012657962639e-04 -2.7287892324439995e-03 0.0000000000000000e+00  -3.4338211976358050e-04 -2.5803197896042459e-03 0.0000000000000000e+00  -3.3034138076784054e-04 -2.4439114458118050e-03 0.0000000000000000e+00  -3.1655430890931678e-04 -2.3177526629987490e-03 0.0000000000000000e+00  -3.0230432300636811e-04 -2.2003977462924217e-03 0.0000000000000000e+00  -2.8783700911723126e-04 -2.0906903604212285e-03 0.0000000000000000e+00  -2.7333649687695175e-04 -1.9877125092009479e-03 0.0000000000000000e+00  -2.5895294143254630e-04 -1.8907242859232713e-03 0.0000000000000000e+00  -2.4480958203927140e-04 -1.7991111731063450e-03 0.0000000000000000e+00  -2.3099762234807052e-04 -1.7123674849024847e-03 0.0000000000000000e+00  -2.1759110159251806e-04 -1.6300668630484765e-03 0.0000000000000000e+00  -2.0464368752787335e-04 -1.5518504458527135e-03 0.0000000000000000e+00  -1.9219043199064797e-04 -1.4774142510634888e-03 0.0000000000000000e+00  -1.8025642671331806e-04 -1.4064989636161070e-03 0.0000000000000000e+00  -1.6885651080255959e-04 -1.3388805547557626e-03 0.0000000000000000e+00  -1.5799585362100642e-04 -1.2743602539639276e-03 0.0000000000000000e+00  -1.4767531579141670e-04 -1.2127680993375507e-03 0.0000000000000000e+00  -1.3788781407628924e-04 -1.1539543656437538e-03 0.0000000000000000e+00  -1.2862264117295721e-04 -1.0977834827863480e-03 0.0000000000000000e+00  -1.1986633586918044e-04 -1.0441339534604098e-03 0.0000000000000000e+00  -1.1160469090365681e-04 -9.9290012547483572e-04 0.0000000000000000e+00  -1.0381809725912343e-04 -9.4398467357110442e-04 0.0000000000000000e+00  -9.6487926497371607e-05 -8.9729607946921637e-04 0.0000000000000000e+00  -8.9594427258125157e-05 -8.5275655102532528e-04 0.0000000000000000e+00  -8.3116860336939462e-05 -8.1029343643974146e-04 0.0000000000000000e+00  -7.7038002789583130e-05 -7.6983938551503615e-04 0.0000000000000000e+00  -7.1332505151148221e-05 -7.3133024410449148e-04 0.0000000000000000e+00  -6.5983706594435504e-05 -6.9471103576589587e-04 0.0000000000000000e+00  -6.0970074389377058e-05 -6.5992815802888452e-04 0.0000000000000000e+00  -5.6271292609767325e-05 -6.2693286742879922e-04 0.0000000000000000e+00  -5.1870366370058114e-05 -5.9568056826486454e-04 0.0000000000000000e+00  -4.7746965853766215e-05 -5.6612919890298649e-04 0.0000000000000000e+00  -4.3883850606795245e-05 -5.3824013540935555e-04 0.0000000000000000e+00  -4.0263402660875946e-05 -5.1197746484528991e-04 0.0000000000000000e+00  -3.6869503678863498e-05 -4.8730802040235959e-04 0.0000000000000000e+00  -3.3685076971203195e-05 -4.6420079194123243e-04 0.0000000000000000e+00  -3.0694931682422673e-05 -4.4262764639739927e-04 0.0000000000000000e+00  -2.7883696932822133e-05 -4.2256222348017590e-04 0.0000000000000000e+00  -2.5237183768536042e-05 -4.0398048844777091e-04 0.0000000000000000e+00  -2.2741145491214662e-05 -3.8686016270552922e-04 0.0000000000000000e+00  -2.0382432564382167e-05 -3.7118121217336633e-04 0.0000000000000000e+00  -1.8147488825391665e-05 -3.5692524950423543e-04 0.0000000000000000e+00  -1.6023844407235864e-05 -3.4407582412537965e-04 0.0000000000000000e+00  -1.4000037202440311e-05 -3.3261801388459781e-04 0.0000000000000000e+00  -1.2062443263653512e-05 -3.2253823651093885e-04 0.0000000000000000e+00  -1.0200520172357454e-05 -3.1382568042078493e-04 0.0000000000000000e+00  -8.4034733680264419e-06 -3.0647020242149790e-04 0.0000000000000000e+00  -6.6601182766180331e-06 -3.0046340997043878e-04 0.0000000000000000e+00  -4.9577424403030046e-06 -2.9579821704544878e-04 0.0000000000000000e+00  -3.2873914211867184e-06 -2.9246991660352556e-04 0.0000000000000000e+00  -1.6382792248125270e-06 -2.9047440820336909e-04 0.0000000000000000e+00  -9.8057971699716160e-04 -8.9172021476041675e-03 0.0000000000000000e+00  -8.7195015295973128e-04 -9.4666933369863641e-03 0.0000000000000000e+00  -8.1002038920769358e-04 -9.6907496494962123e-03 0.0000000000000000e+00  -7.8063090034495043e-04 -9.8386876555131442e-03 0.0000000000000000e+00  -7.5920304552904046e-04 -9.9682823915003410e-03 0.0000000000000000e+00  -7.3892007402445400e-04 -1.0088790644356081e-02 0.0000000000000000e+00  -7.1739581468091356e-04 -1.0200690812175166e-02 0.0000000000000000e+00  -6.9560362621530827e-04 -1.0303766844712051e-02 0.0000000000000000e+00  -6.7408036578697837e-04 -1.0399300510151871e-02 0.0000000000000000e+00  -6.5259200130585681e-04 -1.0488510183787530e-02 0.0000000000000000e+00  -6.3100945257486677e-04 -1.0572018468362782e-02 0.0000000000000000e+00  -6.0935332833124010e-04 -1.0650288144391649e-02 0.0000000000000000e+00  -5.8764352311172429e-04 -1.0723747025240501e-02 0.0000000000000000e+00  -5.6590506447319958e-04 -1.0792751190018024e-02 0.0000000000000000e+00  -5.4412988432651032e-04 -1.0857625873693540e-02 0.0000000000000000e+00  -5.2232775827867005e-04 -1.0918642196711032e-02 0.0000000000000000e+00  -5.0049644060564150e-04 -1.0976029162628484e-02 0.0000000000000000e+00  -4.7863626758562196e-04 -1.1029983360723930e-02 0.0000000000000000e+00  -4.5674816292834002e-04 -1.1080677171191131e-02 0.0000000000000000e+00  -4.3483298158633350e-04 -1.1128260810861924e-02 0.0000000000000000e+00  -4.1289263292306535e-04 -1.1172864724457388e-02 0.0000000000000000e+00  -3.9092922541992929e-04 -1.1214607278291070e-02 0.0000000000000000e+00  -3.6894295066613379e-04 -1.1253590601270697e-02 0.0000000000000000e+00  -3.4693599689727354e-04 -1.1289905601351478e-02 0.0000000000000000e+00  -3.2491013102307583e-04 -1.1323634177656788e-02 0.0000000000000000e+00  -3.0286671437160852e-04 -1.1354848600766076e-02 0.0000000000000000e+00  -2.8080768975890206e-04 -1.1383614361623620e-02 0.0000000000000000e+00  -2.5873236844942192e-04 -1.1409988435789269e-02 0.0000000000000000e+00  -2.3664262093670460e-04 -1.1434022030051475e-02 0.0000000000000000e+00  -2.1453950155291116e-04 -1.1455758924228742e-02 0.0000000000000000e+00  -1.9242455698803806e-04 -1.1475237791902798e-02 0.0000000000000000e+00  -1.7029945618244114e-04 -1.1492492974010587e-02 0.0000000000000000e+00  -1.4816589485135701e-04 -1.1507555048146649e-02 0.0000000000000000e+00  -1.2602544035251946e-04 -1.1520449989281253e-02 0.0000000000000000e+00  -1.0387859049647420e-04 -1.1531198820217360e-02 0.0000000000000000e+00  -8.1728107992196200e-05 -1.1539819993348617e-02 0.0000000000000000e+00  -5.9574147368836449e-05 -1.1546326955841619e-02 0.0000000000000000e+00  -3.7419154236657160e-05 -1.1550730227495629e-02 0.0000000000000000e+00  -1.5265108398923081e-05 -1.1553037679200519e-02 0.0000000000000000e+00  6.8871609153966957e-06 -1.1553253497225012e-02 0.0000000000000000e+00  2.9036368643376538e-05 -1.1551377962630175e-02 0.0000000000000000e+00  5.1180991557987459e-05 -1.1547407873409989e-02 0.0000000000000000e+00  7.3319389703875202e-05 -1.1541337101412785e-02 0.0000000000000000e+00  9.5449972127227079e-05 -1.1533155789888977e-02 0.0000000000000000e+00  1.1757145394234880e-04 -1.1522850451704520e-02 0.0000000000000000e+00  1.3968204287173724e-04 -1.1510404714737264e-02 0.0000000000000000e+00  1.6177996894760796e-04 -1.1495798128317089e-02 0.0000000000000000e+00  1.8386399884457163e-04 -1.1479006198037803e-02 0.0000000000000000e+00  2.0593292428276448e-04 -1.1460000079852631e-02 0.0000000000000000e+00  2.2798500967076613e-04 -1.1438746037432503e-02 0.0000000000000000e+00  2.5001904103665132e-04 -1.1415206099904585e-02 0.0000000000000000e+00  2.7203423215417055e-04 -1.1389336203450584e-02 0.0000000000000000e+00  2.9402854226060810e-04 -1.1361085822393039e-02 0.0000000000000000e+00  3.1600080440315588e-04 -1.1330398255010232e-02 0.0000000000000000e+00  3.3794801203382736e-04 -1.1297209050172317e-02 0.0000000000000000e+00  3.5986616703784214e-04 -1.1261447556864992e-02 0.0000000000000000e+00  3.8174999048303600e-04 -1.1223036711101043e-02 0.0000000000000000e+00  4.0359669551634920e-04 -1.1181892285249788e-02 0.0000000000000000e+00  4.2540105010988331e-04 -1.1137915030564074e-02 0.0000000000000000e+00  4.4716012584815351e-04 -1.1090999875703233e-02 0.0000000000000000e+00  4.6887212608154522e-04 -1.1041020778538631e-02 0.0000000000000000e+00  4.9053798258639255e-04 -1.0987834686568642e-02 0.0000000000000000e+00  5.1215732164276793e-04 -1.0931271174572392e-02 0.0000000000000000e+00  5.3372682963305517e-04 -1.0871133742905057e-02 0.0000000000000000e+00  5.5523438943094609e-04 -1.0807198643905639e-02 0.0000000000000000e+00  5.7666607243919818e-04 -1.0739218599755841e-02 0.0000000000000000e+00  5.9800075804839197e-04 -1.0666908069620794e-02 0.0000000000000000e+00  6.1923243592702879e-04 -1.0589936377603649e-02 0.0000000000000000e+00  6.4034388198571496e-04 -1.0507874854690173e-02 0.0000000000000000e+00  6.6123398795161071e-04 -1.0420230806791388e-02 0.0000000000000000e+00  6.8173191299938311e-04 -1.0326554002688865e-02 0.0000000000000000e+00  7.0172144030730655e-04 -1.0226558784328160e-02 0.0000000000000000e+00  7.2147780222989242e-04 -1.0119718371091475e-02 0.0000000000000000e+00  7.4180964899478918e-04 -1.0003730394877342e-02 0.0000000000000000e+00  7.6298400411770311e-04 -9.8762188798944307e-03 0.0000000000000000e+00  7.8653793864257048e-04 -9.7288017083669073e-03 0.0000000000000000e+00  7.9405731080989478e-04 -9.5846225805989067e-03 0.0000000000000000e+00  9.1097798090089674e-04 -9.1022920887014764e-03 0.0000000000000000e+00  1.6005909952917974e-06 -2.9013569096921469e-04 0.0000000000000000e+00  3.2115813960822288e-06 -2.9213179589338890e-04 0.0000000000000000e+00  4.8432905075964089e-06 -2.9546136254433348e-04 0.0000000000000000e+00  6.5064251957106836e-06 -3.0012790963013410e-04 0.0000000000000000e+00  8.2112121957551431e-06 -3.0613698775534273e-04 0.0000000000000000e+00  9.9698567505065368e-06 -3.1349510868193585e-04 0.0000000000000000e+00  1.1791120222105608e-05 -3.2221069317255984e-04 0.0000000000000000e+00  1.3687677078622028e-05 -3.3229378290295048e-04 0.0000000000000000e+00  1.5670544410506782e-05 -3.4375579911735693e-04 0.0000000000000000e+00  1.7751857086509925e-05 -3.5660990174452039e-04 0.0000000000000000e+00  1.9943405059365879e-05 -3.7087115236624884e-04 0.0000000000000000e+00  2.2258066793051764e-05 -3.8655597989574637e-04 0.0000000000000000e+00  2.4708272369520785e-05 -4.0368276377109470e-04 0.0000000000000000e+00  2.7307637040146228e-05 -4.2227171947924181e-04 0.0000000000000000e+00  3.0070029697276283e-05 -4.4234504077047252e-04 0.0000000000000000e+00  3.3009884282209857e-05 -4.6392692659508498e-04 0.0000000000000000e+00  3.6141751670391984e-05 -4.8704344695831237e-04 0.0000000000000000e+00  3.9481643613657931e-05 -5.1172333164283988e-04 0.0000000000000000e+00  4.3044995699447727e-05 -5.3799749082319613e-04 0.0000000000000000e+00  4.6848584975339235e-05 -5.6589900393539262e-04 0.0000000000000000e+00  5.0910258734132540e-05 -5.9546473918249058e-04 0.0000000000000000e+00  5.5245577351856879e-05 -6.2673134255059016e-04 0.0000000000000000e+00  5.9875065332935329e-05 -6.5974270926905348e-04 0.0000000000000000e+00  6.4816619927069420e-05 -6.9454358547733604e-04 0.0000000000000000e+00  7.0089212323735782e-05 -7.3118272872131781e-04 0.0000000000000000e+00  7.5712429016700010e-05 -7.6971299299843031e-04 0.0000000000000000e+00  8.1706351167706805e-05 -8.1019175158909417e-04 0.0000000000000000e+00  8.8091177987619822e-05 -8.5268123462922077e-04 0.0000000000000000e+00  9.4886197613712638e-05 -8.9724903620706038e-04 0.0000000000000000e+00  1.0211100360701203e-04 -9.4396880683320409e-04 0.0000000000000000e+00  1.0978523440721652e-04 -9.9292161451277694e-04 0.0000000000000000e+00  1.1792735549749945e-04 -1.0441956882256403e-03 0.0000000000000000e+00  1.2655099303139763e-04 -1.0978897148995884e-03 0.0000000000000000e+00  1.3567702875568220e-04 -1.1541117428781815e-03 0.0000000000000000e+00  1.4531312993808617e-04 -1.2129832408287770e-03 0.0000000000000000e+00  1.5546909298912718e-04 -1.2746385165485214e-03 0.0000000000000000e+00  1.6615003248539488e-04 -1.3392303543369607e-03 0.0000000000000000e+00  1.7735616686349095e-04 -1.4069319242651255e-03 0.0000000000000000e+00  1.8907825456409126e-04 -1.4779412388528843e-03 0.0000000000000000e+00  2.0130034499412600e-04 -1.5524847152699956e-03 0.0000000000000000e+00  2.1399552705449968e-04 -1.6308251927415632e-03 0.0000000000000000e+00  2.2712391597450195e-04 -1.7132696151800643e-03 0.0000000000000000e+00  2.4062692389802140e-04 -1.8001791843470707e-03 0.0000000000000000e+00  2.5443804766522106e-04 -1.8919821133655825e-03 0.0000000000000000e+00  2.6845443347727919e-04 -1.9891887903381242e-03 0.0000000000000000e+00  2.8255001254232971e-04 -2.0924225146880453e-03 0.0000000000000000e+00  2.9657176762206843e-04 -2.2024320618686754e-03 0.0000000000000000e+00  3.1032221225406499e-04 -2.3201484273413331e-03 0.0000000000000000e+00  3.2355652410881192e-04 -2.4467191499518851e-03 0.0000000000000000e+00  3.3600186509760016e-04 -2.5835921990106539e-03 0.0000000000000000e+00  3.4726185198267166e-04 -2.7326454636515487e-03 0.0000000000000000e+00  3.5694243028425762e-04 -2.8962156836703922e-03 0.0000000000000000e+00  3.6445143112739649e-04 -3.0776200923571698e-03 0.0000000000000000e+00  3.6909101260313337e-04 -3.2812195550152362e-03 0.0000000000000000e+00  3.6983323693821175e-04 -3.5134013194406078e-03 0.0000000000000000e+00  3.6503581073914839e-04 -3.7840468846777799e-03 0.0000000000000000e+00  3.5185778660311892e-04 -4.1107918623493464e-03 0.0000000000000000e+00  3.1540420135124788e-04 -4.5427231950380415e-03 0.0000000000000000e+00  0.0000000000000000e+00 -5.6791249662112536e-05 0.0000000000000000e+00  0.0000000000000000e+00 -1.0814039854789468e-04 0.0000000000000000e+00  0.0000000000000000e+00 -1.5460371830163650e-04 0.0000000000000000e+00  0.0000000000000000e+00 -1.9663648970392873e-04 0.0000000000000000e+00  0.0000000000000000e+00 -2.3456636896844875e-04 0.0000000000000000e+00  0.0000000000000000e+00 -2.6864607199669473e-04 0.0000000000000000e+00  0.0000000000000000e+00 -2.9907712859740917e-04 0.0000000000000000e+00  0.0000000000000000e+00 -3.2602354337048987e-04 0.0000000000000000e+00  0.0000000000000000e+00 -3.4959414991391163e-04 0.0000000000000000e+00  0.0000000000000000e+00 -3.6993352610209822e-04 0.0000000000000000e+00  0.0000000000000000e+00 -3.8714011800753068e-04 0.0000000000000000e+00  0.0000000000000000e+00 -4.0132869372706121e-04 0.0000000000000000e+00  0.0000000000000000e+00 -4.1262574146878856e-04 0.0000000000000000e+00  0.0000000000000000e+00 -4.2116220306406160e-04 0.0000000000000000e+00  0.0000000000000000e+00 -4.2708253125188408e-04 0.0000000000000000e+00  0.0000000000000000e+00 -4.3054715454049291e-04 0.0000000000000000e+00  0.0000000000000000e+00 -4.3173597460241948e-04 0.0000000000000000e+00  0.0000000000000000e+00 -4.3083782624119785e-04 0.0000000000000000e+00  0.0000000000000000e+00 -4.2805639415963322e-04 0.0000000000000000e+00  0.0000000000000000e+00 -4.2360582603077624e-04 0.0000000000000000e+00  0.0000000000000000e+00 -4.1771013153919941e-04 0.0000000000000000e+00  0.0000000000000000e+00 -4.1059710175458806e-04 0.0000000000000000e+00  0.0000000000000000e+00 -4.0249729769310046e-04 0.0000000000000000e+00  0.0000000000000000e+00 -3.9363624975778200e-04 0.0000000000000000e+00  0.0000000000000000e+00 -3.8423882684474015e-04 0.0000000000000000e+00  0.0000000000000000e+00 -3.7452242939071744e-04 0.0000000000000000e+00  0.0000000000000000e+00 -3.6468696705373161e-04 0.0000000000000000e+00  0.0000000000000000e+00 -3.5492608415631569e-04 0.0000000000000000e+00  0.0000000000000000e+00 -3.4541407148665020e-04 0.0000000000000000e+00  0.0000000000000000e+00 -3.3630841369330347e-04 0.0000000000000000e+00  0.0000000000000000e+00 -3.2774900084271268e-04 0.0000000000000000e+00  0.0000000000000000e+00 -3.1985560785091356e-04 0.0000000000000000e+00  0.0000000000000000e+00 -3.1272923999207009e-04 0.0000000000000000e+00  0.0000000000000000e+00 -3.0645280368265886e-04 0.0000000000000000e+00  0.0000000000000000e+00 -3.0109032753917548e-04 0.0000000000000000e+00  0.0000000000000000e+00 -2.9668867740666600e-04 0.0000000000000000e+00  0.0000000000000000e+00 -2.9327609765590981e-04 0.0000000000000000e+00  0.0000000000000000e+00 -2.9086994280691411e-04 0.0000000000000000e+00  0.0000000000000000e+00 0.0000000000000000e+00 0.0000000000000000e+00  0.0000000000000000e+00 0.0000000000000000e+00 0.0000000000000000e+00  0.0000000000000000e+00 0.0000000000000000e+00 0.0000000000000000e+00  0.0000000000000000e+00 0.0000000000000000e+00 0.0000000000000000e+00  0.0000000000000000e+00 0.0000000000000000e+00 0.0000000000000000e+00  0.0000000000000000e+00 0.0000000000000000e+00 0.0000000000000000e+00  0.0000000000000000e+00 0.0000000000000000e+00 0.0000000000000000e+00  0.0000000000000000e+00 0.0000000000000000e+00 0.0000000000000000e+00  0.0000000000000000e+00 0.0000000000000000e+00 0.0000000000000000e+00  0.0000000000000000e+00 0.0000000000000000e+00 0.0000000000000000e+00  0.0000000000000000e+00 0.0000000000000000e+00 0.0000000000000000e+00  0.0000000000000000e+00 0.0000000000000000e+00 0.0000000000000000e+00  0.0000000000000000e+00 0.0000000000000000e+00 0.0000000000000000e+00  0.0000000000000000e+00 0.0000000000000000e+00 0.0000000000000000e+00  0.0000000000000000e+00 0.0000000000000000e+00 0.0000000000000000e+00  0.0000000000000000e+00 0.0000000000000000e+00 0.0000000000000000e+00  0.0000000000000000e+00 0.0000000000000000e+00 0.0000000000000000e+00  0.0000000000000000e+00 0.0000000000000000e+00 0.0000000000000000e+00  0.0000000000000000e+00 -2.9124687134811394e-04 0.0000000000000000e+00  0.0000000000000000e+00 -2.9370537465168647e-04 0.0000000000000000e+00  0.0000000000000000e+00 -2.9718491106105221e-04 0.0000000000000000e+00  0.0000000000000000e+00 -3.0166258789272974e-04 0.0000000000000000e+00  0.0000000000000000e+00 -3.0710894153417880e-04 0.0000000000000000e+00  0.0000000000000000e+00 -3.1347281308002282e-04 0.0000000000000000e+00  0.0000000000000000e+00 -3.2068650799143438e-04 0.0000000000000000e+00  0.0000000000000000e+00 -3.2866403850379867e-04 0.0000000000000000e+00  0.0000000000000000e+00 -3.3730075887475461e-04 0.0000000000000000e+00  0.0000000000000000e+00 -3.4647195489522582e-04 0.0000000000000000e+00  0.0000000000000000e+00 -3.5603636370210788e-04 0.0000000000000000e+00  0.0000000000000000e+00 -3.6582902851630750e-04 0.0000000000000000e+00  0.0000000000000000e+00 -3.7567740202093080e-04 0.0000000000000000e+00  0.0000000000000000e+00 -3.8538582437376903e-04 0.0000000000000000e+00  0.0000000000000000e+00 -3.9474979639772442e-04 0.0000000000000000e+00  0.0000000000000000e+00 -4.0355099688923384e-04 0.0000000000000000e+00  0.0000000000000000e+00 -4.1156705832601866e-04 0.0000000000000000e+00  0.0000000000000000e+00 -4.1857361494818427e-04 0.0000000000000000e+00  0.0000000000000000e+00 -4.2433941524495114e-04 0.0000000000000000e+00  0.0000000000000000e+00 -4.2863943212704701e-04 0.0000000000000000e+00  0.0000000000000000e+00 -4.3125476392430484e-04 0.0000000000000000e+00  0.0000000000000000e+00 -4.3197466996369374e-04 0.0000000000000000e+00  0.0000000000000000e+00 -4.3059932478103051e-04 0.00000000000