<?xml version="1.0"?>
<VTKFile type="UnstructuredGrid"  version="0.1"  >
<UnstructuredGrid>
<Piece  NumberOfPoints="3167" NumberOfCells="6038">
<Points>
<DataArray  type="Float64"  NumberOfComponents="3"  format="ascii">2.2 2.9 0  0 2.9 0  2.8 2.9 0  5 2.9 0  5 0 0  0 0 0  2.16271186440678 2.9 0  2.125423728813559 2.9 0  2.088135593220339 2.9 0  2.050847457627119 2.9 0  2.013559322033898 2.9 0  1.976271186440678 2.9 0  1.938983050847457 2.9 0  1.901694915254237 2.9 0  1.864406779661016 2.9 0  1.827118644067796 2.9 0  1.789830508474575 2.9 0  1.752542372881355 2.9 0  1.715254237288134 2.9 0  1.677966101694914 2.9 0  1.640677966101693 2.9 0  1.603389830508473 2.9 0  1.566101694915253 2.9 0  1.528813559322032 2.9 0  1.491525423728812 2.9 0  1.454237288135591 2.9 0  1.416949152542371 2.9 0  1.37966101694915 2.9 0  1.34237288135593 2.9 0  1.305084745762709 2.9 0  1.267796610169489 2.9 0  1.230508474576268 2.9 0  1.193220338983048 2.9 0  1.155932203389827 2.9 0  1.118644067796607 2.9 0  1.081355932203387 2.9 0  1.044067796610166 2.9 0  1.006779661016946 2.9 0  0.9694915254237257 2.9 0  0.9322033898305055 2.9 0  0.8949152542372856 2.9 0  0.8576271186440652 2.9 0  0.820338983050845 2.9 0  0.783050847457625 2.9 0  0.7457627118644048 2.9 0  0.7084745762711844 2.9 0  0.6711864406779642 2.9 0  0.633898305084744 2.9 0  0.5966101694915238 2.9 0  0.5593220338983036 2.9 0  0.5220338983050834 2.9 0  0.4847457627118632 2.9 0  0.447457627118643 2.9 0  0.4101694915254228 2.9 0  0.3728813559322024 2.9 0  0.3355932203389822 2.9 0  0.2983050847457622 2.9 0  0.2610169491525418 2.9 0  0.2237288135593216 2.9 0  0.1864406779661016 2.9 0  0.1491525423728812 2.9 0  0.1118644067796613 2.9 0  0.07457627118644039 2.9 0  0.03728813559321997 2.9 0  2.792405063291139 2.9 0  2.784810126582279 2.9 0  2.777215189873418 2.9 0  2.769620253164557 2.9 0  2.762025316455697 2.9 0  2.754430379746836 2.9 0  2.746835443037975 2.9 0  2.739240506329114 2.9 0  2.731645569620254 2.9 0  2.724050632911393 2.9 0  2.716455696202532 2.9 0  2.708860759493671 2.9 0  2.701265822784811 2.9 0  2.69367088607595 2.9 0  2.686075949367089 2.9 0  2.678481012658228 2.9 0  2.670886075949368 2.9 0  2.663291139240507 2.9 0  2.655696202531646 2.9 0  2.648101265822786 2.9 0  2.640506329113925 2.9 0  2.632911392405064 2.9 0  2.625316455696203 2.9 0  2.617721518987342 2.9 0  2.610126582278482 2.9 0  2.602531645569621 2.9 0  2.59493670886076 2.9 0  2.587341772151899 2.9 0  2.579746835443038 2.9 0  2.572151898734178 2.9 0  2.564556962025317 2.9 0  2.556962025316456 2.9 0  2.549367088607595 2.9 0  2.541772151898734 2.9 0  2.534177215189874 2.9 0  2.526582278481013 2.9 0  2.518987341772152 2.9 0  2.511392405063292 2.9 0  2.503797468354431 2.9 0  2.49620253164557 2.9 0  2.488607594936709 2.9 0  2.481012658227848 2.9 0  2.473417721518988 2.9 0  2.465822784810127 2.9 0  2.458227848101266 2.9 0  2.450632911392406 2.9 0  2.443037974683545 2.9 0  2.435443037974684 2.9 0  2.427848101265823 2.9 0  2.420253164556962 2.9 0  2.412658227848102 2.9 0  2.405063291139241 2.9 0  2.39746835443038 2.9 0  2.389873417721519 2.9 0  2.382278481012658 2.9 0  2.374683544303798 2.9 0  2.367088607594937 2.9 0  2.359493670886076 2.9 0  2.351898734177215 2.9 0  2.344303797468355 2.9 0  2.336708860759494 2.9 0  2.329113924050633 2.9 0  2.321518987341773 2.9 0  2.313924050632912 2.9 0  2.306329113924051 2.9 0  2.29873417721519 2.9 0  2.291139240506329 2.9 0  2.283544303797469 2.9 0  2.275949367088608 2.9 0  2.268354430379747 2.9 0  2.260759493670887 2.9 0  2.253164556962026 2.9 0  2.245569620253165 2.9 0  2.237974683544304 2.9 0  2.230379746835443 2.9 0  2.222784810126583 2.9 0  2.215189873417722 2.9 0  2.207594936708861 2.9 0  4.96271186440678 2.9 0  4.925423728813559 2.9 0  4.888135593220339 2.9 0  4.850847457627118 2.9 0  4.813559322033898 2.9 0  4.776271186440677 2.9 0  4.738983050847457 2.9 0  4.701694915254237 2.9 0  4.664406779661016 2.9 0  4.627118644067796 2.9 0  4.589830508474575 2.9 0  4.552542372881355 2.9 0  4.515254237288135 2.9 0  4.477966101694914 2.9 0  4.440677966101694 2.9 0  4.403389830508473 2.9 0  4.366101694915252 2.9 0  4.328813559322032 2.9 0  4.291525423728811 2.9 0  4.254237288135591 2.9 0  4.21694915254237 2.9 0  4.17966101694915 2.9 0  4.14237288135593 2.9 0  4.105084745762709 2.9 0  4.067796610169489 2.9 0  4.030508474576268 2.9 0  3.993220338983048 2.9 0  3.955932203389827 2.9 0  3.918644067796607 2.9 0  3.881355932203387 2.9 0  3.844067796610166 2.9 0  3.806779661016946 2.9 0  3.769491525423725 2.9 0  3.732203389830505 2.9 0  3.694915254237285 2.9 0  3.657627118644065 2.9 0  3.620338983050845 2.9 0  3.583050847457625 2.9 0  3.545762711864405 2.9 0  3.508474576271184 2.9 0  3.471186440677964 2.9 0  3.433898305084744 2.9 0  3.396610169491524 2.9 0  3.359322033898303 2.9 0  3.322033898305083 2.9 0  3.284745762711863 2.9 0  3.247457627118643 2.9 0  3.210169491525423 2.9 0  3.172881355932202 2.9 0  3.135593220338982 2.9 0  3.098305084745762 2.9 0  3.061016949152542 2.9 0  3.023728813559321 2.9 0  2.986440677966101 2.9 0  2.949152542372881 2.9 0  2.911864406779661 2.9 0  2.87457627118644 2.9 0  2.83728813559322 2.9 0  5 0.1063822625082082 0  5 0.210636880010749 0  5 0.3128064053694972 0  5 0.4129325400644018 0  5 0.5110561521032336 0  5 0.6072172918830103 0  5 0.7014552087832795 0  5 0.7938083674443693 0  5 0.88431446261646 0  5 0.9730104359544682 0  5 1.059932489996267 0  5 1.145116102913299 0  5 1.228596043483191 0  5 1.310406385079062 0  5 1.390580519944147 0  5 1.469151172477827 0  5 1.546150411986101 0  5 1.621609666658609 0  5 1.695559736099044 0  5 1.76803080383987 0  5 1.839052450169751 0  5 1.908653663631169 0  5 1.97686285289587 0  5 2.043707858613779 0  5 2.109215964341413 0  5 2.173413907925942 0  5 2.236327892833935 0  5 2.297983597762904 0  5 2.35840618845912 0  5 2.41762032730194 0  5 2.475650183444628 0  5 2.532519442457069 0  5 2.588251316112828 0  5 2.642868552557322 0  5 2.696393444426347 0  5 2.748847838312051 0  5 2.800253144313381 0  5 2.850630344319807 0  0.2631578947368421 0 0  0.5263157894736842 0 0  0.7894736842105263 0 0  1.052631578947368 0 0  1.31578947368421 0 0  1.578947368421053 0 0  1.842105263157895 0 0  2.105263157894737 0 0  2.368421052631579 0 0  2.631578947368421 0 0  2.894736842105263 0 0  3.157894736842105 0 0  3.421052631578947 0 0  3.684210526315789 0 0  3.947368421052632 0 0  4.210526315789473 0 0  4.473684210526315 0 0  4.736842105263158 0 0  0 2.850203682350569 0  0 2.799411438503675 0  0 2.747603349778291 0  0 2.694759099502208 0  0 2.640857964382145 0  0 2.58587880633613 0  0 2.52980006535898 0  0 2.472599749459174 0  0 2.414255427218689 0  0 2.35474421880616 0  0 2.294042786119219 0  0 2.232127324764723 0  0 2.1689735539481 0  0 2.104556707683347 0  0 2.038851524813415 0  0 1.971832238155655 0  0 1.903472565412126 0  0 1.83374569926617 0  0 1.762624296208475 0  0 1.690080464918761 0  0 1.616085756774206 0  0 1.540611154706337 0  0 1.463627060685571 0  0 1.385103284916206 0  0 1.305009033716617 0  0 1.223312897337225 0  0 1.139982838163732 0  0 1.054986177579938 0  0 0.9682895835804817 0  0 0.8798590579197976 0  0 0.7896599218415354 0  0 0.6976568029903638 0  0 0.6038136217958798 0  0 0.508093576867624 0  0 0.4104591310957497 0  0 0.3108719963522191 0  0 0.2092931188294389 0  0 0.1056826638508546 0  1.434832105763824 2.866945754981483 0  1.737156300467626 2.870039440267515 0  2.032203389830508 2.867707527316512 0  2.332911392405064 2.893422591869991 0  2.469810913293406 2.891944186606167 0  2.606221408823969 2.892519154985628 0  2.255455320628894 2.892068685006691 0  2.538247299216212 2.894964578182811 0  2.674683544303798 2.893422591869991 0  2.40126582278481 2.893422591869991 0  3.566125247295424 2.865029336199714 0  3.266101694915253 2.867707527316512 0  2.967796610169491 2.867707527316512 0  1.174288529834642 2.870795313888584 0  3.825423728813556 2.867707527316512 0  2.727766680262011 2.892655387647729 0  0.06601655192030442 1.502119107695954 0  4.933983535508361 1.507650792231964 0  0.9532124728485543 2.868722489783638 0  4.048935912500257 2.870640982995992 0  0.05930163367361763 1.866907161167414 0  4.943402512618553 1.871280731473148 0  4.271733870017743 2.86520865624265 0  0.7249420921613114 2.863922936177041 0  0.05494499779910056 2.196469063120752 0  4.947228695426367 2.208030108792719 0  0.5406152150397161 2.866493807382013 0  4.459322033898304 2.868847558178794 0  2.18135593220339 2.875780645487384 0  2.817027156509632 2.876587550645167 0  4.928427208322876 1.186856073198245 0  0.07189226971603224 1.174626666111662 0  4.610299014423113 2.867003104093161 0  0.3897270066746357 2.869433095314657 0  1.581132500042262 2.868247328632392 0  1.887637879411437 2.869235851794358 0  3.413449426418068 2.867372048034327 0  3.116721298814773 2.865731235547652 0  2.644303797468355 2.893422591869991 0  2.370983221828106 2.892719513369796 0  2.302531645569621 2.893336787387268 0  2.758987341772152 2.894242393897099 0  0.04979653335696277 2.443411216910286 0  4.950470983477169 2.446866954595817 0  2.482937483021586 0.2513241087417575 0  1.707129504814338 0.1999998659920923 0  3.28584657955054 0.229200625631625 0  4.907807122600524 0.834082362900164 0  4.757627118644067 2.867707527316512 0  0.0773489124676745 0.8347594898806663 0  0.2390604736599387 2.861365431805741 0  0.8363213715215729 2.863896768908178 0  4.160865610207075 2.868916854015731 0  1.282549332053297 2.867610952980761 0  1.065094818402487 2.861284686038041 0  3.93818127737282 2.86865134411395 0  3.711492629432973 2.863574306925269 0  4.91369361998929 0.5579891344254361 0  0.08208328472281323 0.5559535993317519 0  2.696596932532885 2.892010483922337 0  0.04706410140274553 2.613055974506516 0  4.955577063972248 2.616518038840186 0  2.234177215189874 2.893422591869991 0  2.279795840559739 2.89403861893984 0  0.9117357887652362 0.2117925286661764 0  4.055948041993057 0.2039101057937727 0  4.872119713780579 2.867632926423075 0  2.780113878992455 2.891535929611743 0  0.1327442468251063 2.85
[...]
<PointData  Vectors="displacement"> 
<DataArray  type="Float64"  Name="displacement"  NumberOfComponents="3" format="ascii">1.3866006444572141e-03 -7.2559041103255166e-03 0.0000000000000000e+00  0.0000000000000000e+00 -2.9876714305223116e-04 0.0000000000000000e+00  -1.3885046376652887e-03 -7.2562016853198325e-03 0.0000000000000000e+00  0.0000000000000000e+00 -2.9876750005231446e-04 0.0000000000000000e+00  0.0000000000000000e+00 0.0000000000000000e+00 0.0000000000000000e+00  0.0000000000000000e+00 0.0000000000000000e+00 0.0000000000000000e+00  1.3744039800925930e-03 -6.4216070108506947e-03 0.0000000000000000e+00  1.3468558446989836e-03 -5.8710476886306359e-03 0.0000000000000000e+00  1.3196830128001269e-03 -5.4280094751206704e-03 0.0000000000000000e+00  1.2926646042023778e-03 -5.0502030845499804e-03 0.0000000000000000e+00  1.2656828169166901e-03 -4.7187384638086288e-03 0.0000000000000000e+00  1.2387575013171545e-03 -4.4227138285753819e-03 0.0000000000000000e+00  1.2119167921640333e-03 -4.1549985374014602e-03 0.0000000000000000e+00  1.1851666125516154e-03 -3.9106209400521516e-03 0.0000000000000000e+00  1.1585343045000833e-03 -3.6858854965110912e-03 0.0000000000000000e+00  1.1320101333765098e-03 -3.4780361660126081e-03 0.0000000000000000e+00  1.1056021917744247e-03 -3.2849304172223883e-03 0.0000000000000000e+00  1.0793165291410952e-03 -3.1048176673167853e-03 0.0000000000000000e+00  1.0531633001354499e-03 -2.9362634330165173e-03 0.0000000000000000e+00  1.0271421682975415e-03 -2.7780966414911214e-03 0.0000000000000000e+00  1.0012591210199473e-03 -2.6293372088965913e-03 0.0000000000000000e+00  9.7551720747979058e-04 -2.4891467460881659e-03 0.0000000000000000e+00  9.4992187399046849e-04 -2.3568077653886438e-03 0.0000000000000000e+00  9.2447031782500529e-04 -2.2316983835177166e-03 0.0000000000000000e+00  8.9916993498235164e-04 -2.1132741299126640e-03 0.0000000000000000e+00  8.7402243892955634e-04 -2.0010610658081178e-03 0.0000000000000000e+00  8.4902999025380903e-04 -1.8946410323581720e-03 0.0000000000000000e+00  8.2419345513133277e-04 -1.7936429622724284e-03 0.0000000000000000e+00  7.9951561640826535e-04 -1.6977299894362437e-03 0.0000000000000000e+00  7.7499458109974351e-04 -1.6066062374878868e-03 0.0000000000000000e+00  7.5063305685858859e-04 -1.5200062897639589e-03 0.0000000000000000e+00  7.2643172954277779e-04 -1.4376858125907160e-03 0.0000000000000000e+00  7.0239000653927379e-04 -1.3594224495135918e-03 0.0000000000000000e+00  6.7850546812172556e-04 -1.2850200903911130e-03 0.0000000000000000e+00  6.5478238926056673e-04 -1.2142960300850286e-03 0.0000000000000000e+00  6.3121268045137626e-04 -1.1470794870608561e-03 0.0000000000000000e+00  6.0780040376696336e-04 -1.0832201754130677e-03 0.0000000000000000e+00  5.8454255073695969e-04 -1.0225793637782465e-03 0.0000000000000000e+00  5.6143493224330608e-04 -9.6502980062380017e-04 0.0000000000000000e+00  5.3847703055988003e-04 -9.1044752395811723e-04 0.0000000000000000e+00  5.1566516898003559e-04 -8.5872663710338663e-04 0.0000000000000000e+00  4.9299701968024822e-04 -8.0976467418934555e-04 0.0000000000000000e+00  4.7046830992772707e-04 -7.6346745123513507e-04 0.0000000000000000e+00  4.4807584733117526e-04 -7.1975037819808506e-04 0.0000000000000000e+00  4.2581555861204699e-04 -6.7853238119031231e-04 0.0000000000000000e+00  4.0368297037711649e-04 -6.3973986308309290e-04 0.0000000000000000e+00  3.8167360043251221e-04 -6.0330468357403227e-04 0.0000000000000000e+00  3.5978271750246012e-04 -5.6916373390837995e-04 0.0000000000000000e+00  3.3800477250078771e-04 -5.3725853561279835e-04 0.0000000000000000e+00  3.1633487125575302e-04 -5.0753602714840305e-04 0.0000000000000000e+00  2.9476721876918683e-04 -4.7994640755224762e-04 0.0000000000000000e+00  2.7329612647155466e-04 -4.5444474522627563e-04 0.0000000000000000e+00  2.5191553979243874e-04 -4.3098960585610834e-04 0.0000000000000000e+00  2.3061930201850813e-04 -4.0954353962102414e-04 0.0000000000000000e+00  2.0940094833373705e-04 -3.9007221984925766e-04 0.0000000000000000e+00  1.8825387741982065e-04 -3.7254513481881042e-04 0.0000000000000000e+00  1.6717204595355741e-04 -3.5693503271269037e-04 0.0000000000000000e+00  1.4614732630634017e-04 -3.4321706242423754e-04 0.0000000000000000e+00  1.2517365435227399e-04 -3.3137020860283471e-04 0.0000000000000000e+00  1.0424395398979227e-04 -3.2137669461722676e-04 0.0000000000000000e+00  8.3351420065587426e-05 -3.1322091339659340e-04 0.0000000000000000e+00  6.2487427158318414e-05 -3.0689019947139598e-04 0.0000000000000000e+00  4.1645861881902794e-05 -3.0237507735131358e-04 0.0000000000000000e+00  2.0819152347265105e-05 -2.9966876797389927e-04 0.0000000000000000e+00  -1.3687964205693322e-03 -7.5099841702526218e-03 0.0000000000000000e+00  -1.3319632657127459e-03 -7.6929572668126252e-03 0.0000000000000000e+00  -1.2959332520586569e-03 -7.8492893110311823e-03 0.0000000000000000e+00  -1.2600791400249917e-03 -7.9889703381441253e-03 0.0000000000000000e+00  -1.2244755712555780e-03 -8.1164192230970388e-03 0.0000000000000000e+00  -1.1889043199983216e-03 -8.2340128664769915e-03 0.0000000000000000e+00  -1.1533573499723216e-03 -8.3433538570431998e-03 0.0000000000000000e+00  -1.1178258744848220e-03 -8.4455121336291343e-03 0.0000000000000000e+00  -1.0822951276538021e-03 -8.5413045597952722e-03 0.0000000000000000e+00  -1.0467766288133557e-03 -8.6313757437664878e-03 0.0000000000000000e+00  -1.0112676679907067e-03 -8.7162299809857742e-03 0.0000000000000000e+00  -9.7576129549807871e-04 -8.7962747370431502e-03 0.0000000000000000e+00  -9.4025867639806681e-04 -8.8718534057292825e-03 0.0000000000000000e+00  -9.0475995191767618e-04 -8.9432468826261512e-03 0.0000000000000000e+00  -8.6926075712347596e-04 -9.0106932534073682e-03 0.0000000000000000e+00  -8.3376620558711818e-04 -9.0744075076909184e-03 0.0000000000000000e+00  -7.9827363638263447e-04 -9.1345675125641037e-03 0.0000000000000000e+00  -7.6278326341835804e-04 -9.1913291585051515e-03 0.0000000000000000e+00  -7.2729464765103444e-04 -9.2448310123130189e-03 0.0000000000000000e+00  -6.9180747572654541e-04 -9.2951943471765112e-03 0.0000000000000000e+00  -6.5632177486201913e-04 -9.3425270368569704e-03 0.0000000000000000e+00  -6.2083749397098744e-04 -9.3869250422644445e-03 0.0000000000000000e+00  -5.8535434117844233e-04 -9.4284733181870892e-03 0.0000000000000000e+00  -5.4987249378251810e-04 -9.4672485546032793e-03 0.0000000000000000e+00  -5.1439173669581275e-04 -9.5033192083760001e-03 0.0000000000000000e+00  -4.7891195807174785e-04 -9.5367457283099064e-03 0.0000000000000000e+00  -4.4343356770844842e-04 -9.5675828128576664e-03 0.0000000000000000e+00  -4.0795541526381915e-04 -9.5958786211489937e-03 0.0000000000000000e+00  -3.7247819258228701e-04 -9.6216771462322506e-03 0.0000000000000000e+00  -3.3700183583612359e-04 -9.6450166874947826e-03 0.0000000000000000e+00  -3.0152617631862554e-04 -9.6659313194135035e-03 0.0000000000000000e+00  -2.6605097882454875e-04 -9.6844506472732409e-03 0.0000000000000000e+00  -2.3057627613727282e-04 -9.7006006997100869e-03 0.0000000000000000e+00  -1.9510214224587348e-04 -9.7144037413867072e-03 0.0000000000000000e+00  -1.5962806953149022e-04 -9.7258779653051457e-03 0.0000000000000000e+00  -1.2415492235953778e-04 -9.7350395033693610e-03 0.0000000000000000e+00  -8.8681413896856648e-05 -9.7419001716320640e-03 0.0000000000000000e+00  -5.3208196550056439e-05 -9.7464688163724864e-03 0.0000000000000000e+00  -1.7735207521744077e-05 -9.7487516763738458e-03 0.0000000000000000e+00  1.7737785032620225e-05 -9.7487516324460729e-03 0.0000000000000000e+00  5.3210809674360829e-05 -9.7464686696459423e-03 0.0000000000000000e+00  8.8683939823596420e-05 -9.7418998418419989e-03 0.0000000000000000e+00  1.2415724584849297e-04 -9.7350392464459739e-03 0.0000000000000000e+00  1.5963070867709581e-04 -9.7258776686335469e-03 0.0000000000000000e+00  1.9510459351241801e-04 -9.7144029436382114e-03 0.0000000000000000e+00  2.3057876861395043e-04 -9.7006000378460581e-03 0.0000000000000000e+00  2.6605341937481627e-04 -9.6844500100468096e-03 0.0000000000000000e+00  3.0152856587752509e-04 -9.6659305967641759e-03 0.0000000000000000e+00  3.3700440111637125e-04 -9.6450160011943079e-03 0.0000000000000000e+00  3.7248076742819278e-04 -9.6216762470076114e-03 0.0000000000000000e+00  4.0795790558477728e-04 -9.5958777390705522e-03 0.0000000000000000e+00  4.4343611978655981e-04 -9.5675816349404599e-03 0.0000000000000000e+00  4.7891476355078850e-04 -9.5367445165138540e-03 0.0000000000000000e+00  5.1439454103649940e-04 -9.5033182472924835e-03 0.0000000000000000e+00  5.4987534623239011e-04 -9.4672479032957071e-03 0.0000000000000000e+00  5.8535729335415965e-04 -9.4284726053948057e-03 0.0000000000000000e+00  6.2084027328320368e-04 -9.3869240622813013e-03 0.0000000000000000e+00  6.5632518532755227e-04 -9.3425264601205305e-03 0.0000000000000000e+00  6.9181149960086954e-04 -9.2951926599016358e-03 0.0000000000000000e+00  7.2729903457860803e-04 -9.2448293112764798e-03 0.0000000000000000e+00  7.6278809366035294e-04 -9.1913273190487518e-03 0.0000000000000000e+00  7.9827911583275684e-04 -9.1345652641971874e-03 0.0000000000000000e+00  8.3377213411444859e-04 -9.0744051981197227e-03 0.0000000000000000e+00  8.6926753244070856e-04 -9.0106899258897769e-03 0.0000000000000000e+00  9.0476544976601087e-04 -8.9432402324362038e-03 0.0000000000000000e+00  9.4026685931790886e-04 -8.8718474472650796e-03 0.0000000000000000e+00  9.7577023854011284e-04 -8.7962692206304243e-03 0.0000000000000000e+00  1.0112774367787706e-03 -8.7162209324983062e-03 0.0000000000000000e+00  1.0467915393151620e-03 -8.6313702027991275e-03 0.0000000000000000e+00  1.0823077757727505e-03 -8.5412971263560851e-03 0.0000000000000000e+00  1.1178299794654312e-03 -8.4454950459484385e-03 0.0000000000000000e+00  1.1533668674841694e-03 -8.3433392207492990e-03 0.0000000000000000e+00  1.1889251989078192e-03 -8.2340215891299699e-03 0.0000000000000000e+00  1.2244907945858309e-03 -8.1163960570556203e-03 0.0000000000000000e+00  1.2600768508772590e-03 -7.9889133421850566e-03 0.0000000000000000e+00  1.2956386588732719e-03 -7.8492752333517539e-03 0.0000000000000000e+00  1.3321987524428176e-03 -7.6934755612341598e-03 0.0000000000000000e+00  1.3686018948292928e-03 -7.5094047740847970e-03 0.0000000000000000e+00  -2.0819315327723038e-05 -2.9966905008116330e-04 0.0000000000000000e+00  -4.1646026563121183e-05 -3.0237539700467579e-04 0.0000000000000000e+00  -6.2487464239111413e-05 -3.0689041973624054e-04 0.0000000000000000e+00  -8.3351042933801082e-05 -3.1322108925429637e-04 0.0000000000000000e+00  -1.0424399061129569e-04 -3.2137689555259953e-04 0.0000000000000000e+00  -1.2517398692312150e-04 -3.3137071963288897e-04 0.0000000000000000e+00  -1.4614729391004521e-04 -3.4321722506504000e-04 0.0000000000000000e+00  -1.6717173926059054e-04 -3.5693506125083612e-04 0.0000000000000000e+00  -1.8825397117674481e-04 -3.7254536034179720e-04 0.0000000000000000e+00  -2.0940099395423375e-04 -3.9007254826552487e-04 0.0000000000000000e+00  -2.3061930821519891e-04 -4.0954386672149178e-04 0.0000000000000000e+00  -2.5191564272716404e-04 -4.3099005027691297e-04 0.0000000000000000e+00  -2.7329619508043582e-04 -4.5444517720958207e-04 0.0000000000000000e+00  -2.9476723509864956e-04 -4.7994684288486783e-04 0.0000000000000000e+00  -3.1633481699379801e-04 -5.0753636396575050e-04 0.0000000000000000e+00  -3.3800470342467049e-04 -5.3725894434253081e-04 0.0000000000000000e+00  -3.5978252060173572e-04 -5.6916383110924872e-04 0.0000000000000000e+00  -3.8167363846049299e-04 -6.0330512027261733e-04 0.0000000000000000e+00  -4.0368284321857086e-04 -6.3974042735629930e-04 0.0000000000000000e+00  -4.2581547015689829e-04 -6.7853321758957574e-04 0.0000000000000000e+00  -4.4807645362181833e-04 -7.1975153996369900e-04 0.0000000000000000e+00  -4.7046805173522844e-04 -7.6346810056752469e-04 0.0000000000000000e+00  -4.9299675976571843e-04 -8.0976463113365839e-04 0.0000000000000000e+00  -5.1566506146249222e-04 -8.5872690244279235e-04 0.0000000000000000e+00  -5.3847666362361274e-04 -9.1044822307192249e-04 0.0000000000000000e+00  -5.6143458028169095e-04 -9.6502970369888687e-04 0.0000000000000000e+00  -5.8454169448940473e-04 -1.0225810444889870e-03 0.0000000000000000e+00  -6.0780029397332510e-04 -1.0832210781426264e-03 0.0000000000000000e+00  -6.3121288829713076e-04 -1.1470789540991937e-03 0.0000000000000000e+00  -6.5478102680270774e-04 -1.2142943251980674e-03 0.0000000000000000e+00  -6.7850598346280277e-04 -1.2850201403872656e-03 0.0000000000000000e+00  -7.0238865242554347e-04 -1.3594224841973262e-03 0.0000000000000000e+00  -7.2643410614882061e-04 -1.4376853711598567e-03 0.0000000000000000e+00  -7.5063273362403109e-04 -1.5200069609134035e-03 0.0000000000000000e+00  -7.7499426639064271e-04 -1.6066087324089866e-03 0.0000000000000000e+00  -7.9951481393077323e-04 -1.6977308245632802e-03 0.0000000000000000e+00  -8.2419429130846725e-04 -1.7936418772915900e-03 0.0000000000000000e+00  -8.4902991635896793e-04 -1.8946408370528454e-03 0.0000000000000000e+00  -8.7402200101704757e-04 -2.0010606652952297e-03 0.0000000000000000e+00  -8.9916913292328849e-04 -2.1132729697521829e-03 0.0000000000000000e+00  -9.2446967196398785e-04 -2.2316969410053561e-03 0.0000000000000000e+00  -9.4991951926146154e-04 -2.3568092606671130e-03 0.0000000000000000e+00  -9.7551896420897772e-04 -2.4891501228036148e-03 0.0000000000000000e+00  -1.0012619491511080e-03 -2.6293393284899801e-03 0.0000000000000000e+00  -1.0271430194000333e-03 -2.7780952514068103e-03 0.0000000000000000e+00  -1.0531600875579846e-03 -2.9362599658998493e-03 0.0000000000000000e+00  -1.0793143381914231e-03 -3.1048143078950181e-03 0.0000000000000000e+00  -1.1055992340008247e-03 -3.2849383346735838e-03 0.0000000000000000e+00  -1.1320076773646155e-03 -3.4780495695020926e-03 0.0000000000000000e+00  -1.1585381461351606e-03 -3.6858751669801544e-03 0.0000000000000000e+00  -1.1851695104742718e-03 -3.9106237056366396e-03 0.0000000000000000e+00  -1.2119281439788485e-03 -4.1549853852383056e-03 0.0000000000000000e+00  -1.2387570063595104e-03 -4.4227210588834755e-03 0.0000000000000000e+00  -1.2656604902137403e-03 -4.7187666894343578e-03 0.0000000000000000e+00  -1.2926411832132516e-03 -5.0502016827550641e-03 0.0000000000000000e+00  -1.3198114135989439e-03 -5.4279891677519307e-03 0.0000000000000000e+00  -1.3465120039126233e-03 -5.8712581142730501e-03 0.0000000000000000e+00  -1.3746661023009176e-03 -6.4212221328943274e-03 0.0000000000000000e+00  0.0000000000000000e+00 -5.7982244767605803e-05 0.0000000000000000e+00  0.0000000000000000e+00 -1.0831030392048902e-04 0.0000000000000000e+00  0.0000000000000000e+00 -1.5192091118234629e-04 0.0000000000000000e+00  0.0000000000000000e+00 -1.8961201043844893e-04 0.0000000000000000e+00  0.0000000000000000e+00 -2.2198998270571473e-04 0.0000000000000000e+00  0.0000000000000000e+00 -2.4955383499968410e-04 0.0000000000000000e+00  0.0000000000000000e+00 -2.7272117189038302e-04 0.0000000000000000e+00  0.0000000000000000e+00 -2.9184943656627418e-04 0.0000000000000000e+00  0.0000000000000000e+00 -3.0722256605168844e-04 0.0000000000000000e+00  0.0000000000000000e+00 -3.1915251303807048e-04 0.0000000000000000e+00  0.0000000000000000e+00 -3.2789110886389654e-04 0.0000000000000000e+00  0.0000000000000000e+00 -3.3369998343311811e-04 0.0000000000000000e+00  0.0000000000000000e+00 -3.3684630335408753e-04 0.0000000000000000e+00  0.0000000000000000e+00 -3.3759390910676683e-04 0.0000000000000000e+00  0.0000000000000000e+00 -3.3621365798528011e-04 0.0000000000000000e+00  0.0000000000000000e+00 -3.3298418692249466e-04 0.0000000000000000e+00  0.0000000000000000e+00 -3.2819385269309615e-04 0.0000000000000000e+00  0.0000000000000000e+00 -3.2213042443632789e-04 0.0000000000000000e+00  0.0000000000000000e+00 -3.1508450242207495e-04 0.0000000000000000e+00  0.0000000000000000e+00 -3.0734595349873238e-04 0.0000000000000000e+00  0.0000000000000000e+00 -2.9920009778410347e-04 0.0000000000000000e+00  0.0000000000000000e+00 -2.9092167592600969e-04 0.0000000000000000e+00  0.0000000000000000e+00 -2.8277608476967358e-04 0.0000000000000000e+00  0.0000000000000000e+00 -2.7500501590331544e-04 0.0000000000000000e+00  0.0000000000000000e+00 -2.6783928817262240e-04 0.0000000000000000e+00  0.0000000000000000e+00 -2.6148707601665323e-04 0.0000000000000000e+00  0.0000000000000000e+00 -2.5612363870218015e-04 0.0000000000000000e+00  0.0000000000000000e+00 -2.5190774869745944e-04 0.0000000000000000e+00  0.0000000000000000e+00 -2.4896588289389067e-04 0.0000000000000000e+00  0.0000000000000000e+00 -2.4739739802628907e-04 0.0000000000000000e+00  0.0000000000000000e+00 -2.4727467907735995e-04 0.0000000000000000e+00  0.0000000000000000e+00 -2.4864205876363408e-04 0.0000000000000000e+00  0.0000000000000000e+00 -2.5151855859048609e-04 0.0000000000000000e+00  0.0000000000000000e+00 -2.5589958157625587e-04 0.0000000000000000e+00  0.0000000000000000e+00 -2.6175779930563507e-04 0.0000000000000000e+00  0.0000000000000000e+00 -2.6904579212362915e-04 0.0000000000000000e+00  0.0000000000000000e+00 -2.7769850429309757e-04 0.0000000000000000e+00  0.0000000000000000e+00 -2.8763645194601422e-04 0.0000000000000000e+00  0.0000000000000000e+00 0.0000000000000000e+00 0.0000000000000000e+00  0.0000000000000000e+00 0.0000000000000000e+00 0.0000000000000000e+00  0.0000000000000000e+00 0.0000000000000000e+00 0.0000000000000000e+00  0.0000000000000000e+00 0.0000000000000000e+00 0.0000000000000000e+00  0.0000000000000000e+00 0.0000000000000000e+00 0.0000000000000000e+00  0.0000000000000000e+00 0.0000000000000000e+00 0.0000000000000000e+00  0.0000000000000000e+00 0.0000000000000000e+00 0.0000000000000000e+00  0.0000000000000000e+00 0.0000000000000000e+00 0.0000000000000000e+00  0.0000000000000000e+00 0.0000000000000000e+00 0.0000000000000000e+00  0.0000000000000000e+00 0.0000000000000000e+00 0.0000000000000000e+00  0.0000000000000000e+00 0.0000000000000000e+00 0.0000000000000000e+00  0.0000000000000000e+00 0.0000000000000000e+00 0.0000000000000000e+00  0.0000000000000000e+00 0.0000000000000000e+00 0.0000000000000000e+00  0.0000000000000000e+00 0.0000000000000000e+00 0.0000000000000000e+00  0.0000000000000000e+00 0.0000000000000000e+00 0.0000000000000000e+00  0.0000000000000000e+00 0.0000000000000000e+00 0.0000000000000000e+00  0.0000000000000000e+00 0.0000000000000000e+00 0.0000000000000000e+00  0.0000000000000000e+00 0.0000000000000000e+00 0.0000000000000000e+00  0.0000000000000000e+00 -2.8754601614074864e-04 0.0000000000000000e+00  0.0000000000000000e+00 -2.7754447022543103e-04 0.0000000000000000e+00  0.0000000000000000e+00 -2.6885467077125236e-04 0.0000000000000000e+00  0.0000000000000000e+00 -2.6155514504468862e-04 0.0000000000000000e+00  0.0000000000000000e+00 -2.5570978559607074e-04 0.0000000000000000e+00  0.0000000000000000e+00 -2.5136359582466212e-04 0.0000000000000000e+00  0.0000000000000000e+00 -2.4854091775726759e-04 0.0000000000000000e+00  0.0000000000000000e+00 -2.4724350225480786e-04 0.0000000000000000e+00  0.0000000000000000e+00 -2.4744872497996733e-04 0.0000000000000000e+00  0.0000000000000000e+00 -2.4910687233392707e-04 0.0000000000000000e+00  0.0000000000000000e+00 -2.5214330885751620e-04 0.0000000000000000e+00  0.0000000000000000e+00 -2.5644930001637585e-04 0.0000000000000000e+00  0.0000000000000000e+00 -2.6189873965157121e-04 0.0000000000000000e+00  0.0000000000000000e+00 -2.6832923687564929e-04 0.0000000000000000e+00  0.0000000000000000e+00 -2.7555761309730779e-04 0.0000000000000000e+00  0.0000000000000000e+00 -2.8337127656261285e-04 0.0000000000000000e+00  0.0000000000000000e+00 -2.9154143173448663e-04 0.0000000000000000e+00  0.0000000000000000e+00 -2.9982294833514424e-04 0.0000000000000000e+00  0.0000000000000000e+00 -3.0794718524757003e-04 0.0000000000000000e+00  0.0000000000000000e+00 -3.1563927147064077e-04 0.0000000000000000e+00  0.0000000000000000e+00 -3.2261566040450159e-04 0.0000000000000000e+00  0.0000000000000000e+00 -3.2858857125719161e-04 0.0000000000000000e+00  0.0000000000000000e+00 -3.3326913119486755e-04 0.00000000000