<?xml version="1.0"?>
<VTKFile type="UnstructuredGrid"  version="0.1"  >
<UnstructuredGrid>
<Piece  NumberOfPoints="3167" NumberOfCells="6038">
<Points>
<DataArray  type="Float64"  NumberOfComponents="3"  format="ascii">2.2 2.9 0  0 2.9 0  2.8 2.9 0  5 2.9 0  5 0 0  0 0 0  2.16271186440678 2.9 0  2.125423728813559 2.9 0  2.088135593220339 2.9 0  2.050847457627119 2.9 0  2.013559322033898 2.9 0  1.976271186440678 2.9 0  1.938983050847457 2.9 0  1.901694915254237 2.9 0  1.864406779661016 2.9 0  1.827118644067796 2.9 0  1.789830508474575 2.9 0  1.752542372881355 2.9 0  1.715254237288134 2.9 0  1.677966101694914 2.9 0  1.640677966101693 2.9 0  1.603389830508473 2.9 0  1.566101694915253 2.9 0  1.528813559322032 2.9 0  1.491525423728812 2.9 0  1.454237288135591 2.9 0  1.416949152542371 2.9 0  1.37966101694915 2.9 0  1.34237288135593 2.9 0  1.305084745762709 2.9 0  1.267796610169489 2.9 0  1.230508474576268 2.9 0  1.193220338983048 2.9 0  1.155932203389827 2.9 0  1.118644067796607 2.9 0  1.081355932203387 2.9 0  1.044067796610166 2.9 0  1.006779661016946 2.9 0  0.9694915254237257 2.9 0  0.9322033898305055 2.9 0  0.8949152542372856 2.9 0  0.8576271186440652 2.9 0  0.820338983050845 2.9 0  0.783050847457625 2.9 0  0.7457627118644048 2.9 0  0.7084745762711844 2.9 0  0.6711864406779642 2.9 0  0.633898305084744 2.9 0  0.5966101694915238 2.9 0  0.5593220338983036 2.9 0  0.5220338983050834 2.9 0  0.4847457627118632 2.9 0  0.447457627118643 2.9 0  0.4101694915254228 2.9 0  0.3728813559322024 2.9 0  0.3355932203389822 2.9 0  0.2983050847457622 2.9 0  0.2610169491525418 2.9 0  0.2237288135593216 2.9 0  0.1864406779661016 2.9 0  0.1491525423728812 2.9 0  0.1118644067796613 2.9 0  0.07457627118644039 2.9 0  0.03728813559321997 2.9 0  2.792405063291139 2.9 0  2.784810126582279 2.9 0  2.777215189873418 2.9 0  2.769620253164557 2.9 0  2.762025316455697 2.9 0  2.754430379746836 2.9 0  2.746835443037975 2.9 0  2.739240506329114 2.9 0  2.731645569620254 2.9 0  2.724050632911393 2.9 0  2.716455696202532 2.9 0  2.708860759493671 2.9 0  2.701265822784811 2.9 0  2.69367088607595 2.9 0  2.686075949367089 2.9 0  2.678481012658228 2.9 0  2.670886075949368 2.9 0  2.663291139240507 2.9 0  2.655696202531646 2.9 0  2.648101265822786 2.9 0  2.640506329113925 2.9 0  2.632911392405064 2.9 0  2.625316455696203 2.9 0  2.617721518987342 2.9 0  2.610126582278482 2.9 0  2.602531645569621 2.9 0  2.59493670886076 2.9 0  2.587341772151899 2.9 0  2.579746835443038 2.9 0  2.572151898734178 2.9 0  2.564556962025317 2.9 0  2.556962025316456 2.9 0  2.549367088607595 2.9 0  2.541772151898734 2.9 0  2.534177215189874 2.9 0  2.526582278481013 2.9 0  2.518987341772152 2.9 0  2.511392405063292 2.9 0  2.503797468354431 2.9 0  2.49620253164557 2.9 0  2.488607594936709 2.9 0  2.481012658227848 2.9 0  2.473417721518988 2.9 0  2.465822784810127 2.9 0  2.458227848101266 2.9 0  2.450632911392406 2.9 0  2.443037974683545 2.9 0  2.435443037974684 2.9 0  2.427848101265823 2.9 0  2.420253164556962 2.9 0  2.412658227848102 2.9 0  2.405063291139241 2.9 0  2.39746835443038 2.9 0  2.389873417721519 2.9 0  2.382278481012658 2.9 0  2.374683544303798 2.9 0  2.367088607594937 2.9 0  2.359493670886076 2.9 0  2.351898734177215 2.9 0  2.344303797468355 2.9 0  2.336708860759494 2.9 0  2.329113924050633 2.9 0  2.321518987341773 2.9 0  2.313924050632912 2.9 0  2.306329113924051 2.9 0  2.29873417721519 2.9 0  2.291139240506329 2.9 0  2.283544303797469 2.9 0  2.275949367088608 2.9 0  2.268354430379747 2.9 0  2.260759493670887 2.9 0  2.253164556962026 2.9 0  2.245569620253165 2.9 0  2.237974683544304 2.9 0  2.230379746835443 2.9 0  2.222784810126583 2.9 0  2.215189873417722 2.9 0  2.207594936708861 2.9 0  4.96271186440678 2.9 0  4.925423728813559 2.9 0  4.888135593220339 2.9 0  4.850847457627118 2.9 0  4.813559322033898 2.9 0  4.776271186440677 2.9 0  4.738983050847457 2.9 0  4.701694915254237 2.9 0  4.664406779661016 2.9 0  4.627118644067796 2.9 0  4.589830508474575 2.9 0  4.552542372881355 2.9 0  4.515254237288135 2.9 0  4.477966101694914 2.9 0  4.440677966101694 2.9 0  4.403389830508473 2.9 0  4.366101694915252 2.9 0  4.328813559322032 2.9 0  4.291525423728811 2.9 0  4.254237288135591 2.9 0  4.21694915254237 2.9 0  4.17966101694915 2.9 0  4.14237288135593 2.9 0  4.105084745762709 2.9 0  4.067796610169489 2.9 0  4.030508474576268 2.9 0  3.993220338983048 2.9 0  3.955932203389827 2.9 0  3.918644067796607 2.9 0  3.881355932203387 2.9 0  3.844067796610166 2.9 0  3.806779661016946 2.9 0  3.769491525423725 2.9 0  3.732203389830505 2.9 0  3.694915254237285 2.9 0  3.657627118644065 2.9 0  3.620338983050845 2.9 0  3.583050847457625 2.9 0  3.545762711864405 2.9 0  3.508474576271184 2.9 0  3.471186440677964 2.9 0  3.433898305084744 2.9 0  3.396610169491524 2.9 0  3.359322033898303 2.9 0  3.322033898305083 2.9 0  3.284745762711863 2.9 0  3.247457627118643 2.9 0  3.210169491525423 2.9 0  3.172881355932202 2.9 0  3.135593220338982 2.9 0  3.098305084745762 2.9 0  3.061016949152542 2.9 0  3.023728813559321 2.9 0  2.986440677966101 2.9 0  2.949152542372881 2.9 0  2.911864406779661 2.9 0  2.87457627118644 2.9 0  2.83728813559322 2.9 0  5 0.1063822625082082 0  5 0.210636880010749 0  5 0.3128064053694972 0  5 0.4129325400644018 0  5 0.5110561521032336 0  5 0.6072172918830103 0  5 0.7014552087832795 0  5 0.7938083674443693 0  5 0.88431446261646 0  5 0.9730104359544682 0  5 1.059932489996267 0  5 1.145116102913299 0  5 1.228596043483191 0  5 1.310406385079062 0  5 1.390580519944147 0  5 1.469151172477827 0  5 1.546150411986101 0  5 1.621609666658609 0  5 1.695559736099044 0  5 1.76803080383987 0  5 1.839052450169751 0  5 1.908653663631169 0  5 1.97686285289587 0  5 2.043707858613779 0  5 2.109215964341413 0  5 2.173413907925942 0  5 2.236327892833935 0  5 2.297983597762904 0  5 2.35840618845912 0  5 2.41762032730194 0  5 2.475650183444628 0  5 2.532519442457069 0  5 2.588251316112828 0  5 2.642868552557322 0  5 2.696393444426347 0  5 2.748847838312051 0  5 2.800253144313381 0  5 2.850630344319807 0  0.2631578947368421 0 0  0.5263157894736842 0 0  0.7894736842105263 0 0  1.052631578947368 0 0  1.31578947368421 0 0  1.578947368421053 0 0  1.842105263157895 0 0  2.105263157894737 0 0  2.368421052631579 0 0  2.631578947368421 0 0  2.894736842105263 0 0  3.157894736842105 0 0  3.421052631578947 0 0  3.684210526315789 0 0  3.947368421052632 0 0  4.210526315789473 0 0  4.473684210526315 0 0  4.736842105263158 0 0  0 2.850203682350569 0  0 2.799411438503675 0  0 2.747603349778291 0  0 2.694759099502208 0  0 2.640857964382145 0  0 2.58587880633613 0  0 2.52980006535898 0  0 2.472599749459174 0  0 2.414255427218689 0  0 2.35474421880616 0  0 2.294042786119219 0  0 2.232127324764723 0  0 2.1689735539481 0  0 2.104556707683347 0  0 2.038851524813415 0  0 1.971832238155655 0  0 1.903472565412126 0  0 1.83374569926617 0  0 1.762624296208475 0  0 1.690080464918761 0  0 1.616085756774206 0  0 1.540611154706337 0  0 1.463627060685571 0  0 1.385103284916206 0  0 1.305009033716617 0  0 1.223312897337225 0  0 1.139982838163732 0  0 1.054986177579938 0  0 0.9682895835804817 0  0 0.8798590579197976 0  0 0.7896599218415354 0  0 0.6976568029903638 0  0 0.6038136217958798 0  0 0.508093576867624 0  0 0.4104591310957497 0  0 0.3108719963522191 0  0 0.2092931188294389 0  0 0.1056826638508546 0  1.434832105763824 2.866945754981483 0  1.737156300467626 2.870039440267515 0  2.032203389830508 2.867707527316512 0  2.332911392405064 2.893422591869991 0  2.469810913293406 2.891944186606167 0  2.606221408823969 2.892519154985628 0  2.255455320628894 2.892068685006691 0  2.538247299216212 2.894964578182811 0  2.674683544303798 2.893422591869991 0  2.40126582278481 2.893422591869991 0  3.566125247295424 2.865029336199714 0  3.266101694915253 2.867707527316512 0  2.967796610169491 2.867707527316512 0  1.174288529834642 2.870795313888584 0  3.825423728813556 2.867707527316512 0  2.727766680262011 2.892655387647729 0  0.06601655192030442 1.502119107695954 0  4.933983535508361 1.507650792231964 0  0.9532124728485543 2.868722489783638 0  4.048935912500257 2.870640982995992 0  0.05930163367361763 1.866907161167414 0  4.943402512618553 1.871280731473148 0  4.271733870017743 2.86520865624265 0  0.7249420921613114 2.863922936177041 0  0.05494499779910056 2.196469063120752 0  4.947228695426367 2.208030108792719 0  0.5406152150397161 2.866493807382013 0  4.459322033898304 2.868847558178794 0  2.18135593220339 2.875780645487384 0  2.817027156509632 2.876587550645167 0  4.928427208322876 1.186856073198245 0  0.07189226971603224 1.174626666111662 0  4.610299014423113 2.867003104093161 0  0.3897270066746357 2.869433095314657 0  1.581132500042262 2.868247328632392 0  1.887637879411437 2.869235851794358 0  3.413449426418068 2.867372048034327 0  3.116721298814773 2.865731235547652 0  2.644303797468355 2.893422591869991 0  2.370983221828106 2.892719513369796 0  2.302531645569621 2.893336787387268 0  2.758987341772152 2.894242393897099 0  0.04979653335696277 2.443411216910286 0  4.950470983477169 2.446866954595817 0  2.482937483021586 0.2513241087417575 0  1.707129504814338 0.1999998659920923 0  3.28584657955054 0.229200625631625 0  4.907807122600524 0.834082362900164 0  4.757627118644067 2.867707527316512 0  0.0773489124676745 0.8347594898806663 0  0.2390604736599387 2.861365431805741 0  0.8363213715215729 2.863896768908178 0  4.160865610207075 2.868916854015731 0  1.282549332053297 2.867610952980761 0  1.065094818402487 2.861284686038041 0  3.93818127737282 2.86865134411395 0  3.711492629432973 2.863574306925269 0  4.91369361998929 0.5579891344254361 0  0.08208328472281323 0.5559535993317519 0  2.696596932532885 2.892010483922337 0  0.04706410140274553 2.613055974506516 0  4.955577063972248 2.616518038840186 0  2.234177215189874 2.893422591869991 0  2.279795840559739 2.89403861893984 0  0.9117357887652362 0.2117925286661764 0  4.055948041993057 0.2039101057937727 0  4.872119713780579 2.867632926423075 0  2.780113878992455 2.891535929611743 0  0.1327442468251063 2.85
[...]
<PointData  Vectors="displacement"> 
<DataArray  type="Float64"  Name="displacement"  NumberOfComponents="3" format="ascii">1.2694231252073070e-03 -6.6427291150867405e-03 0.0000000000000000e+00  0.0000000000000000e+00 -2.7351921547035267e-04 0.0000000000000000e+00  -1.2711662175808991e-03 -6.6430015428984380e-03 0.0000000000000000e+00  0.0000000000000000e+00 -2.7351954230141423e-04 0.0000000000000000e+00  0.0000000000000000e+00 0.0000000000000000e+00 0.0000000000000000e+00  0.0000000000000000e+00 0.0000000000000000e+00 0.0000000000000000e+00  1.2582571648734992e-03 -5.8789359958492269e-03 0.0000000000000000e+00  1.2330370409216038e-03 -5.3749028135350882e-03 0.0000000000000000e+00  1.2081605046761713e-03 -4.9693044490541332e-03 0.0000000000000000e+00  1.1834253418754152e-03 -4.6234253590950528e-03 0.0000000000000000e+00  1.1587237056279545e-03 -4.3199718330642380e-03 0.0000000000000000e+00  1.1340737688114787e-03 -4.0489633641887304e-03 0.0000000000000000e+00  1.1095012886008747e-03 -3.8038719004379559e-03 0.0000000000000000e+00  1.0850116875472527e-03 -3.5801459310336593e-03 0.0000000000000000e+00  1.0606299970775403e-03 -3.3744022151157875e-03 0.0000000000000000e+00  1.0363473052038461e-03 -3.1841176167721062e-03 0.0000000000000000e+00  1.0121710206385573e-03 -3.0073306636542985e-03 0.0000000000000000e+00  9.8810668160804419e-04 -2.8424387095153667e-03 0.0000000000000000e+00  9.6416358463104505e-04 -2.6881284950151215e-03 0.0000000000000000e+00  9.4034142168084684e-04 -2.5433279112242655e-03 0.0000000000000000e+00  9.1664567417319037e-04 -2.4071396982856107e-03 0.0000000000000000e+00  8.9307913360825821e-04 -2.2787963168412785e-03 0.0000000000000000e+00  8.6964678604761108e-04 -2.1576409119755187e-03 0.0000000000000000e+00  8.4634606561444052e-04 -2.0431041539246695e-03 0.0000000000000000e+00  8.2318374329370134e-04 -1.9346875837228611e-03 0.0000000000000000e+00  8.0016138775241001e-04 -1.8319573137679953e-03 0.0000000000000000e+00  7.7728097699292296e-04 -1.7345305225814249e-03 0.0000000000000000e+00  7.5454330399347307e-04 -1.6420675006719417e-03 0.0000000000000000e+00  7.3195091643010139e-04 -1.5542598494838848e-03 0.0000000000000000e+00  7.0950208128849697e-04 -1.4708366962917273e-03 0.0000000000000000e+00  6.8719927740574951e-04 -1.3915550540092578e-03 0.0000000000000000e+00  6.6504313268000721e-04 -1.3161912368788245e-03 0.0000000000000000e+00  6.4303310457820774e-04 -1.2445416791321611e-03 0.0000000000000000e+00  6.2116697785791718e-04 -1.1764268433158075e-03 0.0000000000000000e+00  5.9944866622446203e-04 -1.1116794641623498e-03 0.0000000000000000e+00  5.7787076379351300e-04 -1.0501431923796570e-03 0.0000000000000000e+00  5.5643698936412112e-04 -9.9168044227956930e-04 0.0000000000000000e+00  5.3514458870284980e-04 -9.3616420627585953e-04 0.0000000000000000e+00  5.1398972670161779e-04 -8.8347798648657767e-04 0.0000000000000000e+00  4.9297192938580511e-04 -8.3350829658137486e-04 0.0000000000000000e+00  4.7208783075637021e-04 -7.8615818889746659e-04 0.0000000000000000e+00  4.5133529970726896e-04 -7.4133385665221753e-04 0.0000000000000000e+00  4.3071042458172151e-04 -6.9894907507441926e-04 0.0000000000000000e+00  4.1021028276797678e-04 -6.5892640257571170e-04 0.0000000000000000e+00  3.8983114520821155e-04 -6.2119161658268042e-04 0.0000000000000000e+00  3.6956891654243014e-04 -5.8567733944226818e-04 0.0000000000000000e+00  3.4941949335370794e-04 -5.5232118918749449e-04 0.0000000000000000e+00  3.2937854419239272e-04 -5.2106539019781267e-04 0.0000000000000000e+00  3.0944098890917153e-04 -4.9185640584270291e-04 0.0000000000000000e+00  2.8960234692428061e-04 -4.6464565865698894e-04 0.0000000000000000e+00  2.6985731295770589e-04 -4.3938755620980446e-04 0.0000000000000000e+00  2.5020067916409916e-04 -4.1604096393954831e-04 0.0000000000000000e+00  2.3062690262688027e-04 -3.9456794902319804e-04 0.0000000000000000e+00  2.1113034691835233e-04 -3.7493422641361393e-04 0.0000000000000000e+00  1.9170509354497038e-04 -3.5710837028453190e-04 0.0000000000000000e+00  1.7234509904631454e-04 -3.4106244736933374e-04 0.0000000000000000e+00  1.5304483080255248e-04 -3.2677150882147736e-04 0.0000000000000000e+00  1.3379684802693100e-04 -3.1421280362782332e-04 0.0000000000000000e+00  1.1459559905489863e-04 -3.0336709238287703e-04 0.0000000000000000e+00  9.5434605765302728e-05 -2.9421810070591210e-04 0.0000000000000000e+00  7.6307638088213804e-05 -2.8675154043350125e-04 0.0000000000000000e+00  5.7206799511136529e-05 -2.8095581641747540e-04 0.0000000000000000e+00  3.8126493272164523e-05 -2.7682225391317469e-04 0.0000000000000000e+00  1.9059787360172278e-05 -2.7434464673666866e-04 0.0000000000000000e+00  -1.2531234836198127e-03 -6.8753376206538083e-03 0.0000000000000000e+00  -1.2194029897370222e-03 -7.0428482020115585e-03 0.0000000000000000e+00  -1.1864177659691943e-03 -7.1859690875637578e-03 0.0000000000000000e+00  -1.1535935788961201e-03 -7.3138460842164504e-03 0.0000000000000000e+00  -1.1209987624170793e-03 -7.4305246408634855e-03 0.0000000000000000e+00  -1.0884335323928310e-03 -7.5381807932535820e-03 0.0000000000000000e+00  -1.0558905316648028e-03 -7.6382817001099694e-03 0.0000000000000000e+00  -1.0233617160776550e-03 -7.7318068828999120e-03 0.0000000000000000e+00  -9.9083356757038326e-04 -7.8195041744604597e-03 0.0000000000000000e+00  -9.5831663201222821e-04 -7.9019637090819942e-03 0.0000000000000000e+00  -9.2580842844219760e-04 -7.9796471656911998e-03 0.0000000000000000e+00  -8.9330259447007343e-04 -8.0529275761662637e-03 0.0000000000000000e+00  -8.6080019670245684e-04 -8.1221193151042731e-03 0.0000000000000000e+00  -8.2830136443167682e-04 -8.1874795404323908e-03 0.0000000000000000e+00  -7.9580210159191605e-04 -8.2492262179081552e-03 0.0000000000000000e+00  -7.6330708962201095e-04 -8.3075561690128114e-03 0.0000000000000000e+00  -7.3081389246297643e-04 -8.3626322298122058e-03 0.0000000000000000e+00  -6.9832270594638536e-04 -8.4145971169413344e-03 0.0000000000000000e+00  -6.6583312813123002e-04 -8.4635776873288205e-03 0.0000000000000000e+00  -6.3334487214402170e-04 -8.5096849657249739e-03 0.0000000000000000e+00  -6.0085796290185005e-04 -8.5530177097986344e-03 0.0000000000000000e+00  -5.6837235363541255e-04 -8.5936637710871643e-03 0.0000000000000000e+00  -5.3588777713519504e-04 -8.6317009251008544e-03 0.0000000000000000e+00  -5.0340439571639113e-04 -8.6671993809748337e-03 0.0000000000000000e+00  -4.7092201246799883e-04 -8.7002218104850725e-03 0.0000000000000000e+00  -4.3844052499526326e-04 -8.7308235540865323e-03 0.0000000000000000e+00  -4.0596030846548186e-04 -8.7590546878274396e-03 0.0000000000000000e+00  -3.7348030974856776e-04 -8.7849593010518937e-03 0.0000000000000000e+00  -3.4100116222322130e-04 -8.8085776690858611e-03 0.0000000000000000e+00  -3.0852280745560703e-04 -8.8299448547487398e-03 0.0000000000000000e+00  -2.7604509099592579e-04 -8.8490920529841928e-03 0.0000000000000000e+00  -2.4356779751543282e-04 -8.8660463672219827e-03 0.0000000000000000e+00  -2.1109095702708162e-04 -8.8808316264951462e-03 0.0000000000000000e+00  -1.7861463726734990e-04 -8.8934682139455729e-03 0.0000000000000000e+00  -1.4613837351474537e-04 -8.9039727851385111e-03 0.0000000000000000e+00  -1.1366295708971855e-04 -8.9123601087184277e-03 0.0000000000000000e+00  -8.1187209905573846e-05 -8.9186410021983662e-03 0.0000000000000000e+00  -4.8711729235968101e-05 -8.9228235642846675e-03 0.0000000000000000e+00  -1.6236457590330128e-05 -8.9249135065394350e-03 0.0000000000000000e+00  1.6238817283383693e-05 -8.9249134663238697e-03 0.0000000000000000e+00  4.8714121532864584e-05 -8.9228234299575503e-03 0.0000000000000000e+00  8.1189522373714215e-05 -8.9186407002778845e-03 0.0000000000000000e+00  1.1366508422749269e-04 -8.9123598735068761e-03 0.0000000000000000e+00  1.4614078963396003e-04 -8.9039725135377501e-03 0.0000000000000000e+00  1.7861688138460710e-04 -8.8934674836124421e-03 0.0000000000000000e+00  2.1109323887192537e-04 -8.8808310205632877e-03 0.0000000000000000e+00  2.4357003182201369e-04 -8.8660457838456667e-03 0.0000000000000000e+00  2.7604727862026832e-04 -8.8490913914038224e-03 0.0000000000000000e+00  3.0852515595160632e-04 -8.8299442264454936e-03 0.0000000000000000e+00  3.4100351947651323e-04 -8.8085768458520380e-03 0.0000000000000000e+00  3.7348258961986515e-04 -8.7849584935152901e-03 0.0000000000000000e+00  4.0596264487501824e-04 -8.7590536094525329e-03 0.0000000000000000e+00  4.3844309339156537e-04 -8.7308224446957811e-03 0.0000000000000000e+00  4.7092457982214581e-04 -8.7002209306198761e-03 0.0000000000000000e+00  5.0340700711415864e-04 -8.6671987847073365e-03 0.0000000000000000e+00  5.3589047983127174e-04 -8.6317002725445399e-03 0.0000000000000000e+00  5.6837489807617090e-04 -8.5936628739194994e-03 0.0000000000000000e+00  6.0086108515902529e-04 -8.5530171818004840e-03 0.0000000000000000e+00  6.3334855597262563e-04 -8.5096834210367060e-03 0.0000000000000000e+00  6.6583714433252690e-04 -8.4635761300418458e-03 0.0000000000000000e+00  6.9832712799891312e-04 -8.4145954329319528e-03 0.0000000000000000e+00  7.3081890886097297e-04 -8.3626301714481259e-03 0.0000000000000000e+00  7.6331251714702891e-04 -8.3075540546166428e-03 0.0000000000000000e+00  7.9580830434712601e-04 -8.2492231715892324e-03 0.0000000000000000e+00  8.2830639767310713e-04 -8.1874734522303250e-03 0.0000000000000000e+00  8.6080768810794324e-04 -8.1221138601722566e-03 0.0000000000000000e+00  8.9331078176207372e-04 -8.0529225259292625e-03 0.0000000000000000e+00  9.2581737169887318e-04 -7.9796388818646462e-03 0.0000000000000000e+00  9.5833028247162581e-04 -7.9019586363653967e-03 0.0000000000000000e+00  9.9084514683420687e-04 -7.8194973691992301e-03 0.0000000000000000e+00  1.0233654741584918e-03 -7.7317912392485689e-03 0.0000000000000000e+00  1.0558992448798717e-03 -7.6382683006859763e-03 0.0000000000000000e+00  1.0884526468874383e-03 -7.5381887787809559e-03 0.0000000000000000e+00  1.1210126992687165e-03 -7.4305034325157053e-03 0.0000000000000000e+00  1.1535914831974892e-03 -7.3137939048173034e-03 0.0000000000000000e+00  1.1861480679825711e-03 -7.1859561995473798e-03 0.0000000000000000e+00  1.2196185761800427e-03 -7.0433226969045118e-03 0.0000000000000000e+00  1.2529453966747030e-03 -6.8748071875424184e-03 0.0000000000000000e+00  -1.9059936567633758e-05 -2.7434490500388145e-04 0.0000000000000000e+00  -3.8126644036660232e-05 -2.7682254655357592e-04 0.0000000000000000e+00  -5.7206833458341447e-05 -2.8095601806838881e-04 0.0000000000000000e+00  -7.6307292826719280e-05 -2.8675170142998925e-04 0.0000000000000000e+00  -9.5434639292031281e-05 -2.9421828466083007e-04 0.0000000000000000e+00  -1.1459590352116755e-04 -3.0336756022729226e-04 0.0000000000000000e+00  -1.3379681836835121e-04 -3.1421295252433184e-04 0.0000000000000000e+00  -1.5304455002730121e-04 -3.2677153494794798e-04 0.0000000000000000e+00  -1.7234518488011842e-04 -3.4106265383403915e-04 0.0000000000000000e+00  -1.9170513531021390e-04 -3.5710867094731108e-04 0.0000000000000000e+00  -2.1113035259137921e-04 -3.7493452587178768e-04 0.0000000000000000e+00  -2.3062699686289659e-04 -3.9456835588731412e-04 0.0000000000000000e+00  -2.5020074197504684e-04 -4.1604135941722246e-04 0.0000000000000000e+00  -2.6985732790721438e-04 -4.3938795475375166e-04 0.0000000000000000e+00  -2.8960229724784317e-04 -4.6464596701089776e-04 0.0000000000000000e+00  -3.0944092567047291e-04 -4.9185678003189383e-04 0.0000000000000000e+00  -3.2937836393116647e-04 -5.2106547918452293e-04 0.0000000000000000e+00  -3.4941952816805699e-04 -5.5232158898197293e-04 0.0000000000000000e+00  -3.6956880012967754e-04 -5.8567785603041436e-04 0.0000000000000000e+00  -3.8983106422814634e-04 -6.2119238230031533e-04 0.0000000000000000e+00  -4.1021083782279144e-04 -6.5892746616394925e-04 0.0000000000000000e+00  -4.3071018820830777e-04 -6.9894966953364882e-04 0.0000000000000000e+00  -4.5133506175734791e-04 -7.4133381723503859e-04 0.0000000000000000e+00  -4.7208773232481672e-04 -7.8615843181382343e-04 0.0000000000000000e+00  -4.9297159345823680e-04 -8.3350893661513956e-04 0.0000000000000000e+00  -5.1398940448323821e-04 -8.8347789775250138e-04 0.0000000000000000e+00  -5.3514380481424386e-04 -9.3616574495470597e-04 0.0000000000000000e+00  -5.5643688884881887e-04 -9.9168126872212214e-04 0.0000000000000000e+00  -5.7787095407483820e-04 -1.0501427044570075e-03 0.0000000000000000e+00  -5.9944741890388751e-04 -1.1116779033503426e-03 0.0000000000000000e+00  -6.2116744964904494e-04 -1.1764268890869321e-03 0.0000000000000000e+00  -6.4303186489662423e-04 -1.2445417108848755e-03 0.0000000000000000e+00  -6.6504530844610325e-04 -1.3161908327519809e-03 0.0000000000000000e+00  -6.8719898148678895e-04 -1.3915556684418473e-03 0.0000000000000000e+00  -7.0950179317453242e-04 -1.4708389803744233e-03 0.0000000000000000e+00  -7.3195018176760941e-04 -1.5542606140368049e-03 0.0000000000000000e+00  -7.5454406950775188e-04 -1.6420665073796235e-03 0.0000000000000000e+00  -7.7728090934271732e-04 -1.7345303437807729e-03 0.0000000000000000e+00  -8.0016098684659333e-04 -1.8319569471012659e-03 0.0000000000000000e+00  -8.2318300901427848e-04 -1.9346865216041099e-03 0.0000000000000000e+00  -8.4634547433322870e-04 -2.0431028333147620e-03 0.0000000000000000e+00  -8.6964463030978910e-04 -2.1576422808924265e-03 0.0000000000000000e+00  -8.9308074188145892e-04 -2.2787994082004923e-03 0.0000000000000000e+00  -9.1664826330735286e-04 -2.4071416387584322e-03 0.0000000000000000e+00  -9.4034220085918588e-04 -2.5433266386118685e-03 0.0000000000000000e+00  -9.6416064353900023e-04 -2.6881253208942270e-03 0.0000000000000000e+00  -9.8810467580904963e-04 -2.8424356339883960e-03 0.0000000000000000e+00  -1.0121683128176569e-03 -3.0073379120251114e-03 0.0000000000000000e+00  -1.0363450567422545e-03 -3.1841298875723381e-03 0.0000000000000000e+00  -1.0606335140674011e-03 -3.3743927585029566e-03 0.0000000000000000e+00  -1.0850143405750380e-03 -3.5801484629067819e-03 0.0000000000000000e+00  -1.1095116811073974e-03 -3.8038598597252091e-03 0.0000000000000000e+00  -1.1340733156812424e-03 -4.0489699834848712e-03 0.0000000000000000e+00  -1.1587032656886361e-03 -4.3199976734258193e-03 0.0000000000000000e+00  -1.1834039001248089e-03 -4.6234240757616783e-03 0.0000000000000000e+00  -1.2082780547032596e-03 -4.9692858578010623e-03 0.0000000000000000e+00  -1.2327222571031067e-03 -5.3750954567288473e-03 0.0000000000000000e+00  -1.2584971359092915e-03 -5.8785836427905809e-03 0.0000000000000000e+00  0.0000000000000000e+00 -5.3082336759075715e-05 0.0000000000000000e+00  0.0000000000000000e+00 -9.9157320490588576e-05 0.0000000000000000e+00  0.0000000000000000e+00 -1.3908252432186629e-04 0.0000000000000000e+00  0.0000000000000000e+00 -1.7358846026055191e-04 0.0000000000000000e+00  0.0000000000000000e+00 -2.0323026585734440e-04 0.0000000000000000e+00  0.0000000000000000e+00 -2.2846477852083761e-04 0.0000000000000000e+00  0.0000000000000000e+00 -2.4967431229401245e-04 0.0000000000000000e+00  0.0000000000000000e+00 -2.6718610389870164e-04 0.0000000000000000e+00  0.0000000000000000e+00 -2.8126009568112299e-04 0.0000000000000000e+00  0.0000000000000000e+00 -2.9218187813344451e-04 0.0000000000000000e+00  0.0000000000000000e+00 -3.0018200107258106e-04 0.0000000000000000e+00  0.0000000000000000e+00 -3.0549998483313603e-04 0.0000000000000000e+00  0.0000000000000000e+00 -3.0838041856360096e-04 0.0000000000000000e+00  0.0000000000000000e+00 -3.0906484636534950e-04 0.0000000000000000e+00  0.0000000000000000e+00 -3.0780123618370672e-04 0.0000000000000000e+00  0.0000000000000000e+00 -3.0484467816848065e-04 0.0000000000000000e+00  0.0000000000000000e+00 -3.0045916091621453e-04 0.0000000000000000e+00  0.0000000000000000e+00 -2.9490813504734199e-04 0.0000000000000000e+00  0.0000000000000000e+00 -2.8845764306246259e-04 0.0000000000000000e+00  0.0000000000000000e+00 -2.8137305601996587e-04 0.0000000000000000e+00  0.0000000000000000e+00 -2.7391558247840422e-04 0.0000000000000000e+00  0.0000000000000000e+00 -2.6633674556606477e-04 0.0000000000000000e+00  0.0000000000000000e+00 -2.5887951422575708e-04 0.0000000000000000e+00  0.0000000000000000e+00 -2.5176515540444337e-04 0.0000000000000000e+00  0.0000000000000000e+00 -2.4520498212986507e-04 0.0000000000000000e+00  0.0000000000000000e+00 -2.3938957663496374e-04 0.0000000000000000e+00  0.0000000000000000e+00 -2.3447938754424895e-04 0.0000000000000000e+00  0.0000000000000000e+00 -2.3061976993429337e-04 0.0000000000000000e+00  0.0000000000000000e+00 -2.2792651250849098e-04 0.0000000000000000e+00  0.0000000000000000e+00 -2.2649057565786982e-04 0.0000000000000000e+00  0.0000000000000000e+00 -2.2637822732434325e-04 0.0000000000000000e+00  0.0000000000000000e+00 -2.2763005379769280e-04 0.0000000000000000e+00  0.0000000000000000e+00 -2.3026346913213481e-04 0.0000000000000000e+00  0.0000000000000000e+00 -2.3427426482333234e-04 0.0000000000000000e+00  0.0000000000000000e+00 -2.3963742189952455e-04 0.0000000000000000e+00  0.0000000000000000e+00 -2.4630952800050508e-04 0.0000000000000000e+00  0.0000000000000000e+00 -2.5423102505706065e-04 0.0000000000000000e+00  0.0000000000000000e+00 -2.6332914614775901e-04 0.0000000000000000e+00  0.0000000000000000e+00 0.0000000000000000e+00 0.0000000000000000e+00  0.0000000000000000e+00 0.0000000000000000e+00 0.0000000000000000e+00  0.0000000000000000e+00 0.0000000000000000e+00 0.0000000000000000e+00  0.0000000000000000e+00 0.0000000000000000e+00 0.0000000000000000e+00  0.0000000000000000e+00 0.0000000000000000e+00 0.0000000000000000e+00  0.0000000000000000e+00 0.0000000000000000e+00 0.0000000000000000e+00  0.0000000000000000e+00 0.0000000000000000e+00 0.0000000000000000e+00  0.0000000000000000e+00 0.0000000000000000e+00 0.0000000000000000e+00  0.0000000000000000e+00 0.0000000000000000e+00 0.0000000000000000e+00  0.0000000000000000e+00 0.0000000000000000e+00 0.0000000000000000e+00  0.0000000000000000e+00 0.0000000000000000e+00 0.0000000000000000e+00  0.0000000000000000e+00 0.0000000000000000e+00 0.0000000000000000e+00  0.0000000000000000e+00 0.0000000000000000e+00 0.0000000000000000e+00  0.0000000000000000e+00 0.0000000000000000e+00 0.0000000000000000e+00  0.0000000000000000e+00 0.0000000000000000e+00 0.0000000000000000e+00  0.0000000000000000e+00 0.0000000000000000e+00 0.0000000000000000e+00  0.0000000000000000e+00 0.0000000000000000e+00 0.0000000000000000e+00  0.0000000000000000e+00 0.0000000000000000e+00 0.0000000000000000e+00  0.0000000000000000e+00 -2.6324635280491096e-04 0.0000000000000000e+00  0.0000000000000000e+00 -2.5409000795285956e-04 0.0000000000000000e+00  0.0000000000000000e+00 -2.4613455774832985e-04 0.0000000000000000e+00  0.0000000000000000e+00 -2.3945189335077157e-04 0.0000000000000000e+00  0.0000000000000000e+00 -2.3410050794006501e-04 0.0000000000000000e+00  0.0000000000000000e+00 -2.3012160181131065e-04 0.0000000000000000e+00  0.0000000000000000e+00 -2.2753745991862558e-04 0.0000000000000000e+00  0.0000000000000000e+00 -2.2634968516285257e-04 0.0000000000000000e+00  0.0000000000000000e+00 -2.2653756512250564e-04 0.0000000000000000e+00  0.0000000000000000e+00 -2.2805558734796178e-04 0.0000000000000000e+00  0.0000000000000000e+00 -2.3083542360195178e-04 0.0000000000000000e+00  0.0000000000000000e+00 -2.3477752818400641e-04 0.0000000000000000e+00  0.0000000000000000e+00 -2.3976645179369234e-04 0.0000000000000000e+00  0.0000000000000000e+00 -2.4565352671714405e-04 0.0000000000000000e+00  0.0000000000000000e+00 -2.5227105424401443e-04 0.0000000000000000e+00  0.0000000000000000e+00 -2.5942440812070223e-04 0.0000000000000000e+00  0.0000000000000000e+00 -2.6690412764424879e-04 0.0000000000000000e+00  0.0000000000000000e+00 -2.7448579777161113e-04 0.0000000000000000e+00  0.0000000000000000e+00 -2.8192347945200105e-04 0.0000000000000000e+00  0.0000000000000000e+00 -2.8896553021960099e-04 0.0000000000000000e+00  0.0000000000000000e+00 -2.9535236515905108e-04 0.0000000000000000e+00  0.0000000000000000e+00 -3.0082052298193628e-04 0.0000000000000000e+00  0.0000000000000000e+00 -3.0510554264318870e-04 0.00000000000