<?xml version="1.0"?>
<VTKFile type="UnstructuredGrid"  version="0.1"  >
<UnstructuredGrid>
<Piece  NumberOfPoints="3167" NumberOfCells="6038">
<Points>
<DataArray  type="Float64"  NumberOfComponents="3"  format="ascii">2.2 2.9 0  0 2.9 0  2.8 2.9 0  5 2.9 0  5 0 0  0 0 0  2.16271186440678 2.9 0  2.125423728813559 2.9 0  2.088135593220339 2.9 0  2.050847457627119 2.9 0  2.013559322033898 2.9 0  1.976271186440678 2.9 0  1.938983050847457 2.9 0  1.901694915254237 2.9 0  1.864406779661016 2.9 0  1.827118644067796 2.9 0  1.789830508474575 2.9 0  1.752542372881355 2.9 0  1.715254237288134 2.9 0  1.677966101694914 2.9 0  1.640677966101693 2.9 0  1.603389830508473 2.9 0  1.566101694915253 2.9 0  1.528813559322032 2.9 0  1.491525423728812 2.9 0  1.454237288135591 2.9 0  1.416949152542371 2.9 0  1.37966101694915 2.9 0  1.34237288135593 2.9 0  1.305084745762709 2.9 0  1.267796610169489 2.9 0  1.230508474576268 2.9 0  1.193220338983048 2.9 0  1.155932203389827 2.9 0  1.118644067796607 2.9 0  1.081355932203387 2.9 0  1.044067796610166 2.9 0  1.006779661016946 2.9 0  0.9694915254237257 2.9 0  0.9322033898305055 2.9 0  0.8949152542372856 2.9 0  0.8576271186440652 2.9 0  0.820338983050845 2.9 0  0.783050847457625 2.9 0  0.7457627118644048 2.9 0  0.7084745762711844 2.9 0  0.6711864406779642 2.9 0  0.633898305084744 2.9 0  0.5966101694915238 2.9 0  0.5593220338983036 2.9 0  0.5220338983050834 2.9 0  0.4847457627118632 2.9 0  0.447457627118643 2.9 0  0.4101694915254228 2.9 0  0.3728813559322024 2.9 0  0.3355932203389822 2.9 0  0.2983050847457622 2.9 0  0.2610169491525418 2.9 0  0.2237288135593216 2.9 0  0.1864406779661016 2.9 0  0.1491525423728812 2.9 0  0.1118644067796613 2.9 0  0.07457627118644039 2.9 0  0.03728813559321997 2.9 0  2.792405063291139 2.9 0  2.784810126582279 2.9 0  2.777215189873418 2.9 0  2.769620253164557 2.9 0  2.762025316455697 2.9 0  2.754430379746836 2.9 0  2.746835443037975 2.9 0  2.739240506329114 2.9 0  2.731645569620254 2.9 0  2.724050632911393 2.9 0  2.716455696202532 2.9 0  2.708860759493671 2.9 0  2.701265822784811 2.9 0  2.69367088607595 2.9 0  2.686075949367089 2.9 0  2.678481012658228 2.9 0  2.670886075949368 2.9 0  2.663291139240507 2.9 0  2.655696202531646 2.9 0  2.648101265822786 2.9 0  2.640506329113925 2.9 0  2.632911392405064 2.9 0  2.625316455696203 2.9 0  2.617721518987342 2.9 0  2.610126582278482 2.9 0  2.602531645569621 2.9 0  2.59493670886076 2.9 0  2.587341772151899 2.9 0  2.579746835443038 2.9 0  2.572151898734178 2.9 0  2.564556962025317 2.9 0  2.556962025316456 2.9 0  2.549367088607595 2.9 0  2.541772151898734 2.9 0  2.534177215189874 2.9 0  2.526582278481013 2.9 0  2.518987341772152 2.9 0  2.511392405063292 2.9 0  2.503797468354431 2.9 0  2.49620253164557 2.9 0  2.488607594936709 2.9 0  2.481012658227848 2.9 0  2.473417721518988 2.9 0  2.465822784810127 2.9 0  2.458227848101266 2.9 0  2.450632911392406 2.9 0  2.443037974683545 2.9 0  2.435443037974684 2.9 0  2.427848101265823 2.9 0  2.420253164556962 2.9 0  2.412658227848102 2.9 0  2.405063291139241 2.9 0  2.39746835443038 2.9 0  2.389873417721519 2.9 0  2.382278481012658 2.9 0  2.374683544303798 2.9 0  2.367088607594937 2.9 0  2.359493670886076 2.9 0  2.351898734177215 2.9 0  2.344303797468355 2.9 0  2.336708860759494 2.9 0  2.329113924050633 2.9 0  2.321518987341773 2.9 0  2.313924050632912 2.9 0  2.306329113924051 2.9 0  2.29873417721519 2.9 0  2.291139240506329 2.9 0  2.283544303797469 2.9 0  2.275949367088608 2.9 0  2.268354430379747 2.9 0  2.260759493670887 2.9 0  2.253164556962026 2.9 0  2.245569620253165 2.9 0  2.237974683544304 2.9 0  2.230379746835443 2.9 0  2.222784810126583 2.9 0  2.215189873417722 2.9 0  2.207594936708861 2.9 0  4.96271186440678 2.9 0  4.925423728813559 2.9 0  4.888135593220339 2.9 0  4.850847457627118 2.9 0  4.813559322033898 2.9 0  4.776271186440677 2.9 0  4.738983050847457 2.9 0  4.701694915254237 2.9 0  4.664406779661016 2.9 0  4.627118644067796 2.9 0  4.589830508474575 2.9 0  4.552542372881355 2.9 0  4.515254237288135 2.9 0  4.477966101694914 2.9 0  4.440677966101694 2.9 0  4.403389830508473 2.9 0  4.366101694915252 2.9 0  4.328813559322032 2.9 0  4.291525423728811 2.9 0  4.254237288135591 2.9 0  4.21694915254237 2.9 0  4.17966101694915 2.9 0  4.14237288135593 2.9 0  4.105084745762709 2.9 0  4.067796610169489 2.9 0  4.030508474576268 2.9 0  3.993220338983048 2.9 0  3.955932203389827 2.9 0  3.918644067796607 2.9 0  3.881355932203387 2.9 0  3.844067796610166 2.9 0  3.806779661016946 2.9 0  3.769491525423725 2.9 0  3.732203389830505 2.9 0  3.694915254237285 2.9 0  3.657627118644065 2.9 0  3.620338983050845 2.9 0  3.583050847457625 2.9 0  3.545762711864405 2.9 0  3.508474576271184 2.9 0  3.471186440677964 2.9 0  3.433898305084744 2.9 0  3.396610169491524 2.9 0  3.359322033898303 2.9 0  3.322033898305083 2.9 0  3.284745762711863 2.9 0  3.247457627118643 2.9 0  3.210169491525423 2.9 0  3.172881355932202 2.9 0  3.135593220338982 2.9 0  3.098305084745762 2.9 0  3.061016949152542 2.9 0  3.023728813559321 2.9 0  2.986440677966101 2.9 0  2.949152542372881 2.9 0  2.911864406779661 2.9 0  2.87457627118644 2.9 0  2.83728813559322 2.9 0  5 0.1063822625082082 0  5 0.210636880010749 0  5 0.3128064053694972 0  5 0.4129325400644018 0  5 0.5110561521032336 0  5 0.6072172918830103 0  5 0.7014552087832795 0  5 0.7938083674443693 0  5 0.88431446261646 0  5 0.9730104359544682 0  5 1.059932489996267 0  5 1.145116102913299 0  5 1.228596043483191 0  5 1.310406385079062 0  5 1.390580519944147 0  5 1.469151172477827 0  5 1.546150411986101 0  5 1.621609666658609 0  5 1.695559736099044 0  5 1.76803080383987 0  5 1.839052450169751 0  5 1.908653663631169 0  5 1.97686285289587 0  5 2.043707858613779 0  5 2.109215964341413 0  5 2.173413907925942 0  5 2.236327892833935 0  5 2.297983597762904 0  5 2.35840618845912 0  5 2.41762032730194 0  5 2.475650183444628 0  5 2.532519442457069 0  5 2.588251316112828 0  5 2.642868552557322 0  5 2.696393444426347 0  5 2.748847838312051 0  5 2.800253144313381 0  5 2.850630344319807 0  0.2631578947368421 0 0  0.5263157894736842 0 0  0.7894736842105263 0 0  1.052631578947368 0 0  1.31578947368421 0 0  1.578947368421053 0 0  1.842105263157895 0 0  2.105263157894737 0 0  2.368421052631579 0 0  2.631578947368421 0 0  2.894736842105263 0 0  3.157894736842105 0 0  3.421052631578947 0 0  3.684210526315789 0 0  3.947368421052632 0 0  4.210526315789473 0 0  4.473684210526315 0 0  4.736842105263158 0 0  0 2.850203682350569 0  0 2.799411438503675 0  0 2.747603349778291 0  0 2.694759099502208 0  0 2.640857964382145 0  0 2.58587880633613 0  0 2.52980006535898 0  0 2.472599749459174 0  0 2.414255427218689 0  0 2.35474421880616 0  0 2.294042786119219 0  0 2.232127324764723 0  0 2.1689735539481 0  0 2.104556707683347 0  0 2.038851524813415 0  0 1.971832238155655 0  0 1.903472565412126 0  0 1.83374569926617 0  0 1.762624296208475 0  0 1.690080464918761 0  0 1.616085756774206 0  0 1.540611154706337 0  0 1.463627060685571 0  0 1.385103284916206 0  0 1.305009033716617 0  0 1.223312897337225 0  0 1.139982838163732 0  0 1.054986177579938 0  0 0.9682895835804817 0  0 0.8798590579197976 0  0 0.7896599218415354 0  0 0.6976568029903638 0  0 0.6038136217958798 0  0 0.508093576867624 0  0 0.4104591310957497 0  0 0.3108719963522191 0  0 0.2092931188294389 0  0 0.1056826638508546 0  1.434832105763824 2.866945754981483 0  1.737156300467626 2.870039440267515 0  2.032203389830508 2.867707527316512 0  2.332911392405064 2.893422591869991 0  2.469810913293406 2.891944186606167 0  2.606221408823969 2.892519154985628 0  2.255455320628894 2.892068685006691 0  2.538247299216212 2.894964578182811 0  2.674683544303798 2.893422591869991 0  2.40126582278481 2.893422591869991 0  3.566125247295424 2.865029336199714 0  3.266101694915253 2.867707527316512 0  2.967796610169491 2.867707527316512 0  1.174288529834642 2.870795313888584 0  3.825423728813556 2.867707527316512 0  2.727766680262011 2.892655387647729 0  0.06601655192030442 1.502119107695954 0  4.933983535508361 1.507650792231964 0  0.9532124728485543 2.868722489783638 0  4.048935912500257 2.870640982995992 0  0.05930163367361763 1.866907161167414 0  4.943402512618553 1.871280731473148 0  4.271733870017743 2.86520865624265 0  0.7249420921613114 2.863922936177041 0  0.05494499779910056 2.196469063120752 0  4.947228695426367 2.208030108792719 0  0.5406152150397161 2.866493807382013 0  4.459322033898304 2.868847558178794 0  2.18135593220339 2.875780645487384 0  2.817027156509632 2.876587550645167 0  4.928427208322876 1.186856073198245 0  0.07189226971603224 1.174626666111662 0  4.610299014423113 2.867003104093161 0  0.3897270066746357 2.869433095314657 0  1.581132500042262 2.868247328632392 0  1.887637879411437 2.869235851794358 0  3.413449426418068 2.867372048034327 0  3.116721298814773 2.865731235547652 0  2.644303797468355 2.893422591869991 0  2.370983221828106 2.892719513369796 0  2.302531645569621 2.893336787387268 0  2.758987341772152 2.894242393897099 0  0.04979653335696277 2.443411216910286 0  4.950470983477169 2.446866954595817 0  2.482937483021586 0.2513241087417575 0  1.707129504814338 0.1999998659920923 0  3.28584657955054 0.229200625631625 0  4.907807122600524 0.834082362900164 0  4.757627118644067 2.867707527316512 0  0.0773489124676745 0.8347594898806663 0  0.2390604736599387 2.861365431805741 0  0.8363213715215729 2.863896768908178 0  4.160865610207075 2.868916854015731 0  1.282549332053297 2.867610952980761 0  1.065094818402487 2.861284686038041 0  3.93818127737282 2.86865134411395 0  3.711492629432973 2.863574306925269 0  4.91369361998929 0.5579891344254361 0  0.08208328472281323 0.5559535993317519 0  2.696596932532885 2.892010483922337 0  0.04706410140274553 2.613055974506516 0  4.955577063972248 2.616518038840186 0  2.234177215189874 2.893422591869991 0  2.279795840559739 2.89403861893984 0  0.9117357887652362 0.2117925286661764 0  4.055948041993057 0.2039101057937727 0  4.872119713780579 2.867632926423075 0  2.780113878992455 2.891535929611743 0  0.1327442468251063 2.85
[...]
<PointData  Vectors="displacement"> 
<DataArray  type="Float64"  Name="displacement"  NumberOfComponents="3" format="ascii">-4.3153583599460869e-03 -6.9053425164580674e-03 0.0000000000000000e+00  0.0000000000000000e+00 -3.2537652061810743e-04 0.0000000000000000e+00  4.1830249260230634e-03 -7.2335803904399008e-03 0.0000000000000000e+00  0.0000000000000000e+00 -3.2517677366194055e-04 0.0000000000000000e+00  0.0000000000000000e+00 0.0000000000000000e+00 0.0000000000000000e+00  0.0000000000000000e+00 0.0000000000000000e+00 0.0000000000000000e+00  -5.0352574860559555e-03 -1.5080200152191396e-03 0.0000000000000000e+00  -5.0298060014848638e-03 -1.1244953412107663e-03 0.0000000000000000e+00  -4.9709948470198590e-03 -9.6167293089160686e-04 0.0000000000000000e+00  -4.8887077272395706e-03 -8.7359784142536389e-04 0.0000000000000000e+00  -4.7940239307013360e-03 -8.2199588211924988e-04 0.0000000000000000e+00  -4.6916591862072778e-03 -7.9288259178298391e-04 0.0000000000000000e+00  -4.5836357826739933e-03 -7.7859265980500039e-04 0.0000000000000000e+00  -4.4712901816382454e-03 -7.7473788716482636e-04 0.0000000000000000e+00  -4.3553416035467000e-03 -7.7839031099805295e-04 0.0000000000000000e+00  -4.2361636134636083e-03 -7.8727579070438569e-04 0.0000000000000000e+00  -4.1140923089568095e-03 -7.9940748932095249e-04 0.0000000000000000e+00  -3.9895454219900095e-03 -8.1295544163623580e-04 0.0000000000000000e+00  -3.8631792311923843e-03 -8.2631521246831572e-04 0.0000000000000000e+00  -3.7357343688528702e-03 -8.3823724753666980e-04 0.0000000000000000e+00  -3.6080045655753215e-03 -8.4784824310565508e-04 0.0000000000000000e+00  -3.4807751855149391e-03 -8.5460013039584859e-04 0.0000000000000000e+00  -3.3547193003491483e-03 -8.5824623320459800e-04 0.0000000000000000e+00  -3.2303880667979693e-03 -8.5872740795619638e-04 0.0000000000000000e+00  -3.1082570277458192e-03 -8.5614708178716203e-04 0.0000000000000000e+00  -2.9886356387938185e-03 -8.5069037944104063e-04 0.0000000000000000e+00  -2.8717614740226697e-03 -8.4260443196470234e-04 0.0000000000000000e+00  -2.7577860383114095e-03 -8.3216149901608799e-04 0.0000000000000000e+00  -2.6467978771992219e-03 -8.1964477868036044e-04 0.0000000000000000e+00  -2.5388288528316581e-03 -8.0533351265947638e-04 0.0000000000000000e+00  -2.4338734917597159e-03 -7.8949360204527881e-04 0.0000000000000000e+00  -2.3318934090105939e-03 -7.7237996760845659e-04 0.0000000000000000e+00  -2.2328236669986348e-03 -7.5423081655112277e-04 0.0000000000000000e+00  -2.1365847329353625e-03 -7.3526024982799494e-04 0.0000000000000000e+00  -2.0430926426577688e-03 -7.1566869662407812e-04 0.0000000000000000e+00  -1.9522203401851708e-03 -6.9563569651840817e-04 0.0000000000000000e+00  -1.8638803963764404e-03 -6.7532864788397032e-04 0.0000000000000000e+00  -1.7779539410239333e-03 -6.5489353426379372e-04 0.0000000000000000e+00  -1.6943363422342996e-03 -6.3445674119078956e-04 0.0000000000000000e+00  -1.6128961339596994e-03 -6.1414472124230043e-04 0.0000000000000000e+00  -1.5335352836125563e-03 -5.9406118987048967e-04 0.0000000000000000e+00  -1.4561371294114949e-03 -5.7430148912786261e-04 0.0000000000000000e+00  -1.3805856624709649e-03 -5.5495298410371610e-04 0.0000000000000000e+00  -1.3067859548239697e-03 -5.3608779295640549e-04 0.0000000000000000e+00  -1.2346249999067522e-03 -5.1777620647372197e-04 0.0000000000000000e+00  -1.1640045824606760e-03 -5.0007795761528246e-04 0.0000000000000000e+00  -1.0948257298444726e-03 -4.8304599019149367e-04 0.0000000000000000e+00  -1.0269967421150375e-03 -4.6672834663425826e-04 0.0000000000000000e+00  -9.6041987627038081e-04 -4.5116699109246593e-04 0.0000000000000000e+00  -8.9500920413229028e-04 -4.3639892173562316e-04 0.0000000000000000e+00  -8.3067600770100165e-04 -4.2245817410704417e-04 0.0000000000000000e+00  -7.6733813961632816e-04 -4.0937347144485010e-04 0.0000000000000000e+00  -7.0491283158492866e-04 -3.9717015758884591e-04 0.0000000000000000e+00  -6.4332263592641200e-04 -3.8587101034860536e-04 0.0000000000000000e+00  -5.8248806542870210e-04 -3.7549633787166685e-04 0.0000000000000000e+00  -5.2233465529502772e-04 -3.6606333683639295e-04 0.0000000000000000e+00  -4.6279444078653812e-04 -3.5758606504573704e-04 0.0000000000000000e+00  -4.0378455626383124e-04 -3.5007722158235572e-04 0.0000000000000000e+00  -3.4524194958314495e-04 -3.4355024626948346e-04 0.0000000000000000e+00  -2.8709982397586982e-04 -3.3801206245455970e-04 0.0000000000000000e+00  -2.2929079821305622e-04 -3.3347087980907368e-04 0.0000000000000000e+00  -1.7173615033801661e-04 -3.2993210531445574e-04 0.0000000000000000e+00  -1.1438050469870234e-04 -3.2740226391923143e-04 0.0000000000000000e+00  -5.7156678791133199e-05 -3.2588289128352880e-04 0.0000000000000000e+00  -5.0589202929912565e-05 -2.3277759525018732e-02 0.0000000000000000e+00  2.3306818734009617e-04 -2.6255699488815579e-02 0.0000000000000000e+00  3.7481874348636987e-04 -2.7018340620432253e-02 0.0000000000000000e+00  3.5985556986324878e-04 -2.7249337106354281e-02 0.0000000000000000e+00  3.7748723037629489e-04 -2.7479112137529044e-02 0.0000000000000000e+00  3.7966155634575115e-04 -2.7656273163258718e-02 0.0000000000000000e+00  3.7916732414555574e-04 -2.7809860748194356e-02 0.0000000000000000e+00  3.8188019214259320e-04 -2.7952770446414071e-02 0.0000000000000000e+00  3.7354816487956505e-04 -2.8072043227294473e-02 0.0000000000000000e+00  3.6303570525779574e-04 -2.8183535732679534e-02 0.0000000000000000e+00  3.5821855637677917e-04 -2.8292047700738027e-02 0.0000000000000000e+00  3.5130855721448423e-04 -2.8389313527650555e-02 0.0000000000000000e+00  3.4156625815710752e-04 -2.8476623161795337e-02 0.0000000000000000e+00  3.3087325297824174e-04 -2.8557186504266162e-02 0.0000000000000000e+00  3.1892407690284932e-04 -2.8631347891992738e-02 0.0000000000000000e+00  3.0706000880729810e-04 -2.8701138939846268e-02 0.0000000000000000e+00  2.9615716520528621e-04 -2.8767133131678054e-02 0.0000000000000000e+00  2.8459319336209156e-04 -2.8828020072527168e-02 0.0000000000000000e+00  2.7238923093044924e-04 -2.8884372140709467e-02 0.0000000000000000e+00  2.5992741271601617e-04 -2.8936864996300382e-02 0.0000000000000000e+00  2.4729042570534017e-04 -2.8985728559443265e-02 0.0000000000000000e+00  2.3442765854375089e-04 -2.9031108417469486e-02 0.0000000000000000e+00  2.2137138203224055e-04 -2.9073208859984153e-02 0.0000000000000000e+00  2.0828328663205590e-04 -2.9112320343154512e-02 0.0000000000000000e+00  1.9527631832540909e-04 -2.9148629377147107e-02 0.0000000000000000e+00  1.8235706332777089e-04 -2.9182195361539487e-02 0.0000000000000000e+00  1.6943655279794281e-04 -2.9212994549047848e-02 0.0000000000000000e+00  1.5641220994769858e-04 -2.9241023502368717e-02 0.0000000000000000e+00  1.4324637661719140e-04 -2.9266336476286889e-02 0.0000000000000000e+00  1.2992777433435280e-04 -2.9289015437638743e-02 0.0000000000000000e+00  1.1648264760525897e-04 -2.9309163955853111e-02 0.0000000000000000e+00  1.0295629018908523e-04 -2.9326886427665042e-02 0.0000000000000000e+00  8.9410490660819144e-05 -2.9342288901860341e-02 0.0000000000000000e+00  7.5892175462495320e-05 -2.9355444220250528e-02 0.0000000000000000e+00  6.2435394858139669e-05 -2.9366393254712062e-02 0.0000000000000000e+00  4.8994001763383024e-05 -2.9375107260616477e-02 0.0000000000000000e+00  3.5493767852562980e-05 -2.9381566855243724e-02 0.0000000000000000e+00  2.1893227127764532e-05 -2.9385810026027550e-02 0.0000000000000000e+00  8.1693153449696694e-06 -2.9387916136531557e-02 0.0000000000000000e+00  -5.6900137202585072e-06 -2.9387961608491706e-02 0.0000000000000000e+00  -1.9654094393657114e-05 -2.9385973539005381e-02 0.0000000000000000e+00  -3.3646162338725873e-05 -2.9381919509170407e-02 0.0000000000000000e+00  -4.7597116700374704e-05 -2.9375755794380450e-02 0.0000000000000000e+00  -6.1438310855903183e-05 -2.9367444814192244e-02 0.0000000000000000e+00  -7.5143525202587701e-05 -2.9356983374665423e-02 0.0000000000000000e+00  -8.8700167158524342e-05 -2.9344330095144575e-02 0.0000000000000000e+00  -1.0208189110795185e-04 -2.9329375630458839e-02 0.0000000000000000e+00  -1.1528681798088997e-04 -2.9311990675119776e-02 0.0000000000000000e+00  -1.2835688826515968e-04 -2.9292056317675438e-02 0.0000000000000000e+00  -1.4136532151288116e-04 -2.9269524236244862e-02 0.0000000000000000e+00  -1.5440330216856803e-04 -2.9244416833723100e-02 0.0000000000000000e+00  -1.6751723424083412e-04 -2.9216772235156199e-02 0.0000000000000000e+00  -1.8063351101223782e-04 -2.9186533562544852e-02 0.0000000000000000e+00  -1.9348301288963870e-04 -2.9153437331142715e-02 0.0000000000000000e+00  -2.0582734691844640e-04 -2.9117126675295191e-02 0.0000000000000000e+00  -2.1757584512485542e-04 -2.9077305131028360e-02 0.0000000000000000e+00  -2.2894804403692407e-04 -2.9033939412361209e-02 0.0000000000000000e+00  -2.4043706191761738e-04 -2.8987353612172851e-02 0.0000000000000000e+00  -2.5229263926117285e-04 -2.8937725954111333e-02 0.0000000000000000e+00  -2.6466514237465344e-04 -2.8885146781666843e-02 0.0000000000000000e+00  -2.7750683995348709e-04 -2.8829535231132016e-02 0.0000000000000000e+00  -2.9040919901802671e-04 -2.8770402559080192e-02 0.0000000000000000e+00  -3.0281192561315096e-04 -2.8706948288979680e-02 0.0000000000000000e+00  -3.1422329471247283e-04 -2.8638301137982929e-02 0.0000000000000000e+00  -3.2426021547202639e-04 -2.8563611579595256e-02 0.0000000000000000e+00  -3.3199809998204192e-04 -2.8481421907770896e-02 0.0000000000000000e+00  -3.3600199732269442e-04 -2.8388726115282401e-02 0.0000000000000000e+00  -3.3853096915559624e-04 -2.8285348396403995e-02 0.0000000000000000e+00  -3.4282905313447729e-04 -2.8174820680359085e-02 0.0000000000000000e+00  -3.4954540876017500e-04 -2.8059227699844140e-02 0.0000000000000000e+00  -3.5367272792267241e-04 -2.7932443437388568e-02 0.0000000000000000e+00  -3.5432185055763626e-04 -2.7791498847720201e-02 0.0000000000000000e+00  -3.6108813551693185e-04 -2.7646986598180413e-02 0.0000000000000000e+00  -3.4516270400681306e-04 -2.7452156668540340e-02 0.0000000000000000e+00  -3.2770990459642568e-04 -2.7205242364099966e-02 0.0000000000000000e+00  -2.6044889443120541e-04 -2.6734567482290833e-02 0.0000000000000000e+00  -2.6022330852410374e-04 -2.6062194250667282e-02 0.0000000000000000e+00  1.1043143842582365e-04 -2.3526440816087825e-02 0.0000000000000000e+00  5.7191937457857600e-05 -3.2568383269867028e-04 0.0000000000000000e+00  1.1444917835275071e-04 -3.2720062394476287e-04 0.0000000000000000e+00  1.7183655419615435e-04 -3.2972774710339443e-04 0.0000000000000000e+00  2.2942090022927525e-04 -3.3326060401954965e-04 0.0000000000000000e+00  2.8726663210928738e-04 -3.3779616669776401e-04 0.0000000000000000e+00  3.4544820082154271e-04 -3.4332585272041621e-04 0.0000000000000000e+00  4.0402142573724669e-04 -3.4984418770961568e-04 0.0000000000000000e+00  4.6306382873795087e-04 -3.5734116096955974e-04 0.0000000000000000e+00  5.2264278485883626e-04 -3.6580547639427811e-04 0.0000000000000000e+00  5.8283202575868049e-04 -3.7522364362205609e-04 0.0000000000000000e+00  6.4370280123278185e-04 -3.8558204744345410e-04 0.0000000000000000e+00  7.0533241861572349e-04 -3.9686250420733598e-04 0.0000000000000000e+00  7.6779522617469219e-04 -4.0904510990036748e-04 0.0000000000000000e+00  8.3117176857176755e-04 -4.2210713997262698e-04 0.0000000000000000e+00  8.9554386013245978e-04 -4.3602288323412239e-04 0.0000000000000000e+00  9.6099581799973964e-04 -4.5076309462531384e-04 0.0000000000000000e+00  1.0276129304242164e-03 -4.6629367847041977e-04 0.0000000000000000e+00  1.0954874217870532e-03 -4.8257651889362297e-04 0.0000000000000000e+00  1.1647079366739329e-03 -4.9957137288965490e-04 0.0000000000000000e+00  1.2353722942244020e-03 -5.1722791777852406e-04 0.0000000000000000e+00  1.3075834673754744e-03 -5.3549735188369613e-04 0.0000000000000000e+00  1.3814251822358522e-03 -5.5431243575481239e-04 0.0000000000000000e+00  1.4570211190010852e-03 -5.7360857677763875e-04 0.0000000000000000e+00  1.5344697610412692e-03 -5.9330920683012744e-04 0.0000000000000000e+00  1.6138802674333487e-03 -6.1332869252635821e-04 0.0000000000000000e+00  1.6953637249813960e-03 -6.3357136338611881e-04 0.0000000000000000e+00  1.7790345400554789e-03 -6.5393017859391824e-04 0.0000000000000000e+00  1.8650068000421807e-03 -6.7428581114393127e-04 0.0000000000000000e+00  1.9533917465709345e-03 -6.9450415713804539e-04 0.0000000000000000e+00  2.0442994134161072e-03 -7.1443865511291429e-04 0.0000000000000000e+00  2.1378394687872125e-03 -7.3392596553165503e-04 0.0000000000000000e+00  2.2341139174300501e-03 -7.5278461546543171e-04 0.0000000000000000e+00  2.3332151593261638e-03 -7.7081312604883323e-04 0.0000000000000000e+00  2.4352142756696536e-03 -7.8779858571536828e-04 0.0000000000000000e+00  2.5401846977819473e-03 -8.0350217311848655e-04 0.0000000000000000e+00  2.6481537530299143e-03 -8.1767476972467376e-04 0.0000000000000000e+00  2.7591317814398926e-03 -8.3005008252411063e-04 0.0000000000000000e+00  2.8730792892395903e-03 -8.4034778595971557e-04 0.0000000000000000e+00  2.9899060298987879e-03 -8.4829155412579206e-04 0.0000000000000000e+00  3.1094633738176355e-03 -8.5361263229818810e-04 0.0000000000000000e+00  3.2315186916242879e-03 -8.5607220587239990e-04 0.0000000000000000e+00  3.3557332734303240e-03 -8.5547790162218630e-04 0.0000000000000000e+00  3.4816629613617133e-03 -8.5174405134762080e-04 0.0000000000000000e+00  3.6087877765056515e-03 -8.4492329185472141e-04 0.0000000000000000e+00  3.7363870374534066e-03 -8.3526085089582038e-04 0.0000000000000000e+00  3.8637042388812684e-03 -8.2329928486683172e-04 0.0000000000000000e+00  3.9899725486431887e-03 -8.0989624308181818e-04 0.0000000000000000e+00  4.1144130869066632e-03 -7.9628716636665332e-04 0.0000000000000000e+00  4.2364015159202075e-03 -7.8403226108310960e-04 0.0000000000000000e+00  4.3555059244294947e-03 -7.7493190832158805e-04 0.0000000000000000e+00  4.4713213231070007e-03 -7.7101967483273349e-04 0.0000000000000000e+00  4.5834904077475232e-03 -7.7450808650560414e-04 0.0000000000000000e+00  4.6912334267935549e-03 -7.8843141533367460e-04 0.0000000000000000e+00  4.7933027235476586e-03 -8.1713544687178337e-04 0.0000000000000000e+00  4.8875511645547990e-03 -8.6813052097488926e-04 0.0000000000000000e+00  4.9701690674363403e-03 -9.5517248025373371e-04 0.0000000000000000e+00  5.0334218258002005e-03 -1.1093159149690669e-03 0.0000000000000000e+00  5.0347080464579795e-03 -1.4672161140814413e-03 0.0000000000000000e+00  0.0000000000000000e+00 -9.0296902068424939e-05 0.0000000000000000e+00  0.0000000000000000e+00 -1.7492668461252436e-04 0.0000000000000000e+00  0.0000000000000000e+00 -2.5421532948252407e-04 0.0000000000000000e+00  0.0000000000000000e+00 -3.2840295129824693e-04 0.0000000000000000e+00  0.0000000000000000e+00 -3.9763894183964373e-04 0.0000000000000000e+00  0.0000000000000000e+00 -4.6200893898888217e-04 0.0000000000000000e+00  0.0000000000000000e+00 -5.2156047318602347e-04 0.0000000000000000e+00  0.0000000000000000e+00 -5.7631190777450165e-04 0.0000000000000000e+00  0.0000000000000000e+00 -6.2622505445200606e-04 0.0000000000000000e+00  0.0000000000000000e+00 -6.7130666915056806e-04 0.0000000000000000e+00  0.0000000000000000e+00 -7.1151440367428259e-04 0.0000000000000000e+00  0.0000000000000000e+00 -7.4682618773937160e-04 0.0000000000000000e+00  0.0000000000000000e+00 -7.7723433350763808e-04 0.0000000000000000e+00  0.0000000000000000e+00 -8.0273906669779910e-04 0.0000000000000000e+00  0.0000000000000000e+00 -8.2335837557206753e-04 0.0000000000000000e+00  0.0000000000000000e+00 -8.3913420693021586e-04 0.0000000000000000e+00  0.0000000000000000e+00 -8.5014035893025736e-04 0.0000000000000000e+00  0.0000000000000000e+00 -8.5646911817893539e-04 0.0000000000000000e+00  0.0000000000000000e+00 -8.5824441247228439e-04 0.0000000000000000e+00  0.0000000000000000e+00 -8.5561564921686213e-04 0.0000000000000000e+00  0.0000000000000000e+00 -8.4876494247659330e-04 0.0000000000000000e+00  0.0000000000000000e+00 -8.3790127986061163e-04 0.0000000000000000e+00  0.0000000000000000e+00 -8.2325567826439024e-04 0.0000000000000000e+00  0.0000000000000000e+00 -8.0508882400208339e-04 0.0000000000000000e+00  0.0000000000000000e+00 -7.8367900066492809e-04 0.0000000000000000e+00  0.0000000000000000e+00 -7.5932669282234111e-04 0.0000000000000000e+00  0.0000000000000000e+00 -7.3234543016189528e-04 0.0000000000000000e+00  0.0000000000000000e+00 -7.0306441285155805e-04 0.0000000000000000e+00  0.0000000000000000e+00 -6.7182061144059851e-04 0.0000000000000000e+00  0.0000000000000000e+00 -6.3895650748320540e-04 0.0000000000000000e+00  0.0000000000000000e+00 -6.0481775176180147e-04 0.0000000000000000e+00  0.0000000000000000e+00 -5.6974680953319166e-04 0.0000000000000000e+00  0.0000000000000000e+00 -5.3408140320353376e-04 0.0000000000000000e+00  0.0000000000000000e+00 -4.9815286604466087e-04 0.0000000000000000e+00  0.0000000000000000e+00 -4.6228047009542133e-04 0.0000000000000000e+00  0.0000000000000000e+00 -4.2677091510786317e-04 0.0000000000000000e+00  0.0000000000000000e+00 -3.9190472711315261e-04 0.0000000000000000e+00  0.0000000000000000e+00 -3.5795936998826657e-04 0.0000000000000000e+00  0.0000000000000000e+00 0.0000000000000000e+00 0.0000000000000000e+00  0.0000000000000000e+00 0.0000000000000000e+00 0.0000000000000000e+00  0.0000000000000000e+00 0.0000000000000000e+00 0.0000000000000000e+00  0.0000000000000000e+00 0.0000000000000000e+00 0.0000000000000000e+00  0.0000000000000000e+00 0.0000000000000000e+00 0.0000000000000000e+00  0.0000000000000000e+00 0.0000000000000000e+00 0.0000000000000000e+00  0.0000000000000000e+00 0.0000000000000000e+00 0.0000000000000000e+00  0.0000000000000000e+00 0.0000000000000000e+00 0.0000000000000000e+00  0.0000000000000000e+00 0.0000000000000000e+00 0.0000000000000000e+00  0.0000000000000000e+00 0.0000000000000000e+00 0.0000000000000000e+00  0.0000000000000000e+00 0.0000000000000000e+00 0.0000000000000000e+00  0.0000000000000000e+00 0.0000000000000000e+00 0.0000000000000000e+00  0.0000000000000000e+00 0.0000000000000000e+00 0.0000000000000000e+00  0.0000000000000000e+00 0.0000000000000000e+00 0.0000000000000000e+00  0.0000000000000000e+00 0.0000000000000000e+00 0.0000000000000000e+00  0.0000000000000000e+00 0.0000000000000000e+00 0.0000000000000000e+00  0.0000000000000000e+00 0.0000000000000000e+00 0.0000000000000000e+00  0.0000000000000000e+00 0.0000000000000000e+00 0.0000000000000000e+00  0.0000000000000000e+00 -3.5842550345112394e-04 0.0000000000000000e+00  0.0000000000000000e+00 -3.9263405454123589e-04 0.0000000000000000e+00  0.0000000000000000e+00 -4.2776203620464756e-04 0.0000000000000000e+00  0.0000000000000000e+00 -4.6351346456267140e-04 0.0000000000000000e+00  0.0000000000000000e+00 -4.9960798872400957e-04 0.0000000000000000e+00  0.0000000000000000e+00 -5.3572972810817746e-04 0.0000000000000000e+00  0.0000000000000000e+00 -5.7155432955425199e-04 0.0000000000000000e+00  0.0000000000000000e+00 -6.0674720680560577e-04 0.0000000000000000e+00  0.0000000000000000e+00 -6.4096689408461589e-04 0.0000000000000000e+00  0.0000000000000000e+00 -6.7386649384868391e-04 0.0000000000000000e+00  0.0000000000000000e+00 -7.0510131612710797e-04 0.0000000000000000e+00  0.0000000000000000e+00 -7.3432422607714026e-04 0.0000000000000000e+00  0.0000000000000000e+00 -7.6120363197236410e-04 0.0000000000000000e+00  0.0000000000000000e+00 -7.8541086967480770e-04 0.0000000000000000e+00  0.0000000000000000e+00 -8.0663356374943479e-04 0.0000000000000000e+00  0.0000000000000000e+00 -8.2457648670472702e-04 0.0000000000000000e+00  0.0000000000000000e+00 -8.3896371070914146e-04 0.0000000000000000e+00  0.0000000000000000e+00 -8.4954466206954170e-04 0.0000000000000000e+00  0.0000000000000000e+00 -8.5609015846413482e-04 0.0000000000000000e+00  0.0000000000000000e+00 -8.5839856782769775e-04 0.0000000000000000e+00  0.0000000000000000e+00 -8.5629866672878071e-04 0.0000000000000000e+00  0.0000000000000000e+00 -8.4964555003587492e-04 0.0000000000000000e+00  0.0000000000000000e+00 -8.3832223176804764e-04 0.00000000000