<?xml version="1.0"?>
<VTKFile type="UnstructuredGrid"  version="0.1"  >
<UnstructuredGrid>
<Piece  NumberOfPoints="3167" NumberOfCells="6038">
<Points>
<DataArray  type="Float64"  NumberOfComponents="3"  format="ascii">2.2 2.9 0  0 2.9 0  2.8 2.9 0  5 2.9 0  5 0 0  0 0 0  2.16271186440678 2.9 0  2.125423728813559 2.9 0  2.088135593220339 2.9 0  2.050847457627119 2.9 0  2.013559322033898 2.9 0  1.976271186440678 2.9 0  1.938983050847457 2.9 0  1.901694915254237 2.9 0  1.864406779661016 2.9 0  1.827118644067796 2.9 0  1.789830508474575 2.9 0  1.752542372881355 2.9 0  1.715254237288134 2.9 0  1.677966101694914 2.9 0  1.640677966101693 2.9 0  1.603389830508473 2.9 0  1.566101694915253 2.9 0  1.528813559322032 2.9 0  1.491525423728812 2.9 0  1.454237288135591 2.9 0  1.416949152542371 2.9 0  1.37966101694915 2.9 0  1.34237288135593 2.9 0  1.305084745762709 2.9 0  1.267796610169489 2.9 0  1.230508474576268 2.9 0  1.193220338983048 2.9 0  1.155932203389827 2.9 0  1.118644067796607 2.9 0  1.081355932203387 2.9 0  1.044067796610166 2.9 0  1.006779661016946 2.9 0  0.9694915254237257 2.9 0  0.9322033898305055 2.9 0  0.8949152542372856 2.9 0  0.8576271186440652 2.9 0  0.820338983050845 2.9 0  0.783050847457625 2.9 0  0.7457627118644048 2.9 0  0.7084745762711844 2.9 0  0.6711864406779642 2.9 0  0.633898305084744 2.9 0  0.5966101694915238 2.9 0  0.5593220338983036 2.9 0  0.5220338983050834 2.9 0  0.4847457627118632 2.9 0  0.447457627118643 2.9 0  0.4101694915254228 2.9 0  0.3728813559322024 2.9 0  0.3355932203389822 2.9 0  0.2983050847457622 2.9 0  0.2610169491525418 2.9 0  0.2237288135593216 2.9 0  0.1864406779661016 2.9 0  0.1491525423728812 2.9 0  0.1118644067796613 2.9 0  0.07457627118644039 2.9 0  0.03728813559321997 2.9 0  2.792405063291139 2.9 0  2.784810126582279 2.9 0  2.777215189873418 2.9 0  2.769620253164557 2.9 0  2.762025316455697 2.9 0  2.754430379746836 2.9 0  2.746835443037975 2.9 0  2.739240506329114 2.9 0  2.731645569620254 2.9 0  2.724050632911393 2.9 0  2.716455696202532 2.9 0  2.708860759493671 2.9 0  2.701265822784811 2.9 0  2.69367088607595 2.9 0  2.686075949367089 2.9 0  2.678481012658228 2.9 0  2.670886075949368 2.9 0  2.663291139240507 2.9 0  2.655696202531646 2.9 0  2.648101265822786 2.9 0  2.640506329113925 2.9 0  2.632911392405064 2.9 0  2.625316455696203 2.9 0  2.617721518987342 2.9 0  2.610126582278482 2.9 0  2.602531645569621 2.9 0  2.59493670886076 2.9 0  2.587341772151899 2.9 0  2.579746835443038 2.9 0  2.572151898734178 2.9 0  2.564556962025317 2.9 0  2.556962025316456 2.9 0  2.549367088607595 2.9 0  2.541772151898734 2.9 0  2.534177215189874 2.9 0  2.526582278481013 2.9 0  2.518987341772152 2.9 0  2.511392405063292 2.9 0  2.503797468354431 2.9 0  2.49620253164557 2.9 0  2.488607594936709 2.9 0  2.481012658227848 2.9 0  2.473417721518988 2.9 0  2.465822784810127 2.9 0  2.458227848101266 2.9 0  2.450632911392406 2.9 0  2.443037974683545 2.9 0  2.435443037974684 2.9 0  2.427848101265823 2.9 0  2.420253164556962 2.9 0  2.412658227848102 2.9 0  2.405063291139241 2.9 0  2.39746835443038 2.9 0  2.389873417721519 2.9 0  2.382278481012658 2.9 0  2.374683544303798 2.9 0  2.367088607594937 2.9 0  2.359493670886076 2.9 0  2.351898734177215 2.9 0  2.344303797468355 2.9 0  2.336708860759494 2.9 0  2.329113924050633 2.9 0  2.321518987341773 2.9 0  2.313924050632912 2.9 0  2.306329113924051 2.9 0  2.29873417721519 2.9 0  2.291139240506329 2.9 0  2.283544303797469 2.9 0  2.275949367088608 2.9 0  2.268354430379747 2.9 0  2.260759493670887 2.9 0  2.253164556962026 2.9 0  2.245569620253165 2.9 0  2.237974683544304 2.9 0  2.230379746835443 2.9 0  2.222784810126583 2.9 0  2.215189873417722 2.9 0  2.207594936708861 2.9 0  4.96271186440678 2.9 0  4.925423728813559 2.9 0  4.888135593220339 2.9 0  4.850847457627118 2.9 0  4.813559322033898 2.9 0  4.776271186440677 2.9 0  4.738983050847457 2.9 0  4.701694915254237 2.9 0  4.664406779661016 2.9 0  4.627118644067796 2.9 0  4.589830508474575 2.9 0  4.552542372881355 2.9 0  4.515254237288135 2.9 0  4.477966101694914 2.9 0  4.440677966101694 2.9 0  4.403389830508473 2.9 0  4.366101694915252 2.9 0  4.328813559322032 2.9 0  4.291525423728811 2.9 0  4.254237288135591 2.9 0  4.21694915254237 2.9 0  4.17966101694915 2.9 0  4.14237288135593 2.9 0  4.105084745762709 2.9 0  4.067796610169489 2.9 0  4.030508474576268 2.9 0  3.993220338983048 2.9 0  3.955932203389827 2.9 0  3.918644067796607 2.9 0  3.881355932203387 2.9 0  3.844067796610166 2.9 0  3.806779661016946 2.9 0  3.769491525423725 2.9 0  3.732203389830505 2.9 0  3.694915254237285 2.9 0  3.657627118644065 2.9 0  3.620338983050845 2.9 0  3.583050847457625 2.9 0  3.545762711864405 2.9 0  3.508474576271184 2.9 0  3.471186440677964 2.9 0  3.433898305084744 2.9 0  3.396610169491524 2.9 0  3.359322033898303 2.9 0  3.322033898305083 2.9 0  3.284745762711863 2.9 0  3.247457627118643 2.9 0  3.210169491525423 2.9 0  3.172881355932202 2.9 0  3.135593220338982 2.9 0  3.098305084745762 2.9 0  3.061016949152542 2.9 0  3.023728813559321 2.9 0  2.986440677966101 2.9 0  2.949152542372881 2.9 0  2.911864406779661 2.9 0  2.87457627118644 2.9 0  2.83728813559322 2.9 0  5 0.1063822625082082 0  5 0.210636880010749 0  5 0.3128064053694972 0  5 0.4129325400644018 0  5 0.5110561521032336 0  5 0.6072172918830103 0  5 0.7014552087832795 0  5 0.7938083674443693 0  5 0.88431446261646 0  5 0.9730104359544682 0  5 1.059932489996267 0  5 1.145116102913299 0  5 1.228596043483191 0  5 1.310406385079062 0  5 1.390580519944147 0  5 1.469151172477827 0  5 1.546150411986101 0  5 1.621609666658609 0  5 1.695559736099044 0  5 1.76803080383987 0  5 1.839052450169751 0  5 1.908653663631169 0  5 1.97686285289587 0  5 2.043707858613779 0  5 2.109215964341413 0  5 2.173413907925942 0  5 2.236327892833935 0  5 2.297983597762904 0  5 2.35840618845912 0  5 2.41762032730194 0  5 2.475650183444628 0  5 2.532519442457069 0  5 2.588251316112828 0  5 2.642868552557322 0  5 2.696393444426347 0  5 2.748847838312051 0  5 2.800253144313381 0  5 2.850630344319807 0  0.2631578947368421 0 0  0.5263157894736842 0 0  0.7894736842105263 0 0  1.052631578947368 0 0  1.31578947368421 0 0  1.578947368421053 0 0  1.842105263157895 0 0  2.105263157894737 0 0  2.368421052631579 0 0  2.631578947368421 0 0  2.894736842105263 0 0  3.157894736842105 0 0  3.421052631578947 0 0  3.684210526315789 0 0  3.947368421052632 0 0  4.210526315789473 0 0  4.473684210526315 0 0  4.736842105263158 0 0  0 2.850203682350569 0  0 2.799411438503675 0  0 2.747603349778291 0  0 2.694759099502208 0  0 2.640857964382145 0  0 2.58587880633613 0  0 2.52980006535898 0  0 2.472599749459174 0  0 2.414255427218689 0  0 2.35474421880616 0  0 2.294042786119219 0  0 2.232127324764723 0  0 2.1689735539481 0  0 2.104556707683347 0  0 2.038851524813415 0  0 1.971832238155655 0  0 1.903472565412126 0  0 1.83374569926617 0  0 1.762624296208475 0  0 1.690080464918761 0  0 1.616085756774206 0  0 1.540611154706337 0  0 1.463627060685571 0  0 1.385103284916206 0  0 1.305009033716617 0  0 1.223312897337225 0  0 1.139982838163732 0  0 1.054986177579938 0  0 0.9682895835804817 0  0 0.8798590579197976 0  0 0.7896599218415354 0  0 0.6976568029903638 0  0 0.6038136217958798 0  0 0.508093576867624 0  0 0.4104591310957497 0  0 0.3108719963522191 0  0 0.2092931188294389 0  0 0.1056826638508546 0  1.434832105763824 2.866945754981483 0  1.737156300467626 2.870039440267515 0  2.032203389830508 2.867707527316512 0  2.332911392405064 2.893422591869991 0  2.469810913293406 2.891944186606167 0  2.606221408823969 2.892519154985628 0  2.255455320628894 2.892068685006691 0  2.538247299216212 2.894964578182811 0  2.674683544303798 2.893422591869991 0  2.40126582278481 2.893422591869991 0  3.566125247295424 2.865029336199714 0  3.266101694915253 2.867707527316512 0  2.967796610169491 2.867707527316512 0  1.174288529834642 2.870795313888584 0  3.825423728813556 2.867707527316512 0  2.727766680262011 2.892655387647729 0  0.06601655192030442 1.502119107695954 0  4.933983535508361 1.507650792231964 0  0.9532124728485543 2.868722489783638 0  4.048935912500257 2.870640982995992 0  0.05930163367361763 1.866907161167414 0  4.943402512618553 1.871280731473148 0  4.271733870017743 2.86520865624265 0  0.7249420921613114 2.863922936177041 0  0.05494499779910056 2.196469063120752 0  4.947228695426367 2.208030108792719 0  0.5406152150397161 2.866493807382013 0  4.459322033898304 2.868847558178794 0  2.18135593220339 2.875780645487384 0  2.817027156509632 2.876587550645167 0  4.928427208322876 1.186856073198245 0  0.07189226971603224 1.174626666111662 0  4.610299014423113 2.867003104093161 0  0.3897270066746357 2.869433095314657 0  1.581132500042262 2.868247328632392 0  1.887637879411437 2.869235851794358 0  3.413449426418068 2.867372048034327 0  3.116721298814773 2.865731235547652 0  2.644303797468355 2.893422591869991 0  2.370983221828106 2.892719513369796 0  2.302531645569621 2.893336787387268 0  2.758987341772152 2.894242393897099 0  0.04979653335696277 2.443411216910286 0  4.950470983477169 2.446866954595817 0  2.482937483021586 0.2513241087417575 0  1.707129504814338 0.1999998659920923 0  3.28584657955054 0.229200625631625 0  4.907807122600524 0.834082362900164 0  4.757627118644067 2.867707527316512 0  0.0773489124676745 0.8347594898806663 0  0.2390604736599387 2.861365431805741 0  0.8363213715215729 2.863896768908178 0  4.160865610207075 2.868916854015731 0  1.282549332053297 2.867610952980761 0  1.065094818402487 2.861284686038041 0  3.93818127737282 2.86865134411395 0  3.711492629432973 2.863574306925269 0  4.91369361998929 0.5579891344254361 0  0.08208328472281323 0.5559535993317519 0  2.696596932532885 2.892010483922337 0  0.04706410140274553 2.613055974506516 0  4.955577063972248 2.616518038840186 0  2.234177215189874 2.893422591869991 0  2.279795840559739 2.89403861893984 0  0.9117357887652362 0.2117925286661764 0  4.055948041993057 0.2039101057937727 0  4.872119713780579 2.867632926423075 0  2.780113878992455 2.891535929611743 0  0.1327442468251063 2.85
[...]
<PointData  Vectors="displacement"> 
<DataArray  type="Float64"  Name="displacement"  NumberOfComponents="3" format="ascii">5.1753404335375109e-04 -2.7081895623045911e-03 0.0000000000000000e+00  0.0000000000000000e+00 -1.1151168015329940e-04 0.0000000000000000e+00  -5.1824468870605525e-04 -2.7083006290278253e-03 0.0000000000000000e+00  0.0000000000000000e+00 -1.1151181339980602e-04 0.0000000000000000e+00  0.0000000000000000e+00 0.0000000000000000e+00 0.0000000000000000e+00  0.0000000000000000e+00 0.0000000000000000e+00 0.0000000000000000e+00  5.1298176721766041e-04 -2.3967969829231418e-03 0.0000000000000000e+00  5.0269971668342420e-04 -2.1913065316719964e-03 0.0000000000000000e+00  4.9255774421413240e-04 -2.0259471984605273e-03 0.0000000000000000e+00  4.8247340861074786e-04 -1.8849349540925953e-03 0.0000000000000000e+00  4.7240274152524390e-04 -1.7612192857877258e-03 0.0000000000000000e+00  4.6235315190006483e-04 -1.6507312177077105e-03 0.0000000000000000e+00  4.5233514073728142e-04 -1.5508093132554723e-03 0.0000000000000000e+00  4.4235091876926623e-04 -1.4595979564983356e-03 0.0000000000000000e+00  4.3241069111622939e-04 -1.3757178261625870e-03 0.0000000000000000e+00  4.2251082442926234e-04 -1.2981402591455500e-03 0.0000000000000000e+00  4.1265433918341349e-04 -1.2260655782590567e-03 0.0000000000000000e+00  4.0284349327097328e-04 -1.1588403969562640e-03 0.0000000000000000e+00  3.9308207681111997e-04 -1.0959293095061640e-03 0.0000000000000000e+00  3.8336996422373096e-04 -1.0368952253452769e-03 0.0000000000000000e+00  3.7370939023984034e-04 -9.8137233853182637e-04 0.0000000000000000e+00  3.6410149293259961e-04 -9.2904772917375296e-04 0.0000000000000000e+00  3.5454830508095111e-04 -8.7965360257463514e-04 0.0000000000000000e+00  3.4504878059665771e-04 -8.3295784736928829e-04 0.0000000000000000e+00  3.3560567995820286e-04 -7.8875724567162796e-04 0.0000000000000000e+00  3.2621964269906003e-04 -7.4687490484387530e-04 0.0000000000000000e+00  3.1689147523557797e-04 -7.0715475151396541e-04 0.0000000000000000e+00  3.0762150085887884e-04 -6.6945828873548414e-04 0.0000000000000000e+00  2.9841075823688895e-04 -6.3365978478958451e-04 0.0000000000000000e+00  2.8925854083300379e-04 -5.9964880694970491e-04 0.0000000000000000e+00  2.8016585925003741e-04 -5.6732629124992787e-04 0.0000000000000000e+00  2.7113296947723492e-04 -5.3660104272752025e-04 0.0000000000000000e+00  2.6215965032803967e-04 -5.0739006918464990e-04 0.0000000000000000e+00  2.5324499866515168e-04 -4.7962017458259788e-04 0.0000000000000000e+00  2.4439061007612708e-04 -4.5322316615849565e-04 0.0000000000000000e+00  2.3559346523889421e-04 -4.2813530150862921e-04 0.0000000000000000e+00  2.2685508027921872e-04 -4.0430048800628405e-04 0.0000000000000000e+00  2.1817433231731550e-04 -3.8166694563554113e-04 0.0000000000000000e+00  2.0954965780912085e-04 -3.6018717910606536e-04 0.0000000000000000e+00  2.0098086351882870e-04 -3.3981492091394463e-04 0.0000000000000000e+00  1.9246657715452054e-04 -3.2051064624281228e-04 0.0000000000000000e+00  1.8400592988065690e-04 -3.0223611078897998e-04 0.0000000000000000e+00  1.7559732694485592e-04 -2.8495616137649268e-04 0.0000000000000000e+00  1.6723957682079031e-04 -2.6863922566548130e-04 0.0000000000000000e+00  1.5893115920027033e-04 -2.5325504368370691e-04 0.0000000000000000e+00  1.5067040443652869e-04 -2.3877614608030823e-04 0.0000000000000000e+00  1.4245563959804951e-04 -2.2517710020720846e-04 0.0000000000000000e+00  1.3428509878612882e-04 -2.1243435138833882e-04 0.0000000000000000e+00  1.2615671086296947e-04 -2.0052607315125559e-04 0.0000000000000000e+00  1.1806864913066772e-04 -1.8943246083708064e-04 0.0000000000000000e+00  1.1001875066737189e-04 -1.7913492676245883e-04 0.0000000000000000e+00  1.0200489227459362e-04 -1.6961670068304697e-04 0.0000000000000000e+00  9.4024814147881280e-05 -1.6086231767868905e-04 0.0000000000000000e+00  8.6076218359019757e-05 -1.5285779999939684e-04 0.0000000000000000e+00  7.8156691983717928e-05 -1.4559033557754085e-04 0.0000000000000000e+00  7.0263771149650593e-05 -1.3904853623519038e-04 0.0000000000000000e+00  6.2395200250270618e-05 -1.3322223051952660e-04 0.0000000000000000e+00  5.4547945734055737e-05 -1.2810214301749802e-04 0.0000000000000000e+00  4.6719744230073379e-05 -1.2368042997148185e-04 0.0000000000000000e+00  3.8907954658161536e-05 -1.1995045644164185e-04 0.0000000000000000e+00  3.1110037066732345e-05 -1.1690639725365924e-04 0.0000000000000000e+00  2.3322772108386271e-05 -1.1454352515481811e-04 0.0000000000000000e+00  1.5543878026344238e-05 -1.1285830351845024e-04 0.0000000000000000e+00  7.7705286929931392e-06 -1.1184820213110554e-04 0.0000000000000000e+00  -5.1088880486038128e-04 -2.8030222607280902e-03 0.0000000000000000e+00  -4.9714121889278225e-04 -2.8713150362047108e-03 0.0000000000000000e+00  -4.8369339689512928e-04 -2.9296643203144553e-03 0.0000000000000000e+00  -4.7031122831918339e-04 -2.9817987881805546e-03 0.0000000000000000e+00  -4.5702257237003642e-04 -3.0293677381981899e-03 0.0000000000000000e+00  -4.4374597859091929e-04 -3.0732583234033806e-03 0.0000000000000000e+00  -4.3047844752487705e-04 -3.1140686931217568e-03 0.0000000000000000e+00  -4.1721669963165533e-04 -3.1521981907207328e-03 0.0000000000000000e+00  -4.0395522370176756e-04 -3.1879517018954173e-03 0.0000000000000000e+00  -3.9069831920498122e-04 -3.2215698198565031e-03 0.0000000000000000e+00  -3.7744497467258391e-04 -3.2532407675510281e-03 0.0000000000000000e+00  -3.6419259620702559e-04 -3.2831166272062457e-03 0.0000000000000000e+00  -3.5094161865561297e-04 -3.3113255669271254e-03 0.0000000000000000e+00  -3.3769209472983330e-04 -3.3379724280224346e-03 0.0000000000000000e+00  -3.2444239526439205e-04 -3.3631460734548646e-03 0.0000000000000000e+00  -3.1119442884589227e-04 -3.3869267458282995e-03 0.0000000000000000e+00  -2.9794720231182421e-04 -3.4093808321542063e-03 0.0000000000000000e+00  -2.8470079550121404e-04 -3.4305665169068497e-03 0.0000000000000000e+00  -2.7145504454580453e-04 -3.4505355186802106e-03 0.0000000000000000e+00  -2.5820983248948096e-04 -3.4693331014109515e-03 0.0000000000000000e+00  -2.4496516949074960e-04 -3.4869995278409829e-03 0.0000000000000000e+00  -2.3172103648212513e-04 -3.5035706143663053e-03 0.0000000000000000e+00  -2.1847732452434413e-04 -3.5190780694641941e-03 0.0000000000000000e+00  -2.0523409979206247e-04 -3.5335505168589709e-03 0.0000000000000000e+00  -1.9199128200617942e-04 -3.5470135073516051e-03 0.0000000000000000e+00  -1.7874882942114096e-04 -3.5594896028198950e-03 0.0000000000000000e+00  -1.6550689498976879e-04 -3.5709992188834947e-03 0.0000000000000000e+00  -1.5226504935902704e-04 -3.5815603304288498e-03 0.0000000000000000e+00  -1.3902355075253960e-04 -3.5911893573965432e-03 0.0000000000000000e+00  -1.2578237534728145e-04 -3.5999005946283293e-03 0.0000000000000000e+00  -1.1254146017525765e-04 -3.6077067600627862e-03 0.0000000000000000e+00  -9.9300717448595272e-05 -3.6146189035597296e-03 0.0000000000000000e+00  -8.6060159403344419e-05 -3.6206467400326328e-03 0.0000000000000000e+00  -7.2819813655146170e-05 -3.6257985795316548e-03 0.0000000000000000e+00  -5.9579490740622929e-05 -3.6300812124026196e-03 0.0000000000000000e+00  -4.6339513275035204e-05 -3.6335006597082793e-03 0.0000000000000000e+00  -3.3099400961499499e-05 -3.6360613316654875e-03 0.0000000000000000e+00  -1.9859397303890915e-05 -3.6377665300545165e-03 0.0000000000000000e+00  -6.6194788637461115e-06 -3.6386185834353063e-03 0.0000000000000000e+00  6.6204408924604275e-06 -3.6386185670397309e-03 0.0000000000000000e+00  1.9860372624941153e-05 -3.6377664752903840e-03 0.0000000000000000e+00  3.3100343736979904e-05 -3.6360612085748274e-03 0.0000000000000000e+00  4.6340380492751049e-05 -3.6335005638143403e-03 0.0000000000000000e+00  5.9580475773849309e-05 -3.6300811016730795e-03 0.0000000000000000e+00  7.2820728564497778e-05 -3.6257982817804548e-03 0.0000000000000000e+00  8.6061089693942989e-05 -3.6206464929988765e-03 0.0000000000000000e+00  9.9301628358209842e-05 -3.6146186657216904e-03 0.0000000000000000e+00  1.1254235205288278e-04 -3.6077064903415564e-03 0.0000000000000000e+00  1.2578333281104345e-04 -3.5999003384739304e-03 0.0000000000000000e+00  1.3902451178658239e-04 -3.5911890217704442e-03 0.0000000000000000e+00  1.5226597884502590e-04 -3.5815600012023860e-03 0.0000000000000000e+00  1.6550784752597281e-04 -3.5709987792383368e-03 0.0000000000000000e+00  1.7874987653656519e-04 -3.5594891505298159e-03 0.0000000000000000e+00  1.9199232869672491e-04 -3.5470131486373341e-03 0.0000000000000000e+00  2.0523516443885322e-04 -3.5335502737652976e-03 0.0000000000000000e+00  2.1847842639275325e-04 -3.5190778034220028e-03 0.0000000000000000e+00  2.3172207383105842e-04 -3.5035702485979449e-03 0.0000000000000000e+00  2.4496644241099136e-04 -3.4869993125801971e-03 0.0000000000000000e+00  2.5821133435807443e-04 -3.4693324716534224e-03 0.0000000000000000e+00  2.7145668192018807e-04 -3.4505348837862862e-03 0.0000000000000000e+00  2.8470259833802237e-04 -3.4305658303491783e-03 0.0000000000000000e+00  2.9794924745870835e-04 -3.4093799929750010e-03 0.0000000000000000e+00  3.1119664160610019e-04 -3.3869258838052432e-03 0.0000000000000000e+00  3.2444492407998599e-04 -3.3631448314940678e-03 0.0000000000000000e+00  3.3769414674365502e-04 -3.3379699459092842e-03 0.0000000000000000e+00  3.5094467284401158e-04 -3.3113233429933014e-03 0.0000000000000000e+00  3.6419593410300284e-04 -3.2831145682634629e-03 0.0000000000000000e+00  3.7744862076954418e-04 -3.2532373902986579e-03 0.0000000000000000e+00  3.9070388439228196e-04 -3.2215677517489676e-03 0.0000000000000000e+00  4.0395994447856460e-04 -3.1879489274427597e-03 0.0000000000000000e+00  4.1721823177231121e-04 -3.1521918129244148e-03 0.0000000000000000e+00  4.3048199983564318e-04 -3.1140632302796636e-03 0.0000000000000000e+00  4.4375377142334330e-04 -3.0732615790414635e-03 0.0000000000000000e+00  4.5702825431724923e-04 -3.0293590917179376e-03 0.0000000000000000e+00  4.7031037391897932e-04 -2.9817775150408955e-03 0.0000000000000000e+00  4.8358344310058980e-04 -2.9296590659693132e-03 0.0000000000000000e+00  4.9722911182725109e-04 -2.8715084841226062e-03 0.0000000000000000e+00  5.1081620018276640e-04 -2.8028060072288296e-03 0.0000000000000000e+00  -7.7705895237274268e-06 -1.1184830742465679e-04 0.0000000000000000e+00  -1.5543939491869012e-05 -1.1285842282568679e-04 0.0000000000000000e+00  -2.3322785948400377e-05 -1.1454360736634188e-04 0.0000000000000000e+00  -3.1109896306277662e-05 -1.1690646289068704e-04 0.0000000000000000e+00  -3.8907968326751111e-05 -1.1995053143864430e-04 0.0000000000000000e+00  -4.6719868358629927e-05 -1.2368062070804872e-04 0.0000000000000000e+00  -5.4547933642481203e-05 -1.2810220372145659e-04 0.0000000000000000e+00  -6.2395085780360437e-05 -1.3322224117108449e-04 0.0000000000000000e+00  -7.0263806143432405e-05 -1.3904862040926009e-04 0.0000000000000000e+00  -7.8156709011086755e-05 -1.4559045815544085e-04 0.0000000000000000e+00  -8.6076220671869294e-05 -1.5285792208618925e-04 0.0000000000000000e+00  -9.4024852567180191e-05 -1.6086248355405826e-04 0.0000000000000000e+00  -1.0200491788213336e-04 -1.6961686191625130e-04 0.0000000000000000e+00  -1.1001875676217113e-04 -1.7913508924575938e-04 0.0000000000000000e+00  -1.1806862887796584e-04 -1.8943258655059652e-04 0.0000000000000000e+00  -1.2615668508103768e-04 -2.0052622570530969e-04 0.0000000000000000e+00  -1.3428502529501274e-04 -2.1243438766753567e-04 0.0000000000000000e+00  -1.4245565379159084e-04 -2.2517726320034153e-04 0.0000000000000000e+00  -1.5067035697594337e-04 -2.3877635668932148e-04 0.0000000000000000e+00  -1.5893112618531888e-04 -2.5325535586089688e-04 0.0000000000000000e+00  -1.6723980311236723e-04 -2.6863965928222472e-04 0.0000000000000000e+00  -1.7559723057723116e-04 -2.8495640373294806e-04 0.0000000000000000e+00  -1.8400583287030075e-04 -3.0223609471889906e-04 0.0000000000000000e+00  -1.9246653702473045e-04 -3.2051074527794182e-04 0.0000000000000000e+00  -2.0098072656374075e-04 -3.3981518185078702e-04 0.0000000000000000e+00  -2.0954952644316468e-04 -3.6018714292986476e-04 0.0000000000000000e+00  -2.1817401273195938e-04 -3.8166757294307062e-04 0.0000000000000000e+00  -2.2685503929990148e-04 -4.0430082494055566e-04 0.0000000000000000e+00  -2.3559354281512470e-04 -4.2813510258631705e-04 0.0000000000000000e+00  -2.4439010155312174e-04 -4.5322252982744633e-04 0.0000000000000000e+00  -2.5324519101076269e-04 -4.7962019324313313e-04 0.0000000000000000e+00  -2.6215914491939049e-04 -5.0739008212998731e-04 0.0000000000000000e+00  -2.7113385652033145e-04 -5.3660087796811448e-04 0.0000000000000000e+00  -2.8016573860614947e-04 -5.6732654174936720e-04 0.0000000000000000e+00  -2.8925842337115278e-04 -5.9964973815264757e-04 0.0000000000000000e+00  -2.9841045872063817e-04 -6.3366009649192694e-04 0.0000000000000000e+00  -3.0762181295315629e-04 -6.6945788377784652e-04 0.0000000000000000e+00  -3.1689144765510458e-04 -7.0715467861831387e-04 0.0000000000000000e+00  -3.2621947925283895e-04 -7.4687475535666862e-04 0.0000000000000000e+00  -3.3560538059812571e-04 -7.8875681265398224e-04 0.0000000000000000e+00  -3.4504853953585196e-04 -8.3295730896678591e-04 0.0000000000000000e+00  -3.5454742620321837e-04 -8.7965416067152611e-04 0.0000000000000000e+00  -3.6410214861320740e-04 -9.2904898949712315e-04 0.0000000000000000e+00  -3.7371044580991809e-04 -9.8137312964766783e-04 0.0000000000000000e+00  -3.8337028188874223e-04 -1.0368947065109910e-03 0.0000000000000000e+00  -3.9308087775051271e-04 -1.0959280154414915e-03 0.0000000000000000e+00  -4.0284267552214732e-04 -1.1588391430875750e-03 0.0000000000000000e+00  -4.1265323522565685e-04 -1.2260685333640821e-03 0.0000000000000000e+00  -4.2250990774876190e-04 -1.2981452618564121e-03 0.0000000000000000e+00  -4.3241212496593725e-04 -1.3757139707742802e-03 0.0000000000000000e+00  -4.4235200038828150e-04 -1.4595989887235326e-03 0.0000000000000000e+00  -4.5233937768224389e-04 -1.5508044043495068e-03 0.0000000000000000e+00  -4.6235296716235023e-04 -1.6507339163438306e-03 0.0000000000000000e+00  -4.7239440831921102e-04 -1.7612298207043710e-03 0.0000000000000000e+00  -4.8246466697395631e-04 -1.8849344308874514e-03 0.0000000000000000e+00  -4.9260566845594003e-04 -2.0259396189496628e-03 0.0000000000000000e+00  -5.0257138174203268e-04 -2.1913850708202200e-03 0.0000000000000000e+00  -5.1307960156301560e-04 -2.3966533312915436e-03 0.0000000000000000e+00  0.0000000000000000e+00 -2.1641260371007393e-05 0.0000000000000000e+00  0.0000000000000000e+00 -4.0425676815393701e-05 0.0000000000000000e+00  0.0000000000000000e+00 -5.6702875300453253e-05 0.0000000000000000e+00  0.0000000000000000e+00 -7.0770679952378163e-05 0.0000000000000000e+00  0.0000000000000000e+00 -8.2855416080301634e-05 0.0000000000000000e+00  0.0000000000000000e+00 -9.3143332781571667e-05 0.0000000000000000e+00  0.0000000000000000e+00 -1.0179029655063526e-04 0.0000000000000000e+00  0.0000000000000000e+00 -1.0892971928177786e-04 0.0000000000000000e+00  0.0000000000000000e+00 -1.1466757746999613e-04 0.0000000000000000e+00  0.0000000000000000e+00 -1.1912030416209683e-04 0.0000000000000000e+00  0.0000000000000000e+00 -1.2238189274497565e-04 0.0000000000000000e+00  0.0000000000000000e+00 -1.2454999381658684e-04 0.0000000000000000e+00  0.0000000000000000e+00 -1.2572432449131537e-04 0.0000000000000000e+00  0.0000000000000000e+00 -1.2600336044125903e-04 0.0000000000000000e+00  0.0000000000000000e+00 -1.2548819629028225e-04 0.0000000000000000e+00  0.0000000000000000e+00 -1.2428283033022772e-04 0.0000000000000000e+00  0.0000000000000000e+00 -1.2249488868122690e-04 0.0000000000000000e+00  0.0000000000000000e+00 -1.2023177813468640e-04 0.0000000000000000e+00  0.0000000000000000e+00 -1.1760196217162062e-04 0.0000000000000000e+00  0.0000000000000000e+00 -1.1471363053121708e-04 0.0000000000000000e+00  0.0000000000000000e+00 -1.1167327593350443e-04 0.0000000000000000e+00  0.0000000000000000e+00 -1.0858344242308872e-04 0.0000000000000000e+00  0.0000000000000000e+00 -1.0554318656896296e-04 0.0000000000000000e+00  0.0000000000000000e+00 -1.0264271720335085e-04 0.0000000000000000e+00  0.0000000000000000e+00 -9.9968185022175223e-05 0.0000000000000000e+00  0.0000000000000000e+00 -9.7597288935793091e-05 0.0000000000000000e+00  0.0000000000000000e+00 -9.5595442614193515e-05 0.0000000000000000e+00  0.0000000000000000e+00 -9.4021906203980738e-05 0.0000000000000000e+00  0.0000000000000000e+00 -9.2923885868845799e-05 0.0000000000000000e+00  0.0000000000000000e+00 -9.2338465460516222e-05 0.0000000000000000e+00  0.0000000000000000e+00 -9.2292661909154484e-05 0.0000000000000000e+00  0.0000000000000000e+00 -9.2803021932904886e-05 0.0000000000000000e+00  0.0000000000000000e+00 -9.3876645107715436e-05 0.0000000000000000e+00  0.0000000000000000e+00 -9.5511815658742155e-05 0.0000000000000000e+00  0.0000000000000000e+00 -9.7698333543649960e-05 0.0000000000000000e+00  0.0000000000000000e+00 -1.0041849987712769e-04 0.0000000000000000e+00  0.0000000000000000e+00 -1.0364803329249286e-04 0.0000000000000000e+00  0.0000000000000000e+00 -1.0735726727562250e-04 0.0000000000000000e+00  0.0000000000000000e+00 0.0000000000000000e+00 0.0000000000000000e+00  0.0000000000000000e+00 0.0000000000000000e+00 0.0000000000000000e+00  0.0000000000000000e+00 0.0000000000000000e+00 0.0000000000000000e+00  0.0000000000000000e+00 0.0000000000000000e+00 0.0000000000000000e+00  0.0000000000000000e+00 0.0000000000000000e+00 0.0000000000000000e+00  0.0000000000000000e+00 0.0000000000000000e+00 0.0000000000000000e+00  0.0000000000000000e+00 0.0000000000000000e+00 0.0000000000000000e+00  0.0000000000000000e+00 0.0000000000000000e+00 0.0000000000000000e+00  0.0000000000000000e+00 0.0000000000000000e+00 0.0000000000000000e+00  0.0000000000000000e+00 0.0000000000000000e+00 0.0000000000000000e+00  0.0000000000000000e+00 0.0000000000000000e+00 0.0000000000000000e+00  0.0000000000000000e+00 0.0000000000000000e+00 0.0000000000000000e+00  0.0000000000000000e+00 0.0000000000000000e+00 0.0000000000000000e+00  0.0000000000000000e+00 0.0000000000000000e+00 0.0000000000000000e+00  0.0000000000000000e+00 0.0000000000000000e+00 0.0000000000000000e+00  0.0000000000000000e+00 0.0000000000000000e+00 0.0000000000000000e+00  0.0000000000000000e+00 0.0000000000000000e+00 0.0000000000000000e+00  0.0000000000000000e+00 0.0000000000000000e+00 0.0000000000000000e+00  0.0000000000000000e+00 -1.0732351306661922e-04 0.0000000000000000e+00  0.0000000000000000e+00 -1.0359054170386016e-04 0.0000000000000000e+00  0.0000000000000000e+00 -1.0034716585124462e-04 0.0000000000000000e+00  0.0000000000000000e+00 -9.7622694981469964e-05 0.0000000000000000e+00  0.0000000000000000e+00 -9.5440976314027867e-05 0.0000000000000000e+00  0.0000000000000000e+00 -9.3818806892305171e-05 0.0000000000000000e+00  0.0000000000000000e+00 -9.2765272120672076e-05 0.0000000000000000e+00  0.0000000000000000e+00 -9.2281025489472315e-05 0.0000000000000000e+00  0.0000000000000000e+00 -9.2357622703792417e-05 0.0000000000000000e+00  0.0000000000000000e+00 -9.2976508688016947e-05 0.0000000000000000e+00  0.0000000000000000e+00 -9.4109826545412805e-05 0.0000000000000000e+00  0.0000000000000000e+00 -9.5716992259634013e-05 0.0000000000000000e+00  0.0000000000000000e+00 -9.7750938038966955e-05 0.0000000000000000e+00  0.0000000000000000e+00 -1.0015105320006502e-04 0.0000000000000000e+00  0.0000000000000000e+00 -1.0284896826871235e-04 0.0000000000000000e+00  0.0000000000000000e+00 -1.0576533561843916e-04 0.0000000000000000e+00  0.0000000000000000e+00 -1.0881475973188600e-04 0.0000000000000000e+00  0.0000000000000000e+00 -1.1190574832227198e-04 0.0000000000000000e+00  0.0000000000000000e+00 -1.1493803393043125e-04 0.0000000000000000e+00  0.0000000000000000e+00 -1.1780902385875984e-04 0.0000000000000000e+00  0.0000000000000000e+00 -1.2041288733407332e-04 0.0000000000000000e+00  0.0000000000000000e+00 -1.2264221321571213e-04 0.0000000000000000e+00  0.0000000000000000e+00 -1.2438918276991463e-04 0.00000000000