<?xml version="1.0"?>
<VTKFile type="UnstructuredGrid"  version="0.1"  >
<UnstructuredGrid>
<Piece  NumberOfPoints="3167" NumberOfCells="6038">
<Points>
<DataArray  type="Float64"  NumberOfComponents="3"  format="ascii">2.2 2.9 0  0 2.9 0  2.8 2.9 0  5 2.9 0  5 0 0  0 0 0  2.16271186440678 2.9 0  2.125423728813559 2.9 0  2.088135593220339 2.9 0  2.050847457627119 2.9 0  2.013559322033898 2.9 0  1.976271186440678 2.9 0  1.938983050847457 2.9 0  1.901694915254237 2.9 0  1.864406779661016 2.9 0  1.827118644067796 2.9 0  1.789830508474575 2.9 0  1.752542372881355 2.9 0  1.715254237288134 2.9 0  1.677966101694914 2.9 0  1.640677966101693 2.9 0  1.603389830508473 2.9 0  1.566101694915253 2.9 0  1.528813559322032 2.9 0  1.491525423728812 2.9 0  1.454237288135591 2.9 0  1.416949152542371 2.9 0  1.37966101694915 2.9 0  1.34237288135593 2.9 0  1.305084745762709 2.9 0  1.267796610169489 2.9 0  1.230508474576268 2.9 0  1.193220338983048 2.9 0  1.155932203389827 2.9 0  1.118644067796607 2.9 0  1.081355932203387 2.9 0  1.044067796610166 2.9 0  1.006779661016946 2.9 0  0.9694915254237257 2.9 0  0.9322033898305055 2.9 0  0.8949152542372856 2.9 0  0.8576271186440652 2.9 0  0.820338983050845 2.9 0  0.783050847457625 2.9 0  0.7457627118644048 2.9 0  0.7084745762711844 2.9 0  0.6711864406779642 2.9 0  0.633898305084744 2.9 0  0.5966101694915238 2.9 0  0.5593220338983036 2.9 0  0.5220338983050834 2.9 0  0.4847457627118632 2.9 0  0.447457627118643 2.9 0  0.4101694915254228 2.9 0  0.3728813559322024 2.9 0  0.3355932203389822 2.9 0  0.2983050847457622 2.9 0  0.2610169491525418 2.9 0  0.2237288135593216 2.9 0  0.1864406779661016 2.9 0  0.1491525423728812 2.9 0  0.1118644067796613 2.9 0  0.07457627118644039 2.9 0  0.03728813559321997 2.9 0  2.792405063291139 2.9 0  2.784810126582279 2.9 0  2.777215189873418 2.9 0  2.769620253164557 2.9 0  2.762025316455697 2.9 0  2.754430379746836 2.9 0  2.746835443037975 2.9 0  2.739240506329114 2.9 0  2.731645569620254 2.9 0  2.724050632911393 2.9 0  2.716455696202532 2.9 0  2.708860759493671 2.9 0  2.701265822784811 2.9 0  2.69367088607595 2.9 0  2.686075949367089 2.9 0  2.678481012658228 2.9 0  2.670886075949368 2.9 0  2.663291139240507 2.9 0  2.655696202531646 2.9 0  2.648101265822786 2.9 0  2.640506329113925 2.9 0  2.632911392405064 2.9 0  2.625316455696203 2.9 0  2.617721518987342 2.9 0  2.610126582278482 2.9 0  2.602531645569621 2.9 0  2.59493670886076 2.9 0  2.587341772151899 2.9 0  2.579746835443038 2.9 0  2.572151898734178 2.9 0  2.564556962025317 2.9 0  2.556962025316456 2.9 0  2.549367088607595 2.9 0  2.541772151898734 2.9 0  2.534177215189874 2.9 0  2.526582278481013 2.9 0  2.518987341772152 2.9 0  2.511392405063292 2.9 0  2.503797468354431 2.9 0  2.49620253164557 2.9 0  2.488607594936709 2.9 0  2.481012658227848 2.9 0  2.473417721518988 2.9 0  2.465822784810127 2.9 0  2.458227848101266 2.9 0  2.450632911392406 2.9 0  2.443037974683545 2.9 0  2.435443037974684 2.9 0  2.427848101265823 2.9 0  2.420253164556962 2.9 0  2.412658227848102 2.9 0  2.405063291139241 2.9 0  2.39746835443038 2.9 0  2.389873417721519 2.9 0  2.382278481012658 2.9 0  2.374683544303798 2.9 0  2.367088607594937 2.9 0  2.359493670886076 2.9 0  2.351898734177215 2.9 0  2.344303797468355 2.9 0  2.336708860759494 2.9 0  2.329113924050633 2.9 0  2.321518987341773 2.9 0  2.313924050632912 2.9 0  2.306329113924051 2.9 0  2.29873417721519 2.9 0  2.291139240506329 2.9 0  2.283544303797469 2.9 0  2.275949367088608 2.9 0  2.268354430379747 2.9 0  2.260759493670887 2.9 0  2.253164556962026 2.9 0  2.245569620253165 2.9 0  2.237974683544304 2.9 0  2.230379746835443 2.9 0  2.222784810126583 2.9 0  2.215189873417722 2.9 0  2.207594936708861 2.9 0  4.96271186440678 2.9 0  4.925423728813559 2.9 0  4.888135593220339 2.9 0  4.850847457627118 2.9 0  4.813559322033898 2.9 0  4.776271186440677 2.9 0  4.738983050847457 2.9 0  4.701694915254237 2.9 0  4.664406779661016 2.9 0  4.627118644067796 2.9 0  4.589830508474575 2.9 0  4.552542372881355 2.9 0  4.515254237288135 2.9 0  4.477966101694914 2.9 0  4.440677966101694 2.9 0  4.403389830508473 2.9 0  4.366101694915252 2.9 0  4.328813559322032 2.9 0  4.291525423728811 2.9 0  4.254237288135591 2.9 0  4.21694915254237 2.9 0  4.17966101694915 2.9 0  4.14237288135593 2.9 0  4.105084745762709 2.9 0  4.067796610169489 2.9 0  4.030508474576268 2.9 0  3.993220338983048 2.9 0  3.955932203389827 2.9 0  3.918644067796607 2.9 0  3.881355932203387 2.9 0  3.844067796610166 2.9 0  3.806779661016946 2.9 0  3.769491525423725 2.9 0  3.732203389830505 2.9 0  3.694915254237285 2.9 0  3.657627118644065 2.9 0  3.620338983050845 2.9 0  3.583050847457625 2.9 0  3.545762711864405 2.9 0  3.508474576271184 2.9 0  3.471186440677964 2.9 0  3.433898305084744 2.9 0  3.396610169491524 2.9 0  3.359322033898303 2.9 0  3.322033898305083 2.9 0  3.284745762711863 2.9 0  3.247457627118643 2.9 0  3.210169491525423 2.9 0  3.172881355932202 2.9 0  3.135593220338982 2.9 0  3.098305084745762 2.9 0  3.061016949152542 2.9 0  3.023728813559321 2.9 0  2.986440677966101 2.9 0  2.949152542372881 2.9 0  2.911864406779661 2.9 0  2.87457627118644 2.9 0  2.83728813559322 2.9 0  5 0.1063822625082082 0  5 0.210636880010749 0  5 0.3128064053694972 0  5 0.4129325400644018 0  5 0.5110561521032336 0  5 0.6072172918830103 0  5 0.7014552087832795 0  5 0.7938083674443693 0  5 0.88431446261646 0  5 0.9730104359544682 0  5 1.059932489996267 0  5 1.145116102913299 0  5 1.228596043483191 0  5 1.310406385079062 0  5 1.390580519944147 0  5 1.469151172477827 0  5 1.546150411986101 0  5 1.621609666658609 0  5 1.695559736099044 0  5 1.76803080383987 0  5 1.839052450169751 0  5 1.908653663631169 0  5 1.97686285289587 0  5 2.043707858613779 0  5 2.109215964341413 0  5 2.173413907925942 0  5 2.236327892833935 0  5 2.297983597762904 0  5 2.35840618845912 0  5 2.41762032730194 0  5 2.475650183444628 0  5 2.532519442457069 0  5 2.588251316112828 0  5 2.642868552557322 0  5 2.696393444426347 0  5 2.748847838312051 0  5 2.800253144313381 0  5 2.850630344319807 0  0.2631578947368421 0 0  0.5263157894736842 0 0  0.7894736842105263 0 0  1.052631578947368 0 0  1.31578947368421 0 0  1.578947368421053 0 0  1.842105263157895 0 0  2.105263157894737 0 0  2.368421052631579 0 0  2.631578947368421 0 0  2.894736842105263 0 0  3.157894736842105 0 0  3.421052631578947 0 0  3.684210526315789 0 0  3.947368421052632 0 0  4.210526315789473 0 0  4.473684210526315 0 0  4.736842105263158 0 0  0 2.850203682350569 0  0 2.799411438503675 0  0 2.747603349778291 0  0 2.694759099502208 0  0 2.640857964382145 0  0 2.58587880633613 0  0 2.52980006535898 0  0 2.472599749459174 0  0 2.414255427218689 0  0 2.35474421880616 0  0 2.294042786119219 0  0 2.232127324764723 0  0 2.1689735539481 0  0 2.104556707683347 0  0 2.038851524813415 0  0 1.971832238155655 0  0 1.903472565412126 0  0 1.83374569926617 0  0 1.762624296208475 0  0 1.690080464918761 0  0 1.616085756774206 0  0 1.540611154706337 0  0 1.463627060685571 0  0 1.385103284916206 0  0 1.305009033716617 0  0 1.223312897337225 0  0 1.139982838163732 0  0 1.054986177579938 0  0 0.9682895835804817 0  0 0.8798590579197976 0  0 0.7896599218415354 0  0 0.6976568029903638 0  0 0.6038136217958798 0  0 0.508093576867624 0  0 0.4104591310957497 0  0 0.3108719963522191 0  0 0.2092931188294389 0  0 0.1056826638508546 0  1.434832105763824 2.866945754981483 0  1.737156300467626 2.870039440267515 0  2.032203389830508 2.867707527316512 0  2.332911392405064 2.893422591869991 0  2.469810913293406 2.891944186606167 0  2.606221408823969 2.892519154985628 0  2.255455320628894 2.892068685006691 0  2.538247299216212 2.894964578182811 0  2.674683544303798 2.893422591869991 0  2.40126582278481 2.893422591869991 0  3.566125247295424 2.865029336199714 0  3.266101694915253 2.867707527316512 0  2.967796610169491 2.867707527316512 0  1.174288529834642 2.870795313888584 0  3.825423728813556 2.867707527316512 0  2.727766680262011 2.892655387647729 0  0.06601655192030442 1.502119107695954 0  4.933983535508361 1.507650792231964 0  0.9532124728485543 2.868722489783638 0  4.048935912500257 2.870640982995992 0  0.05930163367361763 1.866907161167414 0  4.943402512618553 1.871280731473148 0  4.271733870017743 2.86520865624265 0  0.7249420921613114 2.863922936177041 0  0.05494499779910056 2.196469063120752 0  4.947228695426367 2.208030108792719 0  0.5406152150397161 2.866493807382013 0  4.459322033898304 2.868847558178794 0  2.18135593220339 2.875780645487384 0  2.817027156509632 2.876587550645167 0  4.928427208322876 1.186856073198245 0  0.07189226971603224 1.174626666111662 0  4.610299014423113 2.867003104093161 0  0.3897270066746357 2.869433095314657 0  1.581132500042262 2.868247328632392 0  1.887637879411437 2.869235851794358 0  3.413449426418068 2.867372048034327 0  3.116721298814773 2.865731235547652 0  2.644303797468355 2.893422591869991 0  2.370983221828106 2.892719513369796 0  2.302531645569621 2.893336787387268 0  2.758987341772152 2.894242393897099 0  0.04979653335696277 2.443411216910286 0  4.950470983477169 2.446866954595817 0  2.482937483021586 0.2513241087417575 0  1.707129504814338 0.1999998659920923 0  3.28584657955054 0.229200625631625 0  4.907807122600524 0.834082362900164 0  4.757627118644067 2.867707527316512 0  0.0773489124676745 0.8347594898806663 0  0.2390604736599387 2.861365431805741 0  0.8363213715215729 2.863896768908178 0  4.160865610207075 2.868916854015731 0  1.282549332053297 2.867610952980761 0  1.065094818402487 2.861284686038041 0  3.93818127737282 2.86865134411395 0  3.711492629432973 2.863574306925269 0  4.91369361998929 0.5579891344254361 0  0.08208328472281323 0.5559535993317519 0  2.696596932532885 2.892010483922337 0  0.04706410140274553 2.613055974506516 0  4.955577063972248 2.616518038840186 0  2.234177215189874 2.893422591869991 0  2.279795840559739 2.89403861893984 0  0.9117357887652362 0.2117925286661764 0  4.055948041993057 0.2039101057937727 0  4.872119713780579 2.867632926423075 0  2.780113878992455 2.891535929611743 0  0.1327442468251063 2.85
[...]
<PointData  Vectors="displacement"> 
<DataArray  type="Float64"  Name="displacement"  NumberOfComponents="3" format="ascii">-4.2642502091120738e-01 -2.2480078024208930e-01 0.0000000000000000e+00  0.0000000000000000e+00 4.0008374210756248e-05 0.0000000000000000e+00  4.2583215978059236e-01 -2.2439222951313620e-01 0.0000000000000000e+00  0.0000000000000000e+00 4.1516264350862618e-05 0.0000000000000000e+00  0.0000000000000000e+00 0.0000000000000000e+00 0.0000000000000000e+00  0.0000000000000000e+00 0.0000000000000000e+00 0.0000000000000000e+00  -5.6267910265959031e-01 3.6083996395750384e-01 0.0000000000000000e+00  -6.0632025397073153e-01 5.2465760488890456e-01 0.0000000000000000e+00  -6.2397328407594999e-01 6.0821062599776865e-01 0.0000000000000000e+00  -6.3458955782069548e-01 6.5726457691687801e-01 0.0000000000000000e+00  -6.4019417006856705e-01 6.8362589377085548e-01 0.0000000000000000e+00  -6.4388550745181516e-01 6.9446230184155311e-01 0.0000000000000000e+00  -6.4592099542103787e-01 6.9255335354685887e-01 0.0000000000000000e+00  -6.4638061122437862e-01 6.8062896894305047e-01 0.0000000000000000e+00  -6.4330878874626729e-01 6.6146831278842055e-01 0.0000000000000000e+00  -6.3328736721891765e-01 6.3679808340177235e-01 0.0000000000000000e+00  -6.1564223274084340e-01 6.0795301624978126e-01 0.0000000000000000e+00  -5.9244837146035467e-01 5.7646429447231606e-01 0.0000000000000000e+00  -5.6452614313722105e-01 5.4339207340293649e-01 0.0000000000000000e+00  -5.3232900968588270e-01 5.0914380397986259e-01 0.0000000000000000e+00  -4.9741095780633388e-01 4.7436641647390931e-01 0.0000000000000000e+00  -4.6133437682724093e-01 4.3938861334272783e-01 0.0000000000000000e+00  -4.2502156292386284e-01 4.0458872240107868e-01 0.0000000000000000e+00  -3.8908445859283008e-01 3.7038692839978493e-01 0.0000000000000000e+00  -3.5391883314083478e-01 3.3698484135318640e-01 0.0000000000000000e+00  -3.1970316051774317e-01 3.0444643774547886e-01 0.0000000000000000e+00  -2.8661280583116416e-01 2.7293903200163810e-01 0.0000000000000000e+00  -2.5488481857665196e-01 2.4267432322551719e-01 0.0000000000000000e+00  -2.2473749500220147e-01 2.1391499701760031e-01 0.0000000000000000e+00  -1.9619678797425533e-01 1.8670662921500700e-01 0.0000000000000000e+00  -1.6944163931896655e-01 1.6118990449334311e-01 0.0000000000000000e+00  -1.4451856167864849e-01 1.3726160276410843e-01 0.0000000000000000e+00  -1.2147368438180196e-01 1.1510353055534792e-01 0.0000000000000000e+00  -1.0026867357682830e-01 9.4638792481540779e-02 0.0000000000000000e+00  -8.1036949732943217e-02 7.6018849554462045e-02 0.0000000000000000e+00  -6.3787256756719285e-02 5.9369413338454781e-02 0.0000000000000000e+00  -4.8739948495701554e-02 4.4716797808341410e-02 0.0000000000000000e+00  -3.5905597987042376e-02 3.2253305220329438e-02 0.0000000000000000e+00  -2.5254322405476416e-02 2.1889603178228741e-02 0.0000000000000000e+00  -1.7103698747316091e-02 1.3952515783608939e-02 0.0000000000000000e+00  -1.0941642599863141e-02 7.9470628381981719e-03 0.0000000000000000e+00  -6.9220998122592643e-03 4.0915667383924067e-03 0.0000000000000000e+00  -4.5961121160133910e-03 1.8932318241761505e-03 0.0000000000000000e+00  -3.3183666296810487e-03 7.5752189123465762e-04 0.0000000000000000e+00  -2.6996108471573237e-03 2.7522158928508175e-04 0.0000000000000000e+00  -2.4172088980800675e-03 1.2556381175161062e-04 0.0000000000000000e+00  -2.2541258672539727e-03 9.1653457704189516e-05 0.0000000000000000e+00  -2.1149570296036197e-03 8.0105563654483974e-05 0.0000000000000000e+00  -1.9785420959028341e-03 7.0987265504952364e-05 0.0000000000000000e+00  -1.8443537659419485e-03 6.3636597305075909e-05 0.0000000000000000e+00  -1.7122397974118075e-03 5.7771225771815725e-05 0.0000000000000000e+00  -1.5820579244454670e-03 5.3138603131384691e-05 0.0000000000000000e+00  -1.4536572236059670e-03 4.9523973507864145e-05 0.0000000000000000e+00  -1.3268921978112323e-03 4.6746040110024639e-05 0.0000000000000000e+00  -1.2016125919255400e-03 4.4648674347300951e-05 0.0000000000000000e+00  -1.0776754185757216e-03 4.3100439920416099e-05 0.0000000000000000e+00  -9.5494997744258506e-04 4.1990181579103115e-05 0.0000000000000000e+00  -8.3327463908663643e-04 4.1219910343914583e-05 0.0000000000000000e+00  -7.1252650698541719e-04 4.0704338848803327e-05 0.0000000000000000e+00  -5.9257358167953201e-04 4.0380031937756764e-05 0.0000000000000000e+00  -4.7328368815652977e-04 4.0188777384421893e-05 0.0000000000000000e+00  -3.5450051109609860e-04 4.0086096742484326e-05 0.0000000000000000e+00  -2.3611394635798626e-04 4.0034910758120006e-05 0.0000000000000000e+00  -1.1799008121697825e-04 4.0014153120480047e-05 0.0000000000000000e+00  3.4950689791631134e-01 -5.9367758029638862e-01 0.0000000000000000e+00  3.3551856550510062e-01 -7.9387135579324242e-01 0.0000000000000000e+00  3.2180555063130684e-01 -9.2732991789739161e-01 0.0000000000000000e+00  3.0887966325871830e-01 -1.0331117559834655e+00 0.0000000000000000e+00  2.9882340214697639e-01 -1.1220395937309608e+00 0.0000000000000000e+00  2.8643241904368461e-01 -1.1965958845015023e+00 0.0000000000000000e+00  2.7435778405501871e-01 -1.2632118233315437e+00 0.0000000000000000e+00  2.6342813196900977e-01 -1.3222670881940037e+00 0.0000000000000000e+00  2.5221634043441471e-01 -1.3751771040429743e+00 0.0000000000000000e+00  2.4165868837140822e-01 -1.4233923221570179e+00 0.0000000000000000e+00  2.3138383571264723e-01 -1.4675428585200845e+00 0.0000000000000000e+00  2.2136646011681677e-01 -1.5078777435504884e+00 0.0000000000000000e+00  2.1178295445161496e-01 -1.5452915828820146e+00 0.0000000000000000e+00  2.0246046198199058e-01 -1.5801116513840570e+00 0.0000000000000000e+00  1.9354872649839316e-01 -1.6124630911628581e+00 0.0000000000000000e+00  1.8490273350524969e-01 -1.6425278721143699e+00 0.0000000000000000e+00  1.7622682053963334e-01 -1.6703315847409752e+00 0.0000000000000000e+00  1.6761809346887349e-01 -1.6962046907260313e+00 0.0000000000000000e+00  1.5914225805369298e-01 -1.7203049067035543e+00 0.0000000000000000e+00  1.5087630873213229e-01 -1.7427627555079508e+00 0.0000000000000000e+00  1.4270651112795815e-01 -1.7636556513693871e+00 0.0000000000000000e+00  1.3464845152555435e-01 -1.7830581592065684e+00 0.0000000000000000e+00  1.2662135758560880e-01 -1.8010203998418255e+00 0.0000000000000000e+00  1.1864616192626883e-01 -1.8176261138075136e+00 0.0000000000000000e+00  1.1074307243274679e-01 -1.8329532880468169e+00 0.0000000000000000e+00  1.0287754064395978e-01 -1.8470486478467916e+00 0.0000000000000000e+00  9.5099213803404414e-02 -1.8600165346665474e+00 0.0000000000000000e+00  8.7389534162531285e-02 -1.8718448470276909e+00 0.0000000000000000e+00  7.9690721947929533e-02 -1.8825357354594088e+00 0.0000000000000000e+00  7.2024028287564476e-02 -1.8921356493411392e+00 0.0000000000000000e+00  6.4412222898799401e-02 -1.9007116097407428e+00 0.0000000000000000e+00  5.6821162916566754e-02 -1.9082623378952561e+00 0.0000000000000000e+00  4.9231417578602145e-02 -1.9148026828754712e+00 0.0000000000000000e+00  4.1659867168997437e-02 -1.9203765374564081e+00 0.0000000000000000e+00  3.4084601349396088e-02 -1.9249926713364405e+00 0.0000000000000000e+00  2.6522828538592592e-02 -1.9286762133702045e+00 0.0000000000000000e+00  1.8971693654893311e-02 -1.9314237486551462e+00 0.0000000000000000e+00  1.1423080955463613e-02 -1.9332413685388616e+00 0.0000000000000000e+00  3.8827918276143638e-03 -1.9341365130259445e+00 0.0000000000000000e+00  -3.6546728948417349e-03 -1.9341232414724354e+00 0.0000000000000000e+00  -1.1188841158521782e-02 -1.9332037628581999e+00 0.0000000000000000e+00  -1.8720706550311422e-02 -1.9313674517231976e+00 0.0000000000000000e+00  -2.6243030164547758e-02 -1.9286099285737275e+00 0.0000000000000000e+00  -3.3770311626005148e-02 -1.9249074374591959e+00 0.0000000000000000e+00  -4.1311151303848721e-02 -1.9202483558828669e+00 0.0000000000000000e+00  -4.8884623416116692e-02 -1.9146205170741373e+00 0.0000000000000000e+00  -5.6495118201195585e-02 -1.9080304824490513e+00 0.0000000000000000e+00  -6.4136924415901353e-02 -1.9004642351683190e+00 0.0000000000000000e+00  -7.1800160068047444e-02 -1.8918790067619042e+00 0.0000000000000000e+00  -7.9493606680313703e-02 -1.8822549571406131e+00 0.0000000000000000e+00  -8.7176401184999711e-02 -1.8715261920082058e+00 0.0000000000000000e+00  -9.4906379355346487e-02 -1.8597017288129796e+00 0.0000000000000000e+00  -1.0269958047772022e-01 -1.8467554727997209e+00 0.0000000000000000e+00  -1.1054813925027515e-01 -1.8326337397938330e+00 0.0000000000000000e+00  -1.1848465779923791e-01 -1.8173111446918127e+00 0.0000000000000000e+00  -1.2651350048041826e-01 -1.8007255729164175e+00 0.0000000000000000e+00  -1.3457274340692826e-01 -1.7827950490520521e+00 0.0000000000000000e+00  -1.4267755164316373e-01 -1.7633778041261692e+00 0.0000000000000000e+00  -1.5089900361846043e-01 -1.7424694611532974e+00 0.0000000000000000e+00  -1.5924693946418944e-01 -1.7200498300497289e+00 0.0000000000000000e+00  -1.6777857264696619e-01 -1.6959859725964721e+00 0.0000000000000000e+00  -1.7649284701938070e-01 -1.6701373657740035e+00 0.0000000000000000e+00  -1.8544105997742377e-01 -1.6424226065115930e+00 0.0000000000000000e+00  -1.9454563257071417e-01 -1.6126634752837055e+00 0.0000000000000000e+00  -2.0363385639085793e-01 -1.5805157762742095e+00 0.0000000000000000e+00  -2.1320183879764290e-01 -1.5461923184111024e+00 0.0000000000000000e+00  -2.2307858559640686e-01 -1.5089450084205742e+00 0.0000000000000000e+00  -2.3317950223013145e-01 -1.4686126574763507e+00 0.0000000000000000e+00  -2.4336406906669353e-01 -1.4246050010678135e+00 0.0000000000000000e+00  -2.5347946616055073e-01 -1.3761577885255734e+00 0.0000000000000000e+00  -2.6446310525455902e-01 -1.3231953060630703e+00 0.0000000000000000e+00  -2.7477903981388679e-01 -1.2632174042832951e+00 0.0000000000000000e+00  -2.8397599878055985e-01 -1.1955535419206293e+00 0.0000000000000000e+00  -2.9513710709432328e-01 -1.1181734665728391e+00 0.0000000000000000e+00  -3.0836596958829093e-01 -1.0303193191280986e+00 0.0000000000000000e+00  -3.2320815097098843e-01 -9.2394025227086596e-01 0.0000000000000000e+00  -3.3751864761141809e-01 -7.9099238674886341e-01 0.0000000000000000e+00  -3.5426491818642919e-01 -5.9318981464513232e-01 0.0000000000000000e+00  1.1833863689102046e-04 4.1528962842493573e-05 0.0000000000000000e+00  2.3680727625628587e-04 4.1579065441662590e-05 0.0000000000000000e+00  3.5553493179168338e-04 4.1676183912144864e-05 0.0000000000000000e+00  4.7465417099149904e-04 4.1847255212418684e-05 0.0000000000000000e+00  5.9429293164187037e-04 4.2123805089233022e-05 0.0000000000000000e+00  7.1459696405291808e-04 4.2556535524534518e-05 0.0000000000000000e+00  8.3567695349958250e-04 4.3196786692526421e-05 0.0000000000000000e+00  9.5768368337788453e-04 4.4115948954532108e-05 0.0000000000000000e+00  1.0807473679001573e-03 4.5396474547886782e-05 0.0000000000000000e+00  1.2050089521473788e-03 4.7136571311524948e-05 0.0000000000000000e+00  1.3306030537025735e-03 4.9446553767509821e-05 0.0000000000000000e+00  1.4576732663328046e-03 5.2459702557717759e-05 0.0000000000000000e+00  1.5863552354269104e-03 5.6329076011383151e-05 0.0000000000000000e+00  1.7167914060856604e-03 6.1233061690923882e-05 0.0000000000000000e+00  1.8491201800480339e-03 6.7380236931695694e-05 0.0000000000000000e+00  1.9834720650667272e-03 7.5014362275729472e-05 0.0000000000000000e+00  2.1199691439083125e-03 8.4413797155935154e-05 0.0000000000000000e+00  2.2588226462742821e-03 9.5936092875490689e-05 0.0000000000000000e+00  2.4192353414078656e-03 1.2810973802534147e-04 0.0000000000000000e+00  2.6758974058820359e-03 2.5282319410300266e-04 0.0000000000000000e+00  3.3651244871857598e-03 8.0991008213428532e-04 0.0000000000000000e+00  4.8164577708385168e-03 2.1153546119887312e-03 0.0000000000000000e+00  7.3314290945709027e-03 4.4792531252239188e-03 0.0000000000000000e+00  1.1576684540155369e-02 8.5488314924937678e-03 0.0000000000000000e+00  1.7610351107529475e-02 1.4418919414901889e-02 0.0000000000000000e+00  2.5731899789512500e-02 2.2308701042579010e-02 0.0000000000000000e+00  3.6066168360153764e-02 3.2288198642503950e-02 0.0000000000000000e+00  4.8763683431003242e-02 4.4701017414056840e-02 0.0000000000000000e+00  6.3641105685751043e-02 5.9183212745684860e-02 0.0000000000000000e+00  8.0808383638723419e-02 7.5751236641908054e-02 0.0000000000000000e+00  1.0003118814475799e-01 9.4309425211064307e-02 0.0000000000000000e+00  1.2123827297404266e-01 1.1476752907493012e-01 0.0000000000000000e+00  1.4427407256382824e-01 1.3694787252521226e-01 0.0000000000000000e+00  1.6923472033263182e-01 1.6090396654991745e-01 0.0000000000000000e+00  1.9592831889609200e-01 1.8644335940110662e-01 0.0000000000000000e+00  2.2442096412983720e-01 2.1356370800419980e-01 0.0000000000000000e+00  2.5455839269901259e-01 2.4230268363942936e-01 0.0000000000000000e+00  2.8635525121806760e-01 2.7263761417596677e-01 0.0000000000000000e+00  3.1962860588557063e-01 3.0428287255659997e-01 0.0000000000000000e+00  3.5406220784350884e-01 3.3694297407059931e-01 0.0000000000000000e+00  3.8931332415396769e-01 3.7053526966761380e-01 0.0000000000000000e+00  4.2521549679798409e-01 4.0486692648760270e-01 0.0000000000000000e+00  4.6130104721482945e-01 4.3944629776840216e-01 0.0000000000000000e+00  4.9720562431903093e-01 4.7426492936360815e-01 0.0000000000000000e+00  5.3193489278103578e-01 5.0883723570591477e-01 0.0000000000000000e+00  5.6412822809423580e-01 5.4277345405388600e-01 0.0000000000000000e+00  5.9268628996664030e-01 5.7608000692071293e-01 0.0000000000000000e+00  6.1623085411235146e-01 6.0776371798713413e-01 0.0000000000000000e+00  6.3303887533175163e-01 6.3638561282747408e-01 0.0000000000000000e+00  6.4337834699864571e-01 6.6092513387980445e-01 0.0000000000000000e+00  6.4659167013003416e-01 6.8033238416057040e-01 0.0000000000000000e+00  6.4594808733994580e-01 6.9301662569749956e-01 0.0000000000000000e+00  6.4364518654832548e-01 6.9495445125700395e-01 0.0000000000000000e+00  6.4028236833967866e-01 6.8371907081884220e-01 0.0000000000000000e+00  6.3439958045877232e-01 6.5690328937528686e-01 0.0000000000000000e+00  6.2372246608732196e-01 6.0773205426398103e-01 0.0000000000000000e+00  6.0751803361918399e-01 5.2414512548699865e-01 0.0000000000000000e+00  5.6261670993932755e-01 3.6067872999966133e-01 0.0000000000000000e+00  0.0000000000000000e+00 -1.1322310705572393e-04 0.0000000000000000e+00  0.0000000000000000e+00 -2.1744905430938564e-04 0.0000000000000000e+00  0.0000000000000000e+00 -3.1329099574584546e-04 0.0000000000000000e+00  0.0000000000000000e+00 -4.0126109575849058e-04 0.0000000000000000e+00  0.0000000000000000e+00 -4.8175280344635291e-04 0.0000000000000000e+00  0.0000000000000000e+00 -5.5507830991522041e-04 0.0000000000000000e+00  0.0000000000000000e+00 -6.2149083763219173e-04 0.0000000000000000e+00  0.0000000000000000e+00 -6.8119798938831252e-04 0.0000000000000000e+00  0.0000000000000000e+00 -7.3434900697182657e-04 0.0000000000000000e+00  0.0000000000000000e+00 -7.8111076589488777e-04 0.0000000000000000e+00  0.0000000000000000e+00 -8.2160365293225878e-04 0.0000000000000000e+00  0.0000000000000000e+00 -8.5595155298523961e-04 0.0000000000000000e+00  0.0000000000000000e+00 -8.8427365331425749e-04 0.0000000000000000e+00  0.0000000000000000e+00 -9.0668087261124963e-04 0.0000000000000000e+00  0.0000000000000000e+00 -9.2327900092381197e-04 0.0000000000000000e+00  0.0000000000000000e+00 -9.3416980290257385e-04 0.0000000000000000e+00  0.0000000000000000e+00 -9.3945186993579354e-04 0.0000000000000000e+00  0.0000000000000000e+00 -9.3921550905464357e-04 0.0000000000000000e+00  0.0000000000000000e+00 -9.3354946471889638e-04 0.0000000000000000e+00  0.0000000000000000e+00 -9.2253937188987306e-04 0.0000000000000000e+00  0.0000000000000000e+00 -9.0627653761812463e-04 0.0000000000000000e+00  0.0000000000000000e+00 -8.8486180810704940e-04 0.0000000000000000e+00  0.0000000000000000e+00 -8.5840698006121581e-04 0.0000000000000000e+00  0.0000000000000000e+00 -8.2705244048009380e-04 0.0000000000000000e+00  0.0000000000000000e+00 -7.9095699577419671e-04 0.0000000000000000e+00  0.0000000000000000e+00 -7.5031449349463619e-04 0.0000000000000000e+00  0.0000000000000000e+00 -7.0535400081851696e-04 0.0000000000000000e+00  0.0000000000000000e+00 -6.5633956679701300e-04 0.0000000000000000e+00  0.0000000000000000e+00 -6.0357272184645243e-04 0.0000000000000000e+00  0.0000000000000000e+00 -5.4739068887664554e-04 0.0000000000000000e+00  0.0000000000000000e+00 -4.8816576836318188e-04 0.0000000000000000e+00  0.0000000000000000e+00 -4.2630078253807759e-04 0.0000000000000000e+00  0.0000000000000000e+00 -3.6222741059736612e-04 0.0000000000000000e+00  0.0000000000000000e+00 -2.9640546409691066e-04 0.0000000000000000e+00  0.0000000000000000e+00 -2.2931710019511762e-04 0.0000000000000000e+00  0.0000000000000000e+00 -1.6146643406511735e-04 0.0000000000000000e+00  0.0000000000000000e+00 -9.3356248895725189e-05 0.0000000000000000e+00  0.0000000000000000e+00 -2.5523665283131278e-05 0.0000000000000000e+00  0.0000000000000000e+00 0.0000000000000000e+00 0.0000000000000000e+00  0.0000000000000000e+00 0.0000000000000000e+00 0.0000000000000000e+00  0.0000000000000000e+00 0.0000000000000000e+00 0.0000000000000000e+00  0.0000000000000000e+00 0.0000000000000000e+00 0.0000000000000000e+00  0.0000000000000000e+00 0.0000000000000000e+00 0.0000000000000000e+00  0.0000000000000000e+00 0.0000000000000000e+00 0.0000000000000000e+00  0.0000000000000000e+00 0.0000000000000000e+00 0.0000000000000000e+00  0.0000000000000000e+00 0.0000000000000000e+00 0.0000000000000000e+00  0.0000000000000000e+00 0.0000000000000000e+00 0.0000000000000000e+00  0.0000000000000000e+00 0.0000000000000000e+00 0.0000000000000000e+00  0.0000000000000000e+00 0.0000000000000000e+00 0.0000000000000000e+00  0.0000000000000000e+00 0.0000000000000000e+00 0.0000000000000000e+00  0.0000000000000000e+00 0.0000000000000000e+00 0.0000000000000000e+00  0.0000000000000000e+00 0.0000000000000000e+00 0.0000000000000000e+00  0.0000000000000000e+00 0.0000000000000000e+00 0.0000000000000000e+00  0.0000000000000000e+00 0.0000000000000000e+00 0.0000000000000000e+00  0.0000000000000000e+00 0.0000000000000000e+00 0.0000000000000000e+00  0.0000000000000000e+00 0.0000000000000000e+00 0.0000000000000000e+00  0.0000000000000000e+00 -2.7417060253176043e-05 0.0000000000000000e+00  0.0000000000000000e+00 -9.5612026794358526e-05 0.0000000000000000e+00  0.0000000000000000e+00 -1.6406356383073066e-04 0.0000000000000000e+00  0.0000000000000000e+00 -2.3220464554423275e-04 0.0000000000000000e+00  0.0000000000000000e+00 -2.9953508520152533e-04 0.0000000000000000e+00  0.0000000000000000e+00 -3.6554054974366213e-04 0.0000000000000000e+00  0.0000000000000000e+00 -4.2973699333127846e-04 0.0000000000000000e+00  0.0000000000000000e+00 -4.9166569780981705e-04 0.0000000000000000e+00  0.0000000000000000e+00 -5.5089669645486377e-04 0.0000000000000000e+00  0.0000000000000000e+00 -6.0702986080331083e-04 0.0000000000000000e+00  0.0000000000000000e+00 -6.5970029571806965e-04 0.0000000000000000e+00  0.0000000000000000e+00 -7.0857578485084656e-04 0.0000000000000000e+00  0.0000000000000000e+00 -7.5336418564262125e-04 0.0000000000000000e+00  0.0000000000000000e+00 -7.9380727457429602e-04 0.0000000000000000e+00  0.0000000000000000e+00 -8.2968375654654026e-04 0.0000000000000000e+00  0.0000000000000000e+00 -8.6080838409520574e-04 0.0000000000000000e+00  0.0000000000000000e+00 -8.8702269914837169e-04 0.0000000000000000e+00  0.0000000000000000e+00 -9.0819255126398687e-04 0.0000000000000000e+00  0.0000000000000000e+00 -9.2420803283205103e-04 0.0000000000000000e+00  0.0000000000000000e+00 -9.3496884752443193e-04 0.0000000000000000e+00  0.0000000000000000e+00 -9.4038469086909560e-04 0.0000000000000000e+00  0.0000000000000000e+00 -9.4036723885383613e-04 0.0000000000000000e+00  0.0000000000000000e+00 -9.3482743463216213e-04 0.0000000000000000e+00  0.0000000000000000e+00 -9.2367388835482153e-04 0.0000000000000000e+00  0.0000000000000000e+00 -9.0681121896