<?xml version="1.0"?>
<VTKFile type="UnstructuredGrid"  version="0.1"  >
<UnstructuredGrid>
<Piece  NumberOfPoints="3167" NumberOfCells="6038">
<Points>
<DataArray  type="Float64"  NumberOfComponents="3"  format="ascii">2.2 2.9 0  0 2.9 0  2.8 2.9 0  5 2.9 0  5 0 0  0 0 0  2.16271186440678 2.9 0  2.125423728813559 2.9 0  2.088135593220339 2.9 0  2.050847457627119 2.9 0  2.013559322033898 2.9 0  1.976271186440678 2.9 0  1.938983050847457 2.9 0  1.901694915254237 2.9 0  1.864406779661016 2.9 0  1.827118644067796 2.9 0  1.789830508474575 2.9 0  1.752542372881355 2.9 0  1.715254237288134 2.9 0  1.677966101694914 2.9 0  1.640677966101693 2.9 0  1.603389830508473 2.9 0  1.566101694915253 2.9 0  1.528813559322032 2.9 0  1.491525423728812 2.9 0  1.454237288135591 2.9 0  1.416949152542371 2.9 0  1.37966101694915 2.9 0  1.34237288135593 2.9 0  1.305084745762709 2.9 0  1.267796610169489 2.9 0  1.230508474576268 2.9 0  1.193220338983048 2.9 0  1.155932203389827 2.9 0  1.118644067796607 2.9 0  1.081355932203387 2.9 0  1.044067796610166 2.9 0  1.006779661016946 2.9 0  0.9694915254237257 2.9 0  0.9322033898305055 2.9 0  0.8949152542372856 2.9 0  0.8576271186440652 2.9 0  0.820338983050845 2.9 0  0.783050847457625 2.9 0  0.7457627118644048 2.9 0  0.7084745762711844 2.9 0  0.6711864406779642 2.9 0  0.633898305084744 2.9 0  0.5966101694915238 2.9 0  0.5593220338983036 2.9 0  0.5220338983050834 2.9 0  0.4847457627118632 2.9 0  0.447457627118643 2.9 0  0.4101694915254228 2.9 0  0.3728813559322024 2.9 0  0.3355932203389822 2.9 0  0.2983050847457622 2.9 0  0.2610169491525418 2.9 0  0.2237288135593216 2.9 0  0.1864406779661016 2.9 0  0.1491525423728812 2.9 0  0.1118644067796613 2.9 0  0.07457627118644039 2.9 0  0.03728813559321997 2.9 0  2.792405063291139 2.9 0  2.784810126582279 2.9 0  2.777215189873418 2.9 0  2.769620253164557 2.9 0  2.762025316455697 2.9 0  2.754430379746836 2.9 0  2.746835443037975 2.9 0  2.739240506329114 2.9 0  2.731645569620254 2.9 0  2.724050632911393 2.9 0  2.716455696202532 2.9 0  2.708860759493671 2.9 0  2.701265822784811 2.9 0  2.69367088607595 2.9 0  2.686075949367089 2.9 0  2.678481012658228 2.9 0  2.670886075949368 2.9 0  2.663291139240507 2.9 0  2.655696202531646 2.9 0  2.648101265822786 2.9 0  2.640506329113925 2.9 0  2.632911392405064 2.9 0  2.625316455696203 2.9 0  2.617721518987342 2.9 0  2.610126582278482 2.9 0  2.602531645569621 2.9 0  2.59493670886076 2.9 0  2.587341772151899 2.9 0  2.579746835443038 2.9 0  2.572151898734178 2.9 0  2.564556962025317 2.9 0  2.556962025316456 2.9 0  2.549367088607595 2.9 0  2.541772151898734 2.9 0  2.534177215189874 2.9 0  2.526582278481013 2.9 0  2.518987341772152 2.9 0  2.511392405063292 2.9 0  2.503797468354431 2.9 0  2.49620253164557 2.9 0  2.488607594936709 2.9 0  2.481012658227848 2.9 0  2.473417721518988 2.9 0  2.465822784810127 2.9 0  2.458227848101266 2.9 0  2.450632911392406 2.9 0  2.443037974683545 2.9 0  2.435443037974684 2.9 0  2.427848101265823 2.9 0  2.420253164556962 2.9 0  2.412658227848102 2.9 0  2.405063291139241 2.9 0  2.39746835443038 2.9 0  2.389873417721519 2.9 0  2.382278481012658 2.9 0  2.374683544303798 2.9 0  2.367088607594937 2.9 0  2.359493670886076 2.9 0  2.351898734177215 2.9 0  2.344303797468355 2.9 0  2.336708860759494 2.9 0  2.329113924050633 2.9 0  2.321518987341773 2.9 0  2.313924050632912 2.9 0  2.306329113924051 2.9 0  2.29873417721519 2.9 0  2.291139240506329 2.9 0  2.283544303797469 2.9 0  2.275949367088608 2.9 0  2.268354430379747 2.9 0  2.260759493670887 2.9 0  2.253164556962026 2.9 0  2.245569620253165 2.9 0  2.237974683544304 2.9 0  2.230379746835443 2.9 0  2.222784810126583 2.9 0  2.215189873417722 2.9 0  2.207594936708861 2.9 0  4.96271186440678 2.9 0  4.925423728813559 2.9 0  4.888135593220339 2.9 0  4.850847457627118 2.9 0  4.813559322033898 2.9 0  4.776271186440677 2.9 0  4.738983050847457 2.9 0  4.701694915254237 2.9 0  4.664406779661016 2.9 0  4.627118644067796 2.9 0  4.589830508474575 2.9 0  4.552542372881355 2.9 0  4.515254237288135 2.9 0  4.477966101694914 2.9 0  4.440677966101694 2.9 0  4.403389830508473 2.9 0  4.366101694915252 2.9 0  4.328813559322032 2.9 0  4.291525423728811 2.9 0  4.254237288135591 2.9 0  4.21694915254237 2.9 0  4.17966101694915 2.9 0  4.14237288135593 2.9 0  4.105084745762709 2.9 0  4.067796610169489 2.9 0  4.030508474576268 2.9 0  3.993220338983048 2.9 0  3.955932203389827 2.9 0  3.918644067796607 2.9 0  3.881355932203387 2.9 0  3.844067796610166 2.9 0  3.806779661016946 2.9 0  3.769491525423725 2.9 0  3.732203389830505 2.9 0  3.694915254237285 2.9 0  3.657627118644065 2.9 0  3.620338983050845 2.9 0  3.583050847457625 2.9 0  3.545762711864405 2.9 0  3.508474576271184 2.9 0  3.471186440677964 2.9 0  3.433898305084744 2.9 0  3.396610169491524 2.9 0  3.359322033898303 2.9 0  3.322033898305083 2.9 0  3.284745762711863 2.9 0  3.247457627118643 2.9 0  3.210169491525423 2.9 0  3.172881355932202 2.9 0  3.135593220338982 2.9 0  3.098305084745762 2.9 0  3.061016949152542 2.9 0  3.023728813559321 2.9 0  2.986440677966101 2.9 0  2.949152542372881 2.9 0  2.911864406779661 2.9 0  2.87457627118644 2.9 0  2.83728813559322 2.9 0  5 0.1063822625082082 0  5 0.210636880010749 0  5 0.3128064053694972 0  5 0.4129325400644018 0  5 0.5110561521032336 0  5 0.6072172918830103 0  5 0.7014552087832795 0  5 0.7938083674443693 0  5 0.88431446261646 0  5 0.9730104359544682 0  5 1.059932489996267 0  5 1.145116102913299 0  5 1.228596043483191 0  5 1.310406385079062 0  5 1.390580519944147 0  5 1.469151172477827 0  5 1.546150411986101 0  5 1.621609666658609 0  5 1.695559736099044 0  5 1.76803080383987 0  5 1.839052450169751 0  5 1.908653663631169 0  5 1.97686285289587 0  5 2.043707858613779 0  5 2.109215964341413 0  5 2.173413907925942 0  5 2.236327892833935 0  5 2.297983597762904 0  5 2.35840618845912 0  5 2.41762032730194 0  5 2.475650183444628 0  5 2.532519442457069 0  5 2.588251316112828 0  5 2.642868552557322 0  5 2.696393444426347 0  5 2.748847838312051 0  5 2.800253144313381 0  5 2.850630344319807 0  0.2631578947368421 0 0  0.5263157894736842 0 0  0.7894736842105263 0 0  1.052631578947368 0 0  1.31578947368421 0 0  1.578947368421053 0 0  1.842105263157895 0 0  2.105263157894737 0 0  2.368421052631579 0 0  2.631578947368421 0 0  2.894736842105263 0 0  3.157894736842105 0 0  3.421052631578947 0 0  3.684210526315789 0 0  3.947368421052632 0 0  4.210526315789473 0 0  4.473684210526315 0 0  4.736842105263158 0 0  0 2.850203682350569 0  0 2.799411438503675 0  0 2.747603349778291 0  0 2.694759099502208 0  0 2.640857964382145 0  0 2.58587880633613 0  0 2.52980006535898 0  0 2.472599749459174 0  0 2.414255427218689 0  0 2.35474421880616 0  0 2.294042786119219 0  0 2.232127324764723 0  0 2.1689735539481 0  0 2.104556707683347 0  0 2.038851524813415 0  0 1.971832238155655 0  0 1.903472565412126 0  0 1.83374569926617 0  0 1.762624296208475 0  0 1.690080464918761 0  0 1.616085756774206 0  0 1.540611154706337 0  0 1.463627060685571 0  0 1.385103284916206 0  0 1.305009033716617 0  0 1.223312897337225 0  0 1.139982838163732 0  0 1.054986177579938 0  0 0.9682895835804817 0  0 0.8798590579197976 0  0 0.7896599218415354 0  0 0.6976568029903638 0  0 0.6038136217958798 0  0 0.508093576867624 0  0 0.4104591310957497 0  0 0.3108719963522191 0  0 0.2092931188294389 0  0 0.1056826638508546 0  1.434832105763824 2.866945754981483 0  1.737156300467626 2.870039440267515 0  2.032203389830508 2.867707527316512 0  2.332911392405064 2.893422591869991 0  2.469810913293406 2.891944186606167 0  2.606221408823969 2.892519154985628 0  2.255455320628894 2.892068685006691 0  2.538247299216212 2.894964578182811 0  2.674683544303798 2.893422591869991 0  2.40126582278481 2.893422591869991 0  3.566125247295424 2.865029336199714 0  3.266101694915253 2.867707527316512 0  2.967796610169491 2.867707527316512 0  1.174288529834642 2.870795313888584 0  3.825423728813556 2.867707527316512 0  2.727766680262011 2.892655387647729 0  0.06601655192030442 1.502119107695954 0  4.933983535508361 1.507650792231964 0  0.9532124728485543 2.868722489783638 0  4.048935912500257 2.870640982995992 0  0.05930163367361763 1.866907161167414 0  4.943402512618553 1.871280731473148 0  4.271733870017743 2.86520865624265 0  0.7249420921613114 2.863922936177041 0  0.05494499779910056 2.196469063120752 0  4.947228695426367 2.208030108792719 0  0.5406152150397161 2.866493807382013 0  4.459322033898304 2.868847558178794 0  2.18135593220339 2.875780645487384 0  2.817027156509632 2.876587550645167 0  4.928427208322876 1.186856073198245 0  0.07189226971603224 1.174626666111662 0  4.610299014423113 2.867003104093161 0  0.3897270066746357 2.869433095314657 0  1.581132500042262 2.868247328632392 0  1.887637879411437 2.869235851794358 0  3.413449426418068 2.867372048034327 0  3.116721298814773 2.865731235547652 0  2.644303797468355 2.893422591869991 0  2.370983221828106 2.892719513369796 0  2.302531645569621 2.893336787387268 0  2.758987341772152 2.894242393897099 0  0.04979653335696277 2.443411216910286 0  4.950470983477169 2.446866954595817 0  2.482937483021586 0.2513241087417575 0  1.707129504814338 0.1999998659920923 0  3.28584657955054 0.229200625631625 0  4.907807122600524 0.834082362900164 0  4.757627118644067 2.867707527316512 0  0.0773489124676745 0.8347594898806663 0  0.2390604736599387 2.861365431805741 0  0.8363213715215729 2.863896768908178 0  4.160865610207075 2.868916854015731 0  1.282549332053297 2.867610952980761 0  1.065094818402487 2.861284686038041 0  3.93818127737282 2.86865134411395 0  3.711492629432973 2.863574306925269 0  4.91369361998929 0.5579891344254361 0  0.08208328472281323 0.5559535993317519 0  2.696596932532885 2.892010483922337 0  0.04706410140274553 2.613055974506516 0  4.955577063972248 2.616518038840186 0  2.234177215189874 2.893422591869991 0  2.279795840559739 2.89403861893984 0  0.9117357887652362 0.2117925286661764 0  4.055948041993057 0.2039101057937727 0  4.872119713780579 2.867632926423075 0  2.780113878992455 2.891535929611743 0  0.1327442468251063 2.85
[...]
<PointData  Vectors="displacement"> 
<DataArray  type="Float64"  Name="displacement"  NumberOfComponents="3" format="ascii">-2.0137955515731534e-01 -1.5006918093893203e-02 0.0000000000000000e+00  0.0000000000000000e+00 -2.1785668929386628e-04 0.0000000000000000e+00  2.0018889834910522e-01 -1.8507751472221678e-02 0.0000000000000000e+00  0.0000000000000000e+00 -2.1804469803826161e-04 0.0000000000000000e+00  0.0000000000000000e+00 0.0000000000000000e+00 0.0000000000000000e+00  0.0000000000000000e+00 0.0000000000000000e+00 0.0000000000000000e+00  -2.4275012678007160e-01 1.9401309865454078e-01 0.0000000000000000e+00  -2.5043694830438984e-01 2.3711537221316584e-01 0.0000000000000000e+00  -2.5378206904781125e-01 2.5763392625630721e-01 0.0000000000000000e+00  -2.5575231189698766e-01 2.6793581532354577e-01 0.0000000000000000e+00  -2.5672240287815196e-01 2.7196806573335824e-01 0.0000000000000000e+00  -2.5726298716425589e-01 2.7193908236812642e-01 0.0000000000000000e+00  -2.5748335502160824e-01 2.6814453619884754e-01 0.0000000000000000e+00  -2.5719344671872596e-01 2.6052051375314961e-01 0.0000000000000000e+00  -2.5365753887835180e-01 2.4970772131934565e-01 0.0000000000000000e+00  -2.4388363581300604e-01 2.3666265586700694e-01 0.0000000000000000e+00  -2.2916550330617177e-01 2.2086128904572516e-01 0.0000000000000000e+00  -2.1178290090341673e-01 2.0326185282694623e-01 0.0000000000000000e+00  -1.9287083634325181e-01 1.8449429695465644e-01 0.0000000000000000e+00  -1.7283462655291310e-01 1.6474823577638709e-01 0.0000000000000000e+00  -1.5257358800403722e-01 1.4494726257663976e-01 0.0000000000000000e+00  -1.3260831651256025e-01 1.2541300125298041e-01 0.0000000000000000e+00  -1.1331428872281241e-01 1.0664023558004306e-01 0.0000000000000000e+00  -9.5035525374188315e-02 8.8871982301073224e-02 0.0000000000000000e+00  -7.7971624415614893e-02 7.2259564387553321e-02 0.0000000000000000e+00  -6.2195575312438342e-02 5.6952412523781817e-02 0.0000000000000000e+00  -4.8072886837793594e-02 4.3183582004188648e-02 0.0000000000000000e+00  -3.5822251044472356e-02 3.1180016950333938e-02 0.0000000000000000e+00  -2.5613881020402081e-02 2.1292652382511622e-02 0.0000000000000000e+00  -1.7389071556963002e-02 1.3238378440042938e-02 0.0000000000000000e+00  -1.1547780687402833e-02 7.5011268620293510e-03 0.0000000000000000e+00  -7.4696931879215970e-03 3.6314206304975350e-03 0.0000000000000000e+00  -5.2001486919615080e-03 1.4785949252931873e-03 0.0000000000000000e+00  -3.8665325972882998e-03 2.8763492179967559e-04 0.0000000000000000e+00  -3.3336128268198779e-03 -1.1881929672652646e-04 0.0000000000000000e+00  -3.0797676761083860e-03 -2.4775754142558268e-04 0.0000000000000000e+00  -2.9347370428294971e-03 -2.6938951154632372e-04 0.0000000000000000e+00  -2.7978860507091937e-03 -2.8195883577492915e-04 0.0000000000000000e+00  -2.6648546720548357e-03 -2.9086224188058183e-04 0.0000000000000000e+00  -2.5354372047973329e-03 -2.9675470032981745e-04 0.0000000000000000e+00  -2.4094657254358880e-03 -3.0014773638803861e-04 0.0000000000000000e+00  -2.2867545919868022e-03 -3.0147833120635140e-04 0.0000000000000000e+00  -2.1671103851551004e-03 -3.0111269851492404e-04 0.0000000000000000e+00  -2.0503745137585897e-03 -2.9934949503977558e-04 0.0000000000000000e+00  -1.9363591979256523e-03 -2.9646147617418670e-04 0.0000000000000000e+00  -1.8248988124434475e-03 -2.9267896151420641e-04 0.0000000000000000e+00  -1.7158271397980113e-03 -2.8820330474212325e-04 0.0000000000000000e+00  -1.6089894729718387e-03 -2.8321304555935451e-04 0.0000000000000000e+00  -1.5042210541308433e-03 -2.7786451496423701e-04 0.0000000000000000e+00  -1.4013774248943869e-03 -2.7229379320009160e-04 0.0000000000000000e+00  -1.3003092949295761e-03 -2.6662418395017240e-04 0.0000000000000000e+00  -1.2008787274177385e-03 -2.6096113938889841e-04 0.0000000000000000e+00  -1.1029472139984032e-03 -2.5539794410485965e-04 0.0000000000000000e+00  -1.0063853051042674e-03 -2.5001692400475930e-04 0.0000000000000000e+00  -9.1106089097048684e-04 -2.4489120015693130e-04 0.0000000000000000e+00  -8.1685035440501655e-04 -2.4008330374369313e-04 0.0000000000000000e+00  -7.2364141351856349e-04 -2.3564619277516947e-04 0.0000000000000000e+00  -6.3129731746949097e-04 -2.3162726535775951e-04 0.0000000000000000e+00  -5.3971474775483955e-04 -2.2807016171609576e-04 0.0000000000000000e+00  -4.4878393633932581e-04 -2.2500462640826977e-04 0.0000000000000000e+00  -3.5839502061364747e-04 -2.2245977401534489e-04 0.0000000000000000e+00  -2.6841954568567557e-04 -2.2045712171353318e-04 0.0000000000000000e+00  -1.7876738748209234e-04 -2.1901638174603706e-04 0.0000000000000000e+00  -8.9329222262113511e-05 -2.1814688505796174e-04 0.0000000000000000e+00  1.5602786126847293e-01 -2.0485275775785652e-01 0.0000000000000000e+00  1.5230382063206371e-01 -2.8663805684249344e-01 0.0000000000000000e+00  1.4912909896738355e-01 -3.3595646992257794e-01 0.0000000000000000e+00  1.4447875812989638e-01 -3.7153493916867586e-01 0.0000000000000000e+00  1.4025460675800905e-01 -4.0009620020135911e-01 0.0000000000000000e+00  1.3406396979066412e-01 -4.2265666023999426e-01 0.0000000000000000e+00  1.2817655405650408e-01 -4.4294448939078646e-01 0.0000000000000000e+00  1.2332149938620440e-01 -4.6125874750782209e-01 0.0000000000000000e+00  1.1784772219760863e-01 -4.7704033274084562e-01 0.0000000000000000e+00  1.1271144120697310e-01 -4.9153632440918144e-01 0.0000000000000000e+00  1.0798894124649670e-01 -5.0499382214798838e-01 0.0000000000000000e+00  1.0318672691606973e-01 -5.1712886380701084e-01 0.0000000000000000e+00  9.8518698360848075e-02 -5.2830250141069834e-01 0.0000000000000000e+00  9.4008843659627361e-02 -5.3877753784048132e-01 0.0000000000000000e+00  8.9788283837432453e-02 -5.4867304280304652e-01 0.0000000000000000e+00  8.5672546279383838e-02 -5.5790835321711885e-01 0.0000000000000000e+00  8.1534303347789841e-02 -5.6641188550193700e-01 0.0000000000000000e+00  7.7422408731649239e-02 -5.7431901807953545e-01 0.0000000000000000e+00  7.3361286605131637e-02 -5.8171085217383234e-01 0.0000000000000000e+00  6.9403789895967238e-02 -5.8864644937106547e-01 0.0000000000000000e+00  6.5531133607242470e-02 -5.9514200638087156e-01 0.0000000000000000e+00  6.1712071802772009e-02 -6.0121717400934616e-01 0.0000000000000000e+00  5.7966977180360306e-02 -6.0689373058480622e-01 0.0000000000000000e+00  5.4272661906367092e-02 -6.1217521041094636e-01 0.0000000000000000e+00  5.0619829604755445e-02 -6.1707218090348748e-01 0.0000000000000000e+00  4.7026205327984030e-02 -6.2160864716999387e-01 0.0000000000000000e+00  4.3466602953522032e-02 -6.2580619632471435e-01 0.0000000000000000e+00  3.9960707896765327e-02 -6.2966082934768763e-01 0.0000000000000000e+00  3.6488244923608706e-02 -6.3316540646806541e-01 0.0000000000000000e+00  3.3050845772117414e-02 -6.3631839934086476e-01 0.0000000000000000e+00  2.9641241328516199e-02 -6.3914690680132524e-01 0.0000000000000000e+00  2.6240118204547250e-02 -6.4165569929741328e-01 0.0000000000000000e+00  2.2825241826864205e-02 -6.4383601074089436e-01 0.0000000000000000e+00  1.9412317106450985e-02 -6.4568972106521838e-01 0.0000000000000000e+00  1.5986891201260685e-02 -6.4721639572120615e-01 0.0000000000000000e+00  1.2557849900874801e-02 -6.4842765318851703e-01 0.0000000000000000e+00  9.1282747528647033e-03 -6.4932734476680154e-01 0.0000000000000000e+00  5.6958238847567436e-03 -6.4991901907396465e-01 0.0000000000000000e+00  2.2656095745564602e-03 -6.5020021753283108e-01 0.0000000000000000e+00  -1.1640973104885145e-03 -6.5017094582387780e-01 0.0000000000000000e+00  -4.5908792270696235e-03 -6.4983693525990849e-01 0.0000000000000000e+00  -8.0174512480196986e-03 -6.4919606037438704e-01 0.0000000000000000e+00  -1.1440901833018850e-02 -6.4824896892944839e-01 0.0000000000000000e+00  -1.4857288449160372e-02 -6.4700161621648833e-01 0.0000000000000000e+00  -1.8283329268166514e-02 -6.4545957719545111e-01 0.0000000000000000e+00  -2.1725849408892002e-02 -6.4360704626284493e-01 0.0000000000000000e+00  -2.5184782292106016e-02 -6.4144026924211306e-01 0.0000000000000000e+00  -2.8649645713187854e-02 -6.3894793128471949e-01 0.0000000000000000e+00  -3.2119950761117774e-02 -6.3612287486499219e-01 0.0000000000000000e+00  -3.5601936618266466e-02 -6.3296292818770450e-01 0.0000000000000000e+00  -3.9104690765168745e-02 -6.2946979419606242e-01 0.0000000000000000e+00  -4.2624569128215502e-02 -6.2563407561486761e-01 0.0000000000000000e+00  -4.6175248955890036e-02 -6.2144603326661996e-01 0.0000000000000000e+00  -4.9769458612699748e-02 -6.1691471846018409e-01 0.0000000000000000e+00  -5.3411637442011647e-02 -6.1202898423289021e-01 0.0000000000000000e+00  -5.7095913467990929e-02 -6.0675931203323641e-01 0.0000000000000000e+00  -6.0820301733651584e-02 -6.0106616958406800e-01 0.0000000000000000e+00  -6.4594482050813515e-02 -5.9496530519014323e-01 0.0000000000000000e+00  -6.8446300070696298e-02 -5.8844979463407887e-01 0.0000000000000000e+00  -7.2407096254139200e-02 -5.8150051968938543e-01 0.0000000000000000e+00  -7.6456235837504549e-02 -5.7410066866962284e-01 0.0000000000000000e+00  -8.0596562596651433e-02 -5.6619461146865790e-01 0.0000000000000000e+00  -8.4863134119820827e-02 -5.5778685053219934e-01 0.0000000000000000e+00  -8.9145823501697710e-02 -5.4871265817196702e-01 0.0000000000000000e+00  -9.3442888068777055e-02 -5.3889217532142986e-01 0.0000000000000000e+00  -9.8019874036693114e-02 -5.2851469481065694e-01 0.0000000000000000e+00  -1.0265050138928473e-01 -5.1724103688230660e-01 0.0000000000000000e+00  -1.0740421975995321e-01 -5.0508999426837897e-01 0.0000000000000000e+00  -1.1235290707751297e-01 -4.9191077357654339e-01 0.0000000000000000e+00  -1.1744737351997647e-01 -4.7745339321424229e-01 0.0000000000000000e+00  -1.2303226972246788e-01 -4.6162594093624948e-01 0.0000000000000000e+00  -1.2799023868940013e-01 -4.4346648949547174e-01 0.0000000000000000e+00  -1.3285414086676087e-01 -4.2288082548824929e-01 0.0000000000000000e+00  -1.3744892575988357e-01 -3.9827542515402897e-01 0.0000000000000000e+00  -1.4262200343891238e-01 -3.6947326264627239e-01 0.0000000000000000e+00  -1.4722726916774131e-01 -3.3189500550827994e-01 0.0000000000000000e+00  -1.5349139808427276e-01 -2.8519690337548165e-01 0.0000000000000000e+00  -1.5860135683586796e-01 -2.0590925690621689e-01 0.0000000000000000e+00  8.9191111632387464e-05 -2.1833902494091325e-04 0.0000000000000000e+00  1.7848760996575050e-04 -2.1921371642393201e-04 0.0000000000000000e+00  2.6799418734739245e-04 -2.2066573215787259e-04 0.0000000000000000e+00  3.5781878210009149e-04 -2.2268106544970020e-04 0.0000000000000000e+00  4.4806574714560866e-04 -2.2524542364218755e-04 0.0000000000000000e+00  5.3885534690719208e-04 -2.2833250091187327e-04 0.0000000000000000e+00  6.3027863131800358e-04 -2.3191865768349104e-04 0.0000000000000000e+00  7.2246151293359347e-04 -2.3596884935240032e-04 0.0000000000000000e+00  8.1551385222227650e-04 -2.4044302948630710e-04 0.0000000000000000e+00  9.0955613170626119e-04 -2.4529361517332661e-04 0.0000000000000000e+00  1.0047051112613786e-03 -2.5046899325682976e-04 0.0000000000000000e+00  1.1010877604503391e-03 -2.5590565357143066e-04 0.0000000000000000e+00  1.1988265620364361e-03 -2.6153233894232470e-04 0.0000000000000000e+00  1.2980543160903239e-03 -2.6726779352763820e-04 0.0000000000000000e+00  1.3989062140594359e-03 -2.7301974343889491e-04 0.0000000000000000e+00  1.5015215922255501e-03 -2.7868328846539637e-04 0.0000000000000000e+00  1.6060416704851148e-03 -2.8413797109812515e-04 0.0000000000000000e+00  1.7126184629512981e-03 -2.8924710822381491e-04 0.0000000000000000e+00  1.8213978285134280e-03 -2.9386178656558060e-04 0.0000000000000000e+00  1.9325406610968831e-03 -2.9780375364132472e-04 0.0000000000000000e+00  2.0462145178478009e-03 -3.0088368658984899e-04 0.0000000000000000e+00  2.1625528140542961e-03 -3.0286948001945413e-04 0.0000000000000000e+00  2.2817549907772801e-03 -3.0350695552806329e-04 0.0000000000000000e+00  2.4039734979355415e-03 -3.0250315883389133e-04 0.0000000000000000e+00  2.5293767017215605e-03 -2.9951878424240401e-04 0.0000000000000000e+00  2.6581311320362923e-03 -2.9415653387535154e-04 0.0000000000000000e+00  2.7904035304177829e-03 -2.8594283552206773e-04 0.0000000000000000e+00  2.9263858663425525e-03 -2.7434190321434213e-04 0.0000000000000000e+00  3.0687760608898210e-03 -2.5581210796922434e-04 0.0000000000000000e+00  3.3025477586493897e-03 -1.4896599791539396e-04 0.0000000000000000e+00  3.8542865593741331e-03 2.7519015864153310e-04 0.0000000000000000e+00  5.2346979977155594e-03 1.5120827556504061e-03 0.0000000000000000e+00  7.6784373435263920e-03 3.8326907633037819e-03 0.0000000000000000e+00  1.1881722391754891e-02 7.8626090930303365e-03 0.0000000000000000e+00  1.7854306402529500e-02 1.3688668697355303e-02 0.0000000000000000e+00  2.6098716354936557e-02 2.1733314531484221e-02 0.0000000000000000e+00  3.6292419682847167e-02 3.1676816319807941e-02 0.0000000000000000e+00  4.8586637014454447e-02 4.3623369185400676e-02 0.0000000000000000e+00  6.2787990224493023e-02 5.7463382834825626e-02 0.0000000000000000e+00  7.8536488847200173e-02 7.2799881481702258e-02 0.0000000000000000e+00  9.5687537264840056e-02 8.9454084149318977e-02 0.0000000000000000e+00  1.1400637738195780e-01 1.0727990012945102e-01 0.0000000000000000e+00  1.3310798395649942e-01 1.2586091321220783e-01 0.0000000000000000e+00  1.5297577612651281e-01 1.4521590200504086e-01 0.0000000000000000e+00  1.7311329592018987e-01 1.6500764666673609e-01 0.0000000000000000e+00  1.9297805715071023e-01 1.8454686231802189e-01 0.0000000000000000e+00  2.1213420307372971e-01 2.0354600638784864e-01 0.0000000000000000e+00  2.2986258605637142e-01 2.2148111779633625e-01 0.0000000000000000e+00  2.4410661732099589e-01 2.3703420590417845e-01 0.0000000000000000e+00  2.5418422837495597e-01 2.5009248751307145e-01 0.0000000000000000e+00  2.5787215308115258e-01 2.6099558871926853e-01 0.0000000000000000e+00  2.5791386863483473e-01 2.6894989696875110e-01 0.0000000000000000e+00  2.5762640504728257e-01 2.7263169790927322e-01 0.0000000000000000e+00  2.5719938109847634e-01 2.7222597335599047e-01 0.0000000000000000e+00  2.5614174296835296e-01 2.6767902948245514e-01 0.0000000000000000e+00  2.5441704694309014e-01 2.5730640800112520e-01 0.0000000000000000e+00  2.5169035415551450e-01 2.3820717152621532e-01 0.0000000000000000e+00  2.4319143195383836e-01 1.9537656252144078e-01 0.0000000000000000e+00  0.0000000000000000e+00 -1.0245801410888945e-04 0.0000000000000000e+00  0.0000000000000000e+00 -1.9813048117429607e-04 0.0000000000000000e+00  0.0000000000000000e+00 -2.8741272222286389e-04 0.0000000000000000e+00  0.0000000000000000e+00 -3.7061851262858739e-04 0.0000000000000000e+00  0.0000000000000000e+00 -4.4797228717089388e-04 0.0000000000000000e+00  0.0000000000000000e+00 -5.1963308406862731e-04 0.0000000000000000e+00  0.0000000000000000e+00 -5.8571558874184792e-04 0.0000000000000000e+00  0.0000000000000000e+00 -6.4629939518919227e-04 0.0000000000000000e+00  0.0000000000000000e+00 -7.0140792492908235e-04 0.0000000000000000e+00  0.0000000000000000e+00 -7.5109224749768920e-04 0.0000000000000000e+00  0.0000000000000000e+00 -7.9535569368929825e-04 0.0000000000000000e+00  0.0000000000000000e+00 -8.3421049215430803e-04 0.0000000000000000e+00  0.0000000000000000e+00 -8.6767188249945869e-04 0.0000000000000000e+00  0.0000000000000000e+00 -8.9575360264138753e-04 0.0000000000000000e+00  0.0000000000000000e+00 -9.1847466456838835e-04 0.0000000000000000e+00  0.0000000000000000e+00 -9.3586412197266917e-04 0.0000000000000000e+00  0.0000000000000000e+00 -9.4796718815094304e-04 0.0000000000000000e+00  0.0000000000000000e+00 -9.5483517824110115e-04 0.0000000000000000e+00  0.0000000000000000e+00 -9.5653729513391235e-04 0.0000000000000000e+00  0.0000000000000000e+00 -9.5315599118178781e-04 0.0000000000000000e+00  0.0000000000000000e+00 -9.4479688975406841e-04 0.0000000000000000e+00  0.0000000000000000e+00 -9.3158749022011612e-04 0.0000000000000000e+00  0.0000000000000000e+00 -9.1367283895040635e-04 0.0000000000000000e+00  0.0000000000000000e+00 -8.9123491892928507e-04 0.0000000000000000e+00  0.0000000000000000e+00 -8.6447443975781811e-04 0.0000000000000000e+00  0.0000000000000000e+00 -8.3362553492919182e-04 0.0000000000000000e+00  0.0000000000000000e+00 -7.9895580035422100e-04 0.0000000000000000e+00  0.0000000000000000e+00 -7.6076099865662124e-04 0.0000000000000000e+00  0.0000000000000000e+00 -7.1936929569200298e-04 0.0000000000000000e+00  0.0000000000000000e+00 -6.7513732989058894e-04 0.0000000000000000e+00  0.0000000000000000e+00 -6.2844933528117088e-04 0.0000000000000000e+00  0.0000000000000000e+00 -5.7971147373670861e-04 0.0000000000000000e+00  0.0000000000000000e+00 -5.2934891265496193e-04 0.0000000000000000e+00  0.0000000000000000e+00 -4.7780327810803341e-04 0.0000000000000000e+00  0.0000000000000000e+00 -4.2552462732561587e-04 0.0000000000000000e+00  0.0000000000000000e+00 -3.7296868032159365e-04 0.0000000000000000e+00  0.0000000000000000e+00 -3.2057427618129480e-04 0.0000000000000000e+00  0.0000000000000000e+00 -2.6879423188776565e-04 0.0000000000000000e+00  0.0000000000000000e+00 0.0000000000000000e+00 0.0000000000000000e+00  0.0000000000000000e+00 0.0000000000000000e+00 0.0000000000000000e+00  0.0000000000000000e+00 0.0000000000000000e+00 0.0000000000000000e+00  0.0000000000000000e+00 0.0000000000000000e+00 0.0000000000000000e+00  0.0000000000000000e+00 0.0000000000000000e+00 0.0000000000000000e+00  0.0000000000000000e+00 0.0000000000000000e+00 0.0000000000000000e+00  0.0000000000000000e+00 0.0000000000000000e+00 0.0000000000000000e+00  0.0000000000000000e+00 0.0000000000000000e+00 0.0000000000000000e+00  0.0000000000000000e+00 0.0000000000000000e+00 0.0000000000000000e+00  0.0000000000000000e+00 0.0000000000000000e+00 0.0000000000000000e+00  0.0000000000000000e+00 0.0000000000000000e+00 0.0000000000000000e+00  0.0000000000000000e+00 0.0000000000000000e+00 0.0000000000000000e+00  0.0000000000000000e+00 0.0000000000000000e+00 0.0000000000000000e+00  0.0000000000000000e+00 0.0000000000000000e+00 0.0000000000000000e+00  0.0000000000000000e+00 0.0000000000000000e+00 0.0000000000000000e+00  0.0000000000000000e+00 0.0000000000000000e+00 0.0000000000000000e+00  0.0000000000000000e+00 0.0000000000000000e+00 0.0000000000000000e+00  0.0000000000000000e+00 0.0000000000000000e+00 0.0000000000000000e+00  0.0000000000000000e+00 -2.6912276533493193e-04 0.0000000000000000e+00  0.0000000000000000e+00 -3.2139642490736650e-04 0.0000000000000000e+00  0.0000000000000000e+00 -3.7426141426861315e-04 0.0000000000000000e+00  0.0000000000000000e+00 -4.2723557054798997e-04 0.0000000000000000e+00  0.0000000000000000e+00 -4.7987930418003452e-04 0.0000000000000000e+00  0.0000000000000000e+00 -5.3172392712311158e-04 0.0000000000000000e+00  0.0000000000000000e+00 -5.8231358532326706e-04 0.0000000000000000e+00  0.0000000000000000e+00 -6.3120390744501854e-04 0.0000000000000000e+00  0.0000000000000000e+00 -6.7796751911087107e-04 0.0000000000000000e+00  0.0000000000000000e+00 -7.2219722599149217e-04 0.0000000000000000e+00  0.0000000000000000e+00 -7.6351283489008604e-04 0.0000000000000000e+00  0.0000000000000000e+00 -8.0156037163336144e-04 0.0000000000000000e+00  0.0000000000000000e+00 -8.3601980639324441e-04 0.0000000000000000e+00  0.0000000000000000e+00 -8.6660062744305945e-04 0.0000000000000000e+00  0.0000000000000000e+00 -8.9304405832022306e-04 0.0000000000000000e+00  0.0000000000000000e+00 -9.1512677925681830e-04 0.0000000000000000e+00  0.0000000000000000e+00 -9.3265166498970691e-04 0.0000000000000000e+00  0.0000000000000000e+00 -9.4545199463572321e-04 0.0000000000000000e+00  0.0000000000000000e+00 -9.5338811490167129e-04 0.0000000000000000e+00  0.0000000000000000e+00 -9.5634210540783318e-04 0.0000000000000000e+00  0.0000000000000000e+00 -9.5422022342445101e-04 0.0000000000000000e+00  0.0000000000000000e+00 -9.4694506204773569e-04 0.0000000000000000e+00  0.0000000000000000e+00 -9.3445512878982998e-04 0.0000000000000000e+00  0.0000000000000000e+00 -9.1670436857182200e-0