<?xml version="1.0"?>
<VTKFile type="UnstructuredGrid"  version="0.1"  >
<UnstructuredGrid>
<Piece  NumberOfPoints="3167" NumberOfCells="6038">
<Points>
<DataArray  type="Float64"  NumberOfComponents="3"  format="ascii">2.2 2.9 0  0 2.9 0  2.8 2.9 0  5 2.9 0  5 0 0  0 0 0  2.16271186440678 2.9 0  2.125423728813559 2.9 0  2.088135593220339 2.9 0  2.050847457627119 2.9 0  2.013559322033898 2.9 0  1.976271186440678 2.9 0  1.938983050847457 2.9 0  1.901694915254237 2.9 0  1.864406779661016 2.9 0  1.827118644067796 2.9 0  1.789830508474575 2.9 0  1.752542372881355 2.9 0  1.715254237288134 2.9 0  1.677966101694914 2.9 0  1.640677966101693 2.9 0  1.603389830508473 2.9 0  1.566101694915253 2.9 0  1.528813559322032 2.9 0  1.491525423728812 2.9 0  1.454237288135591 2.9 0  1.416949152542371 2.9 0  1.37966101694915 2.9 0  1.34237288135593 2.9 0  1.305084745762709 2.9 0  1.267796610169489 2.9 0  1.230508474576268 2.9 0  1.193220338983048 2.9 0  1.155932203389827 2.9 0  1.118644067796607 2.9 0  1.081355932203387 2.9 0  1.044067796610166 2.9 0  1.006779661016946 2.9 0  0.9694915254237257 2.9 0  0.9322033898305055 2.9 0  0.8949152542372856 2.9 0  0.8576271186440652 2.9 0  0.820338983050845 2.9 0  0.783050847457625 2.9 0  0.7457627118644048 2.9 0  0.7084745762711844 2.9 0  0.6711864406779642 2.9 0  0.633898305084744 2.9 0  0.5966101694915238 2.9 0  0.5593220338983036 2.9 0  0.5220338983050834 2.9 0  0.4847457627118632 2.9 0  0.447457627118643 2.9 0  0.4101694915254228 2.9 0  0.3728813559322024 2.9 0  0.3355932203389822 2.9 0  0.2983050847457622 2.9 0  0.2610169491525418 2.9 0  0.2237288135593216 2.9 0  0.1864406779661016 2.9 0  0.1491525423728812 2.9 0  0.1118644067796613 2.9 0  0.07457627118644039 2.9 0  0.03728813559321997 2.9 0  2.792405063291139 2.9 0  2.784810126582279 2.9 0  2.777215189873418 2.9 0  2.769620253164557 2.9 0  2.762025316455697 2.9 0  2.754430379746836 2.9 0  2.746835443037975 2.9 0  2.739240506329114 2.9 0  2.731645569620254 2.9 0  2.724050632911393 2.9 0  2.716455696202532 2.9 0  2.708860759493671 2.9 0  2.701265822784811 2.9 0  2.69367088607595 2.9 0  2.686075949367089 2.9 0  2.678481012658228 2.9 0  2.670886075949368 2.9 0  2.663291139240507 2.9 0  2.655696202531646 2.9 0  2.648101265822786 2.9 0  2.640506329113925 2.9 0  2.632911392405064 2.9 0  2.625316455696203 2.9 0  2.617721518987342 2.9 0  2.610126582278482 2.9 0  2.602531645569621 2.9 0  2.59493670886076 2.9 0  2.587341772151899 2.9 0  2.579746835443038 2.9 0  2.572151898734178 2.9 0  2.564556962025317 2.9 0  2.556962025316456 2.9 0  2.549367088607595 2.9 0  2.541772151898734 2.9 0  2.534177215189874 2.9 0  2.526582278481013 2.9 0  2.518987341772152 2.9 0  2.511392405063292 2.9 0  2.503797468354431 2.9 0  2.49620253164557 2.9 0  2.488607594936709 2.9 0  2.481012658227848 2.9 0  2.473417721518988 2.9 0  2.465822784810127 2.9 0  2.458227848101266 2.9 0  2.450632911392406 2.9 0  2.443037974683545 2.9 0  2.435443037974684 2.9 0  2.427848101265823 2.9 0  2.420253164556962 2.9 0  2.412658227848102 2.9 0  2.405063291139241 2.9 0  2.39746835443038 2.9 0  2.389873417721519 2.9 0  2.382278481012658 2.9 0  2.374683544303798 2.9 0  2.367088607594937 2.9 0  2.359493670886076 2.9 0  2.351898734177215 2.9 0  2.344303797468355 2.9 0  2.336708860759494 2.9 0  2.329113924050633 2.9 0  2.321518987341773 2.9 0  2.313924050632912 2.9 0  2.306329113924051 2.9 0  2.29873417721519 2.9 0  2.291139240506329 2.9 0  2.283544303797469 2.9 0  2.275949367088608 2.9 0  2.268354430379747 2.9 0  2.260759493670887 2.9 0  2.253164556962026 2.9 0  2.245569620253165 2.9 0  2.237974683544304 2.9 0  2.230379746835443 2.9 0  2.222784810126583 2.9 0  2.215189873417722 2.9 0  2.207594936708861 2.9 0  4.96271186440678 2.9 0  4.925423728813559 2.9 0  4.888135593220339 2.9 0  4.850847457627118 2.9 0  4.813559322033898 2.9 0  4.776271186440677 2.9 0  4.738983050847457 2.9 0  4.701694915254237 2.9 0  4.664406779661016 2.9 0  4.627118644067796 2.9 0  4.589830508474575 2.9 0  4.552542372881355 2.9 0  4.515254237288135 2.9 0  4.477966101694914 2.9 0  4.440677966101694 2.9 0  4.403389830508473 2.9 0  4.366101694915252 2.9 0  4.328813559322032 2.9 0  4.291525423728811 2.9 0  4.254237288135591 2.9 0  4.21694915254237 2.9 0  4.17966101694915 2.9 0  4.14237288135593 2.9 0  4.105084745762709 2.9 0  4.067796610169489 2.9 0  4.030508474576268 2.9 0  3.993220338983048 2.9 0  3.955932203389827 2.9 0  3.918644067796607 2.9 0  3.881355932203387 2.9 0  3.844067796610166 2.9 0  3.806779661016946 2.9 0  3.769491525423725 2.9 0  3.732203389830505 2.9 0  3.694915254237285 2.9 0  3.657627118644065 2.9 0  3.620338983050845 2.9 0  3.583050847457625 2.9 0  3.545762711864405 2.9 0  3.508474576271184 2.9 0  3.471186440677964 2.9 0  3.433898305084744 2.9 0  3.396610169491524 2.9 0  3.359322033898303 2.9 0  3.322033898305083 2.9 0  3.284745762711863 2.9 0  3.247457627118643 2.9 0  3.210169491525423 2.9 0  3.172881355932202 2.9 0  3.135593220338982 2.9 0  3.098305084745762 2.9 0  3.061016949152542 2.9 0  3.023728813559321 2.9 0  2.986440677966101 2.9 0  2.949152542372881 2.9 0  2.911864406779661 2.9 0  2.87457627118644 2.9 0  2.83728813559322 2.9 0  5 0.1063822625082082 0  5 0.210636880010749 0  5 0.3128064053694972 0  5 0.4129325400644018 0  5 0.5110561521032336 0  5 0.6072172918830103 0  5 0.7014552087832795 0  5 0.7938083674443693 0  5 0.88431446261646 0  5 0.9730104359544682 0  5 1.059932489996267 0  5 1.145116102913299 0  5 1.228596043483191 0  5 1.310406385079062 0  5 1.390580519944147 0  5 1.469151172477827 0  5 1.546150411986101 0  5 1.621609666658609 0  5 1.695559736099044 0  5 1.76803080383987 0  5 1.839052450169751 0  5 1.908653663631169 0  5 1.97686285289587 0  5 2.043707858613779 0  5 2.109215964341413 0  5 2.173413907925942 0  5 2.236327892833935 0  5 2.297983597762904 0  5 2.35840618845912 0  5 2.41762032730194 0  5 2.475650183444628 0  5 2.532519442457069 0  5 2.588251316112828 0  5 2.642868552557322 0  5 2.696393444426347 0  5 2.748847838312051 0  5 2.800253144313381 0  5 2.850630344319807 0  0.2631578947368421 0 0  0.5263157894736842 0 0  0.7894736842105263 0 0  1.052631578947368 0 0  1.31578947368421 0 0  1.578947368421053 0 0  1.842105263157895 0 0  2.105263157894737 0 0  2.368421052631579 0 0  2.631578947368421 0 0  2.894736842105263 0 0  3.157894736842105 0 0  3.421052631578947 0 0  3.684210526315789 0 0  3.947368421052632 0 0  4.210526315789473 0 0  4.473684210526315 0 0  4.736842105263158 0 0  0 2.850203682350569 0  0 2.799411438503675 0  0 2.747603349778291 0  0 2.694759099502208 0  0 2.640857964382145 0  0 2.58587880633613 0  0 2.52980006535898 0  0 2.472599749459174 0  0 2.414255427218689 0  0 2.35474421880616 0  0 2.294042786119219 0  0 2.232127324764723 0  0 2.1689735539481 0  0 2.104556707683347 0  0 2.038851524813415 0  0 1.971832238155655 0  0 1.903472565412126 0  0 1.83374569926617 0  0 1.762624296208475 0  0 1.690080464918761 0  0 1.616085756774206 0  0 1.540611154706337 0  0 1.463627060685571 0  0 1.385103284916206 0  0 1.305009033716617 0  0 1.223312897337225 0  0 1.139982838163732 0  0 1.054986177579938 0  0 0.9682895835804817 0  0 0.8798590579197976 0  0 0.7896599218415354 0  0 0.6976568029903638 0  0 0.6038136217958798 0  0 0.508093576867624 0  0 0.4104591310957497 0  0 0.3108719963522191 0  0 0.2092931188294389 0  0 0.1056826638508546 0  1.434832105763824 2.866945754981483 0  1.737156300467626 2.870039440267515 0  2.032203389830508 2.867707527316512 0  2.332911392405064 2.893422591869991 0  2.469810913293406 2.891944186606167 0  2.606221408823969 2.892519154985628 0  2.255455320628894 2.892068685006691 0  2.538247299216212 2.894964578182811 0  2.674683544303798 2.893422591869991 0  2.40126582278481 2.893422591869991 0  3.566125247295424 2.865029336199714 0  3.266101694915253 2.867707527316512 0  2.967796610169491 2.867707527316512 0  1.174288529834642 2.870795313888584 0  3.825423728813556 2.867707527316512 0  2.727766680262011 2.892655387647729 0  0.06601655192030442 1.502119107695954 0  4.933983535508361 1.507650792231964 0  0.9532124728485543 2.868722489783638 0  4.048935912500257 2.870640982995992 0  0.05930163367361763 1.866907161167414 0  4.943402512618553 1.871280731473148 0  4.271733870017743 2.86520865624265 0  0.7249420921613114 2.863922936177041 0  0.05494499779910056 2.196469063120752 0  4.947228695426367 2.208030108792719 0  0.5406152150397161 2.866493807382013 0  4.459322033898304 2.868847558178794 0  2.18135593220339 2.875780645487384 0  2.817027156509632 2.876587550645167 0  4.928427208322876 1.186856073198245 0  0.07189226971603224 1.174626666111662 0  4.610299014423113 2.867003104093161 0  0.3897270066746357 2.869433095314657 0  1.581132500042262 2.868247328632392 0  1.887637879411437 2.869235851794358 0  3.413449426418068 2.867372048034327 0  3.116721298814773 2.865731235547652 0  2.644303797468355 2.893422591869991 0  2.370983221828106 2.892719513369796 0  2.302531645569621 2.893336787387268 0  2.758987341772152 2.894242393897099 0  0.04979653335696277 2.443411216910286 0  4.950470983477169 2.446866954595817 0  2.482937483021586 0.2513241087417575 0  1.707129504814338 0.1999998659920923 0  3.28584657955054 0.229200625631625 0  4.907807122600524 0.834082362900164 0  4.757627118644067 2.867707527316512 0  0.0773489124676745 0.8347594898806663 0  0.2390604736599387 2.861365431805741 0  0.8363213715215729 2.863896768908178 0  4.160865610207075 2.868916854015731 0  1.282549332053297 2.867610952980761 0  1.065094818402487 2.861284686038041 0  3.93818127737282 2.86865134411395 0  3.711492629432973 2.863574306925269 0  4.91369361998929 0.5579891344254361 0  0.08208328472281323 0.5559535993317519 0  2.696596932532885 2.892010483922337 0  0.04706410140274553 2.613055974506516 0  4.955577063972248 2.616518038840186 0  2.234177215189874 2.893422591869991 0  2.279795840559739 2.89403861893984 0  0.9117357887652362 0.2117925286661764 0  4.055948041993057 0.2039101057937727 0  4.872119713780579 2.867632926423075 0  2.780113878992455 2.891535929611743 0  0.1327442468251063 2.85
[...]
<PointData  Vectors="displacement"> 
<DataArray  type="Float64"  Name="displacement"  NumberOfComponents="3" format="ascii">7.3343706270532962e-04 -4.7865071510350384e-03 0.0000000000000000e+00  0.0000000000000000e+00 -2.1306275577980243e-04 0.0000000000000000e+00  -7.6191724053884630e-04 -4.8239708558751862e-03 0.0000000000000000e+00  0.0000000000000000e+00 -2.1291584588495346e-04 0.0000000000000000e+00  0.0000000000000000e+00 0.0000000000000000e+00 0.0000000000000000e+00  0.0000000000000000e+00 0.0000000000000000e+00 0.0000000000000000e+00  6.8204652509577942e-04 -4.1801089657906351e-03 0.0000000000000000e+00  6.4684001064523966e-04 -3.8089410897909179e-03 0.0000000000000000e+00  6.2220601540157220e-04 -3.5174255119100359e-03 0.0000000000000000e+00  6.0274830080401154e-04 -3.2719547215999583e-03 0.0000000000000000e+00  5.8644990957854785e-04 -3.0584017493175270e-03 0.0000000000000000e+00  5.7227417887922654e-04 -2.8687465775192370e-03 0.0000000000000000e+00  5.5954768613932946e-04 -2.6978372732834321e-03 0.0000000000000000e+00  5.4782180591683174e-04 -2.5421553287102543e-03 0.0000000000000000e+00  5.3676875283418580e-04 -2.3991358849711998e-03 0.0000000000000000e+00  5.2616371819512345e-04 -2.2668934636797550e-03 0.0000000000000000e+00  5.1584499764075874e-04 -2.1439929666524863e-03 0.0000000000000000e+00  5.0569545992064987e-04 -2.0292797528564444e-03 0.0000000000000000e+00  4.9562884861421711e-04 -1.9218201499098834e-03 0.0000000000000000e+00  4.8558593545714108e-04 -1.8208607093272997e-03 0.0000000000000000e+00  4.7552619818062587e-04 -1.7257794937151391e-03 0.0000000000000000e+00  4.6542045785543632e-04 -1.6360486803871045e-03 0.0000000000000000e+00  4.5525203608603353e-04 -1.5512206111586750e-03 0.0000000000000000e+00  4.4500645340297772e-04 -1.4709092805377324e-03 0.0000000000000000e+00  4.3468070212244212e-04 -1.3947790355924605e-03 0.0000000000000000e+00  4.2427332041337001e-04 -1.3225386415484286e-03 0.0000000000000000e+00  4.1378570769444342e-04 -1.2539321433022498e-03 0.0000000000000000e+00  4.0322071340446119e-04 -1.1887329336931266e-03 0.0000000000000000e+00  3.9258406074594763e-04 -1.1267355105357051e-03 0.0000000000000000e+00  3.8187983680186105e-04 -1.0677597480015836e-03 0.0000000000000000e+00  3.7111527562076480e-04 -1.0116440542657439e-03 0.0000000000000000e+00  3.6029741203871558e-04 -9.5823965321398718e-04 0.0000000000000000e+00  3.4943258469065407e-04 -9.0741117296701268e-04 0.0000000000000000e+00  3.3852586703541206e-04 -8.5903914199215894e-04 0.0000000000000000e+00  3.2758642685037524e-04 -8.1301223781541406e-04 0.0000000000000000e+00  3.1661717006581071e-04 -7.6922588832222178e-04 0.0000000000000000e+00  3.0562618281410514e-04 -7.2758867847610574e-04 0.0000000000000000e+00  2.9461843232472942e-04 -6.8801570717603089e-04 0.0000000000000000e+00  2.8359701474036785e-04 -6.5042878000554170e-04 0.0000000000000000e+00  2.7256871249811942e-04 -6.1475200115546677e-04 0.0000000000000000e+00  2.6153623320869908e-04 -5.8092036915344410e-04 0.0000000000000000e+00  2.5050406236646765e-04 -5.4887080577545007e-04 0.0000000000000000e+00  2.3947523758999600e-04 -5.1854539574931193e-04 0.0000000000000000e+00  2.2845238065307875e-04 -4.8989186888420873e-04 0.0000000000000000e+00  2.1743837450032192e-04 -4.6286025348745428e-04 0.0000000000000000e+00  2.0643505576927075e-04 -4.3740504208386111e-04 0.0000000000000000e+00  1.9544425833492888e-04 -4.1348403979661754e-04 0.0000000000000000e+00  1.8446727361760216e-04 -3.9105816683288833e-04 0.0000000000000000e+00  1.7350512511181870e-04 -3.7009112993971385e-04 0.0000000000000000e+00  1.6255868213737885e-04 -3.5054998238107430e-04 0.0000000000000000e+00  1.5162834701405413e-04 -3.3240380289352049e-04 0.0000000000000000e+00  1.4071427143221290e-04 -3.1562462607170861e-04 0.0000000000000000e+00  1.2981639202319650e-04 -3.0018663392372149e-04 0.0000000000000000e+00  1.1893432471077427e-04 -2.8606650492280953e-04 0.0000000000000000e+00  1.0806757803696457e-04 -2.7324285316578735e-04 0.0000000000000000e+00  9.7215335636253799e-05 -2.6169664329255048e-04 0.0000000000000000e+00  8.6376840013374656e-05 -2.5141082408731074e-04 0.0000000000000000e+00  7.5550675723602405e-05 -2.4236985049530882e-04 0.0000000000000000e+00  6.4735843944110596e-05 -2.3456070974972688e-04 0.0000000000000000e+00  5.3930864747307724e-05 -2.2797219234991562e-04 0.0000000000000000e+00  4.3134462409030497e-05 -2.2259456005992981e-04 0.0000000000000000e+00  3.2344710628214104e-05 -2.1841985437996678e-04 0.0000000000000000e+00  2.1560225338330342e-05 -2.1544223837712727e-04 0.0000000000000000e+00  1.0779227743480490e-05 -2.1365739105007710e-04 0.0000000000000000e+00  -8.9858774484975171e-04 -5.3770314315429333e-03 0.0000000000000000e+00  -8.6472387147065483e-04 -5.5645194360961249e-03 0.0000000000000000e+00  -8.3746556335185282e-04 -5.7025597508737116e-03 0.0000000000000000e+00  -8.1197692846187559e-04 -5.8167095262330205e-03 0.0000000000000000e+00  -7.8924707882540700e-04 -5.9179080937078526e-03 0.0000000000000000e+00  -7.6696189021656445e-04 -6.0105234630446723e-03 0.0000000000000000e+00  -7.4462590067141891e-04 -6.0960393259518412e-03 0.0000000000000000e+00  -7.2225843859085974e-04 -6.1754276082135341e-03 0.0000000000000000e+00  -6.9985990911301224e-04 -6.2494969699039759e-03 0.0000000000000000e+00  -6.7742607115905669e-04 -6.3188692561554922e-03 0.0000000000000000e+00  -6.5494731731510509e-04 -6.3840107730560279e-03 0.0000000000000000e+00  -6.3241668076402036e-04 -6.4452903325497067e-03 0.0000000000000000e+00  -6.0983738872485277e-04 -6.5030148061573116e-03 0.0000000000000000e+00  -5.8721212753723082e-04 -6.5574318866622504e-03 0.0000000000000000e+00  -5.6453913728417445e-04 -6.6087492911549705e-03 0.0000000000000000e+00  -5.4182621050390860e-04 -6.6571528366380630e-03 0.0000000000000000e+00  -5.1907361937709139e-04 -6.7027947849559680e-03 0.0000000000000000e+00  -4.9628408604498694e-04 -6.7458077024247377e-03 0.0000000000000000e+00  -4.7345973209709678e-04 -6.7863085385602420e-03 0.0000000000000000e+00  -4.5060263874923594e-04 -6.8243989274623862e-03 0.0000000000000000e+00  -4.2771511817577814e-04 -6.8601687930312308e-03 0.0000000000000000e+00  -4.0479939523269196e-04 -6.8936976527199448e-03 0.0000000000000000e+00  -3.8185726314337182e-04 -6.9250555474143711e-03 0.0000000000000000e+00  -3.5889103615648386e-04 -6.9543054883008278e-03 0.0000000000000000e+00  -3.3590265256669492e-04 -6.9815035244711393e-03 0.0000000000000000e+00  -3.1289389076835102e-04 -7.0066989763301283e-03 0.0000000000000000e+00  -2.8986720474045297e-04 -7.0299364468546510e-03 0.0000000000000000e+00  -2.6682322470660870e-04 -7.0512552046648929e-03 0.0000000000000000e+00  -2.4376449738737225e-04 -7.0706909880225242e-03 0.0000000000000000e+00  -2.2069265186977792e-04 -7.0882749449691571e-03 0.0000000000000000e+00  -1.9760912197243658e-04 -7.1040347319688930e-03 0.0000000000000000e+00  -1.7451521238693468e-04 -7.1179943983841745e-03 0.0000000000000000e+00  -1.5141247819886651e-04 -7.1301750363959035e-03 0.0000000000000000e+00  -1.2830257738528634e-04 -7.1405946653817628e-03 0.0000000000000000e+00  -1.0518628981238277e-04 -7.1492680735023252e-03 0.0000000000000000e+00  -8.2065986415310254e-05 -7.1562083975531075e-03 0.0000000000000000e+00  -5.8941936132387222e-05 -7.1614251981682656e-03 0.0000000000000000e+00  -3.5815942655715647e-05 -7.1649257871085050e-03 0.0000000000000000e+00  -1.2689614583094165e-05 -7.1667153055870198e-03 0.0000000000000000e+00  1.0436018711789970e-05 -7.1667962631230195e-03 0.0000000000000000e+00  3.3559517627367064e-05 -7.1651688743886461e-03 0.0000000000000000e+00  5.6679525592032655e-05 -7.1618310226620671e-03 0.0000000000000000e+00  7.9794683656507411e-05 -7.1567782509862040e-03 0.0000000000000000e+00  1.0290344305824711e-04 -7.1500034773633817e-03 0.0000000000000000e+00  1.2600459619975949e-04 -7.1414972341311616e-03 0.0000000000000000e+00  1.4909674730495016e-04 -7.1312478509281286e-03 0.0000000000000000e+00  1.7217827714114303e-04 -7.1192404194648446e-03 0.0000000000000000e+00  1.9524774276966504e-04 -7.1054574511151773e-03 0.0000000000000000e+00  2.1830369969054065e-04 -7.0898785826528695e-03 0.0000000000000000e+00  2.4134425807169457e-04 -7.0724801104219762e-03 0.0000000000000000e+00  2.6436786261787253e-04 -7.0532353582997125e-03 0.0000000000000000e+00  2.8737298228425192e-04 -7.0321134956117587e-03 0.0000000000000000e+00  3.1035698817943403e-04 -7.0090799659354042e-03 0.0000000000000000e+00  3.3331842944894481e-04 -6.9840963909711083e-03 0.0000000000000000e+00  3.5625501893408388e-04 -6.9571188375716032e-03 0.0000000000000000e+00  3.7916447642536290e-04 -6.9280985372360765e-03 0.0000000000000000e+00  4.0204411349661304e-04 -6.8969805238374210e-03 0.0000000000000000e+00  4.2489206065998974e-04 -6.8637036214115208e-03 0.0000000000000000e+00  4.4770430020947777e-04 -6.8281972881558892e-03 0.0000000000000000e+00  4.7047786110988236e-04 -6.7903859592019795e-03 0.0000000000000000e+00  4.9320843003906455e-04 -6.7501808978182257e-03 0.0000000000000000e+00  5.1589231328949645e-04 -6.7074833433015003e-03 0.0000000000000000e+00  5.3852467440550580e-04 -6.6621806129136844e-03 0.0000000000000000e+00  5.6110061739438955e-04 -6.6141438069287186e-03 0.0000000000000000e+00  5.8361429491344131e-04 -6.5632252459291909e-03 0.0000000000000000e+00  6.0605979524929517e-04 -6.5092519345512842e-03 0.0000000000000000e+00  6.2842752435069728e-04 -6.4520217903697311e-03 0.0000000000000000e+00  6.5070910842915527e-04 -6.3912959830989442e-03 0.0000000000000000e+00  6.7289828176044148e-04 -6.3267938216428343e-03 0.0000000000000000e+00  6.9497324609048142e-04 -6.2581569563376479e-03 0.0000000000000000e+00  7.1691536820962343e-04 -6.1849511733417222e-03 0.0000000000000000e+00  7.3870162714906003e-04 -6.1066449417981634e-03 0.0000000000000000e+00  7.6032496436187545e-04 -6.0225721724384389e-03 0.0000000000000000e+00  7.8186187575387937e-04 -5.9316722867104035e-03 0.0000000000000000e+00  8.0326846223761276e-04 -5.8322167173906203e-03 0.0000000000000000e+00  8.2343968637838710e-04 -5.7222499824359863e-03 0.0000000000000000e+00  8.4204687304972143e-04 -5.6028027194014972e-03 0.0000000000000000e+00  8.7768405869683439e-04 -5.4252212438971091e-03 0.0000000000000000e+00  -1.0797795898260028e-05 -2.1351062813750035e-04 0.0000000000000000e+00  -2.1597384487472656e-05 -2.1529587303306227e-04 0.0000000000000000e+00  -3.2400538229015184e-05 -2.1827412210194487e-04 0.0000000000000000e+00  -4.3208992856195808e-05 -2.2244968259998131e-04 0.0000000000000000e+00  -5.4024475641264015e-05 -2.2782856792497827e-04 0.0000000000000000e+00  -6.4848547299439194e-05 -2.3441873698185626e-04 0.0000000000000000e+00  -7.5682707145219576e-05 -2.4222945038790915e-04 0.0000000000000000e+00  -8.6528474904894743e-05 -2.5127235073354429e-04 0.0000000000000000e+00  -9.7387073521400307e-05 -2.6156063886993627e-04 0.0000000000000000e+00  -1.0825966685919183e-04 -2.7310956167652783e-04 0.0000000000000000e+00  -1.1914720752304691e-04 -2.8593619954518466e-04 0.0000000000000000e+00  -1.3005051897680811e-04 -3.0005970602966895e-04 0.0000000000000000e+00  -1.4097021604051518e-04 -3.1550134575245562e-04 0.0000000000000000e+00  -1.5190667443447129e-04 -3.3228456144567854e-04 0.0000000000000000e+00  -1.6286006860404732e-04 -3.5043510448777527e-04 0.0000000000000000e+00  -1.7383026319426110e-04 -3.6998112353789895e-04 0.0000000000000000e+00  -1.8481698290421326e-04 -3.9095321156615645e-04 0.0000000000000000e+00  -1.9581945185224970e-04 -4.1338497763243728e-04 0.0000000000000000e+00  -2.0683666644715011e-04 -4.3731227374824860e-04 0.0000000000000000e+00  -2.1786753473631288e-04 -4.6277435663392416e-04 0.0000000000000000e+00  -2.2891042692406219e-04 -4.8981361481006079e-04 0.0000000000000000e+00  -2.3996285063937735e-04 -5.1847466925542820e-04 0.0000000000000000e+00  -2.5102313610015194e-04 -5.4880826999461219e-04 0.0000000000000000e+00  -2.6208812811279387e-04 -5.8086732510937540e-04 0.0000000000000000e+00  -2.7315489330267701e-04 -6.1470934750114685e-04 0.0000000000000000e+00  -2.8421985452825756e-04 -6.5039659443891294e-04 0.0000000000000000e+00  -2.9527906112821291e-04 -6.8799653243485788e-04 0.0000000000000000e+00  -3.0632802464340513e-04 -7.2758215706278883e-04 0.0000000000000000e+00  -3.1736236905814262e-04 -7.6923263495471447e-04 0.0000000000000000e+00  -3.2837690760631455e-04 -8.1303356894640388e-04 0.0000000000000000e+00  -3.3936594999006898e-04 -8.5907861769740483e-04 0.0000000000000000e+00  -3.5032354220671105e-04 -9.0746925415015648e-04 0.0000000000000000e+00  -3.6124662223180240e-04 -9.5831777935615793e-04 0.0000000000000000e+00  -3.7212286930911662e-04 -1.0117453535636838e-03 0.0000000000000000e+00  -3.8295158176266818e-04 -1.0678869464215445e-03 0.0000000000000000e+00  -3.9372515899931376e-04 -1.1268891719215513e-03 0.0000000000000000e+00  -4.0443811926390997e-04 -1.1889158834718081e-03 0.0000000000000000e+00  -4.1508403890656007e-04 -1.2541496802829549e-03 0.0000000000000000e+00  -4.2566009912536429e-04 -1.3227940157091735e-03 0.0000000000000000e+00  -4.3616405845128652e-04 -1.3950766039632640e-03 0.0000000000000000e+00  -4.4659566795303115e-04 -1.4712548316649712e-03 0.0000000000000000e+00  -4.5695675159429587e-04 -1.5516222310842879e-03 0.0000000000000000e+00  -4.6725643714111089e-04 -1.6365132922981282e-03 0.0000000000000000e+00  -4.7750407229630703e-04 -1.7263140313011831e-03 0.0000000000000000e+00  -4.8772025914686551e-04 -1.8214739196630635e-03 0.0000000000000000e+00  -4.9793740672786303e-04 -1.9225254230917641e-03 0.0000000000000000e+00  -5.0820153668819932e-04 -2.0300944099932387e-03 0.0000000000000000e+00  -5.1857619085442697e-04 -2.1449426295780906e-03 0.0000000000000000e+00  -5.2915292690644035e-04 -2.2679948307969696e-03 0.0000000000000000e+00  -5.4004714310801100e-04 -2.4004009263276891e-03 0.0000000000000000e+00  -5.5144700748843473e-04 -2.5436478732965306e-03 0.0000000000000000e+00  -5.6357351454698493e-04 -2.6995826238761290e-03 0.0000000000000000e+00  -5.7677686112545630e-04 -2.8708424469530962e-03 0.0000000000000000e+00  -5.9153260865885571e-04 -3.0609337407435477e-03 0.0000000000000000e+00  -6.0857761964488771e-04 -3.2750470737597684e-03 0.0000000000000000e+00  -6.2909803880329828e-04 -3.5213054198294336e-03 0.0000000000000000e+00  -6.5478717303642762e-04 -3.8141502244686608e-03 0.0000000000000000e+00  -6.9309469173465198e-04 -4.1872837796133391e-03 0.0000000000000000e+00  0.0000000000000000e+00 -4.0548353687002909e-05 0.0000000000000000e+00  0.0000000000000000e+00 -7.6124120834545920e-05 0.0000000000000000e+00  0.0000000000000000e+00 -1.0731743853215155e-04 0.0000000000000000e+00  0.0000000000000000e+00 -1.3462788471438623e-04 0.0000000000000000e+00  0.0000000000000000e+00 -1.5843198082209458e-04 0.0000000000000000e+00  0.0000000000000000e+00 -1.7903666142156185e-04 0.0000000000000000e+00  0.0000000000000000e+00 -1.9669701021007171e-04 0.0000000000000000e+00  0.0000000000000000e+00 -2.1162980647607330e-04 0.0000000000000000e+00  0.0000000000000000e+00 -2.2400337209196969e-04 0.0000000000000000e+00  0.0000000000000000e+00 -2.3400683521752389e-04 0.0000000000000000e+00  0.0000000000000000e+00 -2.4178943039859736e-04 0.0000000000000000e+00  0.0000000000000000e+00 -2.4750817848317964e-04 0.0000000000000000e+00  0.0000000000000000e+00 -2.5132487080362380e-04 0.0000000000000000e+00  0.0000000000000000e+00 -2.5340011044198393e-04 0.0000000000000000e+00  0.0000000000000000e+00 -2.5390035666675997e-04 0.0000000000000000e+00  0.0000000000000000e+00 -2.5299879703138094e-04 0.0000000000000000e+00  0.0000000000000000e+00 -2.5087708348823715e-04 0.0000000000000000e+00  0.0000000000000000e+00 -2.4771800985816069e-04 0.0000000000000000e+00  0.0000000000000000e+00 -2.4370848180584292e-04 0.0000000000000000e+00  0.0000000000000000e+00 -2.3903686938741455e-04 0.0000000000000000e+00  0.0000000000000000e+00 -2.3389104634977202e-04 0.0000000000000000e+00  0.0000000000000000e+00 -2.2845417124221575e-04 0.0000000000000000e+00  0.0000000000000000e+00 -2.2290509378046638e-04 0.0000000000000000e+00  0.0000000000000000e+00 -2.1740974905645470e-04 0.0000000000000000e+00  0.0000000000000000e+00 -2.1212838699021229e-04 0.0000000000000000e+00  0.0000000000000000e+00 -2.0720837044965317e-04 0.0000000000000000e+00  0.0000000000000000e+00 -2.0277709000751480e-04 0.0000000000000000e+00  0.0000000000000000e+00 -1.9895236452769258e-04 0.0000000000000000e+00  0.0000000000000000e+00 -1.9583197012404454e-04 0.0000000000000000e+00  0.0000000000000000e+00 -1.9349670685885406e-04 0.0000000000000000e+00  0.0000000000000000e+00 -1.9201031291686728e-04 0.0000000000000000e+00  0.0000000000000000e+00 -1.9141840311506924e-04 0.0000000000000000e+00  0.0000000000000000e+00 -1.9175009623337026e-04 0.0000000000000000e+00  0.0000000000000000e+00 -1.9301898109468744e-04 0.0000000000000000e+00  0.0000000000000000e+00 -1.9522338662412048e-04 0.0000000000000000e+00  0.0000000000000000e+00 -1.9834803180537370e-04 0.0000000000000000e+00  0.0000000000000000e+00 -2.0236496658340846e-04 0.0000000000000000e+00  0.0000000000000000e+00 -2.0723669869377357e-04 0.0000000000000000e+00  0.0000000000000000e+00 0.0000000000000000e+00 0.0000000000000000e+00  0.0000000000000000e+00 0.0000000000000000e+00 0.0000000000000000e+00  0.0000000000000000e+00 0.0000000000000000e+00 0.0000000000000000e+00  0.0000000000000000e+00 0.0000000000000000e+00 0.0000000000000000e+00  0.0000000000000000e+00 0.0000000000000000e+00 0.0000000000000000e+00  0.0000000000000000e+00 0.0000000000000000e+00 0.0000000000000000e+00  0.0000000000000000e+00 0.0000000000000000e+00 0.0000000000000000e+00  0.0000000000000000e+00 0.0000000000000000e+00 0.0000000000000000e+00  0.0000000000000000e+00 0.0000000000000000e+00 0.0000000000000000e+00  0.0000000000000000e+00 0.0000000000000000e+00 0.0000000000000000e+00  0.0000000000000000e+00 0.0000000000000000e+00 0.0000000000000000e+00  0.0000000000000000e+00 0.0000000000000000e+00 0.0000000000000000e+00  0.0000000000000000e+00 0.0000000000000000e+00 0.0000000000000000e+00  0.0000000000000000e+00 0.0000000000000000e+00 0.0000000000000000e+00  0.0000000000000000e+00 0.0000000000000000e+00 0.0000000000000000e+00  0.0000000000000000e+00 0.0000000000000000e+00 0.0000000000000000e+00  0.0000000000000000e+00 0.0000000000000000e+00 0.0000000000000000e+00  0.0000000000000000e+00 0.0000000000000000e+00 0.0000000000000000e+00  0.0000000000000000e+00 -2.0734896823138891e-04 0.0000000000000000e+00  0.0000000000000000e+00 -2.0245905226130495e-04 0.0000000000000000e+00  0.0000000000000000e+00 -1.9844030204406251e-04 0.0000000000000000e+00  0.0000000000000000e+00 -1.9532852363269380e-04 0.0000000000000000e+00  0.0000000000000000e+00 -1.9315072638334451e-04 0.0000000000000000e+00  0.0000000000000000e+00 -1.9192000505043253e-04 0.0000000000000000e+00  0.0000000000000000e+00 -1.9163568085520406e-04 0.0000000000000000e+00  0.0000000000000000e+00 -1.9228200947235869e-04 0.0000000000000000e+00  0.0000000000000000e+00 -1.9382723139588180e-04 0.0000000000000000e+00  0.0000000000000000e+00 -1.9622195132927128e-04 0.0000000000000000e+00  0.0000000000000000e+00 -1.9940094310012322e-04 0.0000000000000000e+00  0.0000000000000000e+00 -2.0327715651706106e-04 0.0000000000000000e+00  0.0000000000000000e+00 -2.0775330354190025e-04 0.0000000000000000e+00  0.0000000000000000e+00 -2.1270932166095276e-04 0.0000000000000000e+00  0.0000000000000000e+00 -2.1801293880248311e-04 0.0000000000000000e+00  0.0000000000000000e+00 -2.2351441354390758e-04 0.0000000000000000e+00  0.0000000000000000e+00 -2.2905502139451375e-04 0.0000000000000000e+00  0.0000000000000000e+00 -2.3446746180541301e-04 0.0000000000000000e+00  0.0000000000000000e+00 -2.3957112598347691e-04 0.0000000000000000e+00  0.0000000000000000e+00 -2.4418344331898794e-04 0.0000000000000000e+00  0.0000000000000000e+00 -2.4811857192449737e-04 0.0000000000000000e+00  0.0000000000000000e+00 -2.5118995553613537e-04 0.0000000000000000e+00  0.0000000000000000e+00 -2.5321242802754868e-04 0.00000000000