<?xml version="1.0"?>
<VTKFile type="UnstructuredGrid"  version="0.1"  >
<UnstructuredGrid>
<Piece  NumberOfPoints="3167" NumberOfCells="6038">
<Points>
<DataArray  type="Float64"  NumberOfComponents="3"  format="ascii">2.2 2.9 0  0 2.9 0  2.8 2.9 0  5 2.9 0  5 0 0  0 0 0  2.16271186440678 2.9 0  2.125423728813559 2.9 0  2.088135593220339 2.9 0  2.050847457627119 2.9 0  2.013559322033898 2.9 0  1.976271186440678 2.9 0  1.938983050847457 2.9 0  1.901694915254237 2.9 0  1.864406779661016 2.9 0  1.827118644067796 2.9 0  1.789830508474575 2.9 0  1.752542372881355 2.9 0  1.715254237288134 2.9 0  1.677966101694914 2.9 0  1.640677966101693 2.9 0  1.603389830508473 2.9 0  1.566101694915253 2.9 0  1.528813559322032 2.9 0  1.491525423728812 2.9 0  1.454237288135591 2.9 0  1.416949152542371 2.9 0  1.37966101694915 2.9 0  1.34237288135593 2.9 0  1.305084745762709 2.9 0  1.267796610169489 2.9 0  1.230508474576268 2.9 0  1.193220338983048 2.9 0  1.155932203389827 2.9 0  1.118644067796607 2.9 0  1.081355932203387 2.9 0  1.044067796610166 2.9 0  1.006779661016946 2.9 0  0.9694915254237257 2.9 0  0.9322033898305055 2.9 0  0.8949152542372856 2.9 0  0.8576271186440652 2.9 0  0.820338983050845 2.9 0  0.783050847457625 2.9 0  0.7457627118644048 2.9 0  0.7084745762711844 2.9 0  0.6711864406779642 2.9 0  0.633898305084744 2.9 0  0.5966101694915238 2.9 0  0.5593220338983036 2.9 0  0.5220338983050834 2.9 0  0.4847457627118632 2.9 0  0.447457627118643 2.9 0  0.4101694915254228 2.9 0  0.3728813559322024 2.9 0  0.3355932203389822 2.9 0  0.2983050847457622 2.9 0  0.2610169491525418 2.9 0  0.2237288135593216 2.9 0  0.1864406779661016 2.9 0  0.1491525423728812 2.9 0  0.1118644067796613 2.9 0  0.07457627118644039 2.9 0  0.03728813559321997 2.9 0  2.792405063291139 2.9 0  2.784810126582279 2.9 0  2.777215189873418 2.9 0  2.769620253164557 2.9 0  2.762025316455697 2.9 0  2.754430379746836 2.9 0  2.746835443037975 2.9 0  2.739240506329114 2.9 0  2.731645569620254 2.9 0  2.724050632911393 2.9 0  2.716455696202532 2.9 0  2.708860759493671 2.9 0  2.701265822784811 2.9 0  2.69367088607595 2.9 0  2.686075949367089 2.9 0  2.678481012658228 2.9 0  2.670886075949368 2.9 0  2.663291139240507 2.9 0  2.655696202531646 2.9 0  2.648101265822786 2.9 0  2.640506329113925 2.9 0  2.632911392405064 2.9 0  2.625316455696203 2.9 0  2.617721518987342 2.9 0  2.610126582278482 2.9 0  2.602531645569621 2.9 0  2.59493670886076 2.9 0  2.587341772151899 2.9 0  2.579746835443038 2.9 0  2.572151898734178 2.9 0  2.564556962025317 2.9 0  2.556962025316456 2.9 0  2.549367088607595 2.9 0  2.541772151898734 2.9 0  2.534177215189874 2.9 0  2.526582278481013 2.9 0  2.518987341772152 2.9 0  2.511392405063292 2.9 0  2.503797468354431 2.9 0  2.49620253164557 2.9 0  2.488607594936709 2.9 0  2.481012658227848 2.9 0  2.473417721518988 2.9 0  2.465822784810127 2.9 0  2.458227848101266 2.9 0  2.450632911392406 2.9 0  2.443037974683545 2.9 0  2.435443037974684 2.9 0  2.427848101265823 2.9 0  2.420253164556962 2.9 0  2.412658227848102 2.9 0  2.405063291139241 2.9 0  2.39746835443038 2.9 0  2.389873417721519 2.9 0  2.382278481012658 2.9 0  2.374683544303798 2.9 0  2.367088607594937 2.9 0  2.359493670886076 2.9 0  2.351898734177215 2.9 0  2.344303797468355 2.9 0  2.336708860759494 2.9 0  2.329113924050633 2.9 0  2.321518987341773 2.9 0  2.313924050632912 2.9 0  2.306329113924051 2.9 0  2.29873417721519 2.9 0  2.291139240506329 2.9 0  2.283544303797469 2.9 0  2.275949367088608 2.9 0  2.268354430379747 2.9 0  2.260759493670887 2.9 0  2.253164556962026 2.9 0  2.245569620253165 2.9 0  2.237974683544304 2.9 0  2.230379746835443 2.9 0  2.222784810126583 2.9 0  2.215189873417722 2.9 0  2.207594936708861 2.9 0  4.96271186440678 2.9 0  4.925423728813559 2.9 0  4.888135593220339 2.9 0  4.850847457627118 2.9 0  4.813559322033898 2.9 0  4.776271186440677 2.9 0  4.738983050847457 2.9 0  4.701694915254237 2.9 0  4.664406779661016 2.9 0  4.627118644067796 2.9 0  4.589830508474575 2.9 0  4.552542372881355 2.9 0  4.515254237288135 2.9 0  4.477966101694914 2.9 0  4.440677966101694 2.9 0  4.403389830508473 2.9 0  4.366101694915252 2.9 0  4.328813559322032 2.9 0  4.291525423728811 2.9 0  4.254237288135591 2.9 0  4.21694915254237 2.9 0  4.17966101694915 2.9 0  4.14237288135593 2.9 0  4.105084745762709 2.9 0  4.067796610169489 2.9 0  4.030508474576268 2.9 0  3.993220338983048 2.9 0  3.955932203389827 2.9 0  3.918644067796607 2.9 0  3.881355932203387 2.9 0  3.844067796610166 2.9 0  3.806779661016946 2.9 0  3.769491525423725 2.9 0  3.732203389830505 2.9 0  3.694915254237285 2.9 0  3.657627118644065 2.9 0  3.620338983050845 2.9 0  3.583050847457625 2.9 0  3.545762711864405 2.9 0  3.508474576271184 2.9 0  3.471186440677964 2.9 0  3.433898305084744 2.9 0  3.396610169491524 2.9 0  3.359322033898303 2.9 0  3.322033898305083 2.9 0  3.284745762711863 2.9 0  3.247457627118643 2.9 0  3.210169491525423 2.9 0  3.172881355932202 2.9 0  3.135593220338982 2.9 0  3.098305084745762 2.9 0  3.061016949152542 2.9 0  3.023728813559321 2.9 0  2.986440677966101 2.9 0  2.949152542372881 2.9 0  2.911864406779661 2.9 0  2.87457627118644 2.9 0  2.83728813559322 2.9 0  5 0.1063822625082082 0  5 0.210636880010749 0  5 0.3128064053694972 0  5 0.4129325400644018 0  5 0.5110561521032336 0  5 0.6072172918830103 0  5 0.7014552087832795 0  5 0.7938083674443693 0  5 0.88431446261646 0  5 0.9730104359544682 0  5 1.059932489996267 0  5 1.145116102913299 0  5 1.228596043483191 0  5 1.310406385079062 0  5 1.390580519944147 0  5 1.469151172477827 0  5 1.546150411986101 0  5 1.621609666658609 0  5 1.695559736099044 0  5 1.76803080383987 0  5 1.839052450169751 0  5 1.908653663631169 0  5 1.97686285289587 0  5 2.043707858613779 0  5 2.109215964341413 0  5 2.173413907925942 0  5 2.236327892833935 0  5 2.297983597762904 0  5 2.35840618845912 0  5 2.41762032730194 0  5 2.475650183444628 0  5 2.532519442457069 0  5 2.588251316112828 0  5 2.642868552557322 0  5 2.696393444426347 0  5 2.748847838312051 0  5 2.800253144313381 0  5 2.850630344319807 0  0.2631578947368421 0 0  0.5263157894736842 0 0  0.7894736842105263 0 0  1.052631578947368 0 0  1.31578947368421 0 0  1.578947368421053 0 0  1.842105263157895 0 0  2.105263157894737 0 0  2.368421052631579 0 0  2.631578947368421 0 0  2.894736842105263 0 0  3.157894736842105 0 0  3.421052631578947 0 0  3.684210526315789 0 0  3.947368421052632 0 0  4.210526315789473 0 0  4.473684210526315 0 0  4.736842105263158 0 0  0 2.850203682350569 0  0 2.799411438503675 0  0 2.747603349778291 0  0 2.694759099502208 0  0 2.640857964382145 0  0 2.58587880633613 0  0 2.52980006535898 0  0 2.472599749459174 0  0 2.414255427218689 0  0 2.35474421880616 0  0 2.294042786119219 0  0 2.232127324764723 0  0 2.1689735539481 0  0 2.104556707683347 0  0 2.038851524813415 0  0 1.971832238155655 0  0 1.903472565412126 0  0 1.83374569926617 0  0 1.762624296208475 0  0 1.690080464918761 0  0 1.616085756774206 0  0 1.540611154706337 0  0 1.463627060685571 0  0 1.385103284916206 0  0 1.305009033716617 0  0 1.223312897337225 0  0 1.139982838163732 0  0 1.054986177579938 0  0 0.9682895835804817 0  0 0.8798590579197976 0  0 0.7896599218415354 0  0 0.6976568029903638 0  0 0.6038136217958798 0  0 0.508093576867624 0  0 0.4104591310957497 0  0 0.3108719963522191 0  0 0.2092931188294389 0  0 0.1056826638508546 0  1.434832105763824 2.866945754981483 0  1.737156300467626 2.870039440267515 0  2.032203389830508 2.867707527316512 0  2.332911392405064 2.893422591869991 0  2.469810913293406 2.891944186606167 0  2.606221408823969 2.892519154985628 0  2.255455320628894 2.892068685006691 0  2.538247299216212 2.894964578182811 0  2.674683544303798 2.893422591869991 0  2.40126582278481 2.893422591869991 0  3.566125247295424 2.865029336199714 0  3.266101694915253 2.867707527316512 0  2.967796610169491 2.867707527316512 0  1.174288529834642 2.870795313888584 0  3.825423728813556 2.867707527316512 0  2.727766680262011 2.892655387647729 0  0.06601655192030442 1.502119107695954 0  4.933983535508361 1.507650792231964 0  0.9532124728485543 2.868722489783638 0  4.048935912500257 2.870640982995992 0  0.05930163367361763 1.866907161167414 0  4.943402512618553 1.871280731473148 0  4.271733870017743 2.86520865624265 0  0.7249420921613114 2.863922936177041 0  0.05494499779910056 2.196469063120752 0  4.947228695426367 2.208030108792719 0  0.5406152150397161 2.866493807382013 0  4.459322033898304 2.868847558178794 0  2.18135593220339 2.875780645487384 0  2.817027156509632 2.876587550645167 0  4.928427208322876 1.186856073198245 0  0.07189226971603224 1.174626666111662 0  4.610299014423113 2.867003104093161 0  0.3897270066746357 2.869433095314657 0  1.581132500042262 2.868247328632392 0  1.887637879411437 2.869235851794358 0  3.413449426418068 2.867372048034327 0  3.116721298814773 2.865731235547652 0  2.644303797468355 2.893422591869991 0  2.370983221828106 2.892719513369796 0  2.302531645569621 2.893336787387268 0  2.758987341772152 2.894242393897099 0  0.04979653335696277 2.443411216910286 0  4.950470983477169 2.446866954595817 0  2.482937483021586 0.2513241087417575 0  1.707129504814338 0.1999998659920923 0  3.28584657955054 0.229200625631625 0  4.907807122600524 0.834082362900164 0  4.757627118644067 2.867707527316512 0  0.0773489124676745 0.8347594898806663 0  0.2390604736599387 2.861365431805741 0  0.8363213715215729 2.863896768908178 0  4.160865610207075 2.868916854015731 0  1.282549332053297 2.867610952980761 0  1.065094818402487 2.861284686038041 0  3.93818127737282 2.86865134411395 0  3.711492629432973 2.863574306925269 0  4.91369361998929 0.5579891344254361 0  0.08208328472281323 0.5559535993317519 0  2.696596932532885 2.892010483922337 0  0.04706410140274553 2.613055974506516 0  4.955577063972248 2.616518038840186 0  2.234177215189874 2.893422591869991 0  2.279795840559739 2.89403861893984 0  0.9117357887652362 0.2117925286661764 0  4.055948041993057 0.2039101057937727 0  4.872119713780579 2.867632926423075 0  2.780113878992455 2.891535929611743 0  0.1327442468251063 2.85
[...]
<PointData  Vectors="displacement"> 
<DataArray  type="Float64"  Name="displacement"  NumberOfComponents="3" format="ascii">1.2694231252073377e-04 -6.6427291150867067e-04 0.0000000000000000e+00  0.0000000000000000e+00 -2.7351921547035706e-05 0.0000000000000000e+00  -1.2711662175808440e-04 -6.6430015428984061e-04 0.0000000000000000e+00  0.0000000000000000e+00 -2.7351954230140081e-05 0.0000000000000000e+00  0.0000000000000000e+00 0.0000000000000000e+00 0.0000000000000000e+00  0.0000000000000000e+00 0.0000000000000000e+00 0.0000000000000000e+00  1.2582571648735277e-04 -5.8789359958492005e-04 0.0000000000000000e+00  1.2330370409216289e-04 -5.3749028135350674e-04 0.0000000000000000e+00  1.2081605046761967e-04 -4.9693044490541115e-04 0.0000000000000000e+00  1.1834253418754397e-04 -4.6234253590950354e-04 0.0000000000000000e+00  1.1587237056279756e-04 -4.3199718330642266e-04 0.0000000000000000e+00  1.1340737688114979e-04 -4.0489633641887162e-04 0.0000000000000000e+00  1.1095012886008971e-04 -3.8038719004379509e-04 0.0000000000000000e+00  1.0850116875472743e-04 -3.5801459310336485e-04 0.0000000000000000e+00  1.0606299970775607e-04 -3.3744022151157741e-04 0.0000000000000000e+00  1.0363473052038673e-04 -3.1841176167720996e-04 0.0000000000000000e+00  1.0121710206385794e-04 -3.0073306636542864e-04 0.0000000000000000e+00  9.8810668160806479e-05 -2.8424387095153593e-04 0.0000000000000000e+00  9.6416358463106576e-05 -2.6881284950151151e-04 0.0000000000000000e+00  9.4034142168086631e-05 -2.5433279112242605e-04 0.0000000000000000e+00  9.1664567417320915e-05 -2.4071396982856098e-04 0.0000000000000000e+00  8.9307913360827797e-05 -2.2787963168412783e-04 0.0000000000000000e+00  8.6964678604763029e-05 -2.1576409119755191e-04 0.0000000000000000e+00  8.4634606561445822e-05 -2.0431041539246684e-04 0.0000000000000000e+00  8.2318374329371868e-05 -1.9346875837228600e-04 0.0000000000000000e+00  8.0016138775242492e-05 -1.8319573137679966e-04 0.0000000000000000e+00  7.7728097699293993e-05 -1.7345305225814243e-04 0.0000000000000000e+00  7.5454330399348993e-05 -1.6420675006719436e-04 0.0000000000000000e+00  7.3195091643011816e-05 -1.5542598494838866e-04 0.0000000000000000e+00  7.0950208128851342e-05 -1.4708366962917297e-04 0.0000000000000000e+00  6.8719927740576518e-05 -1.3915550540092577e-04 0.0000000000000000e+00  6.6504313268002222e-05 -1.3161912368788237e-04 0.0000000000000000e+00  6.4303310457822194e-05 -1.2445416791321596e-04 0.0000000000000000e+00  6.2116697785793014e-05 -1.1764268433158070e-04 0.0000000000000000e+00  5.9944866622447355e-05 -1.1116794641623483e-04 0.0000000000000000e+00  5.7787076379352503e-05 -1.0501431923796570e-04 0.0000000000000000e+00  5.5643698936413258e-05 -9.9168044227956431e-05 0.0000000000000000e+00  5.3514458870285996e-05 -9.3616420627585422e-05 0.0000000000000000e+00  5.1398972670162694e-05 -8.8347798648657339e-05 0.0000000000000000e+00  4.9297192938581519e-05 -8.3350829658137174e-05 0.0000000000000000e+00  4.7208783075637922e-05 -7.8615818889746274e-05 0.0000000000000000e+00  4.5133529970727964e-05 -7.4133385665221455e-05 0.0000000000000000e+00  4.3071042458172945e-05 -6.9894907507441596e-05 0.0000000000000000e+00  4.1021028276798287e-05 -6.5892640257570823e-05 0.0000000000000000e+00  3.8983114520821628e-05 -6.2119161658267684e-05 0.0000000000000000e+00  3.6956891654243431e-05 -5.8567733944226538e-05 0.0000000000000000e+00  3.4941949335371148e-05 -5.5232118918749254e-05 0.0000000000000000e+00  3.2937854419239631e-05 -5.2106539019781248e-05 0.0000000000000000e+00  3.0944098890917496e-05 -4.9185640584270305e-05 0.0000000000000000e+00  2.8960234692428385e-05 -4.6464565865699107e-05 0.0000000000000000e+00  2.6985731295770898e-05 -4.3938755620980552e-05 0.0000000000000000e+00  2.5020067916410154e-05 -4.1604096393954989e-05 0.0000000000000000e+00  2.3062690262688239e-05 -3.9456794902320077e-05 0.0000000000000000e+00  2.1113034691835399e-05 -3.7493422641361587e-05 0.0000000000000000e+00  1.9170509354497204e-05 -3.5710837028453475e-05 0.0000000000000000e+00  1.7234509904631598e-05 -3.4106244736933574e-05 0.0000000000000000e+00  1.5304483080255341e-05 -3.2677150882148137e-05 0.0000000000000000e+00  1.3379684802693159e-05 -3.1421280362782614e-05 0.0000000000000000e+00  1.1459559905489893e-05 -3.0336709238288073e-05 0.0000000000000000e+00  9.5434605765303446e-06 -2.9421810070591459e-05 0.0000000000000000e+00  7.6307638088212822e-06 -2.8675154043350422e-05 0.0000000000000000e+00  5.7206799511137234e-06 -2.8095581641747879e-05 0.0000000000000000e+00  3.8126493272165796e-06 -2.7682225391318020e-05 0.0000000000000000e+00  1.9059787360172109e-06 -2.7434464673667425e-05 0.0000000000000000e+00  -1.2531234836197561e-04 -6.8753376206537764e-04 0.0000000000000000e+00  -1.2194029897369662e-04 -7.0428482020115245e-04 0.0000000000000000e+00  -1.1864177659691375e-04 -7.1859690875637294e-04 0.0000000000000000e+00  -1.1535935788960611e-04 -7.3138460842164224e-04 0.0000000000000000e+00  -1.1209987624170215e-04 -7.4305246408634521e-04 0.0000000000000000e+00  -1.0884335323927725e-04 -7.5381807932535462e-04 0.0000000000000000e+00  -1.0558905316647434e-04 -7.6382817001099360e-04 0.0000000000000000e+00  -1.0233617160775947e-04 -7.7318068828998755e-04 0.0000000000000000e+00  -9.9083356757032228e-05 -7.8195041744604237e-04 0.0000000000000000e+00  -9.5831663201216707e-05 -7.9019637090819550e-04 0.0000000000000000e+00  -9.2580842844213650e-05 -7.9796471656911629e-04 0.0000000000000000e+00  -8.9330259447001210e-05 -8.0529275761662253e-04 0.0000000000000000e+00  -8.6080019670239534e-05 -8.1221193151042345e-04 0.0000000000000000e+00  -8.2830136443161407e-05 -8.1874795404323513e-04 0.0000000000000000e+00  -7.9580210159185268e-05 -8.2492262179081162e-04 0.0000000000000000e+00  -7.6330708962194828e-05 -8.3075561690127678e-04 0.0000000000000000e+00  -7.3081389246291463e-05 -8.3626322298121635e-04 0.0000000000000000e+00  -6.9832270594632359e-05 -8.4145971169412878e-04 0.0000000000000000e+00  -6.6583312813116714e-05 -8.4635776873287732e-04 0.0000000000000000e+00  -6.3334487214395971e-05 -8.5096849657249256e-04 0.0000000000000000e+00  -6.0085796290178894e-05 -8.5530177097985867e-04 0.0000000000000000e+00  -5.6837235363535314e-05 -8.5936637710871142e-04 0.0000000000000000e+00  -5.3588777713513587e-05 -8.6317009251008045e-04 0.0000000000000000e+00  -5.0340439571633131e-05 -8.6671993809747812e-04 0.0000000000000000e+00  -4.7092201246793958e-05 -8.7002218104850141e-04 0.0000000000000000e+00  -4.3844052499520589e-05 -8.7308235540864789e-04 0.0000000000000000e+00  -4.0596030846542675e-05 -8.7590546878273860e-04 0.0000000000000000e+00  -3.7348030974851490e-05 -8.7849593010518414e-04 0.0000000000000000e+00  -3.4100116222316956e-05 -8.8085776690858067e-04 0.0000000000000000e+00  -3.0852280745555650e-05 -8.8299448547486811e-04 0.0000000000000000e+00  -2.7604509099587647e-05 -8.8490920529841414e-04 0.0000000000000000e+00  -2.4356779751538483e-05 -8.8660463672219324e-04 0.0000000000000000e+00  -2.1109095702703423e-05 -8.8808316264950922e-04 0.0000000000000000e+00  -1.7861463726730237e-05 -8.8934682139455259e-04 0.0000000000000000e+00  -1.4613837351469762e-05 -8.9039727851384590e-04 0.0000000000000000e+00  -1.1366295708967256e-05 -8.9123601087183772e-04 0.0000000000000000e+00  -8.1187209905529787e-06 -8.9186410021983202e-04 0.0000000000000000e+00  -4.8711729235925141e-06 -8.9228235642846269e-04 0.0000000000000000e+00  -1.6236457590287253e-06 -8.9249135065393918e-04 0.0000000000000000e+00  1.6238817283427163e-06 -8.9249134663238353e-04 0.0000000000000000e+00  4.8714121532908576e-06 -8.9228234299575148e-04 0.0000000000000000e+00  8.1189522373759776e-06 -8.9186407002778503e-04 0.0000000000000000e+00  1.1366508422753936e-05 -8.9123598735068416e-04 0.0000000000000000e+00  1.4614078963400722e-05 -8.9039725135377126e-04 0.0000000000000000e+00  1.7861688138465495e-05 -8.8934674836124055e-04 0.0000000000000000e+00  2.1109323887197289e-05 -8.8808310205632499e-04 0.0000000000000000e+00  2.4357003182206080e-05 -8.8660457838456250e-04 0.0000000000000000e+00  2.7604727862031631e-05 -8.8490913914037871e-04 0.0000000000000000e+00  3.0852515595165414e-05 -8.8299442264454578e-04 0.0000000000000000e+00  3.4100351947656134e-05 -8.8085768458520002e-04 0.0000000000000000e+00  3.7348258961991203e-05 -8.7849584935152495e-04 0.0000000000000000e+00  4.0596264487506341e-05 -8.7590536094524880e-04 0.0000000000000000e+00  4.3844309339161080e-05 -8.7308224446957421e-04 0.0000000000000000e+00  4.7092457982219276e-05 -8.7002209306198436e-04 0.0000000000000000e+00  5.0340700711420612e-05 -8.6671987847073003e-04 0.0000000000000000e+00  5.3589047983131992e-05 -8.6317002725445023e-04 0.0000000000000000e+00  5.6837489807622079e-05 -8.5936628739194517e-04 0.0000000000000000e+00  6.0086108515907523e-05 -8.5530171818004412e-04 0.0000000000000000e+00  6.3334855597267528e-05 -8.5096834210366540e-04 0.0000000000000000e+00  6.6583714433257599e-05 -8.4635761300417905e-04 0.0000000000000000e+00  6.9832712799895963e-05 -8.4145954329319008e-04 0.0000000000000000e+00  7.3081890886101747e-05 -8.3626301714480691e-04 0.0000000000000000e+00  7.6331251714707236e-05 -8.3075540546165912e-04 0.0000000000000000e+00  7.9580830434716903e-05 -8.2492231715891812e-04 0.0000000000000000e+00  8.2830639767314868e-05 -8.1874734522302799e-04 0.0000000000000000e+00  8.6080768810798460e-05 -8.1221138601722087e-04 0.0000000000000000e+00  8.9331078176211316e-05 -8.0529225259292118e-04 0.0000000000000000e+00  9.2581737169891292e-05 -7.9796388818645944e-04 0.0000000000000000e+00  9.5833028247166517e-05 -7.9019586363653527e-04 0.0000000000000000e+00  9.9084514683424340e-05 -7.8194973691991852e-04 0.0000000000000000e+00  1.0233654741585257e-04 -7.7317912392485251e-04 0.0000000000000000e+00  1.0558992448799048e-04 -7.6382683006859351e-04 0.0000000000000000e+00  1.0884526468874700e-04 -7.5381887787809201e-04 0.0000000000000000e+00  1.1210126992687484e-04 -7.4305034325156723e-04 0.0000000000000000e+00  1.1535914831975202e-04 -7.3137939048172670e-04 0.0000000000000000e+00  1.1861480679826023e-04 -7.1859561995473483e-04 0.0000000000000000e+00  1.2196185761800745e-04 -7.0433226969044836e-04 0.0000000000000000e+00  1.2529453966747349e-04 -6.8748071875423882e-04 0.0000000000000000e+00  -1.9059936567632645e-06 -2.7434490500386518e-05 0.0000000000000000e+00  -3.8126644036658569e-06 -2.7682254655356159e-05 0.0000000000000000e+00  -5.7206833458338516e-06 -2.8095601806837577e-05 0.0000000000000000e+00  -7.6307292826715986e-06 -2.8675170142997682e-05 0.0000000000000000e+00  -9.5434639292027764e-06 -2.9421828466081567e-05 0.0000000000000000e+00  -1.1459590352116364e-05 -3.0336756022727931e-05 0.0000000000000000e+00  -1.3379681836834531e-05 -3.1421295252431725e-05 0.0000000000000000e+00  -1.5304455002729366e-05 -3.2677153494793291e-05 0.0000000000000000e+00  -1.7234518488011116e-05 -3.4106265383402355e-05 0.0000000000000000e+00  -1.9170513531020585e-05 -3.5710867094729719e-05 0.0000000000000000e+00  -2.1113035259136969e-05 -3.7493452587177481e-05 0.0000000000000000e+00  -2.3062699686288658e-05 -3.9456835588730217e-05 0.0000000000000000e+00  -2.5020074197503523e-05 -4.1604135941720951e-05 0.0000000000000000e+00  -2.6985732790720261e-05 -4.3938795475373863e-05 0.0000000000000000e+00  -2.8960229724783030e-05 -4.6464596701088606e-05 0.0000000000000000e+00  -3.0944092567045867e-05 -4.9185678003188061e-05 0.0000000000000000e+00  -3.2937836393115167e-05 -5.2106547918451020e-05 0.0000000000000000e+00  -3.4941952816804083e-05 -5.5232158898195866e-05 0.0000000000000000e+00  -3.6956880012965964e-05 -5.8567785603040049e-05 0.0000000000000000e+00  -3.8983106422812690e-05 -6.2119238230030232e-05 0.0000000000000000e+00  -4.1021083782277291e-05 -6.5892746616393600e-05 0.0000000000000000e+00  -4.3071018820828761e-05 -6.9894966953363481e-05 0.0000000000000000e+00  -4.5133506175732537e-05 -7.4133381723502406e-05 0.0000000000000000e+00  -4.7208773232479333e-05 -7.8615843181380760e-05 0.0000000000000000e+00  -4.9297159345821368e-05 -8.3350893661512568e-05 0.0000000000000000e+00  -5.1398940448321538e-05 -8.8347789775248590e-05 0.0000000000000000e+00  -5.3514380481422027e-05 -9.3616574495468741e-05 0.0000000000000000e+00  -5.5643688884879421e-05 -9.9168126872210407e-05 0.0000000000000000e+00  -5.7787095407481273e-05 -1.0501427044569901e-04 0.0000000000000000e+00  -5.9944741890386127e-05 -1.1116779033503260e-04 0.0000000000000000e+00  -6.2116744964901737e-05 -1.1764268890869150e-04 0.0000000000000000e+00  -6.4303186489659392e-05 -1.2445417108848588e-04 0.0000000000000000e+00  -6.6504530844607094e-05 -1.3161908327519626e-04 0.0000000000000000e+00  -6.8719898148675607e-05 -1.3915556684418267e-04 0.0000000000000000e+00  -7.0950179317449903e-05 -1.4708389803744001e-04 0.0000000000000000e+00  -7.3195018176757645e-05 -1.5542606140367830e-04 0.0000000000000000e+00  -7.5454406950771542e-05 -1.6420665073796039e-04 0.0000000000000000e+00  -7.7728090934268225e-05 -1.7345303437807491e-04 0.0000000000000000e+00  -8.0016098684655799e-05 -1.8319569471012415e-04 0.0000000000000000e+00  -8.2318300901424132e-05 -1.9346865216040866e-04 0.0000000000000000e+00  -8.4634547433319219e-05 -2.0431028333147363e-04 0.0000000000000000e+00  -8.6964463030975002e-05 -2.1576422808924008e-04 0.0000000000000000e+00  -8.9308074188142167e-05 -2.2787994082004687e-04 0.0000000000000000e+00  -9.1664826330731483e-05 -2.4071416387584098e-04 0.0000000000000000e+00  -9.4034220085914677e-05 -2.5433266386118425e-04 0.0000000000000000e+00  -9.6416064353896052e-05 -2.6881253208942021e-04 0.0000000000000000e+00  -9.8810467580900740e-05 -2.8424356339883691e-04 0.0000000000000000e+00  -1.0121683128176153e-04 -3.0073379120250832e-04 0.0000000000000000e+00  -1.0363450567422122e-04 -3.1841298875723073e-04 0.0000000000000000e+00  -1.0606335140673585e-04 -3.3743927585029273e-04 0.0000000000000000e+00  -1.0850143405749941e-04 -3.5801484629067554e-04 0.0000000000000000e+00  -1.1095116811073543e-04 -3.8038598597251794e-04 0.0000000000000000e+00  -1.1340733156811986e-04 -4.0489699834848409e-04 0.0000000000000000e+00  -1.1587032656885898e-04 -4.3199976734257926e-04 0.0000000000000000e+00  -1.1834039001247557e-04 -4.6234240757616447e-04 0.0000000000000000e+00  -1.2082780547032069e-04 -4.9692858578010291e-04 0.0000000000000000e+00  -1.2327222571030557e-04 -5.3750954567288115e-04 0.0000000000000000e+00  -1.2584971359092396e-04 -5.8785836427905475e-04 0.0000000000000000e+00  0.0000000000000000e+00 -5.3082336759075032e-06 0.0000000000000000e+00  0.0000000000000000e+00 -9.9157320490588606e-06 0.0000000000000000e+00  0.0000000000000000e+00 -1.3908252432186676e-05 0.0000000000000000e+00  0.0000000000000000e+00 -1.7358846026054981e-05 0.0000000000000000e+00  0.0000000000000000e+00 -2.0323026585734260e-05 0.0000000000000000e+00  0.0000000000000000e+00 -2.2846477852083475e-05 0.0000000000000000e+00  0.0000000000000000e+00 -2.4967431229400977e-05 0.0000000000000000e+00  0.0000000000000000e+00 -2.6718610389869858e-05 0.0000000000000000e+00  0.0000000000000000e+00 -2.8126009568112116e-05 0.0000000000000000e+00  0.0000000000000000e+00 -2.9218187813344325e-05 0.0000000000000000e+00  0.0000000000000000e+00 -3.0018200107257976e-05 0.0000000000000000e+00  0.0000000000000000e+00 -3.0549998483313542e-05 0.0000000000000000e+00  0.0000000000000000e+00 -3.0838041856360166e-05 0.0000000000000000e+00  0.0000000000000000e+00 -3.0906484636534996e-05 0.0000000000000000e+00  0.0000000000000000e+00 -3.0780123618370863e-05 0.0000000000000000e+00  0.0000000000000000e+00 -3.0484467816848090e-05 0.0000000000000000e+00  0.0000000000000000e+00 -3.0045916091621460e-05 0.0000000000000000e+00  0.0000000000000000e+00 -2.9490813504734127e-05 0.0000000000000000e+00  0.0000000000000000e+00 -2.8845764306246276e-05 0.0000000000000000e+00  0.0000000000000000e+00 -2.8137305601996334e-05 0.0000000000000000e+00  0.0000000000000000e+00 -2.7391558247840386e-05 0.0000000000000000e+00  0.0000000000000000e+00 -2.6633674556606360e-05 0.0000000000000000e+00  0.0000000000000000e+00 -2.5887951422575484e-05 0.0000000000000000e+00  0.0000000000000000e+00 -2.5176515540444157e-05 0.0000000000000000e+00  0.0000000000000000e+00 -2.4520498212985945e-05 0.0000000000000000e+00  0.0000000000000000e+00 -2.3938957663495983e-05 0.0000000000000000e+00  0.0000000000000000e+00 -2.3447938754424348e-05 0.0000000000000000e+00  0.0000000000000000e+00 -2.3061976993428702e-05 0.0000000000000000e+00  0.0000000000000000e+00 -2.2792651250848403e-05 0.0000000000000000e+00  0.0000000000000000e+00 -2.2649057565786386e-05 0.0000000000000000e+00  0.0000000000000000e+00 -2.2637822732433488e-05 0.0000000000000000e+00  0.0000000000000000e+00 -2.2763005379768478e-05 0.0000000000000000e+00  0.0000000000000000e+00 -2.3026346913212498e-05 0.0000000000000000e+00  0.0000000000000000e+00 -2.3427426482332202e-05 0.0000000000000000e+00  0.0000000000000000e+00 -2.3963742189951066e-05 0.0000000000000000e+00  0.0000000000000000e+00 -2.4630952800049328e-05 0.0000000000000000e+00  0.0000000000000000e+00 -2.5423102505704869e-05 0.0000000000000000e+00  0.0000000000000000e+00 -2.6332914614774356e-05 0.0000000000000000e+00  0.0000000000000000e+00 0.0000000000000000e+00 0.0000000000000000e+00  0.0000000000000000e+00 0.0000000000000000e+00 0.0000000000000000e+00  0.0000000000000000e+00 0.0000000000000000e+00 0.0000000000000000e+00  0.0000000000000000e+00 0.0000000000000000e+00 0.0000000000000000e+00  0.0000000000000000e+00 0.0000000000000000e+00 0.0000000000000000e+00  0.0000000000000000e+00 0.0000000000000000e+00 0.0000000000000000e+00  0.0000000000000000e+00 0.0000000000000000e+00 0.0000000000000000e+00  0.0000000000000000e+00 0.0000000000000000e+00 0.0000000000000000e+00  0.0000000000000000e+00 0.0000000000000000e+00 0.0000000000000000e+00  0.0000000000000000e+00 0.0000000000000000e+00 0.0000000000000000e+00  0.0000000000000000e+00 0.0000000000000000e+00 0.0000000000000000e+00  0.0000000000000000e+00 0.0000000000000000e+00 0.0000000000000000e+00  0.0000000000000000e+00 0.0000000000000000e+00 0.0000000000000000e+00  0.0000000000000000e+00 0.0000000000000000e+00 0.0000000000000000e+00  0.0000000000000000e+00 0.0000000000000000e+00 0.0000000000000000e+00  0.0000000000000000e+00 0.0000000000000000e+00 0.0000000000000000e+00  0.0000000000000000e+00 0.0000000000000000e+00 0.0000000000000000e+00  0.0000000000000000e+00 0.0000000000000000e+00 0.0000000000000000e+00  0.0000000000000000e+00 -2.6324635280491523e-05 0.0000000000000000e+00  0.0000000000000000e+00 -2.5409000795286448e-05 0.0000000000000000e+00  0.0000000000000000e+00 -2.4613455774833554e-05 0.0000000000000000e+00  0.0000000000000000e+00 -2.3945189335077505e-05 0.0000000000000000e+00  0.0000000000000000e+00 -2.3410050794006795e-05 0.0000000000000000e+00  0.0000000000000000e+00 -2.3012160181131396e-05 0.0000000000000000e+00  0.0000000000000000e+00 -2.2753745991862874e-05 0.0000000000000000e+00  0.0000000000000000e+00 -2.2634968516285553e-05 0.0000000000000000e+00  0.0000000000000000e+00 -2.2653756512250852e-05 0.0000000000000000e+00  0.0000000000000000e+00 -2.2805558734796449e-05 0.0000000000000000e+00  0.0000000000000000e+00 -2.3083542360195426e-05 0.0000000000000000e+00  0.0000000000000000e+00 -2.3477752818400628e-05 0.0000000000000000e+00  0.0000000000000000e+00 -2.3976645179369059e-05 0.0000000000000000e+00  0.0000000000000000e+00 -2.4565352671713833e-05 0.0000000000000000e+00  0.0000000000000000e+00 -2.5227105424400893e-05 0.0000000000000000e+00  0.0000000000000000e+00 -2.5942440812069731e-05 0.0000000000000000e+00  0.0000000000000000e+00 -2.6690412764424623e-05 0.0000000000000000e+00  0.0000000000000000e+00 -2.7448579777160799e-05 0.0000000000000000e+00  0.0000000000000000e+00 -2.8192347945199868e-05 0.0000000000000000e+00  0.0000000000000000e+00 -2.8896553021959697e-05 0.0000000000000000e+00  0.0000000000000000e+00 -2.9535236515904519e-05 0.0000000000000000e+00  0.0000000000000000e+00 -3.0082052298193250e-05 0.0000000000000000e+00  0.0000000000000000e+00 -3.0510554264318366e-05 0.00000000000