<?xml version="1.0"?>
<VTKFile type="UnstructuredGrid"  version="0.1"  >
<UnstructuredGrid>
<Piece  NumberOfPoints="3167" NumberOfCells="6038">
<Points>
<DataArray  type="Float64"  NumberOfComponents="3"  format="ascii">2.2 2.9 0  0 2.9 0  2.8 2.9 0  5 2.9 0  5 0 0  0 0 0  2.16271186440678 2.9 0  2.125423728813559 2.9 0  2.088135593220339 2.9 0  2.050847457627119 2.9 0  2.013559322033898 2.9 0  1.976271186440678 2.9 0  1.938983050847457 2.9 0  1.901694915254237 2.9 0  1.864406779661016 2.9 0  1.827118644067796 2.9 0  1.789830508474575 2.9 0  1.752542372881355 2.9 0  1.715254237288134 2.9 0  1.677966101694914 2.9 0  1.640677966101693 2.9 0  1.603389830508473 2.9 0  1.566101694915253 2.9 0  1.528813559322032 2.9 0  1.491525423728812 2.9 0  1.454237288135591 2.9 0  1.416949152542371 2.9 0  1.37966101694915 2.9 0  1.34237288135593 2.9 0  1.305084745762709 2.9 0  1.267796610169489 2.9 0  1.230508474576268 2.9 0  1.193220338983048 2.9 0  1.155932203389827 2.9 0  1.118644067796607 2.9 0  1.081355932203387 2.9 0  1.044067796610166 2.9 0  1.006779661016946 2.9 0  0.9694915254237257 2.9 0  0.9322033898305055 2.9 0  0.8949152542372856 2.9 0  0.8576271186440652 2.9 0  0.820338983050845 2.9 0  0.783050847457625 2.9 0  0.7457627118644048 2.9 0  0.7084745762711844 2.9 0  0.6711864406779642 2.9 0  0.633898305084744 2.9 0  0.5966101694915238 2.9 0  0.5593220338983036 2.9 0  0.5220338983050834 2.9 0  0.4847457627118632 2.9 0  0.447457627118643 2.9 0  0.4101694915254228 2.9 0  0.3728813559322024 2.9 0  0.3355932203389822 2.9 0  0.2983050847457622 2.9 0  0.2610169491525418 2.9 0  0.2237288135593216 2.9 0  0.1864406779661016 2.9 0  0.1491525423728812 2.9 0  0.1118644067796613 2.9 0  0.07457627118644039 2.9 0  0.03728813559321997 2.9 0  2.792405063291139 2.9 0  2.784810126582279 2.9 0  2.777215189873418 2.9 0  2.769620253164557 2.9 0  2.762025316455697 2.9 0  2.754430379746836 2.9 0  2.746835443037975 2.9 0  2.739240506329114 2.9 0  2.731645569620254 2.9 0  2.724050632911393 2.9 0  2.716455696202532 2.9 0  2.708860759493671 2.9 0  2.701265822784811 2.9 0  2.69367088607595 2.9 0  2.686075949367089 2.9 0  2.678481012658228 2.9 0  2.670886075949368 2.9 0  2.663291139240507 2.9 0  2.655696202531646 2.9 0  2.648101265822786 2.9 0  2.640506329113925 2.9 0  2.632911392405064 2.9 0  2.625316455696203 2.9 0  2.617721518987342 2.9 0  2.610126582278482 2.9 0  2.602531645569621 2.9 0  2.59493670886076 2.9 0  2.587341772151899 2.9 0  2.579746835443038 2.9 0  2.572151898734178 2.9 0  2.564556962025317 2.9 0  2.556962025316456 2.9 0  2.549367088607595 2.9 0  2.541772151898734 2.9 0  2.534177215189874 2.9 0  2.526582278481013 2.9 0  2.518987341772152 2.9 0  2.511392405063292 2.9 0  2.503797468354431 2.9 0  2.49620253164557 2.9 0  2.488607594936709 2.9 0  2.481012658227848 2.9 0  2.473417721518988 2.9 0  2.465822784810127 2.9 0  2.458227848101266 2.9 0  2.450632911392406 2.9 0  2.443037974683545 2.9 0  2.435443037974684 2.9 0  2.427848101265823 2.9 0  2.420253164556962 2.9 0  2.412658227848102 2.9 0  2.405063291139241 2.9 0  2.39746835443038 2.9 0  2.389873417721519 2.9 0  2.382278481012658 2.9 0  2.374683544303798 2.9 0  2.367088607594937 2.9 0  2.359493670886076 2.9 0  2.351898734177215 2.9 0  2.344303797468355 2.9 0  2.336708860759494 2.9 0  2.329113924050633 2.9 0  2.321518987341773 2.9 0  2.313924050632912 2.9 0  2.306329113924051 2.9 0  2.29873417721519 2.9 0  2.291139240506329 2.9 0  2.283544303797469 2.9 0  2.275949367088608 2.9 0  2.268354430379747 2.9 0  2.260759493670887 2.9 0  2.253164556962026 2.9 0  2.245569620253165 2.9 0  2.237974683544304 2.9 0  2.230379746835443 2.9 0  2.222784810126583 2.9 0  2.215189873417722 2.9 0  2.207594936708861 2.9 0  4.96271186440678 2.9 0  4.925423728813559 2.9 0  4.888135593220339 2.9 0  4.850847457627118 2.9 0  4.813559322033898 2.9 0  4.776271186440677 2.9 0  4.738983050847457 2.9 0  4.701694915254237 2.9 0  4.664406779661016 2.9 0  4.627118644067796 2.9 0  4.589830508474575 2.9 0  4.552542372881355 2.9 0  4.515254237288135 2.9 0  4.477966101694914 2.9 0  4.440677966101694 2.9 0  4.403389830508473 2.9 0  4.366101694915252 2.9 0  4.328813559322032 2.9 0  4.291525423728811 2.9 0  4.254237288135591 2.9 0  4.21694915254237 2.9 0  4.17966101694915 2.9 0  4.14237288135593 2.9 0  4.105084745762709 2.9 0  4.067796610169489 2.9 0  4.030508474576268 2.9 0  3.993220338983048 2.9 0  3.955932203389827 2.9 0  3.918644067796607 2.9 0  3.881355932203387 2.9 0  3.844067796610166 2.9 0  3.806779661016946 2.9 0  3.769491525423725 2.9 0  3.732203389830505 2.9 0  3.694915254237285 2.9 0  3.657627118644065 2.9 0  3.620338983050845 2.9 0  3.583050847457625 2.9 0  3.545762711864405 2.9 0  3.508474576271184 2.9 0  3.471186440677964 2.9 0  3.433898305084744 2.9 0  3.396610169491524 2.9 0  3.359322033898303 2.9 0  3.322033898305083 2.9 0  3.284745762711863 2.9 0  3.247457627118643 2.9 0  3.210169491525423 2.9 0  3.172881355932202 2.9 0  3.135593220338982 2.9 0  3.098305084745762 2.9 0  3.061016949152542 2.9 0  3.023728813559321 2.9 0  2.986440677966101 2.9 0  2.949152542372881 2.9 0  2.911864406779661 2.9 0  2.87457627118644 2.9 0  2.83728813559322 2.9 0  5 0.1063822625082082 0  5 0.210636880010749 0  5 0.3128064053694972 0  5 0.4129325400644018 0  5 0.5110561521032336 0  5 0.6072172918830103 0  5 0.7014552087832795 0  5 0.7938083674443693 0  5 0.88431446261646 0  5 0.9730104359544682 0  5 1.059932489996267 0  5 1.145116102913299 0  5 1.228596043483191 0  5 1.310406385079062 0  5 1.390580519944147 0  5 1.469151172477827 0  5 1.546150411986101 0  5 1.621609666658609 0  5 1.695559736099044 0  5 1.76803080383987 0  5 1.839052450169751 0  5 1.908653663631169 0  5 1.97686285289587 0  5 2.043707858613779 0  5 2.109215964341413 0  5 2.173413907925942 0  5 2.236327892833935 0  5 2.297983597762904 0  5 2.35840618845912 0  5 2.41762032730194 0  5 2.475650183444628 0  5 2.532519442457069 0  5 2.588251316112828 0  5 2.642868552557322 0  5 2.696393444426347 0  5 2.748847838312051 0  5 2.800253144313381 0  5 2.850630344319807 0  0.2631578947368421 0 0  0.5263157894736842 0 0  0.7894736842105263 0 0  1.052631578947368 0 0  1.31578947368421 0 0  1.578947368421053 0 0  1.842105263157895 0 0  2.105263157894737 0 0  2.368421052631579 0 0  2.631578947368421 0 0  2.894736842105263 0 0  3.157894736842105 0 0  3.421052631578947 0 0  3.684210526315789 0 0  3.947368421052632 0 0  4.210526315789473 0 0  4.473684210526315 0 0  4.736842105263158 0 0  0 2.850203682350569 0  0 2.799411438503675 0  0 2.747603349778291 0  0 2.694759099502208 0  0 2.640857964382145 0  0 2.58587880633613 0  0 2.52980006535898 0  0 2.472599749459174 0  0 2.414255427218689 0  0 2.35474421880616 0  0 2.294042786119219 0  0 2.232127324764723 0  0 2.1689735539481 0  0 2.104556707683347 0  0 2.038851524813415 0  0 1.971832238155655 0  0 1.903472565412126 0  0 1.83374569926617 0  0 1.762624296208475 0  0 1.690080464918761 0  0 1.616085756774206 0  0 1.540611154706337 0  0 1.463627060685571 0  0 1.385103284916206 0  0 1.305009033716617 0  0 1.223312897337225 0  0 1.139982838163732 0  0 1.054986177579938 0  0 0.9682895835804817 0  0 0.8798590579197976 0  0 0.7896599218415354 0  0 0.6976568029903638 0  0 0.6038136217958798 0  0 0.508093576867624 0  0 0.4104591310957497 0  0 0.3108719963522191 0  0 0.2092931188294389 0  0 0.1056826638508546 0  1.434832105763824 2.866945754981483 0  1.737156300467626 2.870039440267515 0  2.032203389830508 2.867707527316512 0  2.332911392405064 2.893422591869991 0  2.469810913293406 2.891944186606167 0  2.606221408823969 2.892519154985628 0  2.255455320628894 2.892068685006691 0  2.538247299216212 2.894964578182811 0  2.674683544303798 2.893422591869991 0  2.40126582278481 2.893422591869991 0  3.566125247295424 2.865029336199714 0  3.266101694915253 2.867707527316512 0  2.967796610169491 2.867707527316512 0  1.174288529834642 2.870795313888584 0  3.825423728813556 2.867707527316512 0  2.727766680262011 2.892655387647729 0  0.06601655192030442 1.502119107695954 0  4.933983535508361 1.507650792231964 0  0.9532124728485543 2.868722489783638 0  4.048935912500257 2.870640982995992 0  0.05930163367361763 1.866907161167414 0  4.943402512618553 1.871280731473148 0  4.271733870017743 2.86520865624265 0  0.7249420921613114 2.863922936177041 0  0.05494499779910056 2.196469063120752 0  4.947228695426367 2.208030108792719 0  0.5406152150397161 2.866493807382013 0  4.459322033898304 2.868847558178794 0  2.18135593220339 2.875780645487384 0  2.817027156509632 2.876587550645167 0  4.928427208322876 1.186856073198245 0  0.07189226971603224 1.174626666111662 0  4.610299014423113 2.867003104093161 0  0.3897270066746357 2.869433095314657 0  1.581132500042262 2.868247328632392 0  1.887637879411437 2.869235851794358 0  3.413449426418068 2.867372048034327 0  3.116721298814773 2.865731235547652 0  2.644303797468355 2.893422591869991 0  2.370983221828106 2.892719513369796 0  2.302531645569621 2.893336787387268 0  2.758987341772152 2.894242393897099 0  0.04979653335696277 2.443411216910286 0  4.950470983477169 2.446866954595817 0  2.482937483021586 0.2513241087417575 0  1.707129504814338 0.1999998659920923 0  3.28584657955054 0.229200625631625 0  4.907807122600524 0.834082362900164 0  4.757627118644067 2.867707527316512 0  0.0773489124676745 0.8347594898806663 0  0.2390604736599387 2.861365431805741 0  0.8363213715215729 2.863896768908178 0  4.160865610207075 2.868916854015731 0  1.282549332053297 2.867610952980761 0  1.065094818402487 2.861284686038041 0  3.93818127737282 2.86865134411395 0  3.711492629432973 2.863574306925269 0  4.91369361998929 0.5579891344254361 0  0.08208328472281323 0.5559535993317519 0  2.696596932532885 2.892010483922337 0  0.04706410140274553 2.613055974506516 0  4.955577063972248 2.616518038840186 0  2.234177215189874 2.893422591869991 0  2.279795840559739 2.89403861893984 0  0.9117357887652362 0.2117925286661764 0  4.055948041993057 0.2039101057937727 0  4.872119713780579 2.867632926423075 0  2.780113878992455 2.891535929611743 0  0.1327442468251063 2.85
[...]
<PointData  Vectors="displacement"> 
<DataArray  type="Float64"  Name="displacement"  NumberOfComponents="3" format="ascii">4.0035652410384657e-04 -2.0950145670658163e-03 0.0000000000000000e+00  0.0000000000000000e+00 -8.6263752571420015e-05 0.0000000000000000e+00  -4.0090626862166324e-04 -2.0951004866064304e-03 0.0000000000000000e+00  0.0000000000000000e+00 -8.6263855648906651e-05 0.0000000000000000e+00  0.0000000000000000e+00 0.0000000000000000e+00 0.0000000000000000e+00  0.0000000000000000e+00 0.0000000000000000e+00 0.0000000000000000e+00  3.9683495199856889e-04 -1.8541259679216774e-03 0.0000000000000000e+00  3.8888091290604669e-04 -1.6951616565764507e-03 0.0000000000000000e+00  3.8103523609017942e-04 -1.5672421723939940e-03 0.0000000000000000e+00  3.7323414628378761e-04 -1.4581572286376688e-03 0.0000000000000000e+00  3.6544363023651095e-04 -1.3624526550433357e-03 0.0000000000000000e+00  3.5766941939439114e-04 -1.2769807533210594e-03 0.0000000000000000e+00  3.4991963717412485e-04 -1.1996826762919702e-03 0.0000000000000000e+00  3.4219599376490549e-04 -1.1291229474798450e-03 0.0000000000000000e+00  3.3450638369368841e-04 -1.0642345447672847e-03 0.0000000000000000e+00  3.2684799625660066e-04 -1.0042217099050484e-03 0.0000000000000000e+00  3.1922316804754787e-04 -9.4846582469096906e-04 0.0000000000000000e+00  3.1163364573792425e-04 -8.9646143915484593e-04 0.0000000000000000e+00  3.0408236130671687e-04 -8.4779437150476848e-04 0.0000000000000000e+00  2.9656921760703862e-04 -8.0212649507842185e-04 0.0000000000000000e+00  2.8909594339308539e-04 -7.5917482792084694e-04 0.0000000000000000e+00  2.8166341906106903e-04 -7.1869729992686559e-04 0.0000000000000000e+00  2.7427321713809560e-04 -6.8048674916151028e-04 0.0000000000000000e+00  2.6692452838609506e-04 -6.4436361777624196e-04 0.0000000000000000e+00  2.5961948826955434e-04 -6.1017069948182537e-04 0.0000000000000000e+00  2.5235859152191554e-04 -5.7777115280375243e-04 0.0000000000000000e+00  2.4514246197469348e-04 -5.4704424173721835e-04 0.0000000000000000e+00  2.3797134972102058e-04 -5.1788282713499710e-04 0.0000000000000000e+00  2.3084605825872645e-04 -4.9018964483722564e-04 0.0000000000000000e+00  2.2376604102175869e-04 -4.6387926575354520e-04 0.0000000000000000e+00  2.1673207979719972e-04 -4.3887505549522715e-04 0.0000000000000000e+00  2.0974437261446569e-04 -4.1510646701562869e-04 0.0000000000000000e+00  2.0280274836697500e-04 -3.9250929880321956e-04 0.0000000000000000e+00  1.9590650840134463e-04 -3.7102692750729259e-04 0.0000000000000000e+00  1.8905688704002366e-04 -3.5060660023581721e-04 0.0000000000000000e+00  1.8225154858103216e-04 -3.3119900682742996e-04 0.0000000000000000e+00  1.7549166587637751e-04 -3.1276075487278563e-04 0.0000000000000000e+00  1.6877637028320708e-04 -2.9525178813315413e-04 0.0000000000000000e+00  1.6210445226743381e-04 -2.7863536496884286e-04 0.0000000000000000e+00  1.5547576234475495e-04 -2.6287569353720226e-04 0.0000000000000000e+00  1.4888923893085614e-04 -2.4794219803689235e-04 0.0000000000000000e+00  1.4234420990767856e-04 -2.3380529325185229e-04 0.0000000000000000e+00  1.3583944159885138e-04 -2.2043778521577725e-04 0.0000000000000000e+00  1.2937401225759302e-04 -2.0781525004310802e-04 0.0000000000000000e+00  1.2294674579643605e-04 -1.9591427907607499e-04 0.0000000000000000e+00  1.1655635060184343e-04 -1.8471362243948356e-04 0.0000000000000000e+00  1.1020153251924632e-04 -1.7419360582067054e-04 0.0000000000000000e+00  1.0388092547606235e-04 -1.6433600767777143e-04 0.0000000000000000e+00  9.7592927271354153e-05 -1.5512394338115988e-04 0.0000000000000000e+00  9.1336124799196199e-05 -1.4654209234566599e-04 0.0000000000000000e+00  8.5108844855891856e-05 -1.3857607542001516e-04 0.0000000000000000e+00  7.8909444967138845e-05 -1.3121291939631921e-04 0.0000000000000000e+00  7.2736176982323615e-05 -1.2444066084577819e-04 0.0000000000000000e+00  6.6587263258864664e-05 -1.1824848679198608e-04 0.0000000000000000e+00  6.0460837194951914e-05 -1.1262648601281444e-04 0.0000000000000000e+00  5.4354992776145060e-05 -1.0756584878571313e-04 0.0000000000000000e+00  4.8267985099266195e-05 -1.0305870662831286e-04 0.0000000000000000e+00  4.2197467454647117e-05 -9.9097884221083170e-05 0.0000000000000000e+00  3.6141688932698465e-05 -9.5677313751523486e-05 0.0000000000000000e+00  3.0098606433672290e-05 -9.2791862530326499e-05 0.0000000000000000e+00  2.4066255089359117e-05 -9.0437024290566359e-05 0.0000000000000000e+00  1.8042144461204576e-05 -8.8609142100896782e-05 0.0000000000000000e+00  1.2024509416605990e-05 -8.7305480080310322e-05 0.0000000000000000e+00  6.0111637059003851e-06 -8.6524080893873835e-05 0.0000000000000000e+00  -3.9521586791085877e-04 -2.1683757111292776e-03 0.0000000000000000e+00  -3.8458094291705583e-04 -2.2212059714036437e-03 0.0000000000000000e+00  -3.7417791080566386e-04 -2.2663440968470313e-03 0.0000000000000000e+00  -3.6382566719030953e-04 -2.3066745342528810e-03 0.0000000000000000e+00  -3.5354576353153555e-04 -2.3434731559646366e-03 0.0000000000000000e+00  -3.4327519098542608e-04 -2.3774262501799737e-03 0.0000000000000000e+00  -3.3301162921735576e-04 -2.4089965361885285e-03 0.0000000000000000e+00  -3.2275254122448612e-04 -2.4384929399915095e-03 0.0000000000000000e+00  -3.1249366361834653e-04 -2.4661513165606052e-03 0.0000000000000000e+00  -3.0223832240385131e-04 -2.4921577851720125e-03 0.0000000000000000e+00  -2.9198573512407227e-04 -2.5166579522564554e-03 0.0000000000000000e+00  -2.8173389517901766e-04 -2.5397694663293596e-03 0.0000000000000000e+00  -2.7148313896000045e-04 -2.5615914763021156e-03 0.0000000000000000e+00  -2.6123350724383129e-04 -2.5822050858286759e-03 0.0000000000000000e+00  -2.5098373973282949e-04 -2.6016790379556494e-03 0.0000000000000000e+00  -2.4073531288078254e-04 -2.6200754071501937e-03 0.0000000000000000e+00  -2.3048745839216383e-04 -2.6374455494023101e-03 0.0000000000000000e+00  -2.2024023802923897e-04 -2.6538344753430343e-03 0.0000000000000000e+00  -2.0999352502599770e-04 -2.6692821936960109e-03 0.0000000000000000e+00  -1.9974722890695514e-04 -2.6838237199594134e-03 0.0000000000000000e+00  -1.8950135753057802e-04 -2.6974902007826456e-03 0.0000000000000000e+00  -1.7925589614654780e-04 -2.7103093431890277e-03 0.0000000000000000e+00  -1.6901076048109467e-04 -2.7223056763779601e-03 0.0000000000000000e+00  -1.5876600172593330e-04 -2.7335013432305236e-03 0.0000000000000000e+00  -1.4852155777836338e-04 -2.7439161094606744e-03 0.0000000000000000e+00  -1.3827739634465443e-04 -2.7535674285965217e-03 0.0000000000000000e+00  -1.2803363574680042e-04 -2.7624710938532683e-03 0.0000000000000000e+00  -1.1778994384377377e-04 -2.7706410103317514e-03 0.0000000000000000e+00  -1.0754652039347204e-04 -2.7780898802501558e-03 0.0000000000000000e+00  -9.7303346966762789e-05 -2.7848287618822917e-03 0.0000000000000000e+00  -8.7060374852555622e-05 -2.7908674936334759e-03 0.0000000000000000e+00  -7.6817536139477235e-05 -2.7962146235084692e-03 0.0000000000000000e+00  -6.6574840293151104e-05 -2.8008776668176959e-03 0.0000000000000000e+00  -5.6332308676620331e-05 -2.8048630520905249e-03 0.0000000000000000e+00  -4.6089794723875946e-05 -2.8081760322359881e-03 0.0000000000000000e+00  -3.5847548005213789e-05 -2.8108212650573470e-03 0.0000000000000000e+00  -2.5605196970214491e-05 -2.8128021622317906e-03 0.0000000000000000e+00  -1.5362929989800280e-05 -2.8141212779667010e-03 0.0000000000000000e+00  -5.1207289323297977e-06 -2.8147804136008964e-03 0.0000000000000000e+00  5.1214731432261778e-06 -2.8147804009175264e-03 0.0000000000000000e+00  1.5363684483447093e-05 -2.8141212356019947e-03 0.0000000000000000e+00  2.5605926287099855e-05 -2.8128020670107143e-03 0.0000000000000000e+00  3.5848218871753085e-05 -2.8108211908752438e-03 0.0000000000000000e+00  4.6090556730715939e-05 -2.8081759465772866e-03 0.0000000000000000e+00  5.6333016436689321e-05 -2.8048628217546894e-03 0.0000000000000000e+00  6.6575559951920462e-05 -2.8008774757161104e-03 0.0000000000000000e+00  7.6818240805409774e-05 -2.7962144395205515e-03 0.0000000000000000e+00  8.7061064795628416e-05 -2.7908672849812021e-03 0.0000000000000000e+00  9.7304087646280969e-05 -2.7848285637251144e-03 0.0000000000000000e+00  1.0754726383490540e-04 -2.7780896206148699e-03 0.0000000000000000e+00  1.1779066288011630e-04 -2.7706407556471273e-03 0.0000000000000000e+00  1.2803437261443373e-04 -2.7624707537504097e-03 0.0000000000000000e+00  1.3827820637734464e-04 -2.7535670787117417e-03 0.0000000000000000e+00  1.4852236748237374e-04 -2.7439158319647284e-03 0.0000000000000000e+00  1.5876682532062387e-04 -2.7335011551769270e-03 0.0000000000000000e+00  1.6901161286986727e-04 -2.7223054705717369e-03 0.0000000000000000e+00  1.7925669862402780e-04 -2.7103090602361448e-03 0.0000000000000000e+00  1.8950234224246649e-04 -2.6974900342601514e-03 0.0000000000000000e+00  1.9974839072983277e-04 -2.6838232327884961e-03 0.0000000000000000e+00  2.0999479167410935e-04 -2.6692817025516552e-03 0.0000000000000000e+00  2.2024163267658498e-04 -2.6538339442323828e-03 0.0000000000000000e+00  2.3048904048692692e-04 -2.6374449002259433e-03 0.0000000000000000e+00  2.4073702463868295e-04 -2.6200747403021685e-03 0.0000000000000000e+00  2.5098569598640583e-04 -2.6016780771935238e-03 0.0000000000000000e+00  2.6123509465075361e-04 -2.5822031657034075e-03 0.0000000000000000e+00  2.7148550163404818e-04 -2.5615897559004785e-03 0.0000000000000000e+00  2.8173647732496584e-04 -2.5397678735623016e-03 0.0000000000000000e+00  2.9198855568964867e-04 -2.5166553396649988e-03 0.0000000000000000e+00  3.0224262754874771e-04 -2.4921561853152386e-03 0.0000000000000000e+00  3.1249731554002294e-04 -2.4661491702859086e-03 0.0000000000000000e+00  3.2275372646537408e-04 -2.4384880062245469e-03 0.0000000000000000e+00  3.3301437723134785e-04 -2.4089923102163448e-03 0.0000000000000000e+00  3.4328121940296489e-04 -2.3774287686924534e-03 0.0000000000000000e+00  3.5355015900013755e-04 -2.3434664671780291e-03 0.0000000000000000e+00  3.6382500623921170e-04 -2.3066580776731471e-03 0.0000000000000000e+00  3.7409285220989155e-04 -2.2663400321649408e-03 0.0000000000000000e+00  3.8464893556447872e-04 -2.2213556197929608e-03 0.0000000000000000e+00  3.9515970202817915e-04 -2.1682084206864536e-03 0.0000000000000000e+00  -6.0112107636381804e-06 -8.6524162347376130e-05 0.0000000000000000e+00  -1.2024556965408070e-05 -8.7305572374588012e-05 0.0000000000000000e+00  -1.8042155167630427e-05 -8.8609205698491014e-05 0.0000000000000000e+00  -2.4066146199195866e-05 -9.0437075066380631e-05 0.0000000000000000e+00  -3.0098617007486643e-05 -9.2791920546875895e-05 0.0000000000000000e+00  -3.6141784956675897e-05 -9.5677461302452887e-05 0.0000000000000000e+00  -4.2197458100787253e-05 -9.9097931180749523e-05 0.0000000000000000e+00  -4.8267896547071179e-05 -1.0305871486819756e-04 0.0000000000000000e+00  -5.4355019846806067e-05 -1.0756591390150321e-04 0.0000000000000000e+00  -6.0460850367066938e-05 -1.1262658083722797e-04 0.0000000000000000e+00  -6.6587265048049634e-05 -1.1824858123648618e-04 0.0000000000000000e+00  -7.2736206702912778e-05 -1.2444078916446028e-04 0.0000000000000000e+00  -7.8909464776744448e-05 -1.3121304412389267e-04 0.0000000000000000e+00  -8.5108849570735931e-05 -1.3857620111464423e-04 0.0000000000000000e+00  -9.1336109132011026e-05 -1.4654218959574464e-04 0.0000000000000000e+00  -9.7592907326840190e-05 -1.5512406139467366e-04 0.0000000000000000e+00  -1.0388086862444357e-04 -1.6433603574281076e-04 0.0000000000000000e+00  -1.1020154349915490e-04 -1.7419373190969835e-04 0.0000000000000000e+00  -1.1655631388705021e-04 -1.8471378536343762e-04 0.0000000000000000e+00  -1.2294672025656709e-04 -1.9591452057163744e-04 0.0000000000000000e+00  -1.2937418731334029e-04 -2.0781558548247593e-04 0.0000000000000000e+00  -1.3583936705031051e-04 -2.2043797269907331e-04 0.0000000000000000e+00  -1.4234413486193033e-04 -2.3380528082028065e-04 0.0000000000000000e+00  -1.4888920788705515e-04 -2.4794227464897410e-04 0.0000000000000000e+00  -1.5547565639836497e-04 -2.6287589539400528e-04 0.0000000000000000e+00  -1.6210435064471180e-04 -2.7863533698348057e-04 0.0000000000000000e+00  -1.6877612305679824e-04 -2.9525227340879064e-04 0.0000000000000000e+00  -1.7549163417539493e-04 -3.1276101552005280e-04 0.0000000000000000e+00  -1.8225160859283170e-04 -3.3119885294413237e-04 0.0000000000000000e+00  -1.8905649365430106e-04 -3.5060610797972298e-04 0.0000000000000000e+00  -1.9590665719700439e-04 -3.7102694194280142e-04 0.0000000000000000e+00  -2.0280235739047114e-04 -3.9250930881753760e-04 0.0000000000000000e+00  -2.0974505881761414e-04 -4.1510633956023984e-04 0.0000000000000000e+00  -2.1673198646890727e-04 -4.3887524927781272e-04 0.0000000000000000e+00  -2.2376595015504184e-04 -4.6387998611808611e-04 0.0000000000000000e+00  -2.3084582655747394e-04 -4.9018988596545338e-04 0.0000000000000000e+00  -2.3797159115244082e-04 -5.1788251386588159e-04 0.0000000000000000e+00  -2.4514244063885354e-04 -5.4704418534624324e-04 0.0000000000000000e+00  -2.5235846508238390e-04 -5.7777103716270622e-04 0.0000000000000000e+00  -2.5961925668911505e-04 -6.1017036450591129e-04 0.0000000000000000e+00  -2.6692434190509189e-04 -6.4436320127619331e-04 0.0000000000000000e+00  -2.7427253725154506e-04 -6.8048718089684125e-04 0.0000000000000000e+00  -2.8166392628568751e-04 -7.1869827489400126e-04 0.0000000000000000e+00  -2.8909675996616180e-04 -7.5917543991612074e-04 0.0000000000000000e+00  -2.9656946334789353e-04 -8.0212609371604991e-04 0.0000000000000000e+00  -3.0408143373152736e-04 -8.4779337043587089e-04 0.0000000000000000e+00  -3.1163301313977292e-04 -8.9646046918095447e-04 0.0000000000000000e+00  -3.1922231404248784e-04 -9.4846811071561078e-04 0.0000000000000000e+00  -3.2684728712639927e-04 -1.0042255799266586e-03 0.0000000000000000e+00  -3.3450749289817643e-04 -1.0642315622970847e-03 0.0000000000000000e+00  -3.4219683048904636e-04 -1.1291237459936762e-03 0.0000000000000000e+00  -3.4992291481079088e-04 -1.1996788788364108e-03 0.0000000000000000e+00  -3.5766927648408055e-04 -1.2769828409452274e-03 0.0000000000000000e+00  -3.6543718379410497e-04 -1.3624608046958341e-03 0.0000000000000000e+00  -3.7322738388551155e-04 -1.4581568238940662e-03 0.0000000000000000e+00  -3.8107230956025383e-04 -1.5672363089987958e-03 0.0000000000000000e+00  -3.8878163493251416e-04 -1.6952224132760194e-03 0.0000000000000000e+00  -3.9691063517138754e-04 -1.8540148411877976e-03 0.0000000000000000e+00  0.0000000000000000e+00 -1.6741352362477471e-05 0.0000000000000000e+00  0.0000000000000000e+00 -3.1272693385493311e-05 0.0000000000000000e+00  0.0000000000000000e+00 -4.3864488439973382e-05 0.0000000000000000e+00  0.0000000000000000e+00 -5.4747129774481325e-05 0.0000000000000000e+00  0.0000000000000000e+00 -6.4095699231931567e-05 0.0000000000000000e+00  0.0000000000000000e+00 -7.2054276302725421e-05 0.0000000000000000e+00  0.0000000000000000e+00 -7.8743436954265198e-05 0.0000000000000000e+00  0.0000000000000000e+00 -8.4266386614205679e-05 0.0000000000000000e+00  0.0000000000000000e+00 -8.8705107099431170e-05 0.0000000000000000e+00  0.0000000000000000e+00 -9.2149669257471370e-05 0.0000000000000000e+00  0.0000000000000000e+00 -9.4672784953660669e-05 0.0000000000000000e+00  0.0000000000000000e+00 -9.6349995216605139e-05 0.0000000000000000e+00  0.0000000000000000e+00 -9.7258439700829142e-05 0.0000000000000000e+00  0.0000000000000000e+00 -9.7474297699842190e-05 0.0000000000000000e+00  0.0000000000000000e+00 -9.7075774488709210e-05 0.0000000000000000e+00  0.0000000000000000e+00 -9.6143321576214216e-05 0.0000000000000000e+00  0.0000000000000000e+00 -9.4760196904345646e-05 0.0000000000000000e+00  0.0000000000000000e+00 -9.3009488745701113e-05 0.0000000000000000e+00  0.0000000000000000e+00 -9.0975102812008692e-05 0.0000000000000000e+00  0.0000000000000000e+00 -8.8740733052451241e-05 0.0000000000000000e+00  0.0000000000000000e+00 -8.6388760627805627e-05 0.0000000000000000e+00  0.0000000000000000e+00 -8.3998512063144428e-05 0.0000000000000000e+00  0.0000000000000000e+00 -8.1646616025047133e-05 0.0000000000000000e+00  0.0000000000000000e+00 -7.9402856704479245e-05 0.0000000000000000e+00  0.0000000000000000e+00 -7.7333878979418872e-05 0.0000000000000000e+00  0.0000000000000000e+00 -7.5499789554104378e-05 0.0000000000000000e+00  0.0000000000000000e+00 -7.3951191456263194e-05 0.0000000000000000e+00  0.0000000000000000e+00 -7.2733927440815535e-05 0.0000000000000000e+00  0.0000000000000000e+00 -7.1884515483447016e-05 0.0000000000000000e+00  0.0000000000000000e+00 -7.1431643092097696e-05 0.0000000000000000e+00  0.0000000000000000e+00 -7.1396210156138604e-05 0.0000000000000000e+00  0.0000000000000000e+00 -7.1791016966964391e-05 0.0000000000000000e+00  0.0000000000000000e+00 -7.2621555649364947e-05 0.0000000000000000e+00  0.0000000000000000e+00 -7.3886498905819561e-05 0.0000000000000000e+00  0.0000000000000000e+00 -7.5577956137540695e-05 0.0000000000000000e+00  0.0000000000000000e+00 -7.7682235754004581e-05 0.0000000000000000e+00  0.0000000000000000e+00 -8.0180554056456864e-05 0.0000000000000000e+00  0.0000000000000000e+00 -8.3049961477368504e-05 0.0000000000000000e+00  0.0000000000000000e+00 0.0000000000000000e+00 0.0000000000000000e+00  0.0000000000000000e+00 0.0000000000000000e+00 0.0000000000000000e+00  0.0000000000000000e+00 0.0000000000000000e+00 0.0000000000000000e+00  0.0000000000000000e+00 0.0000000000000000e+00 0.0000000000000000e+00  0.0000000000000000e+00 0.0000000000000000e+00 0.0000000000000000e+00  0.0000000000000000e+00 0.0000000000000000e+00 0.0000000000000000e+00  0.0000000000000000e+00 0.0000000000000000e+00 0.0000000000000000e+00  0.0000000000000000e+00 0.0000000000000000e+00 0.0000000000000000e+00  0.0000000000000000e+00 0.0000000000000000e+00 0.0000000000000000e+00  0.0000000000000000e+00 0.0000000000000000e+00 0.0000000000000000e+00  0.0000000000000000e+00 0.0000000000000000e+00 0.0000000000000000e+00  0.0000000000000000e+00 0.0000000000000000e+00 0.0000000000000000e+00  0.0000000000000000e+00 0.0000000000000000e+00 0.0000000000000000e+00  0.0000000000000000e+00 0.0000000000000000e+00 0.0000000000000000e+00  0.0000000000000000e+00 0.0000000000000000e+00 0.0000000000000000e+00  0.0000000000000000e+00 0.0000000000000000e+00 0.0000000000000000e+00  0.0000000000000000e+00 0.0000000000000000e+00 0.0000000000000000e+00  0.0000000000000000e+00 0.0000000000000000e+00 0.0000000000000000e+00  0.0000000000000000e+00 -8.3023849730780633e-05 0.0000000000000000e+00  0.0000000000000000e+00 -8.0136079431287766e-05 0.0000000000000000e+00  0.0000000000000000e+00 -7.7627052828320989e-05 0.0000000000000000e+00  0.0000000000000000e+00 -7.5519443287551936e-05 0.0000000000000000e+00  0.0000000000000000e+00 -7.3831698658021253e-05 0.0000000000000000e+00  0.0000000000000000e+00 -7.2576812878952739e-05 0.0000000000000000e+00  0.0000000000000000e+00 -7.1761814282028991e-05 0.0000000000000000e+00  0.0000000000000000e+00 -7.1387208397515986e-05 0.0000000000000000e+00  0.0000000000000000e+00 -7.1446462846329643e-05 0.0000000000000000e+00  0.0000000000000000e+00 -7.1925223702050482e-05 0.0000000000000000e+00  0.0000000000000000e+00 -7.2801941289847292e-05 0.0000000000000000e+00  0.0000000000000000e+00 -7.4045220427263695e-05 0.0000000000000000e+00  0.0000000000000000e+00 -7.5618650181087294e-05 0.0000000000000000e+00  0.0000000000000000e+00 -7.7475343041559364e-05 0.0000000000000000e+00  0.0000000000000000e+00 -7.9562409415418622e-05 0.0000000000000000e+00  0.0000000000000000e+00 -8.1818467176528062e-05 0.0000000000000000e+00  0.0000000000000000e+00 -8.4177455641647341e-05 0.0000000000000000e+00  0.0000000000000000e+00 -8.6568597758738370e-05 0.0000000000000000e+00  0.0000000000000000e+00 -8.8914328134861604e-05 0.0000000000000000e+00  0.0000000000000000e+00 -9.1135282607719589e-05 0.0000000000000000e+00  0.0000000000000000e+00 -9.3149592088622474e-05 0.0000000000000000e+00  0.0000000000000000e+00 -9.4874164940456272e-05 0.0000000000000000e+00  0.0000000000000000e+00 -9.6225594218235565e-05 0.00000000000