<?xml version="1.0"?>
<VTKFile type="UnstructuredGrid"  version="0.1"  >
<UnstructuredGrid>
<Piece  NumberOfPoints="3167" NumberOfCells="6038">
<Points>
<DataArray  type="Float64"  NumberOfComponents="3"  format="ascii">2.2 2.9 0  0 2.9 0  2.8 2.9 0  5 2.9 0  5 0 0  0 0 0  2.16271186440678 2.9 0  2.125423728813559 2.9 0  2.088135593220339 2.9 0  2.050847457627119 2.9 0  2.013559322033898 2.9 0  1.976271186440678 2.9 0  1.938983050847457 2.9 0  1.901694915254237 2.9 0  1.864406779661016 2.9 0  1.827118644067796 2.9 0  1.789830508474575 2.9 0  1.752542372881355 2.9 0  1.715254237288134 2.9 0  1.677966101694914 2.9 0  1.640677966101693 2.9 0  1.603389830508473 2.9 0  1.566101694915253 2.9 0  1.528813559322032 2.9 0  1.491525423728812 2.9 0  1.454237288135591 2.9 0  1.416949152542371 2.9 0  1.37966101694915 2.9 0  1.34237288135593 2.9 0  1.305084745762709 2.9 0  1.267796610169489 2.9 0  1.230508474576268 2.9 0  1.193220338983048 2.9 0  1.155932203389827 2.9 0  1.118644067796607 2.9 0  1.081355932203387 2.9 0  1.044067796610166 2.9 0  1.006779661016946 2.9 0  0.9694915254237257 2.9 0  0.9322033898305055 2.9 0  0.8949152542372856 2.9 0  0.8576271186440652 2.9 0  0.820338983050845 2.9 0  0.783050847457625 2.9 0  0.7457627118644048 2.9 0  0.7084745762711844 2.9 0  0.6711864406779642 2.9 0  0.633898305084744 2.9 0  0.5966101694915238 2.9 0  0.5593220338983036 2.9 0  0.5220338983050834 2.9 0  0.4847457627118632 2.9 0  0.447457627118643 2.9 0  0.4101694915254228 2.9 0  0.3728813559322024 2.9 0  0.3355932203389822 2.9 0  0.2983050847457622 2.9 0  0.2610169491525418 2.9 0  0.2237288135593216 2.9 0  0.1864406779661016 2.9 0  0.1491525423728812 2.9 0  0.1118644067796613 2.9 0  0.07457627118644039 2.9 0  0.03728813559321997 2.9 0  2.792405063291139 2.9 0  2.784810126582279 2.9 0  2.777215189873418 2.9 0  2.769620253164557 2.9 0  2.762025316455697 2.9 0  2.754430379746836 2.9 0  2.746835443037975 2.9 0  2.739240506329114 2.9 0  2.731645569620254 2.9 0  2.724050632911393 2.9 0  2.716455696202532 2.9 0  2.708860759493671 2.9 0  2.701265822784811 2.9 0  2.69367088607595 2.9 0  2.686075949367089 2.9 0  2.678481012658228 2.9 0  2.670886075949368 2.9 0  2.663291139240507 2.9 0  2.655696202531646 2.9 0  2.648101265822786 2.9 0  2.640506329113925 2.9 0  2.632911392405064 2.9 0  2.625316455696203 2.9 0  2.617721518987342 2.9 0  2.610126582278482 2.9 0  2.602531645569621 2.9 0  2.59493670886076 2.9 0  2.587341772151899 2.9 0  2.579746835443038 2.9 0  2.572151898734178 2.9 0  2.564556962025317 2.9 0  2.556962025316456 2.9 0  2.549367088607595 2.9 0  2.541772151898734 2.9 0  2.534177215189874 2.9 0  2.526582278481013 2.9 0  2.518987341772152 2.9 0  2.511392405063292 2.9 0  2.503797468354431 2.9 0  2.49620253164557 2.9 0  2.488607594936709 2.9 0  2.481012658227848 2.9 0  2.473417721518988 2.9 0  2.465822784810127 2.9 0  2.458227848101266 2.9 0  2.450632911392406 2.9 0  2.443037974683545 2.9 0  2.435443037974684 2.9 0  2.427848101265823 2.9 0  2.420253164556962 2.9 0  2.412658227848102 2.9 0  2.405063291139241 2.9 0  2.39746835443038 2.9 0  2.389873417721519 2.9 0  2.382278481012658 2.9 0  2.374683544303798 2.9 0  2.367088607594937 2.9 0  2.359493670886076 2.9 0  2.351898734177215 2.9 0  2.344303797468355 2.9 0  2.336708860759494 2.9 0  2.329113924050633 2.9 0  2.321518987341773 2.9 0  2.313924050632912 2.9 0  2.306329113924051 2.9 0  2.29873417721519 2.9 0  2.291139240506329 2.9 0  2.283544303797469 2.9 0  2.275949367088608 2.9 0  2.268354430379747 2.9 0  2.260759493670887 2.9 0  2.253164556962026 2.9 0  2.245569620253165 2.9 0  2.237974683544304 2.9 0  2.230379746835443 2.9 0  2.222784810126583 2.9 0  2.215189873417722 2.9 0  2.207594936708861 2.9 0  4.96271186440678 2.9 0  4.925423728813559 2.9 0  4.888135593220339 2.9 0  4.850847457627118 2.9 0  4.813559322033898 2.9 0  4.776271186440677 2.9 0  4.738983050847457 2.9 0  4.701694915254237 2.9 0  4.664406779661016 2.9 0  4.627118644067796 2.9 0  4.589830508474575 2.9 0  4.552542372881355 2.9 0  4.515254237288135 2.9 0  4.477966101694914 2.9 0  4.440677966101694 2.9 0  4.403389830508473 2.9 0  4.366101694915252 2.9 0  4.328813559322032 2.9 0  4.291525423728811 2.9 0  4.254237288135591 2.9 0  4.21694915254237 2.9 0  4.17966101694915 2.9 0  4.14237288135593 2.9 0  4.105084745762709 2.9 0  4.067796610169489 2.9 0  4.030508474576268 2.9 0  3.993220338983048 2.9 0  3.955932203389827 2.9 0  3.918644067796607 2.9 0  3.881355932203387 2.9 0  3.844067796610166 2.9 0  3.806779661016946 2.9 0  3.769491525423725 2.9 0  3.732203389830505 2.9 0  3.694915254237285 2.9 0  3.657627118644065 2.9 0  3.620338983050845 2.9 0  3.583050847457625 2.9 0  3.545762711864405 2.9 0  3.508474576271184 2.9 0  3.471186440677964 2.9 0  3.433898305084744 2.9 0  3.396610169491524 2.9 0  3.359322033898303 2.9 0  3.322033898305083 2.9 0  3.284745762711863 2.9 0  3.247457627118643 2.9 0  3.210169491525423 2.9 0  3.172881355932202 2.9 0  3.135593220338982 2.9 0  3.098305084745762 2.9 0  3.061016949152542 2.9 0  3.023728813559321 2.9 0  2.986440677966101 2.9 0  2.949152542372881 2.9 0  2.911864406779661 2.9 0  2.87457627118644 2.9 0  2.83728813559322 2.9 0  5 0.1063822625082082 0  5 0.210636880010749 0  5 0.3128064053694972 0  5 0.4129325400644018 0  5 0.5110561521032336 0  5 0.6072172918830103 0  5 0.7014552087832795 0  5 0.7938083674443693 0  5 0.88431446261646 0  5 0.9730104359544682 0  5 1.059932489996267 0  5 1.145116102913299 0  5 1.228596043483191 0  5 1.310406385079062 0  5 1.390580519944147 0  5 1.469151172477827 0  5 1.546150411986101 0  5 1.621609666658609 0  5 1.695559736099044 0  5 1.76803080383987 0  5 1.839052450169751 0  5 1.908653663631169 0  5 1.97686285289587 0  5 2.043707858613779 0  5 2.109215964341413 0  5 2.173413907925942 0  5 2.236327892833935 0  5 2.297983597762904 0  5 2.35840618845912 0  5 2.41762032730194 0  5 2.475650183444628 0  5 2.532519442457069 0  5 2.588251316112828 0  5 2.642868552557322 0  5 2.696393444426347 0  5 2.748847838312051 0  5 2.800253144313381 0  5 2.850630344319807 0  0.2631578947368421 0 0  0.5263157894736842 0 0  0.7894736842105263 0 0  1.052631578947368 0 0  1.31578947368421 0 0  1.578947368421053 0 0  1.842105263157895 0 0  2.105263157894737 0 0  2.368421052631579 0 0  2.631578947368421 0 0  2.894736842105263 0 0  3.157894736842105 0 0  3.421052631578947 0 0  3.684210526315789 0 0  3.947368421052632 0 0  4.210526315789473 0 0  4.473684210526315 0 0  4.736842105263158 0 0  0 2.850203682350569 0  0 2.799411438503675 0  0 2.747603349778291 0  0 2.694759099502208 0  0 2.640857964382145 0  0 2.58587880633613 0  0 2.52980006535898 0  0 2.472599749459174 0  0 2.414255427218689 0  0 2.35474421880616 0  0 2.294042786119219 0  0 2.232127324764723 0  0 2.1689735539481 0  0 2.104556707683347 0  0 2.038851524813415 0  0 1.971832238155655 0  0 1.903472565412126 0  0 1.83374569926617 0  0 1.762624296208475 0  0 1.690080464918761 0  0 1.616085756774206 0  0 1.540611154706337 0  0 1.463627060685571 0  0 1.385103284916206 0  0 1.305009033716617 0  0 1.223312897337225 0  0 1.139982838163732 0  0 1.054986177579938 0  0 0.9682895835804817 0  0 0.8798590579197976 0  0 0.7896599218415354 0  0 0.6976568029903638 0  0 0.6038136217958798 0  0 0.508093576867624 0  0 0.4104591310957497 0  0 0.3108719963522191 0  0 0.2092931188294389 0  0 0.1056826638508546 0  1.434832105763824 2.866945754981483 0  1.737156300467626 2.870039440267515 0  2.032203389830508 2.867707527316512 0  2.332911392405064 2.893422591869991 0  2.469810913293406 2.891944186606167 0  2.606221408823969 2.892519154985628 0  2.255455320628894 2.892068685006691 0  2.538247299216212 2.894964578182811 0  2.674683544303798 2.893422591869991 0  2.40126582278481 2.893422591869991 0  3.566125247295424 2.865029336199714 0  3.266101694915253 2.867707527316512 0  2.967796610169491 2.867707527316512 0  1.174288529834642 2.870795313888584 0  3.825423728813556 2.867707527316512 0  2.727766680262011 2.892655387647729 0  0.06601655192030442 1.502119107695954 0  4.933983535508361 1.507650792231964 0  0.9532124728485543 2.868722489783638 0  4.048935912500257 2.870640982995992 0  0.05930163367361763 1.866907161167414 0  4.943402512618553 1.871280731473148 0  4.271733870017743 2.86520865624265 0  0.7249420921613114 2.863922936177041 0  0.05494499779910056 2.196469063120752 0  4.947228695426367 2.208030108792719 0  0.5406152150397161 2.866493807382013 0  4.459322033898304 2.868847558178794 0  2.18135593220339 2.875780645487384 0  2.817027156509632 2.876587550645167 0  4.928427208322876 1.186856073198245 0  0.07189226971603224 1.174626666111662 0  4.610299014423113 2.867003104093161 0  0.3897270066746357 2.869433095314657 0  1.581132500042262 2.868247328632392 0  1.887637879411437 2.869235851794358 0  3.413449426418068 2.867372048034327 0  3.116721298814773 2.865731235547652 0  2.644303797468355 2.893422591869991 0  2.370983221828106 2.892719513369796 0  2.302531645569621 2.893336787387268 0  2.758987341772152 2.894242393897099 0  0.04979653335696277 2.443411216910286 0  4.950470983477169 2.446866954595817 0  2.482937483021586 0.2513241087417575 0  1.707129504814338 0.1999998659920923 0  3.28584657955054 0.229200625631625 0  4.907807122600524 0.834082362900164 0  4.757627118644067 2.867707527316512 0  0.0773489124676745 0.8347594898806663 0  0.2390604736599387 2.861365431805741 0  0.8363213715215729 2.863896768908178 0  4.160865610207075 2.868916854015731 0  1.282549332053297 2.867610952980761 0  1.065094818402487 2.861284686038041 0  3.93818127737282 2.86865134411395 0  3.711492629432973 2.863574306925269 0  4.91369361998929 0.5579891344254361 0  0.08208328472281323 0.5559535993317519 0  2.696596932532885 2.892010483922337 0  0.04706410140274553 2.613055974506516 0  4.955577063972248 2.616518038840186 0  2.234177215189874 2.893422591869991 0  2.279795840559739 2.89403861893984 0  0.9117357887652362 0.2117925286661764 0  4.055948041993057 0.2039101057937727 0  4.872119713780579 2.867632926423075 0  2.780113878992455 2.891535929611743 0  0.1327442468251063 2.85
[...]
<PointData  Vectors="displacement"> 
<DataArray  type="Float64"  Name="displacement"  NumberOfComponents="3" format="ascii">1.7478979954777540e-03 -9.1465270123117486e-03 0.0000000000000000e+00  0.0000000000000000e+00 -3.7661491976302426e-04 0.0000000000000000e+00  -1.7502980995921633e-03 -9.1469021244524676e-03 0.0000000000000000e+00  0.0000000000000000e+00 -3.7661536978425569e-04 0.0000000000000000e+00  0.0000000000000000e+00 0.0000000000000000e+00 0.0000000000000000e+00  0.0000000000000000e+00 0.0000000000000000e+00 0.0000000000000000e+00  1.7325233270181269e-03 -8.0948426404385560e-03 0.0000000000000000e+00  1.6977971563458996e-03 -7.4008277201752437e-03 0.0000000000000000e+00  1.6635440795156500e-03 -6.8423499721591572e-03 0.0000000000000000e+00  1.6294856630438407e-03 -6.3661010713693452e-03 0.0000000000000000e+00  1.5954734100569517e-03 -5.9482689086038385e-03 0.0000000000000000e+00  1.5615323432096513e-03 -5.5751110937675603e-03 0.0000000000000000e+00  1.5276979281504349e-03 -5.2376390013722639e-03 0.0000000000000000e+00  1.4939776313150624e-03 -4.9295855511925016e-03 0.0000000000000000e+00  1.4604059190529205e-03 -4.6462922808132787e-03 0.0000000000000000e+00  1.4269705202422183e-03 -4.3842850261708241e-03 0.0000000000000000e+00  1.3936816361100125e-03 -4.1408629907239980e-03 0.0000000000000000e+00  1.3605468923679983e-03 -3.9138194538711601e-03 0.0000000000000000e+00  1.3275790896073614e-03 -3.7013461585208222e-03 0.0000000000000000e+00  1.2947778036990123e-03 -3.5019668931472593e-03 0.0000000000000000e+00  1.2621505821307777e-03 -3.3144461999471131e-03 0.0000000000000000e+00  1.2297012685836789e-03 -3.1377272362660695e-03 0.0000000000000000e+00  1.1974367284809412e-03 -2.9709055634124459e-03 0.0000000000000000e+00  1.1653534288075757e-03 -2.8131972580962782e-03 0.0000000000000000e+00  1.1334606926890196e-03 -2.6639159806645558e-03 0.0000000000000000e+00  1.1017606800590878e-03 -2.5224643012651633e-03 0.0000000000000000e+00  1.0702561144748707e-03 -2.3883151041698093e-03 0.0000000000000000e+00  1.0389480878063970e-03 -2.2610006355405971e-03 0.0000000000000000e+00  1.0078401080076006e-03 -2.1400962542893502e-03 0.0000000000000000e+00  9.7692978885108414e-04 -2.0252289895093794e-03 0.0000000000000000e+00  9.4622054350483945e-04 -1.9160642666742867e-03 0.0000000000000000e+00  9.1571323653631719e-04 -1.8122940877023828e-03 0.0000000000000000e+00  8.8540712091922434e-04 -1.7136381581896690e-03 0.0000000000000000e+00  8.5529914643513204e-04 -1.6198492688733045e-03 0.0000000000000000e+00  8.2539470195522053e-04 -1.5306971083466211e-03 0.0000000000000000e+00  7.9568359014645204e-04 -1.4459663956612207e-03 0.0000000000000000e+00  7.6617093150905895e-04 -1.3654676859080224e-03 0.0000000000000000e+00  7.3685293367546211e-04 -1.2890260994106067e-03 0.0000000000000000e+00  7.0772431599684313e-04 -1.2164812275469031e-03 0.0000000000000000e+00  6.7878442584660861e-04 -1.1476768083697399e-03 0.0000000000000000e+00  6.5002862850300212e-04 -1.0824793524049732e-03 0.0000000000000000e+00  6.2145398959693207e-04 -1.0207596949288232e-03 0.0000000000000000e+00  5.9305512307790897e-04 -9.6239911106400864e-04 0.0000000000000000e+00  5.6482800473436835e-04 -9.0729096970040347e-04 0.0000000000000000e+00  5.3676749994053760e-04 -8.5533307206384513e-04 0.0000000000000000e+00  5.0886796970073093e-04 -8.0643264430896940e-04 0.0000000000000000e+00  4.8112376392549032e-04 -7.6050379126585800e-04 0.0000000000000000e+00  4.5352891854183290e-04 -7.1746696034929601e-04 0.0000000000000000e+00  4.2607643857493614e-04 -6.7724843573726005e-04 0.0000000000000000e+00  3.9876015461112432e-04 -6.3978132999693100e-04 0.0000000000000000e+00  3.7157276168791828e-04 -6.0500286585811502e-04 0.0000000000000000e+00  3.4450708900287481e-04 -5.7285640419368596e-04 0.0000000000000000e+00  3.1755550438624281e-04 -5.4328971442424955e-04 0.0000000000000000e+00  2.9071024691065432e-04 -5.1625558867720678e-04 0.0000000000000000e+00  2.6396316726576681e-04 -4.9171075600716314e-04 0.0000000000000000e+00  2.3730594407146398e-04 -4.6961675445469795e-04 0.0000000000000000e+00  2.1073095933582219e-04 -4.4993923137726490e-04 0.0000000000000000e+00  1.8422796766785128e-04 -4.3264686037984898e-04 0.0000000000000000e+00  1.5778932485251422e-04 -4.1771315028103849e-04 0.0000000000000000e+00  1.3140611101530140e-04 -4.0511569251044845e-04 0.0000000000000000e+00  1.0506974782915585e-04 -3.9483481336612873e-04 0.0000000000000000e+00  7.8769362403795698e-05 -3.8685454722098544e-04 0.0000000000000000e+00  5.2497248428595792e-05 -3.8116294961890971e-04 0.0000000000000000e+00  2.6243861057467958e-05 -3.7775147512202832e-04 0.0000000000000000e+00  -1.7254546428303594e-03 -9.4668110315156342e-03 0.0000000000000000e+00  -1.6790241166379019e-03 -9.6974602166159211e-03 0.0000000000000000e+00  -1.6336060008345081e-03 -9.8945266667224124e-03 0.0000000000000000e+00  -1.5884096201723521e-03 -1.0070603454421123e-02 0.0000000000000000e+00  -1.5435290651742888e-03 -1.0231260851650497e-02 0.0000000000000000e+00  -1.4986892484485923e-03 -1.0379495092249171e-02 0.0000000000000000e+00  -1.4538800397538455e-03 -1.0517326340920657e-02 0.0000000000000000e+00  -1.4090903629069276e-03 -1.0646103323377573e-02 0.0000000000000000e+00  -1.3643016045776844e-03 -1.0766855747910944e-02 0.0000000000000000e+00  -1.3195282856168404e-03 -1.0880396184043673e-02 0.0000000000000000e+00  -1.2747669899319507e-03 -1.0987360328144043e-02 0.0000000000000000e+00  -1.2300089570011035e-03 -1.1088261816413552e-02 0.0000000000000000e+00  -1.1852556554595387e-03 -1.1183533518489738e-02 0.0000000000000000e+00  -1.1405072633328495e-03 -1.1273529521056914e-02 0.0000000000000000e+00  -1.0957582783457944e-03 -1.1358549946196617e-02 0.0000000000000000e+00  -1.0510151464795405e-03 -1.1438865801948415e-02 0.0000000000000000e+00  -1.0062745134682546e-03 -1.1514701301049122e-02 0.0000000000000000e+00  -9.6153664895694821e-04 -1.1586252953326919e-02 0.0000000000000000e+00  -9.1680099950377310e-04 -1.1653695431014301e-02 0.0000000000000000e+00  -8.7206717010600103e-04 -1.1717181606652086e-02 0.0000000000000000e+00  -8.2733519507254916e-04 -1.1776847461953512e-02 0.0000000000000000e+00  -7.8260501000568543e-04 -1.1832813961727721e-02 0.0000000000000000e+00  -7.3787624697846279e-04 -1.1885188196869649e-02 0.0000000000000000e+00  -6.9314912948641757e-04 -1.1934066839957664e-02 0.0000000000000000e+00  -6.4842338639824638e-04 -1.1979536185206375e-02 0.0000000000000000e+00  -6.0369887672424882e-04 -1.2021672432165315e-02 0.0000000000000000e+00  -5.5897611704093476e-04 -1.2060544531700869e-02 0.0000000000000000e+00  -5.1425365726918363e-04 -1.2096213191448385e-02 0.0000000000000000e+00  -4.6953236952274524e-04 -1.2128733867433614e-02 0.0000000000000000e+00  -4.2481217334272239e-04 -1.2158154838461737e-02 0.0000000000000000e+00  -3.8009285606362277e-04 -1.2184519057570550e-02 0.0000000000000000e+00  -3.3537412119432860e-04 -1.2207863844097966e-02 0.0000000000000000e+00  -2.9065601006036810e-04 -1.2228222008789476e-02 0.0000000000000000e+00  -2.4593861592966043e-04 -1.2245621617663533e-02 0.0000000000000000e+00  -2.0122129891645896e-04 -1.2260085604152265e-02 0.0000000000000000e+00  -1.5650514860815265e-04 -1.2271634303543073e-02 0.0000000000000000e+00  -1.1178854286998423e-04 -1.2280282610719291e-02 0.0000000000000000e+00  -6.7072304101834694e-05 -1.2286041676976587e-02 0.0000000000000000e+00  -2.2356353143609723e-05 -1.2288919366696611e-02 0.0000000000000000e+00  2.2359602259427053e-05 -1.2288919311322876e-02 0.0000000000000000e+00  6.7075598110635649e-05 -1.2286041492018483e-02 0.0000000000000000e+00  1.1179172696072843e-04 -1.2280282194998016e-02 0.0000000000000000e+00  1.5650807751323896e-04 -1.2271633979674864e-02 0.0000000000000000e+00  2.0122462572675948e-04 -1.2260085230178904e-02 0.0000000000000000e+00  2.4594170590649657e-04 -1.2245620612050988e-02 0.0000000000000000e+00  2.9065915198518911e-04 -1.2228221174467925e-02 0.0000000000000000e+00  3.3537719766261830e-04 -1.2207863040833659e-02 0.0000000000000000e+00  3.8009586825406093e-04 -1.2184518146625269e-02 0.0000000000000000e+00  4.2481540704105743e-04 -1.2158153973336491e-02 0.0000000000000000e+00  4.6953561527919850e-04 -1.2128732733903963e-02 0.0000000000000000e+00  5.1425679647658287e-04 -1.2096212079532605e-02 0.0000000000000000e+00  5.5897933409713996e-04 -1.2060543046861577e-02 0.0000000000000000e+00  6.0370241320838582e-04 -1.2021670904619589e-02 0.0000000000000000e+00  6.4842692144741600e-04 -1.1979534973699680e-02 0.0000000000000000e+00  6.9315272518026398e-04 -1.1934066018943184e-02 0.0000000000000000e+00  7.3787996838305841e-04 -1.1885187298349795e-02 0.0000000000000000e+00  7.8260851350488126e-04 -1.1832812726396857e-02 0.0000000000000000e+00  8.2733949418050420e-04 -1.1776846734940670e-02 0.0000000000000000e+00  8.7207224245461508e-04 -1.1717179479735166e-02 0.0000000000000000e+00  9.1680652950401793e-04 -1.1653693286749929e-02 0.0000000000000000e+00  9.6154273778311869e-04 -1.1586250634575541e-02 0.0000000000000000e+00  1.0062814206624167e-03 -1.1514698466840121e-02 0.0000000000000000e+00  1.0510226197639858e-03 -1.1438862890587541e-02 0.0000000000000000e+00  1.0957668190625812e-03 -1.1358545751649790e-02 0.0000000000000000e+00  1.1405141937191248e-03 -1.1273521138070995e-02 0.0000000000000000e+00  1.1852659705486291e-03 -1.1183526007467956e-02 0.0000000000000000e+00  1.2300202302723941e-03 -1.1088254862625680e-02 0.0000000000000000e+00  1.2747793041084485e-03 -1.0987348921952099e-02 0.0000000000000000e+00  1.3195470812493930e-03 -1.0880389199303130e-02 0.0000000000000000e+00  1.3643175483332545e-03 -1.0766846377589720e-02 0.0000000000000000e+00  1.4090955374951543e-03 -1.0646081783273035e-02 0.0000000000000000e+00  1.4538920371807464e-03 -1.0517307890944539e-02 0.0000000000000000e+00  1.4987155676373196e-03 -1.0379506087706089e-02 0.0000000000000000e+00  1.5435482551469256e-03 -1.0231231649387022e-02 0.0000000000000000e+00  1.5884067345565431e-03 -1.0070531607402292e-02 0.0000000000000000e+00  1.6332346474529260e-03 -9.8945089209152431e-03 0.0000000000000000e+00  1.6793209625863669e-03 -9.6981135595839117e-03 0.0000000000000000e+00  1.7252094308059379e-03 -9.4660806659237970e-03 0.0000000000000000e+00  -2.6244066504664963e-05 -3.7775183073611419e-04 0.0000000000000000e+00  -5.2497456019709172e-05 -3.8116335256223219e-04 0.0000000000000000e+00  -7.8769409146485617e-05 -3.8685482487878215e-04 0.0000000000000000e+00  -1.0506927243063672e-04 -3.9483503504590879e-04 0.0000000000000000e+00  -1.3140615717902797e-04 -4.0511594580222061e-04 0.0000000000000000e+00  -1.5778974407914645e-04 -4.1771379446681059e-04 0.0000000000000000e+00  -1.8422792683026856e-04 -4.3264706539888832e-04 0.0000000000000000e+00  -2.1073057272989970e-04 -4.4993926735140594e-04 0.0000000000000000e+00  -2.3730606225800974e-04 -4.6961703874071601e-04 0.0000000000000000e+00  -2.6396322477329506e-04 -4.9171116999668246e-04 0.0000000000000000e+00  -2.9071025472197654e-04 -5.1625600100807761e-04 0.0000000000000000e+00  -3.1755563414198916e-04 -5.4329027464484082e-04 0.0000000000000000e+00  -3.4450717548871896e-04 -5.7285694873602220e-04 0.0000000000000000e+00  -3.7157278227224202e-04 -6.0500341462247427e-04 0.0000000000000000e+00  -3.9876008621049242e-04 -6.3978175457654433e-04 0.0000000000000000e+00  -4.2607635150011320e-04 -6.7724895096699328e-04 0.0000000000000000e+00  -4.5352867033599144e-04 -7.1746708287715138e-04 0.0000000000000000e+00  -4.8112381186217148e-04 -7.6050434175210216e-04 0.0000000000000000e+00  -5.0886780940932611e-04 -8.0643335561110952e-04 0.0000000000000000e+00  -5.3676738843721800e-04 -8.5533412639812734e-04 0.0000000000000000e+00  -5.6482876900215207e-04 -9.0729243417959253e-04 0.0000000000000000e+00  -5.9305479760990182e-04 -9.6239992958864007e-04 0.0000000000000000e+00  -6.2145366195819583e-04 -1.0207596406544004e-03 0.0000000000000000e+00  -6.5002849297032600e-04 -1.0824796868821108e-03 0.0000000000000000e+00  -6.7878396330018926e-04 -1.1476776896470005e-03 0.0000000000000000e+00  -7.0772387232692169e-04 -1.2164811053669065e-03 0.0000000000000000e+00  -7.3685185432115241e-04 -1.2890282180530190e-03 0.0000000000000000e+00  -7.6617079310722144e-04 -1.3654688238558461e-03 0.0000000000000000e+00  -7.9568385214920216e-04 -1.4459657238292652e-03 0.0000000000000000e+00  -8.2539298449073903e-04 -1.5306949592285499e-03 0.0000000000000000e+00  -8.5529979605522533e-04 -1.6198493318966239e-03 0.0000000000000000e+00  -8.8540541397304641e-04 -1.7136382019107149e-03 0.0000000000000000e+00  -9.1571623239886731e-04 -1.8122935312508057e-03 0.0000000000000000e+00  -9.4622013604719641e-04 -1.9160651127006995e-03 0.0000000000000000e+00  -9.7692939214031986e-04 -2.0252321345155546e-03 0.0000000000000000e+00  -1.0078390964338643e-03 -2.1400973070199113e-03 0.0000000000000000e+00  -1.0389491418606755e-03 -2.2609992678534838e-03 0.0000000000000000e+00  -1.0702560213257432e-03 -2.3883148579750680e-03 0.0000000000000000e+00  -1.1017601280426184e-03 -2.5224637963932846e-03 0.0000000000000000e+00  -1.1334596816427395e-03 -2.6639145182087397e-03 0.0000000000000000e+00  -1.1653526146588327e-03 -2.8131954397180203e-03 0.0000000000000000e+00  -1.1974337601957886e-03 -2.9709074483057268e-03 0.0000000000000000e+00  -1.2297034830521653e-03 -3.1377314928299096e-03 0.0000000000000000e+00  -1.2621541471693574e-03 -3.3144488718289196e-03 0.0000000000000000e+00  -1.2947788765676513e-03 -3.5019651408578841e-03 0.0000000000000000e+00  -1.3275750399498571e-03 -3.7013417880005176e-03 0.0000000000000000e+00  -1.3605441305370794e-03 -3.9138152191071033e-03 0.0000000000000000e+00  -1.3936779076489305e-03 -4.1408729711730433e-03 0.0000000000000000e+00  -1.4269674242835678e-03 -4.3843019221188372e-03 0.0000000000000000e+00  -1.4604107616774237e-03 -4.6462792597848470e-03 0.0000000000000000e+00  -1.4939812843302485e-03 -4.9295890373870352e-03 0.0000000000000000e+00  -1.5277122378324966e-03 -5.2376224222370239e-03 0.0000000000000000e+00  -1.5615317192841753e-03 -5.5751202080291775e-03 0.0000000000000000e+00  -1.5954452658328172e-03 -5.9483044887940206e-03 0.0000000000000000e+00  -1.6294561394026225e-03 -6.3660993043180084e-03 0.0000000000000000e+00  -1.6637059368606434e-03 -6.8423243734337747e-03 0.0000000000000000e+00  -1.6973637232419723e-03 -7.4010929750343412e-03 0.0000000000000000e+00  -1.7328537486751040e-03 -8.0943574773808830e-03 0.0000000000000000e+00  0.0000000000000000e+00 -7.3090294460573675e-05 0.0000000000000000e+00  0.0000000000000000e+00 -1.3653200282934849e-04 0.0000000000000000e+00  0.0000000000000000e+00 -1.9150593733549282e-04 0.0000000000000000e+00  0.0000000000000000e+00 -2.3901795682029807e-04 0.0000000000000000e+00  0.0000000000000000e+00 -2.7983244298818952e-04 0.0000000000000000e+00  0.0000000000000000e+00 -3.1457842580946092e-04 0.0000000000000000e+00  0.0000000000000000e+00 -3.4378232231252519e-04 0.0000000000000000e+00  0.0000000000000000e+00 -3.6789471229128917e-04 0.0000000000000000e+00  0.0000000000000000e+00 -3.8727351636093100e-04 0.0000000000000000e+00  0.0000000000000000e+00 -4.0231197066066575e-04 0.0000000000000000e+00  0.0000000000000000e+00 -4.1332752455378459e-04 0.0000000000000000e+00  0.0000000000000000e+00 -4.2064997911639489e-04 0.0000000000000000e+00  0.0000000000000000e+00 -4.2461611479141970e-04 0.0000000000000000e+00  0.0000000000000000e+00 -4.2555851922613537e-04 0.0000000000000000e+00  0.0000000000000000e+00 -4.2381862520679623e-04 0.0000000000000000e+00  0.0000000000000000e+00 -4.1974767224736952e-04 0.0000000000000000e+00  0.0000000000000000e+00 -4.1370915233848005e-04 0.0000000000000000e+00  0.0000000000000000e+00 -4.0606581671903262e-04 0.0000000000000000e+00  0.0000000000000000e+00 -3.9718398544754470e-04 0.0000000000000000e+00  0.0000000000000000e+00 -3.8742905405826075e-04 0.0000000000000000e+00  0.0000000000000000e+00 -3.7716068664334117e-04 0.0000000000000000e+00  0.0000000000000000e+00 -3.6672521120250469e-04 0.0000000000000000e+00  0.0000000000000000e+00 -3.5645717728008077e-04 0.0000000000000000e+00  0.0000000000000000e+00 -3.4666125244150271e-04 0.0000000000000000e+00  0.0000000000000000e+00 -3.3762839847112212e-04 0.0000000000000000e+00  0.0000000000000000e+00 -3.2962103244352713e-04 0.0000000000000000e+00  0.0000000000000000e+00 -3.2286007977246609e-04 0.0000000000000000e+00  0.0000000000000000e+00 -3.1754568321721953e-04 0.0000000000000000e+00  0.0000000000000000e+00 -3.1383727491553768e-04 0.0000000000000000e+00  0.0000000000000000e+00 -3.1186010032891343e-04 0.0000000000000000e+00  0.0000000000000000e+00 -3.1170540531582649e-04 0.0000000000000000e+00  0.0000000000000000e+00 -3.1342907407528491e-04 0.0000000000000000e+00  0.0000000000000000e+00 -3.1705508442040134e-04 0.0000000000000000e+00  0.0000000000000000e+00 -3.2257764156443488e-04 0.0000000000000000e+00  0.0000000000000000e+00 -3.2996229630780750e-04 0.0000000000000000e+00  0.0000000000000000e+00 -3.3914927316992674e-04 0.0000000000000000e+00  0.0000000000000000e+00 -3.5005656527087640e-04 0.0000000000000000e+00  0.0000000000000000e+00 -3.6258397815729966e-04 0.0000000000000000e+00  0.0000000000000000e+00 0.0000000000000000e+00 0.0000000000000000e+00  0.0000000000000000e+00 0.0000000000000000e+00 0.0000000000000000e+00  0.0000000000000000e+00 0.0000000000000000e+00 0.0000000000000000e+00  0.0000000000000000e+00 0.0000000000000000e+00 0.0000000000000000e+00  0.0000000000000000e+00 0.0000000000000000e+00 0.0000000000000000e+00  0.0000000000000000e+00 0.0000000000000000e+00 0.0000000000000000e+00  0.0000000000000000e+00 0.0000000000000000e+00 0.0000000000000000e+00  0.0000000000000000e+00 0.0000000000000000e+00 0.0000000000000000e+00  0.0000000000000000e+00 0.0000000000000000e+00 0.0000000000000000e+00  0.0000000000000000e+00 0.0000000000000000e+00 0.0000000000000000e+00  0.0000000000000000e+00 0.0000000000000000e+00 0.0000000000000000e+00  0.0000000000000000e+00 0.0000000000000000e+00 0.0000000000000000e+00  0.0000000000000000e+00 0.0000000000000000e+00 0.0000000000000000e+00  0.0000000000000000e+00 0.0000000000000000e+00 0.0000000000000000e+00  0.0000000000000000e+00 0.0000000000000000e+00 0.0000000000000000e+00  0.0000000000000000e+00 0.0000000000000000e+00 0.0000000000000000e+00  0.0000000000000000e+00 0.0000000000000000e+00 0.0000000000000000e+00  0.0000000000000000e+00 0.0000000000000000e+00 0.0000000000000000e+00  0.0000000000000000e+00 -3.6246997809291604e-04 0.0000000000000000e+00  0.0000000000000000e+00 -3.4986239556586050e-04 0.0000000000000000e+00  0.0000000000000000e+00 -3.3890835259193120e-04 0.0000000000000000e+00  0.0000000000000000e+00 -3.2970683776760098e-04 0.0000000000000000e+00  0.0000000000000000e+00 -3.2233839170208941e-04 0.0000000000000000e+00  0.0000000000000000e+00 -3.1685974403249697e-04 0.0000000000000000e+00  0.0000000000000000e+00 -3.1330157942641526e-04 0.0000000000000000e+00  0.0000000000000000e+00 -3.1166610495500475e-04 0.0000000000000000e+00  0.0000000000000000e+00 -3.1192480120714256e-04 0.0000000000000000e+00  0.0000000000000000e+00 -3.1401500104065504e-04 0.0000000000000000e+00  0.0000000000000000e+00 -3.1784262172884125e-04 0.0000000000000000e+00  0.0000000000000000e+00 -3.2327059649951657e-04 0.0000000000000000e+00  0.0000000000000000e+00 -3.3013996054669949e-04 0.0000000000000000e+00  0.0000000000000000e+00 -3.3824600986437559e-04 0.0000000000000000e+00  0.0000000000000000e+00 -3.4735783622829702e-04 0.0000000000000000e+00  0.0000000000000000e+00 -3.5720745425850539e-04 0.0000000000000000e+00  0.0000000000000000e+00 -3.6750645267938841e-04 0.0000000000000000e+00  0.0000000000000000e+00 -3.7794582923937240e-04 0.0000000000000000e+00  0.0000000000000000e+00 -3.8818694478390915e-04 0.0000000000000000e+00  0.0000000000000000e+00 -3.9788330699468144e-04 0.0000000000000000e+00  0.0000000000000000e+00 -4.0667748741130872e-04 0.0000000000000000e+00  0.0000000000000000e+00 -4.1420672010589697e-04 0.0000000000000000e+00  0.0000000000000000e+00 -4.2010686256254483e-04 0.00000000000