<?xml version="1.0"?>
<VTKFile type="UnstructuredGrid"  version="0.1"  >
<UnstructuredGrid>
<Piece  NumberOfPoints="3167" NumberOfCells="6038">
<Points>
<DataArray  type="Float64"  NumberOfComponents="3"  format="ascii">2.2 2.9 0  0 2.9 0  2.8 2.9 0  5 2.9 0  5 0 0  0 0 0  2.16271186440678 2.9 0  2.125423728813559 2.9 0  2.088135593220339 2.9 0  2.050847457627119 2.9 0  2.013559322033898 2.9 0  1.976271186440678 2.9 0  1.938983050847457 2.9 0  1.901694915254237 2.9 0  1.864406779661016 2.9 0  1.827118644067796 2.9 0  1.789830508474575 2.9 0  1.752542372881355 2.9 0  1.715254237288134 2.9 0  1.677966101694914 2.9 0  1.640677966101693 2.9 0  1.603389830508473 2.9 0  1.566101694915253 2.9 0  1.528813559322032 2.9 0  1.491525423728812 2.9 0  1.454237288135591 2.9 0  1.416949152542371 2.9 0  1.37966101694915 2.9 0  1.34237288135593 2.9 0  1.305084745762709 2.9 0  1.267796610169489 2.9 0  1.230508474576268 2.9 0  1.193220338983048 2.9 0  1.155932203389827 2.9 0  1.118644067796607 2.9 0  1.081355932203387 2.9 0  1.044067796610166 2.9 0  1.006779661016946 2.9 0  0.9694915254237257 2.9 0  0.9322033898305055 2.9 0  0.8949152542372856 2.9 0  0.8576271186440652 2.9 0  0.820338983050845 2.9 0  0.783050847457625 2.9 0  0.7457627118644048 2.9 0  0.7084745762711844 2.9 0  0.6711864406779642 2.9 0  0.633898305084744 2.9 0  0.5966101694915238 2.9 0  0.5593220338983036 2.9 0  0.5220338983050834 2.9 0  0.4847457627118632 2.9 0  0.447457627118643 2.9 0  0.4101694915254228 2.9 0  0.3728813559322024 2.9 0  0.3355932203389822 2.9 0  0.2983050847457622 2.9 0  0.2610169491525418 2.9 0  0.2237288135593216 2.9 0  0.1864406779661016 2.9 0  0.1491525423728812 2.9 0  0.1118644067796613 2.9 0  0.07457627118644039 2.9 0  0.03728813559321997 2.9 0  2.792405063291139 2.9 0  2.784810126582279 2.9 0  2.777215189873418 2.9 0  2.769620253164557 2.9 0  2.762025316455697 2.9 0  2.754430379746836 2.9 0  2.746835443037975 2.9 0  2.739240506329114 2.9 0  2.731645569620254 2.9 0  2.724050632911393 2.9 0  2.716455696202532 2.9 0  2.708860759493671 2.9 0  2.701265822784811 2.9 0  2.69367088607595 2.9 0  2.686075949367089 2.9 0  2.678481012658228 2.9 0  2.670886075949368 2.9 0  2.663291139240507 2.9 0  2.655696202531646 2.9 0  2.648101265822786 2.9 0  2.640506329113925 2.9 0  2.632911392405064 2.9 0  2.625316455696203 2.9 0  2.617721518987342 2.9 0  2.610126582278482 2.9 0  2.602531645569621 2.9 0  2.59493670886076 2.9 0  2.587341772151899 2.9 0  2.579746835443038 2.9 0  2.572151898734178 2.9 0  2.564556962025317 2.9 0  2.556962025316456 2.9 0  2.549367088607595 2.9 0  2.541772151898734 2.9 0  2.534177215189874 2.9 0  2.526582278481013 2.9 0  2.518987341772152 2.9 0  2.511392405063292 2.9 0  2.503797468354431 2.9 0  2.49620253164557 2.9 0  2.488607594936709 2.9 0  2.481012658227848 2.9 0  2.473417721518988 2.9 0  2.465822784810127 2.9 0  2.458227848101266 2.9 0  2.450632911392406 2.9 0  2.443037974683545 2.9 0  2.435443037974684 2.9 0  2.427848101265823 2.9 0  2.420253164556962 2.9 0  2.412658227848102 2.9 0  2.405063291139241 2.9 0  2.39746835443038 2.9 0  2.389873417721519 2.9 0  2.382278481012658 2.9 0  2.374683544303798 2.9 0  2.367088607594937 2.9 0  2.359493670886076 2.9 0  2.351898734177215 2.9 0  2.344303797468355 2.9 0  2.336708860759494 2.9 0  2.329113924050633 2.9 0  2.321518987341773 2.9 0  2.313924050632912 2.9 0  2.306329113924051 2.9 0  2.29873417721519 2.9 0  2.291139240506329 2.9 0  2.283544303797469 2.9 0  2.275949367088608 2.9 0  2.268354430379747 2.9 0  2.260759493670887 2.9 0  2.253164556962026 2.9 0  2.245569620253165 2.9 0  2.237974683544304 2.9 0  2.230379746835443 2.9 0  2.222784810126583 2.9 0  2.215189873417722 2.9 0  2.207594936708861 2.9 0  4.96271186440678 2.9 0  4.925423728813559 2.9 0  4.888135593220339 2.9 0  4.850847457627118 2.9 0  4.813559322033898 2.9 0  4.776271186440677 2.9 0  4.738983050847457 2.9 0  4.701694915254237 2.9 0  4.664406779661016 2.9 0  4.627118644067796 2.9 0  4.589830508474575 2.9 0  4.552542372881355 2.9 0  4.515254237288135 2.9 0  4.477966101694914 2.9 0  4.440677966101694 2.9 0  4.403389830508473 2.9 0  4.366101694915252 2.9 0  4.328813559322032 2.9 0  4.291525423728811 2.9 0  4.254237288135591 2.9 0  4.21694915254237 2.9 0  4.17966101694915 2.9 0  4.14237288135593 2.9 0  4.105084745762709 2.9 0  4.067796610169489 2.9 0  4.030508474576268 2.9 0  3.993220338983048 2.9 0  3.955932203389827 2.9 0  3.918644067796607 2.9 0  3.881355932203387 2.9 0  3.844067796610166 2.9 0  3.806779661016946 2.9 0  3.769491525423725 2.9 0  3.732203389830505 2.9 0  3.694915254237285 2.9 0  3.657627118644065 2.9 0  3.620338983050845 2.9 0  3.583050847457625 2.9 0  3.545762711864405 2.9 0  3.508474576271184 2.9 0  3.471186440677964 2.9 0  3.433898305084744 2.9 0  3.396610169491524 2.9 0  3.359322033898303 2.9 0  3.322033898305083 2.9 0  3.284745762711863 2.9 0  3.247457627118643 2.9 0  3.210169491525423 2.9 0  3.172881355932202 2.9 0  3.135593220338982 2.9 0  3.098305084745762 2.9 0  3.061016949152542 2.9 0  3.023728813559321 2.9 0  2.986440677966101 2.9 0  2.949152542372881 2.9 0  2.911864406779661 2.9 0  2.87457627118644 2.9 0  2.83728813559322 2.9 0  5 0.1063822625082082 0  5 0.210636880010749 0  5 0.3128064053694972 0  5 0.4129325400644018 0  5 0.5110561521032336 0  5 0.6072172918830103 0  5 0.7014552087832795 0  5 0.7938083674443693 0  5 0.88431446261646 0  5 0.9730104359544682 0  5 1.059932489996267 0  5 1.145116102913299 0  5 1.228596043483191 0  5 1.310406385079062 0  5 1.390580519944147 0  5 1.469151172477827 0  5 1.546150411986101 0  5 1.621609666658609 0  5 1.695559736099044 0  5 1.76803080383987 0  5 1.839052450169751 0  5 1.908653663631169 0  5 1.97686285289587 0  5 2.043707858613779 0  5 2.109215964341413 0  5 2.173413907925942 0  5 2.236327892833935 0  5 2.297983597762904 0  5 2.35840618845912 0  5 2.41762032730194 0  5 2.475650183444628 0  5 2.532519442457069 0  5 2.588251316112828 0  5 2.642868552557322 0  5 2.696393444426347 0  5 2.748847838312051 0  5 2.800253144313381 0  5 2.850630344319807 0  0.2631578947368421 0 0  0.5263157894736842 0 0  0.7894736842105263 0 0  1.052631578947368 0 0  1.31578947368421 0 0  1.578947368421053 0 0  1.842105263157895 0 0  2.105263157894737 0 0  2.368421052631579 0 0  2.631578947368421 0 0  2.894736842105263 0 0  3.157894736842105 0 0  3.421052631578947 0 0  3.684210526315789 0 0  3.947368421052632 0 0  4.210526315789473 0 0  4.473684210526315 0 0  4.736842105263158 0 0  0 2.850203682350569 0  0 2.799411438503675 0  0 2.747603349778291 0  0 2.694759099502208 0  0 2.640857964382145 0  0 2.58587880633613 0  0 2.52980006535898 0  0 2.472599749459174 0  0 2.414255427218689 0  0 2.35474421880616 0  0 2.294042786119219 0  0 2.232127324764723 0  0 2.1689735539481 0  0 2.104556707683347 0  0 2.038851524813415 0  0 1.971832238155655 0  0 1.903472565412126 0  0 1.83374569926617 0  0 1.762624296208475 0  0 1.690080464918761 0  0 1.616085756774206 0  0 1.540611154706337 0  0 1.463627060685571 0  0 1.385103284916206 0  0 1.305009033716617 0  0 1.223312897337225 0  0 1.139982838163732 0  0 1.054986177579938 0  0 0.9682895835804817 0  0 0.8798590579197976 0  0 0.7896599218415354 0  0 0.6976568029903638 0  0 0.6038136217958798 0  0 0.508093576867624 0  0 0.4104591310957497 0  0 0.3108719963522191 0  0 0.2092931188294389 0  0 0.1056826638508546 0  1.434832105763824 2.866945754981483 0  1.737156300467626 2.870039440267515 0  2.032203389830508 2.867707527316512 0  2.332911392405064 2.893422591869991 0  2.469810913293406 2.891944186606167 0  2.606221408823969 2.892519154985628 0  2.255455320628894 2.892068685006691 0  2.538247299216212 2.894964578182811 0  2.674683544303798 2.893422591869991 0  2.40126582278481 2.893422591869991 0  3.566125247295424 2.865029336199714 0  3.266101694915253 2.867707527316512 0  2.967796610169491 2.867707527316512 0  1.174288529834642 2.870795313888584 0  3.825423728813556 2.867707527316512 0  2.727766680262011 2.892655387647729 0  0.06601655192030442 1.502119107695954 0  4.933983535508361 1.507650792231964 0  0.9532124728485543 2.868722489783638 0  4.048935912500257 2.870640982995992 0  0.05930163367361763 1.866907161167414 0  4.943402512618553 1.871280731473148 0  4.271733870017743 2.86520865624265 0  0.7249420921613114 2.863922936177041 0  0.05494499779910056 2.196469063120752 0  4.947228695426367 2.208030108792719 0  0.5406152150397161 2.866493807382013 0  4.459322033898304 2.868847558178794 0  2.18135593220339 2.875780645487384 0  2.817027156509632 2.876587550645167 0  4.928427208322876 1.186856073198245 0  0.07189226971603224 1.174626666111662 0  4.610299014423113 2.867003104093161 0  0.3897270066746357 2.869433095314657 0  1.581132500042262 2.868247328632392 0  1.887637879411437 2.869235851794358 0  3.413449426418068 2.867372048034327 0  3.116721298814773 2.865731235547652 0  2.644303797468355 2.893422591869991 0  2.370983221828106 2.892719513369796 0  2.302531645569621 2.893336787387268 0  2.758987341772152 2.894242393897099 0  0.04979653335696277 2.443411216910286 0  4.950470983477169 2.446866954595817 0  2.482937483021586 0.2513241087417575 0  1.707129504814338 0.1999998659920923 0  3.28584657955054 0.229200625631625 0  4.907807122600524 0.834082362900164 0  4.757627118644067 2.867707527316512 0  0.0773489124676745 0.8347594898806663 0  0.2390604736599387 2.861365431805741 0  0.8363213715215729 2.863896768908178 0  4.160865610207075 2.868916854015731 0  1.282549332053297 2.867610952980761 0  1.065094818402487 2.861284686038041 0  3.93818127737282 2.86865134411395 0  3.711492629432973 2.863574306925269 0  4.91369361998929 0.5579891344254361 0  0.08208328472281323 0.5559535993317519 0  2.696596932532885 2.892010483922337 0  0.04706410140274553 2.613055974506516 0  4.955577063972248 2.616518038840186 0  2.234177215189874 2.893422591869991 0  2.279795840559739 2.89403861893984 0  0.9117357887652362 0.2117925286661764 0  4.055948041993057 0.2039101057937727 0  4.872119713780579 2.867632926423075 0  2.780113878992455 2.891535929611743 0  0.1327442468251063 2.85
[...]
<PointData  Vectors="displacement"> 
<DataArray  type="Float64"  Name="displacement"  NumberOfComponents="3" format="ascii">8.2844229171625964e-04 -4.3495610072998292e-03 0.0000000000000000e+00  0.0000000000000000e+00 -1.8072567299166380e-04 0.0000000000000000e+00  -8.2878676808640684e-04 -4.3486715698415465e-03 0.0000000000000000e+00  0.0000000000000000e+00 -1.8072579228967743e-04 0.0000000000000000e+00  0.0000000000000000e+00 0.0000000000000000e+00 0.0000000000000000e+00  0.0000000000000000e+00 0.0000000000000000e+00 0.0000000000000000e+00  8.0643581640177039e-04 -3.8342751207102416e-03 0.0000000000000000e+00  7.8270944854744813e-04 -3.5011080375506221e-03 0.0000000000000000e+00  7.6250158470700347e-04 -3.2351894969664370e-03 0.0000000000000000e+00  7.4414403497613871e-04 -3.0093966477926742e-03 0.0000000000000000e+00  7.2689462551538510e-04 -2.8118238711871356e-03 0.0000000000000000e+00  7.1038961256817746e-04 -2.6356621465072907e-03 0.0000000000000000e+00  6.9440392516826872e-04 -2.4764995138784850e-03 0.0000000000000000e+00  6.7878860873299386e-04 -2.3312886911919508e-03 0.0000000000000000e+00  6.6344867330285094e-04 -2.1977824402841135e-03 0.0000000000000000e+00  6.4831106720626187e-04 -2.0743133352408723e-03 0.0000000000000000e+00  6.3333087599934152e-04 -1.9595941333619845e-03 0.0000000000000000e+00  6.1847686499334905e-04 -1.8525775447488938e-03 0.0000000000000000e+00  6.0372918932490255e-04 -1.7524082133696546e-03 0.0000000000000000e+00  5.8907153994910153e-04 -1.6583896212473289e-03 0.0000000000000000e+00  5.7449546504755391e-04 -1.5699406672346802e-03 0.0000000000000000e+00  5.5999433172484049e-04 -1.4865649105055732e-03 0.0000000000000000e+00  5.4556579690865812e-04 -1.4078382077581718e-03 0.0000000000000000e+00  5.3120450331235140e-04 -1.3333931440606566e-03 0.0000000000000000e+00  5.1691228863559439e-04 -1.2629084049774011e-03 0.0000000000000000e+00  5.0268892911180870e-04 -1.1961043511150295e-03 0.0000000000000000e+00  4.8853502426875705e-04 -1.1327343829175586e-03 0.0000000000000000e+00  4.7445094061612390e-04 -1.0725796972655506e-03 0.0000000000000000e+00  4.6043854624903908e-04 -1.0154416435655838e-03 0.0000000000000000e+00  4.4649721793852494e-04 -9.6114576568532173e-04 0.0000000000000000e+00  4.3262917728241869e-04 -9.0953553490672259e-04 0.0000000000000000e+00  4.1883562705017464e-04 -8.6046682734966745e-04 0.0000000000000000e+00  4.0511707028253129e-04 -8.1380846037006017e-04 0.0000000000000000e+00  3.9147293277045264e-04 -7.6944470878880270e-04 0.0000000000000000e+00  3.7790660824052512e-04 -7.2726773824931192e-04 0.0000000000000000e+00  3.6441437229532155e-04 -6.8717666809500939e-04 0.0000000000000000e+00  3.5099938257119988e-04 -6.4908279485278520e-04 0.0000000000000000e+00  3.3766078465480949e-04 -6.1290415713475621e-04 0.0000000000000000e+00  3.2439687263326547e-04 -5.7856552456260675e-04 0.0000000000000000e+00  3.1120830595559798e-04 -5.4599364214338061e-04 0.0000000000000000e+00  2.9809358648207946e-04 -5.1512590275017947e-04 0.0000000000000000e+00  2.8505214169250728e-04 -4.8590169855104487e-04 0.0000000000000000e+00  2.7208221335641049e-04 -4.5826532537691434e-04 0.0000000000000000e+00  2.5918253479821922e-04 -4.3216671601090855e-04 0.0000000000000000e+00  2.4635142555086236e-04 -4.0755789897113014e-04 0.0000000000000000e+00  2.3358685892004970e-04 -3.8439530523385170e-04 0.0000000000000000e+00  2.2088680203067717e-04 -3.6263858627676019e-04 0.0000000000000000e+00  2.0824902103657971e-04 -3.4225037153126658e-04 0.0000000000000000e+00  1.9567082849570558e-04 -3.2319602035390626e-04 0.0000000000000000e+00  1.8314984852100592e-04 -3.0544409792066071e-04 0.0000000000000000e+00  1.7068318283940942e-04 -2.8896510049209752e-04 0.0000000000000000e+00  1.5826795287459877e-04 -2.7373239942829003e-04 0.0000000000000000e+00  1.4590106390673083e-04 -2.5972143442260946e-04 0.0000000000000000e+00  1.3357932559698911e-04 -2.4691000839262295e-04 0.0000000000000000e+00  1.2129937537882623e-04 -2.3527777386393711e-04 0.0000000000000000e+00  1.0905773720775315e-04 -2.2480664098800974e-04 0.0000000000000000e+00  9.6851227028006175e-05 -2.1548044590715190e-04 0.0000000000000000e+00  8.4675509316063511e-05 -2.0728444911356214e-04 0.0000000000000000e+00  7.2527356356026697e-05 -2.0020620354355584e-04 0.0000000000000000e+00  6.0402959991861865e-05 -1.9423515361405619e-04 0.0000000000000000e+00  4.8298676982116989e-05 -1.8936204559327812e-04 0.0000000000000000e+00  3.6209848346002237e-05 -1.8557936249630810e-04 0.0000000000000000e+00  2.4133169285613513e-05 -1.8288149597821030e-04 0.0000000000000000e+00  1.2064537952392396e-05 -1.8126441455969697e-04 0.0000000000000000e+00  -8.2051326121174075e-04 -4.5115373992000380e-03 0.0000000000000000e+00  -7.9990441201475732e-04 -4.6288934158338051e-03 0.0000000000000000e+00  -7.7884433264786498e-04 -4.7288486439996651e-03 0.0000000000000000e+00  -7.5769473039754523e-04 -4.8177568333535288e-03 0.0000000000000000e+00  -7.3668708202644735e-04 -4.8986573796715388e-03 0.0000000000000000e+00  -7.1567832850477620e-04 -4.9731920663538863e-03 0.0000000000000000e+00  -6.9465740778037132e-04 -5.0424412564802259e-03 0.0000000000000000e+00  -6.7361326878738600e-04 -5.1071136161561018e-03 0.0000000000000000e+00  -6.5253353645630576e-04 -5.1677427530999265e-03 0.0000000000000000e+00  -6.3142552200863632e-04 -5.2247455207622409e-03 0.0000000000000000e+00  -6.1028848367588857e-04 -5.2784458074713013e-03 0.0000000000000000e+00  -5.8911928682136010e-04 -5.3291041496834725e-03 0.0000000000000000e+00  -5.6792046445504102e-04 -5.3769392163196296e-03 0.0000000000000000e+00  -5.4669412474939671e-04 -5.4221292759775649e-03 0.0000000000000000e+00  -5.2543896995606233e-04 -5.4648251973687129e-03 0.0000000000000000e+00  -5.0416033771393399e-04 -5.5051629187332788e-03 0.0000000000000000e+00  -4.8285817243369749e-04 -5.5432546619456789e-03 0.0000000000000000e+00  -4.6153421795235461e-04 -5.5791986954732628e-03 0.0000000000000000e+00  -4.4018977961833968e-04 -5.6130822516658133e-03 0.0000000000000000e+00  -4.1882613469935461e-04 -5.6449815849793908e-03 0.0000000000000000e+00  -3.9744471255663907e-04 -5.6749645022223481e-03 0.0000000000000000e+00  -3.7604685729803811e-04 -5.7030912557141699e-03 0.0000000000000000e+00  -3.5463360122391151e-04 -5.7294151498387229e-03 0.0000000000000000e+00  -3.3320631429695858e-04 -5.7539843073246702e-03 0.0000000000000000e+00  -3.1176605771847323e-04 -5.7768416656458635e-03 0.0000000000000000e+00  -2.9031380294507544e-04 -5.7980250989506750e-03 0.0000000000000000e+00  -2.6885097612708075e-04 -5.8175688975706597e-03 0.0000000000000000e+00  -2.4737772386111353e-04 -5.8355032738072526e-03 0.0000000000000000e+00  -2.2589558270407994e-04 -5.8518557707672638e-03 0.0000000000000000e+00  -2.0440546158997640e-04 -5.8666504024079925e-03 0.0000000000000000e+00  -1.8290814842684337e-04 -5.8799085181716042e-03 0.0000000000000000e+00  -1.6140435077218571e-04 -5.8916486910029105e-03 0.0000000000000000e+00  -1.3989496404675958e-04 -5.9018872300603169e-03 0.0000000000000000e+00  -1.1838094652029854e-04 -5.9106380771462097e-03 0.0000000000000000e+00  -9.6862656324738083e-05 -5.9179126596871408e-03 0.0000000000000000e+00  -7.5341576043744195e-05 -5.9237211152579324e-03 0.0000000000000000e+00  -5.3817632426048674e-05 -5.9280708209724139e-03 0.0000000000000000e+00  -3.2291937846837746e-05 -5.9309673650220383e-03 0.0000000000000000e+00  -1.0765363538917961e-05 -5.9324146445577375e-03 0.0000000000000000e+00  1.0761578660165858e-05 -5.9324144813857156e-03 0.0000000000000000e+00  3.2288119976681835e-05 -5.9309668801570022e-03 0.0000000000000000e+00  5.3813549325958807e-05 -5.9280700036861518e-03 0.0000000000000000e+00  7.5337157130580791e-05 -5.9237201641931933e-03 0.0000000000000000e+00  9.6858116263054319e-05 -5.9179115969155149e-03 0.0000000000000000e+00  1.1837584153778187e-04 -5.9106366678684302e-03 0.0000000000000000e+00  1.3988956297923829e-04 -5.9018859909437142e-03 0.0000000000000000e+00  1.6139846771924551e-04 -5.8916476647792827e-03 0.0000000000000000e+00  1.8290180429876462e-04 -5.8799077490159441e-03 0.0000000000000000e+00  2.0439886660371051e-04 -5.8666500680263130e-03 0.0000000000000000e+00  2.2588865542346205e-04 -5.8518558313431198e-03 0.0000000000000000e+00  2.4737044531418804e-04 -5.8355039520761685e-03 0.0000000000000000e+00  2.6884354942681524e-04 -5.8175700786503009e-03 0.0000000000000000e+00  2.9030653257871268e-04 -5.7980269737569687e-03 0.0000000000000000e+00  3.1175886848023307e-04 -5.7768444423128441e-03 0.0000000000000000e+00  3.3319944340160927e-04 -5.7539880076850911e-03 0.0000000000000000e+00  3.5462722177352608e-04 -5.7294194813409909e-03 0.0000000000000000e+00  3.7604096012956099e-04 -5.7030959764754674e-03 0.0000000000000000e+00  3.9744009255518307e-04 -5.6749698842973968e-03 0.0000000000000000e+00  4.1882282372340595e-04 -5.6449864528932015e-03 0.0000000000000000e+00  4.4018794176743962e-04 -5.6130870736894991e-03 0.0000000000000000e+00  4.6153397545389238e-04 -5.5792031215962665e-03 0.0000000000000000e+00  4.8285980588484332e-04 -5.5432582467670796e-03 0.0000000000000000e+00  5.0416385490925652e-04 -5.5051655900967859e-03 0.0000000000000000e+00  5.2544475006765970e-04 -5.4648260693505720e-03 0.0000000000000000e+00  5.4670086434910087e-04 -5.4221265784986806e-03 0.0000000000000000e+00  5.6793107846791070e-04 -5.3769351713150188e-03 0.0000000000000000e+00  5.8913256164385233e-04 -5.3290982917958453e-03 0.0000000000000000e+00  6.1030461553573695e-04 -5.2784351337638513e-03 0.0000000000000000e+00  6.3144780296859021e-04 -5.2247341721382403e-03 0.0000000000000000e+00  6.5255727750430979e-04 -5.1677270745743948e-03 0.0000000000000000e+00  6.7363508458318172e-04 -5.1070886057299758e-03 0.0000000000000000e+00  6.9468831612467998e-04 -5.0424148741549119e-03 0.0000000000000000e+00  7.1572472908832438e-04 -4.9731777793233780e-03 0.0000000000000000e+00  7.3674208120115125e-04 -4.8986187923622249e-03 0.0000000000000000e+00  7.5776240101499187e-04 -4.8176939261523749e-03 0.0000000000000000e+00  7.7875140891547998e-04 -4.7288210536911360e-03 0.0000000000000000e+00  8.0029719188745400e-04 -4.6292264153728960e-03 0.0000000000000000e+00  8.2098892047712023e-04 -4.5109973773331136e-03 0.0000000000000000e+00  -1.2064636793470549e-05 -1.8126449782141285e-04 0.0000000000000000e+00  -2.4133282528954795e-05 -1.8288159903668213e-04 0.0000000000000000e+00  -3.6209910051249526e-05 -1.8557941179065966e-04 0.0000000000000000e+00  -4.8298530000718650e-05 -1.8936206334584489e-04 0.0000000000000000e+00  -6.0403056537208994e-05 -1.9423519231998184e-04 0.0000000000000000e+00  -7.2527611444369046e-05 -2.0020642497597114e-04 0.0000000000000000e+00  -8.4675585571917586e-05 -2.0728446969248937e-04 0.0000000000000000e+00  -9.6851169763809318e-05 -2.1548038375463792e-04 0.0000000000000000e+00  -1.0905791368403401e-04 -2.2480669753011866e-04 0.0000000000000000e+00  -1.2129953977541820e-04 -2.3527789271301551e-04 0.0000000000000000e+00  -1.3357948494769175e-04 -2.4691013044661231e-04 0.0000000000000000e+00  -1.4590128400978478e-04 -2.5972162812155567e-04 0.0000000000000000e+00  -1.5826817246000541e-04 -2.7373258837488581e-04 0.0000000000000000e+00  -1.7068338924337544e-04 -2.8896529632764398e-04 0.0000000000000000e+00  -1.8315003522662577e-04 -3.0544424088388878e-04 0.0000000000000000e+00  -1.9567101978436281e-04 -3.2319621094372688e-04 0.0000000000000000e+00  -2.0824916255742973e-04 -3.4225038082139812e-04 0.0000000000000000e+00  -2.2088708323896998e-04 -3.6263879693203819e-04 0.0000000000000000e+00  -2.3358707248660764e-04 -3.8439559742874948e-04 0.0000000000000000e+00  -2.4635168556760975e-04 -4.0755835297429864e-04 0.0000000000000000e+00  -2.5918319816647928e-04 -4.3216738705711494e-04 0.0000000000000000e+00  -2.7208240967014366e-04 -4.5826568869262736e-04 0.0000000000000000e+00  -2.8505237648621351e-04 -4.8590166258930960e-04 0.0000000000000000e+00  -2.9809391579862978e-04 -5.1512605443799488e-04 0.0000000000000000e+00  -3.1120849230925347e-04 -5.4599405989183927e-04 0.0000000000000000e+00  -3.2439712825143614e-04 -5.7856547680407394e-04 0.0000000000000000e+00  -3.3766072502680204e-04 -6.1290516682293108e-04 0.0000000000000000e+00  -3.5099980571140943e-04 -6.4908337296923021e-04 0.0000000000000000e+00  -3.6441501938758256e-04 -6.8717640584593364e-04 0.0000000000000000e+00  -3.7790641541237801e-04 -7.2726677310119630e-04 0.0000000000000000e+00  -3.9147383352984279e-04 -7.6944481355193447e-04 0.0000000000000000e+00  -4.0511688686452129e-04 -8.1380857921776713e-04 0.0000000000000000e+00  -4.1883770595291058e-04 -8.6046667414997971e-04 0.0000000000000000e+00  -4.3262972219192499e-04 -9.0953606259793613e-04 0.0000000000000000e+00  -4.4649777636471066e-04 -9.6114738784994810e-04 0.0000000000000000e+00  -4.6043888428451185e-04 -1.0154423100396321e-03 0.0000000000000000e+00  -4.7445231375042841e-04 -1.0725792529062198e-03 0.0000000000000000e+00  -4.8853591122458755e-04 -1.1327344987037459e-03 0.0000000000000000e+00  -5.0268966647264439e-04 -1.1961043715552470e-03 0.0000000000000000e+00  -5.1691288381246778e-04 -1.2629080131318945e-03 0.0000000000000000e+00  -5.3120521977611103e-04 -1.3333926539886626e-03 0.0000000000000000e+00  -5.4556566981573372e-04 -1.4078394669588292e-03 0.0000000000000000e+00  -5.5999684456302574e-04 -1.4865673421025891e-03 0.0000000000000000e+00  -5.7449853987318294e-04 -1.5699424535818318e-03 0.0000000000000000e+00  -5.8907355717230045e-04 -1.6583893829454780e-03 0.0000000000000000e+00  -6.0372909241838957e-04 -1.7524068054752498e-03 0.0000000000000000e+00  -6.1847725010252309e-04 -1.8525765144414125e-03 0.0000000000000000e+00  -6.3333151569011442e-04 -1.9596001211234586e-03 0.0000000000000000e+00  -6.4831305857785716e-04 -2.0743222148481965e-03 0.0000000000000000e+00  -6.6345242758361210e-04 -2.1977774762601604e-03 0.0000000000000000e+00  -6.7879403447956605e-04 -2.3312927631370028e-03 0.0000000000000000e+00  -6.9441297209913832e-04 -2.4764940066667267e-03 0.0000000000000000e+00  -7.1039287557165599e-04 -2.6356710276400517e-03 0.0000000000000000e+00  -7.2688624368495399e-04 -2.8118442752445142e-03 0.0000000000000000e+00  -7.4413430565396582e-04 -3.0094024856531744e-03 0.0000000000000000e+00  -7.6257325638851546e-04 -3.2351808838964637e-03 0.0000000000000000e+00  -7.8249406491614419e-04 -3.5012270260048046e-03 0.0000000000000000e+00  -8.0660680265113791e-04 -3.8340468864022288e-03 0.0000000000000000e+00  0.0000000000000000e+00 -3.4934357016071642e-05 0.0000000000000000e+00  0.0000000000000000e+00 -6.5306827935898850e-05 0.0000000000000000e+00  0.0000000000000000e+00 -9.1673376684993339e-05 0.0000000000000000e+00  0.0000000000000000e+00 -1.1450719855072975e-04 0.0000000000000000e+00  0.0000000000000000e+00 -1.3416749136235538e-04 0.0000000000000000e+00  0.0000000000000000e+00 -1.5094947593010451e-04 0.0000000000000000e+00  0.0000000000000000e+00 -1.6509998298842591e-04 0.0000000000000000e+00  0.0000000000000000e+00 -1.7683008031172393e-04 0.0000000000000000e+00  0.0000000000000000e+00 -1.8630692561790040e-04 0.0000000000000000e+00  0.0000000000000000e+00 -1.9371470106158430e-04 0.0000000000000000e+00  0.0000000000000000e+00 -1.9920163707407945e-04 0.0000000000000000e+00  0.0000000000000000e+00 -2.0292197645010974e-04 0.0000000000000000e+00  0.0000000000000000e+00 -2.0503340407980461e-04 0.0000000000000000e+00  0.0000000000000000e+00 -2.0569173749874055e-04 0.0000000000000000e+00  0.0000000000000000e+00 -2.0505713468281975e-04 0.0000000000000000e+00  0.0000000000000000e+00 -2.0329459925264896e-04 0.0000000000000000e+00  0.0000000000000000e+00 -2.0057520298265953e-04 0.0000000000000000e+00  0.0000000000000000e+00 -1.9706985912980047e-04 0.0000000000000000e+00  0.0000000000000000e+00 -1.9295146275294072e-04 0.0000000000000000e+00  0.0000000000000000e+00 -1.8839272323467027e-04 0.0000000000000000e+00  0.0000000000000000e+00 -1.8356396436874694e-04 0.0000000000000000e+00  0.0000000000000000e+00 -1.7862949061676312e-04 0.0000000000000000e+00  0.0000000000000000e+00 -1.7374826972101358e-04 0.0000000000000000e+00  0.0000000000000000e+00 -1.6906547875767571e-04 0.0000000000000000e+00  0.0000000000000000e+00 -1.6471999822488805e-04 0.0000000000000000e+00  0.0000000000000000e+00 -1.6083746034868652e-04 0.0000000000000000e+00  0.0000000000000000e+00 -1.5752407667781945e-04 0.0000000000000000e+00  0.0000000000000000e+00 -1.5487638659960029e-04 0.0000000000000000e+00  0.0000000000000000e+00 -1.5297181409006631e-04 0.0000000000000000e+00  0.0000000000000000e+00 -1.5187171028761243e-04 0.0000000000000000e+00  0.0000000000000000e+00 -1.5162141743700771e-04 0.0000000000000000e+00  0.0000000000000000e+00 -1.5224957653294907e-04 0.0000000000000000e+00  0.0000000000000000e+00 -1.5376973943560896e-04 0.0000000000000000e+00  0.0000000000000000e+00 -1.5618135903556335e-04 0.0000000000000000e+00  0.0000000000000000e+00 -1.5947027625320438e-04 0.0000000000000000e+00  0.0000000000000000e+00 -1.6361028383986588e-04 0.0000000000000000e+00  0.0000000000000000e+00 -1.6856450175116973e-04 0.0000000000000000e+00  0.0000000000000000e+00 -1.7428742700444590e-04 0.0000000000000000e+00  0.0000000000000000e+00 0.0000000000000000e+00 0.0000000000000000e+00  0.0000000000000000e+00 0.0000000000000000e+00 0.0000000000000000e+00  0.0000000000000000e+00 0.0000000000000000e+00 0.0000000000000000e+00  0.0000000000000000e+00 0.0000000000000000e+00 0.0000000000000000e+00  0.0000000000000000e+00 0.0000000000000000e+00 0.0000000000000000e+00  0.0000000000000000e+00 0.0000000000000000e+00 0.0000000000000000e+00  0.0000000000000000e+00 0.0000000000000000e+00 0.0000000000000000e+00  0.0000000000000000e+00 0.0000000000000000e+00 0.0000000000000000e+00  0.0000000000000000e+00 0.0000000000000000e+00 0.0000000000000000e+00  0.0000000000000000e+00 0.0000000000000000e+00 0.0000000000000000e+00  0.0000000000000000e+00 0.0000000000000000e+00 0.0000000000000000e+00  0.0000000000000000e+00 0.0000000000000000e+00 0.0000000000000000e+00  0.0000000000000000e+00 0.0000000000000000e+00 0.0000000000000000e+00  0.0000000000000000e+00 0.0000000000000000e+00 0.0000000000000000e+00  0.0000000000000000e+00 0.0000000000000000e+00 0.0000000000000000e+00  0.0000000000000000e+00 0.0000000000000000e+00 0.0000000000000000e+00  0.0000000000000000e+00 0.0000000000000000e+00 0.0000000000000000e+00  0.0000000000000000e+00 0.0000000000000000e+00 0.0000000000000000e+00  0.0000000000000000e+00 -1.7423531830173091e-04 0.0000000000000000e+00  0.0000000000000000e+00 -1.6847611665920815e-04 0.0000000000000000e+00  0.0000000000000000e+00 -1.6350136329973373e-04 0.0000000000000000e+00  0.0000000000000000e+00 -1.5935587701726921e-04 0.0000000000000000e+00  0.0000000000000000e+00 -1.5607584542448737e-04 0.0000000000000000e+00  0.0000000000000000e+00 -1.5368598022409371e-04 0.0000000000000000e+00  0.0000000000000000e+00 -1.5219863126972685e-04 0.0000000000000000e+00  0.0000000000000000e+00 -1.5161263203213518e-04 0.0000000000000000e+00  0.0000000000000000e+00 -1.5191226434151030e-04 0.0000000000000000e+00  0.0000000000000000e+00 -1.5306566020484777e-04 0.0000000000000000e+00  0.0000000000000000e+00 -1.5502614607408870e-04 0.0000000000000000e+00  0.0000000000000000e+00 -1.5772677053152589e-04 0.0000000000000000e+00  0.0000000000000000e+00 -1.6109036732529598e-04 0.0000000000000000e+00  0.0000000000000000e+00 -1.6501825266862437e-04 0.0000000000000000e+00  0.0000000000000000e+00 -1.6939952490276793e-04 0.0000000000000000e+00  0.0000000000000000e+00 -1.7410597149739715e-04 0.0000000000000000e+00  0.0000000000000000e+00 -1.7899992637068814e-04 0.0000000000000000e+00  0.0000000000000000e+00 -1.8393425899815402e-04 0.0000000000000000e+00  0.0000000000000000e+00 -1.8874808468445474e-04 0.0000000000000000e+00  0.0000000000000000e+00 -1.9327708075300116e-04 0.0000000000000000e+00  0.0000000000000000e+00 -1.9735206461723377e-04 0.0000000000000000e+00  0.0000000000000000e+00 -2.0080159514417306e-04 0.0000000000000000e+00  0.0000000000000000e+00 -2.0345385303348505e-04 0.00000000000