<?xml version="1.0"?>
<VTKFile type="UnstructuredGrid"  version="0.1"  >
<UnstructuredGrid>
<Piece  NumberOfPoints="3167" NumberOfCells="6038">
<Points>
<DataArray  type="Float64"  NumberOfComponents="3"  format="ascii">2.2 2.9 0  0 2.9 0  2.8 2.9 0  5 2.9 0  5 0 0  0 0 0  2.16271186440678 2.9 0  2.125423728813559 2.9 0  2.088135593220339 2.9 0  2.050847457627119 2.9 0  2.013559322033898 2.9 0  1.976271186440678 2.9 0  1.938983050847457 2.9 0  1.901694915254237 2.9 0  1.864406779661016 2.9 0  1.827118644067796 2.9 0  1.789830508474575 2.9 0  1.752542372881355 2.9 0  1.715254237288134 2.9 0  1.677966101694914 2.9 0  1.640677966101693 2.9 0  1.603389830508473 2.9 0  1.566101694915253 2.9 0  1.528813559322032 2.9 0  1.491525423728812 2.9 0  1.454237288135591 2.9 0  1.416949152542371 2.9 0  1.37966101694915 2.9 0  1.34237288135593 2.9 0  1.305084745762709 2.9 0  1.267796610169489 2.9 0  1.230508474576268 2.9 0  1.193220338983048 2.9 0  1.155932203389827 2.9 0  1.118644067796607 2.9 0  1.081355932203387 2.9 0  1.044067796610166 2.9 0  1.006779661016946 2.9 0  0.9694915254237257 2.9 0  0.9322033898305055 2.9 0  0.8949152542372856 2.9 0  0.8576271186440652 2.9 0  0.820338983050845 2.9 0  0.783050847457625 2.9 0  0.7457627118644048 2.9 0  0.7084745762711844 2.9 0  0.6711864406779642 2.9 0  0.633898305084744 2.9 0  0.5966101694915238 2.9 0  0.5593220338983036 2.9 0  0.5220338983050834 2.9 0  0.4847457627118632 2.9 0  0.447457627118643 2.9 0  0.4101694915254228 2.9 0  0.3728813559322024 2.9 0  0.3355932203389822 2.9 0  0.2983050847457622 2.9 0  0.2610169491525418 2.9 0  0.2237288135593216 2.9 0  0.1864406779661016 2.9 0  0.1491525423728812 2.9 0  0.1118644067796613 2.9 0  0.07457627118644039 2.9 0  0.03728813559321997 2.9 0  2.792405063291139 2.9 0  2.784810126582279 2.9 0  2.777215189873418 2.9 0  2.769620253164557 2.9 0  2.762025316455697 2.9 0  2.754430379746836 2.9 0  2.746835443037975 2.9 0  2.739240506329114 2.9 0  2.731645569620254 2.9 0  2.724050632911393 2.9 0  2.716455696202532 2.9 0  2.708860759493671 2.9 0  2.701265822784811 2.9 0  2.69367088607595 2.9 0  2.686075949367089 2.9 0  2.678481012658228 2.9 0  2.670886075949368 2.9 0  2.663291139240507 2.9 0  2.655696202531646 2.9 0  2.648101265822786 2.9 0  2.640506329113925 2.9 0  2.632911392405064 2.9 0  2.625316455696203 2.9 0  2.617721518987342 2.9 0  2.610126582278482 2.9 0  2.602531645569621 2.9 0  2.59493670886076 2.9 0  2.587341772151899 2.9 0  2.579746835443038 2.9 0  2.572151898734178 2.9 0  2.564556962025317 2.9 0  2.556962025316456 2.9 0  2.549367088607595 2.9 0  2.541772151898734 2.9 0  2.534177215189874 2.9 0  2.526582278481013 2.9 0  2.518987341772152 2.9 0  2.511392405063292 2.9 0  2.503797468354431 2.9 0  2.49620253164557 2.9 0  2.488607594936709 2.9 0  2.481012658227848 2.9 0  2.473417721518988 2.9 0  2.465822784810127 2.9 0  2.458227848101266 2.9 0  2.450632911392406 2.9 0  2.443037974683545 2.9 0  2.435443037974684 2.9 0  2.427848101265823 2.9 0  2.420253164556962 2.9 0  2.412658227848102 2.9 0  2.405063291139241 2.9 0  2.39746835443038 2.9 0  2.389873417721519 2.9 0  2.382278481012658 2.9 0  2.374683544303798 2.9 0  2.367088607594937 2.9 0  2.359493670886076 2.9 0  2.351898734177215 2.9 0  2.344303797468355 2.9 0  2.336708860759494 2.9 0  2.329113924050633 2.9 0  2.321518987341773 2.9 0  2.313924050632912 2.9 0  2.306329113924051 2.9 0  2.29873417721519 2.9 0  2.291139240506329 2.9 0  2.283544303797469 2.9 0  2.275949367088608 2.9 0  2.268354430379747 2.9 0  2.260759493670887 2.9 0  2.253164556962026 2.9 0  2.245569620253165 2.9 0  2.237974683544304 2.9 0  2.230379746835443 2.9 0  2.222784810126583 2.9 0  2.215189873417722 2.9 0  2.207594936708861 2.9 0  4.96271186440678 2.9 0  4.925423728813559 2.9 0  4.888135593220339 2.9 0  4.850847457627118 2.9 0  4.813559322033898 2.9 0  4.776271186440677 2.9 0  4.738983050847457 2.9 0  4.701694915254237 2.9 0  4.664406779661016 2.9 0  4.627118644067796 2.9 0  4.589830508474575 2.9 0  4.552542372881355 2.9 0  4.515254237288135 2.9 0  4.477966101694914 2.9 0  4.440677966101694 2.9 0  4.403389830508473 2.9 0  4.366101694915252 2.9 0  4.328813559322032 2.9 0  4.291525423728811 2.9 0  4.254237288135591 2.9 0  4.21694915254237 2.9 0  4.17966101694915 2.9 0  4.14237288135593 2.9 0  4.105084745762709 2.9 0  4.067796610169489 2.9 0  4.030508474576268 2.9 0  3.993220338983048 2.9 0  3.955932203389827 2.9 0  3.918644067796607 2.9 0  3.881355932203387 2.9 0  3.844067796610166 2.9 0  3.806779661016946 2.9 0  3.769491525423725 2.9 0  3.732203389830505 2.9 0  3.694915254237285 2.9 0  3.657627118644065 2.9 0  3.620338983050845 2.9 0  3.583050847457625 2.9 0  3.545762711864405 2.9 0  3.508474576271184 2.9 0  3.471186440677964 2.9 0  3.433898305084744 2.9 0  3.396610169491524 2.9 0  3.359322033898303 2.9 0  3.322033898305083 2.9 0  3.284745762711863 2.9 0  3.247457627118643 2.9 0  3.210169491525423 2.9 0  3.172881355932202 2.9 0  3.135593220338982 2.9 0  3.098305084745762 2.9 0  3.061016949152542 2.9 0  3.023728813559321 2.9 0  2.986440677966101 2.9 0  2.949152542372881 2.9 0  2.911864406779661 2.9 0  2.87457627118644 2.9 0  2.83728813559322 2.9 0  5 0.1063822625082082 0  5 0.210636880010749 0  5 0.3128064053694972 0  5 0.4129325400644018 0  5 0.5110561521032336 0  5 0.6072172918830103 0  5 0.7014552087832795 0  5 0.7938083674443693 0  5 0.88431446261646 0  5 0.9730104359544682 0  5 1.059932489996267 0  5 1.145116102913299 0  5 1.228596043483191 0  5 1.310406385079062 0  5 1.390580519944147 0  5 1.469151172477827 0  5 1.546150411986101 0  5 1.621609666658609 0  5 1.695559736099044 0  5 1.76803080383987 0  5 1.839052450169751 0  5 1.908653663631169 0  5 1.97686285289587 0  5 2.043707858613779 0  5 2.109215964341413 0  5 2.173413907925942 0  5 2.236327892833935 0  5 2.297983597762904 0  5 2.35840618845912 0  5 2.41762032730194 0  5 2.475650183444628 0  5 2.532519442457069 0  5 2.588251316112828 0  5 2.642868552557322 0  5 2.696393444426347 0  5 2.748847838312051 0  5 2.800253144313381 0  5 2.850630344319807 0  0.2631578947368421 0 0  0.5263157894736842 0 0  0.7894736842105263 0 0  1.052631578947368 0 0  1.31578947368421 0 0  1.578947368421053 0 0  1.842105263157895 0 0  2.105263157894737 0 0  2.368421052631579 0 0  2.631578947368421 0 0  2.894736842105263 0 0  3.157894736842105 0 0  3.421052631578947 0 0  3.684210526315789 0 0  3.947368421052632 0 0  4.210526315789473 0 0  4.473684210526315 0 0  4.736842105263158 0 0  0 2.850203682350569 0  0 2.799411438503675 0  0 2.747603349778291 0  0 2.694759099502208 0  0 2.640857964382145 0  0 2.58587880633613 0  0 2.52980006535898 0  0 2.472599749459174 0  0 2.414255427218689 0  0 2.35474421880616 0  0 2.294042786119219 0  0 2.232127324764723 0  0 2.1689735539481 0  0 2.104556707683347 0  0 2.038851524813415 0  0 1.971832238155655 0  0 1.903472565412126 0  0 1.83374569926617 0  0 1.762624296208475 0  0 1.690080464918761 0  0 1.616085756774206 0  0 1.540611154706337 0  0 1.463627060685571 0  0 1.385103284916206 0  0 1.305009033716617 0  0 1.223312897337225 0  0 1.139982838163732 0  0 1.054986177579938 0  0 0.9682895835804817 0  0 0.8798590579197976 0  0 0.7896599218415354 0  0 0.6976568029903638 0  0 0.6038136217958798 0  0 0.508093576867624 0  0 0.4104591310957497 0  0 0.3108719963522191 0  0 0.2092931188294389 0  0 0.1056826638508546 0  1.434832105763824 2.866945754981483 0  1.737156300467626 2.870039440267515 0  2.032203389830508 2.867707527316512 0  2.332911392405064 2.893422591869991 0  2.469810913293406 2.891944186606167 0  2.606221408823969 2.892519154985628 0  2.255455320628894 2.892068685006691 0  2.538247299216212 2.894964578182811 0  2.674683544303798 2.893422591869991 0  2.40126582278481 2.893422591869991 0  3.566125247295424 2.865029336199714 0  3.266101694915253 2.867707527316512 0  2.967796610169491 2.867707527316512 0  1.174288529834642 2.870795313888584 0  3.825423728813556 2.867707527316512 0  2.727766680262011 2.892655387647729 0  0.06601655192030442 1.502119107695954 0  4.933983535508361 1.507650792231964 0  0.9532124728485543 2.868722489783638 0  4.048935912500257 2.870640982995992 0  0.05930163367361763 1.866907161167414 0  4.943402512618553 1.871280731473148 0  4.271733870017743 2.86520865624265 0  0.7249420921613114 2.863922936177041 0  0.05494499779910056 2.196469063120752 0  4.947228695426367 2.208030108792719 0  0.5406152150397161 2.866493807382013 0  4.459322033898304 2.868847558178794 0  2.18135593220339 2.875780645487384 0  2.817027156509632 2.876587550645167 0  4.928427208322876 1.186856073198245 0  0.07189226971603224 1.174626666111662 0  4.610299014423113 2.867003104093161 0  0.3897270066746357 2.869433095314657 0  1.581132500042262 2.868247328632392 0  1.887637879411437 2.869235851794358 0  3.413449426418068 2.867372048034327 0  3.116721298814773 2.865731235547652 0  2.644303797468355 2.893422591869991 0  2.370983221828106 2.892719513369796 0  2.302531645569621 2.893336787387268 0  2.758987341772152 2.894242393897099 0  0.04979653335696277 2.443411216910286 0  4.950470983477169 2.446866954595817 0  2.482937483021586 0.2513241087417575 0  1.707129504814338 0.1999998659920923 0  3.28584657955054 0.229200625631625 0  4.907807122600524 0.834082362900164 0  4.757627118644067 2.867707527316512 0  0.0773489124676745 0.8347594898806663 0  0.2390604736599387 2.861365431805741 0  0.8363213715215729 2.863896768908178 0  4.160865610207075 2.868916854015731 0  1.282549332053297 2.867610952980761 0  1.065094818402487 2.861284686038041 0  3.93818127737282 2.86865134411395 0  3.711492629432973 2.863574306925269 0  4.91369361998929 0.5579891344254361 0  0.08208328472281323 0.5559535993317519 0  2.696596932532885 2.892010483922337 0  0.04706410140274553 2.613055974506516 0  4.955577063972248 2.616518038840186 0  2.234177215189874 2.893422591869991 0  2.279795840559739 2.89403861893984 0  0.9117357887652362 0.2117925286661764 0  4.055948041993057 0.2039101057937727 0  4.872119713780579 2.867632926423075 0  2.780113878992455 2.891535929611743 0  0.1327442468251063 2.85
[...]
<PointData  Vectors="displacement"> 
<DataArray  type="Float64"  Name="displacement"  NumberOfComponents="3" format="ascii">1.3377766781030856e-03 -7.0004145289760296e-03 0.0000000000000000e+00  0.0000000000000000e+00 -2.8824717322644897e-04 0.0000000000000000e+00  -1.3396136292967947e-03 -7.0007016259775881e-03 0.0000000000000000e+00  0.0000000000000000e+00 -2.8824751765610596e-04 0.0000000000000000e+00  0.0000000000000000e+00 0.0000000000000000e+00 0.0000000000000000e+00  0.0000000000000000e+00 0.0000000000000000e+00 0.0000000000000000e+00  1.3260094737513033e-03 -6.1954940879334194e-03 0.0000000000000000e+00  1.2994313431250748e-03 -5.6643206573408272e-03 0.0000000000000000e+00  1.2732153010818115e-03 -5.2368823809262827e-03 0.0000000000000000e+00  1.2471482448994761e-03 -4.8723790322770955e-03 0.0000000000000000e+00  1.2211165205463831e-03 -4.5525857009984672e-03 0.0000000000000000e+00  1.1951392794397888e-03 -4.2669844684142793e-03 0.0000000000000000e+00  1.1692436656793833e-03 -4.0086957720000017e-03 0.0000000000000000e+00  1.1434353937997972e-03 -3.7729230196277808e-03 0.0000000000000000e+00  1.1177408430740230e-03 -3.5561007959297153e-03 0.0000000000000000e+00  1.0921506216378994e-03 -3.3555701038290669e-03 0.0000000000000000e+00  1.0666725371344795e-03 -3.1692638532356851e-03 0.0000000000000000e+00  1.0413124260023234e-03 -2.9954931015661952e-03 0.0000000000000000e+00  1.0160800853419474e-03 -2.8328738755159367e-03 0.0000000000000000e+00  9.9097519054058489e-04 -2.6802763372132657e-03 0.0000000000000000e+00  9.6600351816713127e-04 -2.5367549128086841e-03 0.0000000000000000e+00  9.4116801003331818e-04 -2.4015007339019644e-03 0.0000000000000000e+00  9.1647392068094414e-04 -2.2738215764665096e-03 0.0000000000000000e+00  8.9191854607060291e-04 -2.1531174545206151e-03 0.0000000000000000e+00  8.6750902177874702e-04 -2.0388630690002471e-03 0.0000000000000000e+00  8.4324700093907844e-04 -1.9306011691247347e-03 0.0000000000000000e+00  8.1913456806177287e-04 -1.8279283199511950e-03 0.0000000000000000e+00  7.9517255882389094e-04 -1.7304865199388934e-03 0.0000000000000000e+00  7.7136365808403015e-04 -1.6379507644560952e-03 0.0000000000000000e+00  7.4770603951172386e-04 -1.5500355953228214e-03 0.0000000000000000e+00  7.2420231541990543e-04 -1.4664849415328342e-03 0.0000000000000000e+00  7.0085314751662325e-04 -1.3870630727107621e-03 0.0000000000000000e+00  6.7765796405549604e-04 -1.3115554618546633e-03 0.0000000000000000e+00  6.5461443051180522e-04 -1.2397729041097366e-03 0.0000000000000000e+00  6.3172667132885632e-04 -1.1715391276172465e-03 0.0000000000000000e+00  6.0898688184393311e-04 -1.1066893642770238e-03 0.0000000000000000e+00  5.8639898109911224e-04 -1.0450786199407774e-03 0.0000000000000000e+00  5.6396006655608038e-04 -9.8657304815225251e-04 0.0000000000000000e+00  5.4166609660093580e-04 -9.3104987806662471e-04 0.0000000000000000e+00  5.1951657173734869e-04 -8.7838951255114176e-04 0.0000000000000000e+00  4.9750794472017492e-04 -8.2848978368425385e-04 0.0000000000000000e+00  4.7563796969150672e-04 -7.8125183354887614e-04 0.0000000000000000e+00  4.5390252436689133e-04 -7.3658479450150395e-04 0.0000000000000000e+00  4.3229852876317578e-04 -6.9440705502209665e-04 0.0000000000000000e+00  4.1082205302711545e-04 -6.5464039593713286e-04 0.0000000000000000e+00  3.8946878127933042e-04 -6.1721381156608303e-04 0.0000000000000000e+00  3.6823438914967700e-04 -5.8206156091297539e-04 0.0000000000000000e+00  3.4711431195659861e-04 -5.4912275736231076e-04 0.0000000000000000e+00  3.2610319600428084e-04 -5.1834098154192581e-04 0.0000000000000000e+00  3.0519631945097282e-04 -4.8966504027698088e-04 0.0000000000000000e+00  2.8438809134773634e-04 -4.6304688615956342e-04 0.0000000000000000e+00  2.6367302342678148e-04 -4.3844316969013971e-04 0.0000000000000000e+00  2.4304527430678928e-04 -4.1581391550906289e-04 0.0000000000000000e+00  2.2249890406010982e-04 -3.9512299245127034e-04 0.0000000000000000e+00  2.0202767550508421e-04 -3.7633728253062240e-04 0.0000000000000000e+00  1.8162521976419307e-04 -3.5942734838152892e-04 0.0000000000000000e+00  1.6128570630730528e-04 -3.4436689775801873e-04 0.0000000000000000e+00  1.4100129368991961e-04 -3.3113195459239875e-04 0.0000000000000000e+00  1.2076613131170085e-04 -3.1970224351118615e-04 0.0000000000000000e+00  1.0057339222958827e-04 -3.1006061382084612e-04 0.0000000000000000e+00  8.0416510908348408e-05 -3.0219200799530544e-04 0.0000000000000000e+00  6.0287165638659283e-05 -2.9608420653226282e-04 0.0000000000000000e+00  4.0179458294511840e-05 -2.9172806758542282e-04 0.0000000000000000e+00  2.0086083602643099e-05 -2.8911705079172031e-04 0.0000000000000000e+00  -1.3205993635070344e-03 -7.2455481079197860e-03 0.0000000000000000e+00  -1.2850631507228627e-03 -7.4220784898121842e-03 0.0000000000000000e+00  -1.2503017995213826e-03 -7.5729058845864254e-03 0.0000000000000000e+00  -1.2157101562212970e-03 -7.7076685656742626e-03 0.0000000000000000e+00  -1.1813602342395388e-03 -7.8306298138330604e-03 0.0000000000000000e+00  -1.1470414918293690e-03 -7.9440828359672415e-03 0.0000000000000000e+00  -1.1127461756775237e-03 -8.0495737916543558e-03 0.0000000000000000e+00  -1.0784658084818375e-03 -8.1481349458252944e-03 0.0000000000000000e+00  -1.0441861442857126e-03 -8.2405543992391042e-03 0.0000000000000000e+00  -1.0099182968128877e-03 -8.3274540626479508e-03 0.0000000000000000e+00  -9.7565965151216326e-04 -8.4093204746130395e-03 0.0000000000000000e+00  -9.4140350340307850e-04 -8.4865467533444521e-03 0.0000000000000000e+00  -9.0715097652489796e-04 -8.5594642013021999e-03 0.0000000000000000e+00  -8.7290220713184504e-04 -8.6283438233787542e-03 0.0000000000000000e+00  -8.3865298398532796e-04 -8.6934153219493659e-03 0.0000000000000000e+00  -8.0440824060165877e-04 -8.7548861165750447e-03 0.0000000000000000e+00  -7.7016540974944548e-04 -8.8129278114174817e-03 0.0000000000000000e+00  -7.3592469780503814e-04 -8.8676908078535645e-03 0.0000000000000000e+00  -7.0168568118445136e-04 -8.9193087935696049e-03 0.0000000000000000e+00  -6.6744805756716258e-04 -8.9678987715717060e-03 0.0000000000000000e+00  -6.3321185321195070e-04 -9.0135648172493324e-03 0.0000000000000000e+00  -5.9897701883116655e-04 -9.0563995126072480e-03 0.0000000000000000e+00  -5.6474327282709136e-04 -9.0964848210678267e-03 0.0000000000000000e+00  -5.3051078625496715e-04 -9.1338947322580979e-03 0.0000000000000000e+00  -4.9627935160089225e-04 -9.1686952925881179e-03 0.0000000000000000e+00  -4.6204886095654792e-04 -9.2009448223835041e-03 0.0000000000000000e+00  -4.2781970969054761e-04 -9.2306960940950755e-03 0.0000000000000000e+00  -3.9359078796579963e-04 -9.2579955711085387e-03 0.0000000000000000e+00  -3.5936276326601160e-04 -9.2828856974212573e-03 0.0000000000000000e+00  -3.2513557401091025e-04 -9.3054034238506007e-03 0.0000000000000000e+00  -2.9090905743416908e-04 -9.3255816250679604e-03 0.0000000000000000e+00  -2.5668298661241887e-04 -9.3434488639185537e-03 0.0000000000000000e+00  -2.2245739317469507e-04 -9.3590302525371968e-03 0.0000000000000000e+00  -1.8823234850482394e-04 -9.3723472716195702e-03 0.0000000000000000e+00  -1.5400736285784864e-04 -9.3834174735690501e-03 0.0000000000000000e+00  -1.1978327016378190e-04 -9.3922564222648063e-03 0.0000000000000000e+00  -8.5558828900490926e-05 -9.3988755177013585e-03 0.0000000000000000e+00  -5.1334668502521629e-05 -9.4032832946692319e-03 0.0000000000000000e+00  -1.7110728383656691e-05 -9.4054857722761787e-03 0.0000000000000000e+00  1.7113215137103340e-05 -9.4054857298951581e-03 0.0000000000000000e+00  5.1337189615402413e-05 -9.4032831531091158e-03 0.0000000000000000e+00  8.5561265886143915e-05 -9.3988751995236208e-03 0.0000000000000000e+00  1.1978551183974122e-04 -9.3922561743880213e-03 0.0000000000000000e+00  1.5400990907578764e-04 -9.3834171873436335e-03 0.0000000000000000e+00  1.8823471345916183e-04 -9.3723465019608116e-03 0.0000000000000000e+00  2.2245979788810503e-04 -9.3590296139782411e-03 0.0000000000000000e+00  2.5668534122781357e-04 -9.3434482491296707e-03 0.0000000000000000e+00  2.9091136285366642e-04 -9.3255809278640321e-03 0.0000000000000000e+00  3.2513804896438402e-04 -9.3054027617156393e-03 0.0000000000000000e+00  3.5936524744832436e-04 -9.2828848298594606e-03 0.0000000000000000e+00  3.9359319059939534e-04 -9.2579947200891952e-03 0.0000000000000000e+00  4.2782217190674899e-04 -9.2306949576538271e-03 0.0000000000000000e+00  4.6205156765111047e-04 -9.2009436532563289e-03 0.0000000000000000e+00  4.9628205719718385e-04 -9.1686943653455678e-03 0.0000000000000000e+00  5.3051353826645889e-04 -9.1338941038838876e-03 0.0000000000000000e+00  5.6474612105295496e-04 -9.0964841333738642e-03 0.0000000000000000e+00  5.9897970028027206e-04 -9.0563985671305528e-03 0.0000000000000000e+00  6.3321514359066476e-04 -9.0135642608205144e-03 0.0000000000000000e+00  6.6745193975576681e-04 -8.9678971437079195e-03 0.0000000000000000e+00  7.0168991364273983e-04 -8.9193071524287203e-03 0.0000000000000000e+00  7.3592935796808537e-04 -8.8676890331667556e-03 0.0000000000000000e+00  7.7017069626117928e-04 -8.8129256422184148e-03 0.0000000000000000e+00  8.0441396037802290e-04 -8.7548838883267765e-03 0.0000000000000000e+00  8.3865952073504824e-04 -8.6934121115978865e-03 0.0000000000000000e+00  8.7290751139396680e-04 -8.6283374073504258e-03 0.0000000000000000e+00  9.0715887131375566e-04 -8.5594584526430748e-03 0.0000000000000000e+00  9.4141213154926235e-04 -8.4865414311716091e-03 0.0000000000000000e+00  9.7566907632881249e-04 -8.4093117447342838e-03 0.0000000000000000e+00  1.0099326822970210e-03 -8.3274487167850752e-03 0.0000000000000000e+00  1.0441983470483565e-03 -8.2405472275407336e-03 0.0000000000000000e+00  1.0784697689208722e-03 -8.1481184598234963e-03 0.0000000000000000e+00  1.1127553580657112e-03 -8.0495596707229177e-03 0.0000000000000000e+00  1.1470616355659931e-03 -7.9440912514845505e-03 0.0000000000000000e+00  1.1813749215370327e-03 -7.8306074634973254e-03 0.0000000000000000e+00  1.2157079476773545e-03 -7.7076135766151622e-03 0.0000000000000000e+00  1.2500175793354793e-03 -7.5728923025999350e-03 0.0000000000000000e+00  1.2852903456666606e-03 -7.4225785344301434e-03 0.0000000000000000e+00  1.3204116872648798e-03 -7.2449891130254756e-03 0.0000000000000000e+00  -2.0086240844352542e-05 -2.8911732296562915e-04 0.0000000000000000e+00  -4.0179617177095870e-05 -2.9172837598338413e-04 0.0000000000000000e+00  -6.0287201413790703e-05 -2.9608441904130226e-04 0.0000000000000000e+00  -8.0416147055850472e-05 -3.0219217766083505e-04 0.0000000000000000e+00  -1.0057342756160236e-04 -3.1006080768102891e-04 0.0000000000000000e+00  -1.2076645217230755e-04 -3.1970273654722365e-04 0.0000000000000000e+00  -1.4100126243433961e-04 -3.3113211150641157e-04 0.0000000000000000e+00  -1.6128541041338689e-04 -3.4436692529129939e-04 0.0000000000000000e+00  -1.8162531021981743e-04 -3.5942756596356464e-04 0.0000000000000000e+00  -2.0202771951922580e-04 -3.7633759938293578e-04 0.0000000000000000e+00  -2.2249891003860771e-04 -3.9512330803411497e-04 0.0000000000000000e+00  -2.4304537361705299e-04 -4.1581434428124677e-04 0.0000000000000000e+00  -2.6367308961985751e-04 -4.3844358646276556e-04 0.0000000000000000e+00  -2.8438810710221864e-04 -4.6304730616356945e-04 0.0000000000000000e+00  -3.0519626709965059e-04 -4.8966536523456180e-04 0.0000000000000000e+00  -3.2610312936042201e-04 -5.1834137587976553e-04 0.0000000000000000e+00  -3.4711412198899907e-04 -5.4912285114061305e-04 0.0000000000000000e+00  -3.6823442583864516e-04 -5.8206198223484883e-04 0.0000000000000000e+00  -3.8946865859819927e-04 -6.1721435597051407e-04 0.0000000000000000e+00  -4.1082196768658561e-04 -6.5464120288571731e-04 0.0000000000000000e+00  -4.3229911370555780e-04 -6.9440817588047011e-04 0.0000000000000000e+00  -4.5390227526567885e-04 -7.3658542097007661e-04 0.0000000000000000e+00  -4.7563771892889813e-04 -7.8125179200923365e-04 0.0000000000000000e+00  -4.9750784098846149e-04 -8.2849003968072223e-04 0.0000000000000000e+00  -5.1951621772137362e-04 -8.7839018704826321e-04 0.0000000000000000e+00  -5.4166575703233643e-04 -9.3104978455455986e-04 0.0000000000000000e+00  -5.6395924045808850e-04 -9.8657466968303693e-04 0.0000000000000000e+00  -5.8639887517144824e-04 -1.0450794908840831e-03 0.0000000000000000e+00  -6.0898708237117625e-04 -1.1066888500816164e-03 0.0000000000000000e+00  -6.3172535684486700e-04 -1.1715374827615157e-03 0.0000000000000000e+00  -6.5461492770707130e-04 -1.2397729523454602e-03 0.0000000000000000e+00  -6.7765665762182809e-04 -1.3115554953171389e-03 0.0000000000000000e+00  -7.0085544043935600e-04 -1.3870626468232422e-03 0.0000000000000000e+00  -7.2420200356684773e-04 -1.4664855890502554e-03 0.0000000000000000e+00  -7.4770573588393103e-04 -1.5500380023945857e-03 0.0000000000000000e+00  -7.7136288386278921e-04 -1.6379515701772495e-03 0.0000000000000000e+00  -7.9517336555817014e-04 -1.7304854731616047e-03 0.0000000000000000e+00  -8.1913449676886444e-04 -1.8279281315228158e-03 0.0000000000000000e+00  -8.4324657844602597e-04 -1.9306007827144124e-03 0.0000000000000000e+00  -8.6750824796120193e-04 -2.0388619496904867e-03 0.0000000000000000e+00  -8.9191792295117251e-04 -2.1531160628009429e-03 0.0000000000000000e+00  -9.1647164886493235e-04 -2.2738230190943276e-03 0.0000000000000000e+00  -9.4116970490584599e-04 -2.4015039917189814e-03 0.0000000000000000e+00  -9.6600624671621109e-04 -2.5367569577685028e-03 0.0000000000000000e+00  -9.9097601167468137e-04 -2.6802749960755856e-03 0.0000000000000000e+00  -1.0160769858834089e-03 -2.8328705304808406e-03 0.0000000000000000e+00  -1.0413103121987687e-03 -2.9954898604339269e-03 0.0000000000000000e+00  -1.0666696835078394e-03 -3.1692714919033878e-03 0.0000000000000000e+00  -1.0921482521052998e-03 -3.3555830353646961e-03 0.0000000000000000e+00  -1.1177445494402623e-03 -3.5560908301146567e-03 0.0000000000000000e+00  -1.1434381896829259e-03 -3.7729256878325339e-03 0.0000000000000000e+00  -1.1692546177824122e-03 -4.0086830829411850e-03 0.0000000000000000e+00  -1.1951388019102338e-03 -4.2669914441340589e-03 0.0000000000000000e+00  -1.2210949799949485e-03 -4.5526129327641352e-03 0.0000000000000000e+00  -1.2471256485930685e-03 -4.8723776798411554e-03 0.0000000000000000e+00  -1.2733391807257437e-03 -5.2368627886057372e-03 0.0000000000000000e+00  -1.2990996094086598e-03 -5.6645236736296350e-03 0.0000000000000000e+00  -1.3262623663044086e-03 -6.1951227620177692e-03 0.0000000000000000e+00  0.0000000000000000e+00 -5.5940616430718261e-05 0.0000000000000000e+00  0.0000000000000000e+00 -1.0449656082469720e-04 0.0000000000000000e+00  0.0000000000000000e+00 -1.4657158332381299e-04 0.0000000000000000e+00  0.0000000000000000e+00 -1.8293553119765851e-04 0.0000000000000000e+00  0.0000000000000000e+00 -2.1417343401889367e-04 0.0000000000000000e+00  0.0000000000000000e+00 -2.4076672813349803e-04 0.0000000000000000e+00  0.0000000000000000e+00 -2.6311831372522853e-04 0.0000000000000000e+00  0.0000000000000000e+00 -2.8157304795478556e-04 0.0000000000000000e+00  0.0000000000000000e+00 -2.9640487006395275e-04 0.0000000000000000e+00  0.0000000000000000e+00 -3.0791474849447620e-04 0.0000000000000000e+00  0.0000000000000000e+00 -3.1634564728418160e-04 0.0000000000000000e+00  0.0000000000000000e+00 -3.2194998401645873e-04 0.0000000000000000e+00  0.0000000000000000e+00 -3.2498551802471798e-04 0.0000000000000000e+00  0.0000000000000000e+00 -3.2570679963117609e-04 0.0000000000000000e+00  0.0000000000000000e+00 -3.2437514890129099e-04 0.0000000000000000e+00  0.0000000000000000e+00 -3.2125939160832195e-04 0.0000000000000000e+00  0.0000000000000000e+00 -3.1663773111939526e-04 0.0000000000000000e+00  0.0000000000000000e+00 -3.1078780385758356e-04 0.0000000000000000e+00  0.0000000000000000e+00 -3.0398997768890288e-04 0.0000000000000000e+00  0.0000000000000000e+00 -2.9652391288257946e-04 0.0000000000000000e+00  0.0000000000000000e+00 -2.8866488307339528e-04 0.0000000000000000e+00  0.0000000000000000e+00 -2.8067795494269909e-04 0.0000000000000000e+00  0.0000000000000000e+00 -2.7281918037637480e-04 0.0000000000000000e+00  0.0000000000000000e+00 -2.6532174069545186e-04 0.0000000000000000e+00  0.0000000000000000e+00 -2.5840832732147327e-04 0.0000000000000000e+00  0.0000000000000000e+00 -2.5227978460761564e-04 0.0000000000000000e+00  0.0000000000000000e+00 -2.4710520071970855e-04 0.0000000000000000e+00  0.0000000000000000e+00 -2.4303775754614001e-04 0.0000000000000000e+00  0.0000000000000000e+00 -2.4019947856664055e-04 0.0000000000000000e+00  0.0000000000000000e+00 -2.3868622203944754e-04 0.0000000000000000e+00  0.0000000000000000e+00 -2.3856782418026946e-04 0.0000000000000000e+00  0.0000000000000000e+00 -2.3988705669449170e-04 0.0000000000000000e+00  0.0000000000000000e+00 -2.4266227131617294e-04 0.0000000000000000e+00  0.0000000000000000e+00 -2.4688903292920426e-04 0.0000000000000000e+00  0.0000000000000000e+00 -2.5254097538642228e-04 0.0000000000000000e+00  0.0000000000000000e+00 -2.5957234873899402e-04 0.0000000000000000e+00  0.0000000000000000e+00 -2.6792038794474875e-04 0.0000000000000000e+00  0.0000000000000000e+00 -2.7750840786340780e-04 0.0000000000000000e+00  0.0000000000000000e+00 0.0000000000000000e+00 0.0000000000000000e+00  0.0000000000000000e+00 0.0000000000000000e+00 0.0000000000000000e+00  0.0000000000000000e+00 0.0000000000000000e+00 0.0000000000000000e+00  0.0000000000000000e+00 0.0000000000000000e+00 0.0000000000000000e+00  0.0000000000000000e+00 0.0000000000000000e+00 0.0000000000000000e+00  0.0000000000000000e+00 0.0000000000000000e+00 0.0000000000000000e+00  0.0000000000000000e+00 0.0000000000000000e+00 0.0000000000000000e+00  0.0000000000000000e+00 0.0000000000000000e+00 0.0000000000000000e+00  0.0000000000000000e+00 0.0000000000000000e+00 0.0000000000000000e+00  0.0000000000000000e+00 0.0000000000000000e+00 0.0000000000000000e+00  0.0000000000000000e+00 0.0000000000000000e+00 0.0000000000000000e+00  0.0000000000000000e+00 0.0000000000000000e+00 0.0000000000000000e+00  0.0000000000000000e+00 0.0000000000000000e+00 0.0000000000000000e+00  0.0000000000000000e+00 0.0000000000000000e+00 0.0000000000000000e+00  0.0000000000000000e+00 0.0000000000000000e+00 0.0000000000000000e+00  0.0000000000000000e+00 0.0000000000000000e+00 0.0000000000000000e+00  0.0000000000000000e+00 0.0000000000000000e+00 0.0000000000000000e+00  0.0000000000000000e+00 0.0000000000000000e+00 0.0000000000000000e+00  0.0000000000000000e+00 -2.7742115641748338e-04 0.0000000000000000e+00  0.0000000000000000e+00 -2.6777177761186003e-04 0.0000000000000000e+00  0.0000000000000000e+00 -2.5938795701170174e-04 0.0000000000000000e+00  0.0000000000000000e+00 -2.5234545683889035e-04 0.0000000000000000e+00  0.0000000000000000e+00 -2.4670591990606880e-04 0.0000000000000000e+00  0.0000000000000000e+00 -2.4251276498576612e-04 0.0000000000000000e+00  0.0000000000000000e+00 -2.3978947699116723e-04 0.0000000000000000e+00  0.0000000000000000e+00 -2.3853774513316032e-04 0.0000000000000000e+00  0.0000000000000000e+00 -2.3873574170602541e-04 0.0000000000000000e+00  0.0000000000000000e+00 -2.4033550358977537e-04 0.0000000000000000e+00  0.0000000000000000e+00 -2.4326502333436487e-04 0.0000000000000000e+00  0.0000000000000000e+00 -2.4741939508622239e-04 0.0000000000000000e+00  0.0000000000000000e+00 -2.5267695304412215e-04 0.0000000000000000e+00  0.0000000000000000e+00 -2.5888102430960595e-04 0.0000000000000000e+00  0.0000000000000000e+00 -2.6585488024176933e-04 0.0000000000000000e+00  0.0000000000000000e+00 -2.7339341471181722e-04 0.0000000000000000e+00  0.0000000000000000e+00 -2.8127588836355464e-04 0.0000000000000000e+00  0.0000000000000000e+00 -2.8926580226700590e-04 0.0000000000000000e+00  0.0000000000000000e+00 -2.9710397449941677e-04 0.0000000000000000e+00  0.0000000000000000e+00 -3.0452521261604124e-04 0.0000000000000000e+00  0.0000000000000000e+00 -3.1125595405223096e-04 0.0000000000000000e+00  0.0000000000000000e+00 -3.1701855114250232e-04 0.0000000000000000e+00  0.0000000000000000e+00 -3.2153430263166842e-04 0.00000000000