<?xml version="1.0"?>
<VTKFile type="UnstructuredGrid"  version="0.1"  >
<UnstructuredGrid>
<Piece  NumberOfPoints="3167" NumberOfCells="6038">
<Points>
<DataArray  type="Float64"  NumberOfComponents="3"  format="ascii">2.2 2.9 0  0 2.9 0  2.8 2.9 0  5 2.9 0  5 0 0  0 0 0  2.16271186440678 2.9 0  2.125423728813559 2.9 0  2.088135593220339 2.9 0  2.050847457627119 2.9 0  2.013559322033898 2.9 0  1.976271186440678 2.9 0  1.938983050847457 2.9 0  1.901694915254237 2.9 0  1.864406779661016 2.9 0  1.827118644067796 2.9 0  1.789830508474575 2.9 0  1.752542372881355 2.9 0  1.715254237288134 2.9 0  1.677966101694914 2.9 0  1.640677966101693 2.9 0  1.603389830508473 2.9 0  1.566101694915253 2.9 0  1.528813559322032 2.9 0  1.491525423728812 2.9 0  1.454237288135591 2.9 0  1.416949152542371 2.9 0  1.37966101694915 2.9 0  1.34237288135593 2.9 0  1.305084745762709 2.9 0  1.267796610169489 2.9 0  1.230508474576268 2.9 0  1.193220338983048 2.9 0  1.155932203389827 2.9 0  1.118644067796607 2.9 0  1.081355932203387 2.9 0  1.044067796610166 2.9 0  1.006779661016946 2.9 0  0.9694915254237257 2.9 0  0.9322033898305055 2.9 0  0.8949152542372856 2.9 0  0.8576271186440652 2.9 0  0.820338983050845 2.9 0  0.783050847457625 2.9 0  0.7457627118644048 2.9 0  0.7084745762711844 2.9 0  0.6711864406779642 2.9 0  0.633898305084744 2.9 0  0.5966101694915238 2.9 0  0.5593220338983036 2.9 0  0.5220338983050834 2.9 0  0.4847457627118632 2.9 0  0.447457627118643 2.9 0  0.4101694915254228 2.9 0  0.3728813559322024 2.9 0  0.3355932203389822 2.9 0  0.2983050847457622 2.9 0  0.2610169491525418 2.9 0  0.2237288135593216 2.9 0  0.1864406779661016 2.9 0  0.1491525423728812 2.9 0  0.1118644067796613 2.9 0  0.07457627118644039 2.9 0  0.03728813559321997 2.9 0  2.792405063291139 2.9 0  2.784810126582279 2.9 0  2.777215189873418 2.9 0  2.769620253164557 2.9 0  2.762025316455697 2.9 0  2.754430379746836 2.9 0  2.746835443037975 2.9 0  2.739240506329114 2.9 0  2.731645569620254 2.9 0  2.724050632911393 2.9 0  2.716455696202532 2.9 0  2.708860759493671 2.9 0  2.701265822784811 2.9 0  2.69367088607595 2.9 0  2.686075949367089 2.9 0  2.678481012658228 2.9 0  2.670886075949368 2.9 0  2.663291139240507 2.9 0  2.655696202531646 2.9 0  2.648101265822786 2.9 0  2.640506329113925 2.9 0  2.632911392405064 2.9 0  2.625316455696203 2.9 0  2.617721518987342 2.9 0  2.610126582278482 2.9 0  2.602531645569621 2.9 0  2.59493670886076 2.9 0  2.587341772151899 2.9 0  2.579746835443038 2.9 0  2.572151898734178 2.9 0  2.564556962025317 2.9 0  2.556962025316456 2.9 0  2.549367088607595 2.9 0  2.541772151898734 2.9 0  2.534177215189874 2.9 0  2.526582278481013 2.9 0  2.518987341772152 2.9 0  2.511392405063292 2.9 0  2.503797468354431 2.9 0  2.49620253164557 2.9 0  2.488607594936709 2.9 0  2.481012658227848 2.9 0  2.473417721518988 2.9 0  2.465822784810127 2.9 0  2.458227848101266 2.9 0  2.450632911392406 2.9 0  2.443037974683545 2.9 0  2.435443037974684 2.9 0  2.427848101265823 2.9 0  2.420253164556962 2.9 0  2.412658227848102 2.9 0  2.405063291139241 2.9 0  2.39746835443038 2.9 0  2.389873417721519 2.9 0  2.382278481012658 2.9 0  2.374683544303798 2.9 0  2.367088607594937 2.9 0  2.359493670886076 2.9 0  2.351898734177215 2.9 0  2.344303797468355 2.9 0  2.336708860759494 2.9 0  2.329113924050633 2.9 0  2.321518987341773 2.9 0  2.313924050632912 2.9 0  2.306329113924051 2.9 0  2.29873417721519 2.9 0  2.291139240506329 2.9 0  2.283544303797469 2.9 0  2.275949367088608 2.9 0  2.268354430379747 2.9 0  2.260759493670887 2.9 0  2.253164556962026 2.9 0  2.245569620253165 2.9 0  2.237974683544304 2.9 0  2.230379746835443 2.9 0  2.222784810126583 2.9 0  2.215189873417722 2.9 0  2.207594936708861 2.9 0  4.96271186440678 2.9 0  4.925423728813559 2.9 0  4.888135593220339 2.9 0  4.850847457627118 2.9 0  4.813559322033898 2.9 0  4.776271186440677 2.9 0  4.738983050847457 2.9 0  4.701694915254237 2.9 0  4.664406779661016 2.9 0  4.627118644067796 2.9 0  4.589830508474575 2.9 0  4.552542372881355 2.9 0  4.515254237288135 2.9 0  4.477966101694914 2.9 0  4.440677966101694 2.9 0  4.403389830508473 2.9 0  4.366101694915252 2.9 0  4.328813559322032 2.9 0  4.291525423728811 2.9 0  4.254237288135591 2.9 0  4.21694915254237 2.9 0  4.17966101694915 2.9 0  4.14237288135593 2.9 0  4.105084745762709 2.9 0  4.067796610169489 2.9 0  4.030508474576268 2.9 0  3.993220338983048 2.9 0  3.955932203389827 2.9 0  3.918644067796607 2.9 0  3.881355932203387 2.9 0  3.844067796610166 2.9 0  3.806779661016946 2.9 0  3.769491525423725 2.9 0  3.732203389830505 2.9 0  3.694915254237285 2.9 0  3.657627118644065 2.9 0  3.620338983050845 2.9 0  3.583050847457625 2.9 0  3.545762711864405 2.9 0  3.508474576271184 2.9 0  3.471186440677964 2.9 0  3.433898305084744 2.9 0  3.396610169491524 2.9 0  3.359322033898303 2.9 0  3.322033898305083 2.9 0  3.284745762711863 2.9 0  3.247457627118643 2.9 0  3.210169491525423 2.9 0  3.172881355932202 2.9 0  3.135593220338982 2.9 0  3.098305084745762 2.9 0  3.061016949152542 2.9 0  3.023728813559321 2.9 0  2.986440677966101 2.9 0  2.949152542372881 2.9 0  2.911864406779661 2.9 0  2.87457627118644 2.9 0  2.83728813559322 2.9 0  5 0.1063822625082082 0  5 0.210636880010749 0  5 0.3128064053694972 0  5 0.4129325400644018 0  5 0.5110561521032336 0  5 0.6072172918830103 0  5 0.7014552087832795 0  5 0.7938083674443693 0  5 0.88431446261646 0  5 0.9730104359544682 0  5 1.059932489996267 0  5 1.145116102913299 0  5 1.228596043483191 0  5 1.310406385079062 0  5 1.390580519944147 0  5 1.469151172477827 0  5 1.546150411986101 0  5 1.621609666658609 0  5 1.695559736099044 0  5 1.76803080383987 0  5 1.839052450169751 0  5 1.908653663631169 0  5 1.97686285289587 0  5 2.043707858613779 0  5 2.109215964341413 0  5 2.173413907925942 0  5 2.236327892833935 0  5 2.297983597762904 0  5 2.35840618845912 0  5 2.41762032730194 0  5 2.475650183444628 0  5 2.532519442457069 0  5 2.588251316112828 0  5 2.642868552557322 0  5 2.696393444426347 0  5 2.748847838312051 0  5 2.800253144313381 0  5 2.850630344319807 0  0.2631578947368421 0 0  0.5263157894736842 0 0  0.7894736842105263 0 0  1.052631578947368 0 0  1.31578947368421 0 0  1.578947368421053 0 0  1.842105263157895 0 0  2.105263157894737 0 0  2.368421052631579 0 0  2.631578947368421 0 0  2.894736842105263 0 0  3.157894736842105 0 0  3.421052631578947 0 0  3.684210526315789 0 0  3.947368421052632 0 0  4.210526315789473 0 0  4.473684210526315 0 0  4.736842105263158 0 0  0 2.850203682350569 0  0 2.799411438503675 0  0 2.747603349778291 0  0 2.694759099502208 0  0 2.640857964382145 0  0 2.58587880633613 0  0 2.52980006535898 0  0 2.472599749459174 0  0 2.414255427218689 0  0 2.35474421880616 0  0 2.294042786119219 0  0 2.232127324764723 0  0 2.1689735539481 0  0 2.104556707683347 0  0 2.038851524813415 0  0 1.971832238155655 0  0 1.903472565412126 0  0 1.83374569926617 0  0 1.762624296208475 0  0 1.690080464918761 0  0 1.616085756774206 0  0 1.540611154706337 0  0 1.463627060685571 0  0 1.385103284916206 0  0 1.305009033716617 0  0 1.223312897337225 0  0 1.139982838163732 0  0 1.054986177579938 0  0 0.9682895835804817 0  0 0.8798590579197976 0  0 0.7896599218415354 0  0 0.6976568029903638 0  0 0.6038136217958798 0  0 0.508093576867624 0  0 0.4104591310957497 0  0 0.3108719963522191 0  0 0.2092931188294389 0  0 0.1056826638508546 0  1.434832105763824 2.866945754981483 0  1.737156300467626 2.870039440267515 0  2.032203389830508 2.867707527316512 0  2.332911392405064 2.893422591869991 0  2.469810913293406 2.891944186606167 0  2.606221408823969 2.892519154985628 0  2.255455320628894 2.892068685006691 0  2.538247299216212 2.894964578182811 0  2.674683544303798 2.893422591869991 0  2.40126582278481 2.893422591869991 0  3.566125247295424 2.865029336199714 0  3.266101694915253 2.867707527316512 0  2.967796610169491 2.867707527316512 0  1.174288529834642 2.870795313888584 0  3.825423728813556 2.867707527316512 0  2.727766680262011 2.892655387647729 0  0.06601655192030442 1.502119107695954 0  4.933983535508361 1.507650792231964 0  0.9532124728485543 2.868722489783638 0  4.048935912500257 2.870640982995992 0  0.05930163367361763 1.866907161167414 0  4.943402512618553 1.871280731473148 0  4.271733870017743 2.86520865624265 0  0.7249420921613114 2.863922936177041 0  0.05494499779910056 2.196469063120752 0  4.947228695426367 2.208030108792719 0  0.5406152150397161 2.866493807382013 0  4.459322033898304 2.868847558178794 0  2.18135593220339 2.875780645487384 0  2.817027156509632 2.876587550645167 0  4.928427208322876 1.186856073198245 0  0.07189226971603224 1.174626666111662 0  4.610299014423113 2.867003104093161 0  0.3897270066746357 2.869433095314657 0  1.581132500042262 2.868247328632392 0  1.887637879411437 2.869235851794358 0  3.413449426418068 2.867372048034327 0  3.116721298814773 2.865731235547652 0  2.644303797468355 2.893422591869991 0  2.370983221828106 2.892719513369796 0  2.302531645569621 2.893336787387268 0  2.758987341772152 2.894242393897099 0  0.04979653335696277 2.443411216910286 0  4.950470983477169 2.446866954595817 0  2.482937483021586 0.2513241087417575 0  1.707129504814338 0.1999998659920923 0  3.28584657955054 0.229200625631625 0  4.907807122600524 0.834082362900164 0  4.757627118644067 2.867707527316512 0  0.0773489124676745 0.8347594898806663 0  0.2390604736599387 2.861365431805741 0  0.8363213715215729 2.863896768908178 0  4.160865610207075 2.868916854015731 0  1.282549332053297 2.867610952980761 0  1.065094818402487 2.861284686038041 0  3.93818127737282 2.86865134411395 0  3.711492629432973 2.863574306925269 0  4.91369361998929 0.5579891344254361 0  0.08208328472281323 0.5559535993317519 0  2.696596932532885 2.892010483922337 0  0.04706410140274553 2.613055974506516 0  4.955577063972248 2.616518038840186 0  2.234177215189874 2.893422591869991 0  2.279795840559739 2.89403861893984 0  0.9117357887652362 0.2117925286661764 0  4.055948041993057 0.2039101057937727 0  4.872119713780579 2.867632926423075 0  2.780113878992455 2.891535929611743 0  0.1327442468251063 2.85
[...]
<PointData  Vectors="displacement"> 
<DataArray  type="Float64"  Name="displacement"  NumberOfComponents="3" format="ascii">1.1815399857698777e-03 -6.1828478686576554e-03 0.0000000000000000e+00  0.0000000000000000e+00 -2.5458326978394384e-04 0.0000000000000000e+00  -1.1831624025176060e-03 -6.1831014360823914e-03 0.0000000000000000e+00  0.0000000000000000e+00 -2.5458357398823938e-04 0.0000000000000000e+00  0.0000000000000000e+00 0.0000000000000000e+00 0.0000000000000000e+00  0.0000000000000000e+00 0.0000000000000000e+00 0.0000000000000000e+00  1.1711470534591796e-03 -5.4719327345981250e-03 0.0000000000000000e+00  1.1476729380885695e-03 -5.0027941572134259e-03 0.0000000000000000e+00  1.1245186235832052e-03 -4.6252756795042305e-03 0.0000000000000000e+00  1.1014958951301942e-03 -4.3033420650038538e-03 0.0000000000000000e+00  1.0785043721614036e-03 -4.0208968600059427e-03 0.0000000000000000e+00  1.0555609694322221e-03 -3.7686505158987388e-03 0.0000000000000000e+00  1.0326896609285062e-03 -3.5405269227153256e-03 0.0000000000000000e+00  1.0098954937939812e-03 -3.3322896742697880e-03 0.0000000000000000e+00  9.8720176651063323e-04 -3.1407897540693072e-03 0.0000000000000000e+00  9.6460018407434878e-04 -2.9636787048417284e-03 0.0000000000000000e+00  9.4209764228665672e-04 -2.7991308484782295e-03 0.0000000000000000e+00  9.1969929595825590e-04 -2.6456544911643010e-03 0.0000000000000000e+00  8.9741379800274148e-04 -2.5020272915140733e-03 0.0000000000000000e+00  8.7524086171832593e-04 -2.3672513635241222e-03 0.0000000000000000e+00  8.5318558903812276e-04 -2.2404915653273746e-03 0.0000000000000000e+00  8.3125057820460893e-04 -2.1210334949061114e-03 0.0000000000000000e+00  8.0944047009046821e-04 -2.0082657719156741e-03 0.0000000000000000e+00  7.8775287645651735e-04 -1.9016584817298839e-03 0.0000000000000000e+00  7.6619409952721393e-04 -1.8007476740805083e-03 0.0000000000000000e+00  7.4476559936955051e-04 -1.7051294997379022e-03 0.0000000000000000e+00  7.2346921704725866e-04 -1.6144476402488641e-03 0.0000000000000000e+00  7.0230569064007829e-04 -1.5283859044715755e-03 0.0000000000000000e+00  6.8127739144647874e-04 -1.4466572445196151e-03 0.0000000000000000e+00  6.6038270643006228e-04 -1.3690095403946071e-03 0.0000000000000000e+00  6.3962394281612050e-04 -1.2952166271932317e-03 0.0000000000000000e+00  6.1900168503292946e-04 -1.2250703050949050e-03 0.0000000000000000e+00  5.9851542810740834e-04 -1.1583811013460882e-03 0.0000000000000000e+00  5.7816311016006111e-04 -1.0949819080093280e-03 0.0000000000000000e+00  5.5794837394738353e-04 -1.0347170397203404e-03 0.0000000000000000e+00  5.3786432630011582e-04 -9.7744097136875756e-04 0.0000000000000000e+00  5.1791442856198935e-04 -9.2302564242944531e-04 0.0000000000000000e+00  4.9809611717726763e-04 -8.7135283814906907e-04 0.0000000000000000e+00  4.7840582254535171e-04 -8.2231412588366069e-04 0.0000000000000000e+00  4.5884310350524920e-04 -7.7580387604881816e-04 0.0000000000000000e+00  4.3940482708862134e-04 -7.3173185274302648e-04 0.0000000000000000e+00  4.2008900972753487e-04 -6.9001074349937168e-04 0.0000000000000000e+00  4.0089201057221760e-04 -6.5056029295388251e-04 0.0000000000000000e+00  3.8181110934557829e-04 -6.1330842085893171e-04 0.0000000000000000e+00  3.6284283515533529e-04 -5.7818604312695617e-04 0.0000000000000000e+00  3.4398337616641558e-04 -5.4513044671164956e-04 0.0000000000000000e+00  3.2522891304460498e-04 -5.1408356839759085e-04 0.0000000000000000e+00  3.0657541420984238e-04 -4.8499163241488711e-04 0.0000000000000000e+00  2.8801815121545955e-04 -4.5780480851513106e-04 0.0000000000000000e+00  2.6955295367567640e-04 -4.3247788228842820e-04 0.0000000000000000e+00  2.5117488359909543e-04 -4.0896841770297183e-04 0.0000000000000000e+00  2.3287909368350748e-04 -3.8723812797450261e-04 0.0000000000000000e+00  2.1466042475271150e-04 -3.6725170639851512e-04 0.0000000000000000e+00  1.9651363059323547e-04 -3.4897724150805606e-04 0.0000000000000000e+00  1.7843320245339539e-04 -3.3238548311098740e-04 0.0000000000000000e+00  1.6041351526618495e-04 -3.1745043178222601e-04 0.0000000000000000e+00  1.4244941943929873e-04 -3.0414886590306742e-04 0.0000000000000000e+00  1.2453398931737411e-04 -2.9245960953051256e-04 0.0000000000000000e+00  1.0666205758186711e-04 -2.8236475521790867e-04 0.0000000000000000e+00  8.8827594596935526e-05 -2.7384915527242588e-04 0.0000000000000000e+00  7.1024801605183547e-05 -2.6689951071118197e-04 0.0000000000000000e+00  5.3246328775750085e-05 -2.6150502912703492e-04 0.0000000000000000e+00  3.5486966814860780e-05 -2.5765763633457043e-04 0.0000000000000000e+00  1.7740263619852628e-05 -2.5535155580874545e-04 0.0000000000000000e+00  -1.1663687809076717e-03 -6.3993527084546973e-03 0.0000000000000000e+00  -1.1349827827552281e-03 -6.5552664034107576e-03 0.0000000000000000e+00  -1.1042811514020965e-03 -6.6884789199631884e-03 0.0000000000000000e+00  -1.0737294080494656e-03 -6.8075028937706937e-03 0.0000000000000000e+00  -1.0433911557882049e-03 -6.9161037041883195e-03 0.0000000000000000e+00  -1.0130804416887121e-03 -7.0163067383360242e-03 0.0000000000000000e+00  -9.8279041793416263e-04 -7.1094775824100467e-03 0.0000000000000000e+00  -9.5251359727227926e-04 -7.1965279448529930e-03 0.0000000000000000e+00  -9.2223739750781834e-04 -7.2781538854593490e-03 0.0000000000000000e+00  -8.9197163441138158e-04 -7.3549046830686231e-03 0.0000000000000000e+00  -8.6171399878081495e-04 -7.4272100542202672e-03 0.0000000000000000e+00  -8.3145856869906872e-04 -7.4954172055085953e-03 0.0000000000000000e+00  -8.0120633693074887e-04 -7.5598187471355134e-03 0.0000000000000000e+00  -7.7095742381717652e-04 -7.6206540337870679e-03 0.0000000000000000e+00  -7.4070810994324523e-04 -7.6781259412837428e-03 0.0000000000000000e+00  -7.1046275264817992e-04 -7.7324176650042289e-03 0.0000000000000000e+00  -6.8021908452323208e-04 -7.7836807677482802e-03 0.0000000000000000e+00  -6.4997728784240512e-04 -7.8320480857684682e-03 0.0000000000000000e+00  -6.1973698849137596e-04 -7.8776376935906656e-03 0.0000000000000000e+00  -5.8949791945712819e-04 -7.9205529296363184e-03 0.0000000000000000e+00  -5.5926010393172229e-04 -7.9608857145048780e-03 0.0000000000000000e+00  -5.2902349838373055e-04 -7.9987178177042036e-03 0.0000000000000000e+00  -4.9878785410275911e-04 -8.0341216302861791e-03 0.0000000000000000e+00  -4.6855332216679549e-04 -8.0671625007534969e-03 0.0000000000000000e+00  -4.3831971929713818e-04 -8.0978987620668724e-03 0.0000000000000000e+00  -4.0808695018789960e-04 -8.1263819234190012e-03 0.0000000000000000e+00  -3.7785536403325696e-04 -8.1526585940547690e-03 0.0000000000000000e+00  -3.4762398061212934e-04 -8.1767698109790690e-03 0.0000000000000000e+00  -3.1739338945392225e-04 -8.1987530612260689e-03 0.0000000000000000e+00  -2.8716353617021972e-04 -8.2186409801892086e-03 0.0000000000000000e+00  -2.5693427700390094e-04 -8.2364626031622059e-03 0.0000000000000000e+00  -2.2670541153359616e-04 -8.2522431571835329e-03 0.0000000000000000e+00  -1.9647696769443867e-04 -8.2660048215839419e-03 0.0000000000000000e+00  -1.6624900853345746e-04 -8.2777665683647240e-03 0.0000000000000000e+00  -1.3602110150218706e-04 -8.2875439000135321e-03 0.0000000000000000e+00  -1.0579398313735441e-04 -8.2953505627302252e-03 0.0000000000000000e+00  -7.5566556912112171e-05 -8.3011966251230907e-03 0.0000000000000000e+00  -4.5339378750402237e-05 -8.3050896252188037e-03 0.0000000000000000e+00  -1.5112395141769906e-05 -8.3070348791636234e-03 0.0000000000000000e+00  1.5114591471456121e-05 -8.3070348417322148e-03 0.0000000000000000e+00  4.5341605426742131e-05 -8.3050895001912546e-03 0.0000000000000000e+00  7.5568709286302142e-05 -8.3011963441047953e-03 0.0000000000000000e+00  1.0579596301174209e-04 -8.2953503438025523e-03 0.0000000000000000e+00  1.3602335035160790e-04 -8.2875436472159003e-03 0.0000000000000000e+00  1.6625109728874866e-04 -8.2777658885931169e-03 0.0000000000000000e+00  1.9647909156540649e-04 -8.2660042576012116e-03 0.0000000000000000e+00  2.2670749115741203e-04 -8.2522426141948112e-03 0.0000000000000000e+00  2.5693631317732607e-04 -8.2364619873835573e-03 0.0000000000000000e+00  2.8716572207803287e-04 -8.2186403953838794e-03 0.0000000000000000e+00  3.1739558351275406e-04 -8.1987522949853540e-03 0.0000000000000000e+00  3.4762610264618172e-04 -8.1767690593488439e-03 0.0000000000000000e+00  3.7785753869136267e-04 -8.1526575903365858e-03 0.0000000000000000e+00  4.0808934077214893e-04 -8.1263808908322247e-03 0.0000000000000000e+00  4.3832210891138137e-04 -8.0978979431154188e-03 0.0000000000000000e+00  4.6855575277548561e-04 -8.0671619457660538e-03 0.0000000000000000e+00  4.9879036968910630e-04 -8.0341210229068379e-03 0.0000000000000000e+00  5.2902586667089697e-04 -7.9987169826481446e-03 0.0000000000000000e+00  5.5926301003263082e-04 -7.9608852230604495e-03 0.0000000000000000e+00  5.8950134825144340e-04 -7.9205514918880091e-03 0.0000000000000000e+00  6.1974072664796698e-04 -7.8776362441158668e-03 0.0000000000000000e+00  6.4998140375283411e-04 -7.8320465183443523e-03 0.0000000000000000e+00  6.8022375363213628e-04 -7.7836788518863293e-03 0.0000000000000000e+00  7.1046780442146509e-04 -7.7324156969893346e-03 0.0000000000000000e+00  7.4071388327694014e-04 -7.6781231058638188e-03 0.0000000000000000e+00  7.7096210860343021e-04 -7.6206483670759155e-03 0.0000000000000000e+00  8.0121330970046997e-04 -7.5598136698526363e-03 0.0000000000000000e+00  8.3146618917854501e-04 -7.4954125049033855e-03 0.0000000000000000e+00  8.6172232288895059e-04 -7.4272023438893969e-03 0.0000000000000000e+00  8.9198433983897420e-04 -7.3548999615400982e-03 0.0000000000000000e+00  9.2224817513029945e-04 -7.2781475513315867e-03 0.0000000000000000e+00  9.5251709517828740e-04 -7.1965133842236666e-03 0.0000000000000000e+00  9.8279852792664902e-04 -7.1094651106384842e-03 0.0000000000000000e+00  1.0130982328721535e-03 -7.0163141710191945e-03 0.0000000000000000e+00  1.0434041277808817e-03 -6.9160839641107703e-03 0.0000000000000000e+00  1.0737274574376626e-03 -6.8074543267914881e-03 0.0000000000000000e+00  1.1040301248145469e-03 -6.6884669241940977e-03 0.0000000000000000e+00  1.1351834439829625e-03 -6.5557080486572739e-03 0.0000000000000000e+00  1.1662030230587619e-03 -6.3988589976356333e-03 0.0000000000000000e+00  -1.7740402497566807e-05 -2.5535179619592041e-04 0.0000000000000000e+00  -3.5487107141814539e-05 -2.5765790871525143e-04 0.0000000000000000e+00  -5.3246360372763997e-05 -2.6150521681750035e-04 0.0000000000000000e+00  -7.1024480246407965e-05 -2.6689966056175928e-04 0.0000000000000000e+00  -8.8827625802582994e-05 -2.7384932649200335e-04 0.0000000000000000e+00  -1.0666234096970217e-04 -2.8236519067309507e-04 0.0000000000000000e+00  -1.2453396171208076e-04 -2.9245974811880119e-04 0.0000000000000000e+00  -1.4244915810233423e-04 -3.0414889022078241e-04 0.0000000000000000e+00  -1.6041359515764873e-04 -3.1745062395322117e-04 0.0000000000000000e+00  -1.7843324132719911e-04 -3.3238576295865110e-04 0.0000000000000000e+00  -1.9651363587351454e-04 -3.4897752023451014e-04 0.0000000000000000e+00  -2.1466051246469612e-04 -3.6725208509511551e-04 0.0000000000000000e+00  -2.3287915214600518e-04 -3.8723849607295326e-04 0.0000000000000000e+00  -2.5117489751363796e-04 -4.0896878865541496e-04 0.0000000000000000e+00  -2.6955290743837710e-04 -4.3247816929475869e-04 0.0000000000000000e+00  -2.8801809235482492e-04 -4.5780515679891666e-04 0.0000000000000000e+00  -3.0657524642823970e-04 -4.8499171524097917e-04 0.0000000000000000e+00  -3.2522894544872999e-04 -5.1408394051398996e-04 0.0000000000000000e+00  -3.4398326781300763e-04 -5.4513092753600103e-04 0.0000000000000000e+00  -3.6284275978158242e-04 -5.7818675583337024e-04 0.0000000000000000e+00  -3.8181162597352130e-04 -6.1330941081413741e-04 0.0000000000000000e+00  -4.0089179056311736e-04 -6.5056084625824252e-04 0.0000000000000000e+00  -4.2008878825107015e-04 -6.9001070681107431e-04 0.0000000000000000e+00  -4.3940473547156029e-04 -7.3173207884209715e-04 0.0000000000000000e+00  -4.5884279083420514e-04 -7.7580447177255294e-04 0.0000000000000000e+00  -4.7840552263439897e-04 -8.2231404329271283e-04 0.0000000000000000e+00  -4.9809538755787332e-04 -8.7135427030399551e-04 0.0000000000000000e+00  -5.1791433500543926e-04 -9.2302641165674447e-04 0.0000000000000000e+00  -5.3786450340811867e-04 -9.7744051722536821e-04 0.0000000000000000e+00  -5.5794721297977221e-04 -1.0347155869645495e-03 0.0000000000000000e+00  -5.7816354928872651e-04 -1.0949819506116828e-03 0.0000000000000000e+00  -5.9851427424993501e-04 -1.1583811309005382e-03 0.0000000000000000e+00  -6.1900371016906540e-04 -1.2250699289460744e-03 0.0000000000000000e+00  -6.3962366738385757e-04 -1.2952171990881808e-03 0.0000000000000000e+00  -6.6038243826244960e-04 -1.3690116663485014e-03 0.0000000000000000e+00  -6.8127670764523654e-04 -1.4466579561419493e-03 0.0000000000000000e+00  -7.0230640315721538e-04 -1.5283849799456496e-03 0.0000000000000000e+00  -7.2346915408052939e-04 -1.6144474738267194e-03 0.0000000000000000e+00  -7.4476522621875249e-04 -1.7051291584557935e-03 0.0000000000000000e+00  -7.6619341608252084e-04 -1.8007466854930558e-03 0.0000000000000000e+00  -7.8775232611015913e-04 -1.9016572525468170e-03 0.0000000000000000e+00  -8.0943846359603471e-04 -2.0082670460614118e-03 0.0000000000000000e+00  -8.3125207513581954e-04 -2.1210363722481505e-03 0.0000000000000000e+00  -8.5318799892453634e-04 -2.2404933714597714e-03 0.0000000000000000e+00  -8.7524158695355002e-04 -2.3672501790156625e-03 0.0000000000000000e+00  -8.9741106052476215e-04 -2.5020243371400110e-03 0.0000000000000000e+00  -9.1969742902226967e-04 -2.6456516285584299e-03 0.0000000000000000e+00  -9.4209512193028108e-04 -2.7991375950387576e-03 0.0000000000000000e+00  -9.6459809127548337e-04 -2.9636901261250225e-03 0.0000000000000000e+00  -9.8720504001658131e-04 -3.1407809521450595e-03 0.0000000000000000e+00  -1.0098979631506127e-03 -3.3322920308593890e-03 0.0000000000000000e+00  -1.0326993339538086e-03 -3.5405157155903861e-03 0.0000000000000000e+00  -1.0555605476725411e-03 -3.7686566769359170e-03 0.0000000000000000e+00  -1.0784853472948076e-03 -4.0209209114194155e-03 0.0000000000000000e+00  -1.1014759378084763e-03 -4.3033408705166389e-03 0.0000000000000000e+00  -1.1246280355314956e-03 -4.6252583753379111e-03 0.0000000000000000e+00  -1.1473799469959689e-03 -5.0029734635706966e-03 0.0000000000000000e+00  -1.1713704111155712e-03 -5.4716047752127704e-03 0.0000000000000000e+00  0.0000000000000000e+00 -4.9407405752678130e-05 0.0000000000000000e+00  0.0000000000000000e+00 -9.2292582918163205e-05 0.0000000000000000e+00  0.0000000000000000e+00 -1.2945373417650623e-04 0.0000000000000000e+00  0.0000000000000000e+00 -1.6157079762712902e-04 0.0000000000000000e+00  0.0000000000000000e+00 -1.8916047822106660e-04 0.0000000000000000e+00  0.0000000000000000e+00 -2.1264798616170256e-04 0.0000000000000000e+00  0.0000000000000000e+00 -2.3238916759673437e-04 0.0000000000000000e+00  0.0000000000000000e+00 -2.4868860439802208e-04 0.0000000000000000e+00  0.0000000000000000e+00 -2.6178824290319880e-04 0.0000000000000000e+00  0.0000000000000000e+00 -2.7195390195497513e-04 0.0000000000000000e+00  0.0000000000000000e+00 -2.7940017022909451e-04 0.0000000000000000e+00  0.0000000000000000e+00 -2.8434998588314957e-04 0.0000000000000000e+00  0.0000000000000000e+00 -2.8703100497073615e-04 0.0000000000000000e+00  0.0000000000000000e+00 -2.8766804930928667e-04 0.0000000000000000e+00  0.0000000000000000e+00 -2.8649191983252687e-04 0.0000000000000000e+00  0.0000000000000000e+00 -2.8374004660297028e-04 0.0000000000000000e+00  0.0000000000000000e+00 -2.7965814208355343e-04 0.0000000000000000e+00  0.0000000000000000e+00 -2.7449141800560281e-04 0.0000000000000000e+00  0.0000000000000000e+00 -2.6848749854275355e-04 0.0000000000000000e+00  0.0000000000000000e+00 -2.6189338291089122e-04 0.0000000000000000e+00  0.0000000000000000e+00 -2.5495219599913014e-04 0.0000000000000000e+00  0.0000000000000000e+00 -2.4789804779610641e-04 0.0000000000000000e+00  0.0000000000000000e+00 -2.4095708631782000e-04 0.0000000000000000e+00  0.0000000000000000e+00 -2.3433526003028949e-04 0.0000000000000000e+00  0.0000000000000000e+00 -2.2822925259779746e-04 0.0000000000000000e+00  0.0000000000000000e+00 -2.2281645209869697e-04 0.0000000000000000e+00  0.0000000000000000e+00 -2.1824619917580086e-04 0.0000000000000000e+00  0.0000000000000000e+00 -2.1465378586191917e-04 0.0000000000000000e+00  0.0000000000000000e+00 -2.1214698471944165e-04 0.0000000000000000e+00  0.0000000000000000e+00 -2.1081045888155572e-04 0.0000000000000000e+00  0.0000000000000000e+00 -2.1070588850958098e-04 0.0000000000000000e+00  0.0000000000000000e+00 -2.1187105007323715e-04 0.0000000000000000e+00  0.0000000000000000e+00 -2.1432215203837158e-04 0.0000000000000000e+00  0.0000000000000000e+00 -2.1805527725864016e-04 0.0000000000000000e+00  0.0000000000000000e+00 -2.2304713884494203e-04 0.0000000000000000e+00  0.0000000000000000e+00 -2.2925732990816241e-04 0.0000000000000000e+00  0.0000000000000000e+00 -2.3663041563003334e-04 0.0000000000000000e+00  0.0000000000000000e+00 -2.4509866679906796e-04 0.0000000000000000e+00  0.0000000000000000e+00 0.0000000000000000e+00 0.0000000000000000e+00  0.0000000000000000e+00 0.0000000000000000e+00 0.0000000000000000e+00  0.0000000000000000e+00 0.0000000000000000e+00 0.0000000000000000e+00  0.0000000000000000e+00 0.0000000000000000e+00 0.0000000000000000e+00  0.0000000000000000e+00 0.0000000000000000e+00 0.0000000000000000e+00  0.0000000000000000e+00 0.0000000000000000e+00 0.0000000000000000e+00  0.0000000000000000e+00 0.0000000000000000e+00 0.0000000000000000e+00  0.0000000000000000e+00 0.0000000000000000e+00 0.0000000000000000e+00  0.0000000000000000e+00 0.0000000000000000e+00 0.0000000000000000e+00  0.0000000000000000e+00 0.0000000000000000e+00 0.0000000000000000e+00  0.0000000000000000e+00 0.0000000000000000e+00 0.0000000000000000e+00  0.0000000000000000e+00 0.0000000000000000e+00 0.0000000000000000e+00  0.0000000000000000e+00 0.0000000000000000e+00 0.0000000000000000e+00  0.0000000000000000e+00 0.0000000000000000e+00 0.0000000000000000e+00  0.0000000000000000e+00 0.0000000000000000e+00 0.0000000000000000e+00  0.0000000000000000e+00 0.0000000000000000e+00 0.0000000000000000e+00  0.0000000000000000e+00 0.0000000000000000e+00 0.0000000000000000e+00  0.0000000000000000e+00 0.0000000000000000e+00 0.0000000000000000e+00  0.0000000000000000e+00 -2.4502160530303263e-04 0.0000000000000000e+00  0.0000000000000000e+00 -2.3649916124843099e-04 0.0000000000000000e+00  0.0000000000000000e+00 -2.2909447298113798e-04 0.0000000000000000e+00  0.0000000000000000e+00 -2.2287445458033363e-04 0.0000000000000000e+00  0.0000000000000000e+00 -2.1789354969806065e-04 0.0000000000000000e+00  0.0000000000000000e+00 -2.1419010630129696e-04 0.0000000000000000e+00  0.0000000000000000e+00 -2.1178486653964393e-04 0.0000000000000000e+00  0.0000000000000000e+00 -2.1067932234388601e-04 0.0000000000000000e+00  0.0000000000000000e+00 -2.1085419522940917e-04 0.0000000000000000e+00  0.0000000000000000e+00 -2.1226712360848763e-04 0.0000000000000000e+00  0.0000000000000000e+00 -2.1485450966027828e-04 0.0000000000000000e+00  0.0000000000000000e+00 -2.1852369930972911e-04 0.0000000000000000e+00  0.0000000000000000e+00 -2.2316723590028298e-04 0.0000000000000000e+00  0.0000000000000000e+00 -2.2864674409826490e-04 0.0000000000000000e+00  0.0000000000000000e+00 -2.3480613510404422e-04 0.0000000000000000e+00  0.0000000000000000e+00 -2.4146425678926896e-04 0.0000000000000000e+00  0.0000000000000000e+00 -2.4842614957657004e-04 0.0000000000000000e+00  0.0000000000000000e+00 -2.5548293484896112e-04 0.0000000000000000e+00  0.0000000000000000e+00 -2.6240570010532409e-04 0.0000000000000000e+00  0.0000000000000000e+00 -2.6896022428132089e-04 0.0000000000000000e+00  0.0000000000000000e+00 -2.7490489372496293e-04 0.0000000000000000e+00  0.0000000000000000e+00 -2.7999448677549458e-04 0.0000000000000000e+00  0.0000000000000000e+00 -2.8398285122942951e-04 0.00000000000