<?xml version="1.0"?>
<VTKFile type="UnstructuredGrid"  version="0.1"  >
<UnstructuredGrid>
<Piece  NumberOfPoints="3167" NumberOfCells="6038">
<Points>
<DataArray  type="Float64"  NumberOfComponents="3"  format="ascii">2.2 2.9 0  0 2.9 0  2.8 2.9 0  5 2.9 0  5 0 0  0 0 0  2.16271186440678 2.9 0  2.125423728813559 2.9 0  2.088135593220339 2.9 0  2.050847457627119 2.9 0  2.013559322033898 2.9 0  1.976271186440678 2.9 0  1.938983050847457 2.9 0  1.901694915254237 2.9 0  1.864406779661016 2.9 0  1.827118644067796 2.9 0  1.789830508474575 2.9 0  1.752542372881355 2.9 0  1.715254237288134 2.9 0  1.677966101694914 2.9 0  1.640677966101693 2.9 0  1.603389830508473 2.9 0  1.566101694915253 2.9 0  1.528813559322032 2.9 0  1.491525423728812 2.9 0  1.454237288135591 2.9 0  1.416949152542371 2.9 0  1.37966101694915 2.9 0  1.34237288135593 2.9 0  1.305084745762709 2.9 0  1.267796610169489 2.9 0  1.230508474576268 2.9 0  1.193220338983048 2.9 0  1.155932203389827 2.9 0  1.118644067796607 2.9 0  1.081355932203387 2.9 0  1.044067796610166 2.9 0  1.006779661016946 2.9 0  0.9694915254237257 2.9 0  0.9322033898305055 2.9 0  0.8949152542372856 2.9 0  0.8576271186440652 2.9 0  0.820338983050845 2.9 0  0.783050847457625 2.9 0  0.7457627118644048 2.9 0  0.7084745762711844 2.9 0  0.6711864406779642 2.9 0  0.633898305084744 2.9 0  0.5966101694915238 2.9 0  0.5593220338983036 2.9 0  0.5220338983050834 2.9 0  0.4847457627118632 2.9 0  0.447457627118643 2.9 0  0.4101694915254228 2.9 0  0.3728813559322024 2.9 0  0.3355932203389822 2.9 0  0.2983050847457622 2.9 0  0.2610169491525418 2.9 0  0.2237288135593216 2.9 0  0.1864406779661016 2.9 0  0.1491525423728812 2.9 0  0.1118644067796613 2.9 0  0.07457627118644039 2.9 0  0.03728813559321997 2.9 0  2.792405063291139 2.9 0  2.784810126582279 2.9 0  2.777215189873418 2.9 0  2.769620253164557 2.9 0  2.762025316455697 2.9 0  2.754430379746836 2.9 0  2.746835443037975 2.9 0  2.739240506329114 2.9 0  2.731645569620254 2.9 0  2.724050632911393 2.9 0  2.716455696202532 2.9 0  2.708860759493671 2.9 0  2.701265822784811 2.9 0  2.69367088607595 2.9 0  2.686075949367089 2.9 0  2.678481012658228 2.9 0  2.670886075949368 2.9 0  2.663291139240507 2.9 0  2.655696202531646 2.9 0  2.648101265822786 2.9 0  2.640506329113925 2.9 0  2.632911392405064 2.9 0  2.625316455696203 2.9 0  2.617721518987342 2.9 0  2.610126582278482 2.9 0  2.602531645569621 2.9 0  2.59493670886076 2.9 0  2.587341772151899 2.9 0  2.579746835443038 2.9 0  2.572151898734178 2.9 0  2.564556962025317 2.9 0  2.556962025316456 2.9 0  2.549367088607595 2.9 0  2.541772151898734 2.9 0  2.534177215189874 2.9 0  2.526582278481013 2.9 0  2.518987341772152 2.9 0  2.511392405063292 2.9 0  2.503797468354431 2.9 0  2.49620253164557 2.9 0  2.488607594936709 2.9 0  2.481012658227848 2.9 0  2.473417721518988 2.9 0  2.465822784810127 2.9 0  2.458227848101266 2.9 0  2.450632911392406 2.9 0  2.443037974683545 2.9 0  2.435443037974684 2.9 0  2.427848101265823 2.9 0  2.420253164556962 2.9 0  2.412658227848102 2.9 0  2.405063291139241 2.9 0  2.39746835443038 2.9 0  2.389873417721519 2.9 0  2.382278481012658 2.9 0  2.374683544303798 2.9 0  2.367088607594937 2.9 0  2.359493670886076 2.9 0  2.351898734177215 2.9 0  2.344303797468355 2.9 0  2.336708860759494 2.9 0  2.329113924050633 2.9 0  2.321518987341773 2.9 0  2.313924050632912 2.9 0  2.306329113924051 2.9 0  2.29873417721519 2.9 0  2.291139240506329 2.9 0  2.283544303797469 2.9 0  2.275949367088608 2.9 0  2.268354430379747 2.9 0  2.260759493670887 2.9 0  2.253164556962026 2.9 0  2.245569620253165 2.9 0  2.237974683544304 2.9 0  2.230379746835443 2.9 0  2.222784810126583 2.9 0  2.215189873417722 2.9 0  2.207594936708861 2.9 0  4.96271186440678 2.9 0  4.925423728813559 2.9 0  4.888135593220339 2.9 0  4.850847457627118 2.9 0  4.813559322033898 2.9 0  4.776271186440677 2.9 0  4.738983050847457 2.9 0  4.701694915254237 2.9 0  4.664406779661016 2.9 0  4.627118644067796 2.9 0  4.589830508474575 2.9 0  4.552542372881355 2.9 0  4.515254237288135 2.9 0  4.477966101694914 2.9 0  4.440677966101694 2.9 0  4.403389830508473 2.9 0  4.366101694915252 2.9 0  4.328813559322032 2.9 0  4.291525423728811 2.9 0  4.254237288135591 2.9 0  4.21694915254237 2.9 0  4.17966101694915 2.9 0  4.14237288135593 2.9 0  4.105084745762709 2.9 0  4.067796610169489 2.9 0  4.030508474576268 2.9 0  3.993220338983048 2.9 0  3.955932203389827 2.9 0  3.918644067796607 2.9 0  3.881355932203387 2.9 0  3.844067796610166 2.9 0  3.806779661016946 2.9 0  3.769491525423725 2.9 0  3.732203389830505 2.9 0  3.694915254237285 2.9 0  3.657627118644065 2.9 0  3.620338983050845 2.9 0  3.583050847457625 2.9 0  3.545762711864405 2.9 0  3.508474576271184 2.9 0  3.471186440677964 2.9 0  3.433898305084744 2.9 0  3.396610169491524 2.9 0  3.359322033898303 2.9 0  3.322033898305083 2.9 0  3.284745762711863 2.9 0  3.247457627118643 2.9 0  3.210169491525423 2.9 0  3.172881355932202 2.9 0  3.135593220338982 2.9 0  3.098305084745762 2.9 0  3.061016949152542 2.9 0  3.023728813559321 2.9 0  2.986440677966101 2.9 0  2.949152542372881 2.9 0  2.911864406779661 2.9 0  2.87457627118644 2.9 0  2.83728813559322 2.9 0  5 0.1063822625082082 0  5 0.210636880010749 0  5 0.3128064053694972 0  5 0.4129325400644018 0  5 0.5110561521032336 0  5 0.6072172918830103 0  5 0.7014552087832795 0  5 0.7938083674443693 0  5 0.88431446261646 0  5 0.9730104359544682 0  5 1.059932489996267 0  5 1.145116102913299 0  5 1.228596043483191 0  5 1.310406385079062 0  5 1.390580519944147 0  5 1.469151172477827 0  5 1.546150411986101 0  5 1.621609666658609 0  5 1.695559736099044 0  5 1.76803080383987 0  5 1.839052450169751 0  5 1.908653663631169 0  5 1.97686285289587 0  5 2.043707858613779 0  5 2.109215964341413 0  5 2.173413907925942 0  5 2.236327892833935 0  5 2.297983597762904 0  5 2.35840618845912 0  5 2.41762032730194 0  5 2.475650183444628 0  5 2.532519442457069 0  5 2.588251316112828 0  5 2.642868552557322 0  5 2.696393444426347 0  5 2.748847838312051 0  5 2.800253144313381 0  5 2.850630344319807 0  0.2631578947368421 0 0  0.5263157894736842 0 0  0.7894736842105263 0 0  1.052631578947368 0 0  1.31578947368421 0 0  1.578947368421053 0 0  1.842105263157895 0 0  2.105263157894737 0 0  2.368421052631579 0 0  2.631578947368421 0 0  2.894736842105263 0 0  3.157894736842105 0 0  3.421052631578947 0 0  3.684210526315789 0 0  3.947368421052632 0 0  4.210526315789473 0 0  4.473684210526315 0 0  4.736842105263158 0 0  0 2.850203682350569 0  0 2.799411438503675 0  0 2.747603349778291 0  0 2.694759099502208 0  0 2.640857964382145 0  0 2.58587880633613 0  0 2.52980006535898 0  0 2.472599749459174 0  0 2.414255427218689 0  0 2.35474421880616 0  0 2.294042786119219 0  0 2.232127324764723 0  0 2.1689735539481 0  0 2.104556707683347 0  0 2.038851524813415 0  0 1.971832238155655 0  0 1.903472565412126 0  0 1.83374569926617 0  0 1.762624296208475 0  0 1.690080464918761 0  0 1.616085756774206 0  0 1.540611154706337 0  0 1.463627060685571 0  0 1.385103284916206 0  0 1.305009033716617 0  0 1.223312897337225 0  0 1.139982838163732 0  0 1.054986177579938 0  0 0.9682895835804817 0  0 0.8798590579197976 0  0 0.7896599218415354 0  0 0.6976568029903638 0  0 0.6038136217958798 0  0 0.508093576867624 0  0 0.4104591310957497 0  0 0.3108719963522191 0  0 0.2092931188294389 0  0 0.1056826638508546 0  1.434832105763824 2.866945754981483 0  1.737156300467626 2.870039440267515 0  2.032203389830508 2.867707527316512 0  2.332911392405064 2.893422591869991 0  2.469810913293406 2.891944186606167 0  2.606221408823969 2.892519154985628 0  2.255455320628894 2.892068685006691 0  2.538247299216212 2.894964578182811 0  2.674683544303798 2.893422591869991 0  2.40126582278481 2.893422591869991 0  3.566125247295424 2.865029336199714 0  3.266101694915253 2.867707527316512 0  2.967796610169491 2.867707527316512 0  1.174288529834642 2.870795313888584 0  3.825423728813556 2.867707527316512 0  2.727766680262011 2.892655387647729 0  0.06601655192030442 1.502119107695954 0  4.933983535508361 1.507650792231964 0  0.9532124728485543 2.868722489783638 0  4.048935912500257 2.870640982995992 0  0.05930163367361763 1.866907161167414 0  4.943402512618553 1.871280731473148 0  4.271733870017743 2.86520865624265 0  0.7249420921613114 2.863922936177041 0  0.05494499779910056 2.196469063120752 0  4.947228695426367 2.208030108792719 0  0.5406152150397161 2.866493807382013 0  4.459322033898304 2.868847558178794 0  2.18135593220339 2.875780645487384 0  2.817027156509632 2.876587550645167 0  4.928427208322876 1.186856073198245 0  0.07189226971603224 1.174626666111662 0  4.610299014423113 2.867003104093161 0  0.3897270066746357 2.869433095314657 0  1.581132500042262 2.868247328632392 0  1.887637879411437 2.869235851794358 0  3.413449426418068 2.867372048034327 0  3.116721298814773 2.865731235547652 0  2.644303797468355 2.893422591869991 0  2.370983221828106 2.892719513369796 0  2.302531645569621 2.893336787387268 0  2.758987341772152 2.894242393897099 0  0.04979653335696277 2.443411216910286 0  4.950470983477169 2.446866954595817 0  2.482937483021586 0.2513241087417575 0  1.707129504814338 0.1999998659920923 0  3.28584657955054 0.229200625631625 0  4.907807122600524 0.834082362900164 0  4.757627118644067 2.867707527316512 0  0.0773489124676745 0.8347594898806663 0  0.2390604736599387 2.861365431805741 0  0.8363213715215729 2.863896768908178 0  4.160865610207075 2.868916854015731 0  1.282549332053297 2.867610952980761 0  1.065094818402487 2.861284686038041 0  3.93818127737282 2.86865134411395 0  3.711492629432973 2.863574306925269 0  4.91369361998929 0.5579891344254361 0  0.08208328472281323 0.5559535993317519 0  2.696596932532885 2.892010483922337 0  0.04706410140274553 2.613055974506516 0  4.955577063972248 2.616518038840186 0  2.234177215189874 2.893422591869991 0  2.279795840559739 2.89403861893984 0  0.9117357887652362 0.2117925286661764 0  4.055948041993057 0.2039101057937727 0  4.872119713780579 2.867632926423075 0  2.780113878992455 2.891535929611743 0  0.1327442468251063 2.85
[...]
<PointData  Vectors="displacement"> 
<DataArray  type="Float64"  Name="displacement"  NumberOfComponents="3" format="ascii">1.6600148560403233e-03 -8.6866457658826661e-03 0.0000000000000000e+00  0.0000000000000000e+00 -3.5767897407661602e-04 0.0000000000000000e+00  -1.6622942845288709e-03 -8.6870020176364193e-03 0.0000000000000000e+00  0.0000000000000000e+00 -3.5767940147108030e-04 0.0000000000000000e+00  0.0000000000000000e+00 0.0000000000000000e+00 0.0000000000000000e+00  0.0000000000000000e+00 0.0000000000000000e+00 0.0000000000000000e+00  1.6454132156038055e-03 -7.6878393791874524e-03 0.0000000000000000e+00  1.6124330535128638e-03 -7.0287190638535823e-03 0.0000000000000000e+00  1.5799021984226828e-03 -6.4983212026092536e-03 0.0000000000000000e+00  1.5475562162986182e-03 -6.0460177772781480e-03 0.0000000000000000e+00  1.5152540765904000e-03 -5.6491939355455441e-03 0.0000000000000000e+00  1.4830195438303934e-03 -5.2947982454775704e-03 0.0000000000000000e+00  1.4508863004780651e-03 -4.9742940236496358e-03 0.0000000000000000e+00  1.4188614375617900e-03 -4.6817292944286324e-03 0.0000000000000000e+00  1.3869776884860121e-03 -4.4126798197668005e-03 0.0000000000000000e+00  1.3552233991127197e-03 -4.1638461142404475e-03 0.0000000000000000e+00  1.3236082577581106e-03 -3.9326631755479298e-03 0.0000000000000000e+00  1.2921395067182094e-03 -3.7170352355200965e-03 0.0000000000000000e+00  1.2608293029790568e-03 -3.5152449550197758e-03 0.0000000000000000e+00  1.2296772437364908e-03 -3.3258903454471181e-03 0.0000000000000000e+00  1.1986904969957094e-03 -3.1477980669888791e-03 0.0000000000000000e+00  1.1678727131800291e-03 -2.9799644143309045e-03 0.0000000000000000e+00  1.1372304125237980e-03 -2.8215304233526026e-03 0.0000000000000000e+00  1.1067602396496519e-03 -2.6717515859014935e-03 0.0000000000000000e+00  1.0764710489225317e-03 -2.5299760710222048e-03 0.0000000000000000e+00  1.0463648916762276e-03 -2.3956364872350722e-03 0.0000000000000000e+00  1.0164443545292059e-03 -2.2682322218372498e-03 0.0000000000000000e+00  9.8671047445300229e-04 -2.1473190393402329e-03 0.0000000000000000e+00  9.5716658302397758e-04 -2.0324936493250818e-03 0.0000000000000000e+00  9.2781041399264902e-04 -1.9234018336122605e-03 0.0000000000000000e+00  8.9864520891521000e-04 -1.8197258398582620e-03 0.0000000000000000e+00  8.6967178888923955e-04 -1.7211731559184649e-03 0.0000000000000000e+00  8.4088944444842483e-04 -1.6274775804035969e-03 0.0000000000000000e+00  8.1229527873727587e-04 -1.5384043335668262e-03 0.0000000000000000e+00  7.8389440967814215e-04 -1.4537346839046130e-03 0.0000000000000000e+00  7.5567715265305465e-04 -1.3732641746503223e-03 0.0000000000000000e+00  7.2764837070692697e-04 -1.2968128860578992e-03 0.0000000000000000e+00  6.9980446214987994e-04 -1.2242147312838169e-03 0.0000000000000000e+00  6.7214041184057683e-04 -1.1553173669439870e-03 0.0000000000000000e+00  6.4465559996605248e-04 -1.0899723878371841e-03 0.0000000000000000e+00  6.1734562483525292e-04 -1.0280530162505340e-03 0.0000000000000000e+00  5.9020769961719776e-04 -9.6943658177597804e-04 0.0000000000000000e+00  5.6323670906840485e-04 -9.1401032894347265e-04 0.0000000000000000e+00  5.3642883131196960e-04 -8.6167298798362423e-04 0.0000000000000000e+00  5.0977918988766118e-04 -8.1232749860812165e-04 0.0000000000000000e+00  4.8328242932471616e-04 -7.6588575157835153e-04 0.0000000000000000e+00  4.5693318361638720e-04 -7.2226617047595535e-04 0.0000000000000000e+00  4.3072578855928240e-04 -6.8139320256637142e-04 0.0000000000000000e+00  4.0465360088122405e-04 -6.4319683840968929e-04 0.0000000000000000e+00  3.7871076136252021e-04 -6.0761355362837113e-04 0.0000000000000000e+00  3.5289033232930765e-04 -5.7458372735128319e-04 0.0000000000000000e+00  3.2718550352228324e-04 -5.4405356822864129e-04 0.0000000000000000e+00  3.0158902651207406e-04 -5.1597347179956738e-04 0.0000000000000000e+00  2.7609353058553757e-04 -4.9029860377164977e-04 0.0000000000000000e+00  2.5069127617419185e-04 -4.6698786883361945e-04 0.0000000000000000e+00  2.2537436029133439e-04 -4.4600473886759103e-04 0.0000000000000000e+00  2.0013554797256852e-04 -4.2731658845885582e-04 0.0000000000000000e+00  1.7496510895829447e-04 -4.1089366628253897e-04 0.0000000000000000e+00  1.4985578337948274e-04 -3.9671081311607088e-04 0.0000000000000000e+00  1.2479909984693425e-04 -3.8474674707696295e-04 0.0000000000000000e+00  9.9786911346125650e-05 -3.7498278364381021e-04 0.0000000000000000e+00  7.4808891668409294e-05 -3.6740375993054555e-04 0.0000000000000000e+00  4.9857721971292084e-05 -3.6199833204030615e-04 0.0000000000000000e+00  2.4924337317148345e-05 -3.5875838419410598e-04 0.0000000000000000e+00  -1.6386999401182189e-03 -8.9908261193165188e-03 0.0000000000000000e+00  -1.5946039096561087e-03 -9.2098784180151150e-03 0.0000000000000000e+00  -1.5514693862674104e-03 -9.3970364991218403e-03 0.0000000000000000e+00  -1.5085454493256984e-03 -9.5642602639753639e-03 0.0000000000000000e+00  -1.4659214585454148e-03 -9.7168399149753296e-03 0.0000000000000000e+00  -1.4233361577444743e-03 -9.8576210373316105e-03 0.0000000000000000e+00  -1.3807799260232066e-03 -9.9885222232207298e-03 0.0000000000000000e+00  -1.3382422441015525e-03 -1.0110824385330654e-02 0.0000000000000000e+00  -1.2957054345151206e-03 -1.0225505458909830e-02 0.0000000000000000e+00  -1.2531832880159947e-03 -1.0333337158030300e-02 0.0000000000000000e+00  -1.2106725602705692e-03 -1.0434923216673109e-02 0.0000000000000000e+00  -1.1681649312300995e-03 -1.0530751445755882e-02 0.0000000000000000e+00  -1.1256617956878314e-03 -1.0621232950520974e-02 0.0000000000000000e+00  -1.0831633227183499e-03 -1.0706704014411587e-02 0.0000000000000000e+00  -1.0406642866971245e-03 -1.0787449669572201e-02 0.0000000000000000e+00  -9.9817080950571012e-04 -1.0863727297939829e-02 0.0000000000000000e+00  -9.5567970552851167e-04 -1.0935749838985195e-02 0.0000000000000000e+00  -9.1319123085296927e-04 -1.1003703922154051e-02 0.0000000000000000e+00  -8.7070485986392022e-04 -1.1067755437276148e-02 0.0000000000000000e+00  -8.2822021741910871e-04 -1.1128049570563429e-02 0.0000000000000000e+00  -7.8573733610242259e-04 -1.1184715466659756e-02 0.0000000000000000e+00  -7.4325615475400451e-04 -1.1237868008344757e-02 0.0000000000000000e+00  -7.0077632394602784e-04 -1.1287608902054970e-02 0.0000000000000000e+00  -6.5829805593682308e-04 -1.1334029959736326e-02 0.0000000000000000e+00  -6.1582109322738665e-04 -1.1377213136788175e-02 0.0000000000000000e+00  -5.7334530191688619e-04 -1.1417230801497780e-02 0.0000000000000000e+00  -5.3087117260871078e-04 -1.1454148437928195e-02 0.0000000000000000e+00  -4.8839732813274613e-04 -1.1488023701375557e-02 0.0000000000000000e+00  -4.4592459675344695e-04 -1.1518909259573820e-02 0.0000000000000000e+00  -4.0345290205733578e-04 -1.1546850963902205e-02 0.0000000000000000e+00  -3.6098204207159863e-04 -1.1571889607748563e-02 0.0000000000000000e+00  -3.1851173521249261e-04 -1.1594060634059516e-02 0.0000000000000000e+00  -2.7604202072772558e-04 -1.1613395203878270e-02 0.0000000000000000e+00  -2.3357298719576861e-04 -1.1629919972082681e-02 0.0000000000000000e+00  -1.9110402690390116e-04 -1.1643656719027290e-02 0.0000000000000000e+00  -1.4863617465578908e-04 -1.1654624757554872e-02 0.0000000000000000e+00  -1.0616788987652303e-04 -1.1662838233644017e-02 0.0000000000000000e+00  -6.3699953616269353e-05 -1.1668307737910723e-02 0.0000000000000000e+00  -2.1232290695050235e-05 -1.1671040739320800e-02 0.0000000000000000e+00  2.1235376447498491e-05 -1.1671040686731218e-02 0.0000000000000000e+00  6.3703082004512023e-05 -1.1668307562252185e-02 0.0000000000000000e+00  1.0617091387331504e-04 -1.1662837838824928e-02 0.0000000000000000e+00  1.4863895629748695e-04 -1.1654624449970537e-02 0.0000000000000000e+00  1.9110718644440577e-04 -1.1643656363857056e-02 0.0000000000000000e+00  2.3357592181063653e-04 -1.1629919017031660e-02 0.0000000000000000e+00  2.7604500467866841e-04 -1.1613394411505848e-02 0.0000000000000000e+00  3.1851465699801458e-04 -1.1594059871182802e-02 0.0000000000000000e+00  3.6098490281111646e-04 -1.1571888742604999e-02 0.0000000000000000e+00  4.0345597316748176e-04 -1.1546850142274879e-02 0.0000000000000000e+00  4.4592767931543701e-04 -1.1518908183037281e-02 0.0000000000000000e+00  4.8840030950289711e-04 -1.1488022645366157e-02 0.0000000000000000e+00  5.3087422791348201e-04 -1.1454147027745628e-02 0.0000000000000000e+00  5.7334866058896710e-04 -1.1417229350756031e-02 0.0000000000000000e+00  6.1582445053664950e-04 -1.1377211986195226e-02 0.0000000000000000e+00  6.5830147084158894e-04 -1.1334029180001903e-02 0.0000000000000000e+00  7.0077985824089091e-04 -1.1287608048712094e-02 0.0000000000000000e+00  7.4325948209960537e-04 -1.1237866835125506e-02 0.0000000000000000e+00  7.8574141905410745e-04 -1.1184714776200633e-02 0.0000000000000000e+00  8.2822503473343068e-04 -1.1128047550586471e-02 0.0000000000000000e+00  8.7071011181945562e-04 -1.1067753400823952e-02 0.0000000000000000e+00  9.1319701353703752e-04 -1.1003701719987942e-02 0.0000000000000000e+00  9.5568626543357765e-04 -1.0935747147278324e-02 0.0000000000000000e+00  9.9817790703841990e-04 -1.0863724532960231e-02 0.0000000000000000e+00  1.0406723979923932e-03 -1.0787445685924379e-02 0.0000000000000000e+00  1.0831699046494456e-03 -1.0706696052916584e-02 0.0000000000000000e+00  1.1256715921411538e-03 -1.0621225817148337e-02 0.0000000000000000e+00  1.1681756376888638e-03 -1.0530744841599805e-02 0.0000000000000000e+00  1.2106842552985241e-03 -1.0434912383976853e-02 0.0000000000000000e+00  1.2532011386167394e-03 -1.0333330524477831e-02 0.0000000000000000e+00  1.2957205766293458e-03 -1.0225496559722078e-02 0.0000000000000000e+00  1.3382471585149489e-03 -1.0110803928248131e-02 0.0000000000000000e+00  1.3807913202275224e-03 -9.9885047008970457e-03 0.0000000000000000e+00  1.4233611536220332e-03 -9.8576314799443277e-03 0.0000000000000000e+00  1.4659396836590893e-03 -9.7168121809820852e-03 0.0000000000000000e+00  1.5085427087967148e-03 -9.5641920293764761e-03 0.0000000000000000e+00  1.5511167042848992e-03 -9.3970196455619610e-03 0.0000000000000000e+00  1.5948858303892846e-03 -9.2104989113366738e-03 0.0000000000000000e+00  1.6384670571899945e-03 -8.9901324760170119e-03 0.0000000000000000e+00  -2.4924532434598032e-05 -3.5875872192815266e-04 0.0000000000000000e+00  -4.9857919124863493e-05 -3.6199871472390711e-04 0.0000000000000000e+00  -7.4808936060908167e-05 -3.6740402362789320e-04 0.0000000000000000e+00  -9.9786459850325390e-05 -3.7498299417767827e-04 0.0000000000000000e+00  -1.2479914368957959e-04 -3.8474698763339335e-04 0.0000000000000000e+00  -1.4985618152768099e-04 -3.9671142491261297e-04 0.0000000000000000e+00  -1.7496507017399808e-04 -4.1089386099335719e-04 0.0000000000000000e+00  -2.0013518080493265e-04 -4.2731662262423983e-04 0.0000000000000000e+00  -2.2537447253553994e-04 -4.4600500885989743e-04 0.0000000000000000e+00  -2.5069133079028019e-04 -4.6698826200802194e-04 0.0000000000000000e+00  -2.7609353800411173e-04 -4.9029899537079936e-04 0.0000000000000000e+00  -3.0158914974378844e-04 -5.1597400385264161e-04 0.0000000000000000e+00  -3.2718558565967713e-04 -5.4405408539175246e-04 0.0000000000000000e+00  -3.5289035187866544e-04 -5.7458424852413709e-04 0.0000000000000000e+00  -3.7871069640102624e-04 -6.0761395686040472e-04 0.0000000000000000e+00  -4.0465351818446494e-04 -6.4319732773401536e-04 0.0000000000000000e+00  -4.3072555283306434e-04 -6.8139331893360693e-04 0.0000000000000000e+00  -4.5693322914284432e-04 -7.2226669328411886e-04 0.0000000000000000e+00  -4.8328227709265598e-04 -7.6588642711669576e-04 0.0000000000000000e+00  -5.0977908399065365e-04 -8.1232849993118181e-04 0.0000000000000000e+00  -5.3642955715288161e-04 -8.6167437882977993e-04 0.0000000000000000e+00  -5.6323639996471082e-04 -9.1401110631323301e-04 0.0000000000000000e+00  -5.9020738845191737e-04 -9.6943653023043547e-04 0.0000000000000000e+00  -6.1734549611706924e-04 -1.0280533339103841e-03 0.0000000000000000e+00  -6.4465516067615700e-04 -1.0899732248044133e-03 0.0000000000000000e+00  -6.7213999047808170e-04 -1.1553172509071175e-03 0.0000000000000000e+00  -6.9980343706478121e-04 -1.2242167434023078e-03 0.0000000000000000e+00  -7.2764823926384117e-04 -1.2968139667904677e-03 0.0000000000000000e+00  -7.5567740148248187e-04 -1.3732635365976255e-03 0.0000000000000000e+00  -7.8389277856662329e-04 -1.4537326428427559e-03 0.0000000000000000e+00  -8.1229589569490636e-04 -1.5384043934213735e-03 0.0000000000000000e+00  -8.4088782332635633e-04 -1.6274776219263759e-03 0.0000000000000000e+00  -8.6967463412182847e-04 -1.7211726274448981e-03 0.0000000000000000e+00  -8.9864482194426415e-04 -1.8197266433470317e-03 0.0000000000000000e+00  -9.2781003722823595e-04 -1.9234048204896312e-03 0.0000000000000000e+00  -9.5716562231149048e-04 -2.0324946491250533e-03 0.0000000000000000e+00  -9.8671147551013835e-04 -2.1473177404195080e-03 0.0000000000000000e+00  -1.0164442660635545e-03 -2.2682319880210117e-03 0.0000000000000000e+00  -1.0463643674147767e-03 -2.3956360077478098e-03 0.0000000000000000e+00  -1.0764700887109808e-03 -2.5299746820976834e-03 0.0000000000000000e+00  -1.1067594664357621e-03 -2.6717498589500731e-03 0.0000000000000000e+00  -1.1372275934820330e-03 -2.8215322134747104e-03 0.0000000000000000e+00  -1.1678748163065251e-03 -2.9799684568775657e-03 0.0000000000000000e+00  -1.1986938827865401e-03 -3.1478006045302567e-03 0.0000000000000000e+00  -1.2296782626620142e-03 -3.3258886812616746e-03 0.0000000000000000e+00  -1.2608254569356180e-03 -3.5152408042462991e-03 0.0000000000000000e+00  -1.2921368837502981e-03 -3.7170312136771341e-03 0.0000000000000000e+00  -1.3236047167615537e-03 -3.9326726541866856e-03 0.0000000000000000e+00  -1.3552204588167961e-03 -4.1638621606715186e-03 0.0000000000000000e+00  -1.3869822876266037e-03 -4.4126674534269456e-03 0.0000000000000000e+00  -1.4188649069058221e-03 -4.6817326053396379e-03 0.0000000000000000e+00  -1.4508998906789072e-03 -4.9742782781021988e-03 0.0000000000000000e+00  -1.4830189512754736e-03 -5.2948069014802203e-03 0.0000000000000000e+00  -1.5152273474389885e-03 -5.6492277267876125e-03 0.0000000000000000e+00  -1.5475281770862899e-03 -6.0460160990729647e-03 0.0000000000000000e+00  -1.5800559176888797e-03 -6.4982968909706200e-03 0.0000000000000000e+00  -1.6120214131348347e-03 -7.0289709818761870e-03 0.0000000000000000e+00  -1.6457270238813841e-03 -7.6873786098030673e-03 0.0000000000000000e+00  0.0000000000000000e+00 -6.9415363454176069e-05 0.0000000000000000e+00  0.0000000000000000e+00 -1.2966726525692317e-04 0.0000000000000000e+00  0.0000000000000000e+00 -1.8187714719013285e-04 0.0000000000000000e+00  0.0000000000000000e+00 -2.2700029418687526e-04 0.0000000000000000e+00  0.0000000000000000e+00 -2.6576265535191174e-04 0.0000000000000000e+00  0.0000000000000000e+00 -2.9876163345032592e-04 0.0000000000000000e+00  0.0000000000000000e+00 -3.2649717761524708e-04 0.0000000000000000e+00  0.0000000000000000e+00 -3.4939721279060961e-04 0.0000000000000000e+00  0.0000000000000000e+00 -3.6780166358300691e-04 0.0000000000000000e+00  0.0000000000000000e+00 -3.8208399448219643e-04 0.0000000000000000e+00  0.0000000000000000e+00 -3.9254569371029803e-04 0.0000000000000000e+00  0.0000000000000000e+00 -3.9949998016640832e-04 0.0000000000000000e+00  0.0000000000000000e+00 -4.0326670119855478e-04 0.0000000000000000e+00  0.0000000000000000e+00 -4.0416172217007244e-04 0.0000000000000000e+00  0.0000000000000000e+00 -4.0250930885561627e-04 0.0000000000000000e+00  0.0000000000000000e+00 -3.9864304068185904e-04 0.0000000000000000e+00  0.0000000000000000e+00 -3.9290813350581873e-04 0.0000000000000000e+00  0.0000000000000000e+00 -3.8564909967729317e-04 0.0000000000000000e+00  0.0000000000000000e+00 -3.7721384092783534e-04 0.0000000000000000e+00  0.0000000000000000e+00 -3.6794938094918584e-04 0.0000000000000000e+00  0.0000000000000000e+00 -3.5819730016406666e-04 0.0000000000000000e+00  0.0000000000000000e+00 -3.4828651343254589e-04 0.0000000000000000e+00  0.0000000000000000e+00 -3.3853474937214331e-04 0.0000000000000000e+00  0.0000000000000000e+00 -3.2923135706734854e-04 0.0000000000000000e+00  0.0000000000000000e+00 -3.2065266893905410e-04 0.0000000000000000e+00  0.0000000000000000e+00 -3.1304790790725995e-04 0.0000000000000000e+00  0.0000000000000000e+00 -3.0662689140401760e-04 0.0000000000000000e+00  0.0000000000000000e+00 -3.0157969914484484e-04 0.0000000000000000e+00  0.0000000000000000e+00 -2.9805774712648786e-04 0.0000000000000000e+00  0.0000000000000000e+00 -2.9617998355259883e-04 0.0000000000000000e+00  0.0000000000000000e+00 -2.9603306650106384e-04 0.0000000000000000e+00  0.0000000000000000e+00 -2.9767007035082877e-04 0.0000000000000000e+00  0.0000000000000000e+00 -3.0111376732663760e-04 0.0000000000000000e+00  0.0000000000000000e+00 -3.0635865399974212e-04 0.0000000000000000e+00  0.0000000000000000e+00 -3.1337201325322444e-04 0.0000000000000000e+00  0.0000000000000000e+00 -3.2209707507758361e-04 0.0000000000000000e+00  0.0000000000000000e+00 -3.3245595584384863e-04 0.0000000000000000e+00  0.0000000000000000e+00 -3.4435349880860812e-04 0.0000000000000000e+00  0.0000000000000000e+00 0.0000000000000000e+00 0.0000000000000000e+00  0.0000000000000000e+00 0.0000000000000000e+00 0.0000000000000000e+00  0.0000000000000000e+00 0.0000000000000000e+00 0.0000000000000000e+00  0.0000000000000000e+00 0.0000000000000000e+00 0.0000000000000000e+00  0.0000000000000000e+00 0.0000000000000000e+00 0.0000000000000000e+00  0.0000000000000000e+00 0.0000000000000000e+00 0.0000000000000000e+00  0.0000000000000000e+00 0.0000000000000000e+00 0.0000000000000000e+00  0.0000000000000000e+00 0.0000000000000000e+00 0.0000000000000000e+00  0.0000000000000000e+00 0.0000000000000000e+00 0.0000000000000000e+00  0.0000000000000000e+00 0.0000000000000000e+00 0.0000000000000000e+00  0.0000000000000000e+00 0.0000000000000000e+00 0.0000000000000000e+00  0.0000000000000000e+00 0.0000000000000000e+00 0.0000000000000000e+00  0.0000000000000000e+00 0.0000000000000000e+00 0.0000000000000000e+00  0.0000000000000000e+00 0.0000000000000000e+00 0.0000000000000000e+00  0.0000000000000000e+00 0.0000000000000000e+00 0.0000000000000000e+00  0.0000000000000000e+00 0.0000000000000000e+00 0.0000000000000000e+00  0.0000000000000000e+00 0.0000000000000000e+00 0.0000000000000000e+00  0.0000000000000000e+00 0.0000000000000000e+00 0.0000000000000000e+00  0.0000000000000000e+00 -3.4424523059103836e-04 0.0000000000000000e+00  0.0000000000000000e+00 -3.3227154886143263e-04 0.0000000000000000e+00  0.0000000000000000e+00 -3.2186826782473987e-04 0.0000000000000000e+00  0.0000000000000000e+00 -3.1312939899716380e-04 0.0000000000000000e+00  0.0000000000000000e+00 -3.0613143346008576e-04 0.0000000000000000e+00  0.0000000000000000e+00 -3.0092824852248395e-04 0.0000000000000000e+00  0.0000000000000000e+00 -2.9754898604743426e-04 0.0000000000000000e+00  0.0000000000000000e+00 -2.9599574213603878e-04 0.0000000000000000e+00  0.0000000000000000e+00 -2.9624143131404675e-04 0.0000000000000000e+00  0.0000000000000000e+00 -2.9822653730118159e-04 0.0000000000000000e+00  0.0000000000000000e+00 -3.0186170778716850e-04 0.0000000000000000e+00  0.0000000000000000e+00 -3.0701676762523997e-04 0.0000000000000000e+00  0.0000000000000000e+00 -3.1354074465329081e-04 0.0000000000000000e+00  0.0000000000000000e+00 -3.2123922724549707e-04 0.0000000000000000e+00  0.0000000000000000e+00 -3.2989291708832757e-04 0.0000000000000000e+00  0.0000000000000000e+00 -3.3924730292707295e-04 0.0000000000000000e+00  0.0000000000000000e+00 -3.4902847461171059e-04 0.0000000000000000e+00  0.0000000000000000e+00 -3.5894296631672310e-04 0.0000000000000000e+00  0.0000000000000000e+00 -3.6866916543723283e-04 0.0000000000000000e+00  0.0000000000000000e+00 -3.7787800105640198e-04 0.0000000000000000e+00  0.0000000000000000e+00 -3.8623001597722128e-04 0.0000000000000000e+00  0.0000000000000000e+00 -3.9338068389945576e-04 0.0000000000000000e+00  0.0000000000000000e+00 -3.9898417114878613e-04 0.00000000000