<?xml version="1.0"?>
<VTKFile type="UnstructuredGrid"  version="0.1"  >
<UnstructuredGrid>
<Piece  NumberOfPoints="3167" NumberOfCells="6038">
<Points>
<DataArray  type="Float64"  NumberOfComponents="3"  format="ascii">2.2 2.9 0  0 2.9 0  2.8 2.9 0  5 2.9 0  5 0 0  0 0 0  2.16271186440678 2.9 0  2.125423728813559 2.9 0  2.088135593220339 2.9 0  2.050847457627119 2.9 0  2.013559322033898 2.9 0  1.976271186440678 2.9 0  1.938983050847457 2.9 0  1.901694915254237 2.9 0  1.864406779661016 2.9 0  1.827118644067796 2.9 0  1.789830508474575 2.9 0  1.752542372881355 2.9 0  1.715254237288134 2.9 0  1.677966101694914 2.9 0  1.640677966101693 2.9 0  1.603389830508473 2.9 0  1.566101694915253 2.9 0  1.528813559322032 2.9 0  1.491525423728812 2.9 0  1.454237288135591 2.9 0  1.416949152542371 2.9 0  1.37966101694915 2.9 0  1.34237288135593 2.9 0  1.305084745762709 2.9 0  1.267796610169489 2.9 0  1.230508474576268 2.9 0  1.193220338983048 2.9 0  1.155932203389827 2.9 0  1.118644067796607 2.9 0  1.081355932203387 2.9 0  1.044067796610166 2.9 0  1.006779661016946 2.9 0  0.9694915254237257 2.9 0  0.9322033898305055 2.9 0  0.8949152542372856 2.9 0  0.8576271186440652 2.9 0  0.820338983050845 2.9 0  0.783050847457625 2.9 0  0.7457627118644048 2.9 0  0.7084745762711844 2.9 0  0.6711864406779642 2.9 0  0.633898305084744 2.9 0  0.5966101694915238 2.9 0  0.5593220338983036 2.9 0  0.5220338983050834 2.9 0  0.4847457627118632 2.9 0  0.447457627118643 2.9 0  0.4101694915254228 2.9 0  0.3728813559322024 2.9 0  0.3355932203389822 2.9 0  0.2983050847457622 2.9 0  0.2610169491525418 2.9 0  0.2237288135593216 2.9 0  0.1864406779661016 2.9 0  0.1491525423728812 2.9 0  0.1118644067796613 2.9 0  0.07457627118644039 2.9 0  0.03728813559321997 2.9 0  2.792405063291139 2.9 0  2.784810126582279 2.9 0  2.777215189873418 2.9 0  2.769620253164557 2.9 0  2.762025316455697 2.9 0  2.754430379746836 2.9 0  2.746835443037975 2.9 0  2.739240506329114 2.9 0  2.731645569620254 2.9 0  2.724050632911393 2.9 0  2.716455696202532 2.9 0  2.708860759493671 2.9 0  2.701265822784811 2.9 0  2.69367088607595 2.9 0  2.686075949367089 2.9 0  2.678481012658228 2.9 0  2.670886075949368 2.9 0  2.663291139240507 2.9 0  2.655696202531646 2.9 0  2.648101265822786 2.9 0  2.640506329113925 2.9 0  2.632911392405064 2.9 0  2.625316455696203 2.9 0  2.617721518987342 2.9 0  2.610126582278482 2.9 0  2.602531645569621 2.9 0  2.59493670886076 2.9 0  2.587341772151899 2.9 0  2.579746835443038 2.9 0  2.572151898734178 2.9 0  2.564556962025317 2.9 0  2.556962025316456 2.9 0  2.549367088607595 2.9 0  2.541772151898734 2.9 0  2.534177215189874 2.9 0  2.526582278481013 2.9 0  2.518987341772152 2.9 0  2.511392405063292 2.9 0  2.503797468354431 2.9 0  2.49620253164557 2.9 0  2.488607594936709 2.9 0  2.481012658227848 2.9 0  2.473417721518988 2.9 0  2.465822784810127 2.9 0  2.458227848101266 2.9 0  2.450632911392406 2.9 0  2.443037974683545 2.9 0  2.435443037974684 2.9 0  2.427848101265823 2.9 0  2.420253164556962 2.9 0  2.412658227848102 2.9 0  2.405063291139241 2.9 0  2.39746835443038 2.9 0  2.389873417721519 2.9 0  2.382278481012658 2.9 0  2.374683544303798 2.9 0  2.367088607594937 2.9 0  2.359493670886076 2.9 0  2.351898734177215 2.9 0  2.344303797468355 2.9 0  2.336708860759494 2.9 0  2.329113924050633 2.9 0  2.321518987341773 2.9 0  2.313924050632912 2.9 0  2.306329113924051 2.9 0  2.29873417721519 2.9 0  2.291139240506329 2.9 0  2.283544303797469 2.9 0  2.275949367088608 2.9 0  2.268354430379747 2.9 0  2.260759493670887 2.9 0  2.253164556962026 2.9 0  2.245569620253165 2.9 0  2.237974683544304 2.9 0  2.230379746835443 2.9 0  2.222784810126583 2.9 0  2.215189873417722 2.9 0  2.207594936708861 2.9 0  4.96271186440678 2.9 0  4.925423728813559 2.9 0  4.888135593220339 2.9 0  4.850847457627118 2.9 0  4.813559322033898 2.9 0  4.776271186440677 2.9 0  4.738983050847457 2.9 0  4.701694915254237 2.9 0  4.664406779661016 2.9 0  4.627118644067796 2.9 0  4.589830508474575 2.9 0  4.552542372881355 2.9 0  4.515254237288135 2.9 0  4.477966101694914 2.9 0  4.440677966101694 2.9 0  4.403389830508473 2.9 0  4.366101694915252 2.9 0  4.328813559322032 2.9 0  4.291525423728811 2.9 0  4.254237288135591 2.9 0  4.21694915254237 2.9 0  4.17966101694915 2.9 0  4.14237288135593 2.9 0  4.105084745762709 2.9 0  4.067796610169489 2.9 0  4.030508474576268 2.9 0  3.993220338983048 2.9 0  3.955932203389827 2.9 0  3.918644067796607 2.9 0  3.881355932203387 2.9 0  3.844067796610166 2.9 0  3.806779661016946 2.9 0  3.769491525423725 2.9 0  3.732203389830505 2.9 0  3.694915254237285 2.9 0  3.657627118644065 2.9 0  3.620338983050845 2.9 0  3.583050847457625 2.9 0  3.545762711864405 2.9 0  3.508474576271184 2.9 0  3.471186440677964 2.9 0  3.433898305084744 2.9 0  3.396610169491524 2.9 0  3.359322033898303 2.9 0  3.322033898305083 2.9 0  3.284745762711863 2.9 0  3.247457627118643 2.9 0  3.210169491525423 2.9 0  3.172881355932202 2.9 0  3.135593220338982 2.9 0  3.098305084745762 2.9 0  3.061016949152542 2.9 0  3.023728813559321 2.9 0  2.986440677966101 2.9 0  2.949152542372881 2.9 0  2.911864406779661 2.9 0  2.87457627118644 2.9 0  2.83728813559322 2.9 0  5 0.1063822625082082 0  5 0.210636880010749 0  5 0.3128064053694972 0  5 0.4129325400644018 0  5 0.5110561521032336 0  5 0.6072172918830103 0  5 0.7014552087832795 0  5 0.7938083674443693 0  5 0.88431446261646 0  5 0.9730104359544682 0  5 1.059932489996267 0  5 1.145116102913299 0  5 1.228596043483191 0  5 1.310406385079062 0  5 1.390580519944147 0  5 1.469151172477827 0  5 1.546150411986101 0  5 1.621609666658609 0  5 1.695559736099044 0  5 1.76803080383987 0  5 1.839052450169751 0  5 1.908653663631169 0  5 1.97686285289587 0  5 2.043707858613779 0  5 2.109215964341413 0  5 2.173413907925942 0  5 2.236327892833935 0  5 2.297983597762904 0  5 2.35840618845912 0  5 2.41762032730194 0  5 2.475650183444628 0  5 2.532519442457069 0  5 2.588251316112828 0  5 2.642868552557322 0  5 2.696393444426347 0  5 2.748847838312051 0  5 2.800253144313381 0  5 2.850630344319807 0  0.2631578947368421 0 0  0.5263157894736842 0 0  0.7894736842105263 0 0  1.052631578947368 0 0  1.31578947368421 0 0  1.578947368421053 0 0  1.842105263157895 0 0  2.105263157894737 0 0  2.368421052631579 0 0  2.631578947368421 0 0  2.894736842105263 0 0  3.157894736842105 0 0  3.421052631578947 0 0  3.684210526315789 0 0  3.947368421052632 0 0  4.210526315789473 0 0  4.473684210526315 0 0  4.736842105263158 0 0  0 2.850203682350569 0  0 2.799411438503675 0  0 2.747603349778291 0  0 2.694759099502208 0  0 2.640857964382145 0  0 2.58587880633613 0  0 2.52980006535898 0  0 2.472599749459174 0  0 2.414255427218689 0  0 2.35474421880616 0  0 2.294042786119219 0  0 2.232127324764723 0  0 2.1689735539481 0  0 2.104556707683347 0  0 2.038851524813415 0  0 1.971832238155655 0  0 1.903472565412126 0  0 1.83374569926617 0  0 1.762624296208475 0  0 1.690080464918761 0  0 1.616085756774206 0  0 1.540611154706337 0  0 1.463627060685571 0  0 1.385103284916206 0  0 1.305009033716617 0  0 1.223312897337225 0  0 1.139982838163732 0  0 1.054986177579938 0  0 0.9682895835804817 0  0 0.8798590579197976 0  0 0.7896599218415354 0  0 0.6976568029903638 0  0 0.6038136217958798 0  0 0.508093576867624 0  0 0.4104591310957497 0  0 0.3108719963522191 0  0 0.2092931188294389 0  0 0.1056826638508546 0  1.434832105763824 2.866945754981483 0  1.737156300467626 2.870039440267515 0  2.032203389830508 2.867707527316512 0  2.332911392405064 2.893422591869991 0  2.469810913293406 2.891944186606167 0  2.606221408823969 2.892519154985628 0  2.255455320628894 2.892068685006691 0  2.538247299216212 2.894964578182811 0  2.674683544303798 2.893422591869991 0  2.40126582278481 2.893422591869991 0  3.566125247295424 2.865029336199714 0  3.266101694915253 2.867707527316512 0  2.967796610169491 2.867707527316512 0  1.174288529834642 2.870795313888584 0  3.825423728813556 2.867707527316512 0  2.727766680262011 2.892655387647729 0  0.06601655192030442 1.502119107695954 0  4.933983535508361 1.507650792231964 0  0.9532124728485543 2.868722489783638 0  4.048935912500257 2.870640982995992 0  0.05930163367361763 1.866907161167414 0  4.943402512618553 1.871280731473148 0  4.271733870017743 2.86520865624265 0  0.7249420921613114 2.863922936177041 0  0.05494499779910056 2.196469063120752 0  4.947228695426367 2.208030108792719 0  0.5406152150397161 2.866493807382013 0  4.459322033898304 2.868847558178794 0  2.18135593220339 2.875780645487384 0  2.817027156509632 2.876587550645167 0  4.928427208322876 1.186856073198245 0  0.07189226971603224 1.174626666111662 0  4.610299014423113 2.867003104093161 0  0.3897270066746357 2.869433095314657 0  1.581132500042262 2.868247328632392 0  1.887637879411437 2.869235851794358 0  3.413449426418068 2.867372048034327 0  3.116721298814773 2.865731235547652 0  2.644303797468355 2.893422591869991 0  2.370983221828106 2.892719513369796 0  2.302531645569621 2.893336787387268 0  2.758987341772152 2.894242393897099 0  0.04979653335696277 2.443411216910286 0  4.950470983477169 2.446866954595817 0  2.482937483021586 0.2513241087417575 0  1.707129504814338 0.1999998659920923 0  3.28584657955054 0.229200625631625 0  4.907807122600524 0.834082362900164 0  4.757627118644067 2.867707527316512 0  0.0773489124676745 0.8347594898806663 0  0.2390604736599387 2.861365431805741 0  0.8363213715215729 2.863896768908178 0  4.160865610207075 2.868916854015731 0  1.282549332053297 2.867610952980761 0  1.065094818402487 2.861284686038041 0  3.93818127737282 2.86865134411395 0  3.711492629432973 2.863574306925269 0  4.91369361998929 0.5579891344254361 0  0.08208328472281323 0.5559535993317519 0  2.696596932532885 2.892010483922337 0  0.04706410140274553 2.613055974506516 0  4.955577063972248 2.616518038840186 0  2.234177215189874 2.893422591869991 0  2.279795840559739 2.89403861893984 0  0.9117357887652362 0.2117925286661764 0  4.055948041993057 0.2039101057937727 0  4.872119713780579 2.867632926423075 0  2.780113878992455 2.891535929611743 0  0.1327442468251063 2.85
[...]
<PointData  Vectors="displacement"> 
<DataArray  type="Float64"  Name="displacement"  NumberOfComponents="3" format="ascii">5.7612280297870283e-04 -3.0147770599239783e-03 0.0000000000000000e+00  0.0000000000000000e+00 -1.2413564394423855e-04 0.0000000000000000e+00  -5.7691389874825049e-04 -3.0149007002385204e-03 0.0000000000000000e+00  0.0000000000000000e+00 -1.2413579227525586e-04 0.0000000000000000e+00  0.0000000000000000e+00 0.0000000000000000e+00 0.0000000000000000e+00  0.0000000000000000e+00 0.0000000000000000e+00 0.0000000000000000e+00  5.7105517482720566e-04 -2.6681324904238753e-03 0.0000000000000000e+00  5.5960911857211282e-04 -2.4393789692197703e-03 0.0000000000000000e+00  5.4831899827610892e-04 -2.2552997114937950e-03 0.0000000000000000e+00  5.3709303977422795e-04 -2.0983238168200595e-03 0.0000000000000000e+00  5.2588229716961073e-04 -1.9606026011599214e-03 0.0000000000000000e+00  5.1469501815290194e-04 -1.8376064499010362e-03 0.0000000000000000e+00  5.0354289251886009e-04 -1.7263726317372238e-03 0.0000000000000000e+00  4.9242838127144697e-04 -1.6248354610075809e-03 0.0000000000000000e+00  4.8136284482750043e-04 -1.5314594668602380e-03 0.0000000000000000e+00  4.7034223851559378e-04 -1.4450995337658007e-03 0.0000000000000000e+00  4.5936992475134706e-04 -1.3648654550431003e-03 0.0000000000000000e+00  4.4844841703749856e-04 -1.2900298758569727e-03 0.0000000000000000e+00  4.3758193456332222e-04 -1.2199967785068609e-03 0.0000000000000000e+00  4.2677033753207779e-04 -1.1542795904787035e-03 0.0000000000000000e+00  4.1601611366321839e-04 -1.0924710938373153e-03 0.0000000000000000e+00  4.0532052986836547e-04 -1.0342229437971958e-03 0.0000000000000000e+00  3.9468584905237933e-04 -9.7923702928119681e-04 0.0000000000000000e+00  3.8411090670193945e-04 -9.2725496216581075e-04 0.0000000000000000e+00  3.7359877580252747e-04 -8.7805051876652844e-04 0.0000000000000000e+00  3.6315016828763260e-04 -8.3142678086393603e-04 0.0000000000000000e+00  3.5276598186602051e-04 -7.8721000640233818e-04 0.0000000000000000e+00  3.4244657642780826e-04 -7.4524601953572696e-04 0.0000000000000000e+00  3.3219310822597044e-04 -7.0539485476576319e-04 0.0000000000000000e+00  3.2200479073862657e-04 -6.6753357754778411e-04 0.0000000000000000e+00  3.1188274897645652e-04 -6.3155190912727753e-04 0.0000000000000000e+00  3.0182726790861967e-04 -5.9734833058346537e-04 0.0000000000000000e+00  2.9183810130857215e-04 -5.6483045437536448e-04 0.0000000000000000e+00  2.8191424379705532e-04 -5.3391679812025007e-04 0.0000000000000000e+00  2.7205747159417888e-04 -5.0453144911983432e-04 0.0000000000000000e+00  2.6226442356782530e-04 -4.7660344884922832e-04 0.0000000000000000e+00  2.5253678748063938e-04 -4.5007035457303278e-04 0.0000000000000000e+00  2.4287331333436982e-04 -4.2487452438673401e-04 0.0000000000000000e+00  2.3327226057996448e-04 -4.0096308617467607e-04 0.0000000000000000e+00  2.2373341410586567e-04 -3.7828453460231521e-04 0.0000000000000000e+00  2.1425524626635282e-04 -3.5679487034577176e-04 0.0000000000000000e+00  2.0483678986714615e-04 -3.3645151955754329e-04 0.0000000000000000e+00  1.9547626961785830e-04 -3.1721534945684983e-04 0.0000000000000000e+00  1.8617235910238904e-04 -2.9905121347666738e-04 0.0000000000000000e+00  1.7692336590218754e-04 -2.8192542598752226e-04 0.0000000000000000e+00  1.6772743135387143e-04 -2.6580740790071999e-04 0.0000000000000000e+00  1.5858269313745118e-04 -2.5066884740047689e-04 0.0000000000000000e+00  1.4948718544116211e-04 -2.3648352324362202e-04 0.0000000000000000e+00  1.4043860265877716e-04 -2.2322713803630292e-04 0.0000000000000000e+00  1.3143491129640353e-04 -2.1087764508278745e-04 0.0000000000000000e+00  1.2247370357311199e-04 -1.9941435243368017e-04 0.0000000000000000e+00  1.1355261592832110e-04 -1.8881859132641038e-04 0.0000000000000000e+00  1.0466913273066020e-04 -1.7907314609514404e-04 0.0000000000000000e+00  9.5820695909097384e-05 -1.7016245660310175e-04 0.0000000000000000e+00  8.7004619378101009e-05 -1.6207226035990356e-04 0.0000000000000000e+00  7.8218160336403418e-05 -1.5478987995992853e-04 0.0000000000000000e+00  6.9458807825772880e-05 -1.4830399246513299e-04 0.0000000000000000e+00  6.0723184873760101e-05 -1.4260427241570496e-04 0.0000000000000000e+00  5.2008771878760901e-05 -1.3768198808146055e-04 0.0000000000000000e+00  4.3312628770406213e-05 -1.3352975339729907e-04 0.0000000000000000e+00  3.4631928055419014e-05 -1.3014108373520520e-04 0.0000000000000000e+00  2.5963085931977163e-05 -1.2751071668177827e-04 0.0000000000000000e+00  1.7303562331213387e-05 -1.2563471523751969e-04 0.0000000000000000e+00  8.6502111865395273e-06 -1.2451026274972086e-04 0.0000000000000000e+00  -5.6872527333514181e-04 -3.1203455355274944e-03 0.0000000000000000e+00  -5.5342135688064473e-04 -3.1963695686052420e-03 0.0000000000000000e+00  -5.3845113993986136e-04 -3.2613244320481649e-03 0.0000000000000000e+00  -5.2355400888361961e-04 -3.3193609151443882e-03 0.0000000000000000e+00  -5.0876097678928631e-04 -3.3723150293149631e-03 0.0000000000000000e+00  -4.9398137239366538e-04 -3.4211743600150819e-03 0.0000000000000000e+00  -4.7921185667863727e-04 -3.4666047715883677e-03 0.0000000000000000e+00  -4.6444877883523958e-04 -3.5090508160853413e-03 0.0000000000000000e+00  -4.4968600374347773e-04 -3.5488518945628201e-03 0.0000000000000000e+00  -4.3492831760554582e-04 -3.5862758371987455e-03 0.0000000000000000e+00  -4.2017459444683946e-04 -3.6215321751983114e-03 0.0000000000000000e+00  -4.0542194672102931e-04 -3.6547902076446851e-03 0.0000000000000000e+00  -3.9067085850341915e-04 -3.6861926122396271e-03 0.0000000000000000e+00  -3.7592138847283423e-04 -3.7158560991193109e-03 0.0000000000000000e+00  -3.6117172303017341e-04 -3.7438795912044681e-03 0.0000000000000000e+00  -3.4642398682844725e-04 -3.7703524151673491e-03 0.0000000000000000e+00  -3.3167707427165453e-04 -3.7953484735301505e-03 0.0000000000000000e+00  -3.1693107423720173e-04 -3.8189325376887535e-03 0.0000000000000000e+00  -3.0218580430570814e-04 -3.8411621811723067e-03 0.0000000000000000e+00  -2.8744113428074423e-04 -3.8620877921367153e-03 0.0000000000000000e+00  -2.7269707547083571e-04 -3.8817541913701474e-03 0.0000000000000000e+00  -2.5795360664991417e-04 -3.9002012499549403e-03 0.0000000000000000e+00  -2.4321060654596932e-04 -3.9174642660073072e-03 0.0000000000000000e+00  -2.2846814882512744e-04 -3.9335751036731906e-03 0.0000000000000000e+00  -2.1372614412008776e-04 -3.9485622062970672e-03 0.0000000000000000e+00  -1.9898454595938459e-04 -3.9624506899315773e-03 0.0000000000000000e+00  -1.8424352461125331e-04 -3.9752632813986038e-03 0.0000000000000000e+00  -1.6950260211665407e-04 -3.9870199904773968e-03 0.0000000000000000e+00  -1.5476206593207370e-04 -3.9977390959697340e-03 0.0000000000000000e+00  -1.4002188953754106e-04 -4.0074365110013450e-03 0.0000000000000000e+00  -1.2528200283660885e-04 -4.0161263932774385e-03 0.0000000000000000e+00  -1.1054230810315451e-04 -4.0238210435853570e-03 0.0000000000000000e+00  -9.5802818958441347e-05 -4.0305312766400984e-03 0.0000000000000000e+00  -8.1063566144409286e-05 -4.0362663432522167e-03 0.0000000000000000e+00  -6.6324338748996638e-05 -4.0410338024859322e-03 0.0000000000000000e+00  -5.1585495909946132e-05 -4.0448403570337420e-03 0.0000000000000000e+00  -3.6846502957142181e-05 -4.0476909163823325e-03 0.0000000000000000e+00  -2.2107630960936389e-05 -4.0495891560984208e-03 0.0000000000000000e+00  -7.3688538294545619e-06 -4.0505376683525078e-03 0.0000000000000000e+00  7.3699247670772300e-06 -4.0505376501008307e-03 0.0000000000000000e+00  2.2108716695687836e-05 -4.0495890951345757e-03 0.0000000000000000e+00  3.6847552461919658e-05 -4.0476907793568807e-03 0.0000000000000000e+00  5.1586461303249794e-05 -4.0448402502838857e-03 0.0000000000000000e+00  6.6325435295415693e-05 -4.0410336792209723e-03 0.0000000000000000e+00  8.1064584628401688e-05 -4.0362660117933347e-03 0.0000000000000000e+00  9.5803854564953893e-05 -4.0305310016402560e-03 0.0000000000000000e+00  1.1054332213460948e-04 -4.0238207788222576e-03 0.0000000000000000e+00  1.2528299568150962e-04 -4.0161260930217301e-03 0.0000000000000000e+00  1.4002295539342438e-04 -4.0074362258483353e-03 0.0000000000000000e+00  1.5476313576242060e-04 -3.9977387223482279e-03 0.0000000000000000e+00  1.6950363682748034e-04 -3.9870196239800123e-03 0.0000000000000000e+00  1.8424458498174197e-04 -3.9752627919822968e-03 0.0000000000000000e+00  1.9898571161617497e-04 -3.9624501864388498e-03 0.0000000000000000e+00  2.1372730930389988e-04 -3.9485618069736335e-03 0.0000000000000000e+00  2.2846933399796725e-04 -3.9335748330594804e-03 0.0000000000000000e+00  2.4321183315419560e-04 -3.9174639698471335e-03 0.0000000000000000e+00  2.5795476143457302e-04 -3.9002008427788427e-03 0.0000000000000000e+00  2.7269849249525322e-04 -3.8817539517402178e-03 0.0000000000000000e+00  2.8744280617219481e-04 -3.8620870910858834e-03 0.0000000000000000e+00  3.0218762704322679e-04 -3.8411614744035998e-03 0.0000000000000000e+00  3.1693308116874039e-04 -3.8189317734075743e-03 0.0000000000000000e+00  3.3167935094459839e-04 -3.7953475393495278e-03 0.0000000000000000e+00  3.4642645008980814e-04 -3.7703514555567793e-03 0.0000000000000000e+00  3.6117453812677537e-04 -3.7438782086443383e-03 0.0000000000000000e+00  3.7592367279010511e-04 -3.7158533360122214e-03 0.0000000000000000e+00  3.9067425844899271e-04 -3.6861901365397120e-03 0.0000000000000000e+00  4.0542566249202083e-04 -3.6547879156140430e-03 0.0000000000000000e+00  4.2017865330949125e-04 -3.6215284156154858e-03 0.0000000000000000e+00  4.3493451281404849e-04 -3.5862735349658308e-03 0.0000000000000000e+00  4.4969125894783475e-04 -3.5488488060211841e-03 0.0000000000000000e+00  4.6445048442577926e-04 -3.5090437162743470e-03 0.0000000000000000e+00  4.7921581113779025e-04 -3.4665986903113228e-03 0.0000000000000000e+00  4.9399004743353185e-04 -3.4211779842159675e-03 0.0000000000000000e+00  5.0876730197580453e-04 -3.3723054039878930e-03 0.0000000000000000e+00  5.2355305775886264e-04 -3.3193372337247699e-03 0.0000000000000000e+00  5.3832873854593830e-04 -3.2613185828714994e-03 0.0000000000000000e+00  5.5351919995863682e-04 -3.1965849162874293e-03 0.0000000000000000e+00  5.6864444926005959e-04 -3.1201048005000172e-03 0.0000000000000000e+00  -8.6502789037720310e-06 -1.2451037996329725e-04 0.0000000000000000e+00  -1.7303630755099444e-05 -1.2563484805123631e-04 0.0000000000000000e+00  -2.5963101338785310e-05 -1.2751080820026748e-04 0.0000000000000000e+00  -3.4631771359818508e-05 -1.3014115680284036e-04 0.0000000000000000e+00  -4.3312643986383291e-05 -1.3352983688452862e-04 0.0000000000000000e+00  -5.2008910059606884e-05 -1.3768220041084677e-04 0.0000000000000000e+00  -6.0723171413328099e-05 -1.4260433999181018e-04 0.0000000000000000e+00  -6.9458680397004998e-05 -1.4830400432252808e-04 0.0000000000000000e+00  -7.8218199291745462e-05 -1.5478997366313860e-04 0.0000000000000000e+00  -8.7004638333096541e-05 -1.6207239681454737e-04 0.0000000000000000e+00  -9.5820698483778995e-05 -1.7016259251104087e-04 0.0000000000000000e+00  -1.0466917549931378e-04 -1.7907333074885731e-04 0.0000000000000000e+00  -1.1355264443482770e-04 -1.8881877081243070e-04 0.0000000000000000e+00  -1.2247371035788862e-04 -1.9941453331131704e-04 0.0000000000000000e+00  -1.3143488875094314e-04 -2.1087778502802248e-04 0.0000000000000000e+00  -1.4043857395813633e-04 -2.2322730786062772e-04 0.0000000000000000e+00  -1.4948710363029726e-04 -2.3648356362989813e-04 0.0000000000000000e+00  -1.5858270893780879e-04 -2.5066902884566318e-04 0.0000000000000000e+00  -1.6772737852038989e-04 -2.6580764235226357e-04 0.0000000000000000e+00  -1.7692332914969470e-04 -2.8192577350552670e-04 0.0000000000000000e+00  -1.8617261101188060e-04 -2.9905169618209910e-04 0.0000000000000000e+00  -1.9547616234069141e-04 -3.1721561924988561e-04 0.0000000000000000e+00  -2.0483668187448585e-04 -3.3645150166820842e-04 0.0000000000000000e+00  -2.1425520159356801e-04 -3.5679498059242579e-04 0.0000000000000000e+00  -2.2373326164642848e-04 -3.7828482507917788e-04 0.0000000000000000e+00  -2.3327211434239097e-04 -4.0096304590305691e-04 0.0000000000000000e+00  -2.4287295756953979e-04 -4.2487522271021064e-04 0.0000000000000000e+00  -2.5253674186215459e-04 -4.5007072965080728e-04 0.0000000000000000e+00  -2.6226450992627098e-04 -4.7660322740740950e-04 0.0000000000000000e+00  -2.7205690550253180e-04 -5.0453074075130816e-04 0.0000000000000000e+00  -2.8191445791764149e-04 -5.3391681889329904e-04 0.0000000000000000e+00  -2.9183753868384984e-04 -5.6483046878621232e-04 0.0000000000000000e+00  -3.0182825537168980e-04 -5.9734814717205171e-04 0.0000000000000000e+00  -3.1188261467477026e-04 -6.3155218798514466e-04 0.0000000000000000e+00  -3.2200465997920787e-04 -6.6753461416992847e-04 0.0000000000000000e+00  -3.3219277480221987e-04 -7.0539520175516394e-04 0.0000000000000000e+00  -3.4244692385351365e-04 -7.4524556873382919e-04 0.0000000000000000e+00  -3.5276595116322961e-04 -7.8720992525434924e-04 0.0000000000000000e+00  -3.6314998633806597e-04 -8.3142661445364965e-04 0.0000000000000000e+00  -3.7359844255263066e-04 -8.7805003672801756e-04 0.0000000000000000e+00  -3.8411063835123147e-04 -9.2725436281208210e-04 0.0000000000000000e+00  -3.9468487067905448e-04 -9.7923765055886805e-04 0.0000000000000000e+00  -4.0532125977696691e-04 -1.0342243467986836e-03 0.0000000000000000e+00  -4.1601728873179588e-04 -1.0924719745134411e-03 0.0000000000000000e+00  -4.2677069115916607e-04 -1.1542790129084608e-03 0.0000000000000000e+00  -4.3758059976000492e-04 -1.2199953379443008e-03 0.0000000000000000e+00  -4.4844750671333409e-04 -1.2900284800408846e-03 0.0000000000000000e+00  -4.5936869581724089e-04 -1.3648687446883166e-03 0.0000000000000000e+00  -4.7034121805994276e-04 -1.4451051028212879e-03 0.0000000000000000e+00  -4.8136444099981714e-04 -1.5314551750128772e-03 0.0000000000000000e+00  -4.9242958533789844e-04 -1.6248366100884597e-03 0.0000000000000000e+00  -5.0354760911796974e-04 -1.7263671671060533e-03 0.0000000000000000e+00  -5.1469481250148439e-04 -1.8376094540431306e-03 0.0000000000000000e+00  -5.2587302058176356e-04 -1.9606143287086378e-03 0.0000000000000000e+00  -5.3708330851817828e-04 -2.0983232343841423e-03 0.0000000000000000e+00  -5.4837234790378281e-04 -2.2552912739250948e-03 0.0000000000000000e+00  -5.5946625514679161e-04 -2.4394663995923188e-03 0.0000000000000000e+00  -5.7116408475882906e-04 -2.6679725763434151e-03 0.0000000000000000e+00  0.0000000000000000e+00 -2.4091214375272380e-05 0.0000000000000000e+00  0.0000000000000000e+00 -4.5002168530343896e-05 0.0000000000000000e+00  0.0000000000000000e+00 -6.3122068730693184e-05 0.0000000000000000e+00  0.0000000000000000e+00 -7.8782455041326606e-05 0.0000000000000000e+00  0.0000000000000000e+00 -9.2235274504486674e-05 0.0000000000000000e+00  0.0000000000000000e+00 -1.0368786102099486e-04 0.0000000000000000e+00  0.0000000000000000e+00 -1.1331372634882031e-04 0.0000000000000000e+00  0.0000000000000000e+00 -1.2126138561556397e-04 0.0000000000000000e+00  0.0000000000000000e+00 -1.2764881265527861e-04 0.0000000000000000e+00  0.0000000000000000e+00 -1.3260562161440963e-04 0.0000000000000000e+00  0.0000000000000000e+00 -1.3623644664063323e-04 0.0000000000000000e+00  0.0000000000000000e+00 -1.3864999311657774e-04 0.0000000000000000e+00  0.0000000000000000e+00 -1.3995726688655855e-04 0.0000000000000000e+00  0.0000000000000000e+00 -1.4026789181196755e-04 0.0000000000000000e+00  0.0000000000000000e+00 -1.3969440719106883e-04 0.0000000000000000e+00  0.0000000000000000e+00 -1.3835258470723459e-04 0.0000000000000000e+00  0.0000000000000000e+00 -1.3636223456966762e-04 0.0000000000000000e+00  0.0000000000000000e+00 -1.3384292282917913e-04 0.0000000000000000e+00  0.0000000000000000e+00 -1.3091539185142669e-04 0.0000000000000000e+00  0.0000000000000000e+00 -1.2770007927060013e-04 0.0000000000000000e+00  0.0000000000000000e+00 -1.2431553358635398e-04 0.0000000000000000e+00  0.0000000000000000e+00 -1.2087590760306105e-04 0.0000000000000000e+00  0.0000000000000000e+00 -1.1749147184092103e-04 0.0000000000000000e+00  0.0000000000000000e+00 -1.1426264745278682e-04 0.0000000000000000e+00  0.0000000000000000e+00 -1.1128533804355357e-04 0.0000000000000000e+00  0.0000000000000000e+00 -1.0864603862663763e-04 0.0000000000000000e+00  0.0000000000000000e+00 -1.0641756819315887e-04 0.0000000000000000e+00  0.0000000000000000e+00 -1.0466589558556352e-04 0.0000000000000000e+00  0.0000000000000000e+00 -1.0344357106154540e-04 0.0000000000000000e+00  0.0000000000000000e+00 -1.0279187664472568e-04 0.0000000000000000e+00  0.0000000000000000e+00 -1.0274088778566263e-04 0.0000000000000000e+00  0.0000000000000000e+00 -1.0330902441587532e-04 0.0000000000000000e+00  0.0000000000000000e+00 -1.0450418983689085e-04 0.0000000000000000e+00  0.0000000000000000e+00 -1.0632447403520364e-04 0.0000000000000000e+00  0.0000000000000000e+00 -1.0875852224670478e-04 0.0000000000000000e+00  0.0000000000000000e+00 -1.1178663193868940e-04 0.0000000000000000e+00  0.0000000000000000e+00 -1.1538177291051102e-04 0.0000000000000000e+00  0.0000000000000000e+00 -1.1951092017474970e-04 0.0000000000000000e+00  0.0000000000000000e+00 0.0000000000000000e+00 0.0000000000000000e+00  0.0000000000000000e+00 0.0000000000000000e+00 0.0000000000000000e+00  0.0000000000000000e+00 0.0000000000000000e+00 0.0000000000000000e+00  0.0000000000000000e+00 0.0000000000000000e+00 0.0000000000000000e+00  0.0000000000000000e+00 0.0000000000000000e+00 0.0000000000000000e+00  0.0000000000000000e+00 0.0000000000000000e+00 0.0000000000000000e+00  0.0000000000000000e+00 0.0000000000000000e+00 0.0000000000000000e+00  0.0000000000000000e+00 0.0000000000000000e+00 0.0000000000000000e+00  0.0000000000000000e+00 0.0000000000000000e+00 0.0000000000000000e+00  0.0000000000000000e+00 0.0000000000000000e+00 0.0000000000000000e+00  0.0000000000000000e+00 0.0000000000000000e+00 0.0000000000000000e+00  0.0000000000000000e+00 0.0000000000000000e+00 0.0000000000000000e+00  0.0000000000000000e+00 0.0000000000000000e+00 0.0000000000000000e+00  0.0000000000000000e+00 0.0000000000000000e+00 0.0000000000000000e+00  0.0000000000000000e+00 0.0000000000000000e+00 0.0000000000000000e+00  0.0000000000000000e+00 0.0000000000000000e+00 0.0000000000000000e+00  0.0000000000000000e+00 0.0000000000000000e+00 0.0000000000000000e+00  0.0000000000000000e+00 0.0000000000000000e+00 0.0000000000000000e+00  0.0000000000000000e+00 -1.1947334473453799e-04 0.0000000000000000e+00  0.0000000000000000e+00 -1.1531777284014585e-04 0.0000000000000000e+00  0.0000000000000000e+00 -1.1170722236270588e-04 0.0000000000000000e+00  0.0000000000000000e+00 -1.0867432082842845e-04 0.0000000000000000e+00  0.0000000000000000e+00 -1.0624561514203065e-04 0.0000000000000000e+00  0.0000000000000000e+00 -1.0443980389898087e-04 0.0000000000000000e+00  0.0000000000000000e+00 -1.0326700103999307e-04 0.0000000000000000e+00  0.0000000000000000e+00 -1.0272793403544994e-04 0.0000000000000000e+00  0.0000000000000000e+00 -1.0281320263252328e-04 0.0000000000000000e+00  0.0000000000000000e+00 -1.0350215118099966e-04 0.0000000000000000e+00  0.0000000000000000e+00 -1.0476376917319505e-04 0.0000000000000000e+00  0.0000000000000000e+00 -1.0655287817581864e-04 0.0000000000000000e+00  0.0000000000000000e+00 -1.0881708196790628e-04 0.0000000000000000e+00  0.0000000000000000e+00 -1.1148890827931735e-04 0.0000000000000000e+00  0.0000000000000000e+00 -1.1449224769535875e-04 0.0000000000000000e+00  0.0000000000000000e+00 -1.1773876983939425e-04 0.0000000000000000e+00  0.0000000000000000e+00 -1.2113341177700489e-04 0.0000000000000000e+00  0.0000000000000000e+00 -1.2457432360403836e-04 0.0000000000000000e+00  0.0000000000000000e+00 -1.2794988682821571e-04 0.0000000000000000e+00  0.0000000000000000e+00 -1.3114589448427961e-04 0.0000000000000000e+00  0.0000000000000000e+00 -1.3404453495679842e-04 0.0000000000000000e+00  0.0000000000000000e+00 -1.3652623735333974e-04 0.0000000000000000e+00  0.0000000000000000e+00 -1.3847097704575384e-04 0.00000000000