<?xml version="1.0"?>
<VTKFile type="UnstructuredGrid"  version="0.1"  >
<UnstructuredGrid>
<Piece  NumberOfPoints="3167" NumberOfCells="6038">
<Points>
<DataArray  type="Float64"  NumberOfComponents="3"  format="ascii">2.2 2.9 0  0 2.9 0  2.8 2.9 0  5 2.9 0  5 0 0  0 0 0  2.16271186440678 2.9 0  2.125423728813559 2.9 0  2.088135593220339 2.9 0  2.050847457627119 2.9 0  2.013559322033898 2.9 0  1.976271186440678 2.9 0  1.938983050847457 2.9 0  1.901694915254237 2.9 0  1.864406779661016 2.9 0  1.827118644067796 2.9 0  1.789830508474575 2.9 0  1.752542372881355 2.9 0  1.715254237288134 2.9 0  1.677966101694914 2.9 0  1.640677966101693 2.9 0  1.603389830508473 2.9 0  1.566101694915253 2.9 0  1.528813559322032 2.9 0  1.491525423728812 2.9 0  1.454237288135591 2.9 0  1.416949152542371 2.9 0  1.37966101694915 2.9 0  1.34237288135593 2.9 0  1.305084745762709 2.9 0  1.267796610169489 2.9 0  1.230508474576268 2.9 0  1.193220338983048 2.9 0  1.155932203389827 2.9 0  1.118644067796607 2.9 0  1.081355932203387 2.9 0  1.044067796610166 2.9 0  1.006779661016946 2.9 0  0.9694915254237257 2.9 0  0.9322033898305055 2.9 0  0.8949152542372856 2.9 0  0.8576271186440652 2.9 0  0.820338983050845 2.9 0  0.783050847457625 2.9 0  0.7457627118644048 2.9 0  0.7084745762711844 2.9 0  0.6711864406779642 2.9 0  0.633898305084744 2.9 0  0.5966101694915238 2.9 0  0.5593220338983036 2.9 0  0.5220338983050834 2.9 0  0.4847457627118632 2.9 0  0.447457627118643 2.9 0  0.4101694915254228 2.9 0  0.3728813559322024 2.9 0  0.3355932203389822 2.9 0  0.2983050847457622 2.9 0  0.2610169491525418 2.9 0  0.2237288135593216 2.9 0  0.1864406779661016 2.9 0  0.1491525423728812 2.9 0  0.1118644067796613 2.9 0  0.07457627118644039 2.9 0  0.03728813559321997 2.9 0  2.792405063291139 2.9 0  2.784810126582279 2.9 0  2.777215189873418 2.9 0  2.769620253164557 2.9 0  2.762025316455697 2.9 0  2.754430379746836 2.9 0  2.746835443037975 2.9 0  2.739240506329114 2.9 0  2.731645569620254 2.9 0  2.724050632911393 2.9 0  2.716455696202532 2.9 0  2.708860759493671 2.9 0  2.701265822784811 2.9 0  2.69367088607595 2.9 0  2.686075949367089 2.9 0  2.678481012658228 2.9 0  2.670886075949368 2.9 0  2.663291139240507 2.9 0  2.655696202531646 2.9 0  2.648101265822786 2.9 0  2.640506329113925 2.9 0  2.632911392405064 2.9 0  2.625316455696203 2.9 0  2.617721518987342 2.9 0  2.610126582278482 2.9 0  2.602531645569621 2.9 0  2.59493670886076 2.9 0  2.587341772151899 2.9 0  2.579746835443038 2.9 0  2.572151898734178 2.9 0  2.564556962025317 2.9 0  2.556962025316456 2.9 0  2.549367088607595 2.9 0  2.541772151898734 2.9 0  2.534177215189874 2.9 0  2.526582278481013 2.9 0  2.518987341772152 2.9 0  2.511392405063292 2.9 0  2.503797468354431 2.9 0  2.49620253164557 2.9 0  2.488607594936709 2.9 0  2.481012658227848 2.9 0  2.473417721518988 2.9 0  2.465822784810127 2.9 0  2.458227848101266 2.9 0  2.450632911392406 2.9 0  2.443037974683545 2.9 0  2.435443037974684 2.9 0  2.427848101265823 2.9 0  2.420253164556962 2.9 0  2.412658227848102 2.9 0  2.405063291139241 2.9 0  2.39746835443038 2.9 0  2.389873417721519 2.9 0  2.382278481012658 2.9 0  2.374683544303798 2.9 0  2.367088607594937 2.9 0  2.359493670886076 2.9 0  2.351898734177215 2.9 0  2.344303797468355 2.9 0  2.336708860759494 2.9 0  2.329113924050633 2.9 0  2.321518987341773 2.9 0  2.313924050632912 2.9 0  2.306329113924051 2.9 0  2.29873417721519 2.9 0  2.291139240506329 2.9 0  2.283544303797469 2.9 0  2.275949367088608 2.9 0  2.268354430379747 2.9 0  2.260759493670887 2.9 0  2.253164556962026 2.9 0  2.245569620253165 2.9 0  2.237974683544304 2.9 0  2.230379746835443 2.9 0  2.222784810126583 2.9 0  2.215189873417722 2.9 0  2.207594936708861 2.9 0  4.96271186440678 2.9 0  4.925423728813559 2.9 0  4.888135593220339 2.9 0  4.850847457627118 2.9 0  4.813559322033898 2.9 0  4.776271186440677 2.9 0  4.738983050847457 2.9 0  4.701694915254237 2.9 0  4.664406779661016 2.9 0  4.627118644067796 2.9 0  4.589830508474575 2.9 0  4.552542372881355 2.9 0  4.515254237288135 2.9 0  4.477966101694914 2.9 0  4.440677966101694 2.9 0  4.403389830508473 2.9 0  4.366101694915252 2.9 0  4.328813559322032 2.9 0  4.291525423728811 2.9 0  4.254237288135591 2.9 0  4.21694915254237 2.9 0  4.17966101694915 2.9 0  4.14237288135593 2.9 0  4.105084745762709 2.9 0  4.067796610169489 2.9 0  4.030508474576268 2.9 0  3.993220338983048 2.9 0  3.955932203389827 2.9 0  3.918644067796607 2.9 0  3.881355932203387 2.9 0  3.844067796610166 2.9 0  3.806779661016946 2.9 0  3.769491525423725 2.9 0  3.732203389830505 2.9 0  3.694915254237285 2.9 0  3.657627118644065 2.9 0  3.620338983050845 2.9 0  3.583050847457625 2.9 0  3.545762711864405 2.9 0  3.508474576271184 2.9 0  3.471186440677964 2.9 0  3.433898305084744 2.9 0  3.396610169491524 2.9 0  3.359322033898303 2.9 0  3.322033898305083 2.9 0  3.284745762711863 2.9 0  3.247457627118643 2.9 0  3.210169491525423 2.9 0  3.172881355932202 2.9 0  3.135593220338982 2.9 0  3.098305084745762 2.9 0  3.061016949152542 2.9 0  3.023728813559321 2.9 0  2.986440677966101 2.9 0  2.949152542372881 2.9 0  2.911864406779661 2.9 0  2.87457627118644 2.9 0  2.83728813559322 2.9 0  5 0.1063822625082082 0  5 0.210636880010749 0  5 0.3128064053694972 0  5 0.4129325400644018 0  5 0.5110561521032336 0  5 0.6072172918830103 0  5 0.7014552087832795 0  5 0.7938083674443693 0  5 0.88431446261646 0  5 0.9730104359544682 0  5 1.059932489996267 0  5 1.145116102913299 0  5 1.228596043483191 0  5 1.310406385079062 0  5 1.390580519944147 0  5 1.469151172477827 0  5 1.546150411986101 0  5 1.621609666658609 0  5 1.695559736099044 0  5 1.76803080383987 0  5 1.839052450169751 0  5 1.908653663631169 0  5 1.97686285289587 0  5 2.043707858613779 0  5 2.109215964341413 0  5 2.173413907925942 0  5 2.236327892833935 0  5 2.297983597762904 0  5 2.35840618845912 0  5 2.41762032730194 0  5 2.475650183444628 0  5 2.532519442457069 0  5 2.588251316112828 0  5 2.642868552557322 0  5 2.696393444426347 0  5 2.748847838312051 0  5 2.800253144313381 0  5 2.850630344319807 0  0.2631578947368421 0 0  0.5263157894736842 0 0  0.7894736842105263 0 0  1.052631578947368 0 0  1.31578947368421 0 0  1.578947368421053 0 0  1.842105263157895 0 0  2.105263157894737 0 0  2.368421052631579 0 0  2.631578947368421 0 0  2.894736842105263 0 0  3.157894736842105 0 0  3.421052631578947 0 0  3.684210526315789 0 0  3.947368421052632 0 0  4.210526315789473 0 0  4.473684210526315 0 0  4.736842105263158 0 0  0 2.850203682350569 0  0 2.799411438503675 0  0 2.747603349778291 0  0 2.694759099502208 0  0 2.640857964382145 0  0 2.58587880633613 0  0 2.52980006535898 0  0 2.472599749459174 0  0 2.414255427218689 0  0 2.35474421880616 0  0 2.294042786119219 0  0 2.232127324764723 0  0 2.1689735539481 0  0 2.104556707683347 0  0 2.038851524813415 0  0 1.971832238155655 0  0 1.903472565412126 0  0 1.83374569926617 0  0 1.762624296208475 0  0 1.690080464918761 0  0 1.616085756774206 0  0 1.540611154706337 0  0 1.463627060685571 0  0 1.385103284916206 0  0 1.305009033716617 0  0 1.223312897337225 0  0 1.139982838163732 0  0 1.054986177579938 0  0 0.9682895835804817 0  0 0.8798590579197976 0  0 0.7896599218415354 0  0 0.6976568029903638 0  0 0.6038136217958798 0  0 0.508093576867624 0  0 0.4104591310957497 0  0 0.3108719963522191 0  0 0.2092931188294389 0  0 0.1056826638508546 0  1.434832105763824 2.866945754981483 0  1.737156300467626 2.870039440267515 0  2.032203389830508 2.867707527316512 0  2.332911392405064 2.893422591869991 0  2.469810913293406 2.891944186606167 0  2.606221408823969 2.892519154985628 0  2.255455320628894 2.892068685006691 0  2.538247299216212 2.894964578182811 0  2.674683544303798 2.893422591869991 0  2.40126582278481 2.893422591869991 0  3.566125247295424 2.865029336199714 0  3.266101694915253 2.867707527316512 0  2.967796610169491 2.867707527316512 0  1.174288529834642 2.870795313888584 0  3.825423728813556 2.867707527316512 0  2.727766680262011 2.892655387647729 0  0.06601655192030442 1.502119107695954 0  4.933983535508361 1.507650792231964 0  0.9532124728485543 2.868722489783638 0  4.048935912500257 2.870640982995992 0  0.05930163367361763 1.866907161167414 0  4.943402512618553 1.871280731473148 0  4.271733870017743 2.86520865624265 0  0.7249420921613114 2.863922936177041 0  0.05494499779910056 2.196469063120752 0  4.947228695426367 2.208030108792719 0  0.5406152150397161 2.866493807382013 0  4.459322033898304 2.868847558178794 0  2.18135593220339 2.875780645487384 0  2.817027156509632 2.876587550645167 0  4.928427208322876 1.186856073198245 0  0.07189226971603224 1.174626666111662 0  4.610299014423113 2.867003104093161 0  0.3897270066746357 2.869433095314657 0  1.581132500042262 2.868247328632392 0  1.887637879411437 2.869235851794358 0  3.413449426418068 2.867372048034327 0  3.116721298814773 2.865731235547652 0  2.644303797468355 2.893422591869991 0  2.370983221828106 2.892719513369796 0  2.302531645569621 2.893336787387268 0  2.758987341772152 2.894242393897099 0  0.04979653335696277 2.443411216910286 0  4.950470983477169 2.446866954595817 0  2.482937483021586 0.2513241087417575 0  1.707129504814338 0.1999998659920923 0  3.28584657955054 0.229200625631625 0  4.907807122600524 0.834082362900164 0  4.757627118644067 2.867707527316512 0  0.0773489124676745 0.8347594898806663 0  0.2390604736599387 2.861365431805741 0  0.8363213715215729 2.863896768908178 0  4.160865610207075 2.868916854015731 0  1.282549332053297 2.867610952980761 0  1.065094818402487 2.861284686038041 0  3.93818127737282 2.86865134411395 0  3.711492629432973 2.863574306925269 0  4.91369361998929 0.5579891344254361 0  0.08208328472281323 0.5559535993317519 0  2.696596932532885 2.892010483922337 0  0.04706410140274553 2.613055974506516 0  4.955577063972248 2.616518038840186 0  2.234177215189874 2.893422591869991 0  2.279795840559739 2.89403861893984 0  0.9117357887652362 0.2117925286661764 0  4.055948041993057 0.2039101057937727 0  4.872119713780579 2.867632926423075 0  2.780113878992455 2.891535929611743 0  0.1327442468251063 2.85
[...]
<PointData  Vectors="displacement"> 
<DataArray  type="Float64"  Name="displacement"  NumberOfComponents="3" format="ascii">1.7869571685610562e-03 -9.3509186773913424e-03 0.0000000000000000e+00  0.0000000000000000e+00 -3.8503089562365094e-04 0.0000000000000000e+00  -1.7894109062869606e-03 -9.3513021719262637e-03 0.0000000000000000e+00  0.0000000000000000e+00 -3.8503135570122247e-04 0.0000000000000000e+00  0.0000000000000000e+00 0.0000000000000000e+00 0.0000000000000000e+00  0.0000000000000000e+00 0.0000000000000000e+00 0.0000000000000000e+00  1.7712389320911582e-03 -8.2757329787723800e-03 0.0000000000000000e+00  1.7357367576050259e-03 -7.5662093452070929e-03 0.0000000000000000e+00  1.7007182488903013e-03 -6.9952516475146696e-03 0.0000000000000000e+00  1.6658987504861614e-03 -6.5083603131876559e-03 0.0000000000000000e+00  1.6311264471531963e-03 -6.0811911188519696e-03 0.0000000000000000e+00  1.5964269207115430e-03 -5.6996945818964450e-03 0.0000000000000000e+00  1.5618364293381540e-03 -5.3546812136934328e-03 0.0000000000000000e+00  1.5273626063165159e-03 -5.0397438875319986e-03 0.0000000000000000e+00  1.4930406881937673e-03 -4.7501200412783801e-03 0.0000000000000000e+00  1.4588581296331056e-03 -4.4822578759176586e-03 0.0000000000000000e+00  1.4248253598219676e-03 -4.2333962419133613e-03 0.0000000000000000e+00  1.3909501748790144e-03 -4.0012791064716335e-03 0.0000000000000000e+00  1.3572456614421623e-03 -3.7840578045212881e-03 0.0000000000000000e+00  1.3237113859045763e-03 -3.5802231365695447e-03 0.0000000000000000e+00  1.2903550644130294e-03 -3.3885120368174404e-03 0.0000000000000000e+00  1.2571806265408555e-03 -3.2078440460150321e-03 0.0000000000000000e+00  1.2241950911285597e-03 -3.0372945145501549e-03 0.0000000000000000e+00  1.1913948462110966e-03 -2.8760620012939610e-03 0.0000000000000000e+00  1.1587894232519024e-03 -2.7234448293944908e-03 0.0000000000000000e+00  1.1263810304514693e-03 -2.5788322186118713e-03 0.0000000000000000e+00  1.0941724522284986e-03 -2.4416852740953921e-03 0.0000000000000000e+00  1.0621648048523495e-03 -2.3115257894074271e-03 0.0000000000000000e+00  1.0303616746669881e-03 -2.1879196342734701e-03 0.0000000000000000e+00  9.9876062212149908e-04 -2.0704855032414337e-03 0.0000000000000000e+00  9.6736513665578541e-04 -1.9588813452591875e-03 0.0000000000000000e+00  9.3617610215724039e-04 -1.8527922796063474e-03 0.0000000000000000e+00  9.0519275490624600e-04 -1.7519317483168130e-03 0.0000000000000000e+00  8.7441197652306788e-04 -1.6560470178984066e-03 0.0000000000000000e+00  8.4383927630058851e-04 -1.5649026303208478e-03 0.0000000000000000e+00  8.1346422903240607e-04 -1.4782784938882877e-03 0.0000000000000000e+00  7.8329206964333948e-04 -1.3959809302858557e-03 0.0000000000000000e+00  7.5331892102016508e-04 -1.3178311519114029e-03 0.0000000000000000e+00  7.2353938451073915e-04 -1.2436651655926443e-03 0.0000000000000000e+00  6.9395279290463340e-04 -1.1733232174953212e-03 0.0000000000000000e+00  6.6455440791089032e-04 -1.1066688351402804e-03 0.0000000000000000e+00  6.3534122958792505e-04 -1.0435699674411997e-03 0.0000000000000000e+00  6.0630775152657735e-04 -9.8390523645091438e-04 0.0000000000000000e+00  5.7744985958876763e-04 -9.2756562824119506e-04 0.0000000000000000e+00  5.4876230440848264e-04 -8.7444666026638971e-04 0.0000000000000000e+00  5.2023932097895959e-04 -8.2445348552257825e-04 0.0000000000000000e+00  4.9187513295175834e-04 -7.7749828939470455e-04 0.0000000000000000e+00  4.6366364297852194e-04 -7.3349974158615238e-04 0.0000000000000000e+00  4.3559769977214146e-04 -6.9238247899395904e-04 0.0000000000000000e+00  4.0767099605494843e-04 -6.5407811949406969e-04 0.0000000000000000e+00  3.7987606362507859e-04 -6.1852248297226335e-04 0.0000000000000000e+00  3.5220557143869337e-04 -5.8565766462259563e-04 0.0000000000000000e+00  3.2465171677476234e-04 -5.5543026670188702e-04 0.0000000000000000e+00  2.9720656527737292e-04 -5.2779202641301079e-04 0.0000000000000000e+00  2.6986178552868901e-04 -5.0269870586207223e-04 0.0000000000000000e+00  2.4260887019596604e-04 -4.8011098360452401e-04 0.0000000000000000e+00  2.1544003105282387e-04 -4.5999373934100304e-04 0.0000000000000000e+00  1.8834479376098764e-04 -4.4231494664532091e-04 0.0000000000000000e+00  1.6131534328497267e-04 -4.2704752235435823e-04 0.0000000000000000e+00  1.3434256042346458e-04 -4.1416855714755386e-04 0.0000000000000000e+00  1.0741767515494704e-04 -4.0365793768715993e-04 0.0000000000000000e+00  8.0529571619522957e-05 -3.9549934157229281e-04 0.0000000000000000e+00  5.3670371298508533e-05 -3.8968055743162315e-04 0.0000000000000000e+00  2.6830316053165558e-05 -3.8619284886777240e-04 0.0000000000000000e+00  -1.7640122884801999e-03 -9.6783598813819042e-03 0.0000000000000000e+00  -1.7165442086298107e-03 -9.9141632382162750e-03 0.0000000000000000e+00  -1.6701111628643300e-03 -1.0115633407878220e-02 0.0000000000000000e+00  -1.6239048072153102e-03 -1.0295644872397014e-02 0.0000000000000000e+00  -1.5780213347871227e-03 -1.0459892379061680e-02 0.0000000000000000e+00  -1.5321795109837573e-03 -1.0611439116656973e-02 0.0000000000000000e+00  -1.4863689791896862e-03 -1.0752350393231734e-02 0.0000000000000000e+00  -1.4405784157093180e-03 -1.0884005073620646e-02 0.0000000000000000e+00  -1.3947887912721588e-03 -1.1007455876355880e-02 0.0000000000000000e+00  -1.3490149512172176e-03 -1.1123533528938504e-02 0.0000000000000000e+00  -1.3032534031147886e-03 -1.1232887933242232e-02 0.0000000000000000e+00  -1.2574951906771069e-03 -1.1336044203372513e-02 0.0000000000000000e+00  -1.2117418153580770e-03 -1.1433444882031407e-02 0.0000000000000000e+00  -1.1659934591615176e-03 -1.1525451968454833e-02 0.0000000000000000e+00  -1.1202444968563163e-03 -1.1612372291363020e-02 0.0000000000000000e+00  -1.0745015184679115e-03 -1.1694482914841117e-02 0.0000000000000000e+00  -1.0287610947748093e-03 -1.1772013061966419e-02 0.0000000000000000e+00  -9.8302350144760780e-04 -1.1845163633848192e-02 0.0000000000000000e+00  -9.3728817267704323e-04 -1.1914113206009035e-02 0.0000000000000000e+00  -8.9155470463351085e-04 -1.1979018067135933e-02 0.0000000000000000e+00  -8.4582313239260761e-04 -1.2040017237639625e-02 0.0000000000000000e+00  -8.0009339011754578e-04 -1.2097234385453482e-02 0.0000000000000000e+00  -7.5436510165954732e-04 -1.2150778994565061e-02 0.0000000000000000e+00  -7.0863849550846189e-04 -1.2200749897833813e-02 0.0000000000000000e+00  -6.6291329447418636e-04 -1.2247235317836686e-02 0.0000000000000000e+00  -6.1718935441641221e-04 -1.2290313156906440e-02 0.0000000000000000e+00  -5.7146720345525859e-04 -1.2330053906710945e-02 0.0000000000000000e+00  -5.2574535910760237e-04 -1.2366519631480751e-02 0.0000000000000000e+00  -4.8002471297576860e-04 -1.2399767026482411e-02 0.0000000000000000e+00  -4.3430518280289599e-04 -1.2429845449377084e-02 0.0000000000000000e+00  -3.8858655117119078e-04 -1.2456798813046989e-02 0.0000000000000000e+00  -3.4286851496403536e-04 -1.2480665270781720e-02 0.0000000000000000e+00  -2.9715111643043338e-04 -1.2501478366527791e-02 0.0000000000000000e+00  -2.5143445092250309e-04 -1.2519266793477247e-02 0.0000000000000000e+00  -2.0571786425537528e-04 -1.2534053997541145e-02 0.0000000000000000e+00  -1.6000247036476040e-04 -1.2545860768426719e-02 0.0000000000000000e+00  -1.1428661086707980e-04 -1.2554702333863859e-02 0.0000000000000000e+00  -6.8571126539865464e-05 -1.2560590094339194e-02 0.0000000000000000e+00  -2.2855936454082380e-05 -1.2563532089974749e-02 0.0000000000000000e+00  2.2859258175837875e-05 -1.2563532033363613e-02 0.0000000000000000e+00  6.8574494157799693e-05 -1.2560589905247948e-02 0.0000000000000000e+00  1.1428986611068784e-04 -1.2554701908852722e-02 0.0000000000000000e+00  1.6000546472023775e-04 -1.2545860437321232e-02 0.0000000000000000e+00  2.0572126540780345e-04 -1.2534053615210837e-02 0.0000000000000000e+00  2.5143760994909890e-04 -1.2519265765392912e-02 0.0000000000000000e+00  2.9715432856586266e-04 -1.2501477513562183e-02 0.0000000000000000e+00  3.4287166018021775e-04 -1.2480664449567375e-02 0.0000000000000000e+00  3.8858963067314527e-04 -1.2456797881745389e-02 0.0000000000000000e+00  4.3430848876264462e-04 -1.2429844564919431e-02 0.0000000000000000e+00  4.8002803126309066e-04 -1.2399765867622490e-02 0.0000000000000000e+00  5.2574856846488599e-04 -1.2366518494717694e-02 0.0000000000000000e+00  5.7147049240098644e-04 -1.2330052388690890e-02 0.0000000000000000e+00  6.1719296992812612e-04 -1.2290311595225617e-02 0.0000000000000000e+00  6.6291690851886652e-04 -1.2247234079257216e-02 0.0000000000000000e+00  7.0864217155300726e-04 -1.2200749058472642e-02 0.0000000000000000e+00  7.5436890622402047e-04 -1.2150778075966550e-02 0.0000000000000000e+00  8.0009697190722476e-04 -1.2097233122517459e-02 0.0000000000000000e+00  8.4582752757001247e-04 -1.2040016494380686e-02 0.0000000000000000e+00  8.9155989033069577e-04 -1.1979015892690145e-02 0.0000000000000000e+00  9.3729382625271096e-04 -1.1914111013828142e-02 0.0000000000000000e+00  9.8302972633693142e-04 -1.1845161263281142e-02 0.0000000000000000e+00  1.0287681563196777e-03 -1.1772010164423143e-02 0.0000000000000000e+00  1.0745091587531254e-03 -1.1694479938421902e-02 0.0000000000000000e+00  1.1202532284271083e-03 -1.1612368003083309e-02 0.0000000000000000e+00  1.1660005444167592e-03 -1.1525443398139623e-02 0.0000000000000000e+00  1.2117523609519508e-03 -1.1433437203165565e-02 0.0000000000000000e+00  1.2575067158650736e-03 -1.1336037094192737e-02 0.0000000000000000e+00  1.3032659924684139e-03 -1.1232876272163322e-02 0.0000000000000000e+00  1.3490341668639049e-03 -1.1123526388114374e-02 0.0000000000000000e+00  1.3948050913127688e-03 -1.1007446296642007e-02 0.0000000000000000e+00  1.4405837059308006e-03 -1.0883983052172991e-02 0.0000000000000000e+00  1.4863812447155121e-03 -1.0752331530965647e-02 0.0000000000000000e+00  1.5322064183107794e-03 -1.0611450357822428e-02 0.0000000000000000e+00  1.5780409535859634e-03 -1.0459862524233662e-02 0.0000000000000000e+00  1.6239018571164664e-03 -1.0295571419858211e-02 0.0000000000000000e+00  1.6697315110831593e-03 -1.0115615265516702e-02 0.0000000000000000e+00  1.7168476880072916e-03 -9.9148311810271280e-03 0.0000000000000000e+00  1.7637615968574679e-03 -9.6776131947712580e-03 0.0000000000000000e+00  -2.6830526091361398e-05 -3.8619321242854151e-04 0.0000000000000000e+00  -5.3670583528529498e-05 -3.8968096937926549e-04 0.0000000000000000e+00  -8.0529619406742288e-05 -3.9549962543473281e-04 0.0000000000000000e+00  -1.0741718913299731e-04 -4.0365816432067788e-04 0.0000000000000000e+00  -1.3434260761878279e-04 -4.1416881609947714e-04 0.0000000000000000e+00  -1.6131577187979775e-04 -4.2704818093534290e-04 0.0000000000000000e+00  -1.8834475201083320e-04 -4.4231515624579108e-04 0.0000000000000000e+00  -2.1543963580766283e-04 -4.5999377611903532e-04 0.0000000000000000e+00  -2.4260899102355186e-04 -4.8011127424330214e-04 0.0000000000000000e+00  -2.6986184432130166e-04 -5.0269912910275388e-04 0.0000000000000000e+00  -2.9720657326324980e-04 -5.2779244795797911e-04 0.0000000000000000e+00  -3.2465184943007827e-04 -5.5543083944137382e-04 0.0000000000000000e+00  -3.5220565985718183e-04 -5.8565822133347550e-04 0.0000000000000000e+00  -3.7987608466938708e-04 -6.1852304399951307e-04 0.0000000000000000e+00  -4.0767092612581065e-04 -6.5407855356149536e-04 0.0000000000000000e+00  -4.3559761075151238e-04 -6.9238300573720572e-04 0.0000000000000000e+00  -4.6366338922618113e-04 -7.3349986685206016e-04 0.0000000000000000e+00  -4.9187518195965016e-04 -7.7749885218231706e-04 0.0000000000000000e+00  -5.2023915710562379e-04 -8.2445421271973795e-04 0.0000000000000000e+00  -5.4876219041346858e-04 -8.7444773816121421e-04 0.0000000000000000e+00  -5.7745064093516103e-04 -9.2756712544617593e-04 0.0000000000000000e+00  -6.0630741878554199e-04 -9.8390607326659884e-04 0.0000000000000000e+00  -6.3534089462765264e-04 -1.0435699119539404e-03 0.0000000000000000e+00  -6.6455426934955105e-04 -1.1066691770917673e-03 0.0000000000000000e+00  -6.9395232002198120e-04 -1.1733241184659284e-03 0.0000000000000000e+00  -7.2353893092640597e-04 -1.2436650406823686e-03 0.0000000000000000e+00  -7.5331781754620606e-04 -1.3178333178977797e-03 0.0000000000000000e+00  -7.8329192814872344e-04 -1.3959820936626809e-03 0.0000000000000000e+00  -8.1346449688996631e-04 -1.4782778070433274e-03 0.0000000000000000e+00  -8.4383752045701229e-04 -1.5649004331777917e-03 0.0000000000000000e+00  -8.7441264065981099e-04 -1.6560470823300687e-03 0.0000000000000000e+00  -9.0519100981601927e-04 -1.7519317930148653e-03 0.0000000000000000e+00  -9.3617916496643947e-04 -1.8527917107200977e-03 0.0000000000000000e+00  -9.6736472009294346e-04 -1.9588822101912181e-03 0.0000000000000000e+00  -9.9876021654568981e-04 -2.0704887185270752e-03 0.0000000000000000e+00  -1.0303606404882520e-03 -2.1879207105287360e-03 0.0000000000000000e+00  -1.0621658824609137e-03 -2.3115243911574724e-03 0.0000000000000000e+00  -1.0941723569978263e-03 -2.4416850223990920e-03 0.0000000000000000e+00  -1.1263804660994361e-03 -2.5788317024579392e-03 0.0000000000000000e+00  -1.1587883896124094e-03 -2.7234433342580968e-03 0.0000000000000000e+00  -1.1913940138690855e-03 -2.8760601422815513e-03 0.0000000000000000e+00  -1.2241920565130126e-03 -3.0372964415639548e-03 0.0000000000000000e+00  -1.2571828904946714e-03 -3.2078483976976167e-03 0.0000000000000000e+00  -1.2903587091172754e-03 -3.3885147684061014e-03 0.0000000000000000e+00  -1.3237124827479338e-03 -3.5802213451228641e-03 0.0000000000000000e+00  -1.3572415212895184e-03 -3.7840533363357244e-03 0.0000000000000000e+00  -1.3909473513312037e-03 -4.0012747770759765e-03 0.0000000000000000e+00  -1.4248215480433197e-03 -4.2334064453891998e-03 0.0000000000000000e+00  -1.4588549644910214e-03 -4.4822751494287541e-03 0.0000000000000000e+00  -1.4930456390333433e-03 -4.7501067292772450e-03 0.0000000000000000e+00  -1.5273663409633264e-03 -5.0397474516303198e-03 0.0000000000000000e+00  -1.5618510587896469e-03 -5.3546642640747207e-03 0.0000000000000000e+00  -1.5964262828435979e-03 -5.6997038998287102e-03 0.0000000000000000e+00  -1.6310976740078521e-03 -6.0812274941301975e-03 0.0000000000000000e+00  -1.6658685670987705e-03 -6.5083585066491355e-03 0.0000000000000000e+00  -1.7008837231592053e-03 -6.9952254767507299e-03 0.0000000000000000e+00  -1.7352936388451451e-03 -7.5664805275490743e-03 0.0000000000000000e+00  -1.7715767374723132e-03 -8.2752369740821310e-03 0.0000000000000000e+00  0.0000000000000000e+00 -7.4723597130083724e-05 0.0000000000000000e+00  0.0000000000000000e+00 -1.3958299730598204e-04 0.0000000000000000e+00  0.0000000000000000e+00 -1.9578539962231961e-04 0.0000000000000000e+00  0.0000000000000000e+00 -2.4435914021293060e-04 0.0000000000000000e+00  0.0000000000000000e+00 -2.8608568193764638e-04 0.0000000000000000e+00  0.0000000000000000e+00 -3.2160811130240997e-04 0.0000000000000000e+00  0.0000000000000000e+00 -3.5146460884464886e-04 0.0000000000000000e+00  0.0000000000000000e+00 -3.7611582318048027e-04 0.0000000000000000e+00  0.0000000000000000e+00 -3.9592767315111966e-04 0.0000000000000000e+00  0.0000000000000000e+00 -4.1130218229554118e-04 0.0000000000000000e+00  0.0000000000000000e+00 -4.2256389381755647e-04 0.0000000000000000e+00  0.0000000000000000e+00 -4.3004997864972235e-04 0.0000000000000000e+00  0.0000000000000000e+00 -4.3410474305491528e-04 0.0000000000000000e+00  0.0000000000000000e+00 -4.3506820680660780e-04 0.0000000000000000e+00  0.0000000000000000e+00 -4.3328943247398734e-04 0.0000000000000000e+00  0.0000000000000000e+00 -4.2912750849870756e-04 0.0000000000000000e+00  0.0000000000000000e+00 -4.2295404959744065e-04 0.0000000000000000e+00  0.0000000000000000e+00 -4.1513991318202790e-04 0.0000000000000000e+00  0.0000000000000000e+00 -4.0605960523408215e-04 0.0000000000000000e+00  0.0000000000000000e+00 -3.9608668655118296e-04 0.0000000000000000e+00  0.0000000000000000e+00 -3.8558885841190760e-04 0.0000000000000000e+00  0.0000000000000000e+00 -3.7492018798915294e-04 0.0000000000000000e+00  0.0000000000000000e+00 -3.6442270079471961e-04 0.0000000000000000e+00  0.0000000000000000e+00 -3.5440787260779342e-04 0.0000000000000000e+00  0.0000000000000000e+00 -3.4517316715204128e-04 0.0000000000000000e+00  0.0000000000000000e+00 -3.3698686557075700e-04 0.0000000000000000e+00  0.0000000000000000e+00 -3.3007483015844321e-04 0.0000000000000000e+00  0.0000000000000000e+00 -3.2464167613827490e-04 0.0000000000000000e+00  0.0000000000000000e+00 -3.2085039837733765e-04 0.0000000000000000e+00  0.0000000000000000e+00 -3.1882904111838655e-04 0.0000000000000000e+00  0.0000000000000000e+00 -3.1867088923349875e-04 0.0000000000000000e+00  0.0000000000000000e+00 -3.2043307573059878e-04 0.0000000000000000e+00  0.0000000000000000e+00 -3.2414011423985184e-04 0.0000000000000000e+00  0.0000000000000000e+00 -3.2978608048207607e-04 0.0000000000000000e+00  0.0000000000000000e+00 -3.3733575544317765e-04 0.0000000000000000e+00  0.0000000000000000e+00 -3.4672802787763480e-04 0.0000000000000000e+00  0.0000000000000000e+00 -3.5787905834955535e-04 0.0000000000000000e+00  0.0000000000000000e+00 -3.7068641342338478e-04 0.0000000000000000e+00  0.0000000000000000e+00 0.0000000000000000e+00 0.0000000000000000e+00  0.0000000000000000e+00 0.0000000000000000e+00 0.0000000000000000e+00  0.0000000000000000e+00 0.0000000000000000e+00 0.0000000000000000e+00  0.0000000000000000e+00 0.0000000000000000e+00 0.0000000000000000e+00  0.0000000000000000e+00 0.0000000000000000e+00 0.0000000000000000e+00  0.0000000000000000e+00 0.0000000000000000e+00 0.0000000000000000e+00  0.0000000000000000e+00 0.0000000000000000e+00 0.0000000000000000e+00  0.0000000000000000e+00 0.0000000000000000e+00 0.0000000000000000e+00  0.0000000000000000e+00 0.0000000000000000e+00 0.0000000000000000e+00  0.0000000000000000e+00 0.0000000000000000e+00 0.0000000000000000e+00  0.0000000000000000e+00 0.0000000000000000e+00 0.0000000000000000e+00  0.0000000000000000e+00 0.0000000000000000e+00 0.0000000000000000e+00  0.0000000000000000e+00 0.0000000000000000e+00 0.0000000000000000e+00  0.0000000000000000e+00 0.0000000000000000e+00 0.0000000000000000e+00  0.0000000000000000e+00 0.0000000000000000e+00 0.0000000000000000e+00  0.0000000000000000e+00 0.0000000000000000e+00 0.0000000000000000e+00  0.0000000000000000e+00 0.0000000000000000e+00 0.0000000000000000e+00  0.0000000000000000e+00 0.0000000000000000e+00 0.0000000000000000e+00  0.0000000000000000e+00 -3.7056986587152905e-04 0.0000000000000000e+00  0.0000000000000000e+00 -3.5768054965671818e-04 0.0000000000000000e+00  0.0000000000000000e+00 -3.4648172359957256e-04 0.0000000000000000e+00  0.0000000000000000e+00 -3.3707458833224054e-04 0.0000000000000000e+00  0.0000000000000000e+00 -3.2954148425409178e-04 0.0000000000000000e+00  0.0000000000000000e+00 -3.2394040870361462e-04 0.0000000000000000e+00  0.0000000000000000e+00 -3.2030273203929638e-04 0.0000000000000000e+00  0.0000000000000000e+00 -3.1863071065232364e-04 0.0000000000000000e+00  0.0000000000000000e+00 -3.1889518782629692e-04 0.0000000000000000e+00  0.0000000000000000e+00 -3.2103209603597731e-04 0.0000000000000000e+00  0.0000000000000000e+00 -3.2494525014736320e-04 0.0000000000000000e+00  0.0000000000000000e+00 -3.3049452044364019e-04 0.0000000000000000e+00  0.0000000000000000e+00 -3.3751738983265960e-04 0.0000000000000000e+00  0.0000000000000000e+00 -3.4580457991721116e-04 0.0000000000000000e+00  0.0000000000000000e+00 -3.5512002251272861e-04 0.0000000000000000e+00  0.0000000000000000e+00 -3.6518974373914278e-04 0.0000000000000000e+00  0.0000000000000000e+00 -3.7571888737613490e-04 0.0000000000000000e+00  0.0000000000000000e+00 -3.8639154609388391e-04 0.0000000000000000e+00  0.0000000000000000e+00 -3.9686151338243257e-04 0.0000000000000000e+00  0.0000000000000000e+00 -4.0677455407836174e-04 0.0000000000000000e+00  0.0000000000000000e+00 -4.1576525249312603e-04 0.0000000000000000e+00  0.0000000000000000e+00 -4.2346273619764917e-04 0.0000000000000000e+00  0.0000000000000000e+00 -4.2949472541310474e-04 0.00000000000