<?xml version="1.0"?>
<VTKFile type="UnstructuredGrid"  version="0.1"  >
<UnstructuredGrid>
<Piece  NumberOfPoints="3167" NumberOfCells="6038">
<Points>
<DataArray  type="Float64"  NumberOfComponents="3"  format="ascii">2.2 2.9 0  0 2.9 0  2.8 2.9 0  5 2.9 0  5 0 0  0 0 0  2.16271186440678 2.9 0  2.125423728813559 2.9 0  2.088135593220339 2.9 0  2.050847457627119 2.9 0  2.013559322033898 2.9 0  1.976271186440678 2.9 0  1.938983050847457 2.9 0  1.901694915254237 2.9 0  1.864406779661016 2.9 0  1.827118644067796 2.9 0  1.789830508474575 2.9 0  1.752542372881355 2.9 0  1.715254237288134 2.9 0  1.677966101694914 2.9 0  1.640677966101693 2.9 0  1.603389830508473 2.9 0  1.566101694915253 2.9 0  1.528813559322032 2.9 0  1.491525423728812 2.9 0  1.454237288135591 2.9 0  1.416949152542371 2.9 0  1.37966101694915 2.9 0  1.34237288135593 2.9 0  1.305084745762709 2.9 0  1.267796610169489 2.9 0  1.230508474576268 2.9 0  1.193220338983048 2.9 0  1.155932203389827 2.9 0  1.118644067796607 2.9 0  1.081355932203387 2.9 0  1.044067796610166 2.9 0  1.006779661016946 2.9 0  0.9694915254237257 2.9 0  0.9322033898305055 2.9 0  0.8949152542372856 2.9 0  0.8576271186440652 2.9 0  0.820338983050845 2.9 0  0.783050847457625 2.9 0  0.7457627118644048 2.9 0  0.7084745762711844 2.9 0  0.6711864406779642 2.9 0  0.633898305084744 2.9 0  0.5966101694915238 2.9 0  0.5593220338983036 2.9 0  0.5220338983050834 2.9 0  0.4847457627118632 2.9 0  0.447457627118643 2.9 0  0.4101694915254228 2.9 0  0.3728813559322024 2.9 0  0.3355932203389822 2.9 0  0.2983050847457622 2.9 0  0.2610169491525418 2.9 0  0.2237288135593216 2.9 0  0.1864406779661016 2.9 0  0.1491525423728812 2.9 0  0.1118644067796613 2.9 0  0.07457627118644039 2.9 0  0.03728813559321997 2.9 0  2.792405063291139 2.9 0  2.784810126582279 2.9 0  2.777215189873418 2.9 0  2.769620253164557 2.9 0  2.762025316455697 2.9 0  2.754430379746836 2.9 0  2.746835443037975 2.9 0  2.739240506329114 2.9 0  2.731645569620254 2.9 0  2.724050632911393 2.9 0  2.716455696202532 2.9 0  2.708860759493671 2.9 0  2.701265822784811 2.9 0  2.69367088607595 2.9 0  2.686075949367089 2.9 0  2.678481012658228 2.9 0  2.670886075949368 2.9 0  2.663291139240507 2.9 0  2.655696202531646 2.9 0  2.648101265822786 2.9 0  2.640506329113925 2.9 0  2.632911392405064 2.9 0  2.625316455696203 2.9 0  2.617721518987342 2.9 0  2.610126582278482 2.9 0  2.602531645569621 2.9 0  2.59493670886076 2.9 0  2.587341772151899 2.9 0  2.579746835443038 2.9 0  2.572151898734178 2.9 0  2.564556962025317 2.9 0  2.556962025316456 2.9 0  2.549367088607595 2.9 0  2.541772151898734 2.9 0  2.534177215189874 2.9 0  2.526582278481013 2.9 0  2.518987341772152 2.9 0  2.511392405063292 2.9 0  2.503797468354431 2.9 0  2.49620253164557 2.9 0  2.488607594936709 2.9 0  2.481012658227848 2.9 0  2.473417721518988 2.9 0  2.465822784810127 2.9 0  2.458227848101266 2.9 0  2.450632911392406 2.9 0  2.443037974683545 2.9 0  2.435443037974684 2.9 0  2.427848101265823 2.9 0  2.420253164556962 2.9 0  2.412658227848102 2.9 0  2.405063291139241 2.9 0  2.39746835443038 2.9 0  2.389873417721519 2.9 0  2.382278481012658 2.9 0  2.374683544303798 2.9 0  2.367088607594937 2.9 0  2.359493670886076 2.9 0  2.351898734177215 2.9 0  2.344303797468355 2.9 0  2.336708860759494 2.9 0  2.329113924050633 2.9 0  2.321518987341773 2.9 0  2.313924050632912 2.9 0  2.306329113924051 2.9 0  2.29873417721519 2.9 0  2.291139240506329 2.9 0  2.283544303797469 2.9 0  2.275949367088608 2.9 0  2.268354430379747 2.9 0  2.260759493670887 2.9 0  2.253164556962026 2.9 0  2.245569620253165 2.9 0  2.237974683544304 2.9 0  2.230379746835443 2.9 0  2.222784810126583 2.9 0  2.215189873417722 2.9 0  2.207594936708861 2.9 0  4.96271186440678 2.9 0  4.925423728813559 2.9 0  4.888135593220339 2.9 0  4.850847457627118 2.9 0  4.813559322033898 2.9 0  4.776271186440677 2.9 0  4.738983050847457 2.9 0  4.701694915254237 2.9 0  4.664406779661016 2.9 0  4.627118644067796 2.9 0  4.589830508474575 2.9 0  4.552542372881355 2.9 0  4.515254237288135 2.9 0  4.477966101694914 2.9 0  4.440677966101694 2.9 0  4.403389830508473 2.9 0  4.366101694915252 2.9 0  4.328813559322032 2.9 0  4.291525423728811 2.9 0  4.254237288135591 2.9 0  4.21694915254237 2.9 0  4.17966101694915 2.9 0  4.14237288135593 2.9 0  4.105084745762709 2.9 0  4.067796610169489 2.9 0  4.030508474576268 2.9 0  3.993220338983048 2.9 0  3.955932203389827 2.9 0  3.918644067796607 2.9 0  3.881355932203387 2.9 0  3.844067796610166 2.9 0  3.806779661016946 2.9 0  3.769491525423725 2.9 0  3.732203389830505 2.9 0  3.694915254237285 2.9 0  3.657627118644065 2.9 0  3.620338983050845 2.9 0  3.583050847457625 2.9 0  3.545762711864405 2.9 0  3.508474576271184 2.9 0  3.471186440677964 2.9 0  3.433898305084744 2.9 0  3.396610169491524 2.9 0  3.359322033898303 2.9 0  3.322033898305083 2.9 0  3.284745762711863 2.9 0  3.247457627118643 2.9 0  3.210169491525423 2.9 0  3.172881355932202 2.9 0  3.135593220338982 2.9 0  3.098305084745762 2.9 0  3.061016949152542 2.9 0  3.023728813559321 2.9 0  2.986440677966101 2.9 0  2.949152542372881 2.9 0  2.911864406779661 2.9 0  2.87457627118644 2.9 0  2.83728813559322 2.9 0  5 0.1063822625082082 0  5 0.210636880010749 0  5 0.3128064053694972 0  5 0.4129325400644018 0  5 0.5110561521032336 0  5 0.6072172918830103 0  5 0.7014552087832795 0  5 0.7938083674443693 0  5 0.88431446261646 0  5 0.9730104359544682 0  5 1.059932489996267 0  5 1.145116102913299 0  5 1.228596043483191 0  5 1.310406385079062 0  5 1.390580519944147 0  5 1.469151172477827 0  5 1.546150411986101 0  5 1.621609666658609 0  5 1.695559736099044 0  5 1.76803080383987 0  5 1.839052450169751 0  5 1.908653663631169 0  5 1.97686285289587 0  5 2.043707858613779 0  5 2.109215964341413 0  5 2.173413907925942 0  5 2.236327892833935 0  5 2.297983597762904 0  5 2.35840618845912 0  5 2.41762032730194 0  5 2.475650183444628 0  5 2.532519442457069 0  5 2.588251316112828 0  5 2.642868552557322 0  5 2.696393444426347 0  5 2.748847838312051 0  5 2.800253144313381 0  5 2.850630344319807 0  0.2631578947368421 0 0  0.5263157894736842 0 0  0.7894736842105263 0 0  1.052631578947368 0 0  1.31578947368421 0 0  1.578947368421053 0 0  1.842105263157895 0 0  2.105263157894737 0 0  2.368421052631579 0 0  2.631578947368421 0 0  2.894736842105263 0 0  3.157894736842105 0 0  3.421052631578947 0 0  3.684210526315789 0 0  3.947368421052632 0 0  4.210526315789473 0 0  4.473684210526315 0 0  4.736842105263158 0 0  0 2.850203682350569 0  0 2.799411438503675 0  0 2.747603349778291 0  0 2.694759099502208 0  0 2.640857964382145 0  0 2.58587880633613 0  0 2.52980006535898 0  0 2.472599749459174 0  0 2.414255427218689 0  0 2.35474421880616 0  0 2.294042786119219 0  0 2.232127324764723 0  0 2.1689735539481 0  0 2.104556707683347 0  0 2.038851524813415 0  0 1.971832238155655 0  0 1.903472565412126 0  0 1.83374569926617 0  0 1.762624296208475 0  0 1.690080464918761 0  0 1.616085756774206 0  0 1.540611154706337 0  0 1.463627060685571 0  0 1.385103284916206 0  0 1.305009033716617 0  0 1.223312897337225 0  0 1.139982838163732 0  0 1.054986177579938 0  0 0.9682895835804817 0  0 0.8798590579197976 0  0 0.7896599218415354 0  0 0.6976568029903638 0  0 0.6038136217958798 0  0 0.508093576867624 0  0 0.4104591310957497 0  0 0.3108719963522191 0  0 0.2092931188294389 0  0 0.1056826638508546 0  1.434832105763824 2.866945754981483 0  1.737156300467626 2.870039440267515 0  2.032203389830508 2.867707527316512 0  2.332911392405064 2.893422591869991 0  2.469810913293406 2.891944186606167 0  2.606221408823969 2.892519154985628 0  2.255455320628894 2.892068685006691 0  2.538247299216212 2.894964578182811 0  2.674683544303798 2.893422591869991 0  2.40126582278481 2.893422591869991 0  3.566125247295424 2.865029336199714 0  3.266101694915253 2.867707527316512 0  2.967796610169491 2.867707527316512 0  1.174288529834642 2.870795313888584 0  3.825423728813556 2.867707527316512 0  2.727766680262011 2.892655387647729 0  0.06601655192030442 1.502119107695954 0  4.933983535508361 1.507650792231964 0  0.9532124728485543 2.868722489783638 0  4.048935912500257 2.870640982995992 0  0.05930163367361763 1.866907161167414 0  4.943402512618553 1.871280731473148 0  4.271733870017743 2.86520865624265 0  0.7249420921613114 2.863922936177041 0  0.05494499779910056 2.196469063120752 0  4.947228695426367 2.208030108792719 0  0.5406152150397161 2.866493807382013 0  4.459322033898304 2.868847558178794 0  2.18135593220339 2.875780645487384 0  2.817027156509632 2.876587550645167 0  4.928427208322876 1.186856073198245 0  0.07189226971603224 1.174626666111662 0  4.610299014423113 2.867003104093161 0  0.3897270066746357 2.869433095314657 0  1.581132500042262 2.868247328632392 0  1.887637879411437 2.869235851794358 0  3.413449426418068 2.867372048034327 0  3.116721298814773 2.865731235547652 0  2.644303797468355 2.893422591869991 0  2.370983221828106 2.892719513369796 0  2.302531645569621 2.893336787387268 0  2.758987341772152 2.894242393897099 0  0.04979653335696277 2.443411216910286 0  4.950470983477169 2.446866954595817 0  2.482937483021586 0.2513241087417575 0  1.707129504814338 0.1999998659920923 0  3.28584657955054 0.229200625631625 0  4.907807122600524 0.834082362900164 0  4.757627118644067 2.867707527316512 0  0.0773489124676745 0.8347594898806663 0  0.2390604736599387 2.861365431805741 0  0.8363213715215729 2.863896768908178 0  4.160865610207075 2.868916854015731 0  1.282549332053297 2.867610952980761 0  1.065094818402487 2.861284686038041 0  3.93818127737282 2.86865134411395 0  3.711492629432973 2.863574306925269 0  4.91369361998929 0.5579891344254361 0  0.08208328472281323 0.5559535993317519 0  2.696596932532885 2.892010483922337 0  0.04706410140274553 2.613055974506516 0  4.955577063972248 2.616518038840186 0  2.234177215189874 2.893422591869991 0  2.279795840559739 2.89403861893984 0  0.9117357887652362 0.2117925286661764 0  4.055948041993057 0.2039101057937727 0  4.872119713780579 2.867632926423075 0  2.780113878992455 2.891535929611743 0  0.1327442468251063 2.85
[...]
<PointData  Vectors="displacement"> 
<DataArray  type="Float64"  Name="displacement"  NumberOfComponents="3" format="ascii">-3.4096599160648214e-03 -6.5300560813687314e-03 0.0000000000000000e+00  0.0000000000000000e+00 -3.3203519851002640e-04 0.0000000000000000e+00  3.2932381159496904e-03 -6.7884547686453385e-03 0.0000000000000000e+00  0.0000000000000000e+00 -3.3183392028552711e-04 0.0000000000000000e+00  0.0000000000000000e+00 0.0000000000000000e+00 0.0000000000000000e+00  0.0000000000000000e+00 0.0000000000000000e+00 0.0000000000000000e+00  -3.9940114439040598e-03 -2.6596995940031498e-03 0.0000000000000000e+00  -3.9879799592430244e-03 -2.2856120657276965e-03 0.0000000000000000e+00  -3.9409913283907465e-03 -2.0610240842346885e-03 0.0000000000000000e+00  -3.8769664585977066e-03 -1.8979235662021782e-03 0.0000000000000000e+00  -3.8036121441264821e-03 -1.7710227963854141e-03 0.0000000000000000e+00  -3.7243394130001511e-03 -1.6691222906074978e-03 0.0000000000000000e+00  -3.6406416539378709e-03 -1.5858423053369776e-03 0.0000000000000000e+00  -3.5533371568690982e-03 -1.5169369257563717e-03 0.0000000000000000e+00  -3.4629705029005668e-03 -1.4592171623530510e-03 0.0000000000000000e+00  -3.3699478009384977e-03 -1.4101614205410300e-03 0.0000000000000000e+00  -3.2746836306197066e-03 -1.3676863714125890e-03 0.0000000000000000e+00  -3.1776351978053978e-03 -1.3300223691320940e-03 0.0000000000000000e+00  -3.0793668780562090e-03 -1.2957076153902584e-03 0.0000000000000000e+00  -2.9804219115232740e-03 -1.2636043626698139e-03 0.0000000000000000e+00  -2.8813393868814172e-03 -1.2328605379278877e-03 0.0000000000000000e+00  -2.7826349081167307e-03 -1.2028475085439912e-03 0.0000000000000000e+00  -2.6847482976475739e-03 -1.1731461642016541e-03 0.0000000000000000e+00  -2.5880487159210246e-03 -1.1434757768642684e-03 0.0000000000000000e+00  -2.4928624308184358e-03 -1.1136827370010634e-03 0.0000000000000000e+00  -2.3994128272942588e-03 -1.0836930484135756e-03 0.0000000000000000e+00  -2.3078798446072466e-03 -1.0534986932289451e-03 0.0000000000000000e+00  -2.2183876192587463e-03 -1.0231316484364641e-03 0.0000000000000000e+00  -2.1310173439682474e-03 -9.9265013318769143e-04 0.0000000000000000e+00  -2.0458124345918336e-03 -9.6213102897164525e-04 0.0000000000000000e+00  -1.9627854689231033e-03 -9.3165877751628218e-04 0.0000000000000000e+00  -1.8819265113472448e-03 -9.0132266287084933e-04 0.0000000000000000e+00  -1.8032042713160298e-03 -8.7121220597960209e-04 0.0000000000000000e+00  -1.7265751526498365e-03 -8.4141293339833653e-04 0.0000000000000000e+00  -1.6519881484446221e-03 -8.1200812775909141e-04 0.0000000000000000e+00  -1.5793645112372123e-03 -7.8307326600842711e-04 0.0000000000000000e+00  -1.5086458483413751e-03 -7.5468321341495110e-04 0.0000000000000000e+00  -1.4397531109991927e-03 -7.2690344298924564e-04 0.0000000000000000e+00  -1.3726156405971359e-03 -6.9979016958524878e-04 0.0000000000000000e+00  -1.3071413827363070e-03 -6.7340195886726750e-04 0.0000000000000000e+00  -1.2432614602466206e-03 -6.4778708579152973e-04 0.0000000000000000e+00  -1.1808923525209389e-03 -6.2298965240787318e-04 0.0000000000000000e+00  -1.1199502235790513e-03 -5.9905096101884551e-04 0.0000000000000000e+00  -1.0603657384255618e-03 -5.7600418933277274e-04 0.0000000000000000e+00  -1.0020555059972720e-03 -5.5388267808110050e-04 0.0000000000000000e+00  -9.4494653435499482e-04 -5.3271426193990997e-04 0.0000000000000000e+00  -8.8896461442229669e-04 -5.1252342383823943e-04 0.0000000000000000e+00  -8.3404058001609806e-04 -4.9333252439712108e-04 0.0000000000000000e+00  -7.8010020702410591e-04 -4.7516070360136583e-04 0.0000000000000000e+00  -7.2707775731851597e-04 -4.5802483406697582e-04 0.0000000000000000e+00  -6.7490507762176780e-04 -4.4194047336507271e-04 0.0000000000000000e+00  -6.2351872443465570e-04 -4.2692036598191357e-04 0.0000000000000000e+00  -5.7285447230359578e-04 -4.1297554039621551e-04 0.0000000000000000e+00  -5.2285200416624013e-04 -4.0011604654327022e-04 0.0000000000000000e+00  -4.7344911213185212e-04 -3.8835077926271038e-04 0.0000000000000000e+00  -4.2458735515088253e-04 -3.7768707681215113e-04 0.0000000000000000e+00  -3.7621320633162163e-04 -3.6813053339426060e-04 0.0000000000000000e+00  -3.2826125842281108e-04 -3.5968621904257451e-04 0.0000000000000000e+00  -2.8068152490126115e-04 -3.5236068838130120e-04 0.0000000000000000e+00  -2.3342107556803473e-04 -3.4615590952154717e-04 0.0000000000000000e+00  -1.8642630185736417e-04 -3.4107536744702819e-04 0.0000000000000000e+00  -1.3963453727130278e-04 -3.3712088745308026e-04 0.0000000000000000e+00  -9.3001628168332915e-05 -3.3429588728855824e-04 0.0000000000000000e+00  -4.6473993294469225e-05 -3.3260024331707369e-04 0.0000000000000000e+00  -3.8886387508814662e-04 -2.0420804552612571e-02 0.0000000000000000e+00  -1.3199826055745759e-04 -2.2732109891455566e-02 0.0000000000000000e+00  -5.9464267359943468e-06 -2.3274706526982589e-02 0.0000000000000000e+00  -1.6941037809310952e-05 -2.3436181366259638e-02 0.0000000000000000e+00  -2.9015857495126601e-06 -2.3620268481670606e-02 0.0000000000000000e+00  -2.8696614190126747e-08 -2.3775880619241851e-02 0.0000000000000000e+00  3.1276787336268641e-06 -2.3918127945631175e-02 0.0000000000000000e+00  8.1174586113219840e-06 -2.4050651744276615e-02 0.0000000000000000e+00  7.8459949723319250e-06 -2.4167170817592037e-02 0.0000000000000000e+00  6.0759414022165624e-06 -2.4275842023714314e-02 0.0000000000000000e+00  6.9829430237851407e-06 -2.4379545230139053e-02 0.0000000000000000e+00  7.7542358385259888e-06 -2.4475272722717295e-02 0.0000000000000000e+00  7.7880475161703610e-06 -2.4563581350182415e-02 0.0000000000000000e+00  7.6367746289562614e-06 -2.4645859486568542e-02 0.0000000000000000e+00  7.2522673647031693e-06 -2.4722543987836638e-02 0.0000000000000000e+00  6.9655120158978046e-06 -2.4794482874716955e-02 0.0000000000000000e+00  6.9618791934590466e-06 -2.4861932926626636e-02 0.0000000000000000e+00  6.8044467003266015e-06 -2.4924788212783110e-02 0.0000000000000000e+00  6.4964719629907771e-06 -2.4983432141272254e-02 0.0000000000000000e+00  6.1603019482562766e-06 -2.5038226711550263e-02 0.0000000000000000e+00  5.8187036407930087e-06 -2.5089358640024390e-02 0.0000000000000000e+00  5.4338987342990116e-06 -2.5136977406925474e-02 0.0000000000000000e+00  5.0045346367177181e-06 -2.5181254906752815e-02 0.0000000000000000e+00  4.5745592726546640e-06 -2.5222379518606355e-02 0.0000000000000000e+00  4.1829383712473486e-06 -2.5260497478610453e-02 0.0000000000000000e+00  3.8376979535402192e-06 -2.5295704619584667e-02 0.0000000000000000e+00  3.5246310703655324e-06 -2.5328066264045313e-02 0.0000000000000000e+00  3.2265407660777968e-06 -2.5357641986503844e-02 0.0000000000000000e+00  2.9286019996667873e-06 -2.5384492449958794e-02 0.0000000000000000e+00  2.6206529958853189e-06 -2.5408681092598868e-02 0.0000000000000000e+00  2.3014745539462123e-06 -2.5430274164350706e-02 0.0000000000000000e+00  1.9784940722436248e-06 -2.5449335896054279e-02 0.0000000000000000e+00  1.6596186009000833e-06 -2.5465925045758810e-02 0.0000000000000000e+00  1.3474237420239346e-06 -2.5480086639769962e-02 0.0000000000000000e+00  1.0435764299124252e-06 -2.5491855988274928e-02 0.0000000000000000e+00  7.3476772822573425e-07 -2.5501255907883068e-02 0.0000000000000000e+00  4.0703849374290746e-07 -2.5508305717003528e-02 0.0000000000000000e+00  4.9255280894189902e-08 -2.5513029340252329e-02 0.0000000000000000e+00  -3.4563869837075829e-07 -2.5515453623341594e-02 0.0000000000000000e+00  -7.7759248547343163e-07 -2.5515599804637527e-02 0.0000000000000000e+00  -1.2371081657835748e-06 -2.5513476681152364e-02 0.0000000000000000e+00  -1.7053480796359913e-06 -2.5509078651263273e-02 0.0000000000000000e+00  -2.1643824272060051e-06 -2.5502391302125040e-02 0.0000000000000000e+00  -2.5953611599747630e-06 -2.5493392814601043e-02 0.0000000000000000e+00  -2.9834330591906432e-06 -2.5482057228550924e-02 0.0000000000000000e+00  -3.3255869761326227e-06 -2.5468347465235283e-02 0.0000000000000000e+00  -3.6132946285861131e-06 -2.5452209186426281e-02 0.0000000000000000e+00  -3.8488752725890138e-06 -2.5433580968816417e-02 0.0000000000000000e+00  -4.0439525305474375e-06 -2.5412398544408913e-02 0.0000000000000000e+00  -4.2195206721764230e-06 -2.5388607894241938e-02 0.0000000000000000e+00  -4.3938606098609498e-06 -2.5362162994917930e-02 0.0000000000000000e+00  -4.5731295623548549e-06 -2.5333011775282674e-02 0.0000000000000000e+00  -4.7494637585950585e-06 -2.5301082772120804e-02 0.0000000000000000e+00  -4.8630418718327467e-06 -2.5266251499483468e-02 0.0000000000000000e+00  -4.8715876598677161e-06 -2.5228361055919152e-02 0.0000000000000000e+00  -4.7647345014057796e-06 -2.5187256348275462e-02 0.0000000000000000e+00  -4.5973935360300609e-06 -2.5142827405657188e-02 0.0000000000000000e+00  -4.4780506941822099e-06 -2.5095038970549915e-02 0.0000000000000000e+00  -4.5015155680942288e-06 -2.5043863125757980e-02 0.0000000000000000e+00  -4.7308639037886316e-06 -2.4989254885443648e-02 0.0000000000000000e+00  -5.1563579632782643e-06 -2.4931105941592858e-02 0.0000000000000000e+00  -5.6178141672293325e-06 -2.4869127099017469e-02 0.0000000000000000e+00  -5.8800915528186079e-06 -2.4802832641139770e-02 0.0000000000000000e+00  -5.7840185863294131e-06 -2.4731696545557940e-02 0.0000000000000000e+00  -5.2209685969571782e-06 -2.4655181271582279e-02 0.0000000000000000e+00  -3.8274554300139554e-06 -2.4572454749765923e-02 0.0000000000000000e+00  -1.1570089722719976e-06 -2.4482118980313789e-02 0.0000000000000000e+00  1.9498349472372965e-06 -2.4383716729922227e-02 0.0000000000000000e+00  3.9648369314277982e-06 -2.4278484566480824e-02 0.0000000000000000e+00  4.2997256644054582e-06 -2.4167575802859387e-02 0.0000000000000000e+00  5.6471589098420675e-06 -2.4047933067124730e-02 0.0000000000000000e+00  6.9697533837918146e-06 -2.3919022052209957e-02 0.0000000000000000e+00  5.3762531802427322e-06 -2.3786950391127808e-02 0.0000000000000000e+00  1.9557963447572484e-05 -2.3622012038404999e-02 0.0000000000000000e+00  3.3846531150795358e-05 -2.3428889488241966e-02 0.0000000000000000e+00  9.3156936768273968e-05 -2.3081407429458450e-02 0.0000000000000000e+00  9.1663826815408666e-05 -2.2599243733540584e-02 0.0000000000000000e+00  4.2506104224513042e-04 -2.0597859551885825e-02 0.0000000000000000e+00  4.6495454473519569e-05 -3.3239958281177788e-04 0.0000000000000000e+00  9.3043041490542295e-05 -3.3409331258591753e-04 0.0000000000000000e+00  1.3969449578108521e-04 -3.3691639437051708e-04 0.0000000000000000e+00  1.8650313361468065e-04 -3.4086647825982259e-04 0.0000000000000000e+00  2.3352025325004878e-04 -3.4594302423663606e-04 0.0000000000000000e+00  2.8080517124316995e-04 -3.5214166285000344e-04 0.0000000000000000e+00  3.2840215244374550e-04 -3.5946094319464340e-04 0.0000000000000000e+00  3.7637272118166227e-04 -3.6789658507782326e-04 0.0000000000000000e+00  4.2477019005683647e-04 -3.7744381495172702e-04 0.0000000000000000e+00  4.7365276094295933e-04 -3.8809684391097012e-04 0.0000000000000000e+00  5.2307651029218647e-04 -3.9985044883526219e-04 0.0000000000000000e+00  5.7310209100154249e-04 -4.1269655784817086e-04 0.0000000000000000e+00  6.2378761554251452e-04 -4.2662657602400431e-04 0.0000000000000000e+00  6.7519582736276311e-04 -4.4163055350113922e-04 0.0000000000000000e+00  7.2739016371966420e-04 -4.5769716182445625e-04 0.0000000000000000e+00  7.8043571563321383e-04 -4.7481334632914942e-04 0.0000000000000000e+00  8.3439795519897977e-04 -4.9296339612208437e-04 0.0000000000000000e+00  8.8934735384079387e-04 -5.1212987703168073e-04 0.0000000000000000e+00  9.4535123429438889e-04 -5.3229481714797678e-04 0.0000000000000000e+00  1.0024833217931899e-03 -5.5343422713979634e-04 0.0000000000000000e+00  1.0608206293229489e-03 -5.7552678306863709e-04 0.0000000000000000e+00  1.1204257632919262e-03 -5.9853883955477739e-04 0.0000000000000000e+00  1.1813895735918243e-03 -6.2244154620483001e-04 0.0000000000000000e+00  1.2437840821302739e-03 -6.4719875349355995e-04 0.0000000000000000e+00  1.3076881368093427e-03 -6.7277031435907225e-04 0.0000000000000000e+00  1.3731811581925617e-03 -6.9911159753078720e-04 0.0000000000000000e+00  1.4403438486155621e-03 -7.2617297420576865e-04 0.0000000000000000e+00  1.5092554838930980e-03 -7.5389958896527969e-04 0.0000000000000000e+00  1.5799918790868615e-03 -7.8223033253849671e-04 0.0000000000000000e+00  1.6526266886697570e-03 -8.1109972921388049e-04 0.0000000000000000e+00  1.7272314367117569e-03 -8.4043616651479432e-04 0.0000000000000000e+00  1.8038702578729796e-03 -8.7016157849018039e-04 0.0000000000000000e+00  1.8825973578542919e-03 -9.0019239308925013e-04 0.0000000000000000e+00  1.9634545172317933e-03 -9.3044410689159789e-04 0.0000000000000000e+00  2.0464746677458937e-03 -9.6082633244942500e-04 0.0000000000000000e+00  2.1316633889098507e-03 -9.9125155520448835e-04 0.0000000000000000e+00  2.2190096617372272e-03 -1.0216359426434374e-03 0.0000000000000000e+00  2.3084657573345102e-03 -1.0519016093960265e-03 0.0000000000000000e+00  2.3999482174819832e-03 -1.0819931145946500e-03 0.0000000000000000e+00  2.4933349596097626e-03 -1.1118793772980991e-03 0.0000000000000000e+00  2.5884473081054741e-03 -1.1415735689137806e-03 0.0000000000000000e+00  2.6850403236940643e-03 -1.1711448611219167e-03 0.0000000000000000e+00  2.7828040005505022e-03 -1.2007569982651152e-03 0.0000000000000000e+00  2.8813886635575187e-03 -1.2306874366953293e-03 0.0000000000000000e+00  2.9803179025186979e-03 -1.2613584057692723e-03 0.0000000000000000e+00  3.0790900434326390e-03 -1.2934024103130972e-03 0.0000000000000000e+00  3.1771812434685889e-03 -1.3276719033642589e-03 0.0000000000000000e+00  3.2740190597626219e-03 -1.3653066480633369e-03 0.0000000000000000e+00  3.3690674336150504e-03 -1.4077398918415020e-03 0.0000000000000000e+00  3.4618739322099640e-03 -1.4567233797459741e-03 0.0000000000000000e+00  3.5519608390428017e-03 -1.5143876568299811e-03 0.0000000000000000e+00  3.6389503747570229e-03 -1.5831787575188755e-03 0.0000000000000000e+00  3.7222311201898545e-03 -1.6663624439221332e-03 0.0000000000000000e+00  3.8009346752989484e-03 -1.7681733905895278e-03 0.0000000000000000e+00  3.8734800744829644e-03 -1.8951275492329895e-03 0.0000000000000000e+00  3.9369145567715938e-03 -2.0583360344860460e-03 0.0000000000000000e+00  3.9847478945055385e-03 -2.2804535526668277e-03 0.0000000000000000e+00  3.9793071901605337e-03 -2.6579566849055246e-03 0.0000000000000000e+00  0.0000000000000000e+00 -8.6518588621886653e-05 0.0000000000000000e+00  0.0000000000000000e+00 -1.6738824837025872e-04 0.0000000000000000e+00  0.0000000000000000e+00 -2.4296121716368019e-04 0.0000000000000000e+00  0.0000000000000000e+00 -3.1349640982802641e-04 0.0000000000000000e+00  0.0000000000000000e+00 -3.7915279429158834e-04 0.0000000000000000e+00  0.0000000000000000e+00 -4.4002190691119205e-04 0.0000000000000000e+00  0.0000000000000000e+00 -4.9615602149874808e-04 0.0000000000000000e+00  0.0000000000000000e+00 -5.4757811504385352e-04 0.0000000000000000e+00  0.0000000000000000e+00 -5.9425355853468702e-04 0.0000000000000000e+00  0.0000000000000000e+00 -6.3619866716395281e-04 0.0000000000000000e+00  0.0000000000000000e+00 -6.7338019699793024e-04 0.0000000000000000e+00  0.0000000000000000e+00 -7.0578964608721548e-04 0.0000000000000000e+00  0.0000000000000000e+00 -7.3343692802341177e-04 0.0000000000000000e+00  0.0000000000000000e+00 -7.5634318556043467e-04 0.0000000000000000e+00  0.0000000000000000e+00 -7.7455135912789588e-04 0.0000000000000000e+00  0.0000000000000000e+00 -7.8813206532965248e-04 0.0000000000000000e+00  0.0000000000000000e+00 -7.9719081540976827e-04 0.0000000000000000e+00  0.0000000000000000e+00 -8.0185407668279007e-04 0.0000000000000000e+00  0.0000000000000000e+00 -8.0228134435631794e-04 0.0000000000000000e+00  0.0000000000000000e+00 -7.9865862489326576e-04 0.0000000000000000e+00  0.0000000000000000e+00 -7.9120341998180431e-04 0.0000000000000000e+00  0.0000000000000000e+00 -7.8015763169841479e-04 0.0000000000000000e+00  0.0000000000000000e+00 -7.6578333164687112e-04 0.0000000000000000e+00  0.0000000000000000e+00 -7.4836457278787817e-04 0.0000000000000000e+00  0.0000000000000000e+00 -7.2819991433410063e-04 0.0000000000000000e+00  0.0000000000000000e+00 -7.0560275347860898e-04 0.0000000000000000e+00  0.0000000000000000e+00 -6.8088965588721992e-04 0.0000000000000000e+00  0.0000000000000000e+00 -6.5438695144768894e-04 0.0000000000000000e+00  0.0000000000000000e+00 -6.2641889002246535e-04 0.0000000000000000e+00  0.0000000000000000e+00 -5.9730692843134529e-04 0.0000000000000000e+00  0.0000000000000000e+00 -5.6736747254464777e-04 0.0000000000000000e+00  0.0000000000000000e+00 -5.3690607290425053e-04 0.0000000000000000e+00  0.0000000000000000e+00 -5.0621681690182036e-04 0.0000000000000000e+00  0.0000000000000000e+00 -4.7558141716257612e-04 0.0000000000000000e+00  0.0000000000000000e+00 -4.4526482821288202e-04 0.0000000000000000e+00  0.0000000000000000e+00 -4.1551569794223095e-04 0.0000000000000000e+00  0.0000000000000000e+00 -3.8655599949430954e-04 0.0000000000000000e+00  0.0000000000000000e+00 -3.5860114973944529e-04 0.0000000000000000e+00  0.0000000000000000e+00 0.0000000000000000e+00 0.0000000000000000e+00  0.0000000000000000e+00 0.0000000000000000e+00 0.0000000000000000e+00  0.0000000000000000e+00 0.0000000000000000e+00 0.0000000000000000e+00  0.0000000000000000e+00 0.0000000000000000e+00 0.0000000000000000e+00  0.0000000000000000e+00 0.0000000000000000e+00 0.0000000000000000e+00  0.0000000000000000e+00 0.0000000000000000e+00 0.0000000000000000e+00  0.0000000000000000e+00 0.0000000000000000e+00 0.0000000000000000e+00  0.0000000000000000e+00 0.0000000000000000e+00 0.0000000000000000e+00  0.0000000000000000e+00 0.0000000000000000e+00 0.0000000000000000e+00  0.0000000000000000e+00 0.0000000000000000e+00 0.0000000000000000e+00  0.0000000000000000e+00 0.0000000000000000e+00 0.0000000000000000e+00  0.0000000000000000e+00 0.0000000000000000e+00 0.0000000000000000e+00  0.0000000000000000e+00 0.0000000000000000e+00 0.0000000000000000e+00  0.0000000000000000e+00 0.0000000000000000e+00 0.0000000000000000e+00  0.0000000000000000e+00 0.0000000000000000e+00 0.0000000000000000e+00  0.0000000000000000e+00 0.0000000000000000e+00 0.0000000000000000e+00  0.0000000000000000e+00 0.0000000000000000e+00 0.0000000000000000e+00  0.0000000000000000e+00 0.0000000000000000e+00 0.0000000000000000e+00  0.0000000000000000e+00 -3.5902507839771379e-04 0.0000000000000000e+00  0.0000000000000000e+00 -3.8720381017830153e-04 0.0000000000000000e+00  0.0000000000000000e+00 -4.1638999498414285e-04 0.0000000000000000e+00  0.0000000000000000e+00 -4.4635259637098928e-04 0.0000000000000000e+00  0.0000000000000000e+00 -4.7686940712320233e-04 0.0000000000000000e+00  0.0000000000000000e+00 -5.0768349208760806e-04 0.0000000000000000e+00  0.0000000000000000e+00 -5.3852486493424713e-04 0.0000000000000000e+00  0.0000000000000000e+00 -5.6910834771361520e-04 0.0000000000000000e+00  0.0000000000000000e+00 -5.9913581024224384e-04 0.0000000000000000e+00  0.0000000000000000e+00 -6.2829660291856477e-04 0.0000000000000000e+00  0.0000000000000000e+00 -6.5627468765287766e-04 0.0000000000000000e+00  0.0000000000000000e+00 -6.8274225268798031e-04 0.0000000000000000e+00  0.0000000000000000e+00 -7.0737994927773514e-04 0.0000000000000000e+00  0.0000000000000000e+00 -7.2986123341136798e-04 0.0000000000000000e+00  0.0000000000000000e+00 -7.4986868553644044e-04 0.0000000000000000e+00  0.0000000000000000e+00 -7.6709271884211206e-04 0.0000000000000000e+00  0.0000000000000000e+00 -7.8123778849216918e-04 0.0000000000000000e+00  0.0000000000000000e+00 -7.9202778917637491e-04 0.0000000000000000e+00  0.0000000000000000e+00 -7.9920228827657909e-04 0.0000000000000000e+00  0.0000000000000000e+00 -8.0252611052634526e-04 0.0000000000000000e+00  0.0000000000000000e+00 -8.0179206171467966e-04 0.0000000000000000e+00  0.0000000000000000e+00 -7.9681900671611404e-04 0.0000000000000000e+00  0.0000000000000000e+00 -7.8745429319015047e-04 0.000000000000000