<?xml version="1.0"?>
<VTKFile type="UnstructuredGrid"  version="0.1"  >
<UnstructuredGrid>
<Piece  NumberOfPoints="3167" NumberOfCells="6038">
<Points>
<DataArray  type="Float64"  NumberOfComponents="3"  format="ascii">2.2 2.9 0  0 2.9 0  2.8 2.9 0  5 2.9 0  5 0 0  0 0 0  2.16271186440678 2.9 0  2.125423728813559 2.9 0  2.088135593220339 2.9 0  2.050847457627119 2.9 0  2.013559322033898 2.9 0  1.976271186440678 2.9 0  1.938983050847457 2.9 0  1.901694915254237 2.9 0  1.864406779661016 2.9 0  1.827118644067796 2.9 0  1.789830508474575 2.9 0  1.752542372881355 2.9 0  1.715254237288134 2.9 0  1.677966101694914 2.9 0  1.640677966101693 2.9 0  1.603389830508473 2.9 0  1.566101694915253 2.9 0  1.528813559322032 2.9 0  1.491525423728812 2.9 0  1.454237288135591 2.9 0  1.416949152542371 2.9 0  1.37966101694915 2.9 0  1.34237288135593 2.9 0  1.305084745762709 2.9 0  1.267796610169489 2.9 0  1.230508474576268 2.9 0  1.193220338983048 2.9 0  1.155932203389827 2.9 0  1.118644067796607 2.9 0  1.081355932203387 2.9 0  1.044067796610166 2.9 0  1.006779661016946 2.9 0  0.9694915254237257 2.9 0  0.9322033898305055 2.9 0  0.8949152542372856 2.9 0  0.8576271186440652 2.9 0  0.820338983050845 2.9 0  0.783050847457625 2.9 0  0.7457627118644048 2.9 0  0.7084745762711844 2.9 0  0.6711864406779642 2.9 0  0.633898305084744 2.9 0  0.5966101694915238 2.9 0  0.5593220338983036 2.9 0  0.5220338983050834 2.9 0  0.4847457627118632 2.9 0  0.447457627118643 2.9 0  0.4101694915254228 2.9 0  0.3728813559322024 2.9 0  0.3355932203389822 2.9 0  0.2983050847457622 2.9 0  0.2610169491525418 2.9 0  0.2237288135593216 2.9 0  0.1864406779661016 2.9 0  0.1491525423728812 2.9 0  0.1118644067796613 2.9 0  0.07457627118644039 2.9 0  0.03728813559321997 2.9 0  2.792405063291139 2.9 0  2.784810126582279 2.9 0  2.777215189873418 2.9 0  2.769620253164557 2.9 0  2.762025316455697 2.9 0  2.754430379746836 2.9 0  2.746835443037975 2.9 0  2.739240506329114 2.9 0  2.731645569620254 2.9 0  2.724050632911393 2.9 0  2.716455696202532 2.9 0  2.708860759493671 2.9 0  2.701265822784811 2.9 0  2.69367088607595 2.9 0  2.686075949367089 2.9 0  2.678481012658228 2.9 0  2.670886075949368 2.9 0  2.663291139240507 2.9 0  2.655696202531646 2.9 0  2.648101265822786 2.9 0  2.640506329113925 2.9 0  2.632911392405064 2.9 0  2.625316455696203 2.9 0  2.617721518987342 2.9 0  2.610126582278482 2.9 0  2.602531645569621 2.9 0  2.59493670886076 2.9 0  2.587341772151899 2.9 0  2.579746835443038 2.9 0  2.572151898734178 2.9 0  2.564556962025317 2.9 0  2.556962025316456 2.9 0  2.549367088607595 2.9 0  2.541772151898734 2.9 0  2.534177215189874 2.9 0  2.526582278481013 2.9 0  2.518987341772152 2.9 0  2.511392405063292 2.9 0  2.503797468354431 2.9 0  2.49620253164557 2.9 0  2.488607594936709 2.9 0  2.481012658227848 2.9 0  2.473417721518988 2.9 0  2.465822784810127 2.9 0  2.458227848101266 2.9 0  2.450632911392406 2.9 0  2.443037974683545 2.9 0  2.435443037974684 2.9 0  2.427848101265823 2.9 0  2.420253164556962 2.9 0  2.412658227848102 2.9 0  2.405063291139241 2.9 0  2.39746835443038 2.9 0  2.389873417721519 2.9 0  2.382278481012658 2.9 0  2.374683544303798 2.9 0  2.367088607594937 2.9 0  2.359493670886076 2.9 0  2.351898734177215 2.9 0  2.344303797468355 2.9 0  2.336708860759494 2.9 0  2.329113924050633 2.9 0  2.321518987341773 2.9 0  2.313924050632912 2.9 0  2.306329113924051 2.9 0  2.29873417721519 2.9 0  2.291139240506329 2.9 0  2.283544303797469 2.9 0  2.275949367088608 2.9 0  2.268354430379747 2.9 0  2.260759493670887 2.9 0  2.253164556962026 2.9 0  2.245569620253165 2.9 0  2.237974683544304 2.9 0  2.230379746835443 2.9 0  2.222784810126583 2.9 0  2.215189873417722 2.9 0  2.207594936708861 2.9 0  4.96271186440678 2.9 0  4.925423728813559 2.9 0  4.888135593220339 2.9 0  4.850847457627118 2.9 0  4.813559322033898 2.9 0  4.776271186440677 2.9 0  4.738983050847457 2.9 0  4.701694915254237 2.9 0  4.664406779661016 2.9 0  4.627118644067796 2.9 0  4.589830508474575 2.9 0  4.552542372881355 2.9 0  4.515254237288135 2.9 0  4.477966101694914 2.9 0  4.440677966101694 2.9 0  4.403389830508473 2.9 0  4.366101694915252 2.9 0  4.328813559322032 2.9 0  4.291525423728811 2.9 0  4.254237288135591 2.9 0  4.21694915254237 2.9 0  4.17966101694915 2.9 0  4.14237288135593 2.9 0  4.105084745762709 2.9 0  4.067796610169489 2.9 0  4.030508474576268 2.9 0  3.993220338983048 2.9 0  3.955932203389827 2.9 0  3.918644067796607 2.9 0  3.881355932203387 2.9 0  3.844067796610166 2.9 0  3.806779661016946 2.9 0  3.769491525423725 2.9 0  3.732203389830505 2.9 0  3.694915254237285 2.9 0  3.657627118644065 2.9 0  3.620338983050845 2.9 0  3.583050847457625 2.9 0  3.545762711864405 2.9 0  3.508474576271184 2.9 0  3.471186440677964 2.9 0  3.433898305084744 2.9 0  3.396610169491524 2.9 0  3.359322033898303 2.9 0  3.322033898305083 2.9 0  3.284745762711863 2.9 0  3.247457627118643 2.9 0  3.210169491525423 2.9 0  3.172881355932202 2.9 0  3.135593220338982 2.9 0  3.098305084745762 2.9 0  3.061016949152542 2.9 0  3.023728813559321 2.9 0  2.986440677966101 2.9 0  2.949152542372881 2.9 0  2.911864406779661 2.9 0  2.87457627118644 2.9 0  2.83728813559322 2.9 0  5 0.1063822625082082 0  5 0.210636880010749 0  5 0.3128064053694972 0  5 0.4129325400644018 0  5 0.5110561521032336 0  5 0.6072172918830103 0  5 0.7014552087832795 0  5 0.7938083674443693 0  5 0.88431446261646 0  5 0.9730104359544682 0  5 1.059932489996267 0  5 1.145116102913299 0  5 1.228596043483191 0  5 1.310406385079062 0  5 1.390580519944147 0  5 1.469151172477827 0  5 1.546150411986101 0  5 1.621609666658609 0  5 1.695559736099044 0  5 1.76803080383987 0  5 1.839052450169751 0  5 1.908653663631169 0  5 1.97686285289587 0  5 2.043707858613779 0  5 2.109215964341413 0  5 2.173413907925942 0  5 2.236327892833935 0  5 2.297983597762904 0  5 2.35840618845912 0  5 2.41762032730194 0  5 2.475650183444628 0  5 2.532519442457069 0  5 2.588251316112828 0  5 2.642868552557322 0  5 2.696393444426347 0  5 2.748847838312051 0  5 2.800253144313381 0  5 2.850630344319807 0  0.2631578947368421 0 0  0.5263157894736842 0 0  0.7894736842105263 0 0  1.052631578947368 0 0  1.31578947368421 0 0  1.578947368421053 0 0  1.842105263157895 0 0  2.105263157894737 0 0  2.368421052631579 0 0  2.631578947368421 0 0  2.894736842105263 0 0  3.157894736842105 0 0  3.421052631578947 0 0  3.684210526315789 0 0  3.947368421052632 0 0  4.210526315789473 0 0  4.473684210526315 0 0  4.736842105263158 0 0  0 2.850203682350569 0  0 2.799411438503675 0  0 2.747603349778291 0  0 2.694759099502208 0  0 2.640857964382145 0  0 2.58587880633613 0  0 2.52980006535898 0  0 2.472599749459174 0  0 2.414255427218689 0  0 2.35474421880616 0  0 2.294042786119219 0  0 2.232127324764723 0  0 2.1689735539481 0  0 2.104556707683347 0  0 2.038851524813415 0  0 1.971832238155655 0  0 1.903472565412126 0  0 1.83374569926617 0  0 1.762624296208475 0  0 1.690080464918761 0  0 1.616085756774206 0  0 1.540611154706337 0  0 1.463627060685571 0  0 1.385103284916206 0  0 1.305009033716617 0  0 1.223312897337225 0  0 1.139982838163732 0  0 1.054986177579938 0  0 0.9682895835804817 0  0 0.8798590579197976 0  0 0.7896599218415354 0  0 0.6976568029903638 0  0 0.6038136217958798 0  0 0.508093576867624 0  0 0.4104591310957497 0  0 0.3108719963522191 0  0 0.2092931188294389 0  0 0.1056826638508546 0  1.434832105763824 2.866945754981483 0  1.737156300467626 2.870039440267515 0  2.032203389830508 2.867707527316512 0  2.332911392405064 2.893422591869991 0  2.469810913293406 2.891944186606167 0  2.606221408823969 2.892519154985628 0  2.255455320628894 2.892068685006691 0  2.538247299216212 2.894964578182811 0  2.674683544303798 2.893422591869991 0  2.40126582278481 2.893422591869991 0  3.566125247295424 2.865029336199714 0  3.266101694915253 2.867707527316512 0  2.967796610169491 2.867707527316512 0  1.174288529834642 2.870795313888584 0  3.825423728813556 2.867707527316512 0  2.727766680262011 2.892655387647729 0  0.06601655192030442 1.502119107695954 0  4.933983535508361 1.507650792231964 0  0.9532124728485543 2.868722489783638 0  4.048935912500257 2.870640982995992 0  0.05930163367361763 1.866907161167414 0  4.943402512618553 1.871280731473148 0  4.271733870017743 2.86520865624265 0  0.7249420921613114 2.863922936177041 0  0.05494499779910056 2.196469063120752 0  4.947228695426367 2.208030108792719 0  0.5406152150397161 2.866493807382013 0  4.459322033898304 2.868847558178794 0  2.18135593220339 2.875780645487384 0  2.817027156509632 2.876587550645167 0  4.928427208322876 1.186856073198245 0  0.07189226971603224 1.174626666111662 0  4.610299014423113 2.867003104093161 0  0.3897270066746357 2.869433095314657 0  1.581132500042262 2.868247328632392 0  1.887637879411437 2.869235851794358 0  3.413449426418068 2.867372048034327 0  3.116721298814773 2.865731235547652 0  2.644303797468355 2.893422591869991 0  2.370983221828106 2.892719513369796 0  2.302531645569621 2.893336787387268 0  2.758987341772152 2.894242393897099 0  0.04979653335696277 2.443411216910286 0  4.950470983477169 2.446866954595817 0  2.482937483021586 0.2513241087417575 0  1.707129504814338 0.1999998659920923 0  3.28584657955054 0.229200625631625 0  4.907807122600524 0.834082362900164 0  4.757627118644067 2.867707527316512 0  0.0773489124676745 0.8347594898806663 0  0.2390604736599387 2.861365431805741 0  0.8363213715215729 2.863896768908178 0  4.160865610207075 2.868916854015731 0  1.282549332053297 2.867610952980761 0  1.065094818402487 2.861284686038041 0  3.93818127737282 2.86865134411395 0  3.711492629432973 2.863574306925269 0  4.91369361998929 0.5579891344254361 0  0.08208328472281323 0.5559535993317519 0  2.696596932532885 2.892010483922337 0  0.04706410140274553 2.613055974506516 0  4.955577063972248 2.616518038840186 0  2.234177215189874 2.893422591869991 0  2.279795840559739 2.89403861893984 0  0.9117357887652362 0.2117925286661764 0  4.055948041993057 0.2039101057937727 0  4.872119713780579 2.867632926423075 0  2.780113878992455 2.891535929611743 0  0.1327442468251063 2.85
[...]
<PointData  Vectors="displacement"> 
<DataArray  type="Float64"  Name="displacement"  NumberOfComponents="3" format="ascii">1.9529586541650915e-03 -1.0219583253979614e-02 0.0000000000000000e+00  0.0000000000000000e+00 -4.2079879303131255e-04 0.0000000000000000e+00  -1.9556403347398468e-03 -1.0220002373689913e-02 0.0000000000000000e+00  0.0000000000000000e+00 -4.2079929584833077e-04 0.0000000000000000e+00  0.0000000000000000e+00 0.0000000000000000e+00 0.0000000000000000e+00  0.0000000000000000e+00 0.0000000000000000e+00 0.0000000000000000e+00  1.9357802536515423e-03 -9.0445169166911265e-03 0.0000000000000000e+00  1.8969800629563152e-03 -8.2690812515924528e-03 0.0000000000000000e+00  1.8587084687325731e-03 -7.6450837677755987e-03 0.0000000000000000e+00  1.8206543721160260e-03 -7.1129620909154727e-03 0.0000000000000000e+00  1.7826518548122391e-03 -6.6461105124065271e-03 0.0000000000000000e+00  1.7447288750945850e-03 -6.2291744064442035e-03 0.0000000000000000e+00  1.7069250593859623e-03 -5.8521106160583976e-03 0.0000000000000000e+00  1.6692487500726974e-03 -5.5079168169748635e-03 0.0000000000000000e+00  1.6317384570423712e-03 -5.1913880232550627e-03 0.0000000000000000e+00  1.5943804695443802e-03 -4.8986424873417068e-03 0.0000000000000000e+00  1.5571861855977812e-03 -4.6266625594681560e-03 0.0000000000000000e+00  1.5201641255508382e-03 -4.3729826300236445e-03 0.0000000000000000e+00  1.4833285917400703e-03 -4.1355823000232671e-03 0.0000000000000000e+00  1.4466791102782277e-03 -3.9128121711142581e-03 0.0000000000000000e+00  1.4102241141126027e-03 -3.7032918435163297e-03 0.0000000000000000e+00  1.3739678978588611e-03 -3.5058404874481245e-03 0.0000000000000000e+00  1.3379181323809419e-03 -3.3194475568854168e-03 0.0000000000000000e+00  1.3020708701760640e-03 -3.1432371598841121e-03 0.0000000000000000e+00  1.2664365281441577e-03 -2.9764424364967122e-03 0.0000000000000000e+00  1.2310175196190937e-03 -2.8183958673353806e-03 0.0000000000000000e+00  1.1958168876814211e-03 -2.6685084962791181e-03 0.0000000000000000e+00  1.1608358522976515e-03 -2.5262576933414520e-03 0.0000000000000000e+00  1.1260783329693879e-03 -2.3911689992059792e-03 0.0000000000000000e+00  1.0915416635207656e-03 -2.2628256866026606e-03 0.0000000000000000e+00  1.0572296575473081e-03 -2.1408539292450150e-03 0.0000000000000000e+00  1.0231432810461662e-03 -2.0249095951981946e-03 0.0000000000000000e+00  9.8928169935109012e-04 -1.9146795063571737e-03 0.0000000000000000e+00  9.5564150439679714e-04 -1.8098874512550904e-03 0.0000000000000000e+00  9.2222871726840448e-04 -1.7102760987113099e-03 0.0000000000000000e+00  8.8903194429771314e-04 -1.6156049113533206e-03 0.0000000000000000e+00  8.5605690671403372e-04 -1.5256622188916460e-03 0.0000000000000000e+00  8.2329936723515439e-04 -1.4402526250397851e-03 0.0000000000000000e+00  7.9075342569479804e-04 -1.3591969022870433e-03 0.0000000000000000e+00  7.5841835290123988e-04 -1.2823204562790397e-03 0.0000000000000000e+00  7.2628897039441680e-04 -1.2094741367653340e-03 0.0000000000000000e+00  6.9436199954964596e-04 -1.1405136256187978e-03 0.0000000000000000e+00  6.6263142243341876e-04 -1.0753062693452619e-03 0.0000000000000000e+00  6.3109274271996559e-04 -1.0137329270395580e-03 0.0000000000000000e+00  5.9974022339724967e-04 -9.5567941012720235e-04 0.0000000000000000e+00  5.6856756391143227e-04 -9.0104206068041361e-04 0.0000000000000000e+00  5.3756845131339777e-04 -8.4972490644230029e-04 0.0000000000000000e+00  5.0673622183445102e-04 -8.0163906184278983e-04 0.0000000000000000e+00  4.7606305986026457e-04 -7.5670216283492799e-04 0.0000000000000000e+00  4.4554207219120109e-04 -7.1483947485690704e-04 0.0000000000000000e+00  4.1516509685800989e-04 -6.7598085570739195e-04 0.0000000000000000e+00  3.8492412179092216e-04 -6.4006302144545984e-04 0.0000000000000000e+00  3.5481061942597021e-04 -6.0702761388184380e-04 0.0000000000000000e+00  3.2481591833592716e-04 -5.7682188679017616e-04 0.0000000000000000e+00  2.9493091314610880e-04 -5.4939749274543438e-04 0.0000000000000000e+00  2.6514630622510003e-04 -5.2471145749128322e-04 0.0000000000000000e+00  2.3545358585008106e-04 -5.0272539818688883e-04 0.0000000000000000e+00  2.0584130465681744e-04 -4.8340431327357499e-04 0.0000000000000000e+00  1.7630092162292124e-04 -4.6671860366596549e-04 0.0000000000000000e+00  1.4682247040815827e-04 -4.5264323185525025e-04 0.0000000000000000e+00  1.1739636628955987e-04 -4.4115621605154097e-04 0.0000000000000000e+00  8.8010460786364081e-05 -4.3223971756534743e-04 0.0000000000000000e+00  5.8656143495637873e-05 -4.2588039063565382e-04 0.0000000000000000e+00  2.9322749784880441e-05 -4.2206868728718306e-04 0.0000000000000000e+00  -1.9278822824920208e-03 -1.0577442493313561e-02 0.0000000000000000e+00  -1.8760045995954205e-03 -1.0835151080017794e-02 0.0000000000000000e+00  -1.8252581014910703e-03 -1.1055337057790408e-02 0.0000000000000000e+00  -1.7747593521478787e-03 -1.1252070898794554e-02 0.0000000000000000e+00  -1.7246134806416626e-03 -1.1431576370559216e-02 0.0000000000000000e+00  -1.6745131267582034e-03 -1.1597201220390138e-02 0.0000000000000000e+00  -1.6244469717920059e-03 -1.1751202615553815e-02 0.0000000000000000e+00  -1.5744026401194715e-03 -1.1895087512153717e-02 0.0000000000000000e+00  -1.5243593347236686e-03 -1.2030006422246865e-02 0.0000000000000000e+00  -1.4743332800188150e-03 -1.2156867244741543e-02 0.0000000000000000e+00  -1.4243206591418437e-03 -1.2276380254909545e-02 0.0000000000000000e+00  -1.3743116838001149e-03 -1.2389119347948103e-02 0.0000000000000000e+00  -1.3243079949268584e-03 -1.2495568177083508e-02 0.0000000000000000e+00  -1.2743097914333504e-03 -1.2596122369895994e-02 0.0000000000000000e+00  -1.2243109255260266e-03 -1.2691117258320244e-02 0.0000000000000000e+00  -1.1743185994184803e-03 -1.2780855644635101e-02 0.0000000000000000e+00  -1.1243290653276576e-03 -1.2865588045864939e-02 0.0000000000000000e+00  -1.0743426245329018e-03 -1.2945534026063599e-02 0.0000000000000000e+00  -1.0243586586634323e-03 -1.3020888749736654e-02 0.0000000000000000e+00  -9.7437672637541901e-04 -1.3091823024192283e-02 0.0000000000000000e+00  -9.2439686600284698e-04 -1.3158488784305606e-02 0.0000000000000000e+00  -8.7441900559294362e-04 -1.3221021186287960e-02 0.0000000000000000e+00  -8.2444273405414721e-04 -1.3279539884770566e-02 0.0000000000000000e+00  -7.7446830110214110e-04 -1.3334152893807452e-02 0.0000000000000000e+00  -7.2449540379692224e-04 -1.3384956631515508e-02 0.0000000000000000e+00  -6.7452388460809815e-04 -1.3432036237056223e-02 0.0000000000000000e+00  -6.2455432071612709e-04 -1.3475468750503769e-02 0.0000000000000000e+00  -5.7458509192087419e-04 -1.3515322001618313e-02 0.0000000000000000e+00  -5.2461717265111065e-04 -1.3551657952439801e-02 0.0000000000000000e+00  -4.7465047300862729e-04 -1.3584530545767306e-02 0.0000000000000000e+00  -4.2468475537834824e-04 -1.3613987773821853e-02 0.0000000000000000e+00  -3.7471968848528221e-04 -1.3640071334187678e-02 0.0000000000000000e+00  -3.2475531850320350e-04 -1.3662817886915620e-02 0.0000000000000000e+00  -2.7479174964207745e-04 -1.3682258790685523e-02 0.0000000000000000e+00  -2.2482826694576288e-04 -1.3698419669443877e-02 0.0000000000000000e+00  -1.7486608783033681e-04 -1.3711323244182212e-02 0.0000000000000000e+00  -1.2490339985472948e-04 -1.3720986157228268e-02 0.0000000000000000e+00  -7.4941121901489702e-05 -1.3727420868130275e-02 0.0000000000000000e+00  -2.4979165523584574e-05 -1.3730636163906833e-02 0.0000000000000000e+00  2.4982795820590602e-05 -1.3730636102036739e-02 0.0000000000000000e+00  7.4944802358254008e-05 -1.3727420661473169e-02 0.0000000000000000e+00  1.2490695749802245e-04 -1.3720985692735225e-02 0.0000000000000000e+00  1.7486936034998972e-04 -1.3711322882318288e-02 0.0000000000000000e+00  2.2483198405224726e-04 -1.3698419251596551e-02 0.0000000000000000e+00  2.7479520213016578e-04 -1.3682257667096083e-02 0.0000000000000000e+00  3.2475882903373269e-04 -1.3662816954712770e-02 0.0000000000000000e+00  3.7472312588002248e-04 -1.3640070436685661e-02 0.0000000000000000e+00  4.2468812095426001e-04 -1.3613986756005891e-02 0.0000000000000000e+00  4.7465408607939602e-04 -1.3584529579146925e-02 0.0000000000000000e+00  5.2462079919463739e-04 -1.3551656685926224e-02 0.0000000000000000e+00  5.7458859941517885e-04 -1.3515320759254313e-02 0.0000000000000000e+00  6.2455791519233747e-04 -1.3475467091465455e-02 0.0000000000000000e+00  6.7452783598702577e-04 -1.3432034530301222e-02 0.0000000000000000e+00  7.2449935357253429e-04 -1.3384955277876748e-02 0.0000000000000000e+00  7.7447231863716885e-04 -1.3334151976472841e-02 0.0000000000000000e+00  8.2444689204811241e-04 -1.3279538880837764e-02 0.0000000000000000e+00  8.7442292011718820e-04 -1.3221019806030014e-02 0.0000000000000000e+00  9.2440166947542620e-04 -1.3158487972000756e-02 0.0000000000000000e+00  9.7438239380404177e-04 -1.3091820647748796e-02 0.0000000000000000e+00  1.0243648374346592e-03 -1.3020886353910540e-02 0.0000000000000000e+00  1.0743494276906377e-03 -1.2945531435279940e-02 0.0000000000000000e+00  1.1243367828630382e-03 -1.2865584879150975e-02 0.0000000000000000e+00  1.1743269494569704e-03 -1.2780852391717928e-02 0.0000000000000000e+00  1.2243204682263501e-03 -1.2691112571675753e-02 0.0000000000000000e+00  1.2743175348817069e-03 -1.2596113003431284e-02 0.0000000000000000e+00  1.3243195201660687e-03 -1.2495559784880398e-02 0.0000000000000000e+00  1.3743242796339630e-03 -1.2389111578352723e-02 0.0000000000000000e+00  1.4243344179982690e-03 -1.2276367510561012e-02 0.0000000000000000e+00  1.4743542807255817e-03 -1.2156859440562166e-02 0.0000000000000000e+00  1.5243771489757050e-03 -1.2029995952614218e-02 0.0000000000000000e+00  1.5744084217822981e-03 -1.1895063444997807e-02 0.0000000000000000e+00  1.6244603767382665e-03 -1.1751182001055360e-02 0.0000000000000000e+00  1.6745425336729854e-03 -1.1597213505816868e-02 0.0000000000000000e+00  1.7246349219518751e-03 -1.1431543742331874e-02 0.0000000000000000e+00  1.7747561279961408e-03 -1.1251990622795860e-02 0.0000000000000000e+00  1.8248431815116523e-03 -1.1055317230072904e-02 0.0000000000000000e+00  1.8763362710462229e-03 -1.0835881072160800e-02 0.0000000000000000e+00  1.9276083025764699e-03 -1.0576626442372962e-02 0.0000000000000000e+00  -2.9322979334821207e-05 -4.2206908462135714e-04 0.0000000000000000e+00  -5.8656375441015884e-05 -4.2588084085165654e-04 0.0000000000000000e+00  -8.8010513012833148e-05 -4.3224002779752255e-04 0.0000000000000000e+00  -1.1739583511802983e-04 -4.4115646373844603e-04 0.0000000000000000e+00  -1.4682252198774078e-04 -4.5264351486281685e-04 0.0000000000000000e+00  -1.7630139003256583e-04 -4.6671932342660455e-04 0.0000000000000000e+00  -2.0584125902823314e-04 -4.8340454234512714e-04 0.0000000000000000e+00  -2.3545315388815623e-04 -5.0272543838145948e-04 0.0000000000000000e+00  -2.6514643827710597e-04 -5.2471177512929210e-04 0.0000000000000000e+00  -2.9493097740032978e-04 -5.4939795530355661e-04 0.0000000000000000e+00  -3.2481592706366113e-04 -5.7682234749505948e-04 0.0000000000000000e+00  -3.5481076440445727e-04 -6.0702823982663838e-04 0.0000000000000000e+00  -3.8492421842314966e-04 -6.4006362987265128e-04 0.0000000000000000e+00  -4.1516511985725390e-04 -6.7598146885192720e-04 0.0000000000000000e+00  -4.4554199576591345e-04 -7.1483994924753625e-04 0.0000000000000000e+00  -4.7606296256995899e-04 -7.5670273851060775e-04 0.0000000000000000e+00  -5.0673594450948768e-04 -8.0163919874542120e-04 0.0000000000000000e+00  -5.3756850487393485e-04 -8.4972552151072974e-04 0.0000000000000000e+00  -5.6856738481488955e-04 -9.0104285543140790e-04 0.0000000000000000e+00  -5.9974009881253408e-04 -9.5568058815433273e-04 0.0000000000000000e+00  -6.3109359665044953e-04 -1.0137345633291545e-03 0.0000000000000000e+00  -6.6263105878201333e-04 -1.0753071838979229e-03 0.0000000000000000e+00  -6.9436163347284449e-04 -1.1405135649769848e-03 0.0000000000000000e+00  -7.2628881896125803e-04 -1.2094745104828065e-03 0.0000000000000000e+00  -7.5841783608959702e-04 -1.2823214409463709e-03 0.0000000000000000e+00  -7.9075292997421432e-04 -1.3591967657730819e-03 0.0000000000000000e+00  -8.2329816125268425e-04 -1.4402549922380118e-03 0.0000000000000000e+00  -8.5605675207510771e-04 -1.5256634903417286e-03 0.0000000000000000e+00  -8.8903223703821468e-04 -1.6156041607030905e-03 0.0000000000000000e+00  -9.2222679831367477e-04 -1.7102736974620679e-03 0.0000000000000000e+00  -9.5564223022930202e-04 -1.8098875216722074e-03 0.0000000000000000e+00  -9.8927979214865507e-04 -1.9146795552075042e-03 0.0000000000000000e+00  -1.0231466283786225e-03 -2.0249089734645882e-03 0.0000000000000000e+00  -1.0572292022873700e-03 -2.1408548745259224e-03 0.0000000000000000e+00  -1.0915412202685138e-03 -2.2628292005760402e-03 0.0000000000000000e+00  -1.1260772027194017e-03 -2.3911701754412433e-03 0.0000000000000000e+00  -1.1608370300119277e-03 -2.5262561651994259e-03 0.0000000000000000e+00  -1.1958167836041821e-03 -2.6685082212011958e-03 0.0000000000000000e+00  -1.2310169028409139e-03 -2.8183953032327224e-03 0.0000000000000000e+00  -1.2664353984835068e-03 -2.9764408024678668e-03 0.0000000000000000e+00  -1.3020699605126615e-03 -3.1432351281765604e-03 0.0000000000000000e+00  -1.3379148158612151e-03 -3.3194496629114271e-03 0.0000000000000000e+00  -1.3739703721253234e-03 -3.5058452433853748e-03 0.0000000000000000e+00  -1.4102280973959291e-03 -3.7032948288591291e-03 0.0000000000000000e+00  -1.4466803090141345e-03 -3.9128102132490340e-03 0.0000000000000000e+00  -1.4833240669830795e-03 -4.1355774167603577e-03 0.0000000000000000e+00  -1.5201610397062334e-03 -4.3729778984436920e-03 0.0000000000000000e+00  -1.5571820197194744e-03 -4.6266737108078704e-03 0.0000000000000000e+00  -1.5943770103726998e-03 -4.8986613654959073e-03 0.0000000000000000e+00  -1.6317438677960028e-03 -5.1913734746199414e-03 0.0000000000000000e+00  -1.6692528316539076e-03 -5.5079207121642871e-03 0.0000000000000000e+00  -1.7069410478575372e-03 -5.8520920918849447e-03 0.0000000000000000e+00  -1.7447281779711444e-03 -6.2291845899767355e-03 0.0000000000000000e+00  -1.7826204087517498e-03 -6.6461502668089629e-03 0.0000000000000000e+00  -1.8206213848073985e-03 -7.1129601165564361e-03 0.0000000000000000e+00  -1.8588893149280919e-03 -7.6450551658477951e-03 0.0000000000000000e+00  -1.8964957801586276e-03 -8.2693776257366947e-03 0.0000000000000000e+00  -1.9361494398604507e-03 -9.0439748350624408e-03 0.0000000000000000e+00  0.0000000000000000e+00 -8.1665133475501483e-05 0.0000000000000000e+00  0.0000000000000000e+00 -1.5254972383167451e-04 0.0000000000000000e+00  0.0000000000000000e+00 -2.1397311434133309e-04 0.0000000000000000e+00  0.0000000000000000e+00 -2.6705916963161826e-04 0.0000000000000000e+00  0.0000000000000000e+00 -3.1266194747283781e-04 0.0000000000000000e+00  0.0000000000000000e+00 -3.5148427464744275e-04 0.0000000000000000e+00  0.0000000000000000e+00 -3.8411432660617371e-04 0.0000000000000000e+00  0.0000000000000000e+00 -4.1105554445954148e-04 0.0000000000000000e+00  0.0000000000000000e+00 -4.3270783950942059e-04 0.0000000000000000e+00  0.0000000000000000e+00 -4.4951058174376104e-04 0.0000000000000000e+00  0.0000000000000000e+00 -4.6181846318858662e-04 0.0000000000000000e+00  0.0000000000000000e+00 -4.6999997666636348e-04 0.0000000000000000e+00  0.0000000000000000e+00 -4.7443141317477097e-04 0.0000000000000000e+00  0.0000000000000000e+00 -4.7548437902361537e-04 0.0000000000000000e+00  0.0000000000000000e+00 -4.7354036335954921e-04 0.0000000000000000e+00  0.0000000000000000e+00 -4.6899181256689364e-04 0.0000000000000000e+00  0.0000000000000000e+00 -4.6224486294802272e-04 0.0000000000000000e+00  0.0000000000000000e+00 -4.5370482314975759e-04 0.0000000000000000e+00  0.0000000000000000e+00 -4.4378098932686588e-04 0.0000000000000000e+00  0.0000000000000000e+00 -4.3288162464610180e-04 0.0000000000000000e+00  0.0000000000000000e+00 -4.2140858842831450e-04 0.0000000000000000e+00  0.0000000000000000e+00 -4.0974883933240781e-04 0.0000000000000000e+00  0.0000000000000000e+00 -3.9827617573193414e-04 0.0000000000000000e+00  0.0000000000000000e+00 -3.8733100831452857e-04 0.0000000000000000e+00  0.0000000000000000e+00 -3.7723843404594693e-04 0.0000000000000000e+00  0.0000000000000000e+00 -3.6829165636148321e-04 0.0000000000000000e+00  0.0000000000000000e+00 -3.6073751929884538e-04 0.0000000000000000e+00  0.0000000000000000e+00 -3.5479964605275978e-04 0.0000000000000000e+00  0.0000000000000000e+00 -3.5065617308998681e-04 0.0000000000000000e+00  0.0000000000000000e+00 -3.4844703947364684e-04 0.0000000000000000e+00  0.0000000000000000e+00 -3.4827419588360532e-04 0.0000000000000000e+00  0.0000000000000000e+00 -3.5020008276568200e-04 0.0000000000000000e+00  0.0000000000000000e+00 -3.5425149097251593e-04 0.0000000000000000e+00  0.0000000000000000e+00 -3.6042194588205051e-04 0.0000000000000000e+00  0.0000000000000000e+00 -3.6867295676850037e-04 0.0000000000000000e+00  0.0000000000000000e+00 -3.7893773538539357e-04 0.0000000000000000e+00  0.0000000000000000e+00 -3.9112465393394044e-04 0.0000000000000000e+00  0.0000000000000000e+00 -4.0512176330424597e-04 0.0000000000000000e+00  0.0000000000000000e+00 0.0000000000000000e+00 0.0000000000000000e+00  0.0000000000000000e+00 0.0000000000000000e+00 0.0000000000000000e+00  0.0000000000000000e+00 0.0000000000000000e+00 0.0000000000000000e+00  0.0000000000000000e+00 0.0000000000000000e+00 0.0000000000000000e+00  0.0000000000000000e+00 0.0000000000000000e+00 0.0000000000000000e+00  0.0000000000000000e+00 0.0000000000000000e+00 0.0000000000000000e+00  0.0000000000000000e+00 0.0000000000000000e+00 0.0000000000000000e+00  0.0000000000000000e+00 0.0000000000000000e+00 0.0000000000000000e+00  0.0000000000000000e+00 0.0000000000000000e+00 0.0000000000000000e+00  0.0000000000000000e+00 0.0000000000000000e+00 0.0000000000000000e+00  0.0000000000000000e+00 0.0000000000000000e+00 0.0000000000000000e+00  0.0000000000000000e+00 0.0000000000000000e+00 0.0000000000000000e+00  0.0000000000000000e+00 0.0000000000000000e+00 0.0000000000000000e+00  0.0000000000000000e+00 0.0000000000000000e+00 0.0000000000000000e+00  0.0000000000000000e+00 0.0000000000000000e+00 0.0000000000000000e+00  0.0000000000000000e+00 0.0000000000000000e+00 0.0000000000000000e+00  0.0000000000000000e+00 0.0000000000000000e+00 0.0000000000000000e+00  0.0000000000000000e+00 0.0000000000000000e+00 0.0000000000000000e+00  0.0000000000000000e+00 -4.0499438893063292e-04 0.0000000000000000e+00  0.0000000000000000e+00 -3.9090770454286157e-04 0.0000000000000000e+00  0.0000000000000000e+00 -3.7866855038204639e-04 0.0000000000000000e+00  0.0000000000000000e+00 -3.6838752823195684e-04 0.0000000000000000e+00  0.0000000000000000e+00 -3.6015462760010026e-04 0.0000000000000000e+00  0.0000000000000000e+00 -3.5403323355586293e-04 0.0000000000000000e+00  0.0000000000000000e+00 -3.5005763064403984e-04 0.0000000000000000e+00  0.0000000000000000e+00 -3.4823028486592744e-04 0.0000000000000000e+00  0.0000000000000000e+00 -3.4851933095770145e-04 0.0000000000000000e+00  0.0000000000000000e+00 -3.5085474976609524e-04 0.0000000000000000e+00  0.0000000000000000e+00 -3.5513142092607992e-04 0.0000000000000000e+00  0.0000000000000000e+00 -3.6119619720616404e-04 0.0000000000000000e+00  0.0000000000000000e+00 -3.6887146429798840e-04 0.0000000000000000e+00  0.0000000000000000e+00 -3.7792850264176076e-04 0.0000000000000000e+00  0.0000000000000000e+00 -3.8810931422156102e-04 0.0000000000000000e+00  0.0000000000000000e+00 -3.9911447403184985e-04 0.0000000000000000e+00  0.0000000000000000e+00 -4.1062173483730555e-04 0.0000000000000000e+00  0.0000000000000000e+00 -4.2228584272555590e-04 0.0000000000000000e+00  0.0000000000000000e+00 -4.3372842992615553e-04 0.0000000000000000e+00  0.0000000000000000e+00 -4.4456235418400170e-04 0.0000000000000000e+00  0.0000000000000000e+00 -4.5438825409084788e-04 0.0000000000000000e+00  0.0000000000000000e+00 -4.6280080458759439e-04 0.0000000000000000e+00  0.0000000000000000e+00 -4.6939314252798309e-04 0.00000000000