<?xml version="1.0"?>
<VTKFile type="UnstructuredGrid"  version="0.1"  >
<UnstructuredGrid>
<Piece  NumberOfPoints="3167" NumberOfCells="6038">
<Points>
<DataArray  type="Float64"  NumberOfComponents="3"  format="ascii">2.2 2.9 0  0 2.9 0  2.8 2.9 0  5 2.9 0  5 0 0  0 0 0  2.16271186440678 2.9 0  2.125423728813559 2.9 0  2.088135593220339 2.9 0  2.050847457627119 2.9 0  2.013559322033898 2.9 0  1.976271186440678 2.9 0  1.938983050847457 2.9 0  1.901694915254237 2.9 0  1.864406779661016 2.9 0  1.827118644067796 2.9 0  1.789830508474575 2.9 0  1.752542372881355 2.9 0  1.715254237288134 2.9 0  1.677966101694914 2.9 0  1.640677966101693 2.9 0  1.603389830508473 2.9 0  1.566101694915253 2.9 0  1.528813559322032 2.9 0  1.491525423728812 2.9 0  1.454237288135591 2.9 0  1.416949152542371 2.9 0  1.37966101694915 2.9 0  1.34237288135593 2.9 0  1.305084745762709 2.9 0  1.267796610169489 2.9 0  1.230508474576268 2.9 0  1.193220338983048 2.9 0  1.155932203389827 2.9 0  1.118644067796607 2.9 0  1.081355932203387 2.9 0  1.044067796610166 2.9 0  1.006779661016946 2.9 0  0.9694915254237257 2.9 0  0.9322033898305055 2.9 0  0.8949152542372856 2.9 0  0.8576271186440652 2.9 0  0.820338983050845 2.9 0  0.783050847457625 2.9 0  0.7457627118644048 2.9 0  0.7084745762711844 2.9 0  0.6711864406779642 2.9 0  0.633898305084744 2.9 0  0.5966101694915238 2.9 0  0.5593220338983036 2.9 0  0.5220338983050834 2.9 0  0.4847457627118632 2.9 0  0.447457627118643 2.9 0  0.4101694915254228 2.9 0  0.3728813559322024 2.9 0  0.3355932203389822 2.9 0  0.2983050847457622 2.9 0  0.2610169491525418 2.9 0  0.2237288135593216 2.9 0  0.1864406779661016 2.9 0  0.1491525423728812 2.9 0  0.1118644067796613 2.9 0  0.07457627118644039 2.9 0  0.03728813559321997 2.9 0  2.792405063291139 2.9 0  2.784810126582279 2.9 0  2.777215189873418 2.9 0  2.769620253164557 2.9 0  2.762025316455697 2.9 0  2.754430379746836 2.9 0  2.746835443037975 2.9 0  2.739240506329114 2.9 0  2.731645569620254 2.9 0  2.724050632911393 2.9 0  2.716455696202532 2.9 0  2.708860759493671 2.9 0  2.701265822784811 2.9 0  2.69367088607595 2.9 0  2.686075949367089 2.9 0  2.678481012658228 2.9 0  2.670886075949368 2.9 0  2.663291139240507 2.9 0  2.655696202531646 2.9 0  2.648101265822786 2.9 0  2.640506329113925 2.9 0  2.632911392405064 2.9 0  2.625316455696203 2.9 0  2.617721518987342 2.9 0  2.610126582278482 2.9 0  2.602531645569621 2.9 0  2.59493670886076 2.9 0  2.587341772151899 2.9 0  2.579746835443038 2.9 0  2.572151898734178 2.9 0  2.564556962025317 2.9 0  2.556962025316456 2.9 0  2.549367088607595 2.9 0  2.541772151898734 2.9 0  2.534177215189874 2.9 0  2.526582278481013 2.9 0  2.518987341772152 2.9 0  2.511392405063292 2.9 0  2.503797468354431 2.9 0  2.49620253164557 2.9 0  2.488607594936709 2.9 0  2.481012658227848 2.9 0  2.473417721518988 2.9 0  2.465822784810127 2.9 0  2.458227848101266 2.9 0  2.450632911392406 2.9 0  2.443037974683545 2.9 0  2.435443037974684 2.9 0  2.427848101265823 2.9 0  2.420253164556962 2.9 0  2.412658227848102 2.9 0  2.405063291139241 2.9 0  2.39746835443038 2.9 0  2.389873417721519 2.9 0  2.382278481012658 2.9 0  2.374683544303798 2.9 0  2.367088607594937 2.9 0  2.359493670886076 2.9 0  2.351898734177215 2.9 0  2.344303797468355 2.9 0  2.336708860759494 2.9 0  2.329113924050633 2.9 0  2.321518987341773 2.9 0  2.313924050632912 2.9 0  2.306329113924051 2.9 0  2.29873417721519 2.9 0  2.291139240506329 2.9 0  2.283544303797469 2.9 0  2.275949367088608 2.9 0  2.268354430379747 2.9 0  2.260759493670887 2.9 0  2.253164556962026 2.9 0  2.245569620253165 2.9 0  2.237974683544304 2.9 0  2.230379746835443 2.9 0  2.222784810126583 2.9 0  2.215189873417722 2.9 0  2.207594936708861 2.9 0  4.96271186440678 2.9 0  4.925423728813559 2.9 0  4.888135593220339 2.9 0  4.850847457627118 2.9 0  4.813559322033898 2.9 0  4.776271186440677 2.9 0  4.738983050847457 2.9 0  4.701694915254237 2.9 0  4.664406779661016 2.9 0  4.627118644067796 2.9 0  4.589830508474575 2.9 0  4.552542372881355 2.9 0  4.515254237288135 2.9 0  4.477966101694914 2.9 0  4.440677966101694 2.9 0  4.403389830508473 2.9 0  4.366101694915252 2.9 0  4.328813559322032 2.9 0  4.291525423728811 2.9 0  4.254237288135591 2.9 0  4.21694915254237 2.9 0  4.17966101694915 2.9 0  4.14237288135593 2.9 0  4.105084745762709 2.9 0  4.067796610169489 2.9 0  4.030508474576268 2.9 0  3.993220338983048 2.9 0  3.955932203389827 2.9 0  3.918644067796607 2.9 0  3.881355932203387 2.9 0  3.844067796610166 2.9 0  3.806779661016946 2.9 0  3.769491525423725 2.9 0  3.732203389830505 2.9 0  3.694915254237285 2.9 0  3.657627118644065 2.9 0  3.620338983050845 2.9 0  3.583050847457625 2.9 0  3.545762711864405 2.9 0  3.508474576271184 2.9 0  3.471186440677964 2.9 0  3.433898305084744 2.9 0  3.396610169491524 2.9 0  3.359322033898303 2.9 0  3.322033898305083 2.9 0  3.284745762711863 2.9 0  3.247457627118643 2.9 0  3.210169491525423 2.9 0  3.172881355932202 2.9 0  3.135593220338982 2.9 0  3.098305084745762 2.9 0  3.061016949152542 2.9 0  3.023728813559321 2.9 0  2.986440677966101 2.9 0  2.949152542372881 2.9 0  2.911864406779661 2.9 0  2.87457627118644 2.9 0  2.83728813559322 2.9 0  5 0.1063822625082082 0  5 0.210636880010749 0  5 0.3128064053694972 0  5 0.4129325400644018 0  5 0.5110561521032336 0  5 0.6072172918830103 0  5 0.7014552087832795 0  5 0.7938083674443693 0  5 0.88431446261646 0  5 0.9730104359544682 0  5 1.059932489996267 0  5 1.145116102913299 0  5 1.228596043483191 0  5 1.310406385079062 0  5 1.390580519944147 0  5 1.469151172477827 0  5 1.546150411986101 0  5 1.621609666658609 0  5 1.695559736099044 0  5 1.76803080383987 0  5 1.839052450169751 0  5 1.908653663631169 0  5 1.97686285289587 0  5 2.043707858613779 0  5 2.109215964341413 0  5 2.173413907925942 0  5 2.236327892833935 0  5 2.297983597762904 0  5 2.35840618845912 0  5 2.41762032730194 0  5 2.475650183444628 0  5 2.532519442457069 0  5 2.588251316112828 0  5 2.642868552557322 0  5 2.696393444426347 0  5 2.748847838312051 0  5 2.800253144313381 0  5 2.850630344319807 0  0.2631578947368421 0 0  0.5263157894736842 0 0  0.7894736842105263 0 0  1.052631578947368 0 0  1.31578947368421 0 0  1.578947368421053 0 0  1.842105263157895 0 0  2.105263157894737 0 0  2.368421052631579 0 0  2.631578947368421 0 0  2.894736842105263 0 0  3.157894736842105 0 0  3.421052631578947 0 0  3.684210526315789 0 0  3.947368421052632 0 0  4.210526315789473 0 0  4.473684210526315 0 0  4.736842105263158 0 0  0 2.850203682350569 0  0 2.799411438503675 0  0 2.747603349778291 0  0 2.694759099502208 0  0 2.640857964382145 0  0 2.58587880633613 0  0 2.52980006535898 0  0 2.472599749459174 0  0 2.414255427218689 0  0 2.35474421880616 0  0 2.294042786119219 0  0 2.232127324764723 0  0 2.1689735539481 0  0 2.104556707683347 0  0 2.038851524813415 0  0 1.971832238155655 0  0 1.903472565412126 0  0 1.83374569926617 0  0 1.762624296208475 0  0 1.690080464918761 0  0 1.616085756774206 0  0 1.540611154706337 0  0 1.463627060685571 0  0 1.385103284916206 0  0 1.305009033716617 0  0 1.223312897337225 0  0 1.139982838163732 0  0 1.054986177579938 0  0 0.9682895835804817 0  0 0.8798590579197976 0  0 0.7896599218415354 0  0 0.6976568029903638 0  0 0.6038136217958798 0  0 0.508093576867624 0  0 0.4104591310957497 0  0 0.3108719963522191 0  0 0.2092931188294389 0  0 0.1056826638508546 0  1.434832105763824 2.866945754981483 0  1.737156300467626 2.870039440267515 0  2.032203389830508 2.867707527316512 0  2.332911392405064 2.893422591869991 0  2.469810913293406 2.891944186606167 0  2.606221408823969 2.892519154985628 0  2.255455320628894 2.892068685006691 0  2.538247299216212 2.894964578182811 0  2.674683544303798 2.893422591869991 0  2.40126582278481 2.893422591869991 0  3.566125247295424 2.865029336199714 0  3.266101694915253 2.867707527316512 0  2.967796610169491 2.867707527316512 0  1.174288529834642 2.870795313888584 0  3.825423728813556 2.867707527316512 0  2.727766680262011 2.892655387647729 0  0.06601655192030442 1.502119107695954 0  4.933983535508361 1.507650792231964 0  0.9532124728485543 2.868722489783638 0  4.048935912500257 2.870640982995992 0  0.05930163367361763 1.866907161167414 0  4.943402512618553 1.871280731473148 0  4.271733870017743 2.86520865624265 0  0.7249420921613114 2.863922936177041 0  0.05494499779910056 2.196469063120752 0  4.947228695426367 2.208030108792719 0  0.5406152150397161 2.866493807382013 0  4.459322033898304 2.868847558178794 0  2.18135593220339 2.875780645487384 0  2.817027156509632 2.876587550645167 0  4.928427208322876 1.186856073198245 0  0.07189226971603224 1.174626666111662 0  4.610299014423113 2.867003104093161 0  0.3897270066746357 2.869433095314657 0  1.581132500042262 2.868247328632392 0  1.887637879411437 2.869235851794358 0  3.413449426418068 2.867372048034327 0  3.116721298814773 2.865731235547652 0  2.644303797468355 2.893422591869991 0  2.370983221828106 2.892719513369796 0  2.302531645569621 2.893336787387268 0  2.758987341772152 2.894242393897099 0  0.04979653335696277 2.443411216910286 0  4.950470983477169 2.446866954595817 0  2.482937483021586 0.2513241087417575 0  1.707129504814338 0.1999998659920923 0  3.28584657955054 0.229200625631625 0  4.907807122600524 0.834082362900164 0  4.757627118644067 2.867707527316512 0  0.0773489124676745 0.8347594898806663 0  0.2390604736599387 2.861365431805741 0  0.8363213715215729 2.863896768908178 0  4.160865610207075 2.868916854015731 0  1.282549332053297 2.867610952980761 0  1.065094818402487 2.861284686038041 0  3.93818127737282 2.86865134411395 0  3.711492629432973 2.863574306925269 0  4.91369361998929 0.5579891344254361 0  0.08208328472281323 0.5559535993317519 0  2.696596932532885 2.892010483922337 0  0.04706410140274553 2.613055974506516 0  4.955577063972248 2.616518038840186 0  2.234177215189874 2.893422591869991 0  2.279795840559739 2.89403861893984 0  0.9117357887652362 0.2117925286661764 0  4.055948041993057 0.2039101057937727 0  4.872119713780579 2.867632926423075 0  2.780113878992455 2.891535929611743 0  0.1327442468251063 2.85
[...]
<PointData  Vectors="displacement"> 
<DataArray  type="Float64"  Name="displacement"  NumberOfComponents="3" format="ascii">1.4647189906238157e-03 -7.6646874404847042e-03 0.0000000000000000e+00  0.0000000000000000e+00 -3.1559909477348437e-04 0.0000000000000000e+00  -1.4667302510548844e-03 -7.6650017802674291e-03 0.0000000000000000e+00  0.0000000000000000e+00 -3.1559947188624754e-04 0.0000000000000000e+00  0.0000000000000000e+00 0.0000000000000000e+00 0.0000000000000000e+00  0.0000000000000000e+00 0.0000000000000000e+00 0.0000000000000000e+00  1.4518351902386528e-03 -6.7833876875183410e-03 0.0000000000000000e+00  1.4227350472172343e-03 -6.2018109386943361e-03 0.0000000000000000e+00  1.3940313515494278e-03 -5.7338128258316969e-03 0.0000000000000000e+00  1.3654907790870174e-03 -5.3347215681866017e-03 0.0000000000000000e+00  1.3369888911091779e-03 -4.9845828843048919e-03 0.0000000000000000e+00  1.3085466563209365e-03 -4.6718808048331513e-03 0.0000000000000000e+00  1.2801937945394700e-03 -4.3890829620437987e-03 0.0000000000000000e+00  1.2519365625545218e-03 -4.1309376127311474e-03 0.0000000000000000e+00  1.2238038427817767e-03 -3.8935410174412949e-03 0.0000000000000000e+00  1.1957853521582834e-03 -3.6739818655062775e-03 0.0000000000000000e+00  1.1678896391983341e-03 -3.4699969196011157e-03 0.0000000000000000e+00  1.1401230941631272e-03 -3.2797369725177318e-03 0.0000000000000000e+00  1.1124964438050512e-03 -3.1016867250174495e-03 0.0000000000000000e+00  1.0850093327086693e-03 -2.9346091283356927e-03 0.0000000000000000e+00  1.0576680855844504e-03 -2.7774688826372454e-03 0.0000000000000000e+00  1.0304759233941442e-03 -2.6293803655860920e-03 0.0000000000000000e+00  1.0034385992857050e-03 -2.4895856676640611e-03 0.0000000000000000e+00  9.7655315263204677e-04 -2.3574278699130817e-03 0.0000000000000000e+00  9.4982739610811689e-04 -2.2323318273725331e-03 0.0000000000000000e+00  9.2326313971431934e-04 -2.1137969005015338e-03 0.0000000000000000e+00  8.9686266576106499e-04 -2.0013813722093376e-03 0.0000000000000000e+00  8.7062688922323801e-04 -1.8946932700060876e-03 0.0000000000000000e+00  8.4455874972704003e-04 -1.7933767494044837e-03 0.0000000000000000e+00  8.1865624764057348e-04 -1.6971192649519941e-03 0.0000000000000000e+00  7.9292224316048030e-04 -1.6056404469337604e-03 0.0000000000000000e+00  7.6735746078462365e-04 -1.5186821963986447e-03 0.0000000000000000e+00  7.4196127451331677e-04 -1.4360096297678798e-03 0.0000000000000000e+00  7.1673112829759680e-04 -1.3574155884413172e-03 0.0000000000000000e+00  6.9167153795130225e-04 -1.2827070740334819e-03 0.0000000000000000e+00  6.6677395822328409e-04 -1.2117036835149898e-03 0.0000000000000000e+00  6.4204268003552431e-04 -1.1442466641687344e-03 0.0000000000000000e+00  6.1747452542636541e-04 -1.0801894687798386e-03 0.0000000000000000e+00  5.9306506927109758e-04 -1.0193976767152826e-03 0.0000000000000000e+00  5.6881376467592907e-04 -9.6174034220927935e-04 0.0000000000000000e+00  5.4471672779581178e-04 -9.0710560257400053e-04 0.0000000000000000e+00  5.2077149966223363e-04 -8.5538521921409800e-04 0.0000000000000000e+00  4.9697356682506339e-04 -8.0647970200894623e-04 0.0000000000000000e+00  4.7331955703997349e-04 -7.6029969527966791e-04 0.0000000000000000e+00  4.4980516754793658e-04 -7.1675955759540092e-04 0.0000000000000000e+00  4.2642567293357342e-04 -6.7578154551031007e-04 0.0000000000000000e+00  4.0317633848504787e-04 -6.3729367983172492e-04 0.0000000000000000e+00  3.8005216637583778e-04 -6.0122929638209226e-04 0.0000000000000000e+00  3.5704729489519804e-04 -5.6752662212619610e-04 0.0000000000000000e+00  3.3415655414340077e-04 -5.3612960614267998e-04 0.0000000000000000e+00  3.1137382264350707e-04 -5.0698564178054391e-04 0.0000000000000000e+00  2.8869309134319133e-04 -4.8004726608409480e-04 0.0000000000000000e+00  2.6610796456947737e-04 -4.5527071041138274e-04 0.0000000000000000e+00  2.4361193875194507e-04 -4.3261641509263190e-04 0.0000000000000000e+00  2.2119818485958129e-04 -4.1204811955907573e-04 0.0000000000000000e+00  1.9885972966882454e-04 -3.9353359311846244e-04 0.0000000000000000e+00  1.7659018938756055e-04 -3.7704404864016665e-04 0.0000000000000000e+00  1.5438097849261278e-04 -3.6255323495518118e-04 0.0000000000000000e+00  1.3222569121719077e-04 -3.5003895274947399e-04 0.0000000000000000e+00  1.1011685280611854e-04 -3.3948242389143752e-04 0.0000000000000000e+00  8.8047274717169754e-05 -3.3086716203865570e-04 0.0000000000000000e+00  6.6007845589772959e-05 -3.2417978817401056e-04 0.0000000000000000e+00  4.3992107621728296e-05 -3.1941029297674037e-04 0.0000000000000000e+00  2.1992062338660298e-05 -3.1655151546538732e-04 0.0000000000000000e+00  -1.4459117118690147e-03 -7.9330818699851636e-03 0.0000000000000000e+00  -1.4070034496965645e-03 -8.1263633100133372e-03 0.0000000000000000e+00  -1.3689435761183016e-03 -8.2915027933428004e-03 0.0000000000000000e+00  -1.3310695141109088e-03 -8.4390531740959097e-03 0.0000000000000000e+00  -1.2934601104812467e-03 -8.5736822779194071e-03 0.0000000000000000e+00  -1.2558848450686521e-03 -8.6979009152925984e-03 0.0000000000000000e+00  -1.2183352288440039e-03 -8.8134019616653517e-03 0.0000000000000000e+00  -1.1808019800896034e-03 -8.9213156341152820e-03 0.0000000000000000e+00  -1.1432695010427515e-03 -9.0225048166851455e-03 0.0000000000000000e+00  -1.1057499600141110e-03 -9.1176504335561490e-03 0.0000000000000000e+00  -1.0682404943563829e-03 -9.2072851911821560e-03 0.0000000000000000e+00  -1.0307337628500857e-03 -9.2918395109610735e-03 0.0000000000000000e+00  -9.9323099619514341e-04 -9.3716761328126227e-03 0.0000000000000000e+00  -9.5573234357501267e-04 -9.4470917774219891e-03 0.0000000000000000e+00  -9.1823319414451954e-04 -9.5183379437401763e-03 0.0000000000000000e+00  -8.8073894956386010e-04 -9.5856417334763220e-03 0.0000000000000000e+00  -8.4324679899574367e-04 -9.6491910343987006e-03 0.0000000000000000e+00  -8.0575696839967699e-04 -9.7091505195476963e-03 0.0000000000000000e+00  -7.6826899399757480e-04 -9.7656665623024868e-03 0.0000000000000000e+00  -7.3078254478156526e-04 -9.8188672681442050e-03 0.0000000000000000e+00  -6.9329764950213616e-04 -9.8688665882291967e-03 0.0000000000000000e+00  -6.5581425419470847e-04 -9.9157658897159624e-03 0.0000000000000000e+00  -6.1833205054061160e-04 -9.9596549135779148e-03 0.0000000000000000e+00  -5.8085122582660705e-04 -1.0000614670355578e-02 0.0000000000000000e+00  -5.4337155284769250e-04 -1.0038717473636622e-02 0.0000000000000000e+00  -5.0589291345607464e-04 -1.0074027177792157e-02 0.0000000000000000e+00  -4.6841574053709645e-04 -1.0106601562877819e-02 0.0000000000000000e+00  -4.3093881894065689e-04 -1.0136491501213728e-02 0.0000000000000000e+00  -3.9346287948833440e-04 -1.0163743464329843e-02 0.0000000000000000e+00  -3.5598785475647165e-04 -1.0188397909325474e-02 0.0000000000000000e+00  -3.1851356653376253e-04 -1.0210490830366381e-02 0.0000000000000000e+00  -2.8103976636396308e-04 -1.0230053500640749e-02 0.0000000000000000e+00  -2.4356648887740399e-04 -1.0247113415186710e-02 0.0000000000000000e+00  -2.0609381223155954e-04 -1.0261694093014131e-02 0.0000000000000000e+00  -1.6862120020932358e-04 -1.0273814752082902e-02 0.0000000000000000e+00  -1.3114956587275417e-04 -1.0283492433136650e-02 0.0000000000000000e+00  -9.3677549891048797e-05 -1.0290739617921194e-02 0.0000000000000000e+00  -5.6205841426119123e-05 -1.0295565651097696e-02 0.0000000000000000e+00  -1.8734374142690479e-05 -1.0297977122930121e-02 0.0000000000000000e+00  1.8737096865440989e-05 -1.0297977076527543e-02 0.0000000000000000e+00  5.6208601768688327e-05 -1.0295565496104872e-02 0.0000000000000000e+00  9.3680218123514826e-05 -1.0290739269551409e-02 0.0000000000000000e+00  1.3115202026249011e-04 -1.0283492161738709e-02 0.0000000000000000e+00  1.6862398803918325e-04 -1.0273814438697407e-02 0.0000000000000000e+00  2.0609640159762211e-04 -1.0261693250322055e-02 0.0000000000000000e+00  2.4356912177529713e-04 -1.0247112716034571e-02 0.0000000000000000e+00  2.8104234441001457e-04 -1.0230052827514238e-02 0.0000000000000000e+00  3.1851609071569279e-04 -1.0210490067004412e-02 0.0000000000000000e+00  3.5599056455954434e-04 -1.0188397184360189e-02 0.0000000000000000e+00  3.9346559939597547e-04 -1.0163742514444660e-02 0.0000000000000000e+00  4.3094144956138162e-04 -1.0136490569440727e-02 0.0000000000000000e+00  4.6841843639425039e-04 -1.0106600318599081e-02 0.0000000000000000e+00  5.0589587699026656e-04 -1.0074025897725906e-02 0.0000000000000000e+00  5.4337451517939785e-04 -1.0038716458407558e-02 0.0000000000000000e+00  5.8085423897787406e-04 -1.0000613982354623e-02 0.0000000000000000e+00  6.1833516903608159e-04 -9.9596541606283197e-03 0.0000000000000000e+00  6.5581719008788873e-04 -9.9157648545225054e-03 0.0000000000000000e+00  6.9330125210656697e-04 -9.8688659790005621e-03 0.0000000000000000e+00  7.3078679535302875e-04 -9.8188654858115919e-03 0.0000000000000000e+00  7.6827362807599191e-04 -9.7656647654329031e-03 0.0000000000000000e+00  8.0576207076797591e-04 -9.7091485764599483e-03 0.0000000000000000e+00  8.4325258714727596e-04 -9.6491886593632302e-03 0.0000000000000000e+00  8.8074521209272495e-04 -9.5856392937884432e-03 0.0000000000000000e+00  9.1824035116976033e-04 -9.5183344287568077e-03 0.0000000000000000e+00  9.5573815116127699e-04 -9.4470847525734581e-03 0.0000000000000000e+00  9.9323964012454943e-04 -9.3716698386602983e-03 0.0000000000000000e+00  1.0307432097254692e-03 -9.2918336837645357e-03 0.0000000000000000e+00  1.0682508134986994e-03 -9.2072756329207514e-03 0.0000000000000000e+00  1.1057657105441833e-03 -9.1176445804216164e-03 0.0000000000000000e+00  1.1432828617317769e-03 -9.0224969644606551e-03 0.0000000000000000e+00  1.1808063163367207e-03 -8.9212975837483534e-03 0.0000000000000000e+00  1.2183452825536981e-03 -8.8133865007915153e-03 0.0000000000000000e+00  1.2559069002547369e-03 -8.6979101293626470e-03 0.0000000000000000e+00  1.2934761914639042e-03 -8.5736578067488970e-03 0.0000000000000000e+00  1.3310670959971026e-03 -8.4389929670968915e-03 0.0000000000000000e+00  1.3686323861337361e-03 -8.2914879225546734e-03 0.0000000000000000e+00  1.4072522032846642e-03 -8.1269108041205958e-03 0.0000000000000000e+00  1.4457062269323496e-03 -7.9324698317797173e-03 0.0000000000000000e+00  -2.1992234501115895e-05 -3.1655181346601735e-04 0.0000000000000000e+00  -4.3992281580761889e-05 -3.1941063063874186e-04 0.0000000000000000e+00  -6.6007884759624837e-05 -3.2418002084814128e-04 0.0000000000000000e+00  -8.8046876338522423e-05 -3.3086734780383401e-04 0.0000000000000000e+00  -1.1011689149080551e-04 -3.3948263614711204e-04 0.0000000000000000e+00  -1.3222604252442438e-04 -3.5003949256995294e-04 0.0000000000000000e+00  -1.5438094427117476e-04 -3.6255340675884486e-04 0.0000000000000000e+00  -1.7658986541611708e-04 -3.7704407878609434e-04 0.0000000000000000e+00  -1.9885982870782932e-04 -3.9353383134696870e-04 0.0000000000000000e+00  -2.2119823305024724e-04 -4.1204846647766691e-04 0.0000000000000000e+00  -2.4361194529774570e-04 -4.3261676062129396e-04 0.0000000000000000e+00  -2.6610807330334271e-04 -4.5527117986997827e-04 0.0000000000000000e+00  -2.8869316381736220e-04 -4.8004772240448789e-04 0.0000000000000000e+00  -3.1137383989294012e-04 -5.0698610163894473e-04 0.0000000000000000e+00  -3.3415649682443500e-04 -5.3612996193565167e-04 0.0000000000000000e+00  -3.5704722192746923e-04 -5.6752705388295503e-04 0.0000000000000000e+00  -3.8005195838211565e-04 -6.0122939905906531e-04 0.0000000000000000e+00  -4.0317637865545090e-04 -6.3729414113304639e-04 0.0000000000000000e+00  -4.2642553861116698e-04 -6.7578214157355549e-04 0.0000000000000000e+00  -4.4980507410940021e-04 -7.1676044111574895e-04 0.0000000000000000e+00  -4.7332019748783690e-04 -7.6030092249686492e-04 0.0000000000000000e+00  -4.9697329408650965e-04 -8.0648038792344146e-04 0.0000000000000000e+00  -5.2077122510463291e-04 -8.5538517373273757e-04 0.0000000000000000e+00  -5.4471661422094320e-04 -9.0710588286210434e-04 0.0000000000000000e+00  -5.6881337706719739e-04 -9.6174108070977708e-04 0.0000000000000000e+00  -5.9306469748066038e-04 -1.0193975743298096e-03 0.0000000000000000e+00  -6.1747362093951303e-04 -1.0801912441785069e-03 0.0000000000000000e+00  -6.4204256405633040e-04 -1.1442476177562953e-03 0.0000000000000000e+00  -6.6677417777866036e-04 -1.2117031205273170e-03 0.0000000000000000e+00  -6.9167009873525567e-04 -1.2827052730965498e-03 0.0000000000000000e+00  -7.1673167267197581e-04 -1.3574156412541536e-03 0.0000000000000000e+00  -7.4195984411149071e-04 -1.4360096664056260e-03 0.0000000000000000e+00  -7.6735997128396635e-04 -1.5186817300984396e-03 0.0000000000000000e+00  -7.9292190171552693e-04 -1.6056411558944400e-03 0.0000000000000000e+00  -8.1865591520138446e-04 -1.6971219004320278e-03 0.0000000000000000e+00  -8.4455790203955049e-04 -1.7933776315809296e-03 0.0000000000000000e+00  -8.7062777250894560e-04 -1.8946921238995663e-03 0.0000000000000000e+00  -8.9686258770313649e-04 -2.0013811659008924e-03 0.0000000000000000e+00  -9.2326267713068540e-04 -2.1137964774245377e-03 0.0000000000000000e+00  -9.4982654886263012e-04 -2.2323306018508971e-03 0.0000000000000000e+00  -9.7655247038449557e-04 -2.3574263461324180e-03 0.0000000000000000e+00  -1.0034361118959115e-03 -2.4895872471835689e-03 0.0000000000000000e+00  -1.0304777790939924e-03 -2.6293839325390290e-03 0.0000000000000000e+00  -1.0576710730469468e-03 -2.7774711216443444e-03 0.0000000000000000e+00  -1.0850102317606007e-03 -2.9346076599367716e-03 0.0000000000000000e+00  -1.1124930502373097e-03 -3.1016830625702641e-03 0.0000000000000000e+00  -1.1401207797796741e-03 -3.2797334238327653e-03 0.0000000000000000e+00  -1.1678865147896056e-03 -3.4700052831058989e-03 0.0000000000000000e+00  -1.1957827577795256e-03 -3.6739960241219290e-03 0.0000000000000000e+00  -1.2238079008470026e-03 -3.8935301059649526e-03 0.0000000000000000e+00  -1.2519396237404303e-03 -4.1309405341232114e-03 0.0000000000000000e+00  -1.2802057858931524e-03 -4.3890690689137035e-03 0.0000000000000000e+00  -1.3085461334783580e-03 -4.6718884424825470e-03 0.0000000000000000e+00  -1.3369653065638122e-03 -4.9846127001067176e-03 0.0000000000000000e+00  -1.3654660386055492e-03 -5.3347200874173228e-03 0.0000000000000000e+00  -1.3941669861960693e-03 -5.7337913743858429e-03 0.0000000000000000e+00  -1.4223718351189705e-03 -6.2020332193025189e-03 0.0000000000000000e+00  -1.4521120798953377e-03 -6.7829811262968259e-03 0.0000000000000000e+00  0.0000000000000000e+00 -6.1248850106625916e-05 0.0000000000000000e+00  0.0000000000000000e+00 -1.1441229287375593e-04 0.0000000000000000e+00  0.0000000000000000e+00 -1.6047983575599961e-04 0.0000000000000000e+00  0.0000000000000000e+00 -2.0029437722371380e-04 0.0000000000000000e+00  0.0000000000000000e+00 -2.3449646060462825e-04 0.0000000000000000e+00  0.0000000000000000e+00 -2.6361320598558178e-04 0.0000000000000000e+00  0.0000000000000000e+00 -2.8808574495462987e-04 0.0000000000000000e+00  0.0000000000000000e+00 -3.0829165834465573e-04 0.0000000000000000e+00  0.0000000000000000e+00 -3.2453087963206528e-04 0.0000000000000000e+00  0.0000000000000000e+00 -3.3713293630782074e-04 0.0000000000000000e+00  0.0000000000000000e+00 -3.4636384739143987e-04 0.0000000000000000e+00  0.0000000000000000e+00 -3.5249998249977234e-04 0.0000000000000000e+00  0.0000000000000000e+00 -3.5582355988107809e-04 0.0000000000000000e+00  0.0000000000000000e+00 -3.5661328426771135e-04 0.0000000000000000e+00  0.0000000000000000e+00 -3.5515527251966185e-04 0.0000000000000000e+00  0.0000000000000000e+00 -3.5174385942517015e-04 0.0000000000000000e+00  0.0000000000000000e+00 -3.4668364721101680e-04 0.0000000000000000e+00  0.0000000000000000e+00 -3.4027861736231785e-04 0.0000000000000000e+00  0.0000000000000000e+00 -3.3283574199514921e-04 0.0000000000000000e+00  0.0000000000000000e+00 -3.2466121848457604e-04 0.0000000000000000e+00  0.0000000000000000e+00 -3.1605644132123563e-04 0.0000000000000000e+00  0.0000000000000000e+00 -3.0731162949930560e-04 0.0000000000000000e+00  0.0000000000000000e+00 -2.9870713179895050e-04 0.0000000000000000e+00  0.0000000000000000e+00 -2.9049825623589620e-04 0.0000000000000000e+00  0.0000000000000000e+00 -2.8292882553445996e-04 0.0000000000000000e+00  0.0000000000000000e+00 -2.7621874227111209e-04 0.0000000000000000e+00  0.0000000000000000e+00 -2.7055313947413345e-04 0.0000000000000000e+00  0.0000000000000000e+00 -2.6609973453956942e-04 0.0000000000000000e+00  0.0000000000000000e+00 -2.6299212981748974e-04 0.0000000000000000e+00  0.0000000000000000e+00 -2.6133527960523455e-04 0.0000000000000000e+00  0.0000000000000000e+00 -2.6120564691270378e-04 0.0000000000000000e+00  0.0000000000000000e+00 -2.6265006207426106e-04 0.0000000000000000e+00  0.0000000000000000e+00 -2.6568861822938645e-04 0.0000000000000000e+00  0.0000000000000000e+00 -2.7031645941153756e-04 0.0000000000000000e+00  0.0000000000000000e+00 -2.7650471757637485e-04 0.0000000000000000e+00  0.0000000000000000e+00 -2.8420330153904462e-04 0.0000000000000000e+00  0.0000000000000000e+00 -2.9334349045045499e-04 0.0000000000000000e+00  0.0000000000000000e+00 -3.0384132247818392e-04 0.0000000000000000e+00  0.0000000000000000e+00 0.0000000000000000e+00 0.0000000000000000e+00  0.0000000000000000e+00 0.0000000000000000e+00 0.0000000000000000e+00  0.0000000000000000e+00 0.0000000000000000e+00 0.0000000000000000e+00  0.0000000000000000e+00 0.0000000000000000e+00 0.0000000000000000e+00  0.0000000000000000e+00 0.0000000000000000e+00 0.0000000000000000e+00  0.0000000000000000e+00 0.0000000000000000e+00 0.0000000000000000e+00  0.0000000000000000e+00 0.0000000000000000e+00 0.0000000000000000e+00  0.0000000000000000e+00 0.0000000000000000e+00 0.0000000000000000e+00  0.0000000000000000e+00 0.0000000000000000e+00 0.0000000000000000e+00  0.0000000000000000e+00 0.0000000000000000e+00 0.0000000000000000e+00  0.0000000000000000e+00 0.0000000000000000e+00 0.0000000000000000e+00  0.0000000000000000e+00 0.0000000000000000e+00 0.0000000000000000e+00  0.0000000000000000e+00 0.0000000000000000e+00 0.0000000000000000e+00  0.0000000000000000e+00 0.0000000000000000e+00 0.0000000000000000e+00  0.0000000000000000e+00 0.0000000000000000e+00 0.0000000000000000e+00  0.0000000000000000e+00 0.0000000000000000e+00 0.0000000000000000e+00  0.0000000000000000e+00 0.0000000000000000e+00 0.0000000000000000e+00  0.0000000000000000e+00 0.0000000000000000e+00 0.0000000000000000e+00  0.0000000000000000e+00 -3.0374579169797472e-04 0.0000000000000000e+00  0.0000000000000000e+00 -2.9318077840714618e-04 0.0000000000000000e+00  0.0000000000000000e+00 -2.8400141278653497e-04 0.0000000000000000e+00  0.0000000000000000e+00 -2.7629064617396769e-04 0.0000000000000000e+00  0.0000000000000000e+00 -2.7011597070007547e-04 0.0000000000000000e+00  0.0000000000000000e+00 -2.6552492516689730e-04 0.0000000000000000e+00  0.0000000000000000e+00 -2.6254322298302995e-04 0.0000000000000000e+00  0.0000000000000000e+00 -2.6117271364944564e-04 0.0000000000000000e+00  0.0000000000000000e+00 -2.6138949821827615e-04 0.0000000000000000e+00  0.0000000000000000e+00 -2.6314106232457171e-04 0.0000000000000000e+00  0.0000000000000000e+00 -2.6634856569456006e-04 0.0000000000000000e+00  0.0000000000000000e+00 -2.7089714790462310e-04 0.0000000000000000e+00  0.0000000000000000e+00 -2.7665359822349149e-04 0.0000000000000000e+00  0.0000000000000000e+00 -2.8344637698132042e-04 0.0000000000000000e+00  0.0000000000000000e+00 -2.9108198566617097e-04 0.0000000000000000e+00  0.0000000000000000e+00 -2.9933585552388759e-04 0.0000000000000000e+00  0.0000000000000000e+00 -3.0796630112797961e-04 0.0000000000000000e+00  0.0000000000000000e+00 -3.1671438204416714e-04 0.0000000000000000e+00  0.0000000000000000e+00 -3.2529632244461700e-04 0.0000000000000000e+00  0.0000000000000000e+00 -3.3342176563800154e-04 0.0000000000000000e+00  0.0000000000000000e+00 -3.4079119056813621e-04 0.0000000000000000e+00  0.0000000000000000e+00 -3.4710060344069610e-04 0.0000000000000000e+00  0.0000000000000000e+00 -3.5204485689598747e-04 0.00000000000