<?xml version="1.0"?>
<VTKFile type="UnstructuredGrid"  version="0.1"  >
<UnstructuredGrid>
<Piece  NumberOfPoints="3167" NumberOfCells="6038">
<Points>
<DataArray  type="Float64"  NumberOfComponents="3"  format="ascii">2.2 2.9 0  0 2.9 0  2.8 2.9 0  5 2.9 0  5 0 0  0 0 0  2.16271186440678 2.9 0  2.125423728813559 2.9 0  2.088135593220339 2.9 0  2.050847457627119 2.9 0  2.013559322033898 2.9 0  1.976271186440678 2.9 0  1.938983050847457 2.9 0  1.901694915254237 2.9 0  1.864406779661016 2.9 0  1.827118644067796 2.9 0  1.789830508474575 2.9 0  1.752542372881355 2.9 0  1.715254237288134 2.9 0  1.677966101694914 2.9 0  1.640677966101693 2.9 0  1.603389830508473 2.9 0  1.566101694915253 2.9 0  1.528813559322032 2.9 0  1.491525423728812 2.9 0  1.454237288135591 2.9 0  1.416949152542371 2.9 0  1.37966101694915 2.9 0  1.34237288135593 2.9 0  1.305084745762709 2.9 0  1.267796610169489 2.9 0  1.230508474576268 2.9 0  1.193220338983048 2.9 0  1.155932203389827 2.9 0  1.118644067796607 2.9 0  1.081355932203387 2.9 0  1.044067796610166 2.9 0  1.006779661016946 2.9 0  0.9694915254237257 2.9 0  0.9322033898305055 2.9 0  0.8949152542372856 2.9 0  0.8576271186440652 2.9 0  0.820338983050845 2.9 0  0.783050847457625 2.9 0  0.7457627118644048 2.9 0  0.7084745762711844 2.9 0  0.6711864406779642 2.9 0  0.633898305084744 2.9 0  0.5966101694915238 2.9 0  0.5593220338983036 2.9 0  0.5220338983050834 2.9 0  0.4847457627118632 2.9 0  0.447457627118643 2.9 0  0.4101694915254228 2.9 0  0.3728813559322024 2.9 0  0.3355932203389822 2.9 0  0.2983050847457622 2.9 0  0.2610169491525418 2.9 0  0.2237288135593216 2.9 0  0.1864406779661016 2.9 0  0.1491525423728812 2.9 0  0.1118644067796613 2.9 0  0.07457627118644039 2.9 0  0.03728813559321997 2.9 0  2.792405063291139 2.9 0  2.784810126582279 2.9 0  2.777215189873418 2.9 0  2.769620253164557 2.9 0  2.762025316455697 2.9 0  2.754430379746836 2.9 0  2.746835443037975 2.9 0  2.739240506329114 2.9 0  2.731645569620254 2.9 0  2.724050632911393 2.9 0  2.716455696202532 2.9 0  2.708860759493671 2.9 0  2.701265822784811 2.9 0  2.69367088607595 2.9 0  2.686075949367089 2.9 0  2.678481012658228 2.9 0  2.670886075949368 2.9 0  2.663291139240507 2.9 0  2.655696202531646 2.9 0  2.648101265822786 2.9 0  2.640506329113925 2.9 0  2.632911392405064 2.9 0  2.625316455696203 2.9 0  2.617721518987342 2.9 0  2.610126582278482 2.9 0  2.602531645569621 2.9 0  2.59493670886076 2.9 0  2.587341772151899 2.9 0  2.579746835443038 2.9 0  2.572151898734178 2.9 0  2.564556962025317 2.9 0  2.556962025316456 2.9 0  2.549367088607595 2.9 0  2.541772151898734 2.9 0  2.534177215189874 2.9 0  2.526582278481013 2.9 0  2.518987341772152 2.9 0  2.511392405063292 2.9 0  2.503797468354431 2.9 0  2.49620253164557 2.9 0  2.488607594936709 2.9 0  2.481012658227848 2.9 0  2.473417721518988 2.9 0  2.465822784810127 2.9 0  2.458227848101266 2.9 0  2.450632911392406 2.9 0  2.443037974683545 2.9 0  2.435443037974684 2.9 0  2.427848101265823 2.9 0  2.420253164556962 2.9 0  2.412658227848102 2.9 0  2.405063291139241 2.9 0  2.39746835443038 2.9 0  2.389873417721519 2.9 0  2.382278481012658 2.9 0  2.374683544303798 2.9 0  2.367088607594937 2.9 0  2.359493670886076 2.9 0  2.351898734177215 2.9 0  2.344303797468355 2.9 0  2.336708860759494 2.9 0  2.329113924050633 2.9 0  2.321518987341773 2.9 0  2.313924050632912 2.9 0  2.306329113924051 2.9 0  2.29873417721519 2.9 0  2.291139240506329 2.9 0  2.283544303797469 2.9 0  2.275949367088608 2.9 0  2.268354430379747 2.9 0  2.260759493670887 2.9 0  2.253164556962026 2.9 0  2.245569620253165 2.9 0  2.237974683544304 2.9 0  2.230379746835443 2.9 0  2.222784810126583 2.9 0  2.215189873417722 2.9 0  2.207594936708861 2.9 0  4.96271186440678 2.9 0  4.925423728813559 2.9 0  4.888135593220339 2.9 0  4.850847457627118 2.9 0  4.813559322033898 2.9 0  4.776271186440677 2.9 0  4.738983050847457 2.9 0  4.701694915254237 2.9 0  4.664406779661016 2.9 0  4.627118644067796 2.9 0  4.589830508474575 2.9 0  4.552542372881355 2.9 0  4.515254237288135 2.9 0  4.477966101694914 2.9 0  4.440677966101694 2.9 0  4.403389830508473 2.9 0  4.366101694915252 2.9 0  4.328813559322032 2.9 0  4.291525423728811 2.9 0  4.254237288135591 2.9 0  4.21694915254237 2.9 0  4.17966101694915 2.9 0  4.14237288135593 2.9 0  4.105084745762709 2.9 0  4.067796610169489 2.9 0  4.030508474576268 2.9 0  3.993220338983048 2.9 0  3.955932203389827 2.9 0  3.918644067796607 2.9 0  3.881355932203387 2.9 0  3.844067796610166 2.9 0  3.806779661016946 2.9 0  3.769491525423725 2.9 0  3.732203389830505 2.9 0  3.694915254237285 2.9 0  3.657627118644065 2.9 0  3.620338983050845 2.9 0  3.583050847457625 2.9 0  3.545762711864405 2.9 0  3.508474576271184 2.9 0  3.471186440677964 2.9 0  3.433898305084744 2.9 0  3.396610169491524 2.9 0  3.359322033898303 2.9 0  3.322033898305083 2.9 0  3.284745762711863 2.9 0  3.247457627118643 2.9 0  3.210169491525423 2.9 0  3.172881355932202 2.9 0  3.135593220338982 2.9 0  3.098305084745762 2.9 0  3.061016949152542 2.9 0  3.023728813559321 2.9 0  2.986440677966101 2.9 0  2.949152542372881 2.9 0  2.911864406779661 2.9 0  2.87457627118644 2.9 0  2.83728813559322 2.9 0  5 0.1063822625082082 0  5 0.210636880010749 0  5 0.3128064053694972 0  5 0.4129325400644018 0  5 0.5110561521032336 0  5 0.6072172918830103 0  5 0.7014552087832795 0  5 0.7938083674443693 0  5 0.88431446261646 0  5 0.9730104359544682 0  5 1.059932489996267 0  5 1.145116102913299 0  5 1.228596043483191 0  5 1.310406385079062 0  5 1.390580519944147 0  5 1.469151172477827 0  5 1.546150411986101 0  5 1.621609666658609 0  5 1.695559736099044 0  5 1.76803080383987 0  5 1.839052450169751 0  5 1.908653663631169 0  5 1.97686285289587 0  5 2.043707858613779 0  5 2.109215964341413 0  5 2.173413907925942 0  5 2.236327892833935 0  5 2.297983597762904 0  5 2.35840618845912 0  5 2.41762032730194 0  5 2.475650183444628 0  5 2.532519442457069 0  5 2.588251316112828 0  5 2.642868552557322 0  5 2.696393444426347 0  5 2.748847838312051 0  5 2.800253144313381 0  5 2.850630344319807 0  0.2631578947368421 0 0  0.5263157894736842 0 0  0.7894736842105263 0 0  1.052631578947368 0 0  1.31578947368421 0 0  1.578947368421053 0 0  1.842105263157895 0 0  2.105263157894737 0 0  2.368421052631579 0 0  2.631578947368421 0 0  2.894736842105263 0 0  3.157894736842105 0 0  3.421052631578947 0 0  3.684210526315789 0 0  3.947368421052632 0 0  4.210526315789473 0 0  4.473684210526315 0 0  4.736842105263158 0 0  0 2.850203682350569 0  0 2.799411438503675 0  0 2.747603349778291 0  0 2.694759099502208 0  0 2.640857964382145 0  0 2.58587880633613 0  0 2.52980006535898 0  0 2.472599749459174 0  0 2.414255427218689 0  0 2.35474421880616 0  0 2.294042786119219 0  0 2.232127324764723 0  0 2.1689735539481 0  0 2.104556707683347 0  0 2.038851524813415 0  0 1.971832238155655 0  0 1.903472565412126 0  0 1.83374569926617 0  0 1.762624296208475 0  0 1.690080464918761 0  0 1.616085756774206 0  0 1.540611154706337 0  0 1.463627060685571 0  0 1.385103284916206 0  0 1.305009033716617 0  0 1.223312897337225 0  0 1.139982838163732 0  0 1.054986177579938 0  0 0.9682895835804817 0  0 0.8798590579197976 0  0 0.7896599218415354 0  0 0.6976568029903638 0  0 0.6038136217958798 0  0 0.508093576867624 0  0 0.4104591310957497 0  0 0.3108719963522191 0  0 0.2092931188294389 0  0 0.1056826638508546 0  1.434832105763824 2.866945754981483 0  1.737156300467626 2.870039440267515 0  2.032203389830508 2.867707527316512 0  2.332911392405064 2.893422591869991 0  2.469810913293406 2.891944186606167 0  2.606221408823969 2.892519154985628 0  2.255455320628894 2.892068685006691 0  2.538247299216212 2.894964578182811 0  2.674683544303798 2.893422591869991 0  2.40126582278481 2.893422591869991 0  3.566125247295424 2.865029336199714 0  3.266101694915253 2.867707527316512 0  2.967796610169491 2.867707527316512 0  1.174288529834642 2.870795313888584 0  3.825423728813556 2.867707527316512 0  2.727766680262011 2.892655387647729 0  0.06601655192030442 1.502119107695954 0  4.933983535508361 1.507650792231964 0  0.9532124728485543 2.868722489783638 0  4.048935912500257 2.870640982995992 0  0.05930163367361763 1.866907161167414 0  4.943402512618553 1.871280731473148 0  4.271733870017743 2.86520865624265 0  0.7249420921613114 2.863922936177041 0  0.05494499779910056 2.196469063120752 0  4.947228695426367 2.208030108792719 0  0.5406152150397161 2.866493807382013 0  4.459322033898304 2.868847558178794 0  2.18135593220339 2.875780645487384 0  2.817027156509632 2.876587550645167 0  4.928427208322876 1.186856073198245 0  0.07189226971603224 1.174626666111662 0  4.610299014423113 2.867003104093161 0  0.3897270066746357 2.869433095314657 0  1.581132500042262 2.868247328632392 0  1.887637879411437 2.869235851794358 0  3.413449426418068 2.867372048034327 0  3.116721298814773 2.865731235547652 0  2.644303797468355 2.893422591869991 0  2.370983221828106 2.892719513369796 0  2.302531645569621 2.893336787387268 0  2.758987341772152 2.894242393897099 0  0.04979653335696277 2.443411216910286 0  4.950470983477169 2.446866954595817 0  2.482937483021586 0.2513241087417575 0  1.707129504814338 0.1999998659920923 0  3.28584657955054 0.229200625631625 0  4.907807122600524 0.834082362900164 0  4.757627118644067 2.867707527316512 0  0.0773489124676745 0.8347594898806663 0  0.2390604736599387 2.861365431805741 0  0.8363213715215729 2.863896768908178 0  4.160865610207075 2.868916854015731 0  1.282549332053297 2.867610952980761 0  1.065094818402487 2.861284686038041 0  3.93818127737282 2.86865134411395 0  3.711492629432973 2.863574306925269 0  4.91369361998929 0.5579891344254361 0  0.08208328472281323 0.5559535993317519 0  2.696596932532885 2.892010483922337 0  0.04706410140274553 2.613055974506516 0  4.955577063972248 2.616518038840186 0  2.234177215189874 2.893422591869991 0  2.279795840559739 2.89403861893984 0  0.9117357887652362 0.2117925286661764 0  4.055948041993057 0.2039101057937727 0  4.872119713780579 2.867632926423075 0  2.780113878992455 2.891535929611743 0  0.1327442468251063 2.85
[...]
<PointData  Vectors="displacement"> 
<DataArray  type="Float64"  Name="displacement"  NumberOfComponents="3" format="ascii">1.5330725435195951e-03 -8.0223728543739898e-03 0.0000000000000000e+00  0.0000000000000000e+00 -3.3032705252957980e-04 0.0000000000000000e+00  -1.5351776627707794e-03 -8.0227018633465749e-03 0.0000000000000000e+00  0.0000000000000000e+00 -3.3032744724093916e-04 0.0000000000000000e+00  0.0000000000000000e+00 0.0000000000000000e+00 0.0000000000000000e+00  0.0000000000000000e+00 0.0000000000000000e+00 0.0000000000000000e+00  1.5195874991164580e-03 -7.0999457796025291e-03 0.0000000000000000e+00  1.4891293494207062e-03 -6.4912287825000707e-03 0.0000000000000000e+00  1.4590861479550688e-03 -6.0013907577038403e-03 0.0000000000000000e+00  1.4292136821110791e-03 -5.5836752413686418e-03 0.0000000000000000e+00  1.3993817060276069e-03 -5.2171967522391194e-03 0.0000000000000000e+00  1.3696121669492477e-03 -4.8899019090586967e-03 0.0000000000000000e+00  1.3399361716179795e-03 -4.5939068336058406e-03 0.0000000000000000e+00  1.3103602688070669e-03 -4.3237147013252663e-03 0.0000000000000000e+00  1.2809146887782603e-03 -4.0752395982552210e-03 0.0000000000000000e+00  1.2515886685923372e-03 -3.8454343525632369e-03 0.0000000000000000e+00  1.2223911556942569e-03 -3.6319301091824996e-03 0.0000000000000000e+00  1.1933288385574071e-03 -3.4327913645685586e-03 0.0000000000000000e+00  1.1644129445159542e-03 -3.2464321055182630e-03 0.0000000000000000e+00  1.1356431015684077e-03 -3.0715575543246902e-03 0.0000000000000000e+00  1.1070259295783917e-03 -2.9070840971603161e-03 0.0000000000000000e+00  1.0785647998192047e-03 -2.7520847826467752e-03 0.0000000000000000e+00  1.0502657339190385e-03 -2.6057663321550498e-03 0.0000000000000000e+00  1.0221256330882093e-03 -2.4674411705090252e-03 0.0000000000000000e+00  9.9415267459316268e-04 -2.3365073126499166e-03 0.0000000000000000e+00  9.6634875290098799e-04 -2.2124407558582714e-03 0.0000000000000000e+00  9.3871625682991500e-04 -2.0947791695791061e-03 0.0000000000000000e+00  9.1125614405365620e-04 -1.9831122892730374e-03 0.0000000000000000e+00  8.8397149138096868e-04 -1.8770676643766922e-03 0.0000000000000000e+00  8.5686020586380049e-04 -1.7763181639830860e-03 0.0000000000000000e+00  8.2992528117463633e-04 -1.6805703344573350e-03 0.0000000000000000e+00  8.0316747562123969e-04 -1.5895540322305808e-03 0.0000000000000000e+00  7.7658613399060497e-04 -1.5030234124903796e-03 0.0000000000000000e+00  7.5017858095148483e-04 -1.4207616492352443e-03 0.0000000000000000e+00  7.2394954305569654e-04 -1.3425667374883765e-03 0.0000000000000000e+00  6.9789007627370399e-04 -1.2682498554123553e-03 0.0000000000000000e+00  6.7200467177051533e-04 -1.1976448418299411e-03 0.0000000000000000e+00  6.4629000327959566e-04 -1.1305983106562301e-03 0.0000000000000000e+00  6.2074143917041559e-04 -1.0669695682953282e-03 0.0000000000000000e+00  5.9535840702747242e-04 -1.0066215581790452e-03 0.0000000000000000e+00  5.7013684175961628e-04 -9.4943719736078648e-04 0.0000000000000000e+00  5.4507416964647113e-04 -8.9530319611075531e-04 0.0000000000000000e+00  5.2016566661023300e-04 -8.4411542143602962e-04 0.0000000000000000e+00  4.9540780303517222e-04 -7.9578034772605178e-04 0.0000000000000000e+00  4.7079607536684026e-04 -7.5020833694985239e-04 0.0000000000000000e+00  4.4632553767047338e-04 -7.0731801763412394e-04 0.0000000000000000e+00  4.2199123428101671e-04 -6.6703405155720485e-04 0.0000000000000000e+00  3.9778793414004345e-04 -6.2928666354658937e-04 0.0000000000000000e+00  3.7370950199030713e-04 -5.9401119782541791e-04 0.0000000000000000e+00  3.4975052667009259e-04 -5.6114898776267116e-04 0.0000000000000000e+00  3.2590460103353730e-04 -5.3064497173030195e-04 0.0000000000000000e+00  3.0216543560587355e-04 -5.0244947183468544e-04 0.0000000000000000e+00  2.7852633624938627e-04 -4.7651667689724671e-04 0.0000000000000000e+00  2.5498049589370249e-04 -4.5280518113028744e-04 0.0000000000000000e+00  2.3152076681969499e-04 -4.3127703180516542e-04 0.0000000000000000e+00  2.0813985038670298e-04 -4.1189849413065681e-04 0.0000000000000000e+00  1.8483106489231339e-04 -3.9463943757670720e-04 0.0000000000000000e+00  1.6158542415560138e-04 -3.7947238591975573e-04 0.0000000000000000e+00  1.3839622347399297e-04 -3.6637410387778228e-04 0.0000000000000000e+00  1.1525563927040408e-04 -3.5532493700637078e-04 0.0000000000000000e+00  9.2156147537304331e-05 -3.4630762960045924e-04 0.0000000000000000e+00  6.9088211717295700e-05 -3.3930817828879716e-04 0.0000000000000000e+00  4.6045072644075648e-05 -3.3431610664898774e-04 0.0000000000000000e+00  2.3018358581131112e-05 -3.3132391952043832e-04 0.0000000000000000e+00  -1.5133875917562357e-03 -8.3032923572511387e-03 0.0000000000000000e+00  -1.4726636106824047e-03 -8.5055935978139603e-03 0.0000000000000000e+00  -1.4328276096704892e-03 -8.6784395903654644e-03 0.0000000000000000e+00  -1.3931860914360849e-03 -8.8328756555537194e-03 0.0000000000000000e+00  -1.3538215823037051e-03 -8.9737874508889811e-03 0.0000000000000000e+00  -1.3144928045051890e-03 -9.1038029580062536e-03 0.0000000000000000e+00  -1.2751908728567242e-03 -9.2246940532097355e-03 0.0000000000000000e+00  -1.2359060724937848e-03 -9.3376436970406644e-03 0.0000000000000000e+00  -1.1966220777580800e-03 -9.4435550414637848e-03 0.0000000000000000e+00  -1.1573516248147694e-03 -9.5431407871221039e-03 0.0000000000000000e+00  -1.1180917174263472e-03 -9.6369585001039905e-03 0.0000000000000000e+00  -1.0788346717830895e-03 -9.7254586881392567e-03 0.0000000000000000e+00  -1.0395817760175835e-03 -9.8090210190105477e-03 0.0000000000000000e+00  -1.0003331862751797e-03 -9.8879560603683473e-03 0.0000000000000000e+00  -9.6108407653793025e-04 -9.9625270477813836e-03 0.0000000000000000e+00  -9.2184010054350662e-04 -1.0032971681038550e-02 0.0000000000000000e+00  -8.8259831628221131e-04 -1.0099486616003971e-02 0.0000000000000000e+00  -8.4335896025832804e-04 -1.0162244210459921e-02 0.0000000000000000e+00  -8.0412154705079451e-04 -1.0221397668543269e-02 0.0000000000000000e+00  -7.6488573020470408e-04 -1.0277081073990934e-02 0.0000000000000000e+00  -7.2565153981223496e-04 -1.0329413695679891e-02 0.0000000000000000e+00  -6.8641891939046041e-04 -1.0378501631236043e-02 0.0000000000000000e+00  -6.4718754623250576e-04 -1.0424438809544885e-02 0.0000000000000000e+00  -6.0795761636518112e-04 -1.0467310021638841e-02 0.0000000000000000e+00  -5.6872889198058402e-04 -1.0507190955739666e-02 0.0000000000000000e+00  -5.2950124941735725e-04 -1.0544148446089127e-02 0.0000000000000000e+00  -4.9027514176216015e-04 -1.0578242969145451e-02 0.0000000000000000e+00  -4.5104929715788686e-04 -1.0609527771270369e-02 0.0000000000000000e+00  -4.1182448053112241e-04 -1.0638051492665236e-02 0.0000000000000000e+00  -3.7260062131177265e-04 -1.0663856478427330e-02 0.0000000000000000e+00  -3.3337753297200360e-04 -1.0686980402450145e-02 0.0000000000000000e+00  -2.9415495546094683e-04 -1.0707455997337318e-02 0.0000000000000000e+00  -2.5493292502501495e-04 -1.0725312041228756e-02 0.0000000000000000e+00  -2.1571152346903122e-04 -1.0740573150688123e-02 0.0000000000000000e+00  -1.7649018955242433e-04 -1.0753259440513438e-02 0.0000000000000000e+00  -1.3726987894681494e-04 -1.0763388746683027e-02 0.0000000000000000e+00  -9.8049168885963316e-05 -1.0770974133424182e-02 0.0000000000000000e+00  -5.8828780692670198e-05 -1.0776025381482255e-02 0.0000000000000000e+00  -1.9608644936014891e-05 -1.0778549388666857e-02 0.0000000000000000e+00  1.9611494719162692e-05 -1.0778549340098831e-02 0.0000000000000000e+00  5.8831669851228189e-05 -1.0776025219256431e-02 0.0000000000000000e+00  9.8051961635946518e-05 -1.0770973768797140e-02 0.0000000000000000e+00  1.3727244787474068e-04 -1.0763388462619849e-02 0.0000000000000000e+00  1.7649310748101287e-04 -1.0753259112503284e-02 0.0000000000000000e+00  2.1571423367217895e-04 -1.0740572268670416e-02 0.0000000000000000e+00  2.5493568079147888e-04 -1.0725311309449518e-02 0.0000000000000000e+00  2.9415765381581645e-04 -1.0707455292798235e-02 0.0000000000000000e+00  3.3338017494909296e-04 -1.0686979603464616e-02 0.0000000000000000e+00  3.7260345757232437e-04 -1.0663855719630331e-02 0.0000000000000000e+00  4.1182732736778904e-04 -1.0638050498452078e-02 0.0000000000000000e+00  4.5105205054091408e-04 -1.0609526796014627e-02 0.0000000000000000e+00  4.9027796342598364e-04 -1.0578241666800372e-02 0.0000000000000000e+00  5.2950435124981404e-04 -1.0544147106286449e-02 0.0000000000000000e+00  5.6873199255443800e-04 -1.0507189893133243e-02 0.0000000000000000e+00  6.0796077013017648e-04 -1.0467309301531171e-02 0.0000000000000000e+00  6.4719081025776698e-04 -1.0424438021457639e-02 0.0000000000000000e+00  6.8642199229199162e-04 -1.0378500547733555e-02 0.0000000000000000e+00  7.2565531053820818e-04 -1.0329413058020586e-02 0.0000000000000000e+00  7.6489017913617145e-04 -1.0277079208482800e-02 0.0000000000000000e+00  8.0412639738620614e-04 -1.0221395787819771e-02 0.0000000000000000e+00  8.4336430073714947e-04 -1.0162242176694746e-02 0.0000000000000000e+00  8.8260437454748357e-04 -1.0099484130133512e-02 0.0000000000000000e+00  9.2184665532372035e-04 -1.0032969127498568e-02 0.0000000000000000e+00  9.6109156755768397e-04 -9.9625233687654583e-03 0.0000000000000000e+00  1.0003392648821382e-03 -9.8879487076935502e-03 0.0000000000000000e+00  1.0395908233303633e-03 -9.8090144311311096e-03 0.0000000000000000e+00  1.0788445595126593e-03 -9.7254525890068805e-03 0.0000000000000000e+00  1.1181025181286400e-03 -9.6369484957903855e-03 0.0000000000000000e+00  1.1573681103695800e-03 -9.5431346608412931e-03 0.0000000000000000e+00  1.1966360619459278e-03 -9.4435468228021516e-03 0.0000000000000000e+00  1.2359106110991021e-03 -9.3376248043232739e-03 0.0000000000000000e+00  1.2752013957395380e-03 -9.2246778708284499e-03 0.0000000000000000e+00  1.3145158889332920e-03 -9.1038126020662347e-03 0.0000000000000000e+00  1.3538384137322208e-03 -8.9737618377305137e-03 0.0000000000000000e+00  1.3931835604769688e-03 -8.8328126388947450e-03 0.0000000000000000e+00  1.4325018974866450e-03 -8.6784240256072218e-03 0.0000000000000000e+00  1.4729239727712829e-03 -8.5061666416462213e-03 0.0000000000000000e+00  1.5131725175225271e-03 -8.3026517572627693e-03 0.0000000000000000e+00  -2.3018538777834635e-05 -3.3132423142776484e-04 0.0000000000000000e+00  -4.6045254721197433e-05 -3.3431646006854986e-04 0.0000000000000000e+00  -6.9088252715074005e-05 -3.3930842182105456e-04 0.0000000000000000e+00  -9.2155730567653453e-05 -3.4630782403467965e-04 0.0000000000000000e+00  -1.1525567976037640e-04 -3.5532515916731066e-04 0.0000000000000000e+00  -1.3839659117556414e-04 -3.6637466888988406e-04 0.0000000000000000e+00  -1.6158538833716291e-04 -3.7947256574092427e-04 0.0000000000000000e+00  -1.8483072580220250e-04 -3.9463946912944537e-04 0.0000000000000000e+00  -2.0813995404752800e-04 -4.1189874347649397e-04 0.0000000000000000e+00  -2.3152081725925873e-04 -4.3127739491329129e-04 0.0000000000000000e+00  -2.5498050274497377e-04 -4.5280554278362097e-04 0.0000000000000000e+00  -2.7852645005749867e-04 -4.7651716826391065e-04 0.0000000000000000e+00  -3.0216551146217244e-04 -5.0244994945003061e-04 0.0000000000000000e+00  -3.2590461908794396e-04 -5.3064545304876230e-04 0.0000000000000000e+00  -3.4975046667624194e-04 -5.6114936015931539e-04 0.0000000000000000e+00  -3.7370942561741773e-04 -5.9401164973082641e-04 0.0000000000000000e+00  -3.9778771643994771e-04 -6.2928677101515510e-04 0.0000000000000000e+00  -4.2199127632603864e-04 -6.6703453438592196e-04 0.0000000000000000e+00  -4.4632539707968811e-04 -7.0731864151365488e-04 0.0000000000000000e+00  -4.7079597756783889e-04 -7.5020926170115071e-04 0.0000000000000000e+00  -4.9540847337060261e-04 -7.9578163221338555e-04 0.0000000000000000e+00  -5.2016538114388008e-04 -8.4411613935986881e-04 0.0000000000000000e+00  -5.4507388227618254e-04 -8.9530314850693208e-04 0.0000000000000000e+00  -5.7013672288458743e-04 -9.4943749072900281e-04 0.0000000000000000e+00  -5.9535800133033335e-04 -1.0066223311429004e-03 0.0000000000000000e+00  -6.2074105002975785e-04 -1.0669694611318680e-03 0.0000000000000000e+00  -6.4628905658335690e-04 -1.1306001689068380e-03 0.0000000000000000e+00  -6.7200455037895912e-04 -1.1976458399182565e-03 0.0000000000000000e+00  -6.9789030607499776e-04 -1.2682492661519255e-03 0.0000000000000000e+00  -7.2394803667623440e-04 -1.3425648525077225e-03 0.0000000000000000e+00  -7.5017915073000152e-04 -1.4207617045126815e-03 0.0000000000000000e+00  -7.7658463683669371e-04 -1.5030234508378894e-03 0.0000000000000000e+00  -8.0317010327721813e-04 -1.5895535441697009e-03 0.0000000000000000e+00  -8.2992492379558506e-04 -1.6805710765028480e-03 0.0000000000000000e+00  -8.5685985791078242e-04 -1.7763209224521898e-03 0.0000000000000000e+00  -8.8397060413472942e-04 -1.8770685877213737e-03 0.0000000000000000e+00  -9.1125706855936311e-04 -1.9831110896815470e-03 0.0000000000000000e+00  -9.3871617512928274e-04 -2.0947789536429353e-03 0.0000000000000000e+00  -9.6634826873011749e-04 -2.2124403130376839e-03 0.0000000000000000e+00  -9.9415178780955281e-04 -2.3365060299372731e-03 0.0000000000000000e+00  -1.0221249190024385e-03 -2.4674395756185984e-03 0.0000000000000000e+00  -1.0502631304510539e-03 -2.6057679853854696e-03 0.0000000000000000e+00  -1.0785667421183785e-03 -2.7520885160575177e-03 0.0000000000000000e+00  -1.1070290564558040e-03 -2.9070864406544150e-03 0.0000000000000000e+00  -1.1356440425760949e-03 -3.0715560174004895e-03 0.0000000000000000e+00  -1.1644093925817173e-03 -3.2464282721568773e-03 0.0000000000000000e+00  -1.1933264161693919e-03 -3.4327876502782957e-03 0.0000000000000000e+00  -1.2223878854797868e-03 -3.6319388629841754e-03 0.0000000000000000e+00  -1.2515859531425696e-03 -3.8454491719142865e-03 0.0000000000000000e+00  -1.2809189362198625e-03 -4.0752281775766515e-03 0.0000000000000000e+00  -1.3103634728483166e-03 -4.3237177590489621e-03 0.0000000000000000e+00  -1.3399487225681660e-03 -4.5938922921296777e-03 0.0000000000000000e+00  -1.3696116197073481e-03 -4.8899099031317322e-03 0.0000000000000000e+00  -1.3993570208701233e-03 -5.2172279594450309e-03 0.0000000000000000e+00  -1.4291877870738080e-03 -5.5836736914967973e-03 0.0000000000000000e+00  -1.4592281122185527e-03 -6.0013683051905161e-03 0.0000000000000000e+00  -1.4887491874245224e-03 -6.4914614362033040e-03 0.0000000000000000e+00  -1.5198773102904537e-03 -7.0995202455240106e-03 0.0000000000000000e+00  0.0000000000000000e+00 -6.4107129778268537e-05 0.0000000000000000e+00  0.0000000000000000e+00 -1.1975153320786454e-04 0.0000000000000000e+00  0.0000000000000000e+00 -1.6796889475794623e-04 0.0000000000000000e+00  0.0000000000000000e+00 -2.0964144816082019e-04 0.0000000000000000e+00  0.0000000000000000e+00 -2.4543962876617744e-04 0.0000000000000000e+00  0.0000000000000000e+00 -2.7591515559824230e-04 0.0000000000000000e+00  0.0000000000000000e+00 -3.0152974638584590e-04 0.0000000000000000e+00  0.0000000000000000e+00 -3.2267860240073960e-04 0.0000000000000000e+00  0.0000000000000000e+00 -3.3967565401489482e-04 0.0000000000000000e+00  0.0000000000000000e+00 -3.5286580666885227e-04 0.0000000000000000e+00  0.0000000000000000e+00 -3.6252749360304030e-04 0.0000000000000000e+00  0.0000000000000000e+00 -3.6894998168309498e-04 0.0000000000000000e+00  0.0000000000000000e+00 -3.7242865934219500e-04 0.0000000000000000e+00  0.0000000000000000e+00 -3.7325523753353783e-04 0.0000000000000000e+00  0.0000000000000000e+00 -3.7172918523724596e-04 0.0000000000000000e+00  0.0000000000000000e+00 -3.6815857286501134e-04 0.0000000000000000e+00  0.0000000000000000e+00 -3.6286221741419763e-04 0.0000000000000000e+00  0.0000000000000000e+00 -3.5615828617255936e-04 0.0000000000000000e+00  0.0000000000000000e+00 -3.4836807662158944e-04 0.0000000000000000e+00  0.0000000000000000e+00 -3.3981207534718953e-04 0.0000000000000000e+00  0.0000000000000000e+00 -3.3080574191622663e-04 0.0000000000000000e+00  0.0000000000000000e+00 -3.2165283887593981e-04 0.0000000000000000e+00  0.0000000000000000e+00 -3.1264679794956816e-04 0.0000000000000000e+00  0.0000000000000000e+00 -3.0405484152690469e-04 0.0000000000000000e+00  0.0000000000000000e+00 -2.9613217072606800e-04 0.0000000000000000e+00  0.0000000000000000e+00 -2.8910895024376399e-04 0.0000000000000000e+00  0.0000000000000000e+00 -2.8317895264959303e-04 0.0000000000000000e+00  0.0000000000000000e+00 -2.7851772215141591e-04 0.0000000000000000e+00  0.0000000000000000e+00 -2.7526509587563920e-04 0.0000000000000000e+00  0.0000000000000000e+00 -2.7353092598681220e-04 0.0000000000000000e+00  0.0000000000000000e+00 -2.7339524376862991e-04 0.0000000000000000e+00  0.0000000000000000e+00 -2.7490706497105996e-04 0.0000000000000000e+00  0.0000000000000000e+00 -2.7808742041342450e-04 0.0000000000000000e+00  0.0000000000000000e+00 -2.8293122751740931e-04 0.0000000000000000e+00  0.0000000000000000e+00 -2.8940827106327231e-04 0.0000000000000000e+00  0.0000000000000000e+00 -2.9746612227753340e-04 0.0000000000000000e+00  0.0000000000000000e+00 -3.0703285333814293e-04 0.0000000000000000e+00  0.0000000000000000e+00 -3.1802058419383254e-04 0.0000000000000000e+00  0.0000000000000000e+00 0.0000000000000000e+00 0.0000000000000000e+00  0.0000000000000000e+00 0.0000000000000000e+00 0.0000000000000000e+00  0.0000000000000000e+00 0.0000000000000000e+00 0.0000000000000000e+00  0.0000000000000000e+00 0.0000000000000000e+00 0.0000000000000000e+00  0.0000000000000000e+00 0.0000000000000000e+00 0.0000000000000000e+00  0.0000000000000000e+00 0.0000000000000000e+00 0.0000000000000000e+00  0.0000000000000000e+00 0.0000000000000000e+00 0.0000000000000000e+00  0.0000000000000000e+00 0.0000000000000000e+00 0.0000000000000000e+00  0.0000000000000000e+00 0.0000000000000000e+00 0.0000000000000000e+00  0.0000000000000000e+00 0.0000000000000000e+00 0.0000000000000000e+00  0.0000000000000000e+00 0.0000000000000000e+00 0.0000000000000000e+00  0.0000000000000000e+00 0.0000000000000000e+00 0.0000000000000000e+00  0.0000000000000000e+00 0.0000000000000000e+00 0.0000000000000000e+00  0.0000000000000000e+00 0.0000000000000000e+00 0.0000000000000000e+00  0.0000000000000000e+00 0.0000000000000000e+00 0.0000000000000000e+00  0.0000000000000000e+00 0.0000000000000000e+00 0.0000000000000000e+00  0.0000000000000000e+00 0.0000000000000000e+00 0.0000000000000000e+00  0.0000000000000000e+00 0.0000000000000000e+00 0.0000000000000000e+00  0.0000000000000000e+00 -3.1792059531054637e-04 0.0000000000000000e+00  0.0000000000000000e+00 -3.0686254806614583e-04 0.0000000000000000e+00  0.0000000000000000e+00 -2.9725481204990605e-04 0.0000000000000000e+00  0.0000000000000000e+00 -2.8918420966208571e-04 0.0000000000000000e+00  0.0000000000000000e+00 -2.8272138266607845e-04 0.0000000000000000e+00  0.0000000000000000e+00 -2.7791608834135199e-04 0.0000000000000000e+00  0.0000000000000000e+00 -2.7479524005557079e-04 0.0000000000000000e+00  0.0000000000000000e+00 -2.7336077361975257e-04 0.0000000000000000e+00  0.0000000000000000e+00 -2.7358767480179522e-04 0.0000000000000000e+00  0.0000000000000000e+00 -2.7542097856638452e-04 0.0000000000000000e+00  0.0000000000000000e+00 -2.7877816542697234e-04 0.0000000000000000e+00  0.0000000000000000e+00 -2.8353901480683840e-04 0.0000000000000000e+00  0.0000000000000000e+00 -2.8956409947392060e-04 0.0000000000000000e+00  0.0000000000000000e+00 -2.9667387457378162e-04 0.0000000000000000e+00  0.0000000000000000e+00 -3.0466581166392506e-04 0.0000000000000000e+00  0.0000000000000000e+00 -3.1330486211500176e-04 0.0000000000000000e+00  0.0000000000000000e+00 -3.2233806184728476e-04 0.0000000000000000e+00  0.0000000000000000e+00 -3.3149438653956104e-04 0.0000000000000000e+00  0.0000000000000000e+00 -3.4047681749203195e-04 0.0000000000000000e+00  0.0000000000000000e+00 -3.4898144803444103e-04 0.0000000000000000e+00  0.0000000000000000e+00 -3.5669477946131533e-04 0.0000000000000000e+00  0.0000000000000000e+00 -3.6329863160126143e-04 0.0000000000000000e+00  0.0000000000000000e+00 -3.6847361688446649e-04 0.00000000000