<?xml version="1.0"?>
<VTKFile type="UnstructuredGrid"  version="0.1"  >
<UnstructuredGrid>
<Piece  NumberOfPoints="3167" NumberOfCells="6038">
<Points>
<DataArray  type="Float64"  NumberOfComponents="3"  format="ascii">2.2 2.9 0  0 2.9 0  2.8 2.9 0  5 2.9 0  5 0 0  0 0 0  2.16271186440678 2.9 0  2.125423728813559 2.9 0  2.088135593220339 2.9 0  2.050847457627119 2.9 0  2.013559322033898 2.9 0  1.976271186440678 2.9 0  1.938983050847457 2.9 0  1.901694915254237 2.9 0  1.864406779661016 2.9 0  1.827118644067796 2.9 0  1.789830508474575 2.9 0  1.752542372881355 2.9 0  1.715254237288134 2.9 0  1.677966101694914 2.9 0  1.640677966101693 2.9 0  1.603389830508473 2.9 0  1.566101694915253 2.9 0  1.528813559322032 2.9 0  1.491525423728812 2.9 0  1.454237288135591 2.9 0  1.416949152542371 2.9 0  1.37966101694915 2.9 0  1.34237288135593 2.9 0  1.305084745762709 2.9 0  1.267796610169489 2.9 0  1.230508474576268 2.9 0  1.193220338983048 2.9 0  1.155932203389827 2.9 0  1.118644067796607 2.9 0  1.081355932203387 2.9 0  1.044067796610166 2.9 0  1.006779661016946 2.9 0  0.9694915254237257 2.9 0  0.9322033898305055 2.9 0  0.8949152542372856 2.9 0  0.8576271186440652 2.9 0  0.820338983050845 2.9 0  0.783050847457625 2.9 0  0.7457627118644048 2.9 0  0.7084745762711844 2.9 0  0.6711864406779642 2.9 0  0.633898305084744 2.9 0  0.5966101694915238 2.9 0  0.5593220338983036 2.9 0  0.5220338983050834 2.9 0  0.4847457627118632 2.9 0  0.447457627118643 2.9 0  0.4101694915254228 2.9 0  0.3728813559322024 2.9 0  0.3355932203389822 2.9 0  0.2983050847457622 2.9 0  0.2610169491525418 2.9 0  0.2237288135593216 2.9 0  0.1864406779661016 2.9 0  0.1491525423728812 2.9 0  0.1118644067796613 2.9 0  0.07457627118644039 2.9 0  0.03728813559321997 2.9 0  2.792405063291139 2.9 0  2.784810126582279 2.9 0  2.777215189873418 2.9 0  2.769620253164557 2.9 0  2.762025316455697 2.9 0  2.754430379746836 2.9 0  2.746835443037975 2.9 0  2.739240506329114 2.9 0  2.731645569620254 2.9 0  2.724050632911393 2.9 0  2.716455696202532 2.9 0  2.708860759493671 2.9 0  2.701265822784811 2.9 0  2.69367088607595 2.9 0  2.686075949367089 2.9 0  2.678481012658228 2.9 0  2.670886075949368 2.9 0  2.663291139240507 2.9 0  2.655696202531646 2.9 0  2.648101265822786 2.9 0  2.640506329113925 2.9 0  2.632911392405064 2.9 0  2.625316455696203 2.9 0  2.617721518987342 2.9 0  2.610126582278482 2.9 0  2.602531645569621 2.9 0  2.59493670886076 2.9 0  2.587341772151899 2.9 0  2.579746835443038 2.9 0  2.572151898734178 2.9 0  2.564556962025317 2.9 0  2.556962025316456 2.9 0  2.549367088607595 2.9 0  2.541772151898734 2.9 0  2.534177215189874 2.9 0  2.526582278481013 2.9 0  2.518987341772152 2.9 0  2.511392405063292 2.9 0  2.503797468354431 2.9 0  2.49620253164557 2.9 0  2.488607594936709 2.9 0  2.481012658227848 2.9 0  2.473417721518988 2.9 0  2.465822784810127 2.9 0  2.458227848101266 2.9 0  2.450632911392406 2.9 0  2.443037974683545 2.9 0  2.435443037974684 2.9 0  2.427848101265823 2.9 0  2.420253164556962 2.9 0  2.412658227848102 2.9 0  2.405063291139241 2.9 0  2.39746835443038 2.9 0  2.389873417721519 2.9 0  2.382278481012658 2.9 0  2.374683544303798 2.9 0  2.367088607594937 2.9 0  2.359493670886076 2.9 0  2.351898734177215 2.9 0  2.344303797468355 2.9 0  2.336708860759494 2.9 0  2.329113924050633 2.9 0  2.321518987341773 2.9 0  2.313924050632912 2.9 0  2.306329113924051 2.9 0  2.29873417721519 2.9 0  2.291139240506329 2.9 0  2.283544303797469 2.9 0  2.275949367088608 2.9 0  2.268354430379747 2.9 0  2.260759493670887 2.9 0  2.253164556962026 2.9 0  2.245569620253165 2.9 0  2.237974683544304 2.9 0  2.230379746835443 2.9 0  2.222784810126583 2.9 0  2.215189873417722 2.9 0  2.207594936708861 2.9 0  4.96271186440678 2.9 0  4.925423728813559 2.9 0  4.888135593220339 2.9 0  4.850847457627118 2.9 0  4.813559322033898 2.9 0  4.776271186440677 2.9 0  4.738983050847457 2.9 0  4.701694915254237 2.9 0  4.664406779661016 2.9 0  4.627118644067796 2.9 0  4.589830508474575 2.9 0  4.552542372881355 2.9 0  4.515254237288135 2.9 0  4.477966101694914 2.9 0  4.440677966101694 2.9 0  4.403389830508473 2.9 0  4.366101694915252 2.9 0  4.328813559322032 2.9 0  4.291525423728811 2.9 0  4.254237288135591 2.9 0  4.21694915254237 2.9 0  4.17966101694915 2.9 0  4.14237288135593 2.9 0  4.105084745762709 2.9 0  4.067796610169489 2.9 0  4.030508474576268 2.9 0  3.993220338983048 2.9 0  3.955932203389827 2.9 0  3.918644067796607 2.9 0  3.881355932203387 2.9 0  3.844067796610166 2.9 0  3.806779661016946 2.9 0  3.769491525423725 2.9 0  3.732203389830505 2.9 0  3.694915254237285 2.9 0  3.657627118644065 2.9 0  3.620338983050845 2.9 0  3.583050847457625 2.9 0  3.545762711864405 2.9 0  3.508474576271184 2.9 0  3.471186440677964 2.9 0  3.433898305084744 2.9 0  3.396610169491524 2.9 0  3.359322033898303 2.9 0  3.322033898305083 2.9 0  3.284745762711863 2.9 0  3.247457627118643 2.9 0  3.210169491525423 2.9 0  3.172881355932202 2.9 0  3.135593220338982 2.9 0  3.098305084745762 2.9 0  3.061016949152542 2.9 0  3.023728813559321 2.9 0  2.986440677966101 2.9 0  2.949152542372881 2.9 0  2.911864406779661 2.9 0  2.87457627118644 2.9 0  2.83728813559322 2.9 0  5 0.1063822625082082 0  5 0.210636880010749 0  5 0.3128064053694972 0  5 0.4129325400644018 0  5 0.5110561521032336 0  5 0.6072172918830103 0  5 0.7014552087832795 0  5 0.7938083674443693 0  5 0.88431446261646 0  5 0.9730104359544682 0  5 1.059932489996267 0  5 1.145116102913299 0  5 1.228596043483191 0  5 1.310406385079062 0  5 1.390580519944147 0  5 1.469151172477827 0  5 1.546150411986101 0  5 1.621609666658609 0  5 1.695559736099044 0  5 1.76803080383987 0  5 1.839052450169751 0  5 1.908653663631169 0  5 1.97686285289587 0  5 2.043707858613779 0  5 2.109215964341413 0  5 2.173413907925942 0  5 2.236327892833935 0  5 2.297983597762904 0  5 2.35840618845912 0  5 2.41762032730194 0  5 2.475650183444628 0  5 2.532519442457069 0  5 2.588251316112828 0  5 2.642868552557322 0  5 2.696393444426347 0  5 2.748847838312051 0  5 2.800253144313381 0  5 2.850630344319807 0  0.2631578947368421 0 0  0.5263157894736842 0 0  0.7894736842105263 0 0  1.052631578947368 0 0  1.31578947368421 0 0  1.578947368421053 0 0  1.842105263157895 0 0  2.105263157894737 0 0  2.368421052631579 0 0  2.631578947368421 0 0  2.894736842105263 0 0  3.157894736842105 0 0  3.421052631578947 0 0  3.684210526315789 0 0  3.947368421052632 0 0  4.210526315789473 0 0  4.473684210526315 0 0  4.736842105263158 0 0  0 2.850203682350569 0  0 2.799411438503675 0  0 2.747603349778291 0  0 2.694759099502208 0  0 2.640857964382145 0  0 2.58587880633613 0  0 2.52980006535898 0  0 2.472599749459174 0  0 2.414255427218689 0  0 2.35474421880616 0  0 2.294042786119219 0  0 2.232127324764723 0  0 2.1689735539481 0  0 2.104556707683347 0  0 2.038851524813415 0  0 1.971832238155655 0  0 1.903472565412126 0  0 1.83374569926617 0  0 1.762624296208475 0  0 1.690080464918761 0  0 1.616085756774206 0  0 1.540611154706337 0  0 1.463627060685571 0  0 1.385103284916206 0  0 1.305009033716617 0  0 1.223312897337225 0  0 1.139982838163732 0  0 1.054986177579938 0  0 0.9682895835804817 0  0 0.8798590579197976 0  0 0.7896599218415354 0  0 0.6976568029903638 0  0 0.6038136217958798 0  0 0.508093576867624 0  0 0.4104591310957497 0  0 0.3108719963522191 0  0 0.2092931188294389 0  0 0.1056826638508546 0  1.434832105763824 2.866945754981483 0  1.737156300467626 2.870039440267515 0  2.032203389830508 2.867707527316512 0  2.332911392405064 2.893422591869991 0  2.469810913293406 2.891944186606167 0  2.606221408823969 2.892519154985628 0  2.255455320628894 2.892068685006691 0  2.538247299216212 2.894964578182811 0  2.674683544303798 2.893422591869991 0  2.40126582278481 2.893422591869991 0  3.566125247295424 2.865029336199714 0  3.266101694915253 2.867707527316512 0  2.967796610169491 2.867707527316512 0  1.174288529834642 2.870795313888584 0  3.825423728813556 2.867707527316512 0  2.727766680262011 2.892655387647729 0  0.06601655192030442 1.502119107695954 0  4.933983535508361 1.507650792231964 0  0.9532124728485543 2.868722489783638 0  4.048935912500257 2.870640982995992 0  0.05930163367361763 1.866907161167414 0  4.943402512618553 1.871280731473148 0  4.271733870017743 2.86520865624265 0  0.7249420921613114 2.863922936177041 0  0.05494499779910056 2.196469063120752 0  4.947228695426367 2.208030108792719 0  0.5406152150397161 2.866493807382013 0  4.459322033898304 2.868847558178794 0  2.18135593220339 2.875780645487384 0  2.817027156509632 2.876587550645167 0  4.928427208322876 1.186856073198245 0  0.07189226971603224 1.174626666111662 0  4.610299014423113 2.867003104093161 0  0.3897270066746357 2.869433095314657 0  1.581132500042262 2.868247328632392 0  1.887637879411437 2.869235851794358 0  3.413449426418068 2.867372048034327 0  3.116721298814773 2.865731235547652 0  2.644303797468355 2.893422591869991 0  2.370983221828106 2.892719513369796 0  2.302531645569621 2.893336787387268 0  2.758987341772152 2.894242393897099 0  0.04979653335696277 2.443411216910286 0  4.950470983477169 2.446866954595817 0  2.482937483021586 0.2513241087417575 0  1.707129504814338 0.1999998659920923 0  3.28584657955054 0.229200625631625 0  4.907807122600524 0.834082362900164 0  4.757627118644067 2.867707527316512 0  0.0773489124676745 0.8347594898806663 0  0.2390604736599387 2.861365431805741 0  0.8363213715215729 2.863896768908178 0  4.160865610207075 2.868916854015731 0  1.282549332053297 2.867610952980761 0  1.065094818402487 2.861284686038041 0  3.93818127737282 2.86865134411395 0  3.711492629432973 2.863574306925269 0  4.91369361998929 0.5579891344254361 0  0.08208328472281323 0.5559535993317519 0  2.696596932532885 2.892010483922337 0  0.04706410140274553 2.613055974506516 0  4.955577063972248 2.616518038840186 0  2.234177215189874 2.893422591869991 0  2.279795840559739 2.89403861893984 0  0.9117357887652362 0.2117925286661764 0  4.055948041993057 0.2039101057937727 0  4.872119713780579 2.867632926423075 0  2.780113878992455 2.891535929611743 0  0.1327442468251063 2.85
[...]
<PointData  Vectors="displacement"> 
<DataArray  type="Float64"  Name="displacement"  NumberOfComponents="3" format="ascii">4.7847487027044978e-04 -2.5037978972250021e-03 0.0000000000000000e+00  0.0000000000000000e+00 -1.0309570429267286e-04 0.0000000000000000e+00  -4.7913188201125916e-04 -2.5039005815540296e-03 0.0000000000000000e+00  0.0000000000000000e+00 -1.0309582748283979e-04 0.0000000000000000e+00  0.0000000000000000e+00 0.0000000000000000e+00 0.0000000000000000e+00  0.0000000000000000e+00 0.0000000000000000e+00 0.0000000000000000e+00  4.7426616214463012e-04 -2.2159066445893230e-03 0.0000000000000000e+00  4.6476011542429869e-04 -2.0259249066401498e-03 0.0000000000000000e+00  4.5538357483948164e-04 -1.8730455231050183e-03 0.0000000000000000e+00  4.4606032116842792e-04 -1.7426757122742885e-03 0.0000000000000000e+00  4.3674970442899978e-04 -1.6282970755395979e-03 0.0000000000000000e+00  4.2745857439817380e-04 -1.5261477295788286e-03 0.0000000000000000e+00  4.1819663954956274e-04 -1.4337671009343068e-03 0.0000000000000000e+00  4.0896594376781288e-04 -1.3494396201588403e-03 0.0000000000000000e+00  3.9977592197538260e-04 -1.2718900656974877e-03 0.0000000000000000e+00  3.9062321503837539e-04 -1.2001674093987174e-03 0.0000000000000000e+00  3.8151061547145852e-04 -1.1335323270696954e-03 0.0000000000000000e+00  3.7244021075995721e-04 -1.0713807443557923e-03 0.0000000000000000e+00  3.6341550497631913e-04 -1.0132176635056999e-03 0.0000000000000000e+00  3.5443638201816701e-04 -9.5863898192299294e-04 0.0000000000000000e+00  3.4550490795758889e-04 -9.0730650166150094e-04 0.0000000000000000e+00  3.3662213497542300e-04 -8.5893091942479145e-04 0.0000000000000000e+00  3.2778994243333286e-04 -8.1326465143692769e-04 0.0000000000000000e+00  3.1900736319313703e-04 -7.7009310417160701e-04 0.0000000000000000e+00  3.1027694939532024e-04 -7.2922839694169463e-04 0.0000000000000000e+00  3.0159929230667875e-04 -6.9050698749716858e-04 0.0000000000000000e+00  2.9297513748194998e-04 -6.5378458158838382e-04 0.0000000000000000e+00  2.8440478381292633e-04 -6.1893313486865596e-04 0.0000000000000000e+00  2.7588919157750172e-04 -5.8583640480546558e-04 0.0000000000000000e+00  2.6742770756258896e-04 -5.5439229321765221e-04 0.0000000000000000e+00  2.5902126609909172e-04 -5.2450921266502810e-04 0.0000000000000000e+00  2.5067010385631204e-04 -4.9610285082355679e-04 0.0000000000000000e+00  2.4237401634101831e-04 -4.6909647905750689e-04 0.0000000000000000e+00  2.3413216857721619e-04 -4.4342242555749653e-04 0.0000000000000000e+00  2.2594603573075948e-04 -4.1901764418426988e-04 0.0000000000000000e+00  2.1781282635294040e-04 -3.9582320328156319e-04 0.0000000000000000e+00  2.0973394214493851e-04 -3.7378724362845155e-04 0.0000000000000000e+00  2.0170834497261291e-04 -3.5286189313474568e-04 0.0000000000000000e+00  1.9373458929522537e-04 -3.3300324106032476e-04 0.0000000000000000e+00  1.8581249646080431e-04 -3.1416851178836400e-04 0.0000000000000000e+00  1.7794079774663264e-04 -2.9632116350750576e-04 0.0000000000000000e+00  1.7011868988966433e-04 -2.7942583827660414e-04 0.0000000000000000e+00  1.6234469849618789e-04 -2.6345003598958759e-04 0.0000000000000000e+00  1.5461772196639139e-04 -2.4836456712469025e-04 0.0000000000000000e+00  1.4693635473232570e-04 -2.3414145548116301e-04 0.0000000000000000e+00  1.3929905315830042e-04 -2.2075530486670008e-04 0.0000000000000000e+00  1.3170427057178192e-04 -2.0818260207836254e-04 0.0000000000000000e+00  1.2415037434944010e-04 -1.9640157015148307e-04 0.0000000000000000e+00  1.1663544966576447e-04 -1.8539202989455701e-04 0.0000000000000000e+00  1.0915780768684399e-04 -1.7513567133994241e-04 0.0000000000000000e+00  1.0171544873021196e-04 -1.6561530964831093e-04 0.0000000000000000e+00  9.4306409838775440e-05 -1.5681544025413768e-04 0.0000000000000000e+00  8.6928601759362140e-05 -1.4872176540105204e-04 0.0000000000000000e+00  7.9579899992301474e-05 -1.4132136226359314e-04 0.0000000000000000e+00  7.2258073720796000e-05 -1.3460238572263195e-04 0.0000000000000000e+00  6.4960845025148801e-05 -1.2855430708536450e-04 0.0000000000000000e+00  5.7686128533269182e-05 -1.2316772255578857e-04 0.0000000000000000e+00  5.0431119640919566e-05 -1.1843405675202627e-04 0.0000000000000000e+00  4.3193725797615095e-05 -1.1434605789816228e-04 0.0000000000000000e+00  3.5971505249998474e-05 -1.1089759180453663e-04 0.0000000000000000e+00  2.8762109740941279e-05 -1.0808327293262817e-04 0.0000000000000000e+00  2.1562562892659046e-05 -1.0589873080351091e-04 0.0000000000000000e+00  1.4370755156431488e-05 -1.0434069570573684e-04 0.0000000000000000e+00  7.1840736972955486e-06 -1.0340682838536157e-04 0.0000000000000000e+00  -4.7233115921054177e-04 -2.5914734108618219e-03 0.0000000000000000e+00  -4.5962112690087480e-04 -2.6546120146043579e-03 0.0000000000000000e+00  -4.4718823486530879e-04 -2.7085575791586497e-03 0.0000000000000000e+00  -4.3481604127622683e-04 -2.7567573702046658e-03 0.0000000000000000e+00  -4.2253030275720424e-04 -2.8007362107870079e-03 0.0000000000000000e+00  -4.1025571605575640e-04 -2.8413142989955806e-03 0.0000000000000000e+00  -3.9798950808903814e-04 -2.8790446408106830e-03 0.0000000000000000e+00  -3.8572864682926707e-04 -2.9142964404776607e-03 0.0000000000000000e+00  -3.7346803700729551e-04 -2.9473515734504819e-03 0.0000000000000000e+00  -3.6121165360460626e-04 -2.9784324749616751e-03 0.0000000000000000e+00  -3.4895856148974843e-04 -3.0077131624528393e-03 0.0000000000000000e+00  -3.3670636253102466e-04 -3.0353342402472858e-03 0.0000000000000000e+00  -3.2445545875707716e-04 -3.0614142033854579e-03 0.0000000000000000e+00  -3.1220589890116766e-04 -3.0860499806245169e-03 0.0000000000000000e+00  -2.9995617675387297e-04 -3.1093237282884619e-03 0.0000000000000000e+00  -2.8770805685752419e-04 -3.1313096329355999e-03 0.0000000000000000e+00  -2.7546062100527270e-04 -3.1520690712369096e-03 0.0000000000000000e+00  -2.6321394301055765e-04 -3.1716558363855804e-03 0.0000000000000000e+00  -2.5096787137253755e-04 -3.1901177436854801e-03 0.0000000000000000e+00  -2.3872229796197429e-04 -3.2074966409271080e-03 0.0000000000000000e+00  -2.2647723217069434e-04 -3.2238297521548732e-03 0.0000000000000000e+00  -2.1423265637026789e-04 -3.2391501906405486e-03 0.0000000000000000e+00  -2.0198846984326288e-04 -3.2534872717687856e-03 0.0000000000000000e+00  -1.8974473377002135e-04 -3.2668674589828245e-03 0.0000000000000000e+00  -1.7750137393024267e-04 -3.2793143747212976e-03 0.0000000000000000e+00  -1.6525835172898071e-04 -3.2908488780787732e-03 0.0000000000000000e+00  -1.5301580857544786e-04 -3.3014898438734220e-03 0.0000000000000000e+00  -1.4077334752061107e-04 -3.3112538903964867e-03 0.0000000000000000e+00  -1.2853120729951884e-04 -3.3201561983477509e-03 0.0000000000000000e+00  -1.1628936588711027e-04 -3.3282099837129864e-03 0.0000000000000000e+00  -1.0404776506769198e-04 -3.3354270045863532e-03 0.0000000000000000e+00  -9.1806323678890922e-05 -3.3418174768759796e-03 0.0000000000000000e+00  -7.9565053033281693e-05 -3.3473903822943242e-03 0.0000000000000000e+00  -6.7323978662305891e-05 -3.3521534037179489e-03 0.0000000000000000e+00  -5.5082925401708732e-05 -3.3561128190137467e-03 0.0000000000000000e+00  -4.2842191518429439e-05 -3.3592741948246393e-03 0.0000000000000000e+00  -3.0601332964405797e-05 -3.3616416085209258e-03 0.0000000000000000e+00  -1.8360574865861935e-05 -3.3632181126919151e-03 0.0000000000000000e+00  -6.1198955532751738e-06 -3.3640058601571736e-03 0.0000000000000000e+00  6.1207849760478883e-06 -3.3640058449989998e-03 0.0000000000000000e+00  1.8361476577775368e-05 -3.3632180620609248e-03 0.0000000000000000e+00  3.0602204587018844e-05 -3.3616414947201271e-03 0.0000000000000000e+00  4.2842993285750716e-05 -3.3592741061679787e-03 0.0000000000000000e+00  5.5083836092803838e-05 -3.3561127166411532e-03 0.0000000000000000e+00  6.7324824521894033e-05 -3.3521531284385368e-03 0.0000000000000000e+00  7.9565913113267955e-05 -3.3473901539046252e-03 0.0000000000000000e+00  9.1807165840609010e-05 -3.3418172569879816e-03 0.0000000000000000e+00  1.0404858963379720e-04 -3.3354267552214425e-03 0.0000000000000000e+00  1.1629025108945526e-04 -3.3282097468909960e-03 0.0000000000000000e+00  1.2853209580268943e-04 -3.3201558880519236e-03 0.0000000000000000e+00  1.4077420685672200e-04 -3.3112535860173038e-03 0.0000000000000000e+00  1.5301668922212570e-04 -3.3014894374090316e-03 0.0000000000000000e+00  1.6525931981682435e-04 -3.2908484599237955e-03 0.0000000000000000e+00  1.7750234162527392e-04 -3.2793140430798029e-03 0.0000000000000000e+00  1.8974571806610959e-04 -3.2668672342358448e-03 0.0000000000000000e+00  2.0198948855179081e-04 -3.2534870258052514e-03 0.0000000000000000e+00  2.1423361542871443e-04 -3.2391498524773485e-03 0.0000000000000000e+00  2.2647840902148263e-04 -3.2238295531401852e-03 0.0000000000000000e+00  2.3872368648199339e-04 -3.2074960586984508e-03 0.0000000000000000e+00  2.5096938517149472e-04 -3.1901171567080798e-03 0.0000000000000000e+00  2.6321560978420953e-04 -3.1716552016435836e-03 0.0000000000000000e+00  2.7546251180144766e-04 -3.1520682953919852e-03 0.0000000000000000e+00  2.8771010261696104e-04 -3.1313088359708886e-03 0.0000000000000000e+00  2.9995851471545918e-04 -3.1093225800605572e-03 0.0000000000000000e+00  3.1220779604602109e-04 -3.0860476858406627e-03 0.0000000000000000e+00  3.2445828244069043e-04 -3.0614121472956977e-03 0.0000000000000000e+00  3.3670944851032402e-04 -3.0353323366964129e-03 0.0000000000000000e+00  3.4896193240957924e-04 -3.0077100400874423e-03 0.0000000000000000e+00  3.6121679877777079e-04 -2.9784305629377283e-03 0.0000000000000000e+00  3.7347240149905104e-04 -2.9473490083904794e-03 0.0000000000000000e+00  3.8573006333666586e-04 -2.9142905440244621e-03 0.0000000000000000e+00  3.9799279230087834e-04 -2.8790395902585598e-03 0.0000000000000000e+00  4.1026292074988405e-04 -2.8413173089251297e-03 0.0000000000000000e+00  4.2253555587821220e-04 -2.8007282168713041e-03 0.0000000000000000e+00  4.3481525135905690e-04 -2.7567377025849819e-03 0.0000000000000000e+00  4.4708657947035719e-04 -2.7085527213678582e-03 0.0000000000000000e+00  4.5970238640632711e-04 -2.6547908626793938e-03 0.0000000000000000e+00  4.7226403413123751e-04 -2.5912734783813734e-03 0.0000000000000000e+00  -7.1841299370310260e-06 -1.0340692573223014e-04 0.0000000000000000e+00  -1.4370811983048720e-05 -1.0434080600865410e-04 0.0000000000000000e+00  -2.1562575688143767e-05 -1.0589880681039182e-04 0.0000000000000000e+00  -2.8761979603917103e-05 -1.0808333361591848e-04 0.0000000000000000e+00  -3.5971517886996340e-05 -1.1089766114138840e-04 0.0000000000000000e+00  -4.3193840557978654e-05 -1.1434623423951702e-04 0.0000000000000000e+00  -5.0431108461916639e-05 -1.1843411287455445e-04 0.0000000000000000e+00  -5.7686022702597455e-05 -1.2316773240345574e-04 0.0000000000000000e+00  -6.4960877377890407e-05 -1.2855438490667469e-04 0.0000000000000000e+00  -7.2258089463080293e-05 -1.3460249904937013e-04 0.0000000000000000e+00  -7.9579902130596223e-05 -1.4132147513628849e-04 0.0000000000000000e+00  -8.6928637279091211e-05 -1.4872191875752588e-04 0.0000000000000000e+00  -9.4306433513670546e-05 -1.5681558931879868e-04 0.0000000000000000e+00  -1.0171545436502623e-04 -1.6561545986872129e-04 0.0000000000000000e+00  -1.0915778896264776e-04 -1.7513578756564614e-04 0.0000000000000000e+00  -1.1663542582963875e-04 -1.8539217093509796e-04 0.0000000000000000e+00  -1.2415030640482329e-04 -1.9640160369262762e-04 0.0000000000000000e+00  -1.3170428369411251e-04 -2.0818275277012741e-04 0.0000000000000000e+00  -1.3929900927964599e-04 -2.2075549958069381e-04 0.0000000000000000e+00  -1.4693632420906865e-04 -2.3414174409781070e-04 0.0000000000000000e+00  -1.5461793117935865e-04 -2.4836496801564209e-04 0.0000000000000000e+00  -1.6234460940159139e-04 -2.6345026005499016e-04 0.0000000000000000e+00  -1.7011860020084446e-04 -2.7942582341935991e-04 0.0000000000000000e+00  -1.7794076064550591e-04 -2.9632125506828637e-04 0.0000000000000000e+00  -1.8581236984194940e-04 -3.1416875303186026e-04 0.0000000000000000e+00  -1.9373446784368096e-04 -3.3300320761440387e-04 0.0000000000000000e+00  -2.0170804950690627e-04 -3.5286247309831119e-04 0.0000000000000000e+00  -2.0973390425839991e-04 -3.7378755513372191e-04 0.0000000000000000e+00  -2.1781289807436103e-04 -3.9582301937225609e-04 0.0000000000000000e+00  -2.2594556558684889e-04 -4.1901705587820586e-04 0.0000000000000000e+00  -2.3413234640617733e-04 -4.4342244280968991e-04 0.0000000000000000e+00  -2.4237354907641814e-04 -4.6909649102583805e-04 0.0000000000000000e+00  -2.5067092395275983e-04 -4.9610269849882367e-04 0.0000000000000000e+00  -2.5902115456040290e-04 -5.2450944425884980e-04 0.0000000000000000e+00  -2.6742759896578337e-04 -5.5439315414112795e-04 0.0000000000000000e+00  -2.7588891466625101e-04 -5.8583669298310347e-04 0.0000000000000000e+00  -2.8440507235291874e-04 -6.1893276047385933e-04 0.0000000000000000e+00  -2.9297511198302177e-04 -6.5378451419429156e-04 0.0000000000000000e+00  -3.0159914119602151e-04 -6.9050684929201564e-04 0.0000000000000000e+00  -3.1027667262845641e-04 -7.2922799660462645e-04 0.0000000000000000e+00  -3.1900714032559956e-04 -7.7009260640325628e-04 0.0000000000000000e+00  -3.2778912988599496e-04 -8.1326516741329913e-04 0.0000000000000000e+00  -3.3662274117070182e-04 -8.5893208462941737e-04 0.0000000000000000e+00  -3.4550588386200032e-04 -9.0730723307048706e-04 0.0000000000000000e+00  -3.5443667570846034e-04 -9.5863850224601240e-04 0.0000000000000000e+00  -3.6341439641085184e-04 -1.0132164671062865e-03 0.0000000000000000e+00  -3.7243945472802359e-04 -1.0713795851187034e-03 0.0000000000000000e+00  -3.8150959483126821e-04 -1.1335350591479270e-03 0.0000000000000000e+00  -3.9062236754130878e-04 -1.2001720345464963e-03 0.0000000000000000e+00  -3.9977724761001808e-04 -1.2718865012818839e-03 0.0000000000000000e+00  -4.0896694375520417e-04 -1.3494405744802493e-03 0.0000000000000000e+00  -4.1820055672509390e-04 -1.4337625625118102e-03 0.0000000000000000e+00  -4.2745840360292812e-04 -1.5261502245442983e-03 0.0000000000000000e+00  -4.3674200014417683e-04 -1.6283068153681943e-03 0.0000000000000000e+00  -4.4605223927780932e-04 -1.7426752285563253e-03 0.0000000000000000e+00  -4.5542788215737927e-04 -1.8730385156327100e-03 0.0000000000000000e+00  -4.6464146613886108e-04 -2.0259975183054891e-03 0.0000000000000000e+00  -4.7435661276580760e-04 -2.2157738345902974e-03 0.0000000000000000e+00  0.0000000000000000e+00 -2.0007957701497445e-05 0.0000000000000000e+00  0.0000000000000000e+00 -3.7374682338760287e-05 0.0000000000000000e+00  0.0000000000000000e+00 -5.2423413013626659e-05 0.0000000000000000e+00  0.0000000000000000e+00 -6.5429496559745945e-05 0.0000000000000000e+00  0.0000000000000000e+00 -7.6602177130845022e-05 0.0000000000000000e+00  0.0000000000000000e+00 -8.6113647288622991e-05 0.0000000000000000e+00  0.0000000000000000e+00 -9.4108010018511981e-05 0.0000000000000000e+00  0.0000000000000000e+00 -1.0070860839258722e-04 0.0000000000000000e+00  0.0000000000000000e+00 -1.0601342067980789e-04 0.0000000000000000e+00  0.0000000000000000e+00 -1.1013009252722178e-04 0.0000000000000000e+00  0.0000000000000000e+00 -1.1314552348120412e-04 0.0000000000000000e+00  0.0000000000000000e+00 -1.1514999428325972e-04 0.0000000000000000e+00  0.0000000000000000e+00 -1.1623569622782011e-04 0.0000000000000000e+00  0.0000000000000000e+00 -1.1649367286078687e-04 0.0000000000000000e+00  0.0000000000000000e+00 -1.1601738902309137e-04 0.0000000000000000e+00  0.0000000000000000e+00 -1.1490299407889002e-04 0.0000000000000000e+00  0.0000000000000000e+00 -1.1324999142226660e-04 0.0000000000000000e+00  0.0000000000000000e+00 -1.1115768167169140e-04 0.0000000000000000e+00  0.0000000000000000e+00 -1.0872634238508341e-04 0.0000000000000000e+00  0.0000000000000000e+00 -1.0605599803829524e-04 0.0000000000000000e+00  0.0000000000000000e+00 -1.0324510416493828e-04 0.0000000000000000e+00  0.0000000000000000e+00 -1.0038846563644074e-04 0.0000000000000000e+00  0.0000000000000000e+00 -9.7577663054324476e-05 0.0000000000000000e+00  0.0000000000000000e+00 -9.4896097037060456e-05 0.0000000000000000e+00  0.0000000000000000e+00 -9.2423416341256561e-05 0.0000000000000000e+00  0.0000000000000000e+00 -9.0231455808563660e-05 0.0000000000000000e+00  0.0000000000000000e+00 -8.8380692228216890e-05 0.0000000000000000e+00  0.0000000000000000e+00 -8.6925913282925819e-05 0.0000000000000000e+00  0.0000000000000000e+00 -8.5910762407046359e-05 0.0000000000000000e+00  0.0000000000000000e+00 -8.5369524671043538e-05 0.0000000000000000e+00  0.0000000000000000e+00 -8.5327177991482696e-05 0.0000000000000000e+00  0.0000000000000000e+00 -8.5799020277591560e-05 0.0000000000000000e+00  0.0000000000000000e+00 -8.6791615288265477e-05 0.0000000000000000e+00  0.0000000000000000e+00 -8.8303376741101502e-05 0.0000000000000000e+00  0.0000000000000000e+00 -9.0324874408280399e-05 0.0000000000000000e+00  0.0000000000000000e+00 -9.2839745169420197e-05 0.0000000000000000e+00  0.0000000000000000e+00 -9.5825540213814408e-05 0.0000000000000000e+00  0.0000000000000000e+00 -9.9254832009538057e-05 0.0000000000000000e+00  0.0000000000000000e+00 0.0000000000000000e+00 0.0000000000000000e+00  0.0000000000000000e+00 0.0000000000000000e+00 0.0000000000000000e+00  0.0000000000000000e+00 0.0000000000000000e+00 0.0000000000000000e+00  0.0000000000000000e+00 0.0000000000000000e+00 0.0000000000000000e+00  0.0000000000000000e+00 0.0000000000000000e+00 0.0000000000000000e+00  0.0000000000000000e+00 0.0000000000000000e+00 0.0000000000000000e+00  0.0000000000000000e+00 0.0000000000000000e+00 0.0000000000000000e+00  0.0000000000000000e+00 0.0000000000000000e+00 0.0000000000000000e+00  0.0000000000000000e+00 0.0000000000000000e+00 0.0000000000000000e+00  0.0000000000000000e+00 0.0000000000000000e+00 0.0000000000000000e+00  0.0000000000000000e+00 0.0000000000000000e+00 0.0000000000000000e+00  0.0000000000000000e+00 0.0000000000000000e+00 0.0000000000000000e+00  0.0000000000000000e+00 0.0000000000000000e+00 0.0000000000000000e+00  0.0000000000000000e+00 0.0000000000000000e+00 0.0000000000000000e+00  0.0000000000000000e+00 0.0000000000000000e+00 0.0000000000000000e+00  0.0000000000000000e+00 0.0000000000000000e+00 0.0000000000000000e+00  0.0000000000000000e+00 0.0000000000000000e+00 0.0000000000000000e+00  0.0000000000000000e+00 0.0000000000000000e+00 0.0000000000000000e+00  0.0000000000000000e+00 -9.9223625288006277e-05 0.0000000000000000e+00  0.0000000000000000e+00 -9.5772387613002612e-05 0.0000000000000000e+00  0.0000000000000000e+00 -9.2773794843603331e-05 0.0000000000000000e+00  0.0000000000000000e+00 -9.0254944416830527e-05 0.0000000000000000e+00  0.0000000000000000e+00 -8.8237883762025559e-05 0.0000000000000000e+00  0.0000000000000000e+00 -8.6738142221187594e-05 0.0000000000000000e+00  0.0000000000000000e+00 -8.5764119507790925e-05 0.0000000000000000e+00  0.0000000000000000e+00 -8.5316419792153439e-05 0.0000000000000000e+00  0.0000000000000000e+00 -8.5387236084638073e-05 0.0000000000000000e+00  0.0000000000000000e+00 -8.5959413692694706e-05 0.0000000000000000e+00  0.0000000000000000e+00 -8.7007198126890886e-05 0.0000000000000000e+00  0.0000000000000000e+00 -8.8493068315510483e-05 0.0000000000000000e+00  0.0000000000000000e+00 -9.0373508753006991e-05 0.0000000000000000e+00  0.0000000000000000e+00 -9.2592483147229727e-05 0.0000000000000000e+00  0.0000000000000000e+00 -9.5086781984281044e-05 0.0000000000000000e+00  0.0000000000000000e+00 -9.7783046137802070e-05 0.0000000000000000e+00  0.0000000000000000e+00 -1.0060232503513974e-04 0.0000000000000000e+00  0.0000000000000000e+00 -1.0346003146776077e-04 0.0000000000000000e+00  0.0000000000000000e+00 -1.0626346533190802e-04 0.0000000000000000e+00  0.0000000000000000e+00 -1.0891777677507975e-04 0.0000000000000000e+00  0.0000000000000000e+00 -1.1132512225225637e-04 0.0000000000000000e+00  0.0000000000000000e+00 -1.1338619712396020e-04 0.0000000000000000e+00  0.0000000000000000e+00 -1.1500131991935498e-04 0.00000000000