<?xml version="1.0"?>
<VTKFile type="UnstructuredGrid"  version="0.1"  >
<UnstructuredGrid>
<Piece  NumberOfPoints="3167" NumberOfCells="6038">
<Points>
<DataArray  type="Float64"  NumberOfComponents="3"  format="ascii">2.2 2.9 0  0 2.9 0  2.8 2.9 0  5 2.9 0  5 0 0  0 0 0  2.16271186440678 2.9 0  2.125423728813559 2.9 0  2.088135593220339 2.9 0  2.050847457627119 2.9 0  2.013559322033898 2.9 0  1.976271186440678 2.9 0  1.938983050847457 2.9 0  1.901694915254237 2.9 0  1.864406779661016 2.9 0  1.827118644067796 2.9 0  1.789830508474575 2.9 0  1.752542372881355 2.9 0  1.715254237288134 2.9 0  1.677966101694914 2.9 0  1.640677966101693 2.9 0  1.603389830508473 2.9 0  1.566101694915253 2.9 0  1.528813559322032 2.9 0  1.491525423728812 2.9 0  1.454237288135591 2.9 0  1.416949152542371 2.9 0  1.37966101694915 2.9 0  1.34237288135593 2.9 0  1.305084745762709 2.9 0  1.267796610169489 2.9 0  1.230508474576268 2.9 0  1.193220338983048 2.9 0  1.155932203389827 2.9 0  1.118644067796607 2.9 0  1.081355932203387 2.9 0  1.044067796610166 2.9 0  1.006779661016946 2.9 0  0.9694915254237257 2.9 0  0.9322033898305055 2.9 0  0.8949152542372856 2.9 0  0.8576271186440652 2.9 0  0.820338983050845 2.9 0  0.783050847457625 2.9 0  0.7457627118644048 2.9 0  0.7084745762711844 2.9 0  0.6711864406779642 2.9 0  0.633898305084744 2.9 0  0.5966101694915238 2.9 0  0.5593220338983036 2.9 0  0.5220338983050834 2.9 0  0.4847457627118632 2.9 0  0.447457627118643 2.9 0  0.4101694915254228 2.9 0  0.3728813559322024 2.9 0  0.3355932203389822 2.9 0  0.2983050847457622 2.9 0  0.2610169491525418 2.9 0  0.2237288135593216 2.9 0  0.1864406779661016 2.9 0  0.1491525423728812 2.9 0  0.1118644067796613 2.9 0  0.07457627118644039 2.9 0  0.03728813559321997 2.9 0  2.792405063291139 2.9 0  2.784810126582279 2.9 0  2.777215189873418 2.9 0  2.769620253164557 2.9 0  2.762025316455697 2.9 0  2.754430379746836 2.9 0  2.746835443037975 2.9 0  2.739240506329114 2.9 0  2.731645569620254 2.9 0  2.724050632911393 2.9 0  2.716455696202532 2.9 0  2.708860759493671 2.9 0  2.701265822784811 2.9 0  2.69367088607595 2.9 0  2.686075949367089 2.9 0  2.678481012658228 2.9 0  2.670886075949368 2.9 0  2.663291139240507 2.9 0  2.655696202531646 2.9 0  2.648101265822786 2.9 0  2.640506329113925 2.9 0  2.632911392405064 2.9 0  2.625316455696203 2.9 0  2.617721518987342 2.9 0  2.610126582278482 2.9 0  2.602531645569621 2.9 0  2.59493670886076 2.9 0  2.587341772151899 2.9 0  2.579746835443038 2.9 0  2.572151898734178 2.9 0  2.564556962025317 2.9 0  2.556962025316456 2.9 0  2.549367088607595 2.9 0  2.541772151898734 2.9 0  2.534177215189874 2.9 0  2.526582278481013 2.9 0  2.518987341772152 2.9 0  2.511392405063292 2.9 0  2.503797468354431 2.9 0  2.49620253164557 2.9 0  2.488607594936709 2.9 0  2.481012658227848 2.9 0  2.473417721518988 2.9 0  2.465822784810127 2.9 0  2.458227848101266 2.9 0  2.450632911392406 2.9 0  2.443037974683545 2.9 0  2.435443037974684 2.9 0  2.427848101265823 2.9 0  2.420253164556962 2.9 0  2.412658227848102 2.9 0  2.405063291139241 2.9 0  2.39746835443038 2.9 0  2.389873417721519 2.9 0  2.382278481012658 2.9 0  2.374683544303798 2.9 0  2.367088607594937 2.9 0  2.359493670886076 2.9 0  2.351898734177215 2.9 0  2.344303797468355 2.9 0  2.336708860759494 2.9 0  2.329113924050633 2.9 0  2.321518987341773 2.9 0  2.313924050632912 2.9 0  2.306329113924051 2.9 0  2.29873417721519 2.9 0  2.291139240506329 2.9 0  2.283544303797469 2.9 0  2.275949367088608 2.9 0  2.268354430379747 2.9 0  2.260759493670887 2.9 0  2.253164556962026 2.9 0  2.245569620253165 2.9 0  2.237974683544304 2.9 0  2.230379746835443 2.9 0  2.222784810126583 2.9 0  2.215189873417722 2.9 0  2.207594936708861 2.9 0  4.96271186440678 2.9 0  4.925423728813559 2.9 0  4.888135593220339 2.9 0  4.850847457627118 2.9 0  4.813559322033898 2.9 0  4.776271186440677 2.9 0  4.738983050847457 2.9 0  4.701694915254237 2.9 0  4.664406779661016 2.9 0  4.627118644067796 2.9 0  4.589830508474575 2.9 0  4.552542372881355 2.9 0  4.515254237288135 2.9 0  4.477966101694914 2.9 0  4.440677966101694 2.9 0  4.403389830508473 2.9 0  4.366101694915252 2.9 0  4.328813559322032 2.9 0  4.291525423728811 2.9 0  4.254237288135591 2.9 0  4.21694915254237 2.9 0  4.17966101694915 2.9 0  4.14237288135593 2.9 0  4.105084745762709 2.9 0  4.067796610169489 2.9 0  4.030508474576268 2.9 0  3.993220338983048 2.9 0  3.955932203389827 2.9 0  3.918644067796607 2.9 0  3.881355932203387 2.9 0  3.844067796610166 2.9 0  3.806779661016946 2.9 0  3.769491525423725 2.9 0  3.732203389830505 2.9 0  3.694915254237285 2.9 0  3.657627118644065 2.9 0  3.620338983050845 2.9 0  3.583050847457625 2.9 0  3.545762711864405 2.9 0  3.508474576271184 2.9 0  3.471186440677964 2.9 0  3.433898305084744 2.9 0  3.396610169491524 2.9 0  3.359322033898303 2.9 0  3.322033898305083 2.9 0  3.284745762711863 2.9 0  3.247457627118643 2.9 0  3.210169491525423 2.9 0  3.172881355932202 2.9 0  3.135593220338982 2.9 0  3.098305084745762 2.9 0  3.061016949152542 2.9 0  3.023728813559321 2.9 0  2.986440677966101 2.9 0  2.949152542372881 2.9 0  2.911864406779661 2.9 0  2.87457627118644 2.9 0  2.83728813559322 2.9 0  5 0.1063822625082082 0  5 0.210636880010749 0  5 0.3128064053694972 0  5 0.4129325400644018 0  5 0.5110561521032336 0  5 0.6072172918830103 0  5 0.7014552087832795 0  5 0.7938083674443693 0  5 0.88431446261646 0  5 0.9730104359544682 0  5 1.059932489996267 0  5 1.145116102913299 0  5 1.228596043483191 0  5 1.310406385079062 0  5 1.390580519944147 0  5 1.469151172477827 0  5 1.546150411986101 0  5 1.621609666658609 0  5 1.695559736099044 0  5 1.76803080383987 0  5 1.839052450169751 0  5 1.908653663631169 0  5 1.97686285289587 0  5 2.043707858613779 0  5 2.109215964341413 0  5 2.173413907925942 0  5 2.236327892833935 0  5 2.297983597762904 0  5 2.35840618845912 0  5 2.41762032730194 0  5 2.475650183444628 0  5 2.532519442457069 0  5 2.588251316112828 0  5 2.642868552557322 0  5 2.696393444426347 0  5 2.748847838312051 0  5 2.800253144313381 0  5 2.850630344319807 0  0.2631578947368421 0 0  0.5263157894736842 0 0  0.7894736842105263 0 0  1.052631578947368 0 0  1.31578947368421 0 0  1.578947368421053 0 0  1.842105263157895 0 0  2.105263157894737 0 0  2.368421052631579 0 0  2.631578947368421 0 0  2.894736842105263 0 0  3.157894736842105 0 0  3.421052631578947 0 0  3.684210526315789 0 0  3.947368421052632 0 0  4.210526315789473 0 0  4.473684210526315 0 0  4.736842105263158 0 0  0 2.850203682350569 0  0 2.799411438503675 0  0 2.747603349778291 0  0 2.694759099502208 0  0 2.640857964382145 0  0 2.58587880633613 0  0 2.52980006535898 0  0 2.472599749459174 0  0 2.414255427218689 0  0 2.35474421880616 0  0 2.294042786119219 0  0 2.232127324764723 0  0 2.1689735539481 0  0 2.104556707683347 0  0 2.038851524813415 0  0 1.971832238155655 0  0 1.903472565412126 0  0 1.83374569926617 0  0 1.762624296208475 0  0 1.690080464918761 0  0 1.616085756774206 0  0 1.540611154706337 0  0 1.463627060685571 0  0 1.385103284916206 0  0 1.305009033716617 0  0 1.223312897337225 0  0 1.139982838163732 0  0 1.054986177579938 0  0 0.9682895835804817 0  0 0.8798590579197976 0  0 0.7896599218415354 0  0 0.6976568029903638 0  0 0.6038136217958798 0  0 0.508093576867624 0  0 0.4104591310957497 0  0 0.3108719963522191 0  0 0.2092931188294389 0  0 0.1056826638508546 0  1.434832105763824 2.866945754981483 0  1.737156300467626 2.870039440267515 0  2.032203389830508 2.867707527316512 0  2.332911392405064 2.893422591869991 0  2.469810913293406 2.891944186606167 0  2.606221408823969 2.892519154985628 0  2.255455320628894 2.892068685006691 0  2.538247299216212 2.894964578182811 0  2.674683544303798 2.893422591869991 0  2.40126582278481 2.893422591869991 0  3.566125247295424 2.865029336199714 0  3.266101694915253 2.867707527316512 0  2.967796610169491 2.867707527316512 0  1.174288529834642 2.870795313888584 0  3.825423728813556 2.867707527316512 0  2.727766680262011 2.892655387647729 0  0.06601655192030442 1.502119107695954 0  4.933983535508361 1.507650792231964 0  0.9532124728485543 2.868722489783638 0  4.048935912500257 2.870640982995992 0  0.05930163367361763 1.866907161167414 0  4.943402512618553 1.871280731473148 0  4.271733870017743 2.86520865624265 0  0.7249420921613114 2.863922936177041 0  0.05494499779910056 2.196469063120752 0  4.947228695426367 2.208030108792719 0  0.5406152150397161 2.866493807382013 0  4.459322033898304 2.868847558178794 0  2.18135593220339 2.875780645487384 0  2.817027156509632 2.876587550645167 0  4.928427208322876 1.186856073198245 0  0.07189226971603224 1.174626666111662 0  4.610299014423113 2.867003104093161 0  0.3897270066746357 2.869433095314657 0  1.581132500042262 2.868247328632392 0  1.887637879411437 2.869235851794358 0  3.413449426418068 2.867372048034327 0  3.116721298814773 2.865731235547652 0  2.644303797468355 2.893422591869991 0  2.370983221828106 2.892719513369796 0  2.302531645569621 2.893336787387268 0  2.758987341772152 2.894242393897099 0  0.04979653335696277 2.443411216910286 0  4.950470983477169 2.446866954595817 0  2.482937483021586 0.2513241087417575 0  1.707129504814338 0.1999998659920923 0  3.28584657955054 0.229200625631625 0  4.907807122600524 0.834082362900164 0  4.757627118644067 2.867707527316512 0  0.0773489124676745 0.8347594898806663 0  0.2390604736599387 2.861365431805741 0  0.8363213715215729 2.863896768908178 0  4.160865610207075 2.868916854015731 0  1.282549332053297 2.867610952980761 0  1.065094818402487 2.861284686038041 0  3.93818127737282 2.86865134411395 0  3.711492629432973 2.863574306925269 0  4.91369361998929 0.5579891344254361 0  0.08208328472281323 0.5559535993317519 0  2.696596932532885 2.892010483922337 0  0.04706410140274553 2.613055974506516 0  4.955577063972248 2.616518038840186 0  2.234177215189874 2.893422591869991 0  2.279795840559739 2.89403861893984 0  0.9117357887652362 0.2117925286661764 0  4.055948041993057 0.2039101057937727 0  4.872119713780579 2.867632926423075 0  2.780113878992455 2.891535929611743 0  0.1327442468251063 2.85
[...]
<PointData  Vectors="displacement"> 
<DataArray  type="Float64"  Name="displacement"  NumberOfComponents="3" format="ascii">-1.9022078115573125e-02 -3.9693536681596649e-03 0.0000000000000000e+00  0.0000000000000000e+00 -3.1434185538483576e-04 0.0000000000000000e+00  1.8554096030136163e-02 -4.8200741800166376e-03 0.0000000000000000e+00  0.0000000000000000e+00 -3.1418772941715835e-04 0.0000000000000000e+00  0.0000000000000000e+00 0.0000000000000000e+00 0.0000000000000000e+00  0.0000000000000000e+00 0.0000000000000000e+00 0.0000000000000000e+00  -2.1312816737197347e-02 1.4287954778297016e-02 0.0000000000000000e+00  -2.1437411610238911e-02 1.5753218164374916e-02 0.0000000000000000e+00  -2.1436857679698787e-02 1.6216002432611044e-02 0.0000000000000000e+00  -2.1383228959048352e-02 1.6370466320854458e-02 0.0000000000000000e+00  -2.1294933270559868e-02 1.6391867208792387e-02 0.0000000000000000e+00  -2.1195138472155345e-02 1.6328228010088323e-02 0.0000000000000000e+00  -2.1085725388508510e-02 1.6183239082691137e-02 0.0000000000000000e+00  -2.0966327459186109e-02 1.5908041716159484e-02 0.0000000000000000e+00  -2.0682441799200493e-02 1.5451290302155344e-02 0.0000000000000000e+00  -1.9953297940875220e-02 1.4712932602104607e-02 0.0000000000000000e+00  -1.8647518502191603e-02 1.3491061532417348e-02 0.0000000000000000e+00  -1.6855291925791362e-02 1.1815254639413721e-02 0.0000000000000000e+00  -1.4686939676953208e-02 9.7372243031265439e-03 0.0000000000000000e+00  -1.2128585252545808e-02 7.2943590246933795e-03 0.0000000000000000e+00  -9.6326599925069152e-03 4.9082086386078505e-03 0.0000000000000000e+00  -7.4778469154055385e-03 2.8583323955889204e-03 0.0000000000000000e+00  -5.8268722943991911e-03 1.3230861005363880e-03 0.0000000000000000e+00  -4.6798626137306600e-03 2.9482540390565206e-04 0.0000000000000000e+00  -3.9676386297915461e-03 -2.9472770055344549e-04 0.0000000000000000e+00  -3.6114944902754373e-03 -5.2667990941925372e-04 0.0000000000000000e+00  -3.4216335025301242e-03 -5.9281337212014414e-04 0.0000000000000000e+00  -3.2814832636453464e-03 -6.0859729251291873e-04 0.0000000000000000e+00  -3.1459795751211479e-03 -6.1852035249625149e-04 0.0000000000000000e+00  -3.0144899146348964e-03 -6.2410592282486125e-04 0.0000000000000000e+00  -2.8869957106953822e-03 -6.2595067522216844e-04 0.0000000000000000e+00  -2.7634375033116585e-03 -6.2460328573698263e-04 0.0000000000000000e+00  -2.6437083326346150e-03 -6.2054965601830399e-04 0.0000000000000000e+00  -2.5276805305270533e-03 -6.1420662601079968e-04 0.0000000000000000e+00  -2.4152261623002526e-03 -6.0595099105603646e-04 0.0000000000000000e+00  -2.3061536580838123e-03 -5.9611364994776347e-04 0.0000000000000000e+00  -2.2003376669199690e-03 -5.8499207325915775e-04 0.0000000000000000e+00  -2.0976078138759185e-03 -5.7284305823951756e-04 0.0000000000000000e+00  -1.9978160843805597e-03 -5.5988781450922332e-04 0.0000000000000000e+00  -1.9007818846141337e-03 -5.4634266443464522e-04 0.0000000000000000e+00  -1.8063710832588668e-03 -5.3238355089307117e-04 0.0000000000000000e+00  -1.7144266067958109e-03 -5.1817174194442083e-04 0.0000000000000000e+00  -1.6247936952085661e-03 -5.0385303016106165e-04 0.0000000000000000e+00  -1.5373468765854680e-03 -4.8954844286709545e-04 0.0000000000000000e+00  -1.4519382194575830e-03 -4.7537412449045243e-04 0.0000000000000000e+00  -1.3684400409202900e-03 -4.6142901739931150e-04 0.0000000000000000e+00  -1.2867247240069630e-03 -4.4780073458202535e-04 0.0000000000000000e+00  -1.2066747202641819e-03 -4.3456831693318193e-04 0.0000000000000000e+00  -1.1281655680099722e-03 -4.2180106759903712e-04 0.0000000000000000e+00  -1.0510886053958994e-03 -4.0955989477187550e-04 0.0000000000000000e+00  -9.7533213838137611e-04 -3.9790062824644632e-04 0.0000000000000000e+00  -9.0079329025835272e-04 -3.8687071553698750e-04 0.0000000000000000e+00  -8.2736889822801951e-04 -3.7651218082839714e-04 0.0000000000000000e+00  -7.5496280393235371e-04 -3.6686253016099879e-04 0.0000000000000000e+00  -6.8347679078876468e-04 -3.5795520655140567e-04 0.0000000000000000e+00  -6.1281913604569686e-04 -3.4981869979097718e-04 0.0000000000000000e+00  -5.4290640895906714e-04 -3.4247673383468798e-04 0.0000000000000000e+00  -4.7363716142689963e-04 -3.3595068364117937e-04 0.0000000000000000e+00  -4.0493452215145458e-04 -3.3026173572180936e-04 0.0000000000000000e+00  -3.3671706313204191e-04 -3.2542243417549370e-04 0.0000000000000000e+00  -2.6890294465505368e-04 -3.2144629791796571e-04 0.0000000000000000e+00  -2.0139665253080896e-04 -3.1834276683649751e-04 0.0000000000000000e+00  -1.3413110959997223e-04 -3.1612181171241022e-04 0.0000000000000000e+00  -6.7024968220666484e-05 -3.1478685304604760e-04 0.0000000000000000e+00  1.0959073882439481e-02 -3.6805567962280801e-02 0.0000000000000000e+00  1.1388729399919643e-02 -4.5235341577676710e-02 0.0000000000000000e+00  1.1463288150821611e-02 -4.8458778430917421e-02 0.0000000000000000e+00  1.1194069065445806e-02 -5.0083600519497763e-02 0.0000000000000000e+00  1.0980711242964510e-02 -5.1517682782672027e-02 0.0000000000000000e+00  1.0455508928587003e-02 -5.2494346062064240e-02 0.0000000000000000e+00  9.9426719980502017e-03 -5.3376361922167749e-02 0.0000000000000000e+00  9.5213103167335993e-03 -5.4275431115670181e-02 0.0000000000000000e+00  8.9409839888506416e-03 -5.4952386240387230e-02 0.0000000000000000e+00  8.4363211285092693e-03 -5.5681805837704580e-02 0.0000000000000000e+00  8.0545598807279482e-03 -5.6488039970893467e-02 0.0000000000000000e+00  7.6179466748694524e-03 -5.7195731782782928e-02 0.0000000000000000e+00  7.1405008239988571e-03 -5.7816913658588681e-02 0.0000000000000000e+00  6.6571530536134026e-03 -5.8400238803647267e-02 0.0000000000000000e+00  6.1841961063003013e-03 -5.8959819811410040e-02 0.0000000000000000e+00  5.7313631515328390e-03 -5.9508445165752821e-02 0.0000000000000000e+00  5.3130387227504038e-03 -6.0057759332320076e-02 0.0000000000000000e+00  4.9008449673489645e-03 -6.0579741157441983e-02 0.0000000000000000e+00  4.4880363622076492e-03 -6.1067355794988926e-02 0.0000000000000000e+00  4.0872505696348520e-03 -6.1528957250662250e-02 0.0000000000000000e+00  3.7060886308515817e-03 -6.1972447140853537e-02 0.0000000000000000e+00  3.3439900573825360e-03 -6.2396123618838895e-02 0.0000000000000000e+00  2.9973534684281334e-03 -6.2794668035562801e-02 0.0000000000000000e+00  2.6677376520397858e-03 -6.3167612866157352e-02 0.0000000000000000e+00  2.3594644362245013e-03 -6.3517088109445841e-02 0.0000000000000000e+00  2.0757670503541662e-03 -6.3842481305541099e-02 0.0000000000000000e+00  1.8147588096869751e-03 -6.4141309091258480e-02 0.0000000000000000e+00  1.5727263336944824e-03 -6.4413595042172436e-02 0.0000000000000000e+00  1.3483384543772354e-03 -6.4660387097063898e-02 0.0000000000000000e+00  1.1395494606420342e-03 -6.4882495724660150e-02 0.0000000000000000e+00  9.4575918870680811e-04 -6.5083628981657343e-02 0.0000000000000000e+00  7.6646192531173909e-04 -6.5263918940619461e-02 0.0000000000000000e+00  6.0093671487354225e-04 -6.5421951943352735e-02 0.0000000000000000e+00  4.4919516405866292e-04 -6.5556419584035228e-02 0.0000000000000000e+00  3.0943181383165819e-04 -6.5666942689157404e-02 0.0000000000000000e+00  1.7944222707806580e-04 -6.5754088119919313e-02 0.0000000000000000e+00  5.6372430896749917e-05 -6.5818727549781283e-02 0.0000000000000000e+00  -6.2690657772693190e-05 -6.5862290055947514e-02 0.0000000000000000e+00  -1.7931091191489805e-04 -6.5885154447422961e-02 0.0000000000000000e+00  -2.9621095186475882e-04 -6.5888240976390997e-02 0.0000000000000000e+00  -4.1424612968121775e-04 -6.5871142376302316e-02 0.0000000000000000e+00  -5.3618111381330247e-04 -6.5832369420420228e-02 0.0000000000000000e+00  -6.6360457823796612e-04 -6.5770328386842186e-02 0.0000000000000000e+00  -7.9705178740597572e-04 -6.5684951507386444e-02 0.0000000000000000e+00  -9.3808781235260271e-04 -6.5575033634116028e-02 0.0000000000000000e+00  -1.0883469123176364e-03 -6.5439308095168902e-02 0.0000000000000000e+00  -1.2515551755661529e-03 -6.5280303458473909e-02 0.0000000000000000e+00  -1.4305835582738096e-03 -6.5099124323564697e-02 0.0000000000000000e+00  -1.6301833343517688e-03 -6.4897022137711396e-02 0.0000000000000000e+00  -1.8503216449401914e-03 -6.4672930327200728e-02 0.0000000000000000e+00  -2.0897756275554246e-03 -6.4424958764128681e-02 0.0000000000000000e+00  -2.3483141925443153e-03 -6.4153730148466356e-02 0.0000000000000000e+00  -2.6242772686435826e-03 -6.3860312421771009e-02 0.0000000000000000e+00  -2.9145296546116417e-03 -6.3543456389443476e-02 0.0000000000000000e+00  -3.2145461660811961e-03 -6.3199120565411049e-02 0.0000000000000000e+00  -3.5191689360960661e-03 -6.2820145523981394e-02 0.0000000000000000e+00  -3.8303453061387261e-03 -6.2407882447552521e-02 0.0000000000000000e+00  -4.1721202034432480e-03 -6.1982872430211958e-02 0.0000000000000000e+00  -4.5446133277280880e-03 -6.1548055776405486e-02 0.0000000000000000e+00  -4.9465317496150676e-03 -6.1104129563570614e-02 0.0000000000000000e+00  -5.3760209820007199e-03 -6.0649710790835913e-02 0.0000000000000000e+00  -5.8235361143755496e-03 -6.0177732621465224e-02 0.0000000000000000e+00  -6.2770133808999389e-03 -5.9679095955464348e-02 0.0000000000000000e+00  -6.7317172846607888e-03 -5.9148805045841760e-02 0.0000000000000000e+00  -7.1769121004430191e-03 -5.8578330792278852e-02 0.0000000000000000e+00  -7.6105903435394395e-03 -5.7959480251492737e-02 0.0000000000000000e+00  -7.9978409580531915e-03 -5.7258425918537546e-02 0.0000000000000000e+00  -8.3759257148427729e-03 -5.6511416715291612e-02 0.0000000000000000e+00  -8.7999540553588898e-03 -5.5770875201443450e-02 0.0000000000000000e+00  -9.2998146147999245e-03 -5.5057245410921940e-02 0.0000000000000000e+00  -9.8199349740350529e-03 -5.4273314230134928e-02 0.0000000000000000e+00  -1.0253121448552477e-02 -5.3392316690975883e-02 0.0000000000000000e+00  -1.0866487743196747e-02 -5.2535981561694277e-02 0.0000000000000000e+00  -1.1253385319619233e-02 -5.1435683255642725e-02 0.0000000000000000e+00  -1.1485402796480823e-02 -4.9953062078397448e-02 0.0000000000000000e+00  -1.1400418491581655e-02 -4.7553155588031144e-02 0.0000000000000000e+00  -1.1589802700012584e-02 -4.4634451128329894e-02 0.0000000000000000e+00  -1.1065049446251224e-02 -3.7618877105651871e-02 0.0000000000000000e+00  6.7045931146618936e-05 -3.1463385215207453e-04 0.0000000000000000e+00  1.3417079702754373e-04 -3.1596663876657077e-04 0.0000000000000000e+00  2.0145299373827778e-04 -3.1818588458648633e-04 0.0000000000000000e+00  2.6897337523268665e-04 -3.2128450642612838e-04 0.0000000000000000e+00  3.3680999254722668e-04 -3.2525667354519656e-04 0.0000000000000000e+00  4.0505306066834789e-04 -3.3008912743343939e-04 0.0000000000000000e+00  4.7377049230121990e-04 -3.3577185593337681e-04 0.0000000000000000e+00  5.4305658746208927e-04 -3.4228841413990276e-04 0.0000000000000000e+00  6.1299354891520890e-04 -3.4962015906765578e-04 0.0000000000000000e+00  6.8367156074469011e-04 -3.5774489153805108e-04 0.0000000000000000e+00  7.5517803669907727e-04 -3.6663944128205136e-04 0.0000000000000000e+00  8.2760812783239340e-04 -3.7627410312030132e-04 0.0000000000000000e+00  9.0105368882224617e-04 -3.8661600513514887e-04 0.0000000000000000e+00  9.7561457628303060e-04 -3.9762770234904763e-04 0.0000000000000000e+00  1.0513926848347702e-03 -4.0926681281094570e-04 0.0000000000000000e+00  1.1284934901290985e-03 -4.2148521398082425e-04 0.0000000000000000e+00  1.2070242544182414e-03 -4.3422725129528561e-04 0.0000000000000000e+00  1.2871015007707100e-03 -4.4743036689003763e-04 0.0000000000000000e+00  1.3688378868020657e-03 -4.6102778288695912e-04 0.0000000000000000e+00  1.4523585900791394e-03 -4.7493762807244440e-04 0.0000000000000000e+00  1.5377963424719095e-03 -4.8907778652544350e-04 0.0000000000000000e+00  1.6252592133503526e-03 -5.0334017998256034e-04 0.0000000000000000e+00  1.7149091374533960e-03 -5.1761609503864442e-04 0.0000000000000000e+00  1.8068757556014090e-03 -5.3177870145017095e-04 0.0000000000000000e+00  1.9013042411732981e-03 -5.4568516020326522e-04 0.0000000000000000e+00  1.9983436782466534e-03 -5.5917485190014110e-04 0.0000000000000000e+00  2.0981493592143585e-03 -5.7206671564079270e-04 0.0000000000000000e+00  2.2008781069943893e-03 -5.8415707182428824e-04 0.0000000000000000e+00  2.3066852347001974e-03 -5.9521475083550233e-04 0.0000000000000000e+00  2.4157265765956909e-03 -6.0498325067110087e-04 0.0000000000000000e+00  2.5281603616515245e-03 -6.1317201656635662e-04 0.0000000000000000e+00  2.6441372758915396e-03 -6.1945235796531640e-04 0.0000000000000000e+00  2.7637998932705543e-03 -6.2344927886322319e-04 0.0000000000000000e+00  2.8872550360888906e-03 -6.2475235170004269e-04 0.0000000000000000e+00  3.0146233106511417e-03 -6.2288303758382707e-04 0.0000000000000000e+00  3.1459431782272090e-03 -6.1731642481497229e-04 0.0000000000000000e+00  3.2812501329513837e-03 -6.0748108749246314e-04 0.0000000000000000e+00  3.4211889714240514e-03 -5.9184444486840948e-04 0.0000000000000000e+00  3.6000540054449107e-03 -5.3655746348497241e-04 0.0000000000000000e+00  3.9592963725171380e-03 -3.0264172769509036e-04 0.0000000000000000e+00  4.6348989323201032e-03 2.5181301485439217e-04 0.0000000000000000e+00  5.7950576969695777e-03 1.2919094956760301e-03 0.0000000000000000e+00  7.4481706045416074e-03 2.8334924974313912e-03 0.0000000000000000e+00  9.5369303744011619e-03 4.8178011593903412e-03 0.0000000000000000e+00  1.1959447089845443e-02 7.1243935054369871e-03 0.0000000000000000e+00  1.4395764860354444e-02 9.4683169168722475e-03 0.0000000000000000e+00  1.6614493955103171e-02 1.1564692686312029e-02 0.0000000000000000e+00  1.8425918962242216e-02 1.3271574659854029e-02 0.0000000000000000e+00  1.9671423170195615e-02 1.4485676261686209e-02 0.0000000000000000e+00  2.0443963927970564e-02 1.5208584760753867e-02 0.0000000000000000e+00  2.0717993436157951e-02 1.5682660000080666e-02 0.0000000000000000e+00  2.0832221734911734e-02 1.5949598964706151e-02 0.0000000000000000e+00  2.0935906115338365e-02 1.6078417420086383e-02 0.0000000000000000e+00  2.1033803172954599e-02 1.6111988110195794e-02 0.0000000000000000e+00  2.1116979862716080e-02 1.6055462476505508e-02 0.0000000000000000e+00  2.1181089946621101e-02 1.5877969936406791e-02 0.0000000000000000e+00  2.1209970443371300e-02 1.5506000948446744e-02 0.0000000000000000e+00  2.1107091843629269e-02 1.4446365265811232e-02 0.0000000000000000e+00  0.0000000000000000e+00 -9.3264447003267551e-05 0.0000000000000000e+00  0.0000000000000000e+00 -1.8077666790168167e-04 0.0000000000000000e+00  0.0000000000000000e+00 -2.6285428639051262e-04 0.0000000000000000e+00  0.0000000000000000e+00 -3.3973571287806742e-04 0.0000000000000000e+00  0.0000000000000000e+00 -4.1157564959150810e-04 0.0000000000000000e+00  0.0000000000000000e+00 -4.7846792804623171e-04 0.0000000000000000e+00  0.0000000000000000e+00 -5.4046832344222949e-04 0.0000000000000000e+00  0.0000000000000000e+00 -5.9760278200146708e-04 0.0000000000000000e+00  0.0000000000000000e+00 -6.4984195602985843e-04 0.0000000000000000e+00  0.0000000000000000e+00 -6.9719394370063557e-04 0.0000000000000000e+00  0.0000000000000000e+00 -7.3961853551126374e-04 0.0000000000000000e+00  0.0000000000000000e+00 -7.7709045250926945e-04 0.0000000000000000e+00  0.0000000000000000e+00 -8.0959387259555977e-04 0.0000000000000000e+00  0.0000000000000000e+00 -8.3711671742778076e-04 0.0000000000000000e+00  0.0000000000000000e+00 -8.5965945639542344e-04 0.0000000000000000e+00  0.0000000000000000e+00 -8.7724122645421233e-04 0.0000000000000000e+00  0.0000000000000000e+00 -8.8990796051241809e-04 0.0000000000000000e+00  0.0000000000000000e+00 -8.9771993713318665e-04 0.0000000000000000e+00  0.0000000000000000e+00 -9.0076546769605689e-04 0.0000000000000000e+00  0.0000000000000000e+00 -8.9915525556088333e-04 0.0000000000000000e+00  0.0000000000000000e+00 -8.9303165503229942e-04 0.0000000000000000e+00  0.0000000000000000e+00 -8.8256446048683688e-04 0.0000000000000000e+00  0.0000000000000000e+00 -8.6794563517584103e-04 0.0000000000000000e+00  0.0000000000000000e+00 -8.4940313693171639e-04 0.0000000000000000e+00  0.0000000000000000e+00 -8.2718449158431645e-04 0.0000000000000000e+00  0.0000000000000000e+00 -8.0156601959164252e-04 0.0000000000000000e+00  0.0000000000000000e+00 -7.7284716299087515e-04 0.0000000000000000e+00  0.0000000000000000e+00 -7.4134874220323763e-04 0.0000000000000000e+00  0.0000000000000000e+00 -7.0741003121961316e-04 0.0000000000000000e+00  0.0000000000000000e+00 -6.7138503366937939e-04 0.0000000000000000e+00  0.0000000000000000e+00 -6.3364031016119868e-04 0.0000000000000000e+00  0.0000000000000000e+00 -5.9454835894544409e-04 0.0000000000000000e+00  0.0000000000000000e+00 -5.5448511900636581e-04 0.0000000000000000e+00  0.0000000000000000e+00 -5.1382760190144959e-04 0.0000000000000000e+00  0.0000000000000000e+00 -4.7294693676017612e-04 0.0000000000000000e+00  0.0000000000000000e+00 -4.3220675064473276e-04 0.0000000000000000e+00  0.0000000000000000e+00 -3.9194613387493198e-04 0.0000000000000000e+00  0.0000000000000000e+00 -3.5250554929331621e-04 0.0000000000000000e+00  0.0000000000000000e+00 0.0000000000000000e+00 0.0000000000000000e+00  0.0000000000000000e+00 0.0000000000000000e+00 0.0000000000000000e+00  0.0000000000000000e+00 0.0000000000000000e+00 0.0000000000000000e+00  0.0000000000000000e+00 0.0000000000000000e+00 0.0000000000000000e+00  0.0000000000000000e+00 0.0000000000000000e+00 0.0000000000000000e+00  0.0000000000000000e+00 0.0000000000000000e+00 0.0000000000000000e+00  0.0000000000000000e+00 0.0000000000000000e+00 0.0000000000000000e+00  0.0000000000000000e+00 0.0000000000000000e+00 0.0000000000000000e+00  0.0000000000000000e+00 0.0000000000000000e+00 0.0000000000000000e+00  0.0000000000000000e+00 0.0000000000000000e+00 0.0000000000000000e+00  0.0000000000000000e+00 0.0000000000000000e+00 0.0000000000000000e+00  0.0000000000000000e+00 0.0000000000000000e+00 0.0000000000000000e+00  0.0000000000000000e+00 0.0000000000000000e+00 0.0000000000000000e+00  0.0000000000000000e+00 0.0000000000000000e+00 0.0000000000000000e+00  0.0000000000000000e+00 0.0000000000000000e+00 0.0000000000000000e+00  0.0000000000000000e+00 0.0000000000000000e+00 0.0000000000000000e+00  0.0000000000000000e+00 0.0000000000000000e+00 0.0000000000000000e+00  0.0000000000000000e+00 0.0000000000000000e+00 0.0000000000000000e+00  0.0000000000000000e+00 -3.5298139299808063e-04 0.0000000000000000e+00  0.0000000000000000e+00 -3.9273563092017316e-04 0.0000000000000000e+00  0.0000000000000000e+00 -4.3330382159736150e-04 0.0000000000000000e+00  0.0000000000000000e+00 -4.7432384492384841e-04 0.0000000000000000e+00  0.0000000000000000e+00 -5.1545704197943803e-04 0.0000000000000000e+00  0.0000000000000000e+00 -5.5632963076677664e-04 0.0000000000000000e+00  0.0000000000000000e+00 -5.9656534241194392e-04 0.0000000000000000e+00  0.0000000000000000e+00 -6.3578415065786522e-04 0.0000000000000000e+00  0.0000000000000000e+00 -6.7360677847201655e-04 0.0000000000000000e+00  0.0000000000000000e+00 -7.0965720881480490e-04 0.0000000000000000e+00  0.0000000000000000e+00 -7.4357052213078418e-04 0.0000000000000000e+00  0.0000000000000000e+00 -7.7499026359875690e-04 0.0000000000000000e+00  0.0000000000000000e+00 -8.0358298493157559e-04 0.0000000000000000e+00  0.0000000000000000e+00 -8.2902937274465806e-04 0.0000000000000000e+00  0.0000000000000000e+00 -8.5103348553403123e-04 0.0000000000000000e+00  0.0000000000000000e+00 -8.6932576845234061e-04 0.0000000000000000e+00  0.0000000000000000e+00 -8.8366037534575435e-04 0.0000000000000000e+00  0.0000000000000000e+00 -8.9382154293224240e-04 0.0000000000000000e+00  0.0000000000000000e+00 -8.9961930372457657e-04 0.0000000000000000e+00  0.0000000000000000e+00 -9.0089165015147217e-04 0.0000000000000000e+00  0.0000000000000000e+00 -8.9750731826464237e-04 0.0000000000000000e+00  0.0000000000000000e+00 -8.8935954726735800e-04 0.0000000000000000e+00  0.0000000000000000e+00 -8.7636680839343450e-04 0.0000000000000000e+00  0.0000000000000000e+00 