<?xml version="1.0"?>
<VTKFile type="UnstructuredGrid"  version="0.1"  >
<UnstructuredGrid>
<Piece  NumberOfPoints="3167" NumberOfCells="6038">
<Points>
<DataArray  type="Float64"  NumberOfComponents="3"  format="ascii">2.2 2.9 0  0 2.9 0  2.8 2.9 0  5 2.9 0  5 0 0  0 0 0  2.16271186440678 2.9 0  2.125423728813559 2.9 0  2.088135593220339 2.9 0  2.050847457627119 2.9 0  2.013559322033898 2.9 0  1.976271186440678 2.9 0  1.938983050847457 2.9 0  1.901694915254237 2.9 0  1.864406779661016 2.9 0  1.827118644067796 2.9 0  1.789830508474575 2.9 0  1.752542372881355 2.9 0  1.715254237288134 2.9 0  1.677966101694914 2.9 0  1.640677966101693 2.9 0  1.603389830508473 2.9 0  1.566101694915253 2.9 0  1.528813559322032 2.9 0  1.491525423728812 2.9 0  1.454237288135591 2.9 0  1.416949152542371 2.9 0  1.37966101694915 2.9 0  1.34237288135593 2.9 0  1.305084745762709 2.9 0  1.267796610169489 2.9 0  1.230508474576268 2.9 0  1.193220338983048 2.9 0  1.155932203389827 2.9 0  1.118644067796607 2.9 0  1.081355932203387 2.9 0  1.044067796610166 2.9 0  1.006779661016946 2.9 0  0.9694915254237257 2.9 0  0.9322033898305055 2.9 0  0.8949152542372856 2.9 0  0.8576271186440652 2.9 0  0.820338983050845 2.9 0  0.783050847457625 2.9 0  0.7457627118644048 2.9 0  0.7084745762711844 2.9 0  0.6711864406779642 2.9 0  0.633898305084744 2.9 0  0.5966101694915238 2.9 0  0.5593220338983036 2.9 0  0.5220338983050834 2.9 0  0.4847457627118632 2.9 0  0.447457627118643 2.9 0  0.4101694915254228 2.9 0  0.3728813559322024 2.9 0  0.3355932203389822 2.9 0  0.2983050847457622 2.9 0  0.2610169491525418 2.9 0  0.2237288135593216 2.9 0  0.1864406779661016 2.9 0  0.1491525423728812 2.9 0  0.1118644067796613 2.9 0  0.07457627118644039 2.9 0  0.03728813559321997 2.9 0  2.792405063291139 2.9 0  2.784810126582279 2.9 0  2.777215189873418 2.9 0  2.769620253164557 2.9 0  2.762025316455697 2.9 0  2.754430379746836 2.9 0  2.746835443037975 2.9 0  2.739240506329114 2.9 0  2.731645569620254 2.9 0  2.724050632911393 2.9 0  2.716455696202532 2.9 0  2.708860759493671 2.9 0  2.701265822784811 2.9 0  2.69367088607595 2.9 0  2.686075949367089 2.9 0  2.678481012658228 2.9 0  2.670886075949368 2.9 0  2.663291139240507 2.9 0  2.655696202531646 2.9 0  2.648101265822786 2.9 0  2.640506329113925 2.9 0  2.632911392405064 2.9 0  2.625316455696203 2.9 0  2.617721518987342 2.9 0  2.610126582278482 2.9 0  2.602531645569621 2.9 0  2.59493670886076 2.9 0  2.587341772151899 2.9 0  2.579746835443038 2.9 0  2.572151898734178 2.9 0  2.564556962025317 2.9 0  2.556962025316456 2.9 0  2.549367088607595 2.9 0  2.541772151898734 2.9 0  2.534177215189874 2.9 0  2.526582278481013 2.9 0  2.518987341772152 2.9 0  2.511392405063292 2.9 0  2.503797468354431 2.9 0  2.49620253164557 2.9 0  2.488607594936709 2.9 0  2.481012658227848 2.9 0  2.473417721518988 2.9 0  2.465822784810127 2.9 0  2.458227848101266 2.9 0  2.450632911392406 2.9 0  2.443037974683545 2.9 0  2.435443037974684 2.9 0  2.427848101265823 2.9 0  2.420253164556962 2.9 0  2.412658227848102 2.9 0  2.405063291139241 2.9 0  2.39746835443038 2.9 0  2.389873417721519 2.9 0  2.382278481012658 2.9 0  2.374683544303798 2.9 0  2.367088607594937 2.9 0  2.359493670886076 2.9 0  2.351898734177215 2.9 0  2.344303797468355 2.9 0  2.336708860759494 2.9 0  2.329113924050633 2.9 0  2.321518987341773 2.9 0  2.313924050632912 2.9 0  2.306329113924051 2.9 0  2.29873417721519 2.9 0  2.291139240506329 2.9 0  2.283544303797469 2.9 0  2.275949367088608 2.9 0  2.268354430379747 2.9 0  2.260759493670887 2.9 0  2.253164556962026 2.9 0  2.245569620253165 2.9 0  2.237974683544304 2.9 0  2.230379746835443 2.9 0  2.222784810126583 2.9 0  2.215189873417722 2.9 0  2.207594936708861 2.9 0  4.96271186440678 2.9 0  4.925423728813559 2.9 0  4.888135593220339 2.9 0  4.850847457627118 2.9 0  4.813559322033898 2.9 0  4.776271186440677 2.9 0  4.738983050847457 2.9 0  4.701694915254237 2.9 0  4.664406779661016 2.9 0  4.627118644067796 2.9 0  4.589830508474575 2.9 0  4.552542372881355 2.9 0  4.515254237288135 2.9 0  4.477966101694914 2.9 0  4.440677966101694 2.9 0  4.403389830508473 2.9 0  4.366101694915252 2.9 0  4.328813559322032 2.9 0  4.291525423728811 2.9 0  4.254237288135591 2.9 0  4.21694915254237 2.9 0  4.17966101694915 2.9 0  4.14237288135593 2.9 0  4.105084745762709 2.9 0  4.067796610169489 2.9 0  4.030508474576268 2.9 0  3.993220338983048 2.9 0  3.955932203389827 2.9 0  3.918644067796607 2.9 0  3.881355932203387 2.9 0  3.844067796610166 2.9 0  3.806779661016946 2.9 0  3.769491525423725 2.9 0  3.732203389830505 2.9 0  3.694915254237285 2.9 0  3.657627118644065 2.9 0  3.620338983050845 2.9 0  3.583050847457625 2.9 0  3.545762711864405 2.9 0  3.508474576271184 2.9 0  3.471186440677964 2.9 0  3.433898305084744 2.9 0  3.396610169491524 2.9 0  3.359322033898303 2.9 0  3.322033898305083 2.9 0  3.284745762711863 2.9 0  3.247457627118643 2.9 0  3.210169491525423 2.9 0  3.172881355932202 2.9 0  3.135593220338982 2.9 0  3.098305084745762 2.9 0  3.061016949152542 2.9 0  3.023728813559321 2.9 0  2.986440677966101 2.9 0  2.949152542372881 2.9 0  2.911864406779661 2.9 0  2.87457627118644 2.9 0  2.83728813559322 2.9 0  5 0.1063822625082082 0  5 0.210636880010749 0  5 0.3128064053694972 0  5 0.4129325400644018 0  5 0.5110561521032336 0  5 0.6072172918830103 0  5 0.7014552087832795 0  5 0.7938083674443693 0  5 0.88431446261646 0  5 0.9730104359544682 0  5 1.059932489996267 0  5 1.145116102913299 0  5 1.228596043483191 0  5 1.310406385079062 0  5 1.390580519944147 0  5 1.469151172477827 0  5 1.546150411986101 0  5 1.621609666658609 0  5 1.695559736099044 0  5 1.76803080383987 0  5 1.839052450169751 0  5 1.908653663631169 0  5 1.97686285289587 0  5 2.043707858613779 0  5 2.109215964341413 0  5 2.173413907925942 0  5 2.236327892833935 0  5 2.297983597762904 0  5 2.35840618845912 0  5 2.41762032730194 0  5 2.475650183444628 0  5 2.532519442457069 0  5 2.588251316112828 0  5 2.642868552557322 0  5 2.696393444426347 0  5 2.748847838312051 0  5 2.800253144313381 0  5 2.850630344319807 0  0.2631578947368421 0 0  0.5263157894736842 0 0  0.7894736842105263 0 0  1.052631578947368 0 0  1.31578947368421 0 0  1.578947368421053 0 0  1.842105263157895 0 0  2.105263157894737 0 0  2.368421052631579 0 0  2.631578947368421 0 0  2.894736842105263 0 0  3.157894736842105 0 0  3.421052631578947 0 0  3.684210526315789 0 0  3.947368421052632 0 0  4.210526315789473 0 0  4.473684210526315 0 0  4.736842105263158 0 0  0 2.850203682350569 0  0 2.799411438503675 0  0 2.747603349778291 0  0 2.694759099502208 0  0 2.640857964382145 0  0 2.58587880633613 0  0 2.52980006535898 0  0 2.472599749459174 0  0 2.414255427218689 0  0 2.35474421880616 0  0 2.294042786119219 0  0 2.232127324764723 0  0 2.1689735539481 0  0 2.104556707683347 0  0 2.038851524813415 0  0 1.971832238155655 0  0 1.903472565412126 0  0 1.83374569926617 0  0 1.762624296208475 0  0 1.690080464918761 0  0 1.616085756774206 0  0 1.540611154706337 0  0 1.463627060685571 0  0 1.385103284916206 0  0 1.305009033716617 0  0 1.223312897337225 0  0 1.139982838163732 0  0 1.054986177579938 0  0 0.9682895835804817 0  0 0.8798590579197976 0  0 0.7896599218415354 0  0 0.6976568029903638 0  0 0.6038136217958798 0  0 0.508093576867624 0  0 0.4104591310957497 0  0 0.3108719963522191 0  0 0.2092931188294389 0  0 0.1056826638508546 0  1.434832105763824 2.866945754981483 0  1.737156300467626 2.870039440267515 0  2.032203389830508 2.867707527316512 0  2.332911392405064 2.893422591869991 0  2.469810913293406 2.891944186606167 0  2.606221408823969 2.892519154985628 0  2.255455320628894 2.892068685006691 0  2.538247299216212 2.894964578182811 0  2.674683544303798 2.893422591869991 0  2.40126582278481 2.893422591869991 0  3.566125247295424 2.865029336199714 0  3.266101694915253 2.867707527316512 0  2.967796610169491 2.867707527316512 0  1.174288529834642 2.870795313888584 0  3.825423728813556 2.867707527316512 0  2.727766680262011 2.892655387647729 0  0.06601655192030442 1.502119107695954 0  4.933983535508361 1.507650792231964 0  0.9532124728485543 2.868722489783638 0  4.048935912500257 2.870640982995992 0  0.05930163367361763 1.866907161167414 0  4.943402512618553 1.871280731473148 0  4.271733870017743 2.86520865624265 0  0.7249420921613114 2.863922936177041 0  0.05494499779910056 2.196469063120752 0  4.947228695426367 2.208030108792719 0  0.5406152150397161 2.866493807382013 0  4.459322033898304 2.868847558178794 0  2.18135593220339 2.875780645487384 0  2.817027156509632 2.876587550645167 0  4.928427208322876 1.186856073198245 0  0.07189226971603224 1.174626666111662 0  4.610299014423113 2.867003104093161 0  0.3897270066746357 2.869433095314657 0  1.581132500042262 2.868247328632392 0  1.887637879411437 2.869235851794358 0  3.413449426418068 2.867372048034327 0  3.116721298814773 2.865731235547652 0  2.644303797468355 2.893422591869991 0  2.370983221828106 2.892719513369796 0  2.302531645569621 2.893336787387268 0  2.758987341772152 2.894242393897099 0  0.04979653335696277 2.443411216910286 0  4.950470983477169 2.446866954595817 0  2.482937483021586 0.2513241087417575 0  1.707129504814338 0.1999998659920923 0  3.28584657955054 0.229200625631625 0  4.907807122600524 0.834082362900164 0  4.757627118644067 2.867707527316512 0  0.0773489124676745 0.8347594898806663 0  0.2390604736599387 2.861365431805741 0  0.8363213715215729 2.863896768908178 0  4.160865610207075 2.868916854015731 0  1.282549332053297 2.867610952980761 0  1.065094818402487 2.861284686038041 0  3.93818127737282 2.86865134411395 0  3.711492629432973 2.863574306925269 0  4.91369361998929 0.5579891344254361 0  0.08208328472281323 0.5559535993317519 0  2.696596932532885 2.892010483922337 0  0.04706410140274553 2.613055974506516 0  4.955577063972248 2.616518038840186 0  2.234177215189874 2.893422591869991 0  2.279795840559739 2.89403861893984 0  0.9117357887652362 0.2117925286661764 0  4.055948041993057 0.2039101057937727 0  4.872119713780579 2.867632926423075 0  2.780113878992455 2.891535929611743 0  0.1327442468251063 2.85
[...]
<PointData  Vectors="displacement"> 
<DataArray  type="Float64"  Name="displacement"  NumberOfComponents="3" format="ascii">1.2303639521240057e-03 -6.4383374500071545e-03 0.0000000000000000e+00  0.0000000000000000e+00 -2.6510323960972712e-04 0.0000000000000000e+00  -1.2320534108861039e-03 -6.4386014954246453e-03 0.0000000000000000e+00  0.0000000000000000e+00 -2.6510355638444767e-04 0.0000000000000000e+00  0.0000000000000000e+00 0.0000000000000000e+00 0.0000000000000000e+00  0.0000000000000000e+00 0.0000000000000000e+00 0.0000000000000000e+00  1.2195415598004688e-03 -5.6980456575154107e-03 0.0000000000000000e+00  1.1950974396624781e-03 -5.2095211885032451e-03 0.0000000000000000e+00  1.1709863353015204e-03 -4.8164027736986269e-03 0.0000000000000000e+00  1.1470122544330957e-03 -4.4811661172767473e-03 0.0000000000000000e+00  1.1230706685317106e-03 -4.1870496228161129e-03 0.0000000000000000e+00  1.0991791913095876e-03 -3.9243798760598501e-03 0.0000000000000000e+00  1.0753627874131562e-03 -3.6868296881167914e-03 0.0000000000000000e+00  1.0516267125457997e-03 -3.4699875946941649e-03 0.0000000000000000e+00  1.0279952279366937e-03 -3.2705744546506891e-03 0.0000000000000000e+00  1.0044596958129594e-03 -3.0861447670252752e-03 0.0000000000000000e+00  9.8102729692660243e-04 -2.9147974124649379e-03 0.0000000000000000e+00  9.5770339909702806e-04 -2.7549790569148967e-03 0.0000000000000000e+00  9.3449701279624438e-04 -2.6054168490146591e-03 0.0000000000000000e+00  9.1140783947528284e-04 -2.4650716678019827e-03 0.0000000000000000e+00  8.8844119189093892e-04 -2.3330738614152865e-03 0.0000000000000000e+00  8.6559977565108166e-04 -2.2086795070923185e-03 0.0000000000000000e+00  8.4288842339999277e-04 -2.0912519608378127e-03 0.0000000000000000e+00  8.2030464821091983e-04 -1.9802394107269897e-03 0.0000000000000000e+00  7.9785501273081877e-04 -1.8751587349929290e-03 0.0000000000000000e+00  7.7554103736002873e-04 -1.7755893964212896e-03 0.0000000000000000e+00  7.5336463923929514e-04 -1.6811603526558445e-03 0.0000000000000000e+00  7.3132658694752056e-04 -1.5915423468051144e-03 0.0000000000000000e+00  7.0942934977071416e-04 -1.5064364694997671e-03 0.0000000000000000e+00  6.8767124801808225e-04 -1.4255801825596758e-03 0.0000000000000000e+00  6.6605468425480398e-04 -1.3487379754243591e-03 0.0000000000000000e+00  6.4458026705908433e-04 -1.2756930449748620e-03 0.0000000000000000e+00  6.2324747059118641e-04 -1.2062480890050193e-03 0.0000000000000000e+00  6.0205414776998167e-04 -1.1402290942907070e-03 0.0000000000000000e+00  5.8100409187909427e-04 -1.0774739421881248e-03 0.0000000000000000e+00  5.6009012490755908e-04 -1.0178310941525920e-03 0.0000000000000000e+00  5.3931585122984080e-04 -9.6116719790173772e-04 0.0000000000000000e+00  5.1867860135814705e-04 -9.0735915377506500e-04 0.0000000000000000e+00  4.9817465818772220e-04 -8.5629404844083789e-04 0.0000000000000000e+00  4.7780356232778070e-04 -8.0786188745579526e-04 0.0000000000000000e+00  4.5756205134848222e-04 -7.6196870616216110e-04 0.0000000000000000e+00  4.3744805971627642e-04 -7.1852358413984272e-04 0.0000000000000000e+00  4.1745779613305346e-04 -6.7744294968751515e-04 0.0000000000000000e+00  3.9758842791357777e-04 -6.3865174403492163e-04 0.0000000000000000e+00  3.7783634074026683e-04 -6.0207802838013725e-04 0.0000000000000000e+00  3.5819756526420175e-04 -5.6765649822866084e-04 0.0000000000000000e+00  3.3866812432744025e-04 -5.3532669105864935e-04 0.0000000000000000e+00  3.1924381975570394e-04 -5.0503260896095760e-04 0.0000000000000000e+00  2.9991972771196653e-04 -4.7672236258600517e-04 0.0000000000000000e+00  2.8069150548045682e-04 -4.5034886915985161e-04 0.0000000000000000e+00  2.6155401102054596e-04 -4.2586793909565738e-04 0.0000000000000000e+00  2.4250219672828085e-04 -4.0323970351063983e-04 0.0000000000000000e+00  2.2353069023836104e-04 -3.8242739674556188e-04 0.0000000000000000e+00  2.0463402855163391e-04 -3.6339778867781105e-04 0.0000000000000000e+00  1.8580647528204834e-04 -3.4612042042962384e-04 0.0000000000000000e+00  1.6704217292181264e-04 -3.3056821821950865e-04 0.0000000000000000e+00  1.4833575908555091e-04 -3.1671700085774020e-04 0.0000000000000000e+00  1.2968002193379470e-04 -3.0454471736235248e-04 0.0000000000000000e+00  1.1106958062244025e-04 -2.9403272030955837e-04 0.0000000000000000e+00  9.2498156357139592e-05 -2.8516523606880772e-04 0.0000000000000000e+00  7.3959710762422620e-05 -2.7792841611247107e-04 0.0000000000000000e+00  5.5446590295409257e-05 -2.7231102206616911e-04 0.0000000000000000e+00  3.6953370402251761e-05 -2.6830464610046227e-04 0.0000000000000000e+00  1.8473332364474664e-05 -2.6590327299092561e-04 0.0000000000000000e+00  -1.2145658379699741e-03 -6.6637887707875426e-03 0.0000000000000000e+00  -1.1818828977451159e-03 -6.8261451804112090e-03 0.0000000000000000e+00  -1.1499126039393752e-03 -6.9648623464079558e-03 0.0000000000000000e+00  -1.1180983918531646e-03 -7.0888046662405651e-03 0.0000000000000000e+00  -1.0865064928042483e-03 -7.2018931134523066e-03 0.0000000000000000e+00  -1.0549432698576690e-03 -7.3062367688457855e-03 0.0000000000000000e+00  -1.0234015922289646e-03 -7.4032576477988995e-03 0.0000000000000000e+00  -9.9187366327526793e-04 -7.4939051326568442e-03 0.0000000000000000e+00  -9.6034638087591192e-04 -7.5789040460155282e-03 0.0000000000000000e+00  -9.2882996641185380e-04 -7.6588263641871705e-03 0.0000000000000000e+00  -8.9732201525936244e-04 -7.7341195605930141e-03 0.0000000000000000e+00  -8.6581636079407294e-04 -7.8051451892073073e-03 0.0000000000000000e+00  -8.3431403680392152e-04 -7.8722079515626091e-03 0.0000000000000000e+00  -8.0281516860301156e-04 -7.9355570930344753e-03 0.0000000000000000e+00  -7.7131588308139724e-04 -7.9954038727417555e-03 0.0000000000000000e+00  -7.3982071763364313e-04 -8.0519390561201148e-03 0.0000000000000000e+00  -7.0832731115642508e-04 -8.1053204688949117e-03 0.0000000000000000e+00  -6.7683585345572935e-04 -8.1556864364200673e-03 0.0000000000000000e+00  -6.4534595495796348e-04 -8.2031599123340918e-03 0.0000000000000000e+00  -6.1385733761651535e-04 -8.2478485052411340e-03 0.0000000000000000e+00  -5.8237002558179495e-04 -8.2898479341125281e-03 0.0000000000000000e+00  -5.5088397352355566e-04 -8.3292433473614123e-03 0.0000000000000000e+00  -5.1939892245411420e-04 -8.3661101274054503e-03 0.0000000000000000e+00  -4.8791502969435050e-04 -8.4005163230986921e-03 0.0000000000000000e+00  -4.5643210439206264e-04 -8.4325226778547702e-03 0.0000000000000000e+00  -4.2495004730310349e-04 -8.4621828293454156e-03 0.0000000000000000e+00  -3.9346922205116155e-04 -8.4895453128173721e-03 0.0000000000000000e+00  -3.6198860791015255e-04 -8.5146528610195362e-03 0.0000000000000000e+00  -3.3050881877020146e-04 -8.5375445100370744e-03 0.0000000000000000e+00  -2.9902979799543685e-04 -8.5582542438334009e-03 0.0000000000000000e+00  -2.6755139588836120e-04 -8.5768122975077628e-03 0.0000000000000000e+00  -2.3607340374572961e-04 -8.5932449405382357e-03 0.0000000000000000e+00  -2.0459585065701996e-04 -8.6075752687568424e-03 0.0000000000000000e+00  -1.7311880227451065e-04 -8.6198230381318713e-03 0.0000000000000000e+00  -1.4164180817583238e-04 -8.6300043917496416e-03 0.0000000000000000e+00  -1.1016563533311405e-04 -8.6381336438347920e-03 0.0000000000000000e+00  -7.8689141908481417e-05 -8.6442212790538084e-03 0.0000000000000000e+00  -4.7212906797940320e-05 -8.6482751469220721e-03 0.0000000000000000e+00  -1.5736874279860252e-05 -8.6503007832613079e-03 0.0000000000000000e+00  1.5739161366970265e-05 -8.6503007442831452e-03 0.0000000000000000e+00  4.7215225485697972e-05 -8.6482750167280967e-03 0.0000000000000000e+00  7.8691383223752261e-05 -8.6442209864231907e-03 0.0000000000000000e+00  1.1016769702049154e-04 -8.6381334158605206e-03 0.0000000000000000e+00  1.4164414995291395e-04 -8.6300041285058294e-03 0.0000000000000000e+00  1.7312097734200284e-04 -8.6198223302705324e-03 0.0000000000000000e+00  2.0459806229124997e-04 -8.6075746814690442e-03 0.0000000000000000e+00  2.3607556930441273e-04 -8.5932443751119657e-03 0.0000000000000000e+00  2.6755351620118278e-04 -8.5768116562837150e-03 0.0000000000000000e+00  2.9903207423001815e-04 -8.5582536348625653e-03 0.0000000000000000e+00  3.3051110349262047e-04 -8.5375437121335222e-03 0.0000000000000000e+00  3.6199081763156171e-04 -8.5146520783302131e-03 0.0000000000000000e+00  3.9347148657117165e-04 -8.4895442676232325e-03 0.0000000000000000e+00  4.2495253667182512e-04 -8.4621817540897655e-03 0.0000000000000000e+00  4.5643459275069534e-04 -8.4325218250623502e-03 0.0000000000000000e+00  4.8791756074141536e-04 -8.4005157451778872e-03 0.0000000000000000e+00  5.1940154199030958e-04 -8.3661094949277932e-03 0.0000000000000000e+00  5.5088643967382740e-04 -8.3292424777989069e-03 0.0000000000000000e+00  5.8237305176951702e-04 -8.2898474223604777e-03 0.0000000000000000e+00  6.1386090809654504e-04 -8.2478470080817375e-03 0.0000000000000000e+00  6.4534984758383388e-04 -8.2031584029636419e-03 0.0000000000000000e+00  6.7684013944510049e-04 -8.1556848042263607e-03 0.0000000000000000e+00  7.0833217320371233e-04 -8.1053184738651141e-03 0.0000000000000000e+00  7.3982597815788937e-04 -8.0519370067822921e-03 0.0000000000000000e+00  7.7132189498259904e-04 -7.9954009201557239e-03 0.0000000000000000e+00  8.0282004697547298e-04 -7.9355511921617074e-03 0.0000000000000000e+00  8.3432129770462187e-04 -7.8722026644746559e-03 0.0000000000000000e+00  8.6582429616939452e-04 -7.8051402943622138e-03 0.0000000000000000e+00  8.9733068333890771e-04 -7.7341115316534315e-03 0.0000000000000000e+00  9.2884319685711410e-04 -7.6588214475541618e-03 0.0000000000000000e+00  9.6035760385469260e-04 -7.5788974501469521e-03 0.0000000000000000e+00  9.9187730572284543e-04 -7.4938899703486210e-03 0.0000000000000000e+00  1.0234100373451062e-03 -7.4032446606648768e-03 0.0000000000000000e+00  1.0549617962139787e-03 -7.3062445086646260e-03 0.0000000000000000e+00  1.0865200008296793e-03 -7.2018725576690756e-03 0.0000000000000000e+00  1.1180963606375667e-03 -7.0887540923613938e-03 0.0000000000000000e+00  1.1496512043523389e-03 -6.9648498549459295e-03 0.0000000000000000e+00  1.1820918507591187e-03 -6.8266050754613025e-03 0.0000000000000000e+00  1.2143932306231742e-03 -6.6632746586949660e-03 0.0000000000000000e+00  -1.8473476980937370e-05 -2.6590352331145440e-04 0.0000000000000000e+00  -3.6953516527840001e-05 -2.6830492973654282e-04 0.0000000000000000e+00  -5.5446623198084918e-05 -2.7231121751243841e-04 0.0000000000000000e+00  -7.3959376124358833e-05 -2.7792857215522043e-04 0.0000000000000000e+00  -9.2498188852276680e-05 -2.8516541436357382e-04 0.0000000000000000e+00  -1.1106987572051649e-04 -2.9403317375876022e-04 0.0000000000000000e+00  -1.2967999318778684e-04 -3.0454486167742940e-04 0.0000000000000000e+00  -1.4833548694953840e-04 -3.1671702618031892e-04 0.0000000000000000e+00  -1.6704225611457668e-04 -3.3056841833145351e-04 0.0000000000000000e+00  -1.8580651576220774e-04 -3.4612071184124009e-04 0.0000000000000000e+00  -2.0463403405010644e-04 -3.6339807892188668e-04 0.0000000000000000e+00  -2.2353078157480793e-04 -3.8242779109078155e-04 0.0000000000000000e+00  -2.4250225760658436e-04 -4.0324008681976971e-04 0.0000000000000000e+00  -2.6155402551006986e-04 -4.2586832537671340e-04 0.0000000000000000e+00  -2.8069145733252549e-04 -4.5034916802594733e-04 0.0000000000000000e+00  -2.9991966641907444e-04 -4.7672272526168215e-04 0.0000000000000000e+00  -3.1924364504097742e-04 -5.0503269520961501e-04 0.0000000000000000e+00  -3.3866815807057896e-04 -5.3532707855175879e-04 0.0000000000000000e+00  -3.5819745243338046e-04 -5.6765699892178680e-04 0.0000000000000000e+00  -3.7783626225189635e-04 -6.0207877053722932e-04 0.0000000000000000e+00  -3.9758896588978313e-04 -6.3865277489736673e-04 0.0000000000000000e+00  -4.1745756703266831e-04 -6.7744352585569114e-04 0.0000000000000000e+00  -4.3744782908789186e-04 -7.1852354593549960e-04 0.0000000000000000e+00  -4.5756195594559242e-04 -7.6196894160416814e-04 0.0000000000000000e+00  -4.7780323673644572e-04 -8.0786250779621308e-04 0.0000000000000000e+00  -4.9817434588375501e-04 -8.5629396243704070e-04 0.0000000000000000e+00  -5.1867784158919118e-04 -9.0736064510994676e-04 0.0000000000000000e+00  -5.3931575380731774e-04 -9.6116799891528867e-04 0.0000000000000000e+00  -5.6009030933407492e-04 -1.0178306212429468e-03 0.0000000000000000e+00  -5.8100288293761501e-04 -1.0774724294011025e-03 0.0000000000000000e+00  -6.0205460504445993e-04 -1.1402291386534891e-03 0.0000000000000000e+00  -6.2324626905365234e-04 -1.2062481197807270e-03 0.0000000000000000e+00  -6.4458237587853196e-04 -1.2756926532826905e-03 0.0000000000000000e+00  -6.6605439744104277e-04 -1.3487385709513302e-03 0.0000000000000000e+00  -6.8767096876916345e-04 -1.4255823963629038e-03 0.0000000000000000e+00  -7.0942863771322274e-04 -1.5064372105279818e-03 0.0000000000000000e+00  -7.3132732890751465e-04 -1.5915413840756369e-03 0.0000000000000000e+00  -7.5336457367063505e-04 -1.6811601793567511e-03 0.0000000000000000e+00  -7.7554064878977648e-04 -1.7755890410366137e-03 0.0000000000000000e+00  -7.9785430104460978e-04 -1.8751577055547547e-03 0.0000000000000000e+00  -8.2030407512297685e-04 -1.9802381307512332e-03 0.0000000000000000e+00  -8.4288633399256618e-04 -2.0912532876341998e-03 0.0000000000000000e+00  -8.6560133443895388e-04 -2.2086825033327873e-03 0.0000000000000000e+00  -8.8844370135943574e-04 -2.3330757421812526e-03 0.0000000000000000e+00  -9.1140859467890470e-04 -2.4650704343468907e-03 0.0000000000000000e+00  -9.3449416219934024e-04 -2.6054137725590228e-03 0.0000000000000000e+00  -9.5770145501492671e-04 -2.7549760760195254e-03 0.0000000000000000e+00  -9.8102467242326924e-04 -2.9148044378089579e-03 0.0000000000000000e+00  -1.0044575165348022e-03 -3.0861566602624233e-03 0.0000000000000000e+00  -1.0279986367114828e-03 -3.2705652890105616e-03 0.0000000000000000e+00  -1.0516292839419616e-03 -3.4699900486634999e-03 0.0000000000000000e+00  -1.0753728601502481e-03 -3.6868180178875141e-03 0.0000000000000000e+00  -1.0991787521218213e-03 -3.9243862916853401e-03 0.0000000000000000e+00  -1.1230508575136029e-03 -4.1870746680896442e-03 0.0000000000000000e+00  -1.1469914724286628e-03 -4.4811648734305546e-03 0.0000000000000000e+00  -1.1711002684046993e-03 -4.8163847544841114e-03 0.0000000000000000e+00  -1.1947923414999360e-03 -5.2097079042141186e-03 0.0000000000000000e+00  -1.2197741471120841e-03 -5.6977041460893382e-03 0.0000000000000000e+00  0.0000000000000000e+00 -5.1449034089565787e-05 0.0000000000000000e+00  0.0000000000000000e+00 -9.6106326013955243e-05 0.0000000000000000e+00  0.0000000000000000e+00 -1.3480306203503980e-04 0.0000000000000000e+00  0.0000000000000000e+00 -1.6824727686791963e-04 0.0000000000000000e+00  0.0000000000000000e+00 -1.9697702690788776e-04 0.0000000000000000e+00  0.0000000000000000e+00 -2.2143509302788888e-04 0.0000000000000000e+00  0.0000000000000000e+00 -2.4199202576188905e-04 0.0000000000000000e+00  0.0000000000000000e+00 -2.5896499300951092e-04 0.0000000000000000e+00  0.0000000000000000e+00 -2.7260593889093465e-04 0.0000000000000000e+00  0.0000000000000000e+00 -2.8319166649856952e-04 0.0000000000000000e+00  0.0000000000000000e+00 -2.9094563180880945e-04 0.0000000000000000e+00  0.0000000000000000e+00 -2.9609998529980894e-04 0.0000000000000000e+00  0.0000000000000000e+00 -2.9889179030010571e-04 0.0000000000000000e+00  0.0000000000000000e+00 -2.9955515878487735e-04 0.0000000000000000e+00  0.0000000000000000e+00 -2.9833042891651588e-04 0.0000000000000000e+00  0.0000000000000000e+00 -2.9546484191714288e-04 0.0000000000000000e+00  0.0000000000000000e+00 -2.9121426365725421e-04 0.0000000000000000e+00  0.0000000000000000e+00 -2.8583403858434693e-04 0.0000000000000000e+00  0.0000000000000000e+00 -2.7958202327592536e-04 0.0000000000000000e+00  0.0000000000000000e+00 -2.7271542352704387e-04 0.0000000000000000e+00  0.0000000000000000e+00 -2.6548741070983801e-04 0.0000000000000000e+00  0.0000000000000000e+00 -2.5814176877941668e-04 0.0000000000000000e+00  0.0000000000000000e+00 -2.5091399071111836e-04 0.0000000000000000e+00  0.0000000000000000e+00 -2.4401853523815272e-04 0.0000000000000000e+00  0.0000000000000000e+00 -2.3766021344894610e-04 0.0000000000000000e+00  0.0000000000000000e+00 -2.3202374350773404e-04 0.0000000000000000e+00  0.0000000000000000e+00 -2.2726463715827197e-04 0.0000000000000000e+00  0.0000000000000000e+00 -2.2352377701323809e-04 0.0000000000000000e+00  0.0000000000000000e+00 -2.2091338904669120e-04 0.0000000000000000e+00  0.0000000000000000e+00 -2.1952163486839681e-04 0.0000000000000000e+00  0.0000000000000000e+00 -2.1941274340667104e-04 0.0000000000000000e+00  0.0000000000000000e+00 -2.2062605214237912e-04 0.0000000000000000e+00  0.0000000000000000e+00 -2.2317843931268444e-04 0.0000000000000000e+00  0.0000000000000000e+00 -2.2706582590569134e-04 0.0000000000000000e+00  0.0000000000000000e+00 -2.3226396276415453e-04 0.0000000000000000e+00  0.0000000000000000e+00 -2.3873077329279721e-04 0.0000000000000000e+00  0.0000000000000000e+00 -2.4640853197838185e-04 0.0000000000000000e+00  0.0000000000000000e+00 -2.5522671088167416e-04 0.0000000000000000e+00  0.0000000000000000e+00 0.0000000000000000e+00 0.0000000000000000e+00  0.0000000000000000e+00 0.0000000000000000e+00 0.0000000000000000e+00  0.0000000000000000e+00 0.0000000000000000e+00 0.0000000000000000e+00  0.0000000000000000e+00 0.0000000000000000e+00 0.0000000000000000e+00  0.0000000000000000e+00 0.0000000000000000e+00 0.0000000000000000e+00  0.0000000000000000e+00 0.0000000000000000e+00 0.0000000000000000e+00  0.0000000000000000e+00 0.0000000000000000e+00 0.0000000000000000e+00  0.0000000000000000e+00 0.0000000000000000e+00 0.0000000000000000e+00  0.0000000000000000e+00 0.0000000000000000e+00 0.0000000000000000e+00  0.0000000000000000e+00 0.0000000000000000e+00 0.0000000000000000e+00  0.0000000000000000e+00 0.0000000000000000e+00 0.0000000000000000e+00  0.0000000000000000e+00 0.0000000000000000e+00 0.0000000000000000e+00  0.0000000000000000e+00 0.0000000000000000e+00 0.0000000000000000e+00  0.0000000000000000e+00 0.0000000000000000e+00 0.0000000000000000e+00  0.0000000000000000e+00 0.0000000000000000e+00 0.0000000000000000e+00  0.0000000000000000e+00 0.0000000000000000e+00 0.0000000000000000e+00  0.0000000000000000e+00 0.0000000000000000e+00 0.0000000000000000e+00  0.0000000000000000e+00 0.0000000000000000e+00 0.0000000000000000e+00  0.0000000000000000e+00 -2.5514646502629892e-04 0.0000000000000000e+00  0.0000000000000000e+00 -2.4627185386200297e-04 0.0000000000000000e+00  0.0000000000000000e+00 -2.3856118674068960e-04 0.0000000000000000e+00  0.0000000000000000e+00 -2.3208414278613301e-04 0.0000000000000000e+00  0.0000000000000000e+00 -2.2689741538806359e-04 0.0000000000000000e+00  0.0000000000000000e+00 -2.2304093714019396e-04 0.0000000000000000e+00  0.0000000000000000e+00 -2.2053630730574535e-04 0.0000000000000000e+00  0.0000000000000000e+00 -2.1938507946553458e-04 0.0000000000000000e+00  0.0000000000000000e+00 -2.1956717850335215e-04 0.0000000000000000e+00  0.0000000000000000e+00 -2.2103849235264041e-04 0.0000000000000000e+00  0.0000000000000000e+00 -2.2373279518343072e-04 0.0000000000000000e+00  0.0000000000000000e+00 -2.2755360423988365e-04 0.0000000000000000e+00  0.0000000000000000e+00 -2.3238902250773312e-04 0.0000000000000000e+00  0.0000000000000000e+00 -2.3809495666430935e-04 0.0000000000000000e+00  0.0000000000000000e+00 -2.4450886795958371e-04 0.0000000000000000e+00  0.0000000000000000e+00 -2.5144211864006570e-04 0.0000000000000000e+00  0.0000000000000000e+00 -2.5869169294750311e-04 0.0000000000000000e+00  0.0000000000000000e+00 -2.6604008091710049e-04 0.0000000000000000e+00  0.0000000000000000e+00 -2.7324891085347844e-04 0.0000000000000000e+00  0.0000000000000000e+00 -2.8007428313592145e-04 0.0000000000000000e+00  0.0000000000000000e+00 -2.8626460007723459e-04 0.0000000000000000e+00  0.0000000000000000e+00 -2.9156450689018490e-04 0.0000000000000000e+00  0.0000000000000000e+00 -2.9571767979262955e-04 0.00000000000