<?xml version="1.0"?>
<VTKFile type="UnstructuredGrid"  version="0.1"  >
<UnstructuredGrid>
<Piece  NumberOfPoints="3167" NumberOfCells="6038">
<Points>
<DataArray  type="Float64"  NumberOfComponents="3"  format="ascii">2.2 2.9 0  0 2.9 0  2.8 2.9 0  5 2.9 0  5 0 0  0 0 0  2.16271186440678 2.9 0  2.125423728813559 2.9 0  2.088135593220339 2.9 0  2.050847457627119 2.9 0  2.013559322033898 2.9 0  1.976271186440678 2.9 0  1.938983050847457 2.9 0  1.901694915254237 2.9 0  1.864406779661016 2.9 0  1.827118644067796 2.9 0  1.789830508474575 2.9 0  1.752542372881355 2.9 0  1.715254237288134 2.9 0  1.677966101694914 2.9 0  1.640677966101693 2.9 0  1.603389830508473 2.9 0  1.566101694915253 2.9 0  1.528813559322032 2.9 0  1.491525423728812 2.9 0  1.454237288135591 2.9 0  1.416949152542371 2.9 0  1.37966101694915 2.9 0  1.34237288135593 2.9 0  1.305084745762709 2.9 0  1.267796610169489 2.9 0  1.230508474576268 2.9 0  1.193220338983048 2.9 0  1.155932203389827 2.9 0  1.118644067796607 2.9 0  1.081355932203387 2.9 0  1.044067796610166 2.9 0  1.006779661016946 2.9 0  0.9694915254237257 2.9 0  0.9322033898305055 2.9 0  0.8949152542372856 2.9 0  0.8576271186440652 2.9 0  0.820338983050845 2.9 0  0.783050847457625 2.9 0  0.7457627118644048 2.9 0  0.7084745762711844 2.9 0  0.6711864406779642 2.9 0  0.633898305084744 2.9 0  0.5966101694915238 2.9 0  0.5593220338983036 2.9 0  0.5220338983050834 2.9 0  0.4847457627118632 2.9 0  0.447457627118643 2.9 0  0.4101694915254228 2.9 0  0.3728813559322024 2.9 0  0.3355932203389822 2.9 0  0.2983050847457622 2.9 0  0.2610169491525418 2.9 0  0.2237288135593216 2.9 0  0.1864406779661016 2.9 0  0.1491525423728812 2.9 0  0.1118644067796613 2.9 0  0.07457627118644039 2.9 0  0.03728813559321997 2.9 0  2.792405063291139 2.9 0  2.784810126582279 2.9 0  2.777215189873418 2.9 0  2.769620253164557 2.9 0  2.762025316455697 2.9 0  2.754430379746836 2.9 0  2.746835443037975 2.9 0  2.739240506329114 2.9 0  2.731645569620254 2.9 0  2.724050632911393 2.9 0  2.716455696202532 2.9 0  2.708860759493671 2.9 0  2.701265822784811 2.9 0  2.69367088607595 2.9 0  2.686075949367089 2.9 0  2.678481012658228 2.9 0  2.670886075949368 2.9 0  2.663291139240507 2.9 0  2.655696202531646 2.9 0  2.648101265822786 2.9 0  2.640506329113925 2.9 0  2.632911392405064 2.9 0  2.625316455696203 2.9 0  2.617721518987342 2.9 0  2.610126582278482 2.9 0  2.602531645569621 2.9 0  2.59493670886076 2.9 0  2.587341772151899 2.9 0  2.579746835443038 2.9 0  2.572151898734178 2.9 0  2.564556962025317 2.9 0  2.556962025316456 2.9 0  2.549367088607595 2.9 0  2.541772151898734 2.9 0  2.534177215189874 2.9 0  2.526582278481013 2.9 0  2.518987341772152 2.9 0  2.511392405063292 2.9 0  2.503797468354431 2.9 0  2.49620253164557 2.9 0  2.488607594936709 2.9 0  2.481012658227848 2.9 0  2.473417721518988 2.9 0  2.465822784810127 2.9 0  2.458227848101266 2.9 0  2.450632911392406 2.9 0  2.443037974683545 2.9 0  2.435443037974684 2.9 0  2.427848101265823 2.9 0  2.420253164556962 2.9 0  2.412658227848102 2.9 0  2.405063291139241 2.9 0  2.39746835443038 2.9 0  2.389873417721519 2.9 0  2.382278481012658 2.9 0  2.374683544303798 2.9 0  2.367088607594937 2.9 0  2.359493670886076 2.9 0  2.351898734177215 2.9 0  2.344303797468355 2.9 0  2.336708860759494 2.9 0  2.329113924050633 2.9 0  2.321518987341773 2.9 0  2.313924050632912 2.9 0  2.306329113924051 2.9 0  2.29873417721519 2.9 0  2.291139240506329 2.9 0  2.283544303797469 2.9 0  2.275949367088608 2.9 0  2.268354430379747 2.9 0  2.260759493670887 2.9 0  2.253164556962026 2.9 0  2.245569620253165 2.9 0  2.237974683544304 2.9 0  2.230379746835443 2.9 0  2.222784810126583 2.9 0  2.215189873417722 2.9 0  2.207594936708861 2.9 0  4.96271186440678 2.9 0  4.925423728813559 2.9 0  4.888135593220339 2.9 0  4.850847457627118 2.9 0  4.813559322033898 2.9 0  4.776271186440677 2.9 0  4.738983050847457 2.9 0  4.701694915254237 2.9 0  4.664406779661016 2.9 0  4.627118644067796 2.9 0  4.589830508474575 2.9 0  4.552542372881355 2.9 0  4.515254237288135 2.9 0  4.477966101694914 2.9 0  4.440677966101694 2.9 0  4.403389830508473 2.9 0  4.366101694915252 2.9 0  4.328813559322032 2.9 0  4.291525423728811 2.9 0  4.254237288135591 2.9 0  4.21694915254237 2.9 0  4.17966101694915 2.9 0  4.14237288135593 2.9 0  4.105084745762709 2.9 0  4.067796610169489 2.9 0  4.030508474576268 2.9 0  3.993220338983048 2.9 0  3.955932203389827 2.9 0  3.918644067796607 2.9 0  3.881355932203387 2.9 0  3.844067796610166 2.9 0  3.806779661016946 2.9 0  3.769491525423725 2.9 0  3.732203389830505 2.9 0  3.694915254237285 2.9 0  3.657627118644065 2.9 0  3.620338983050845 2.9 0  3.583050847457625 2.9 0  3.545762711864405 2.9 0  3.508474576271184 2.9 0  3.471186440677964 2.9 0  3.433898305084744 2.9 0  3.396610169491524 2.9 0  3.359322033898303 2.9 0  3.322033898305083 2.9 0  3.284745762711863 2.9 0  3.247457627118643 2.9 0  3.210169491525423 2.9 0  3.172881355932202 2.9 0  3.135593220338982 2.9 0  3.098305084745762 2.9 0  3.061016949152542 2.9 0  3.023728813559321 2.9 0  2.986440677966101 2.9 0  2.949152542372881 2.9 0  2.911864406779661 2.9 0  2.87457627118644 2.9 0  2.83728813559322 2.9 0  5 0.1063822625082082 0  5 0.210636880010749 0  5 0.3128064053694972 0  5 0.4129325400644018 0  5 0.5110561521032336 0  5 0.6072172918830103 0  5 0.7014552087832795 0  5 0.7938083674443693 0  5 0.88431446261646 0  5 0.9730104359544682 0  5 1.059932489996267 0  5 1.145116102913299 0  5 1.228596043483191 0  5 1.310406385079062 0  5 1.390580519944147 0  5 1.469151172477827 0  5 1.546150411986101 0  5 1.621609666658609 0  5 1.695559736099044 0  5 1.76803080383987 0  5 1.839052450169751 0  5 1.908653663631169 0  5 1.97686285289587 0  5 2.043707858613779 0  5 2.109215964341413 0  5 2.173413907925942 0  5 2.236327892833935 0  5 2.297983597762904 0  5 2.35840618845912 0  5 2.41762032730194 0  5 2.475650183444628 0  5 2.532519442457069 0  5 2.588251316112828 0  5 2.642868552557322 0  5 2.696393444426347 0  5 2.748847838312051 0  5 2.800253144313381 0  5 2.850630344319807 0  0.2631578947368421 0 0  0.5263157894736842 0 0  0.7894736842105263 0 0  1.052631578947368 0 0  1.31578947368421 0 0  1.578947368421053 0 0  1.842105263157895 0 0  2.105263157894737 0 0  2.368421052631579 0 0  2.631578947368421 0 0  2.894736842105263 0 0  3.157894736842105 0 0  3.421052631578947 0 0  3.684210526315789 0 0  3.947368421052632 0 0  4.210526315789473 0 0  4.473684210526315 0 0  4.736842105263158 0 0  0 2.850203682350569 0  0 2.799411438503675 0  0 2.747603349778291 0  0 2.694759099502208 0  0 2.640857964382145 0  0 2.58587880633613 0  0 2.52980006535898 0  0 2.472599749459174 0  0 2.414255427218689 0  0 2.35474421880616 0  0 2.294042786119219 0  0 2.232127324764723 0  0 2.1689735539481 0  0 2.104556707683347 0  0 2.038851524813415 0  0 1.971832238155655 0  0 1.903472565412126 0  0 1.83374569926617 0  0 1.762624296208475 0  0 1.690080464918761 0  0 1.616085756774206 0  0 1.540611154706337 0  0 1.463627060685571 0  0 1.385103284916206 0  0 1.305009033716617 0  0 1.223312897337225 0  0 1.139982838163732 0  0 1.054986177579938 0  0 0.9682895835804817 0  0 0.8798590579197976 0  0 0.7896599218415354 0  0 0.6976568029903638 0  0 0.6038136217958798 0  0 0.508093576867624 0  0 0.4104591310957497 0  0 0.3108719963522191 0  0 0.2092931188294389 0  0 0.1056826638508546 0  1.434832105763824 2.866945754981483 0  1.737156300467626 2.870039440267515 0  2.032203389830508 2.867707527316512 0  2.332911392405064 2.893422591869991 0  2.469810913293406 2.891944186606167 0  2.606221408823969 2.892519154985628 0  2.255455320628894 2.892068685006691 0  2.538247299216212 2.894964578182811 0  2.674683544303798 2.893422591869991 0  2.40126582278481 2.893422591869991 0  3.566125247295424 2.865029336199714 0  3.266101694915253 2.867707527316512 0  2.967796610169491 2.867707527316512 0  1.174288529834642 2.870795313888584 0  3.825423728813556 2.867707527316512 0  2.727766680262011 2.892655387647729 0  0.06601655192030442 1.502119107695954 0  4.933983535508361 1.507650792231964 0  0.9532124728485543 2.868722489783638 0  4.048935912500257 2.870640982995992 0  0.05930163367361763 1.866907161167414 0  4.943402512618553 1.871280731473148 0  4.271733870017743 2.86520865624265 0  0.7249420921613114 2.863922936177041 0  0.05494499779910056 2.196469063120752 0  4.947228695426367 2.208030108792719 0  0.5406152150397161 2.866493807382013 0  4.459322033898304 2.868847558178794 0  2.18135593220339 2.875780645487384 0  2.817027156509632 2.876587550645167 0  4.928427208322876 1.186856073198245 0  0.07189226971603224 1.174626666111662 0  4.610299014423113 2.867003104093161 0  0.3897270066746357 2.869433095314657 0  1.581132500042262 2.868247328632392 0  1.887637879411437 2.869235851794358 0  3.413449426418068 2.867372048034327 0  3.116721298814773 2.865731235547652 0  2.644303797468355 2.893422591869991 0  2.370983221828106 2.892719513369796 0  2.302531645569621 2.893336787387268 0  2.758987341772152 2.894242393897099 0  0.04979653335696277 2.443411216910286 0  4.950470983477169 2.446866954595817 0  2.482937483021586 0.2513241087417575 0  1.707129504814338 0.1999998659920923 0  3.28584657955054 0.229200625631625 0  4.907807122600524 0.834082362900164 0  4.757627118644067 2.867707527316512 0  0.0773489124676745 0.8347594898806663 0  0.2390604736599387 2.861365431805741 0  0.8363213715215729 2.863896768908178 0  4.160865610207075 2.868916854015731 0  1.282549332053297 2.867610952980761 0  1.065094818402487 2.861284686038041 0  3.93818127737282 2.86865134411395 0  3.711492629432973 2.863574306925269 0  4.91369361998929 0.5579891344254361 0  0.08208328472281323 0.5559535993317519 0  2.696596932532885 2.892010483922337 0  0.04706410140274553 2.613055974506516 0  4.955577063972248 2.616518038840186 0  2.234177215189874 2.893422591869991 0  2.279795840559739 2.89403861893984 0  0.9117357887652362 0.2117925286661764 0  4.055948041993057 0.2039101057937727 0  4.872119713780579 2.867632926423075 0  2.780113878992455 2.891535929611743 0  0.1327442468251063 2.85
[...]
<PointData  Vectors="displacement"> 
<DataArray  type="Float64"  Name="displacement"  NumberOfComponents="3" format="ascii">-1.6884960849952602e-03 -5.7874715147208959e-03 0.0000000000000000e+00  0.0000000000000000e+00 -3.3066694544390683e-04 0.0000000000000000e+00  1.5863089831673215e-03 -6.0209781304891722e-03 0.0000000000000000e+00  0.0000000000000000e+00 -3.3040544118465752e-04 0.0000000000000000e+00  0.0000000000000000e+00 0.0000000000000000e+00 0.0000000000000000e+00  0.0000000000000000e+00 0.0000000000000000e+00 0.0000000000000000e+00  -1.9219983643593572e-03 -4.1865195093088855e-03 0.0000000000000000e+00  -1.9385078484273361e-03 -3.7474013985277933e-03 0.0000000000000000e+00  -1.9243522732713977e-03 -3.4326391277139934e-03 0.0000000000000000e+00  -1.8993523162145625e-03 -3.1770763067805238e-03 0.0000000000000000e+00  -1.8680394057328915e-03 -2.9616819940059113e-03 0.0000000000000000e+00  -1.8321833501340346e-03 -2.7760758096219708e-03 0.0000000000000000e+00  -1.7927850981394045e-03 -2.6135458851753862e-03 0.0000000000000000e+00  -1.7505149069849187e-03 -2.4693820490110942e-03 0.0000000000000000e+00  -1.7059502347489875e-03 -2.3400344442319112e-03 0.0000000000000000e+00  -1.6595706155992983e-03 -2.2228186255622154e-03 0.0000000000000000e+00  -1.6118112556596199e-03 -2.1156542769352467e-03 0.0000000000000000e+00  -1.5630680947564678e-03 -2.0168641918870672e-03 0.0000000000000000e+00  -1.5137291150746945e-03 -1.9251011354132785e-03 0.0000000000000000e+00  -1.4641133280496612e-03 -1.8393026274351127e-03 0.0000000000000000e+00  -1.4145055120378166e-03 -1.7586274905044476e-03 0.0000000000000000e+00  -1.3651591177279558e-03 -1.6823934458864557e-03 0.0000000000000000e+00  -1.3162794421528688e-03 -1.6100613527603922e-03 0.0000000000000000e+00  -1.2680387048989367e-03 -1.5411923672321930e-03 0.0000000000000000e+00  -1.2205831193218342e-03 -1.4754374221960008e-03 0.0000000000000000e+00  -1.1740148741639618e-03 -1.4125150006609553e-03 0.0000000000000000e+00  -1.1284171688087103e-03 -1.3522002615855924e-03 0.0000000000000000e+00  -1.0838492158698366e-03 -1.2943104278318467e-03 0.0000000000000000e+00  -1.0403502375083528e-03 -1.2386929643131361e-03 0.0000000000000000e+00  -9.9794490263086454e-04 -1.1852265017694721e-03 0.0000000000000000e+00  -9.5664089198555598e-04 -1.1338105510154560e-03 0.0000000000000000e+00  -9.1643653115622357e-04 -1.0843594728611500e-03 0.0000000000000000e+00  -8.7732017703705950e-04 -1.0368007608926736e-03 0.0000000000000000e+00  -8.3927468478583935e-04 -9.9107517970982916e-04 0.0000000000000000e+00  -8.0227543219527075e-04 -9.4713072519081551e-04 0.0000000000000000e+00  -7.6628998751243095e-04 -9.0491915475181413e-04 0.0000000000000000e+00  -7.3128877111914626e-04 -8.6440336556778863e-04 0.0000000000000000e+00  -6.9723516497627877e-04 -8.2554859957251496e-04 0.0000000000000000e+00  -6.6409657529044319e-04 -7.8832202039306727e-04 0.0000000000000000e+00  -6.3182721328827621e-04 -7.5269456387866938e-04 0.0000000000000000e+00  -6.0039390093896401e-04 -7.1864140899128984e-04 0.0000000000000000e+00  -5.6975485466678180e-04 -6.8613793652145952e-04 0.0000000000000000e+00  -5.3986835679917201e-04 -6.5516263206500183e-04 0.0000000000000000e+00  -5.1069939194012465e-04 -6.2569469210494453e-04 0.0000000000000000e+00  -4.8220540946739373e-04 -5.9771552202059468e-04 0.0000000000000000e+00  -4.5434913874739850e-04 -5.7120742703654307e-04 0.0000000000000000e+00  -4.2709225645868926e-04 -5.4615372843996673e-04 0.0000000000000000e+00  -4.0039894608878424e-04 -5.2253916451988700e-04 0.0000000000000000e+00  -3.7423057631426533e-04 -5.0034903582635033e-04 0.0000000000000000e+00  -3.4855260513074734e-04 -4.7957000805156741e-04 0.0000000000000000e+00  -3.2332922833849261e-04 -4.6018962940145815e-04 0.0000000000000000e+00  -2.9852696356235102e-04 -4.4219615346112169e-04 0.0000000000000000e+00  -2.7411178228446578e-04 -4.2557849085076831e-04 0.0000000000000000e+00  -2.5005169614309510e-04 -4.1032681790803929e-04 0.0000000000000000e+00  -2.2631352591270617e-04 -3.9643206530978465e-04 0.0000000000000000e+00  -2.0286612025363372e-04 -3.8388594204926362e-04 0.0000000000000000e+00  -1.7968080953868003e-04 -3.7268056045815787e-04 0.0000000000000000e+00  -1.5672264340611450e-04 -3.6280876712761268e-04 0.0000000000000000e+00  -1.3396471185070339e-04 -3.5426590406601290e-04 0.0000000000000000e+00  -1.1137870407452206e-04 -3.4704596188489583e-04 0.0000000000000000e+00  -8.8935693316422151e-05 -3.4114471901396033e-04 0.0000000000000000e+00  -6.6602006609945674e-05 -3.3655817608449381e-04 0.0000000000000000e+00  -4.4353873207957649e-05 -3.3328457503421056e-04 0.0000000000000000e+00  -2.2162474497017895e-05 -3.3132113333329811e-04 0.0000000000000000e+00  -8.2970631319268841e-04 -1.4176392688728248e-02 0.0000000000000000e+00  -6.4234717240374919e-04 -1.5355461121002990e-02 0.0000000000000000e+00  -5.4955968265814684e-04 -1.5645216272170859e-02 0.0000000000000000e+00  -5.4131376454638949e-04 -1.5777972999626702e-02 0.0000000000000000e+00  -5.2856587017876308e-04 -1.5928154628950603e-02 0.0000000000000000e+00  -5.1604589009255448e-04 -1.6068925156125097e-02 0.0000000000000000e+00  -5.0086674706866343e-04 -1.6200646365279524e-02 0.0000000000000000e+00  -4.8539646759322236e-04 -1.6321475109269803e-02 0.0000000000000000e+00  -4.7078834367389813e-04 -1.6432590069381161e-02 0.0000000000000000e+00  -4.5647019480109214e-04 -1.6536134080653263e-02 0.0000000000000000e+00  -4.4189106755848450e-04 -1.6633165081314918e-02 0.0000000000000000e+00  -4.2706278168109482e-04 -1.6724044777026430e-02 0.0000000000000000e+00  -4.1212246364624397e-04 -1.6809159866669792e-02 0.0000000000000000e+00  -3.9710044453306287e-04 -1.6888978137740575e-02 0.0000000000000000e+00  -3.8200309868562462e-04 -1.6963866163861599e-02 0.0000000000000000e+00  -3.6684570231212710e-04 -1.7034151894606886e-02 0.0000000000000000e+00  -3.5165342153838482e-04 -1.7100108089964778e-02 0.0000000000000000e+00  -3.3643498302175583e-04 -1.7161997741871274e-02 0.0000000000000000e+00  -3.2117981295425545e-04 -1.7220056485864624e-02 0.0000000000000000e+00  -3.0588224796233165e-04 -1.7274475627077065e-02 0.0000000000000000e+00  -2.9054478317847487e-04 -1.7325412069272971e-02 0.0000000000000000e+00  -2.7517851705623317e-04 -1.7373006797652472e-02 0.0000000000000000e+00  -2.5979094680869468e-04 -1.7417390489559193e-02 0.0000000000000000e+00  -2.4438341916208821e-04 -1.7458683587666241e-02 0.0000000000000000e+00  -2.2895426378198003e-04 -1.7496993827019355e-02 0.0000000000000000e+00  -2.1350403406755086e-04 -1.7532415692119427e-02 0.0000000000000000e+00  -1.9803172493108745e-04 -1.7565030310605571e-02 0.0000000000000000e+00  -1.8253836758741504e-04 -1.7594908308388967e-02 0.0000000000000000e+00  -1.6702434519630052e-04 -1.7622113090429010e-02 0.0000000000000000e+00  -1.5149259946983074e-04 -1.7646699226074654e-02 0.0000000000000000e+00  -1.3594612493202205e-04 -1.7668717067486413e-02 0.0000000000000000e+00  -1.2038715692389824e-04 -1.7688209379317248e-02 0.0000000000000000e+00  -1.0481783510587253e-04 -1.7705214886524802e-02 0.0000000000000000e+00  -8.9240383218862709e-05 -1.7719767440718837e-02 0.0000000000000000e+00  -7.3658703769314694e-05 -1.7731894279700934e-02 0.0000000000000000e+00  -5.8074362650194583e-05 -1.7741620063763976e-02 0.0000000000000000e+00  -4.2488970553400083e-05 -1.7748967020043506e-02 0.0000000000000000e+00  -2.6906881896246293e-05 -1.7753946794396340e-02 0.0000000000000000e+00  -1.1326654546859894e-05 -1.7756572075849814e-02 0.0000000000000000e+00  4.2493750333461602e-06 -1.7756849193894104e-02 0.0000000000000000e+00  1.9821645245630379e-05 -1.7754779114754676e-02 0.0000000000000000e+00  3.5390982834828711e-05 -1.7750358085536041e-02 0.0000000000000000e+00  5.0958020994334400e-05 -1.7743577372229039e-02 0.0000000000000000e+00  6.6524656043805884e-05 -1.7734422372026659e-02 0.0000000000000000e+00  8.2091401644090894e-05 -1.7722875198840311e-02 0.0000000000000000e+00  9.7654829445301610e-05 -1.7708910279875818e-02 0.0000000000000000e+00  1.1321734007962407e-04 -1.7692500159351202e-02 0.0000000000000000e+00  1.2877679023911561e-04 -1.7673610697793132e-02 0.0000000000000000e+00  1.4433161334670544e-04 -1.7652202557914179e-02 0.0000000000000000e+00  1.5988042522592822e-04 -1.7628230271632319e-02 0.0000000000000000e+00  1.7542245196722173e-04 -1.7601644115302809e-02 0.0000000000000000e+00  1.9095555072814460e-04 -1.7572384202990007e-02 0.0000000000000000e+00  2.0647691011633796e-04 -1.7540385689257122e-02 0.0000000000000000e+00  2.2198627287980740e-04 -1.7505575802280710e-02 0.0000000000000000e+00  2.3748003469544087e-04 -1.7467871871175759e-02 0.0000000000000000e+00  2.5295318863225228e-04 -1.7427182439824263e-02 0.0000000000000000e+00  2.6839884090822997e-04 -1.7383409514770326e-02 0.0000000000000000e+00  2.8380738222217819e-04 -1.7336447941180187e-02 0.0000000000000000e+00  2.9917302944300296e-04 -1.7286183496039966e-02 0.0000000000000000e+00  3.1448571507126428e-04 -1.7232488470763325e-02 0.0000000000000000e+00  3.2976286024252266e-04 -1.7175206325234144e-02 0.0000000000000000e+00  3.4503344661199518e-04 -1.7114131786571576e-02 0.0000000000000000e+00  3.6032805736605454e-04 -1.7049006534805355e-02 0.0000000000000000e+00  3.7565708494431216e-04 -1.6979538371264341e-02 0.0000000000000000e+00  3.9101283037839554e-04 -1.6905412543956836e-02 0.0000000000000000e+00  4.0638412548935364e-04 -1.6826287331788592e-02 0.0000000000000000e+00  4.2176939916467018e-04 -1.6741761762386970e-02 0.0000000000000000e+00  4.3718852712348844e-04 -1.6651335921326393e-02 0.0000000000000000e+00  4.5252490270464887e-04 -1.6554476561178005e-02 0.0000000000000000e+00  4.6754597042469572e-04 -1.6450767036354327e-02 0.0000000000000000e+00  4.8208946378026040e-04 -1.6339787461492856e-02 0.0000000000000000e+00  4.9543491436262912e-04 -1.6221876602805829e-02 0.0000000000000000e+00  5.0894140882932093e-04 -1.6096913064254141e-02 0.0000000000000000e+00  5.2589048702824238e-04 -1.5957948071719890e-02 0.0000000000000000e+00  5.4286732486377536e-04 -1.5807668576748757e-02 0.0000000000000000e+00  5.8349420937882574e-04 -1.5600237141311972e-02 0.0000000000000000e+00  5.8204285345138721e-04 -1.5365990998558635e-02 0.0000000000000000e+00  8.0798715441013380e-04 -1.4313051658098319e-02 0.0000000000000000e+00  2.2149629034042479e-05 -3.3106021648394600e-04 0.0000000000000000e+00  4.4327283093644939e-05 -3.3302328381798886e-04 0.0000000000000000e+00  6.6560759375067669e-05 -3.3629695869910267e-04 0.0000000000000000e+00  8.8878726202548005e-05 -3.4088263677465875e-04 0.0000000000000000e+00  1.1130867613424341e-04 -3.4678380280873835e-04 0.0000000000000000e+00  1.3388258851669939e-04 -3.5400305496609562e-04 0.0000000000000000e+00  1.5662403686084568e-04 -3.6254544405358950e-04 0.0000000000000000e+00  1.7956604428177509e-04 -3.7241600150909502e-04 0.0000000000000000e+00  2.0273714016199473e-04 -3.8362050752439977e-04 0.0000000000000000e+00  2.2616842970577710e-04 -3.9616555142027682e-04 0.0000000000000000e+00  2.4988982149337229e-04 -4.1005926701898852e-04 0.0000000000000000e+00  2.7393360219429380e-04 -4.2530964861951993e-04 0.0000000000000000e+00  2.9833061020673152e-04 -4.4192588808772659e-04 0.0000000000000000e+00  3.2311409867350854e-04 -4.5991798045132441e-04 0.0000000000000000e+00  3.4831755239713737e-04 -4.7929684631492774e-04 0.0000000000000000e+00  3.7397524688841761e-04 -5.0007424413225281e-04 0.0000000000000000e+00  4.0012144684823509e-04 -5.2226236767049714e-04 0.0000000000000000e+00  4.2679300093684318e-04 -5.4587479039875817e-04 0.0000000000000000e+00  4.5402492798732644e-04 -5.7092656924474534e-04 0.0000000000000000e+00  4.8185517766049092e-04 -5.9743232895015841e-04 0.0000000000000000e+00  5.1032319494482962e-04 -6.2541052325584725e-04 0.0000000000000000e+00  5.3946155287225728e-04 -6.5487545801945328e-04 0.0000000000000000e+00  5.6931556360595599e-04 -6.8584856440358330e-04 0.0000000000000000e+00  5.9992177468244417e-04 -7.1834975843454191e-04 0.0000000000000000e+00  6.3131933392088853e-04 -7.5240095626049306e-04 0.0000000000000000e+00  6.6354745996049808e-04 -7.8802605171423364e-04 0.0000000000000000e+00  6.9664549897797512e-04 -8.2525118454618079e-04 0.0000000000000000e+00  7.3065170177744661e-04 -8.6410505458026923e-04 0.0000000000000000e+00  7.6560184700433308e-04 -9.0461919800140515e-04 0.0000000000000000e+00  8.0153045032968419e-04 -9.4682913970771973e-04 0.0000000000000000e+00  8.3847038241191465e-04 -9.9077512577546789e-04 0.0000000000000000e+00  8.7645035080409408e-04 -1.0365021565758286e-03 0.0000000000000000e+00  9.1549149698656035e-04 -1.0840631534560861e-03 0.0000000000000000e+00  9.5561592858847439e-04 -1.1335191884959967e-03 0.0000000000000000e+00  9.9683062571822548e-04 -1.1849423531424474e-03 0.0000000000000000e+00  1.0391368101893689e-03 -1.2384172836047388e-03 0.0000000000000000e+00  1.0825253903411678e-03 -1.2940469597868657e-03 0.0000000000000000e+00  1.1269712874998302e-03 -1.3519542888823356e-03 0.0000000000000000e+00  1.1724317939687705e-03 -1.4122916960430138e-03 0.0000000000000000e+00  1.2188479317076343e-03 -1.4752432099869543e-03 0.0000000000000000e+00  1.2661353121977998e-03 -1.5410374529511355e-03 0.0000000000000000e+00  1.3141810585735577e-03 -1.6099560085874774e-03 0.0000000000000000e+00  1.3628400698295871e-03 -1.6823519757244417e-03 0.0000000000000000e+00  1.4119514886392816e-03 -1.7586640988985472e-03 0.0000000000000000e+00  1.4612887126173293e-03 -1.8394358919488992e-03 0.0000000000000000e+00  1.5105991967783389e-03 -1.9253578327323526e-03 0.0000000000000000e+00  1.5595999442072229e-03 -2.0172792119521501e-03 0.0000000000000000e+00  1.6079507028102190e-03 -2.1162746119973929e-03 0.0000000000000000e+00  1.6552736976886901e-03 -2.2236773085913138e-03 0.0000000000000000e+00  1.7011864528166654e-03 -2.3411638179541721e-03 0.0000000000000000e+00  1.7451949240641417e-03 -2.4708804948989000e-03 0.0000000000000000e+00  1.7868596320606944e-03 -2.6154492523033095e-03 0.0000000000000000e+00  1.8255675506467471e-03 -2.7785026826343514e-03 0.0000000000000000e+00  1.8606275348629926e-03 -2.9647045110046048e-03 0.0000000000000000e+00  1.8909802485363200e-03 -3.1807539952463486e-03 0.0000000000000000e+00  1.9146415795824607e-03 -3.4369008164462397e-03 0.0000000000000000e+00  1.9264410874873950e-03 -3.7522649943836257e-03 0.0000000000000000e+00  1.8949756994635885e-03 -4.2049789194073357e-03 0.0000000000000000e+00  0.0000000000000000e+00 -7.3561134462358249e-05 0.0000000000000000e+00  0.0000000000000000e+00 -1.4152127796310390e-04 0.0000000000000000e+00  0.0000000000000000e+00 -2.0433106414573837e-04 0.0000000000000000e+00  0.0000000000000000e+00 -2.6233814734620515e-04 0.0000000000000000e+00  0.0000000000000000e+00 -3.1577179556811964e-04 0.0000000000000000e+00  0.0000000000000000e+00 -3.6478764558875242e-04 0.0000000000000000e+00  0.0000000000000000e+00 -4.0949656474740989e-04 0.0000000000000000e+00  0.0000000000000000e+00 -4.4997688414544603e-04 0.0000000000000000e+00  0.0000000000000000e+00 -4.8624912112059891e-04 0.0000000000000000e+00  0.0000000000000000e+00 -5.1838443067776677e-04 0.0000000000000000e+00  0.0000000000000000e+00 -5.4640505815416445e-04 0.0000000000000000e+00  0.0000000000000000e+00 -5.7035867629547945e-04 0.0000000000000000e+00  0.0000000000000000e+00 -5.9031219284392655e-04 0.0000000000000000e+00  0.0000000000000000e+00 -6.0634385502749051e-04 0.0000000000000000e+00  0.0000000000000000e+00 -6.1855379551436834e-04 0.0000000000000000e+00  0.0000000000000000e+00 -6.2706833318307829e-04 0.0000000000000000e+00  0.0000000000000000e+00 -6.3204525598214046e-04 0.0000000000000000e+00  0.0000000000000000e+00 -6.3366053611913539e-04 0.0000000000000000e+00  0.0000000000000000e+00 -6.3211733092733129e-04 0.0000000000000000e+00  0.0000000000000000e+00 -6.2763989482278102e-04 0.0000000000000000e+00  0.0000000000000000e+00 -6.2047487709799112e-04 0.0000000000000000e+00  0.0000000000000000e+00 -6.1088367286704821e-04 0.0000000000000000e+00  0.0000000000000000e+00 -5.9913976994445612e-04 0.0000000000000000e+00  0.0000000000000000e+00 -5.8552304225016117e-04 0.0000000000000000e+00  0.0000000000000000e+00 -5.7031983888842337e-04 0.0000000000000000e+00  0.0000000000000000e+00 -5.5381776620213100e-04 0.0000000000000000e+00  0.0000000000000000e+00 -5.3629303440976190e-04 0.0000000000000000e+00  0.0000000000000000e+00 -5.1802149529617779e-04 0.0000000000000000e+00  0.0000000000000000e+00 -4.9926375655496874e-04 0.0000000000000000e+00  0.0000000000000000e+00 -4.8026677193963149e-04 0.0000000000000000e+00  0.0000000000000000e+00 -4.6126224031790955e-04 0.0000000000000000e+00  0.0000000000000000e+00 -4.4246241708092635e-04 0.0000000000000000e+00  0.0000000000000000e+00 -4.2406088930995427e-04 0.0000000000000000e+00  0.0000000000000000e+00 -4.0623275218721553e-04 0.0000000000000000e+00  0.0000000000000000e+00 -3.8913240580908901e-04 0.0000000000000000e+00  0.0000000000000000e+00 -3.7289510244775654e-04 0.0000000000000000e+00  0.0000000000000000e+00 -3.5763197411311983e-04 0.0000000000000000e+00  0.0000000000000000e+00 -3.4344361430718051e-04 0.0000000000000000e+00  0.0000000000000000e+00 0.0000000000000000e+00 0.0000000000000000e+00  0.0000000000000000e+00 0.0000000000000000e+00 0.0000000000000000e+00  0.0000000000000000e+00 0.0000000000000000e+00 0.0000000000000000e+00  0.0000000000000000e+00 0.0000000000000000e+00 0.0000000000000000e+00  0.0000000000000000e+00 0.0000000000000000e+00 0.0000000000000000e+00  0.0000000000000000e+00 0.0000000000000000e+00 0.0000000000000000e+00  0.0000000000000000e+00 0.0000000000000000e+00 0.0000000000000000e+00  0.0000000000000000e+00 0.0000000000000000e+00 0.0000000000000000e+00  0.0000000000000000e+00 0.0000000000000000e+00 0.0000000000000000e+00  0.0000000000000000e+00 0.0000000000000000e+00 0.0000000000000000e+00  0.0000000000000000e+00 0.0000000000000000e+00 0.0000000000000000e+00  0.0000000000000000e+00 0.0000000000000000e+00 0.0000000000000000e+00  0.0000000000000000e+00 0.0000000000000000e+00 0.0000000000000000e+00  0.0000000000000000e+00 0.0000000000000000e+00 0.0000000000000000e+00  0.0000000000000000e+00 0.0000000000000000e+00 0.0000000000000000e+00  0.0000000000000000e+00 0.0000000000000000e+00 0.0000000000000000e+00  0.0000000000000000e+00 0.0000000000000000e+00 0.0000000000000000e+00  0.0000000000000000e+00 0.0000000000000000e+00 0.0000000000000000e+00  0.0000000000000000e+00 -3.4382918861195193e-04 0.0000000000000000e+00  0.0000000000000000e+00 -3.5815107536622533e-04 0.0000000000000000e+00  0.0000000000000000e+00 -3.7355773274000951e-04 0.0000000000000000e+00  0.0000000000000000e+00 -3.8993851846387686e-04 0.0000000000000000e+00  0.0000000000000000e+00 -4.0718138961832513e-04 0.0000000000000000e+00  0.0000000000000000e+00 -4.2514481299335088e-04 0.0000000000000000e+00  0.0000000000000000e+00 -4.4366983809891562e-04 0.0000000000000000e+00  0.0000000000000000e+00 -4.6257785577358799e-04 0.0000000000000000e+00  0.0000000000000000e+00 -4.8167113476042887e-04 0.0000000000000000e+00  0.0000000000000000e+00 -5.0073188556718482e-04 0.0000000000000000e+00  0.0000000000000000e+00 -5.1952769594457095e-04 0.0000000000000000e+00  0.0000000000000000e+00 -5.3780365988200006e-04 0.0000000000000000e+00  0.0000000000000000e+00 -5.5530255616512321e-04 0.0000000000000000e+00  0.0000000000000000e+00 -5.7174712028544485e-04 0.0000000000000000e+00  0.0000000000000000e+00 -5.8685752426948653e-04 0.0000000000000000e+00  0.0000000000000000e+00 -6.0034721163552095e-04 0.0000000000000000e+00  0.0000000000000000e+00 -6.1193311601323282e-04 0.0000000000000000e+00  0.0000000000000000e+00 -6.2133936675766693e-04 0.0000000000000000e+00  0.0000000000000000e+00 -6.2829310184686973e-04 0.0000000000000000e+00  0.0000000000000000e+00 -6.3253781367780002e-04 0.0000000000000000e+00  0.0000000000000000e+00 -6.3383491868552935e-04 0.0000000000000000e+00  0.0000000000000000e+00 -6.3196483630606438e-04 0.0000000000000000e+00  0.0000000000000000e+00 -6.2673018552593461e-04 0.00000000000