<?xml version="1.0"?>
<VTKFile type="UnstructuredGrid"  version="0.1"  >
<UnstructuredGrid>
<Piece  NumberOfPoints="3167" NumberOfCells="6038">
<Points>
<DataArray  type="Float64"  NumberOfComponents="3"  format="ascii">2.2 2.9 0  0 2.9 0  2.8 2.9 0  5 2.9 0  5 0 0  0 0 0  2.16271186440678 2.9 0  2.125423728813559 2.9 0  2.088135593220339 2.9 0  2.050847457627119 2.9 0  2.013559322033898 2.9 0  1.976271186440678 2.9 0  1.938983050847457 2.9 0  1.901694915254237 2.9 0  1.864406779661016 2.9 0  1.827118644067796 2.9 0  1.789830508474575 2.9 0  1.752542372881355 2.9 0  1.715254237288134 2.9 0  1.677966101694914 2.9 0  1.640677966101693 2.9 0  1.603389830508473 2.9 0  1.566101694915253 2.9 0  1.528813559322032 2.9 0  1.491525423728812 2.9 0  1.454237288135591 2.9 0  1.416949152542371 2.9 0  1.37966101694915 2.9 0  1.34237288135593 2.9 0  1.305084745762709 2.9 0  1.267796610169489 2.9 0  1.230508474576268 2.9 0  1.193220338983048 2.9 0  1.155932203389827 2.9 0  1.118644067796607 2.9 0  1.081355932203387 2.9 0  1.044067796610166 2.9 0  1.006779661016946 2.9 0  0.9694915254237257 2.9 0  0.9322033898305055 2.9 0  0.8949152542372856 2.9 0  0.8576271186440652 2.9 0  0.820338983050845 2.9 0  0.783050847457625 2.9 0  0.7457627118644048 2.9 0  0.7084745762711844 2.9 0  0.6711864406779642 2.9 0  0.633898305084744 2.9 0  0.5966101694915238 2.9 0  0.5593220338983036 2.9 0  0.5220338983050834 2.9 0  0.4847457627118632 2.9 0  0.447457627118643 2.9 0  0.4101694915254228 2.9 0  0.3728813559322024 2.9 0  0.3355932203389822 2.9 0  0.2983050847457622 2.9 0  0.2610169491525418 2.9 0  0.2237288135593216 2.9 0  0.1864406779661016 2.9 0  0.1491525423728812 2.9 0  0.1118644067796613 2.9 0  0.07457627118644039 2.9 0  0.03728813559321997 2.9 0  2.792405063291139 2.9 0  2.784810126582279 2.9 0  2.777215189873418 2.9 0  2.769620253164557 2.9 0  2.762025316455697 2.9 0  2.754430379746836 2.9 0  2.746835443037975 2.9 0  2.739240506329114 2.9 0  2.731645569620254 2.9 0  2.724050632911393 2.9 0  2.716455696202532 2.9 0  2.708860759493671 2.9 0  2.701265822784811 2.9 0  2.69367088607595 2.9 0  2.686075949367089 2.9 0  2.678481012658228 2.9 0  2.670886075949368 2.9 0  2.663291139240507 2.9 0  2.655696202531646 2.9 0  2.648101265822786 2.9 0  2.640506329113925 2.9 0  2.632911392405064 2.9 0  2.625316455696203 2.9 0  2.617721518987342 2.9 0  2.610126582278482 2.9 0  2.602531645569621 2.9 0  2.59493670886076 2.9 0  2.587341772151899 2.9 0  2.579746835443038 2.9 0  2.572151898734178 2.9 0  2.564556962025317 2.9 0  2.556962025316456 2.9 0  2.549367088607595 2.9 0  2.541772151898734 2.9 0  2.534177215189874 2.9 0  2.526582278481013 2.9 0  2.518987341772152 2.9 0  2.511392405063292 2.9 0  2.503797468354431 2.9 0  2.49620253164557 2.9 0  2.488607594936709 2.9 0  2.481012658227848 2.9 0  2.473417721518988 2.9 0  2.465822784810127 2.9 0  2.458227848101266 2.9 0  2.450632911392406 2.9 0  2.443037974683545 2.9 0  2.435443037974684 2.9 0  2.427848101265823 2.9 0  2.420253164556962 2.9 0  2.412658227848102 2.9 0  2.405063291139241 2.9 0  2.39746835443038 2.9 0  2.389873417721519 2.9 0  2.382278481012658 2.9 0  2.374683544303798 2.9 0  2.367088607594937 2.9 0  2.359493670886076 2.9 0  2.351898734177215 2.9 0  2.344303797468355 2.9 0  2.336708860759494 2.9 0  2.329113924050633 2.9 0  2.321518987341773 2.9 0  2.313924050632912 2.9 0  2.306329113924051 2.9 0  2.29873417721519 2.9 0  2.291139240506329 2.9 0  2.283544303797469 2.9 0  2.275949367088608 2.9 0  2.268354430379747 2.9 0  2.260759493670887 2.9 0  2.253164556962026 2.9 0  2.245569620253165 2.9 0  2.237974683544304 2.9 0  2.230379746835443 2.9 0  2.222784810126583 2.9 0  2.215189873417722 2.9 0  2.207594936708861 2.9 0  4.96271186440678 2.9 0  4.925423728813559 2.9 0  4.888135593220339 2.9 0  4.850847457627118 2.9 0  4.813559322033898 2.9 0  4.776271186440677 2.9 0  4.738983050847457 2.9 0  4.701694915254237 2.9 0  4.664406779661016 2.9 0  4.627118644067796 2.9 0  4.589830508474575 2.9 0  4.552542372881355 2.9 0  4.515254237288135 2.9 0  4.477966101694914 2.9 0  4.440677966101694 2.9 0  4.403389830508473 2.9 0  4.366101694915252 2.9 0  4.328813559322032 2.9 0  4.291525423728811 2.9 0  4.254237288135591 2.9 0  4.21694915254237 2.9 0  4.17966101694915 2.9 0  4.14237288135593 2.9 0  4.105084745762709 2.9 0  4.067796610169489 2.9 0  4.030508474576268 2.9 0  3.993220338983048 2.9 0  3.955932203389827 2.9 0  3.918644067796607 2.9 0  3.881355932203387 2.9 0  3.844067796610166 2.9 0  3.806779661016946 2.9 0  3.769491525423725 2.9 0  3.732203389830505 2.9 0  3.694915254237285 2.9 0  3.657627118644065 2.9 0  3.620338983050845 2.9 0  3.583050847457625 2.9 0  3.545762711864405 2.9 0  3.508474576271184 2.9 0  3.471186440677964 2.9 0  3.433898305084744 2.9 0  3.396610169491524 2.9 0  3.359322033898303 2.9 0  3.322033898305083 2.9 0  3.284745762711863 2.9 0  3.247457627118643 2.9 0  3.210169491525423 2.9 0  3.172881355932202 2.9 0  3.135593220338982 2.9 0  3.098305084745762 2.9 0  3.061016949152542 2.9 0  3.023728813559321 2.9 0  2.986440677966101 2.9 0  2.949152542372881 2.9 0  2.911864406779661 2.9 0  2.87457627118644 2.9 0  2.83728813559322 2.9 0  5 0.1063822625082082 0  5 0.210636880010749 0  5 0.3128064053694972 0  5 0.4129325400644018 0  5 0.5110561521032336 0  5 0.6072172918830103 0  5 0.7014552087832795 0  5 0.7938083674443693 0  5 0.88431446261646 0  5 0.9730104359544682 0  5 1.059932489996267 0  5 1.145116102913299 0  5 1.228596043483191 0  5 1.310406385079062 0  5 1.390580519944147 0  5 1.469151172477827 0  5 1.546150411986101 0  5 1.621609666658609 0  5 1.695559736099044 0  5 1.76803080383987 0  5 1.839052450169751 0  5 1.908653663631169 0  5 1.97686285289587 0  5 2.043707858613779 0  5 2.109215964341413 0  5 2.173413907925942 0  5 2.236327892833935 0  5 2.297983597762904 0  5 2.35840618845912 0  5 2.41762032730194 0  5 2.475650183444628 0  5 2.532519442457069 0  5 2.588251316112828 0  5 2.642868552557322 0  5 2.696393444426347 0  5 2.748847838312051 0  5 2.800253144313381 0  5 2.850630344319807 0  0.2631578947368421 0 0  0.5263157894736842 0 0  0.7894736842105263 0 0  1.052631578947368 0 0  1.31578947368421 0 0  1.578947368421053 0 0  1.842105263157895 0 0  2.105263157894737 0 0  2.368421052631579 0 0  2.631578947368421 0 0  2.894736842105263 0 0  3.157894736842105 0 0  3.421052631578947 0 0  3.684210526315789 0 0  3.947368421052632 0 0  4.210526315789473 0 0  4.473684210526315 0 0  4.736842105263158 0 0  0 2.850203682350569 0  0 2.799411438503675 0  0 2.747603349778291 0  0 2.694759099502208 0  0 2.640857964382145 0  0 2.58587880633613 0  0 2.52980006535898 0  0 2.472599749459174 0  0 2.414255427218689 0  0 2.35474421880616 0  0 2.294042786119219 0  0 2.232127324764723 0  0 2.1689735539481 0  0 2.104556707683347 0  0 2.038851524813415 0  0 1.971832238155655 0  0 1.903472565412126 0  0 1.83374569926617 0  0 1.762624296208475 0  0 1.690080464918761 0  0 1.616085756774206 0  0 1.540611154706337 0  0 1.463627060685571 0  0 1.385103284916206 0  0 1.305009033716617 0  0 1.223312897337225 0  0 1.139982838163732 0  0 1.054986177579938 0  0 0.9682895835804817 0  0 0.8798590579197976 0  0 0.7896599218415354 0  0 0.6976568029903638 0  0 0.6038136217958798 0  0 0.508093576867624 0  0 0.4104591310957497 0  0 0.3108719963522191 0  0 0.2092931188294389 0  0 0.1056826638508546 0  1.434832105763824 2.866945754981483 0  1.737156300467626 2.870039440267515 0  2.032203389830508 2.867707527316512 0  2.332911392405064 2.893422591869991 0  2.469810913293406 2.891944186606167 0  2.606221408823969 2.892519154985628 0  2.255455320628894 2.892068685006691 0  2.538247299216212 2.894964578182811 0  2.674683544303798 2.893422591869991 0  2.40126582278481 2.893422591869991 0  3.566125247295424 2.865029336199714 0  3.266101694915253 2.867707527316512 0  2.967796610169491 2.867707527316512 0  1.174288529834642 2.870795313888584 0  3.825423728813556 2.867707527316512 0  2.727766680262011 2.892655387647729 0  0.06601655192030442 1.502119107695954 0  4.933983535508361 1.507650792231964 0  0.9532124728485543 2.868722489783638 0  4.048935912500257 2.870640982995992 0  0.05930163367361763 1.866907161167414 0  4.943402512618553 1.871280731473148 0  4.271733870017743 2.86520865624265 0  0.7249420921613114 2.863922936177041 0  0.05494499779910056 2.196469063120752 0  4.947228695426367 2.208030108792719 0  0.5406152150397161 2.866493807382013 0  4.459322033898304 2.868847558178794 0  2.18135593220339 2.875780645487384 0  2.817027156509632 2.876587550645167 0  4.928427208322876 1.186856073198245 0  0.07189226971603224 1.174626666111662 0  4.610299014423113 2.867003104093161 0  0.3897270066746357 2.869433095314657 0  1.581132500042262 2.868247328632392 0  1.887637879411437 2.869235851794358 0  3.413449426418068 2.867372048034327 0  3.116721298814773 2.865731235547652 0  2.644303797468355 2.893422591869991 0  2.370983221828106 2.892719513369796 0  2.302531645569621 2.893336787387268 0  2.758987341772152 2.894242393897099 0  0.04979653335696277 2.443411216910286 0  4.950470983477169 2.446866954595817 0  2.482937483021586 0.2513241087417575 0  1.707129504814338 0.1999998659920923 0  3.28584657955054 0.229200625631625 0  4.907807122600524 0.834082362900164 0  4.757627118644067 2.867707527316512 0  0.0773489124676745 0.8347594898806663 0  0.2390604736599387 2.861365431805741 0  0.8363213715215729 2.863896768908178 0  4.160865610207075 2.868916854015731 0  1.282549332053297 2.867610952980761 0  1.065094818402487 2.861284686038041 0  3.93818127737282 2.86865134411395 0  3.711492629432973 2.863574306925269 0  4.91369361998929 0.5579891344254361 0  0.08208328472281323 0.5559535993317519 0  2.696596932532885 2.892010483922337 0  0.04706410140274553 2.613055974506516 0  4.955577063972248 2.616518038840186 0  2.234177215189874 2.893422591869991 0  2.279795840559739 2.89403861893984 0  0.9117357887652362 0.2117925286661764 0  4.055948041993057 0.2039101057937727 0  4.872119713780579 2.867632926423075 0  2.780113878992455 2.891535929611743 0  0.1327442468251063 2.85
[...]
<PointData  Vectors="displacement"> 
<DataArray  type="Float64"  Name="displacement"  NumberOfComponents="3" format="ascii">-2.7432084131337364e-01 -5.0840490011916907e-02 0.0000000000000000e+00  0.0000000000000000e+00 -1.5582216308958815e-04 0.0000000000000000e+00  2.7288360516347199e-01 -5.3821107884233194e-02 0.0000000000000000e+00  0.0000000000000000e+00 -1.5625805673410168e-04 0.0000000000000000e+00  0.0000000000000000e+00 0.0000000000000000e+00 0.0000000000000000e+00  0.0000000000000000e+00 0.0000000000000000e+00 0.0000000000000000e+00  -3.3917819910138880e-01 2.5618637377880993e-01 0.0000000000000000e+00  -3.5461379467499771e-01 3.2878902062186277e-01 0.0000000000000000e+00  -3.6099683414703704e-01 3.6453933741444772e-01 0.0000000000000000e+00  -3.6463029030216548e-01 3.8374181605113283e-01 0.0000000000000000e+00  -3.6657906233894560e-01 3.9252704138964628e-01 0.0000000000000000e+00  -3.6786043900739995e-01 3.9414385173506133e-01 0.0000000000000000e+00  -3.6839752886897909e-01 3.8944579180176414e-01 0.0000000000000000e+00  -3.6824499346810036e-01 3.7945520448228076e-01 0.0000000000000000e+00  -3.6480930030232689e-01 3.6509316794800745e-01 0.0000000000000000e+00  -3.5454372563889636e-01 3.4753209890485914e-01 0.0000000000000000e+00  -3.3739220985270008e-01 3.2705769368336302e-01 0.0000000000000000e+00  -3.1622868458342535e-01 3.0457651839045924e-01 0.0000000000000000e+00  -2.9255806185244648e-01 2.8080335149189067e-01 0.0000000000000000e+00  -2.6724232045247343e-01 2.5587837185235829e-01 0.0000000000000000e+00  -2.4145894652613931e-01 2.3067388021363891e-01 0.0000000000000000e+00  -2.1575937139845142e-01 2.0565956790165943e-01 0.0000000000000000e+00  -1.9060296310764041e-01 1.8130432856444673e-01 0.0000000000000000e+00  -1.6637489470054692e-01 1.5793108331519365e-01 0.0000000000000000e+00  -1.4332916343714699e-01 1.3570796378339534e-01 0.0000000000000000e+00  -1.2158189307757683e-01 1.1469893231304158e-01 0.0000000000000000e+00  -1.0128532049759825e-01 9.5030148161470276e-02 0.0000000000000000e+00  -8.2575818620951993e-02 7.6901083424987596e-02 0.0000000000000000e+00  -6.5661293296047155e-02 6.0558553465053296e-02 0.0000000000000000e+00  -5.0612774044646820e-02 4.5880308643677675e-02 0.0000000000000000e+00  -3.7650464497655148e-02 3.3250429844436616e-02 0.0000000000000000e+00  -2.6768500881809387e-02 2.2699213535563142e-02 0.0000000000000000e+00  -1.8384291709815006e-02 1.4470606694868739e-02 0.0000000000000000e+00  -1.1966324861037587e-02 8.2239360336566758e-03 0.0000000000000000e+00  -7.6936587204262646e-03 4.1086107869063946e-03 0.0000000000000000e+00  -5.0306612650321547e-03 1.5796098246148695e-03 0.0000000000000000e+00  -3.7787079923139824e-03 4.5837225703462348e-04 0.0000000000000000e+00  -3.1974629051874748e-03 6.7912697420367411e-06 0.0000000000000000e+00  -2.9307541693618750e-03 -1.2941292834374915e-04 0.0000000000000000e+00  -2.7814247321437621e-03 -1.5510199383999732e-04 0.0000000000000000e+00  -2.6441034571070381e-03 -1.6790198243675641e-04 0.0000000000000000e+00  -2.5102029995217202e-03 -1.7745280410040969e-04 0.0000000000000000e+00  -2.3795119347979213e-03 -1.8436173108829227e-04 0.0000000000000000e+00  -2.2518748698364763e-03 -1.8908504927334435e-04 0.0000000000000000e+00  -2.1271088659817953e-03 -1.9200925690778989e-04 0.0000000000000000e+00  -2.0050478763872837e-03 -1.9344881774177396e-04 0.0000000000000000e+00  -1.8855248588436197e-03 -1.9367197594052660e-04 0.0000000000000000e+00  -1.7683825319452214e-03 -1.9291239492993326e-04 0.0000000000000000e+00  -1.6534519972208016e-03 -1.9137305082940801e-04 0.0000000000000000e+00  -1.5405838518452839e-03 -1.8922931716906224e-04 0.0000000000000000e+00  -1.4296224728998163e-03 -1.8663905475819093e-04 0.0000000000000000e+00  -1.3204230395351744e-03 -1.8373734434451772e-04 0.0000000000000000e+00  -1.2128393549098360e-03 -1.8064345720575933e-04 0.0000000000000000e+00  -1.1067339832269174e-03 -1.7746230690474665e-04 0.0000000000000000e+00  -1.0019661345633079e-03 -1.7428693718387446e-04 0.0000000000000000e+00  -8.9840344985150835e-04 -1.7119698801629793e-04 0.0000000000000000e+00  -7.9592546476974228e-04 -1.6826018111564347e-04 0.0000000000000000e+00  -6.9438486270993131e-04 -1.6553700888258596e-04 0.0000000000000000e+00  -5.9367018358575177e-04 -1.6308217553516900e-04 0.0000000000000000e+00  -4.9366268413760515e-04 -1.6093424509150639e-04 0.0000000000000000e+00  -3.9424352878919772e-04 -1.5913011816317814e-04 0.0000000000000000e+00  -2.9527340361206085e-04 -1.5769743262558663e-04 0.0000000000000000e+00  -1.9665449139538786e-04 -1.5666065523252631e-04 0.0000000000000000e+00  -9.8268064494735766e-05 -1.5603220681016360e-04 0.0000000000000000e+00  2.1622379047061044e-01 -2.9801621686117624e-01 0.0000000000000000e+00  2.0873392401360072e-01 -4.1378537654595304e-01 0.0000000000000000e+00  2.0254424470498000e-01 -4.8664514978700862e-01 0.0000000000000000e+00  1.9527675786360663e-01 -5.4119959352398861e-01 0.0000000000000000e+00  1.8908696944056042e-01 -5.8570736697037085e-01 0.0000000000000000e+00  1.8096528232074138e-01 -6.2198950786084817e-01 0.0000000000000000e+00  1.7317999425689562e-01 -6.5445593141038472e-01 0.0000000000000000e+00  1.6654407877945793e-01 -6.8343173169751381e-01 0.0000000000000000e+00  1.5934850837850909e-01 -7.0884270392657012e-01 0.0000000000000000e+00  1.5254246742804148e-01 -7.3200439196159739e-01 0.0000000000000000e+00  1.4608259416197561e-01 -7.5325970022696098e-01 0.0000000000000000e+00  1.3963187796811335e-01 -7.7253125871352735e-01 0.0000000000000000e+00  1.3342029518189624e-01 -7.9034517630922319e-01 0.0000000000000000e+00  1.2740329935784894e-01 -8.0697619102722851e-01 0.0000000000000000e+00  1.2173130607689037e-01 -8.2254803824013401e-01 0.0000000000000000e+00  1.1621065471824125e-01 -8.3703911698379574e-01 0.0000000000000000e+00  1.1066532016845942e-01 -8.5039631742613275e-01 0.0000000000000000e+00  1.0515506363640957e-01 -8.6280988073669285e-01 0.0000000000000000e+00  9.9726925090177332e-02 -8.7438784805004499e-01 0.0000000000000000e+00  9.4442710458594217e-02 -8.8520645004697707e-01 0.0000000000000000e+00  8.9254757336019730e-02 -8.9529425028051624e-01 0.0000000000000000e+00  8.4136085716648906e-02 -9.0468861856270333e-01 0.0000000000000000e+00  7.9094104334596071e-02 -9.1342341454361931e-01 0.0000000000000000e+00  7.4105845485598718e-02 -9.2151462522414118e-01 0.0000000000000000e+00  6.9161551855419362e-02 -9.2898367217479993e-01 0.0000000000000000e+00  6.4266572890929963e-02 -9.3586566721601328e-01 0.0000000000000000e+00  5.9410776391709941e-02 -9.4220821233637919e-01 0.0000000000000000e+00  5.4609782258364825e-02 -9.4800888764816038e-01 0.0000000000000000e+00  4.9831847594002394e-02 -9.5325830837062264e-01 0.0000000000000000e+00  4.5086335163202949e-02 -9.5796667995843221e-01 0.0000000000000000e+00  4.0376104571796724e-02 -9.6217761559457049e-01 0.0000000000000000e+00  3.5675403787292476e-02 -9.6589554876380379e-01 0.0000000000000000e+00  3.0956835615894036e-02 -9.6912024256931595e-01 0.0000000000000000e+00  2.6240951695163269e-02 -9.7186360395246585e-01 0.0000000000000000e+00  2.1514722835522922e-02 -9.7413073970082276e-01 0.0000000000000000e+00  1.6787986851775051e-02 -9.7593521206664491e-01 0.0000000000000000e+00  1.2062149793015807e-02 -9.7727726172770568e-01 0.0000000000000000e+00  7.3337380651588603e-03 -9.7816180066275138e-01 0.0000000000000000e+00  2.6109609385270801e-03 -9.7858728634613579e-01 0.0000000000000000e+00  -2.1096594139180754e-03 -9.7855844191947516e-01 0.0000000000000000e+00  -6.8244045796168225e-03 -9.7808455141824002e-01 0.0000000000000000e+00  -1.1537058615983952e-02 -9.7716165876931083e-01 0.0000000000000000e+00  -1.6241867757741748e-02 -9.7578649777273707e-01 0.0000000000000000e+00  -2.0937053404500444e-02 -9.7395721709513905e-01 0.0000000000000000e+00  -2.5642284278396550e-02 -9.7167457782021149e-01 0.0000000000000000e+00  -3.0370912736381456e-02 -9.6892188356959019e-01 0.0000000000000000e+00  -3.5122756960507179e-02 -9.6569792858989989e-01 0.0000000000000000e+00  -3.9883133912310451e-02 -9.6198751618190603e-01 0.0000000000000000e+00  -4.4647297491743246e-02 -9.5777405773371094e-01 0.0000000000000000e+00  -4.9423359187841541e-02 -9.5305091762977767e-01 0.0000000000000000e+00  -5.4207909940028276e-02 -9.4780304152209793e-01 0.0000000000000000e+00  -5.9010618309791311e-02 -9.4202351032201603e-01 0.0000000000000000e+00  -6.3849480765880401e-02 -9.3569446771446430e-01 0.0000000000000000e+00  -6.8732013940119921e-02 -9.2880908040008625e-01 0.0000000000000000e+00  -7.3672899896272737e-02 -9.2135204835461737e-01 0.0000000000000000e+00  -7.8671458727901655e-02 -9.1328654404148502e-01 0.0000000000000000e+00  -8.3713619049285121e-02 -9.0455915199781312e-01 0.0000000000000000e+00  -8.8795303095272046e-02 -8.9513910035626199e-01 0.0000000000000000e+00  -9.3959945317615659e-02 -8.8501996996204513e-01 0.0000000000000000e+00  -9.9237234239731589e-02 -8.7418121466786758e-01 0.0000000000000000e+00  -1.0462270530273718e-01 -8.6257753627172529e-01 0.0000000000000000e+00  -1.1013364977213097e-01 -8.5013294586379007e-01 0.0000000000000000e+00  -1.1582928656620829e-01 -8.3685668540033864e-01 0.0000000000000000e+00  -1.2158575051407933e-01 -8.2255590839135562e-01 0.0000000000000000e+00  -1.2737657295722810e-01 -8.0709633095493838e-01 0.0000000000000000e+00  -1.3355710519228808e-01 -7.9070841927150570e-01 0.0000000000000000e+00  -1.3988642641460436e-01 -7.7291604610358844e-01 0.0000000000000000e+00  -1.4637243587082299e-01 -7.5367788923303136e-01 0.0000000000000000e+00  -1.5300620108392277e-01 -7.3269051757794956e-01 0.0000000000000000e+00  -1.5969098379606531e-01 -7.0953576322810386e-01 0.0000000000000000e+00  -1.6696253477465919e-01 -6.8415099229952714e-01 0.0000000000000000e+00  -1.7350421420781498e-01 -6.5509628378657714e-01 0.0000000000000000e+00  -1.7964207245869265e-01 -6.2211827604952130e-01 0.0000000000000000e+00  -1.8610229065634531e-01 -5.8350671974920221e-01 0.0000000000000000e+00  -1.9368979072274983e-01 -5.3895311711225014e-01 0.0000000000000000e+00  -2.0140790888833490e-01 -4.8269965793697373e-01 0.0000000000000000e+00  -2.1055069919057176e-01 -4.1233106867501484e-01 0.0000000000000000e+00  -2.1999414425359284e-01 -2.9842292928502850e-01 0.0000000000000000e+00  9.8140877378571304e-05 -1.5647296062850573e-04 0.0000000000000000e+00  1.9639679856600013e-04 -1.5710821735997812e-04 0.0000000000000000e+00  2.9488204389513687e-04 -1.5815916802552760e-04 0.0000000000000000e+00  3.9371438441040984e-04 -1.5960831652241068e-04 0.0000000000000000e+00  4.9300770254755968e-04 -1.6143689656461543e-04 0.0000000000000000e+00  5.9289298607080631e-04 -1.6361201820043190e-04 0.0000000000000000e+00  6.9346958538908426e-04 -1.6610285454027795e-04 0.0000000000000000e+00  7.9487453358075076e-04 -1.6886475890265536e-04 0.0000000000000000e+00  8.9722730443228841e-04 -1.7184657447441711e-04 0.0000000000000000e+00  1.0006587507250496e-03 -1.7498751708216841e-04 0.0000000000000000e+00  1.1052955159474018e-03 -1.7822096952218981e-04 0.0000000000000000e+00  1.2112750719290620e-03 -1.8146568140811324e-04 0.0000000000000000e+00  1.3187298205072731e-03 -1.8463005389687394e-04 0.0000000000000000e+00  1.4278029564386812e-03 -1.8760939636002424e-04 0.0000000000000000e+00  1.5386399258026529e-03 -1.9028442019199785e-04 0.0000000000000000e+00  1.6513902119358551e-03 -1.9251900259342514e-04 0.0000000000000000e+00  1.7662050847930602e-03 -1.9415640393610124e-04 0.0000000000000000e+00  1.8832467188230559e-03 -1.9501710914555974e-04 0.0000000000000000e+00  2.0026706036961675e-03 -1.9490259666141534e-04 0.0000000000000000e+00  2.1246485027613324e-03 -1.9357361871885341e-04 0.0000000000000000e+00  2.2493592202685268e-03 -1.9076640569981558e-04 0.0000000000000000e+00  2.3769458072269985e-03 -1.8615579249856777e-04 0.0000000000000000e+00  2.5076243443522220e-03 -1.7935817425929106e-04 0.0000000000000000e+00  2.6415590550773328e-03 -1.6990580627946735e-04 0.0000000000000000e+00  2.7789808364422782e-03 -1.5724430417642579e-04 0.0000000000000000e+00  2.9329906422778983e-03 -1.2811679657429473e-04 0.0000000000000000e+00  3.2007406621789086e-03 1.1657197064017340e-05 0.0000000000000000e+00  3.8679657130677430e-03 5.4867097443535903e-04 0.0000000000000000e+00  5.2556680298038033e-03 1.8081824000166806e-03 0.0000000000000000e+00  7.8616859429463913e-03 4.2580660110898777e-03 0.0000000000000000e+00  1.2118396752081234e-02 8.3719037423979452e-03 0.0000000000000000e+00  1.8647247417606681e-02 1.4689249558407320e-02 0.0000000000000000e+00  2.7100923345496644e-02 2.2995530831400303e-02 0.0000000000000000e+00  3.8016142768121430e-02 3.3531955633352414e-02 0.0000000000000000e+00  5.0906444516549673e-02 4.6126395327722725e-02 0.0000000000000000e+00  6.5922594756908273e-02 6.0747203786279354e-02 0.0000000000000000e+00  8.2811082296551541e-02 7.7119050812319054e-02 0.0000000000000000e+00  1.0158105608383261e-01 9.5258706137372126e-02 0.0000000000000000e+00  1.2194922084379863e-01 1.1501597963682875e-01 0.0000000000000000e+00  1.4377154487361479e-01 1.3608991272648829e-01 0.0000000000000000e+00  1.6688203747375877e-01 1.5837784820147047e-01 0.0000000000000000e+00  1.9112130311218672e-01 1.8179385367746664e-01 0.0000000000000000e+00  2.1610004083719558e-01 2.0594969915533379e-01 0.0000000000000000e+00  2.4170441909354051e-01 2.3081213961564925e-01 0.0000000000000000e+00  2.6735614905272781e-01 2.5598818777339533e-01 0.0000000000000000e+00  2.9245882269719986e-01 2.8069574506570438e-01 0.0000000000000000e+00  3.1647328736560593e-01 3.0463459831139539e-01 0.0000000000000000e+00  3.3802083396037974e-01 3.2732830792538975e-01 0.0000000000000000e+00  3.5455897560055294e-01 3.4755840595034160e-01 0.0000000000000000e+00  3.6512863659174011e-01 3.6512393630052792e-01 0.0000000000000000e+00  3.6870131909112469e-01 3.7964488837575444e-01 0.0000000000000000e+00  3.6861288481749571e-01 3.9001141404124268e-01 0.0000000000000000e+00  3.6799732842030003e-01 3.9463745231494024e-01 0.0000000000000000e+00  3.6684634330000282e-01 3.9256795941416300e-01 0.0000000000000000e+00  3.6482164657992028e-01 3.8333616131598319e-01 0.0000000000000000e+00  3.6134134465049517e-01 3.6410367560650198e-01 0.0000000000000000e+00  3.5599349482632814e-01 3.2991448406709145e-01 0.0000000000000000e+00  3.3937959634288628e-01 2.5667085370206233e-01 0.0000000000000000e+00  0.0000000000000000e+00 -1.0588592278080570e-04 0.0000000000000000e+00  0.0000000000000000e+00 -2.0441810413694908e-04 0.0000000000000000e+00  0.0000000000000000e+00 -2.9604413336345616e-04 0.0000000000000000e+00  0.0000000000000000e+00 -3.8112617847809875e-04 0.0000000000000000e+00  0.0000000000000000e+00 -4.5993082257997673e-04 0.0000000000000000e+00  0.0000000000000000e+00 -5.3265562125257677e-04 0.0000000000000000e+00  0.0000000000000000e+00 -5.9945006725848238e-04 0.0000000000000000e+00  0.0000000000000000e+00 -6.6042577658319398e-04 0.0000000000000000e+00  0.0000000000000000e+00 -7.1563768992402100e-04 0.0000000000000000e+00  0.0000000000000000e+00 -7.6516497897393396e-04 0.0000000000000000e+00  0.0000000000000000e+00 -8.0903951724990654e-04 0.0000000000000000e+00  0.0000000000000000e+00 -8.4730022665296533e-04 0.0000000000000000e+00  0.0000000000000000e+00 -8.7998673103552641e-04 0.0000000000000000e+00  0.0000000000000000e+00 -9.0713526299010332e-04 0.0000000000000000e+00  0.0000000000000000e+00 -9.2878446260686437e-04 0.0000000000000000e+00  0.0000000000000000e+00 -9.4497924342565570e-04 0.0000000000000000e+00  0.0000000000000000e+00 -9.5577552287968255e-04 0.0000000000000000e+00  0.0000000000000000e+00 -9.6123148936084091e-04 0.0000000000000000e+00  0.0000000000000000e+00 -9.6141797002910132e-04 0.0000000000000000e+00  0.0000000000000000e+00 -9.5641443792227022e-04 0.0000000000000000e+00  0.0000000000000000e+00 -9.4631856941417589e-04 0.0000000000000000e+00  0.0000000000000000e+00 -9.3124624840585247e-04 0.0000000000000000e+00  0.0000000000000000e+00 -9.1132830345810379e-04 0.0000000000000000e+00  0.0000000000000000e+00 -8.8673030775800838e-04 0.0000000000000000e+00  0.0000000000000000e+00 -8.5763555988970582e-04 0.0000000000000000e+00  0.0000000000000000e+00 -8.2426091377233932e-04 0.0000000000000000e+00  0.0000000000000000e+00 -7.8685828820869289e-04 0.0000000000000000e+00  0.0000000000000000e+00 -7.4570947962134752e-04 0.0000000000000000e+00  0.0000000000000000e+00 -7.0113196124541792e-04 0.0000000000000000e+00  0.0000000000000000e+00 -6.5347552554463552e-04 0.0000000000000000e+00  0.0000000000000000e+00 -6.0312202171643485e-04 0.0000000000000000e+00  0.0000000000000000e+00 -5.5048042821860381e-04 0.0000000000000000e+00  0.0000000000000000e+00 -4.9598423030074396e-04 0.0000000000000000e+00  0.0000000000000000e+00 -4.4008926511887386e-04 0.0000000000000000e+00  0.0000000000000000e+00 -3.8326590619828550e-04 0.0000000000000000e+00  0.0000000000000000e+00 -3.2599634829805316e-04 0.0000000000000000e+00  0.0000000000000000e+00 -2.6875061409677452e-04 0.0000000000000000e+00  0.0000000000000000e+00 -2.1201904125294724e-04 0.0000000000000000e+00  0.0000000000000000e+00 0.0000000000000000e+00 0.0000000000000000e+00  0.0000000000000000e+00 0.0000000000000000e+00 0.0000000000000000e+00  0.0000000000000000e+00 0.0000000000000000e+00 0.0000000000000000e+00  0.0000000000000000e+00 0.0000000000000000e+00 0.0000000000000000e+00  0.0000000000000000e+00 0.0000000000000000e+00 0.0000000000000000e+00  0.0000000000000000e+00 0.0000000000000000e+00 0.0000000000000000e+00  0.0000000000000000e+00 0.0000000000000000e+00 0.0000000000000000e+00  0.0000000000000000e+00 0.0000000000000000e+00 0.0000000000000000e+00  0.0000000000000000e+00 0.0000000000000000e+00 0.0000000000000000e+00  0.0000000000000000e+00 0.0000000000000000e+00 0.0000000000000000e+00  0.0000000000000000e+00 0.0000000000000000e+00 0.0000000000000000e+00  0.0000000000000000e+00 0.0000000000000000e+00 0.0000000000000000e+00  0.0000000000000000e+00 0.0000000000000000e+00 0.0000000000000000e+00  0.0000000000000000e+00 0.0000000000000000e+00 0.0000000000000000e+00  0.0000000000000000e+00 0.0000000000000000e+00 0.0000000000000000e+00  0.0000000000000000e+00 0.0000000000000000e+00 0.0000000000000000e+00  0.0000000000000000e+00 0.0000000000000000e+00 0.0000000000000000e+00  0.0000000000000000e+00 0.0000000000000000e+00 0.0000000000000000e+00  0.0000000000000000e+00 -2.1213605902766210e-04 0.0000000000000000e+00  0.0000000000000000e+00 -2.6939439789764994e-04 0.0000000000000000e+00  0.0000000000000000e+00 -3.2714271759899823e-04 0.0000000000000000e+00  0.0000000000000000e+00 -3.8486177852354117e-04 0.0000000000000000e+00  0.0000000000000000e+00 -4.4208265783139667e-04 0.0000000000000000e+00  0.0000000000000000e+00 -4.9831112656054046e-04 0.0000000000000000e+00  0.0000000000000000e+00 -5.5307186399503213e-04 0.0000000000000000e+00  0.0000000000000000e+00 -6.0590656772656955e-04 0.0000000000000000e+00  0.0000000000000000e+00 -6.5637934472976992e-04 0.0000000000000000e+00  0.0000000000000000e+00 -7.0407966727177910e-04 0.0000000000000000e+00  0.0000000000000000e+00 -7.4862864792655831e-04 0.0000000000000000e+00  0.0000000000000000e+00 -7.8967827128518565e-04 0.0000000000000000e+00  0.0000000000000000e+00 -8.2691748096999998e-04 0.0000000000000000e+00  0.0000000000000000e+00 -8.6006832519176085e-04 0.0000000000000000e+00  0.0000000000000000e+00 -8.8888676264794444e-04 0.0000000000000000e+00  0.0000000000000000e+00 -9.1316567405817675e-04 0.0000000000000000e+00  0.0000000000000000e+00 -9.3272435250602666e-04 0.0000000000000000e+00  0.0000000000000000e+00 -9.4741114065637728e-04 0.0000000000000000e+00  0.0000000000000000e+00 -9.5710091856900678e-04 0.0000000000000000e+00  0.0000000000000000e+00 -9.6168682950469834e-04 0.0000000000000000e+00  0.0000000000000000e+00 -9.6108237529861937e-04 0.0000000000000000e+00  0.0000000000000000e+00 -9.5521336662602273e-04 0.0000000000000000e+00  0.0000000000000000e+00 -9.4401694693326801e-04 0.0000000000000000e+00  0.0000000000000000e+00 -9.2744079964678333e-04 0.0000