<?xml version="1.0"?>
<VTKFile type="UnstructuredGrid"  version="0.1"  >
<UnstructuredGrid>
<Piece  NumberOfPoints="3167" NumberOfCells="6038">
<Points>
<DataArray  type="Float64"  NumberOfComponents="3"  format="ascii">2.2 2.9 0  0 2.9 0  2.8 2.9 0  5 2.9 0  5 0 0  0 0 0  2.16271186440678 2.9 0  2.125423728813559 2.9 0  2.088135593220339 2.9 0  2.050847457627119 2.9 0  2.013559322033898 2.9 0  1.976271186440678 2.9 0  1.938983050847457 2.9 0  1.901694915254237 2.9 0  1.864406779661016 2.9 0  1.827118644067796 2.9 0  1.789830508474575 2.9 0  1.752542372881355 2.9 0  1.715254237288134 2.9 0  1.677966101694914 2.9 0  1.640677966101693 2.9 0  1.603389830508473 2.9 0  1.566101694915253 2.9 0  1.528813559322032 2.9 0  1.491525423728812 2.9 0  1.454237288135591 2.9 0  1.416949152542371 2.9 0  1.37966101694915 2.9 0  1.34237288135593 2.9 0  1.305084745762709 2.9 0  1.267796610169489 2.9 0  1.230508474576268 2.9 0  1.193220338983048 2.9 0  1.155932203389827 2.9 0  1.118644067796607 2.9 0  1.081355932203387 2.9 0  1.044067796610166 2.9 0  1.006779661016946 2.9 0  0.9694915254237257 2.9 0  0.9322033898305055 2.9 0  0.8949152542372856 2.9 0  0.8576271186440652 2.9 0  0.820338983050845 2.9 0  0.783050847457625 2.9 0  0.7457627118644048 2.9 0  0.7084745762711844 2.9 0  0.6711864406779642 2.9 0  0.633898305084744 2.9 0  0.5966101694915238 2.9 0  0.5593220338983036 2.9 0  0.5220338983050834 2.9 0  0.4847457627118632 2.9 0  0.447457627118643 2.9 0  0.4101694915254228 2.9 0  0.3728813559322024 2.9 0  0.3355932203389822 2.9 0  0.2983050847457622 2.9 0  0.2610169491525418 2.9 0  0.2237288135593216 2.9 0  0.1864406779661016 2.9 0  0.1491525423728812 2.9 0  0.1118644067796613 2.9 0  0.07457627118644039 2.9 0  0.03728813559321997 2.9 0  2.792405063291139 2.9 0  2.784810126582279 2.9 0  2.777215189873418 2.9 0  2.769620253164557 2.9 0  2.762025316455697 2.9 0  2.754430379746836 2.9 0  2.746835443037975 2.9 0  2.739240506329114 2.9 0  2.731645569620254 2.9 0  2.724050632911393 2.9 0  2.716455696202532 2.9 0  2.708860759493671 2.9 0  2.701265822784811 2.9 0  2.69367088607595 2.9 0  2.686075949367089 2.9 0  2.678481012658228 2.9 0  2.670886075949368 2.9 0  2.663291139240507 2.9 0  2.655696202531646 2.9 0  2.648101265822786 2.9 0  2.640506329113925 2.9 0  2.632911392405064 2.9 0  2.625316455696203 2.9 0  2.617721518987342 2.9 0  2.610126582278482 2.9 0  2.602531645569621 2.9 0  2.59493670886076 2.9 0  2.587341772151899 2.9 0  2.579746835443038 2.9 0  2.572151898734178 2.9 0  2.564556962025317 2.9 0  2.556962025316456 2.9 0  2.549367088607595 2.9 0  2.541772151898734 2.9 0  2.534177215189874 2.9 0  2.526582278481013 2.9 0  2.518987341772152 2.9 0  2.511392405063292 2.9 0  2.503797468354431 2.9 0  2.49620253164557 2.9 0  2.488607594936709 2.9 0  2.481012658227848 2.9 0  2.473417721518988 2.9 0  2.465822784810127 2.9 0  2.458227848101266 2.9 0  2.450632911392406 2.9 0  2.443037974683545 2.9 0  2.435443037974684 2.9 0  2.427848101265823 2.9 0  2.420253164556962 2.9 0  2.412658227848102 2.9 0  2.405063291139241 2.9 0  2.39746835443038 2.9 0  2.389873417721519 2.9 0  2.382278481012658 2.9 0  2.374683544303798 2.9 0  2.367088607594937 2.9 0  2.359493670886076 2.9 0  2.351898734177215 2.9 0  2.344303797468355 2.9 0  2.336708860759494 2.9 0  2.329113924050633 2.9 0  2.321518987341773 2.9 0  2.313924050632912 2.9 0  2.306329113924051 2.9 0  2.29873417721519 2.9 0  2.291139240506329 2.9 0  2.283544303797469 2.9 0  2.275949367088608 2.9 0  2.268354430379747 2.9 0  2.260759493670887 2.9 0  2.253164556962026 2.9 0  2.245569620253165 2.9 0  2.237974683544304 2.9 0  2.230379746835443 2.9 0  2.222784810126583 2.9 0  2.215189873417722 2.9 0  2.207594936708861 2.9 0  4.96271186440678 2.9 0  4.925423728813559 2.9 0  4.888135593220339 2.9 0  4.850847457627118 2.9 0  4.813559322033898 2.9 0  4.776271186440677 2.9 0  4.738983050847457 2.9 0  4.701694915254237 2.9 0  4.664406779661016 2.9 0  4.627118644067796 2.9 0  4.589830508474575 2.9 0  4.552542372881355 2.9 0  4.515254237288135 2.9 0  4.477966101694914 2.9 0  4.440677966101694 2.9 0  4.403389830508473 2.9 0  4.366101694915252 2.9 0  4.328813559322032 2.9 0  4.291525423728811 2.9 0  4.254237288135591 2.9 0  4.21694915254237 2.9 0  4.17966101694915 2.9 0  4.14237288135593 2.9 0  4.105084745762709 2.9 0  4.067796610169489 2.9 0  4.030508474576268 2.9 0  3.993220338983048 2.9 0  3.955932203389827 2.9 0  3.918644067796607 2.9 0  3.881355932203387 2.9 0  3.844067796610166 2.9 0  3.806779661016946 2.9 0  3.769491525423725 2.9 0  3.732203389830505 2.9 0  3.694915254237285 2.9 0  3.657627118644065 2.9 0  3.620338983050845 2.9 0  3.583050847457625 2.9 0  3.545762711864405 2.9 0  3.508474576271184 2.9 0  3.471186440677964 2.9 0  3.433898305084744 2.9 0  3.396610169491524 2.9 0  3.359322033898303 2.9 0  3.322033898305083 2.9 0  3.284745762711863 2.9 0  3.247457627118643 2.9 0  3.210169491525423 2.9 0  3.172881355932202 2.9 0  3.135593220338982 2.9 0  3.098305084745762 2.9 0  3.061016949152542 2.9 0  3.023728813559321 2.9 0  2.986440677966101 2.9 0  2.949152542372881 2.9 0  2.911864406779661 2.9 0  2.87457627118644 2.9 0  2.83728813559322 2.9 0  5 0.1063822625082082 0  5 0.210636880010749 0  5 0.3128064053694972 0  5 0.4129325400644018 0  5 0.5110561521032336 0  5 0.6072172918830103 0  5 0.7014552087832795 0  5 0.7938083674443693 0  5 0.88431446261646 0  5 0.9730104359544682 0  5 1.059932489996267 0  5 1.145116102913299 0  5 1.228596043483191 0  5 1.310406385079062 0  5 1.390580519944147 0  5 1.469151172477827 0  5 1.546150411986101 0  5 1.621609666658609 0  5 1.695559736099044 0  5 1.76803080383987 0  5 1.839052450169751 0  5 1.908653663631169 0  5 1.97686285289587 0  5 2.043707858613779 0  5 2.109215964341413 0  5 2.173413907925942 0  5 2.236327892833935 0  5 2.297983597762904 0  5 2.35840618845912 0  5 2.41762032730194 0  5 2.475650183444628 0  5 2.532519442457069 0  5 2.588251316112828 0  5 2.642868552557322 0  5 2.696393444426347 0  5 2.748847838312051 0  5 2.800253144313381 0  5 2.850630344319807 0  0.2631578947368421 0 0  0.5263157894736842 0 0  0.7894736842105263 0 0  1.052631578947368 0 0  1.31578947368421 0 0  1.578947368421053 0 0  1.842105263157895 0 0  2.105263157894737 0 0  2.368421052631579 0 0  2.631578947368421 0 0  2.894736842105263 0 0  3.157894736842105 0 0  3.421052631578947 0 0  3.684210526315789 0 0  3.947368421052632 0 0  4.210526315789473 0 0  4.473684210526315 0 0  4.736842105263158 0 0  0 2.850203682350569 0  0 2.799411438503675 0  0 2.747603349778291 0  0 2.694759099502208 0  0 2.640857964382145 0  0 2.58587880633613 0  0 2.52980006535898 0  0 2.472599749459174 0  0 2.414255427218689 0  0 2.35474421880616 0  0 2.294042786119219 0  0 2.232127324764723 0  0 2.1689735539481 0  0 2.104556707683347 0  0 2.038851524813415 0  0 1.971832238155655 0  0 1.903472565412126 0  0 1.83374569926617 0  0 1.762624296208475 0  0 1.690080464918761 0  0 1.616085756774206 0  0 1.540611154706337 0  0 1.463627060685571 0  0 1.385103284916206 0  0 1.305009033716617 0  0 1.223312897337225 0  0 1.139982838163732 0  0 1.054986177579938 0  0 0.9682895835804817 0  0 0.8798590579197976 0  0 0.7896599218415354 0  0 0.6976568029903638 0  0 0.6038136217958798 0  0 0.508093576867624 0  0 0.4104591310957497 0  0 0.3108719963522191 0  0 0.2092931188294389 0  0 0.1056826638508546 0  1.434832105763824 2.866945754981483 0  1.737156300467626 2.870039440267515 0  2.032203389830508 2.867707527316512 0  2.332911392405064 2.893422591869991 0  2.469810913293406 2.891944186606167 0  2.606221408823969 2.892519154985628 0  2.255455320628894 2.892068685006691 0  2.538247299216212 2.894964578182811 0  2.674683544303798 2.893422591869991 0  2.40126582278481 2.893422591869991 0  3.566125247295424 2.865029336199714 0  3.266101694915253 2.867707527316512 0  2.967796610169491 2.867707527316512 0  1.174288529834642 2.870795313888584 0  3.825423728813556 2.867707527316512 0  2.727766680262011 2.892655387647729 0  0.06601655192030442 1.502119107695954 0  4.933983535508361 1.507650792231964 0  0.9532124728485543 2.868722489783638 0  4.048935912500257 2.870640982995992 0  0.05930163367361763 1.866907161167414 0  4.943402512618553 1.871280731473148 0  4.271733870017743 2.86520865624265 0  0.7249420921613114 2.863922936177041 0  0.05494499779910056 2.196469063120752 0  4.947228695426367 2.208030108792719 0  0.5406152150397161 2.866493807382013 0  4.459322033898304 2.868847558178794 0  2.18135593220339 2.875780645487384 0  2.817027156509632 2.876587550645167 0  4.928427208322876 1.186856073198245 0  0.07189226971603224 1.174626666111662 0  4.610299014423113 2.867003104093161 0  0.3897270066746357 2.869433095314657 0  1.581132500042262 2.868247328632392 0  1.887637879411437 2.869235851794358 0  3.413449426418068 2.867372048034327 0  3.116721298814773 2.865731235547652 0  2.644303797468355 2.893422591869991 0  2.370983221828106 2.892719513369796 0  2.302531645569621 2.893336787387268 0  2.758987341772152 2.894242393897099 0  0.04979653335696277 2.443411216910286 0  4.950470983477169 2.446866954595817 0  2.482937483021586 0.2513241087417575 0  1.707129504814338 0.1999998659920923 0  3.28584657955054 0.229200625631625 0  4.907807122600524 0.834082362900164 0  4.757627118644067 2.867707527316512 0  0.0773489124676745 0.8347594898806663 0  0.2390604736599387 2.861365431805741 0  0.8363213715215729 2.863896768908178 0  4.160865610207075 2.868916854015731 0  1.282549332053297 2.867610952980761 0  1.065094818402487 2.861284686038041 0  3.93818127737282 2.86865134411395 0  3.711492629432973 2.863574306925269 0  4.91369361998929 0.5579891344254361 0  0.08208328472281323 0.5559535993317519 0  2.696596932532885 2.892010483922337 0  0.04706410140274553 2.613055974506516 0  4.955577063972248 2.616518038840186 0  2.234177215189874 2.893422591869991 0  2.279795840559739 2.89403861893984 0  0.9117357887652362 0.2117925286661764 0  4.055948041993057 0.2039101057937727 0  4.872119713780579 2.867632926423075 0  2.780113878992455 2.891535929611743 0  0.1327442468251063 2.85
[...]
<PointData  Vectors="displacement"> 
<DataArray  type="Float64"  Name="displacement"  NumberOfComponents="3" format="ascii">7.7133759650431174e-04 -4.0366620692155325e-03 0.0000000000000000e+00  0.0000000000000000e+00 -1.6621731069179857e-04 0.0000000000000000e+00  -7.7226923764193967e-04 -4.0366047160579057e-03 0.0000000000000000e+00  0.0000000000000000e+00 -1.6621749572386877e-04 0.0000000000000000e+00  0.0000000000000000e+00 0.0000000000000000e+00 0.0000000000000000e+00  0.0000000000000000e+00 0.0000000000000000e+00 0.0000000000000000e+00  7.6462020863944517e-04 -3.5725832773513418e-03 0.0000000000000000e+00  7.4929168354081381e-04 -3.2662822088021337e-03 0.0000000000000000e+00  7.3417144563864235e-04 -3.0198012349721328e-03 0.0000000000000000e+00  7.1913770350412964e-04 -2.8096122319962165e-03 0.0000000000000000e+00  7.0412496230832188e-04 -2.6252055381528533e-03 0.0000000000000000e+00  6.8914419575036420e-04 -2.4605158515362572e-03 0.0000000000000000e+00  6.7421095707472314e-04 -2.3115759730559550e-03 0.0000000000000000e+00  6.5932844936079699e-04 -2.1756198836688245e-03 0.0000000000000000e+00  6.4451179678266899e-04 -2.0505915470149390e-03 0.0000000000000000e+00  6.2975552032140138e-04 -1.9349576285235142e-03 0.0000000000000000e+00  6.1506406979110109e-04 -1.8275261295279885e-03 0.0000000000000000e+00  6.0044076955145613e-04 -1.7273231172701146e-03 0.0000000000000000e+00  5.8589123478465174e-04 -1.6335505236407613e-03 0.0000000000000000e+00  5.7141525472403378e-04 -1.5455568301919718e-03 0.0000000000000000e+00  5.5701614130061619e-04 -1.4627967765324466e-03 0.0000000000000000e+00  5.4269557592879364e-04 -1.3848039339410311e-03 0.0000000000000000e+00  5.2845657751200118e-04 -1.3111791373090591e-03 0.0000000000000000e+00  5.1429757842165968e-04 -1.2415764102753873e-03 0.0000000000000000e+00  5.0022268633821340e-04 -1.1756928448264836e-03 0.0000000000000000e+00  4.8623284997412560e-04 -1.1132647724892517e-03 0.0000000000000000e+00  4.7232926763565242e-04 -1.0540595574973345e-03 0.0000000000000000e+00  4.5851241854241129e-04 -9.9787076287142715e-04 0.0000000000000000e+00  4.4478384892538840e-04 -9.4451097899490995e-04 0.0000000000000000e+00  4.3114250426388886e-04 -8.9381560032692191e-04 0.0000000000000000e+00  4.1758989005139251e-04 -8.4563696709888847e-04 0.0000000000000000e+00  4.0412638723397702e-04 -7.9983914872922132e-04 0.0000000000000000e+00  3.9075166582760871e-04 -7.5629844127933325e-04 0.0000000000000000e+00  3.7746437955360707e-04 -7.1490574250313379e-04 0.0000000000000000e+00  3.6426690674977409e-04 -6.7555940778293139e-04 0.0000000000000000e+00  3.5115474716960224e-04 -6.3816442596410523e-04 0.0000000000000000e+00  3.3813016090252033e-04 -6.0263718828442185e-04 0.0000000000000000e+00  3.2519147457336440e-04 -5.6890051412574253e-04 0.0000000000000000e+00  3.1233635796935774e-04 -5.3688360943415206e-04 0.0000000000000000e+00  2.9956452353642428e-04 -5.0651751024785639e-04 0.0000000000000000e+00  2.8687392617111229e-04 -4.7774330290008477e-04 0.0000000000000000e+00  2.7426327129186404e-04 -4.5050398237598828e-04 0.0000000000000000e+00  2.6173018231473601e-04 -4.2474715114367592e-04 0.0000000000000000e+00  2.4927288361046879e-04 -4.0042574906131855e-04 0.0000000000000000e+00  2.3688910957291983e-04 -3.7749467214663222e-04 0.0000000000000000e+00  2.2457637194291089e-04 -3.5591297596355618e-04 0.0000000000000000e+00  2.1233217757755821e-04 -3.3564275187679182e-04 0.0000000000000000e+00  2.0015389473426880e-04 -3.1664889046217746e-04 0.0000000000000000e+00  1.8803843673000577e-04 -2.9889885826152063e-04 0.0000000000000000e+00  1.7598308118325096e-04 -2.8236313543038657e-04 0.0000000000000000e+00  1.6398460456985275e-04 -2.6701401608749602e-04 0.0000000000000000e+00  1.5203984254816576e-04 -2.5282650332965134e-04 0.0000000000000000e+00  1.4014542716488221e-04 -2.3977754590235968e-04 0.0000000000000000e+00  1.2829793361793354e-04 -2.2784630925608911e-04 0.0000000000000000e+00  1.1649376571122897e-04 -2.1701369634928667e-04 0.0000000000000000e+00  1.0472925128502024e-04 -2.0726273251794650e-04 0.0000000000000000e+00  9.3001028580455032e-05 -1.9857825668377266e-04 0.0000000000000000e+00  8.1304576347426794e-05 -1.9094644336259512e-04 0.0000000000000000e+00  6.9636521233146768e-05 -1.8435560104227558e-04 0.0000000000000000e+00  5.7992926908169694e-05 -1.7879583999082970e-04 0.0000000000000000e+00  4.6370007786024888e-05 -1.7425847748672320e-04 0.0000000000000000e+00  3.4762965663611693e-05 -1.7073646731057370e-04 0.0000000000000000e+00  2.3168399747156230e-05 -1.6822453794754650e-04 0.0000000000000000e+00  1.1582097890421013e-05 -1.6671891797398402e-04 0.0000000000000000e+00  -7.6143430935361690e-04 -4.1780939594530274e-03 0.0000000000000000e+00  -7.4099853538113188e-04 -4.2799027401944426e-03 0.0000000000000000e+00  -7.2096925767863073e-04 -4.3668717028465349e-03 0.0000000000000000e+00  -7.0102947347308380e-04 -4.4445808633013758e-03 0.0000000000000000e+00  -6.8122641459301763e-04 -4.5154862566160019e-03 0.0000000000000000e+00  -6.6144002984365425e-04 -4.5809096177188112e-03 0.0000000000000000e+00  -6.4166654449908898e-04 -4.6417421709494108e-03 0.0000000000000000e+00  -6.2190130974594830e-04 -4.6985790041346688e-03 0.0000000000000000e+00  -6.0213628131090954e-04 -4.7518745171790779e-03 0.0000000000000000e+00  -5.8237794473120627e-04 -4.8019873021910098e-03 0.0000000000000000e+00  -5.6262482475096637e-04 -4.8491979071659469e-03 0.0000000000000000e+00  -5.4287306967787407e-04 -4.8937330152357354e-03 0.0000000000000000e+00  -5.2312333089248346e-04 -4.9357836659485715e-03 0.0000000000000000e+00  -5.0337568063424712e-04 -4.9755061298590256e-03 0.0000000000000000e+00  -4.8362768280694161e-04 -5.0130328584369584e-03 0.0000000000000000e+00  -4.6388216722365635e-04 -5.0484834527217207e-03 0.0000000000000000e+00  -4.4413763810675309e-04 -5.0819568591742807e-03 0.0000000000000000e+00  -4.2439419731961391e-04 -5.1135397948290579e-03 0.0000000000000000e+00  -4.0465158180978515e-04 -5.1433093359139160e-03 0.0000000000000000e+00  -3.8490959805913613e-04 -5.1713329345362720e-03 0.0000000000000000e+00  -3.6516824183627255e-04 -5.1976705842653728e-03 0.0000000000000000e+00  -3.4542746522517857e-04 -5.2223756477988489e-03 0.0000000000000000e+00  -3.2568708846353729e-04 -5.2454953613496978e-03 0.0000000000000000e+00  -3.0594719280879859e-04 -5.2670723589519101e-03 0.0000000000000000e+00  -2.8620764367309943e-04 -5.2871446908029623e-03 0.0000000000000000e+00  -2.6646836714087029e-04 -5.3057459495106677e-03 0.0000000000000000e+00  -2.4672958127399628e-04 -5.3229065250445561e-03 0.0000000000000000e+00  -2.2699064146374445e-04 -5.3386531678433612e-03 0.0000000000000000e+00  -2.0725192996810725e-04 -5.3530103080006554e-03 0.0000000000000000e+00  -1.8751341442282480e-04 -5.3659992075279009e-03 0.0000000000000000e+00  -1.6777500838980252e-04 -5.3776387779942304e-03 0.0000000000000000e+00  -1.4803659247378413e-04 -5.3879454457940621e-03 0.0000000000000000e+00  -1.2829820161658790e-04 -5.3969336484848800e-03 0.0000000000000000e+00  -1.0855990093991503e-04 -5.4046157317952986e-03 0.0000000000000000e+00  -8.8821430002527111e-05 -5.4110017820294858e-03 0.0000000000000000e+00  -6.9083303176855205e-05 -5.4161007416653429e-03 0.0000000000000000e+00  -4.9344838710892506e-05 -5.4199191565670246e-03 0.0000000000000000e+00  -2.9606430942761548e-05 -5.4224619294667778e-03 0.0000000000000000e+00  -9.8680908618608237e-06 -5.4237325152407465e-03 0.0000000000000000e+00  9.8702754458806432e-06 -5.4237325097193758e-03 0.0000000000000000e+00  2.9608642017419305e-05 -5.4224619044724569e-03 0.0000000000000000e+00  4.9347009628890445e-05 -5.4199190671072785e-03 0.0000000000000000e+00  6.9085378810004408e-05 -5.4161007274794821e-03 0.0000000000000000e+00  8.8823700239797394e-05 -5.4110017797580944e-03 0.0000000000000000e+00  1.0856208881257776e-04 -5.4046154817330716e-03 0.0000000000000000e+00  1.2830044434409933e-04 -5.3969335017653285e-03 0.0000000000000000e+00  1.4803883882961888e-04 -5.3879453378369822e-03 0.0000000000000000e+00  1.6777726363140290e-04 -5.3776386442541272e-03 0.0000000000000000e+00  1.8751580895483186e-04 -5.3659991117581051e-03 0.0000000000000000e+00  2.0725437450568691e-04 -5.3530101081436582e-03 0.0000000000000000e+00  2.2699308717619697e-04 -5.3386529880943079e-03 0.0000000000000000e+00  2.4673211328138074e-04 -5.3229061875162444e-03 0.0000000000000000e+00  2.6647109516233396e-04 -5.3057455960737994e-03 0.0000000000000000e+00  2.8621043009759606e-04 -5.2871444762023784e-03 0.0000000000000000e+00  3.0595006865492065e-04 -5.2670723126972711e-03 0.0000000000000000e+00  3.2569008723117140e-04 -5.2454952741318910e-03 0.0000000000000000e+00  3.4543044099955402e-04 -5.2223754024855323e-03 0.0000000000000000e+00  3.6517164666621674e-04 -5.1976705509554876e-03 0.0000000000000000e+00  3.8491343136523896e-04 -5.1713322694614929e-03 0.0000000000000000e+00  4.0465571154187628e-04 -5.1433086466248657e-03 0.0000000000000000e+00  4.2439868053365372e-04 -5.1135390101723086e-03 0.0000000000000000e+00  4.4414260331416655e-04 -5.0819558268108602e-03 0.0000000000000000e+00  4.6388752111165487e-04 -5.0484823642138760e-03 0.0000000000000000e+00  4.8363366969578409e-04 -5.0130311793037631e-03 0.0000000000000000e+00  5.0338114913940700e-04 -4.9755025753295840e-03 0.0000000000000000e+00  5.2313052340036028e-04 -4.9357804659191980e-03 0.0000000000000000e+00  5.4288096936760824e-04 -4.8937300248940423e-03 0.0000000000000000e+00  5.6263354089948351e-04 -4.8491929076040002e-03 0.0000000000000000e+00  5.8238997652557351e-04 -4.8019841960504454e-03 0.0000000000000000e+00  6.0214765836705535e-04 -4.7518702765059935e-03 0.0000000000000000e+00  6.2190875471361648e-04 -4.6985692689923038e-03 0.0000000000000000e+00  6.4167816968404895e-04 -4.6417335974897672e-03 0.0000000000000000e+00  6.6145972773214590e-04 -4.5809136835333209e-03 0.0000000000000000e+00  6.8124567974973081e-04 -4.5154718590196064e-03 0.0000000000000000e+00  7.0104357196258010e-04 -4.4445460575828271e-03 0.0000000000000000e+00  7.2082871623759762e-04 -4.3668571270557557e-03 0.0000000000000000e+00  7.4116690706122856e-04 -4.2801733934585322e-03 0.0000000000000000e+00  7.6139137957339619e-04 -4.1777653511980584e-03 0.0000000000000000e+00  -1.1582189887369839e-05 -1.6671906135463482e-04 0.0000000000000000e+00  -2.3168494028650578e-05 -1.6822470223371646e-04 0.0000000000000000e+00  -3.4762990310291545e-05 -1.7073657634091287e-04 0.0000000000000000e+00  -4.6369803365872527e-05 -1.7425856185320269e-04 0.0000000000000000e+00  -5.7992954022860226e-05 -1.7879593837333475e-04 0.0000000000000000e+00  -6.9636714346110051e-05 -1.8435587201234542e-04 0.0000000000000000e+00  -8.1304567834093649e-05 -1.9094652060370888e-04 0.0000000000000000e+00  -9.3000868896895498e-05 -1.9857825941683042e-04 0.0000000000000000e+00  -1.0472931581053264e-04 -2.0726284495646243e-04 0.0000000000000000e+00  -1.1649380492758479e-04 -2.1701386616122378e-04 0.0000000000000000e+00  -1.2829795240488961e-04 -2.2784647848384781e-04 0.0000000000000000e+00  -1.4014550129641597e-04 -2.3977778056091367e-04 0.0000000000000000e+00  -1.5203989916207008e-04 -2.5282673124697334e-04 0.0000000000000000e+00  -1.6398463371989958e-04 -2.6701424606485218e-04 0.0000000000000000e+00  -1.7598307273364086e-04 -2.8236331081487828e-04 0.0000000000000000e+00  -1.8803842175801446e-04 -2.9889907388529132e-04 0.0000000000000000e+00  -2.0015381043714202e-04 -3.1664893302175908e-04 0.0000000000000000e+00  -2.1233222581261887e-04 -3.3564298357714658e-04 0.0000000000000000e+00  -2.2457633020682736e-04 -3.5591327893031983e-04 0.0000000000000000e+00  -2.3688909136958161e-04 -3.7749512681667775e-04 0.0000000000000000e+00  -2.4927325398309914e-04 -4.0042638509320581e-04 0.0000000000000000e+00  -2.6173007394430413e-04 -4.2474750244815356e-04 0.0000000000000000e+00  -2.7426316426034113e-04 -4.5050394887507985e-04 0.0000000000000000e+00  -2.8687390631263734e-04 -4.7774344138637692e-04 0.0000000000000000e+00  -2.9956436187644845e-04 -5.0651789050722758e-04 0.0000000000000000e+00  -3.1233620732763382e-04 -5.3688354731361570e-04 0.0000000000000000e+00  -3.2519104618339414e-04 -5.6890144147894880e-04 0.0000000000000000e+00  -3.3813015079107490e-04 -6.0263768338786826e-04 0.0000000000000000e+00  -3.5115491695789878e-04 -6.3816412294557482e-04 0.0000000000000000e+00  -3.6426620633229237e-04 -6.7555845342801078e-04 0.0000000000000000e+00  -3.7746472742706221e-04 -7.1490576515013580e-04 0.0000000000000000e+00  -3.9075097754751764e-04 -7.5629845616105964e-04 0.0000000000000000e+00  -4.0412777864822804e-04 -7.9983889955052856e-04 0.0000000000000000e+00  -4.1758978393421307e-04 -8.4563733777353971e-04 0.0000000000000000e+00  -4.3114240777736670e-04 -8.9381698658841055e-04 0.0000000000000000e+00  -4.4478348633390400e-04 -9.4451144289868733e-04 0.0000000000000000e+00  -4.5851297327495168e-04 -9.9787015971614405e-04 0.0000000000000000e+00  -4.7232932230336174e-04 -1.0540594505372110e-03 0.0000000000000000e+00  -4.8623270898793283e-04 -1.1132645527383884e-03 0.0000000000000000e+00  -5.0022235024405331e-04 -1.1756922039516714e-03 0.0000000000000000e+00  -5.1429733736061680e-04 -1.2415756140254552e-03 0.0000000000000000e+00  -5.2845539512711521e-04 -1.3111799771921976e-03 0.0000000000000000e+00  -5.4269669127681689e-04 -1.3848058225288595e-03 0.0000000000000000e+00  -5.5701786373478111e-04 -1.4627979679574926e-03 0.0000000000000000e+00  -5.7141589011799855e-04 -1.5455560714398569e-03 0.0000000000000000e+00  -5.8588962419365859e-04 -1.6335486119888585e-03 0.0000000000000000e+00  -6.0043974353097347e-04 -1.7273212686742460e-03 0.0000000000000000e+00  -6.1506263700119982e-04 -1.8275305580779189e-03 0.0000000000000000e+00  -6.2975438975372805e-04 -1.9349651119458045e-03 0.0000000000000000e+00  -6.4451419370364969e-04 -2.0505858303367409e-03 0.0000000000000000e+00  -6.5933035489601174e-04 -2.1756214566021801e-03 0.0000000000000000e+00  -6.7421760327495870e-04 -2.3115686931829619e-03 0.0000000000000000e+00  -6.8914430143752776e-04 -2.4605199151846741e-03 0.0000000000000000e+00  -7.0411298777165897e-04 -2.6252212838574420e-03 0.0000000000000000e+00  -7.1912521292136005e-04 -2.8096114968701414e-03 0.0000000000000000e+00  -7.3424357007905480e-04 -3.0197899875383915e-03 0.0000000000000000e+00  -7.4910137255054863e-04 -3.2663994065718384e-03 0.0000000000000000e+00  -7.6476782259070049e-04 -3.5723691638784479e-03 0.0000000000000000e+00  0.0000000000000000e+00 -3.2257962679834543e-05 0.0000000000000000e+00  0.0000000000000000e+00 -6.0257630350712094e-05 0.0000000000000000e+00  0.0000000000000000e+00 -8.4520138763762454e-05 0.0000000000000000e+00  0.0000000000000000e+00 -1.0548940985169474e-04 0.0000000000000000e+00  0.0000000000000000e+00 -1.2350279246392187e-04 0.0000000000000000e+00  0.0000000000000000e+00 -1.3883789948191969e-04 0.0000000000000000e+00  0.0000000000000000e+00 -1.5172705685772956e-04 0.0000000000000000e+00  0.0000000000000000e+00 -1.6236912074259685e-04 0.0000000000000000e+00  0.0000000000000000e+00 -1.7092205309555774e-04 0.0000000000000000e+00  0.0000000000000000e+00 -1.7755940239654259e-04 0.0000000000000000e+00  0.0000000000000000e+00 -1.8242126936617235e-04 0.0000000000000000e+00  0.0000000000000000e+00 -1.8565320625004550e-04 0.0000000000000000e+00  0.0000000000000000e+00 -1.8740384575561360e-04 0.0000000000000000e+00  0.0000000000000000e+00 -1.8781997031253742e-04 0.0000000000000000e+00  0.0000000000000000e+00 -1.8705226626923170e-04 0.0000000000000000e+00  0.0000000000000000e+00 -1.8525574833023662e-04 0.0000000000000000e+00  0.0000000000000000e+00 -1.8259083901946981e-04 0.0000000000000000e+00  0.0000000000000000e+00 -1.7921763417570602e-04 0.0000000000000000e+00  0.0000000000000000e+00 -1.7529780502787117e-04 0.0000000000000000e+00  0.0000000000000000e+00 -1.7099261505935947e-04 0.0000000000000000e+00  0.0000000000000000e+00 -1.6646079858173061e-04 0.0000000000000000e+00  0.0000000000000000e+00 -1.6185520445659925e-04 0.0000000000000000e+00  0.0000000000000000e+00 -1.5732348349219841e-04 0.0000000000000000e+00  0.0000000000000000e+00 -1.5300009870829857e-04 0.0000000000000000e+00  0.0000000000000000e+00 -1.4901346440348066e-04 0.0000000000000000e+00  0.0000000000000000e+00 -1.4547939718992264e-04 0.0000000000000000e+00  0.0000000000000000e+00 -1.4249540192449436e-04 0.0000000000000000e+00  0.0000000000000000e+00 -1.4014981139207037e-04 0.0000000000000000e+00  0.0000000000000000e+00 -1.3851299126303520e-04 0.0000000000000000e+00  0.0000000000000000e+00 -1.3764021933684398e-04 0.0000000000000000e+00  0.0000000000000000e+00 -1.3757176808171676e-04 0.0000000000000000e+00  0.0000000000000000e+00 -1.3833230346271342e-04 0.0000000000000000e+00  0.0000000000000000e+00 -1.3993240987536675e-04 0.0000000000000000e+00  0.0000000000000000e+00 -1.4236953185686529e-04 0.0000000000000000e+00  0.0000000000000000e+00 -1.4562846755341205e-04 0.0000000000000000e+00  0.0000000000000000e+00 -1.4968283755281591e-04 0.0000000000000000e+00  0.0000000000000000e+00 -1.5449645070482777e-04 0.0000000000000000e+00  0.0000000000000000e+00 -1.6002508894713045e-04 0.0000000000000000e+00  0.0000000000000000e+00 0.0000000000000000e+00 0.0000000000000000e+00  0.0000000000000000e+00 0.0000000000000000e+00 0.0000000000000000e+00  0.0000000000000000e+00 0.0000000000000000e+00 0.0000000000000000e+00  0.0000000000000000e+00 0.0000000000000000e+00 0.0000000000000000e+00  0.0000000000000000e+00 0.0000000000000000e+00 0.0000000000000000e+00  0.0000000000000000e+00 0.0000000000000000e+00 0.0000000000000000e+00  0.0000000000000000e+00 0.0000000000000000e+00 0.0000000000000000e+00  0.0000000000000000e+00 0.0000000000000000e+00 0.0000000000000000e+00  0.0000000000000000e+00 0.0000000000000000e+00 0.0000000000000000e+00  0.0000000000000000e+00 0.0000000000000000e+00 0.0000000000000000e+00  0.0000000000000000e+00 0.0000000000000000e+00 0.0000000000000000e+00  0.0000000000000000e+00 0.0000000000000000e+00 0.0000000000000000e+00  0.0000000000000000e+00 0.0000000000000000e+00 0.0000000000000000e+00  0.0000000000000000e+00 0.0000000000000000e+00 0.0000000000000000e+00  0.0000000000000000e+00 0.0000000000000000e+00 0.0000000000000000e+00  0.0000000000000000e+00 0.0000000000000000e+00 0.0000000000000000e+00  0.0000000000000000e+00 0.0000000000000000e+00 0.0000000000000000e+00  0.0000000000000000e+00 0.0000000000000000e+00 0.0000000000000000e+00  0.0000000000000000e+00 -1.5997479228020017e-04 0.0000000000000000e+00  0.0000000000000000e+00 -1.5441077439869416e-04 0.0000000000000000e+00  0.0000000000000000e+00 -1.4957653053036474e-04 0.0000000000000000e+00  0.0000000000000000e+00 -1.4551574642906586e-04 0.0000000000000000e+00  0.0000000000000000e+00 -1.4226396610837215e-04 0.0000000000000000e+00  0.0000000000000000e+00 -1.3984622466508404e-04 0.0000000000000000e+00  0.0000000000000000e+00 -1.3827606247553687e-04 0.0000000000000000e+00  0.0000000000000000e+00 -1.3755445157231941e-04 0.0000000000000000e+00  0.0000000000000000e+00 -1.3766880314324936e-04 0.0000000000000000e+00  0.0000000000000000e+00 -1.3859145761187317e-04 0.0000000000000000e+00  0.0000000000000000e+00 -1.4028089048892165e-04 0.0000000000000000e+00  0.0000000000000000e+00 -1.4267660674165713e-04 0.0000000000000000e+00  0.0000000000000000e+00 -1.4570844698353873e-04 0.0000000000000000e+00  0.0000000000000000e+00 -1.4928606538262121e-04 0.0000000000000000e+00  0.0000000000000000e+00 -1.5330755129841988e-04 0.0000000000000000e+00  0.0000000000000000e+00 -1.5765463066038212e-04 0.0000000000000000e+00  0.0000000000000000e+00 -1.6220001483439449e-04 0.0000000000000000e+00  0.0000000000000000e+00 -1.6680732782590573e-04 0.0000000000000000e+00  0.0000000000000000e+00 -1.7132711396074794e-04 0.0000000000000000e+00  0.0000000000000000e+00 -1.7560645193112181e-04 0.0000000000000000e+00  0.0000000000000000e+00 -1.7948759419839295e-04 0.0000000000000000e+00  0.0000000000000000e+00 -1.8281043787865547e-04 0.0000000000000000e+00  0.0000000000000000e+00 -1.8541427284751410e-04 0.00000000000