<?xml version="1.0"?>
<VTKFile type="UnstructuredGrid"  version="0.1"  >
<UnstructuredGrid>
<Piece  NumberOfPoints="3167" NumberOfCells="6038">
<Points>
<DataArray  type="Float64"  NumberOfComponents="3"  format="ascii">2.2 2.9 0  0 2.9 0  2.8 2.9 0  5 2.9 0  5 0 0  0 0 0  2.16271186440678 2.9 0  2.125423728813559 2.9 0  2.088135593220339 2.9 0  2.050847457627119 2.9 0  2.013559322033898 2.9 0  1.976271186440678 2.9 0  1.938983050847457 2.9 0  1.901694915254237 2.9 0  1.864406779661016 2.9 0  1.827118644067796 2.9 0  1.789830508474575 2.9 0  1.752542372881355 2.9 0  1.715254237288134 2.9 0  1.677966101694914 2.9 0  1.640677966101693 2.9 0  1.603389830508473 2.9 0  1.566101694915253 2.9 0  1.528813559322032 2.9 0  1.491525423728812 2.9 0  1.454237288135591 2.9 0  1.416949152542371 2.9 0  1.37966101694915 2.9 0  1.34237288135593 2.9 0  1.305084745762709 2.9 0  1.267796610169489 2.9 0  1.230508474576268 2.9 0  1.193220338983048 2.9 0  1.155932203389827 2.9 0  1.118644067796607 2.9 0  1.081355932203387 2.9 0  1.044067796610166 2.9 0  1.006779661016946 2.9 0  0.9694915254237257 2.9 0  0.9322033898305055 2.9 0  0.8949152542372856 2.9 0  0.8576271186440652 2.9 0  0.820338983050845 2.9 0  0.783050847457625 2.9 0  0.7457627118644048 2.9 0  0.7084745762711844 2.9 0  0.6711864406779642 2.9 0  0.633898305084744 2.9 0  0.5966101694915238 2.9 0  0.5593220338983036 2.9 0  0.5220338983050834 2.9 0  0.4847457627118632 2.9 0  0.447457627118643 2.9 0  0.4101694915254228 2.9 0  0.3728813559322024 2.9 0  0.3355932203389822 2.9 0  0.2983050847457622 2.9 0  0.2610169491525418 2.9 0  0.2237288135593216 2.9 0  0.1864406779661016 2.9 0  0.1491525423728812 2.9 0  0.1118644067796613 2.9 0  0.07457627118644039 2.9 0  0.03728813559321997 2.9 0  2.792405063291139 2.9 0  2.784810126582279 2.9 0  2.777215189873418 2.9 0  2.769620253164557 2.9 0  2.762025316455697 2.9 0  2.754430379746836 2.9 0  2.746835443037975 2.9 0  2.739240506329114 2.9 0  2.731645569620254 2.9 0  2.724050632911393 2.9 0  2.716455696202532 2.9 0  2.708860759493671 2.9 0  2.701265822784811 2.9 0  2.69367088607595 2.9 0  2.686075949367089 2.9 0  2.678481012658228 2.9 0  2.670886075949368 2.9 0  2.663291139240507 2.9 0  2.655696202531646 2.9 0  2.648101265822786 2.9 0  2.640506329113925 2.9 0  2.632911392405064 2.9 0  2.625316455696203 2.9 0  2.617721518987342 2.9 0  2.610126582278482 2.9 0  2.602531645569621 2.9 0  2.59493670886076 2.9 0  2.587341772151899 2.9 0  2.579746835443038 2.9 0  2.572151898734178 2.9 0  2.564556962025317 2.9 0  2.556962025316456 2.9 0  2.549367088607595 2.9 0  2.541772151898734 2.9 0  2.534177215189874 2.9 0  2.526582278481013 2.9 0  2.518987341772152 2.9 0  2.511392405063292 2.9 0  2.503797468354431 2.9 0  2.49620253164557 2.9 0  2.488607594936709 2.9 0  2.481012658227848 2.9 0  2.473417721518988 2.9 0  2.465822784810127 2.9 0  2.458227848101266 2.9 0  2.450632911392406 2.9 0  2.443037974683545 2.9 0  2.435443037974684 2.9 0  2.427848101265823 2.9 0  2.420253164556962 2.9 0  2.412658227848102 2.9 0  2.405063291139241 2.9 0  2.39746835443038 2.9 0  2.389873417721519 2.9 0  2.382278481012658 2.9 0  2.374683544303798 2.9 0  2.367088607594937 2.9 0  2.359493670886076 2.9 0  2.351898734177215 2.9 0  2.344303797468355 2.9 0  2.336708860759494 2.9 0  2.329113924050633 2.9 0  2.321518987341773 2.9 0  2.313924050632912 2.9 0  2.306329113924051 2.9 0  2.29873417721519 2.9 0  2.291139240506329 2.9 0  2.283544303797469 2.9 0  2.275949367088608 2.9 0  2.268354430379747 2.9 0  2.260759493670887 2.9 0  2.253164556962026 2.9 0  2.245569620253165 2.9 0  2.237974683544304 2.9 0  2.230379746835443 2.9 0  2.222784810126583 2.9 0  2.215189873417722 2.9 0  2.207594936708861 2.9 0  4.96271186440678 2.9 0  4.925423728813559 2.9 0  4.888135593220339 2.9 0  4.850847457627118 2.9 0  4.813559322033898 2.9 0  4.776271186440677 2.9 0  4.738983050847457 2.9 0  4.701694915254237 2.9 0  4.664406779661016 2.9 0  4.627118644067796 2.9 0  4.589830508474575 2.9 0  4.552542372881355 2.9 0  4.515254237288135 2.9 0  4.477966101694914 2.9 0  4.440677966101694 2.9 0  4.403389830508473 2.9 0  4.366101694915252 2.9 0  4.328813559322032 2.9 0  4.291525423728811 2.9 0  4.254237288135591 2.9 0  4.21694915254237 2.9 0  4.17966101694915 2.9 0  4.14237288135593 2.9 0  4.105084745762709 2.9 0  4.067796610169489 2.9 0  4.030508474576268 2.9 0  3.993220338983048 2.9 0  3.955932203389827 2.9 0  3.918644067796607 2.9 0  3.881355932203387 2.9 0  3.844067796610166 2.9 0  3.806779661016946 2.9 0  3.769491525423725 2.9 0  3.732203389830505 2.9 0  3.694915254237285 2.9 0  3.657627118644065 2.9 0  3.620338983050845 2.9 0  3.583050847457625 2.9 0  3.545762711864405 2.9 0  3.508474576271184 2.9 0  3.471186440677964 2.9 0  3.433898305084744 2.9 0  3.396610169491524 2.9 0  3.359322033898303 2.9 0  3.322033898305083 2.9 0  3.284745762711863 2.9 0  3.247457627118643 2.9 0  3.210169491525423 2.9 0  3.172881355932202 2.9 0  3.135593220338982 2.9 0  3.098305084745762 2.9 0  3.061016949152542 2.9 0  3.023728813559321 2.9 0  2.986440677966101 2.9 0  2.949152542372881 2.9 0  2.911864406779661 2.9 0  2.87457627118644 2.9 0  2.83728813559322 2.9 0  5 0.1063822625082082 0  5 0.210636880010749 0  5 0.3128064053694972 0  5 0.4129325400644018 0  5 0.5110561521032336 0  5 0.6072172918830103 0  5 0.7014552087832795 0  5 0.7938083674443693 0  5 0.88431446261646 0  5 0.9730104359544682 0  5 1.059932489996267 0  5 1.145116102913299 0  5 1.228596043483191 0  5 1.310406385079062 0  5 1.390580519944147 0  5 1.469151172477827 0  5 1.546150411986101 0  5 1.621609666658609 0  5 1.695559736099044 0  5 1.76803080383987 0  5 1.839052450169751 0  5 1.908653663631169 0  5 1.97686285289587 0  5 2.043707858613779 0  5 2.109215964341413 0  5 2.173413907925942 0  5 2.236327892833935 0  5 2.297983597762904 0  5 2.35840618845912 0  5 2.41762032730194 0  5 2.475650183444628 0  5 2.532519442457069 0  5 2.588251316112828 0  5 2.642868552557322 0  5 2.696393444426347 0  5 2.748847838312051 0  5 2.800253144313381 0  5 2.850630344319807 0  0.2631578947368421 0 0  0.5263157894736842 0 0  0.7894736842105263 0 0  1.052631578947368 0 0  1.31578947368421 0 0  1.578947368421053 0 0  1.842105263157895 0 0  2.105263157894737 0 0  2.368421052631579 0 0  2.631578947368421 0 0  2.894736842105263 0 0  3.157894736842105 0 0  3.421052631578947 0 0  3.684210526315789 0 0  3.947368421052632 0 0  4.210526315789473 0 0  4.473684210526315 0 0  4.736842105263158 0 0  0 2.850203682350569 0  0 2.799411438503675 0  0 2.747603349778291 0  0 2.694759099502208 0  0 2.640857964382145 0  0 2.58587880633613 0  0 2.52980006535898 0  0 2.472599749459174 0  0 2.414255427218689 0  0 2.35474421880616 0  0 2.294042786119219 0  0 2.232127324764723 0  0 2.1689735539481 0  0 2.104556707683347 0  0 2.038851524813415 0  0 1.971832238155655 0  0 1.903472565412126 0  0 1.83374569926617 0  0 1.762624296208475 0  0 1.690080464918761 0  0 1.616085756774206 0  0 1.540611154706337 0  0 1.463627060685571 0  0 1.385103284916206 0  0 1.305009033716617 0  0 1.223312897337225 0  0 1.139982838163732 0  0 1.054986177579938 0  0 0.9682895835804817 0  0 0.8798590579197976 0  0 0.7896599218415354 0  0 0.6976568029903638 0  0 0.6038136217958798 0  0 0.508093576867624 0  0 0.4104591310957497 0  0 0.3108719963522191 0  0 0.2092931188294389 0  0 0.1056826638508546 0  1.434832105763824 2.866945754981483 0  1.737156300467626 2.870039440267515 0  2.032203389830508 2.867707527316512 0  2.332911392405064 2.893422591869991 0  2.469810913293406 2.891944186606167 0  2.606221408823969 2.892519154985628 0  2.255455320628894 2.892068685006691 0  2.538247299216212 2.894964578182811 0  2.674683544303798 2.893422591869991 0  2.40126582278481 2.893422591869991 0  3.566125247295424 2.865029336199714 0  3.266101694915253 2.867707527316512 0  2.967796610169491 2.867707527316512 0  1.174288529834642 2.870795313888584 0  3.825423728813556 2.867707527316512 0  2.727766680262011 2.892655387647729 0  0.06601655192030442 1.502119107695954 0  4.933983535508361 1.507650792231964 0  0.9532124728485543 2.868722489783638 0  4.048935912500257 2.870640982995992 0  0.05930163367361763 1.866907161167414 0  4.943402512618553 1.871280731473148 0  4.271733870017743 2.86520865624265 0  0.7249420921613114 2.863922936177041 0  0.05494499779910056 2.196469063120752 0  4.947228695426367 2.208030108792719 0  0.5406152150397161 2.866493807382013 0  4.459322033898304 2.868847558178794 0  2.18135593220339 2.875780645487384 0  2.817027156509632 2.876587550645167 0  4.928427208322876 1.186856073198245 0  0.07189226971603224 1.174626666111662 0  4.610299014423113 2.867003104093161 0  0.3897270066746357 2.869433095314657 0  1.581132500042262 2.868247328632392 0  1.887637879411437 2.869235851794358 0  3.413449426418068 2.867372048034327 0  3.116721298814773 2.865731235547652 0  2.644303797468355 2.893422591869991 0  2.370983221828106 2.892719513369796 0  2.302531645569621 2.893336787387268 0  2.758987341772152 2.894242393897099 0  0.04979653335696277 2.443411216910286 0  4.950470983477169 2.446866954595817 0  2.482937483021586 0.2513241087417575 0  1.707129504814338 0.1999998659920923 0  3.28584657955054 0.229200625631625 0  4.907807122600524 0.834082362900164 0  4.757627118644067 2.867707527316512 0  0.0773489124676745 0.8347594898806663 0  0.2390604736599387 2.861365431805741 0  0.8363213715215729 2.863896768908178 0  4.160865610207075 2.868916854015731 0  1.282549332053297 2.867610952980761 0  1.065094818402487 2.861284686038041 0  3.93818127737282 2.86865134411395 0  3.711492629432973 2.863574306925269 0  4.91369361998929 0.5579891344254361 0  0.08208328472281323 0.5559535993317519 0  2.696596932532885 2.892010483922337 0  0.04706410140274553 2.613055974506516 0  4.955577063972248 2.616518038840186 0  2.234177215189874 2.893422591869991 0  2.279795840559739 2.89403861893984 0  0.9117357887652362 0.2117925286661764 0  4.055948041993057 0.2039101057937727 0  4.872119713780579 2.867632926423075 0  2.780113878992455 2.891535929611743 0  0.1327442468251063 2.85
[...]
<PointData  Vectors="displacement"> 
<DataArray  type="Float64"  Name="displacement"  NumberOfComponents="3" format="ascii">1.1131864328740987e-03 -5.8251624547683714e-03 0.0000000000000000e+00  0.0000000000000000e+00 -2.3985531202784819e-04 0.0000000000000000e+00  -1.1147149908017127e-03 -5.8254013530032473e-03 0.0000000000000000e+00  0.0000000000000000e+00 -2.3985559863354803e-04 0.0000000000000000e+00  0.0000000000000000e+00 0.0000000000000000e+00 0.0000000000000000e+00  0.0000000000000000e+00 0.0000000000000000e+00 0.0000000000000000e+00  1.1033947445813746e-03 -5.1553746425139378e-03 0.0000000000000000e+00  1.0812786358850978e-03 -4.7133763134076931e-03 0.0000000000000000e+00  1.0594638271775646e-03 -4.3576977476320871e-03 0.0000000000000000e+00  1.0377729921061324e-03 -4.0543883918218145e-03 0.0000000000000000e+00  1.0161115572429747e-03 -3.7882829920717160e-03 0.0000000000000000e+00  9.9449545880391085e-04 -3.5506294116731934e-03 0.0000000000000000e+00  9.7294728384999672e-04 -3.3357030511532836e-03 0.0000000000000000e+00  9.5147178754143610e-04 -3.1395125856756700e-03 0.0000000000000000e+00  9.3009092051414956e-04 -2.9590911732553823e-03 0.0000000000000000e+00  9.0879686764029491e-04 -2.7922262177847712e-03 0.0000000000000000e+00  8.8759612579073399e-04 -2.6371976588968464e-03 0.0000000000000000e+00  8.6649355156397611e-04 -2.4926000991134750e-03 0.0000000000000000e+00  8.4549729729183867e-04 -2.3572819110132598e-03 0.0000000000000000e+00  8.2460709285858756e-04 -2.2303029375351246e-03 0.0000000000000000e+00  8.0382774504418120e-04 -2.1108763508043047e-03 0.0000000000000000e+00  7.8316170177954831e-04 -1.9983290778454285e-03 0.0000000000000000e+00  7.6261333545713471e-04 -1.8920851074246858e-03 0.0000000000000000e+00  7.4218039600035474e-04 -1.7916451811339411e-03 0.0000000000000000e+00  7.2186882104216803e-04 -1.6965721888031248e-03 0.0000000000000000e+00  7.0167998618288186e-04 -1.6064856443811649e-03 0.0000000000000000e+00  6.8161562597840865e-04 -1.5210498428790960e-03 0.0000000000000000e+00  6.6167643580966021e-04 -1.4399668852046257e-03 0.0000000000000000e+00  6.4186464979254976e-04 -1.3629663295474065e-03 0.0000000000000000e+00  6.2217874820683539e-04 -1.2898106413635148e-03 0.0000000000000000e+00  6.0262090480196458e-04 -1.2202867396696568e-03 0.0000000000000000e+00  5.8319167019631353e-04 -1.1541984692629689e-03 0.0000000000000000e+00  5.6389056863011993e-04 -1.0913673186235878e-03 0.0000000000000000e+00  5.4471565750617307e-04 -1.0316358472154006e-03 0.0000000000000000e+00  5.2567036884298903e-04 -9.7485737626544500e-04 0.0000000000000000e+00  5.0674820824969571e-04 -9.2089479947139198e-04 0.0000000000000000e+00  4.8795243682699780e-04 -8.6962746476823821e-04 0.0000000000000000e+00  4.6928063932403694e-04 -8.2094399627267707e-04 0.0000000000000000e+00  4.5072945264603348e-04 -7.7474223430361463e-04 0.0000000000000000e+00  4.3229846115370557e-04 -7.3092266007905224e-04 0.0000000000000000e+00  4.1398471312481641e-04 -6.8940025795624030e-04 0.0000000000000000e+00  3.9578633974329694e-04 -6.5009276660271426e-04 0.0000000000000000e+00  3.7769991078704767e-04 -6.1292457352679880e-04 0.0000000000000000e+00  3.5972286335037918e-04 -5.7782776841254762e-04 0.0000000000000000e+00  3.4185192733643128e-04 -5.4473726377250449e-04 0.0000000000000000e+00  3.2408351142951519e-04 -5.1359397458783558e-04 0.0000000000000000e+00  3.0641401724863576e-04 -4.8434319667211076e-04 0.0000000000000000e+00  2.8883964644563638e-04 -4.5693426525038994e-04 0.0000000000000000e+00  2.7135594412035008e-04 -4.3132023281590903e-04 0.0000000000000000e+00  2.5395898114898414e-04 -4.0745850066843680e-04 0.0000000000000000e+00  2.3664410520906495e-04 -3.8530908775321352e-04 0.0000000000000000e+00  2.1940674942082505e-04 -3.6483592222391197e-04 0.0000000000000000e+00  2.0224205307280238e-04 -3.4600573991265093e-04 0.0000000000000000e+00  1.8514507345147790e-04 -3.2878847547040024e-04 0.0000000000000000e+00  1.6811062049328145e-04 -3.1315657086489754e-04 0.0000000000000000e+00  1.5113339454830637e-04 -2.9908553077003143e-04 0.0000000000000000e+00  1.3420854393454581e-04 -2.8655347696652665e-04 0.0000000000000000e+00  1.1732954365438543e-04 -2.7554045856593778e-04 0.0000000000000000e+00  1.0049152532506478e-04 -2.6602960408960010e-04 0.0000000000000000e+00  8.3688808132649912e-05 -2.5800664215749246e-04 0.0000000000000000e+00  6.6915928785048890e-05 -2.5145904314937838e-04 0.0000000000000000e+00  5.0165962648227311e-05 -2.4637663901224809e-04 0.0000000000000000e+00  3.3434001792513416e-05 -2.4275182266232287e-04 0.0000000000000000e+00  1.6713967377381797e-05 -2.4057915175369432e-04 0.0000000000000000e+00  -1.0988929010204522e-03 -6.0291422211887239e-03 0.0000000000000000e+00  -1.0693226217693903e-03 -6.1760361156101380e-03 0.0000000000000000e+00  -1.0403971178499104e-03 -6.3015421229405269e-03 0.0000000000000000e+00  -1.0116128307242913e-03 -6.4136804123128876e-03 0.0000000000000000e+00  -9.8302968396574869e-04 -6.5159985312187498e-03 0.0000000000000000e+00  -9.5447248225217671e-04 -6.6104046956223725e-03 0.0000000000000000e+00  -9.2593477392144429e-04 -6.6981854908656664e-03 0.0000000000000000e+00  -8.9740950486809975e-04 -6.7801998819276166e-03 0.0000000000000000e+00  -8.6888482079249181e-04 -6.8571036606807122e-03 0.0000000000000000e+00  -8.4036996961072493e-04 -6.9294143295026735e-03 0.0000000000000000e+00  -8.1186277571085211e-04 -6.9975367452984379e-03 0.0000000000000000e+00  -7.8335765976606637e-04 -7.0617980283304163e-03 0.0000000000000000e+00  -7.5485555710831057e-04 -7.1224738609375945e-03 0.0000000000000000e+00  -7.2635658111701112e-04 -7.1797897508407132e-03 0.0000000000000000e+00  -6.9785722754983604e-04 -7.2339368372425382e-03 0.0000000000000000e+00  -6.6936160166853503e-04 -7.2850877174420051e-03 0.0000000000000000e+00  -6.4086756723676596e-04 -7.3333851861430120e-03 0.0000000000000000e+00  -6.1237529598375548e-04 -7.3789543948562485e-03 0.0000000000000000e+00  -5.8388443543815776e-04 -7.4219065873498882e-03 0.0000000000000000e+00  -5.5539473403399034e-04 -7.4623391237895933e-03 0.0000000000000000e+00  -5.2690621362162424e-04 -7.5003386070541869e-03 0.0000000000000000e+00  -4.9841883318797883e-04 -7.5359820761841303e-03 0.0000000000000000e+00  -4.6993235841086533e-04 -7.5693377343192146e-03 0.0000000000000000e+00  -4.4144693162822185e-04 -7.6004671494702422e-03 0.0000000000000000e+00  -4.1296238016424704e-04 -7.6294252799638338e-03 0.0000000000000000e+00  -3.8447861422661738e-04 -7.6562606551220415e-03 0.0000000000000000e+00  -3.5599596280819353e-04 -7.6810171877871444e-03 0.0000000000000000e+00  -3.2751350239489980e-04 -7.7037335409224344e-03 0.0000000000000000e+00  -2.9903178841113456e-04 -7.7244450328906806e-03 0.0000000000000000e+00  -2.7055076961491893e-04 -7.7431824110873572e-03 0.0000000000000000e+00  -2.4207031056565990e-04 -7.7599730310784478e-03 0.0000000000000000e+00  -2.1359022243661231e-04 -7.7748406604869731e-03 0.0000000000000000e+00  -1.8511053154682730e-04 -7.7878061955418973e-03 0.0000000000000000e+00  -1.5663129729598561e-04 -7.7988875106907354e-03 0.0000000000000000e+00  -1.2815211215908630e-04 -7.8080992115830035e-03 0.0000000000000000e+00  -9.9673670063293580e-05 -7.8154542491838536e-03 0.0000000000000000e+00  -7.1194937917197504e-05 -7.8209621096201089e-03 0.0000000000000000e+00  -4.2716439483851006e-05 -7.8246298948342514e-03 0.0000000000000000e+00  -1.4238124348445288e-05 -7.8264626134268919e-03 0.0000000000000000e+00  1.4240193617734558e-05 -7.8264625781609351e-03 0.0000000000000000e+00  4.2718537344202377e-05 -7.8246297770396978e-03 0.0000000000000000e+00  7.1196965773870599e-05 -7.8209618448590694e-03 0.0000000000000000e+00  9.9675535399491665e-05 -7.8154540429214176e-03 0.0000000000000000e+00  1.2815423090977842e-04 -7.8080989734100282e-03 0.0000000000000000e+00  1.5663326521419201e-04 -7.7988868702447613e-03 0.0000000000000000e+00  1.8511253254922501e-04 -7.7878056641862712e-03 0.0000000000000000e+00  2.1359218175161040e-04 -7.7748401489108167e-03 0.0000000000000000e+00  2.4207222894392604e-04 -7.7599724509233563e-03 0.0000000000000000e+00  2.7055282906525299e-04 -7.7431818601137407e-03 0.0000000000000000e+00  2.9903385554094070e-04 -7.7244443109779409e-03 0.0000000000000000e+00  3.2751550166664948e-04 -7.7037328327749484e-03 0.0000000000000000e+00  3.5599801165962981e-04 -7.6810162421352985e-03 0.0000000000000000e+00  3.8448086651260188e-04 -7.6562596822716865e-03 0.0000000000000000e+00  4.1296463153634160e-04 -7.6294245083897384e-03 0.0000000000000000e+00  4.4144922162318352e-04 -7.6004666265895105e-03 0.0000000000000000e+00  4.6993472846742113e-04 -7.5693371620775222e-03 0.0000000000000000e+00  4.9842106446679418e-04 -7.5359812894370990e-03 0.0000000000000000e+00  5.2690895160098982e-04 -7.5003381440404268e-03 0.0000000000000000e+00  5.5539796446830091e-04 -7.4623377692168051e-03 0.0000000000000000e+00  5.8388795733775275e-04 -7.4219052217290036e-03 0.0000000000000000e+00  6.1237917378366045e-04 -7.3789529181095583e-03 0.0000000000000000e+00  6.4087196623192867e-04 -7.3333833811160499e-03 0.0000000000000000e+00  6.6936636119046991e-04 -7.2850858632792122e-03 0.0000000000000000e+00  6.9786266688901671e-04 -7.2339341658551708e-03 0.0000000000000000e+00  7.2636099488256924e-04 -7.1797844119558234e-03 0.0000000000000000e+00  7.5486212649465646e-04 -7.1224690773818268e-03 0.0000000000000000e+00  7.8336483939135529e-04 -7.0617935996610441e-03 0.0000000000000000e+00  8.1187061825901030e-04 -6.9975294810197645e-03 0.0000000000000000e+00  8.4038194001357790e-04 -6.9294098811204267e-03 0.0000000000000000e+00  8.6889497491614873e-04 -6.8570976929900928e-03 0.0000000000000000e+00  8.9741280041590607e-04 -6.7801861636487470e-03 0.0000000000000000e+00  9.2594241474080888e-04 -6.6981737406015505e-03 0.0000000000000000e+00  9.5448924419359827e-04 -6.6104116983156077e-03 0.0000000000000000e+00  9.8304190551256557e-04 -6.5159799331291589e-03 0.0000000000000000e+00  1.0116109929577967e-03 -6.4136346549936362e-03 0.0000000000000000e+00  1.0401606134616383e-03 -6.3015308211415494e-03 0.0000000000000000e+00  1.0695116744963437e-03 -6.1764522111316493e-03 0.0000000000000000e+00  1.0987367324685844e-03 -6.0286770721525822e-03 0.0000000000000000e+00  -1.6714098220848097e-05 -2.4057937823417308e-04 0.0000000000000000e+00  -3.3434134001379036e-05 -2.4275207928544368e-04 0.0000000000000000e+00  -5.0165992417314890e-05 -2.4637681584458734e-04 0.0000000000000000e+00  -6.6915626017277003e-05 -2.5145918433091375e-04 0.0000000000000000e+00  -8.3688837533012171e-05 -2.5800680347180501e-04 0.0000000000000000e+00  -1.0049179231856248e-04 -2.6603001435316411e-04 0.0000000000000000e+00  -1.1732951764609275e-04 -2.7554058913672200e-04 0.0000000000000000e+00  -1.3420829771624895e-04 -2.8655349987743154e-04 0.0000000000000000e+00  -1.5113346981795021e-04 -2.9908571182369622e-04 0.0000000000000000e+00  -1.6811065711818781e-04 -3.1315683452302689e-04 0.0000000000000000e+00  -1.8514507842628663e-04 -3.2878873807218328e-04 0.0000000000000000e+00  -2.0224213571054037e-04 -3.4600609670118346e-04 0.0000000000000000e+00  -2.1940680450119519e-04 -3.6483626902741070e-04 0.0000000000000000e+00  -2.3664411831863434e-04 -3.8530943724559788e-04 0.0000000000000000e+00  -2.5395893758657038e-04 -4.0745877107109529e-04 0.0000000000000000e+00  -2.7135588866487669e-04 -4.3132056095104582e-04 0.0000000000000000e+00  -2.8883948837040791e-04 -4.5693434328488992e-04 0.0000000000000000e+00  -3.0641404777814263e-04 -4.8434354726111488e-04 0.0000000000000000e+00  -3.2408340934448682e-04 -5.1359442759590208e-04 0.0000000000000000e+00  -3.4185185632314413e-04 -5.4473793524796924e-04 0.0000000000000000e+00  -3.5972335009075592e-04 -5.7782870109761753e-04 0.0000000000000000e+00  -3.7769970350574726e-04 -6.1292509482181561e-04 0.0000000000000000e+00  -3.9578613107952096e-04 -6.5009273203688045e-04 0.0000000000000000e+00  -4.1398462680791671e-04 -6.8940047097519933e-04 0.0000000000000000e+00  -4.3229816657106972e-04 -7.3092322133943058e-04 0.0000000000000000e+00  -4.5072917008530194e-04 -7.7474215649065564e-04 0.0000000000000000e+00  -4.6927995191402966e-04 -8.2094534557566586e-04 0.0000000000000000e+00  -4.8795234868281097e-04 -8.6962818949478456e-04 0.0000000000000000e+00  -5.0674837511178160e-04 -9.2089437160076081e-04 0.0000000000000000e+00  -5.2566927503879402e-04 -9.7485600755337792e-04 0.0000000000000000e+00  -5.4471607123070134e-04 -1.0316358873531562e-03 0.0000000000000000e+00  -5.6388948152473256e-04 -1.0913673464682764e-03 0.0000000000000000e+00  -5.8319357817581405e-04 -1.1541981148748145e-03 0.0000000000000000e+00  -6.0262064530380009e-04 -1.2202872784797742e-03 0.0000000000000000e+00  -6.2217849555305218e-04 -1.2898126443283407e-03 0.0000000000000000e+00  -6.4186400555005805e-04 -1.3629670000015067e-03 0.0000000000000000e+00  -6.6167710710679842e-04 -1.4399660141636707e-03 0.0000000000000000e+00  -6.8161556665438346e-04 -1.5210496860846787e-03 0.0000000000000000e+00  -7.0167963461932104e-04 -1.6064853228426490e-03 0.0000000000000000e+00  -7.2186817713559869e-04 -1.6965712574066815e-03 0.0000000000000000e+00  -7.4217987749221651e-04 -1.7916440230606383e-03 0.0000000000000000e+00  -7.6261144504089265e-04 -1.8920863078595127e-03 0.0000000000000000e+00  -7.8316311211143377e-04 -1.9983317887296631e-03 0.0000000000000000e+00  -8.0383001551567919e-04 -2.1108780524497026e-03 0.0000000000000000e+00  -8.2460777613805572e-04 -2.2303018215519481e-03 0.0000000000000000e+00  -8.4549471818035472e-04 -2.3572791275533996e-03 0.0000000000000000e+00  -8.6649179263255177e-04 -2.4925974021129012e-03 0.0000000000000000e+00  -8.8759375124009986e-04 -2.6372040151604833e-03 0.0000000000000000e+00  -9.0879489591243938e-04 -2.7922369783326666e-03 0.0000000000000000e+00  -9.3009400464372162e-04 -2.9590828805333628e-03 0.0000000000000000e+00  -9.5147411404272655e-04 -3.1395148059336401e-03 0.0000000000000000e+00  -9.7295639727879555e-04 -3.3356924923744146e-03 0.0000000000000000e+00  -9.9449506144355204e-04 -3.5506352162867328e-03 0.0000000000000000e+00  -1.0160936329884972e-03 -3.7883056520811031e-03 0.0000000000000000e+00  -1.0377541893402179e-03 -4.0543872664371653e-03 0.0000000000000000e+00  -1.0595669095090131e-03 -4.3576814445332387e-03 0.0000000000000000e+00  -1.0810025946904180e-03 -4.7135452466699132e-03 0.0000000000000000e+00  -1.1036051807204567e-03 -5.1550656559855865e-03 0.0000000000000000e+00  0.0000000000000000e+00 -4.6549126081035631e-05 0.0000000000000000e+00  0.0000000000000000e+00 -8.6953342584054582e-05 0.0000000000000000e+00  0.0000000000000000e+00 -1.2196467517455971e-04 0.0000000000000000e+00  0.0000000000000000e+00 -1.5222372669002250e-04 0.0000000000000000e+00  0.0000000000000000e+00 -1.7821731005951747e-04 0.0000000000000000e+00  0.0000000000000000e+00 -2.0034603654904226e-04 0.0000000000000000e+00  0.0000000000000000e+00 -2.1894516616551850e-04 0.0000000000000000e+00  0.0000000000000000e+00 -2.3430166034193829e-04 0.0000000000000000e+00  0.0000000000000000e+00 -2.4664346852036931e-04 0.0000000000000000e+00  0.0000000000000000e+00 -2.5622103159394355e-04 0.0000000000000000e+00  0.0000000000000000e+00 -2.6323652401749414e-04 0.0000000000000000e+00  0.0000000000000000e+00 -2.6789998669982709e-04 0.0000000000000000e+00  0.0000000000000000e+00 -2.7042590550961925e-04 0.0000000000000000e+00  0.0000000000000000e+00 -2.7102609604346030e-04 0.0000000000000000e+00  0.0000000000000000e+00 -2.6991800711494276e-04 0.0000000000000000e+00  0.0000000000000000e+00 -2.6732533316312920e-04 0.0000000000000000e+00  0.0000000000000000e+00 -2.6347957188037276e-04 0.0000000000000000e+00  0.0000000000000000e+00 -2.5861174919536146e-04 0.0000000000000000e+00  0.0000000000000000e+00 -2.5295516391631349e-04 0.0000000000000000e+00  0.0000000000000000e+00 -2.4674252604827784e-04 0.0000000000000000e+00  0.0000000000000000e+00 -2.4020289540413930e-04 0.0000000000000000e+00  0.0000000000000000e+00 -2.3355683841947233e-04 0.0000000000000000e+00  0.0000000000000000e+00 -2.2701742016720245e-04 0.0000000000000000e+00  0.0000000000000000e+00 -2.2077867473928114e-04 0.0000000000000000e+00  0.0000000000000000e+00 -2.1502590740618939e-04 0.0000000000000000e+00  0.0000000000000000e+00 -2.0992624412604518e-04 0.0000000000000000e+00  0.0000000000000000e+00 -2.0562038600034136e-04 0.0000000000000000e+00  0.0000000000000000e+00 -2.0223579825007267e-04 0.0000000000000000e+00  0.0000000000000000e+00 -1.9987401866129219e-04 0.0000000000000000e+00  0.0000000000000000e+00 -1.9861481249997819e-04 0.0000000000000000e+00  0.0000000000000000e+00 -1.9851629165365488e-04 0.0000000000000000e+00  0.0000000000000000e+00 -1.9961404717643838e-04 0.0000000000000000e+00  0.0000000000000000e+00 -2.0192334985433364e-04 0.0000000000000000e+00  0.0000000000000000e+00 -2.0544050915276851e-04 0.0000000000000000e+00  0.0000000000000000e+00 -2.1014358535804471e-04 0.0000000000000000e+00  0.0000000000000000e+00 -2.1599450916967380e-04 0.0000000000000000e+00  0.0000000000000000e+00 -2.2294105274234561e-04 0.0000000000000000e+00  0.0000000000000000e+00 -2.3091940508341950e-04 0.0000000000000000e+00  0.0000000000000000e+00 0.0000000000000000e+00 0.0000000000000000e+00  0.0000000000000000e+00 0.0000000000000000e+00 0.0000000000000000e+00  0.0000000000000000e+00 0.0000000000000000e+00 0.0000000000000000e+00  0.0000000000000000e+00 0.0000000000000000e+00 0.0000000000000000e+00  0.0000000000000000e+00 0.0000000000000000e+00 0.0000000000000000e+00  0.0000000000000000e+00 0.0000000000000000e+00 0.0000000000000000e+00  0.0000000000000000e+00 0.0000000000000000e+00 0.0000000000000000e+00  0.0000000000000000e+00 0.0000000000000000e+00 0.0000000000000000e+00  0.0000000000000000e+00 0.0000000000000000e+00 0.0000000000000000e+00  0.0000000000000000e+00 0.0000000000000000e+00 0.0000000000000000e+00  0.0000000000000000e+00 0.0000000000000000e+00 0.0000000000000000e+00  0.0000000000000000e+00 0.0000000000000000e+00 0.0000000000000000e+00  0.0000000000000000e+00 0.0000000000000000e+00 0.0000000000000000e+00  0.0000000000000000e+00 0.0000000000000000e+00 0.0000000000000000e+00  0.0000000000000000e+00 0.0000000000000000e+00 0.0000000000000000e+00  0.0000000000000000e+00 0.0000000000000000e+00 0.0000000000000000e+00  0.0000000000000000e+00 0.0000000000000000e+00 0.0000000000000000e+00  0.0000000000000000e+00 0.0000000000000000e+00 0.0000000000000000e+00  0.0000000000000000e+00 -2.3084680169046081e-04 0.0000000000000000e+00  0.0000000000000000e+00 -2.2281739158943115e-04 0.0000000000000000e+00  0.0000000000000000e+00 -2.1584107371776668e-04 0.0000000000000000e+00  0.0000000000000000e+00 -2.0998089109221550e-04 0.0000000000000000e+00  0.0000000000000000e+00 -2.0528813773205753e-04 0.0000000000000000e+00  0.0000000000000000e+00 -2.0179894312684213e-04 0.0000000000000000e+00  0.0000000000000000e+00 -1.9953284946710287e-04 0.0000000000000000e+00  0.0000000000000000e+00 -1.9849126237357897e-04 0.0000000000000000e+00  0.0000000000000000e+00 -1.9865601864589002e-04 0.0000000000000000e+00  0.0000000000000000e+00 -1.9998720736667466e-04 0.0000000000000000e+00  0.0000000000000000e+00 -2.0242490992786587e-04 0.0000000000000000e+00  0.0000000000000000e+00 -2.0588183240751378e-04 0.0000000000000000e+00  0.0000000000000000e+00 -2.1025673464985381e-04 0.0000000000000000e+00  0.0000000000000000e+00 -2.1541924650580373e-04 0.0000000000000000e+00  0.0000000000000000e+00 -2.2122230910629002e-04 0.0000000000000000e+00  0.0000000000000000e+00 -2.2749525019815468e-04 0.0000000000000000e+00  0.0000000000000000e+00 -2.3405438885726478e-04 0.0000000000000000e+00  0.0000000000000000e+00 -2.4070293035356705e-04 0.0000000000000000e+00  0.0000000000000000e+00 -2.4722520505790903e-04 0.0000000000000000e+00  0.0000000000000000e+00 -2.5340054188488118e-04 0.0000000000000000e+00  0.0000000000000000e+00 -2.5900130483178370e-04 0.0000000000000000e+00  0.0000000000000000e+00 -2.6379645861492913e-04 0.0000000000000000e+00  0.0000000000000000e+00 -2.6755409124095048e-04 0.00000000000