<?xml version="1.0"?>
<VTKFile type="UnstructuredGrid"  version="0.1"  >
<UnstructuredGrid>
<Piece  NumberOfPoints="3167" NumberOfCells="6038">
<Points>
<DataArray  type="Float64"  NumberOfComponents="3"  format="ascii">2.2 2.9 0  0 2.9 0  2.8 2.9 0  5 2.9 0  5 0 0  0 0 0  2.16271186440678 2.9 0  2.125423728813559 2.9 0  2.088135593220339 2.9 0  2.050847457627119 2.9 0  2.013559322033898 2.9 0  1.976271186440678 2.9 0  1.938983050847457 2.9 0  1.901694915254237 2.9 0  1.864406779661016 2.9 0  1.827118644067796 2.9 0  1.789830508474575 2.9 0  1.752542372881355 2.9 0  1.715254237288134 2.9 0  1.677966101694914 2.9 0  1.640677966101693 2.9 0  1.603389830508473 2.9 0  1.566101694915253 2.9 0  1.528813559322032 2.9 0  1.491525423728812 2.9 0  1.454237288135591 2.9 0  1.416949152542371 2.9 0  1.37966101694915 2.9 0  1.34237288135593 2.9 0  1.305084745762709 2.9 0  1.267796610169489 2.9 0  1.230508474576268 2.9 0  1.193220338983048 2.9 0  1.155932203389827 2.9 0  1.118644067796607 2.9 0  1.081355932203387 2.9 0  1.044067796610166 2.9 0  1.006779661016946 2.9 0  0.9694915254237257 2.9 0  0.9322033898305055 2.9 0  0.8949152542372856 2.9 0  0.8576271186440652 2.9 0  0.820338983050845 2.9 0  0.783050847457625 2.9 0  0.7457627118644048 2.9 0  0.7084745762711844 2.9 0  0.6711864406779642 2.9 0  0.633898305084744 2.9 0  0.5966101694915238 2.9 0  0.5593220338983036 2.9 0  0.5220338983050834 2.9 0  0.4847457627118632 2.9 0  0.447457627118643 2.9 0  0.4101694915254228 2.9 0  0.3728813559322024 2.9 0  0.3355932203389822 2.9 0  0.2983050847457622 2.9 0  0.2610169491525418 2.9 0  0.2237288135593216 2.9 0  0.1864406779661016 2.9 0  0.1491525423728812 2.9 0  0.1118644067796613 2.9 0  0.07457627118644039 2.9 0  0.03728813559321997 2.9 0  2.792405063291139 2.9 0  2.784810126582279 2.9 0  2.777215189873418 2.9 0  2.769620253164557 2.9 0  2.762025316455697 2.9 0  2.754430379746836 2.9 0  2.746835443037975 2.9 0  2.739240506329114 2.9 0  2.731645569620254 2.9 0  2.724050632911393 2.9 0  2.716455696202532 2.9 0  2.708860759493671 2.9 0  2.701265822784811 2.9 0  2.69367088607595 2.9 0  2.686075949367089 2.9 0  2.678481012658228 2.9 0  2.670886075949368 2.9 0  2.663291139240507 2.9 0  2.655696202531646 2.9 0  2.648101265822786 2.9 0  2.640506329113925 2.9 0  2.632911392405064 2.9 0  2.625316455696203 2.9 0  2.617721518987342 2.9 0  2.610126582278482 2.9 0  2.602531645569621 2.9 0  2.59493670886076 2.9 0  2.587341772151899 2.9 0  2.579746835443038 2.9 0  2.572151898734178 2.9 0  2.564556962025317 2.9 0  2.556962025316456 2.9 0  2.549367088607595 2.9 0  2.541772151898734 2.9 0  2.534177215189874 2.9 0  2.526582278481013 2.9 0  2.518987341772152 2.9 0  2.511392405063292 2.9 0  2.503797468354431 2.9 0  2.49620253164557 2.9 0  2.488607594936709 2.9 0  2.481012658227848 2.9 0  2.473417721518988 2.9 0  2.465822784810127 2.9 0  2.458227848101266 2.9 0  2.450632911392406 2.9 0  2.443037974683545 2.9 0  2.435443037974684 2.9 0  2.427848101265823 2.9 0  2.420253164556962 2.9 0  2.412658227848102 2.9 0  2.405063291139241 2.9 0  2.39746835443038 2.9 0  2.389873417721519 2.9 0  2.382278481012658 2.9 0  2.374683544303798 2.9 0  2.367088607594937 2.9 0  2.359493670886076 2.9 0  2.351898734177215 2.9 0  2.344303797468355 2.9 0  2.336708860759494 2.9 0  2.329113924050633 2.9 0  2.321518987341773 2.9 0  2.313924050632912 2.9 0  2.306329113924051 2.9 0  2.29873417721519 2.9 0  2.291139240506329 2.9 0  2.283544303797469 2.9 0  2.275949367088608 2.9 0  2.268354430379747 2.9 0  2.260759493670887 2.9 0  2.253164556962026 2.9 0  2.245569620253165 2.9 0  2.237974683544304 2.9 0  2.230379746835443 2.9 0  2.222784810126583 2.9 0  2.215189873417722 2.9 0  2.207594936708861 2.9 0  4.96271186440678 2.9 0  4.925423728813559 2.9 0  4.888135593220339 2.9 0  4.850847457627118 2.9 0  4.813559322033898 2.9 0  4.776271186440677 2.9 0  4.738983050847457 2.9 0  4.701694915254237 2.9 0  4.664406779661016 2.9 0  4.627118644067796 2.9 0  4.589830508474575 2.9 0  4.552542372881355 2.9 0  4.515254237288135 2.9 0  4.477966101694914 2.9 0  4.440677966101694 2.9 0  4.403389830508473 2.9 0  4.366101694915252 2.9 0  4.328813559322032 2.9 0  4.291525423728811 2.9 0  4.254237288135591 2.9 0  4.21694915254237 2.9 0  4.17966101694915 2.9 0  4.14237288135593 2.9 0  4.105084745762709 2.9 0  4.067796610169489 2.9 0  4.030508474576268 2.9 0  3.993220338983048 2.9 0  3.955932203389827 2.9 0  3.918644067796607 2.9 0  3.881355932203387 2.9 0  3.844067796610166 2.9 0  3.806779661016946 2.9 0  3.769491525423725 2.9 0  3.732203389830505 2.9 0  3.694915254237285 2.9 0  3.657627118644065 2.9 0  3.620338983050845 2.9 0  3.583050847457625 2.9 0  3.545762711864405 2.9 0  3.508474576271184 2.9 0  3.471186440677964 2.9 0  3.433898305084744 2.9 0  3.396610169491524 2.9 0  3.359322033898303 2.9 0  3.322033898305083 2.9 0  3.284745762711863 2.9 0  3.247457627118643 2.9 0  3.210169491525423 2.9 0  3.172881355932202 2.9 0  3.135593220338982 2.9 0  3.098305084745762 2.9 0  3.061016949152542 2.9 0  3.023728813559321 2.9 0  2.986440677966101 2.9 0  2.949152542372881 2.9 0  2.911864406779661 2.9 0  2.87457627118644 2.9 0  2.83728813559322 2.9 0  5 0.1063822625082082 0  5 0.210636880010749 0  5 0.3128064053694972 0  5 0.4129325400644018 0  5 0.5110561521032336 0  5 0.6072172918830103 0  5 0.7014552087832795 0  5 0.7938083674443693 0  5 0.88431446261646 0  5 0.9730104359544682 0  5 1.059932489996267 0  5 1.145116102913299 0  5 1.228596043483191 0  5 1.310406385079062 0  5 1.390580519944147 0  5 1.469151172477827 0  5 1.546150411986101 0  5 1.621609666658609 0  5 1.695559736099044 0  5 1.76803080383987 0  5 1.839052450169751 0  5 1.908653663631169 0  5 1.97686285289587 0  5 2.043707858613779 0  5 2.109215964341413 0  5 2.173413907925942 0  5 2.236327892833935 0  5 2.297983597762904 0  5 2.35840618845912 0  5 2.41762032730194 0  5 2.475650183444628 0  5 2.532519442457069 0  5 2.588251316112828 0  5 2.642868552557322 0  5 2.696393444426347 0  5 2.748847838312051 0  5 2.800253144313381 0  5 2.850630344319807 0  0.2631578947368421 0 0  0.5263157894736842 0 0  0.7894736842105263 0 0  1.052631578947368 0 0  1.31578947368421 0 0  1.578947368421053 0 0  1.842105263157895 0 0  2.105263157894737 0 0  2.368421052631579 0 0  2.631578947368421 0 0  2.894736842105263 0 0  3.157894736842105 0 0  3.421052631578947 0 0  3.684210526315789 0 0  3.947368421052632 0 0  4.210526315789473 0 0  4.473684210526315 0 0  4.736842105263158 0 0  0 2.850203682350569 0  0 2.799411438503675 0  0 2.747603349778291 0  0 2.694759099502208 0  0 2.640857964382145 0  0 2.58587880633613 0  0 2.52980006535898 0  0 2.472599749459174 0  0 2.414255427218689 0  0 2.35474421880616 0  0 2.294042786119219 0  0 2.232127324764723 0  0 2.1689735539481 0  0 2.104556707683347 0  0 2.038851524813415 0  0 1.971832238155655 0  0 1.903472565412126 0  0 1.83374569926617 0  0 1.762624296208475 0  0 1.690080464918761 0  0 1.616085756774206 0  0 1.540611154706337 0  0 1.463627060685571 0  0 1.385103284916206 0  0 1.305009033716617 0  0 1.223312897337225 0  0 1.139982838163732 0  0 1.054986177579938 0  0 0.9682895835804817 0  0 0.8798590579197976 0  0 0.7896599218415354 0  0 0.6976568029903638 0  0 0.6038136217958798 0  0 0.508093576867624 0  0 0.4104591310957497 0  0 0.3108719963522191 0  0 0.2092931188294389 0  0 0.1056826638508546 0  1.434832105763824 2.866945754981483 0  1.737156300467626 2.870039440267515 0  2.032203389830508 2.867707527316512 0  2.332911392405064 2.893422591869991 0  2.469810913293406 2.891944186606167 0  2.606221408823969 2.892519154985628 0  2.255455320628894 2.892068685006691 0  2.538247299216212 2.894964578182811 0  2.674683544303798 2.893422591869991 0  2.40126582278481 2.893422591869991 0  3.566125247295424 2.865029336199714 0  3.266101694915253 2.867707527316512 0  2.967796610169491 2.867707527316512 0  1.174288529834642 2.870795313888584 0  3.825423728813556 2.867707527316512 0  2.727766680262011 2.892655387647729 0  0.06601655192030442 1.502119107695954 0  4.933983535508361 1.507650792231964 0  0.9532124728485543 2.868722489783638 0  4.048935912500257 2.870640982995992 0  0.05930163367361763 1.866907161167414 0  4.943402512618553 1.871280731473148 0  4.271733870017743 2.86520865624265 0  0.7249420921613114 2.863922936177041 0  0.05494499779910056 2.196469063120752 0  4.947228695426367 2.208030108792719 0  0.5406152150397161 2.866493807382013 0  4.459322033898304 2.868847558178794 0  2.18135593220339 2.875780645487384 0  2.817027156509632 2.876587550645167 0  4.928427208322876 1.186856073198245 0  0.07189226971603224 1.174626666111662 0  4.610299014423113 2.867003104093161 0  0.3897270066746357 2.869433095314657 0  1.581132500042262 2.868247328632392 0  1.887637879411437 2.869235851794358 0  3.413449426418068 2.867372048034327 0  3.116721298814773 2.865731235547652 0  2.644303797468355 2.893422591869991 0  2.370983221828106 2.892719513369796 0  2.302531645569621 2.893336787387268 0  2.758987341772152 2.894242393897099 0  0.04979653335696277 2.443411216910286 0  4.950470983477169 2.446866954595817 0  2.482937483021586 0.2513241087417575 0  1.707129504814338 0.1999998659920923 0  3.28584657955054 0.229200625631625 0  4.907807122600524 0.834082362900164 0  4.757627118644067 2.867707527316512 0  0.0773489124676745 0.8347594898806663 0  0.2390604736599387 2.861365431805741 0  0.8363213715215729 2.863896768908178 0  4.160865610207075 2.868916854015731 0  1.282549332053297 2.867610952980761 0  1.065094818402487 2.861284686038041 0  3.93818127737282 2.86865134411395 0  3.711492629432973 2.863574306925269 0  4.91369361998929 0.5579891344254361 0  0.08208328472281323 0.5559535993317519 0  2.696596932532885 2.892010483922337 0  0.04706410140274553 2.613055974506516 0  4.955577063972248 2.616518038840186 0  2.234177215189874 2.893422591869991 0  2.279795840559739 2.89403861893984 0  0.9117357887652362 0.2117925286661764 0  4.055948041993057 0.2039101057937727 0  4.872119713780579 2.867632926423075 0  2.780113878992455 2.891535929611743 0  0.1327442468251063 2.85
[...]
<PointData  Vectors="displacement"> 
<DataArray  type="Float64"  Name="displacement"  NumberOfComponents="3" format="ascii">-5.4640435556425925e-04 -5.4705151777508839e-03 0.0000000000000000e+00  0.0000000000000000e+00 -3.0301317043435877e-04 0.0000000000000000e+00  4.5805079497555267e-04 -5.6924243677717251e-03 0.0000000000000000e+00  0.0000000000000000e+00 -3.0269082986544518e-04 0.0000000000000000e+00  0.0000000000000000e+00 0.0000000000000000e+00 0.0000000000000000e+00  0.0000000000000000e+00 0.0000000000000000e+00 0.0000000000000000e+00  -6.5224483831747778e-04 -4.5213680190334202e-03 0.0000000000000000e+00  -6.8126623141941611e-04 -4.0873726099049448e-03 0.0000000000000000e+00  -6.8820346878524356e-04 -3.7599803538947143e-03 0.0000000000000000e+00  -6.8612742235903796e-04 -3.4894642629499100e-03 0.0000000000000000e+00  -6.7858891774372307e-04 -3.2580438756663380e-03 0.0000000000000000e+00  -6.6710881782269089e-04 -3.0557204245673843e-03 0.0000000000000000e+00  -6.5265798044276708e-04 -2.8759879636070093e-03 0.0000000000000000e+00  -6.3592356592644681e-04 -2.7143320591372349e-03 0.0000000000000000e+00  -6.1748222101427126e-04 -2.5674139568283836e-03 0.0000000000000000e+00  -5.9777908983376033e-04 -2.4327551424641147e-03 0.0000000000000000e+00  -5.7718747322875919e-04 -2.3084658775573367e-03 0.0000000000000000e+00  -5.5602001564360680e-04 -2.1930358247072897e-03 0.0000000000000000e+00  -5.3455543059460590e-04 -2.0852563843144307e-03 0.0000000000000000e+00  -5.1300727048727559e-04 -1.9841694893701603e-03 0.0000000000000000e+00  -4.9155390022533616e-04 -1.8890056762499677e-03 0.0000000000000000e+00  -4.7034503820205827e-04 -1.7991285781495676e-03 0.0000000000000000e+00  -4.4949459482809351e-04 -1.7140182876736558e-03 0.0000000000000000e+00  -4.2909600366457164e-04 -1.6332389794135880e-03 0.0000000000000000e+00  -4.0922096929678863e-04 -1.5564272381622620e-03 0.0000000000000000e+00  -3.8991762912693874e-04 -1.4832775660116604e-03 0.0000000000000000e+00  -3.7122241563816548e-04 -1.4135319794632319e-03 0.0000000000000000e+00  -3.5315887805631782e-04 -1.3469695762443818e-03 0.0000000000000000e+00  -3.3573889993254664e-04 -1.2833960563062041e-03 0.0000000000000000e+00  -3.1896815756805315e-04 -1.2226468985570844e-03 0.0000000000000000e+00  -3.0284256815122913e-04 -1.1645783539059717e-03 0.0000000000000000e+00  -2.8735336201496560e-04 -1.1090612687055163e-03 0.0000000000000000e+00  -2.7248761976085090e-04 -1.0559807059482974e-03 0.0000000000000000e+00  -2.5823075896505354e-04 -1.0052374662566004e-03 0.0000000000000000e+00  -2.4456229041973522e-04 -9.5674068405666654e-04 0.0000000000000000e+00  -2.3146114947627015e-04 -9.1040511292523609e-04 0.0000000000000000e+00  -2.1890571063681383e-04 -8.6615902495777611e-04 0.0000000000000000e+00  -2.0687226705449910e-04 -8.2393548374553021e-04 0.0000000000000000e+00  -1.9534070641957812e-04 -7.8367237322302271e-04 0.0000000000000000e+00  -1.8428173635848144e-04 -7.4531096430287150e-04 0.0000000000000000e+00  -1.7367552410836788e-04 -7.0880098766415629e-04 0.0000000000000000e+00  -1.6349659977427840e-04 -6.7409338852480842e-04 0.0000000000000000e+00  -1.5372047759432031e-04 -6.4114374996900850e-04 0.0000000000000000e+00  -1.4432663218732217e-04 -6.0991125578778135e-04 0.0000000000000000e+00  -1.3529035907365673e-04 -5.8035762144576322e-04 0.0000000000000000e+00  -1.2659046531262938e-04 -5.5244759848946314e-04 0.0000000000000000e+00  -1.1820522905669992e-04 -5.2614838817597231e-04 0.0000000000000000e+00  -1.1011461883721503e-04 -5.0142974206142344e-04 0.0000000000000000e+00  -1.0229726353623225e-04 -4.7826331152292588e-04 0.0000000000000000e+00  -9.4734102967059946e-05 -4.5662339065200740e-04 0.0000000000000000e+00  -8.7405674892843306e-05 -4.3648591095351782e-04 0.0000000000000000e+00  -8.0293918257777052e-05 -4.1782886205844522e-04 0.0000000000000000e+00  -7.3380608044834920e-05 -4.0063181009162928e-04 0.0000000000000000e+00  -6.6648800921175562e-05 -3.8487641505769577e-04 0.0000000000000000e+00  -6.0080979890443032e-05 -3.7054583938642610e-04 0.0000000000000000e+00  -5.3660900893935445e-05 -3.5762498927552767e-04 0.0000000000000000e+00  -4.7373619461653429e-05 -3.4610010566561754e-04 0.0000000000000000e+00  -4.1201193351008965e-05 -3.3595867251121417e-04 0.0000000000000000e+00  -3.5129758433069740e-05 -3.2719093084767166e-04 0.0000000000000000e+00  -2.9144968133527665e-05 -3.1978740774983420e-04 0.0000000000000000e+00  -2.3232031886893097e-05 -3.1374041222285238e-04 0.0000000000000000e+00  -1.7373978007816427e-05 -3.0904336663810947e-04 0.0000000000000000e+00  -1.1558839080895690e-05 -3.0569207783278632e-04 0.0000000000000000e+00  -5.7721620630070233e-06 -3.0368264862783942e-04 0.0000000000000000e+00  -9.6859565528765795e-04 -9.9795285433986209e-03 0.0000000000000000e+00  -8.4045852620159552e-04 -1.0646250599112625e-02 0.0000000000000000e+00  -7.7054753670685789e-04 -1.0884997509858298e-02 0.0000000000000000e+00  -7.4413978615074866e-04 -1.1034040473684404e-02 0.0000000000000000e+00  -7.2463787731477387e-04 -1.1168795669111928e-02 0.0000000000000000e+00  -7.0582946220158142e-04 -1.1294411031328255e-02 0.0000000000000000e+00  -6.8544028895184373e-04 -1.1411361810555081e-02 0.0000000000000000e+00  -6.6477373718880188e-04 -1.1518977025532388e-02 0.0000000000000000e+00  -6.4445104294684485e-04 -1.1618616418468480e-02 0.0000000000000000e+00  -6.2413771916079014e-04 -1.1711720567885020e-02 0.0000000000000000e+00  -6.0365576835654270e-04 -1.1798923119137139e-02 0.0000000000000000e+00  -5.8305179066977522e-04 -1.1880649872656303e-02 0.0000000000000000e+00  -5.6236296363987477e-04 -1.1957324684306847e-02 0.0000000000000000e+00  -5.4161102394160044e-04 -1.2029328235417937e-02 0.0000000000000000e+00  -5.2081808073556996e-04 -1.2096983533245243e-02 0.0000000000000000e+00  -4.9998186803369097e-04 -1.2160575482893817e-02 0.0000000000000000e+00  -4.7911061898355114e-04 -1.2220351100953205e-02 0.0000000000000000e+00  -4.5820750654187363e-04 -1.2276521752362058e-02 0.0000000000000000e+00  -4.3727366669633688e-04 -1.2329272380392130e-02 0.0000000000000000e+00  -4.1631156100812097e-04 -1.2378761792677133e-02 0.0000000000000000e+00  -3.9532214462194661e-04 -1.2425133191877309e-02 0.0000000000000000e+00  -3.7430835764933876e-04 -1.2468508488072693e-02 0.0000000000000000e+00  -3.5327284029084289e-04 -1.2509002523094719e-02 0.0000000000000000e+00  -3.3221618196373887e-04 -1.2546712882981263e-02 0.0000000000000000e+00  -3.1113924503157369e-04 -1.2581728171890036e-02 0.0000000000000000e+00  -2.9004410402972097e-04 -1.2614125060639726e-02 0.0000000000000000e+00  -2.6893138158092997e-04 -1.2643973280937063e-02 0.0000000000000000e+00  -2.4780256733594437e-04 -1.2671333470613879e-02 0.0000000000000000e+00  -2.2665839756705626e-04 -1.2696259905802277e-02 0.0000000000000000e+00  -2.0550077529531266e-04 -1.2718800444419908e-02 0.0000000000000000e+00  -1.8433077258825955e-04 -1.2738996838682400e-02 0.0000000000000000e+00  -1.6315098471329605e-04 -1.2756885225207973e-02 0.0000000000000000e+00  -1.4196371613619627e-04 -1.2772499150983293e-02 0.0000000000000000e+00  -1.2076916970169060e-04 -1.2785866465632576e-02 0.0000000000000000e+00  -9.9568194253542389e-05 -1.2797008290927276e-02 0.0000000000000000e+00  -7.8365150749200584e-05 -1.2805945820717080e-02 0.0000000000000000e+00  -5.7159417692312900e-05 -1.2812694356303080e-02 0.0000000000000000e+00  -3.5953022473010919e-05 -1.2817265288034547e-02 0.0000000000000000e+00  -1.4747564045695280e-05 -1.2819666742957704e-02 0.0000000000000000e+00  6.4558070813273188e-06 -1.2819903143073822e-02 0.0000000000000000e+00  2.7656198188390305e-05 -1.2817976549750400e-02 0.0000000000000000e+00  4.8852863327314937e-05 -1.2813882338603391e-02 0.0000000000000000e+00  7.0044945310484224e-05 -1.2807612411885619e-02 0.0000000000000000e+00  9.1230451541246755e-05 -1.2799156332689521e-02 0.0000000000000000e+00  1.1240846798172368e-04 -1.2788498665365560e-02 0.0000000000000000e+00  1.3357677444769016e-04 -1.2775621629806336e-02 0.0000000000000000e+00  1.5473302413515923e-04 -1.2760503203016913e-02 0.0000000000000000e+00  1.7587710323761823e-04 -1.2743117998171421e-02 0.0000000000000000e+00  1.9700684224107230e-04 -1.2723434022176813e-02 0.0000000000000000e+00  2.1812087330468137e-04 -1.2701414009096218e-02 0.0000000000000000e+00  2.3921651371945228e-04 -1.2677017564667971e-02 0.0000000000000000e+00  2.6029304443432095e-04 -1.2650198386312431e-02 0.0000000000000000e+00  2.8134823247648636e-04 -1.2620901656503139e-02 0.0000000000000000e+00  3.0238042914544188e-04 -1.2589068641144611e-02 0.0000000000000000e+00  3.2338754246559318e-04 -1.2554630615915191e-02 0.0000000000000000e+00  3.4436397801376203e-04 -1.2517512062244331e-02 0.0000000000000000e+00  3.6530598786894334e-04 -1.2477632495010122e-02 0.0000000000000000e+00  3.8620928591638225e-04 -1.2434898789652435e-02 0.0000000000000000e+00  4.0706739007656762e-04 -1.2389210042416532e-02 0.0000000000000000e+00  4.2788069957323631e-04 -1.2340455575457713e-02 0.0000000000000000e+00  4.4864934708194182e-04 -1.2288497525713987e-02 0.0000000000000000e+00  4.6937823513540285e-04 -1.2233181087635707e-02 0.0000000000000000e+00  4.9007012684620130e-04 -1.2174316674357486e-02 0.0000000000000000e+00  5.1072312944926916e-04 -1.2111687164313099e-02 0.0000000000000000e+00  5.3132571416747746e-04 -1.2045048639068212e-02 0.0000000000000000e+00  5.5185505264998698e-04 -1.1974142257962641e-02 0.0000000000000000e+00  5.7230368960192084e-04 -1.1898660723690510e-02 0.0000000000000000e+00  5.9267798709445446e-04 -1.1818241036770906e-02 0.0000000000000000e+00  6.1291793820951305e-04 -1.1732405750309656e-02 0.0000000000000000e+00  6.3294980180738107e-04 -1.1640634523613018e-02 0.0000000000000000e+00  6.5253031889324332e-04 -1.1542553425899268e-02 0.0000000000000000e+00  6.7147365200610288e-04 -1.1437959777387272e-02 0.0000000000000000e+00  6.9023375264948403e-04 -1.1326296992510922e-02 0.0000000000000000e+00  7.0983551891216608e-04 -1.1204787480606035e-02 0.0000000000000000e+00  7.3048742256277192e-04 -1.1071710388454491e-02 0.0000000000000000e+00  7.5728773171709375e-04 -1.0912872561413883e-02 0.0000000000000000e+00  7.6242657683519665e-04 -1.0755161477654998e-02 0.0000000000000000e+00  9.0309439095943378e-04 -1.0171576895421320e-02 0.0000000000000000e+00  5.7381853944597277e-06 -3.0336085070572572e-04 0.0000000000000000e+00  1.1490354824815648e-05 -3.0537074150039148e-04 0.0000000000000000e+00  1.7270381508994198e-05 -3.0872315878936800e-04 0.0000000000000000e+00  2.3092624395564338e-05 -3.1342125321773490e-04 0.0000000000000000e+00  2.8970817668666887e-05 -3.1947024583552964e-04 0.0000000000000000e+00  3.4921186511114753e-05 -3.2687597182311121e-04 0.0000000000000000e+00  4.0955495018473508e-05 -3.3564630730552233e-04 0.0000000000000000e+00  4.7090547076910030e-05 -3.4579045316769495e-04 0.0000000000000000e+00  5.3340908874111315e-05 -3.5731888703552936e-04 0.0000000000000000e+00  5.9722556202379918e-05 -3.7024367076821135e-04 0.0000000000000000e+00  6.6250942996264284e-05 -3.8457872692977289e-04 0.0000000000000000e+00  7.2942867513816270e-05 -4.0033907577771634e-04 0.0000000000000000e+00  7.9814471695140133e-05 -4.1754157421566986e-04 0.0000000000000000e+00  8.6883325569905753e-05 -4.3620474634718126e-04 0.0000000000000000e+00  9.4167240481075437e-05 -4.5634892601435962e-04 0.0000000000000000e+00  1.0168463130708709e-04 -4.7799626385063503e-04 0.0000000000000000e+00  1.0945399407039097e-04 -5.0117054253317214e-04 0.0000000000000000e+00  1.1749550389681469e-04 -5.2589800916436589e-04 0.0000000000000000e+00  1.2582849903260417e-04 -5.5220700039927846e-04 0.0000000000000000e+00  1.3447396012762606e-04 -5.8012757599301375e-04 0.0000000000000000e+00  1.4345400950257074e-04 -6.0969365925749811e-04 0.0000000000000000e+00  1.5278758238533943e-04 -6.4093823534196236e-04 0.0000000000000000e+00  1.6250006504539512e-04 -6.7390163702266517e-04 0.0000000000000000e+00  1.7261301710376243e-04 -7.0862464551263991e-04 0.0000000000000000e+00  1.8314934460842168e-04 -7.4515176777572277e-04 0.0000000000000000e+00  1.9413244831409005e-04 -7.8353130743257459e-04 0.0000000000000000e+00  2.0558613034395750e-04 -8.2381577239042905e-04 0.0000000000000000e+00  2.1753405554066833e-04 -8.6606222034545446e-04 0.0000000000000000e+00  2.2999864740390319e-04 -9.1033274268250319e-04 0.0000000000000000e+00  2.4300231721537401e-04 -9.5669525172861725e-04 0.0000000000000000e+00  2.5656717010502048e-04 -1.0052247610839384e-03 0.0000000000000000e+00  2.7071353927311445e-04 -1.0560031911611974e-03 0.0000000000000000e+00  2.8545632140510691e-04 -1.1091227071428655e-03 0.0000000000000000e+00  3.0081662358270758e-04 -1.1646848229943368e-03 0.0000000000000000e+00  3.1680169439455023e-04 -1.2228043630024990e-03 0.0000000000000000e+00  3.3341958859151467e-04 -1.2836092063970041e-03 0.0000000000000000e+00  3.5067253309466092e-04 -1.3472460844756958e-03 0.0000000000000000e+00  3.6855576307406543e-04 -1.4138824173228585e-03 0.0000000000000000e+00  3.8705347368881202e-04 -1.4837117884056456e-03 0.0000000000000000e+00  4.0614136027732214e-04 -1.5569572191765260e-03 0.0000000000000000e+00  4.2578138884972208e-04 -1.6338802057677460e-03 0.0000000000000000e+00  4.4591958056056362e-04 -1.7147885575112490e-03 0.0000000000000000e+00  4.6648052218303479e-04 -1.8000481627765709e-03 0.0000000000000000e+00  4.8737933649982000e-04 -1.8900961037243613e-03 0.0000000000000000e+00  5.0848866793623071e-04 -1.9854566383462682e-03 0.0000000000000000e+00  5.2965675622927461e-04 -2.0867744954401711e-03 0.0000000000000000e+00  5.5070335834926827e-04 -2.1948274919950665e-03 0.0000000000000000e+00  5.7139974608991131e-04 -2.3105860609854080e-03 0.0000000000000000e+00  5.9146960601025832e-04 -2.4352482048079806e-03 0.0000000000000000e+00  6.1061151694193224e-04 -2.5703256673098320e-03 0.0000000000000000e+00  6.2839840341437640e-04 -2.7177751604340618e-03 0.0000000000000000e+00  6.4441617439067766e-04 -2.8800243502047742e-03 0.0000000000000000e+00  6.5805246756718008e-04 -3.0605040865528772e-03 0.0000000000000000e+00  6.6859488196089451e-04 -3.2637031616211702e-03 0.0000000000000000e+00  6.7498616735527886e-04 -3.4961727754238918e-03 0.0000000000000000e+00  6.7549988232516007e-04 -3.7680432454507717e-03 0.0000000000000000e+00  6.6705427455305449e-04 -4.0974323733366314e-03 0.0000000000000000e+00  6.3245453968866481e-04 -4.5370807361715957e-03 0.0000000000000000e+00  0.0000000000000000e+00 -6.0732297611766564e-05 0.0000000000000000e+00  0.0000000000000000e+00 -1.1596880855515708e-04 0.0000000000000000e+00  0.0000000000000000e+00 -1.6624496135841685e-04 0.0000000000000000e+00  0.0000000000000000e+00 -2.1199392137956414e-04 0.0000000000000000e+00  0.0000000000000000e+00 -2.5352232870668844e-04 0.0000000000000000e+00  0.0000000000000000e+00 -2.9106168011712490e-04 0.0000000000000000e+00  0.0000000000000000e+00 -3.2479349042247756e-04 0.0000000000000000e+00  0.0000000000000000e+00 -3.5486273216263570e-04 0.0000000000000000e+00  0.0000000000000000e+00 -3.8135828976517062e-04 0.0000000000000000e+00  0.0000000000000000e+00 -4.0440868840265198e-04 0.0000000000000000e+00  0.0000000000000000e+00 -4.2409542300532232e-04 0.0000000000000000e+00  0.0000000000000000e+00 -4.4051868283627059e-04 0.0000000000000000e+00  0.0000000000000000e+00 -4.5379233715384760e-04 0.0000000000000000e+00  0.0000000000000000e+00 -4.6403644184107108e-04 0.0000000000000000e+00  0.0000000000000000e+00 -4.7138671426877462e-04 0.0000000000000000e+00  0.0000000000000000e+00 -4.7599741617415571e-04 0.0000000000000000e+00  0.0000000000000000e+00 -4.7804525905076220e-04 0.0000000000000000e+00  0.0000000000000000e+00 -4.7771813610483207e-04 0.0000000000000000e+00  0.0000000000000000e+00 -4.7522174688661561e-04 0.0000000000000000e+00  0.0000000000000000e+00 -4.7077477444433297e-04 0.0000000000000000e+00  0.0000000000000000e+00 -4.6460864198236682e-04 0.0000000000000000e+00  0.0000000000000000e+00 -4.5696098927554073e-04 0.0000000000000000e+00  0.0000000000000000e+00 -4.4807428875304954e-04 0.0000000000000000e+00  0.0000000000000000e+00 -4.3818830653178054e-04 0.0000000000000000e+00  0.0000000000000000e+00 -4.2754364916913773e-04 0.0000000000000000e+00  0.0000000000000000e+00 -4.1637514631308716e-04 0.0000000000000000e+00  0.0000000000000000e+00 -4.0490110385463945e-04 0.0000000000000000e+00  0.0000000000000000e+00 -3.9333465911300659e-04 0.0000000000000000e+00  0.0000000000000000e+00 -3.8187009914842144e-04 0.0000000000000000e+00  0.0000000000000000e+00 -3.7068524907646171e-04 0.0000000000000000e+00  0.0000000000000000e+00 -3.5994049881620335e-04 0.0000000000000000e+00  0.0000000000000000e+00 -3.4977590836801880e-04 0.0000000000000000e+00  0.0000000000000000e+00 -3.4031246089314988e-04 0.0000000000000000e+00  0.0000000000000000e+00 -3.3165264732359332e-04 0.0000000000000000e+00  0.0000000000000000e+00 -3.2387940057331883e-04 0.0000000000000000e+00  0.0000000000000000e+00 -3.1705781039587327e-04 0.0000000000000000e+00  0.0000000000000000e+00 -3.1123296740706970e-04 0.0000000000000000e+00  0.0000000000000000e+00 -3.0643895650876572e-04 0.0000000000000000e+00  0.0000000000000000e+00 0.0000000000000000e+00 0.0000000000000000e+00  0.0000000000000000e+00 0.0000000000000000e+00 0.0000000000000000e+00  0.0000000000000000e+00 0.0000000000000000e+00 0.0000000000000000e+00  0.0000000000000000e+00 0.0000000000000000e+00 0.0000000000000000e+00  0.0000000000000000e+00 0.0000000000000000e+00 0.0000000000000000e+00  0.0000000000000000e+00 0.0000000000000000e+00 0.0000000000000000e+00  0.0000000000000000e+00 0.0000000000000000e+00 0.0000000000000000e+00  0.0000000000000000e+00 0.0000000000000000e+00 0.0000000000000000e+00  0.0000000000000000e+00 0.0000000000000000e+00 0.0000000000000000e+00  0.0000000000000000e+00 0.0000000000000000e+00 0.0000000000000000e+00  0.0000000000000000e+00 0.0000000000000000e+00 0.0000000000000000e+00  0.0000000000000000e+00 0.0000000000000000e+00 0.0000000000000000e+00  0.0000000000000000e+00 0.0000000000000000e+00 0.0000000000000000e+00  0.0000000000000000e+00 0.0000000000000000e+00 0.0000000000000000e+00  0.0000000000000000e+00 0.0000000000000000e+00 0.0000000000000000e+00  0.0000000000000000e+00 0.0000000000000000e+00 0.0000000000000000e+00  0.0000000000000000e+00 0.0000000000000000e+00 0.0000000000000000e+00  0.0000000000000000e+00 0.0000000000000000e+00 0.0000000000000000e+00  0.0000000000000000e+00 -3.0681720411994125e-04 0.0000000000000000e+00  0.0000000000000000e+00 -3.1168085704583534e-04 0.0000000000000000e+00  0.0000000000000000e+00 -3.1758915503992893e-04 0.0000000000000000e+00  0.0000000000000000e+00 -3.2450151526720172e-04 0.0000000000000000e+00  0.0000000000000000e+00 -3.3237167035827245e-04 0.0000000000000000e+00  0.0000000000000000e+00 -3.4112978715336600e-04 0.0000000000000000e+00  0.0000000000000000e+00 -3.5068904099920848e-04 0.0000000000000000e+00  0.0000000000000000e+00 -3.6094373119793756e-04 0.0000000000000000e+00  0.0000000000000000e+00 -3.7176908374455083e-04 0.0000000000000000e+00  0.0000000000000000e+00 -3.8301990992646389e-04 0.0000000000000000e+00  0.0000000000000000e+00 -3.9453456233791906e-04 0.0000000000000000e+00  0.0000000000000000e+00 -4.0612753546313032e-04 0.0000000000000000e+00  0.0000000000000000e+00 -4.1760664602825200e-04 0.0000000000000000e+00  0.0000000000000000e+00 -4.2875683766968489e-04 0.0000000000000000e+00  0.0000000000000000e+00 -4.3935534381110697e-04 0.0000000000000000e+00  0.0000000000000000e+00 -4.4916680660846782e-04 0.0000000000000000e+00  0.0000000000000000e+00 -4.5795332712562475e-04 0.0000000000000000e+00  0.0000000000000000e+00 -4.6547689776419907e-04 0.0000000000000000e+00  0.0000000000000000e+00 -4.7149463422876633e-04 0.0000000000000000e+00  0.0000000000000000e+00 -4.7577214426826125e-04 0.0000000000000000e+00  0.0000000000000000e+00 -4.7808380542649359e-04 0.0000000000000000e+00  0.0000000000000000e+00 -4.7821466373008204e-04 0.0000000000000000e+00  0.0000000000000000e+00 -4.7596333966210067e-04 0.00000000000