<?xml version="1.0"?>
<VTKFile type="UnstructuredGrid"  version="0.1"  >
<UnstructuredGrid>
<Piece  NumberOfPoints="3167" NumberOfCells="6038">
<Points>
<DataArray  type="Float64"  NumberOfComponents="3"  format="ascii">2.2 2.9 0  0 2.9 0  2.8 2.9 0  5 2.9 0  5 0 0  0 0 0  2.16271186440678 2.9 0  2.125423728813559 2.9 0  2.088135593220339 2.9 0  2.050847457627119 2.9 0  2.013559322033898 2.9 0  1.976271186440678 2.9 0  1.938983050847457 2.9 0  1.901694915254237 2.9 0  1.864406779661016 2.9 0  1.827118644067796 2.9 0  1.789830508474575 2.9 0  1.752542372881355 2.9 0  1.715254237288134 2.9 0  1.677966101694914 2.9 0  1.640677966101693 2.9 0  1.603389830508473 2.9 0  1.566101694915253 2.9 0  1.528813559322032 2.9 0  1.491525423728812 2.9 0  1.454237288135591 2.9 0  1.416949152542371 2.9 0  1.37966101694915 2.9 0  1.34237288135593 2.9 0  1.305084745762709 2.9 0  1.267796610169489 2.9 0  1.230508474576268 2.9 0  1.193220338983048 2.9 0  1.155932203389827 2.9 0  1.118644067796607 2.9 0  1.081355932203387 2.9 0  1.044067796610166 2.9 0  1.006779661016946 2.9 0  0.9694915254237257 2.9 0  0.9322033898305055 2.9 0  0.8949152542372856 2.9 0  0.8576271186440652 2.9 0  0.820338983050845 2.9 0  0.783050847457625 2.9 0  0.7457627118644048 2.9 0  0.7084745762711844 2.9 0  0.6711864406779642 2.9 0  0.633898305084744 2.9 0  0.5966101694915238 2.9 0  0.5593220338983036 2.9 0  0.5220338983050834 2.9 0  0.4847457627118632 2.9 0  0.447457627118643 2.9 0  0.4101694915254228 2.9 0  0.3728813559322024 2.9 0  0.3355932203389822 2.9 0  0.2983050847457622 2.9 0  0.2610169491525418 2.9 0  0.2237288135593216 2.9 0  0.1864406779661016 2.9 0  0.1491525423728812 2.9 0  0.1118644067796613 2.9 0  0.07457627118644039 2.9 0  0.03728813559321997 2.9 0  2.792405063291139 2.9 0  2.784810126582279 2.9 0  2.777215189873418 2.9 0  2.769620253164557 2.9 0  2.762025316455697 2.9 0  2.754430379746836 2.9 0  2.746835443037975 2.9 0  2.739240506329114 2.9 0  2.731645569620254 2.9 0  2.724050632911393 2.9 0  2.716455696202532 2.9 0  2.708860759493671 2.9 0  2.701265822784811 2.9 0  2.69367088607595 2.9 0  2.686075949367089 2.9 0  2.678481012658228 2.9 0  2.670886075949368 2.9 0  2.663291139240507 2.9 0  2.655696202531646 2.9 0  2.648101265822786 2.9 0  2.640506329113925 2.9 0  2.632911392405064 2.9 0  2.625316455696203 2.9 0  2.617721518987342 2.9 0  2.610126582278482 2.9 0  2.602531645569621 2.9 0  2.59493670886076 2.9 0  2.587341772151899 2.9 0  2.579746835443038 2.9 0  2.572151898734178 2.9 0  2.564556962025317 2.9 0  2.556962025316456 2.9 0  2.549367088607595 2.9 0  2.541772151898734 2.9 0  2.534177215189874 2.9 0  2.526582278481013 2.9 0  2.518987341772152 2.9 0  2.511392405063292 2.9 0  2.503797468354431 2.9 0  2.49620253164557 2.9 0  2.488607594936709 2.9 0  2.481012658227848 2.9 0  2.473417721518988 2.9 0  2.465822784810127 2.9 0  2.458227848101266 2.9 0  2.450632911392406 2.9 0  2.443037974683545 2.9 0  2.435443037974684 2.9 0  2.427848101265823 2.9 0  2.420253164556962 2.9 0  2.412658227848102 2.9 0  2.405063291139241 2.9 0  2.39746835443038 2.9 0  2.389873417721519 2.9 0  2.382278481012658 2.9 0  2.374683544303798 2.9 0  2.367088607594937 2.9 0  2.359493670886076 2.9 0  2.351898734177215 2.9 0  2.344303797468355 2.9 0  2.336708860759494 2.9 0  2.329113924050633 2.9 0  2.321518987341773 2.9 0  2.313924050632912 2.9 0  2.306329113924051 2.9 0  2.29873417721519 2.9 0  2.291139240506329 2.9 0  2.283544303797469 2.9 0  2.275949367088608 2.9 0  2.268354430379747 2.9 0  2.260759493670887 2.9 0  2.253164556962026 2.9 0  2.245569620253165 2.9 0  2.237974683544304 2.9 0  2.230379746835443 2.9 0  2.222784810126583 2.9 0  2.215189873417722 2.9 0  2.207594936708861 2.9 0  4.96271186440678 2.9 0  4.925423728813559 2.9 0  4.888135593220339 2.9 0  4.850847457627118 2.9 0  4.813559322033898 2.9 0  4.776271186440677 2.9 0  4.738983050847457 2.9 0  4.701694915254237 2.9 0  4.664406779661016 2.9 0  4.627118644067796 2.9 0  4.589830508474575 2.9 0  4.552542372881355 2.9 0  4.515254237288135 2.9 0  4.477966101694914 2.9 0  4.440677966101694 2.9 0  4.403389830508473 2.9 0  4.366101694915252 2.9 0  4.328813559322032 2.9 0  4.291525423728811 2.9 0  4.254237288135591 2.9 0  4.21694915254237 2.9 0  4.17966101694915 2.9 0  4.14237288135593 2.9 0  4.105084745762709 2.9 0  4.067796610169489 2.9 0  4.030508474576268 2.9 0  3.993220338983048 2.9 0  3.955932203389827 2.9 0  3.918644067796607 2.9 0  3.881355932203387 2.9 0  3.844067796610166 2.9 0  3.806779661016946 2.9 0  3.769491525423725 2.9 0  3.732203389830505 2.9 0  3.694915254237285 2.9 0  3.657627118644065 2.9 0  3.620338983050845 2.9 0  3.583050847457625 2.9 0  3.545762711864405 2.9 0  3.508474576271184 2.9 0  3.471186440677964 2.9 0  3.433898305084744 2.9 0  3.396610169491524 2.9 0  3.359322033898303 2.9 0  3.322033898305083 2.9 0  3.284745762711863 2.9 0  3.247457627118643 2.9 0  3.210169491525423 2.9 0  3.172881355932202 2.9 0  3.135593220338982 2.9 0  3.098305084745762 2.9 0  3.061016949152542 2.9 0  3.023728813559321 2.9 0  2.986440677966101 2.9 0  2.949152542372881 2.9 0  2.911864406779661 2.9 0  2.87457627118644 2.9 0  2.83728813559322 2.9 0  5 0.1063822625082082 0  5 0.210636880010749 0  5 0.3128064053694972 0  5 0.4129325400644018 0  5 0.5110561521032336 0  5 0.6072172918830103 0  5 0.7014552087832795 0  5 0.7938083674443693 0  5 0.88431446261646 0  5 0.9730104359544682 0  5 1.059932489996267 0  5 1.145116102913299 0  5 1.228596043483191 0  5 1.310406385079062 0  5 1.390580519944147 0  5 1.469151172477827 0  5 1.546150411986101 0  5 1.621609666658609 0  5 1.695559736099044 0  5 1.76803080383987 0  5 1.839052450169751 0  5 1.908653663631169 0  5 1.97686285289587 0  5 2.043707858613779 0  5 2.109215964341413 0  5 2.173413907925942 0  5 2.236327892833935 0  5 2.297983597762904 0  5 2.35840618845912 0  5 2.41762032730194 0  5 2.475650183444628 0  5 2.532519442457069 0  5 2.588251316112828 0  5 2.642868552557322 0  5 2.696393444426347 0  5 2.748847838312051 0  5 2.800253144313381 0  5 2.850630344319807 0  0.2631578947368421 0 0  0.5263157894736842 0 0  0.7894736842105263 0 0  1.052631578947368 0 0  1.31578947368421 0 0  1.578947368421053 0 0  1.842105263157895 0 0  2.105263157894737 0 0  2.368421052631579 0 0  2.631578947368421 0 0  2.894736842105263 0 0  3.157894736842105 0 0  3.421052631578947 0 0  3.684210526315789 0 0  3.947368421052632 0 0  4.210526315789473 0 0  4.473684210526315 0 0  4.736842105263158 0 0  0 2.850203682350569 0  0 2.799411438503675 0  0 2.747603349778291 0  0 2.694759099502208 0  0 2.640857964382145 0  0 2.58587880633613 0  0 2.52980006535898 0  0 2.472599749459174 0  0 2.414255427218689 0  0 2.35474421880616 0  0 2.294042786119219 0  0 2.232127324764723 0  0 2.1689735539481 0  0 2.104556707683347 0  0 2.038851524813415 0  0 1.971832238155655 0  0 1.903472565412126 0  0 1.83374569926617 0  0 1.762624296208475 0  0 1.690080464918761 0  0 1.616085756774206 0  0 1.540611154706337 0  0 1.463627060685571 0  0 1.385103284916206 0  0 1.305009033716617 0  0 1.223312897337225 0  0 1.139982838163732 0  0 1.054986177579938 0  0 0.9682895835804817 0  0 0.8798590579197976 0  0 0.7896599218415354 0  0 0.6976568029903638 0  0 0.6038136217958798 0  0 0.508093576867624 0  0 0.4104591310957497 0  0 0.3108719963522191 0  0 0.2092931188294389 0  0 0.1056826638508546 0  1.434832105763824 2.866945754981483 0  1.737156300467626 2.870039440267515 0  2.032203389830508 2.867707527316512 0  2.332911392405064 2.893422591869991 0  2.469810913293406 2.891944186606167 0  2.606221408823969 2.892519154985628 0  2.255455320628894 2.892068685006691 0  2.538247299216212 2.894964578182811 0  2.674683544303798 2.893422591869991 0  2.40126582278481 2.893422591869991 0  3.566125247295424 2.865029336199714 0  3.266101694915253 2.867707527316512 0  2.967796610169491 2.867707527316512 0  1.174288529834642 2.870795313888584 0  3.825423728813556 2.867707527316512 0  2.727766680262011 2.892655387647729 0  0.06601655192030442 1.502119107695954 0  4.933983535508361 1.507650792231964 0  0.9532124728485543 2.868722489783638 0  4.048935912500257 2.870640982995992 0  0.05930163367361763 1.866907161167414 0  4.943402512618553 1.871280731473148 0  4.271733870017743 2.86520865624265 0  0.7249420921613114 2.863922936177041 0  0.05494499779910056 2.196469063120752 0  4.947228695426367 2.208030108792719 0  0.5406152150397161 2.866493807382013 0  4.459322033898304 2.868847558178794 0  2.18135593220339 2.875780645487384 0  2.817027156509632 2.876587550645167 0  4.928427208322876 1.186856073198245 0  0.07189226971603224 1.174626666111662 0  4.610299014423113 2.867003104093161 0  0.3897270066746357 2.869433095314657 0  1.581132500042262 2.868247328632392 0  1.887637879411437 2.869235851794358 0  3.413449426418068 2.867372048034327 0  3.116721298814773 2.865731235547652 0  2.644303797468355 2.893422591869991 0  2.370983221828106 2.892719513369796 0  2.302531645569621 2.893336787387268 0  2.758987341772152 2.894242393897099 0  0.04979653335696277 2.443411216910286 0  4.950470983477169 2.446866954595817 0  2.482937483021586 0.2513241087417575 0  1.707129504814338 0.1999998659920923 0  3.28584657955054 0.229200625631625 0  4.907807122600524 0.834082362900164 0  4.757627118644067 2.867707527316512 0  0.0773489124676745 0.8347594898806663 0  0.2390604736599387 2.861365431805741 0  0.8363213715215729 2.863896768908178 0  4.160865610207075 2.868916854015731 0  1.282549332053297 2.867610952980761 0  1.065094818402487 2.861284686038041 0  3.93818127737282 2.86865134411395 0  3.711492629432973 2.863574306925269 0  4.91369361998929 0.5579891344254361 0  0.08208328472281323 0.5559535993317519 0  2.696596932532885 2.892010483922337 0  0.04706410140274553 2.613055974506516 0  4.955577063972248 2.616518038840186 0  2.234177215189874 2.893422591869991 0  2.279795840559739 2.89403861893984 0  0.9117357887652362 0.2117925286661764 0  4.055948041993057 0.2039101057937727 0  4.872119713780579 2.867632926423075 0  2.780113878992455 2.891535929611743 0  0.1327442468251063 2.85
[...]
<PointData  Vectors="displacement"> 
<DataArray  type="Float64"  Name="displacement"  NumberOfComponents="3" format="ascii">-2.7179681655288201e-03 -6.2125498617272507e-03 0.0000000000000000e+00  0.0000000000000000e+00 -3.3503734435432093e-04 0.0000000000000000e+00  2.6187559684136257e-03 -6.4342437220940756e-03 0.0000000000000000e+00  0.0000000000000000e+00 -3.3480149885643134e-04 0.0000000000000000e+00  0.0000000000000000e+00 0.0000000000000000e+00 0.0000000000000000e+00  0.0000000000000000e+00 0.0000000000000000e+00 0.0000000000000000e+00  -3.1661780613325059e-03 -3.4077208025887792e-03 0.0000000000000000e+00  -3.1694537631806923e-03 -3.0020527359941769e-03 0.0000000000000000e+00  -3.1345579622538136e-03 -2.7331642548064886e-03 0.0000000000000000e+00  -3.0858155584568177e-03 -2.5231866708720352e-03 0.0000000000000000e+00  -3.0295542931818367e-03 -2.3513052385693203e-03 0.0000000000000000e+00  -2.9680898088508424e-03 -2.2070118017958966e-03 0.0000000000000000e+00  -2.9026388868080145e-03 -2.0837916413229884e-03 0.0000000000000000e+00  -2.8339201802446371e-03 -1.9771711929576865e-03 0.0000000000000000e+00  -2.7624740510027337e-03 -1.8837521788353424e-03 0.0000000000000000e+00  -2.6887429314418117e-03 -1.8008925948658780e-03 0.0000000000000000e+00  -2.6131618258983798e-03 -1.7264777948599011e-03 0.0000000000000000e+00  -2.5361704654854439e-03 -1.6587623990135041e-03 0.0000000000000000e+00  -2.4582558489920836e-03 -1.5963274981096339e-03 0.0000000000000000e+00  -2.3798543090866927e-03 -1.5380613582956833e-03 0.0000000000000000e+00  -2.3013803749154919e-03 -1.4831054018742379e-03 0.0000000000000000e+00  -2.2232202284780565e-03 -1.4307903659839490e-03 0.0000000000000000e+00  -2.1456983557805662e-03 -1.3806222250534793e-03 0.0000000000000000e+00  -2.0690884646434801e-03 -1.3322259301951772e-03 0.0000000000000000e+00  -1.9936313669016883e-03 -1.2853356215853792e-03 0.0000000000000000e+00  -1.9194948704531773e-03 -1.2397605904474712e-03 0.0000000000000000e+00  -1.8468162549416529e-03 -1.1953734455756998e-03 0.0000000000000000e+00  -1.7756929200551906e-03 -1.1520898328677123e-03 0.0000000000000000e+00  -1.7061906316493832e-03 -1.1098554905087394e-03 0.0000000000000000e+00  -1.6383486827109542e-03 -1.0686429969582309e-03 0.0000000000000000e+00  -1.5721814113836628e-03 -1.0284407329750069e-03 0.0000000000000000e+00  -1.5076870310657840e-03 -9.8924818613155296e-04 0.0000000000000000e+00  -1.4448472003916869e-03 -9.5107257465115507e-04 0.0000000000000000e+00  -1.3836339759497056e-03 -9.1392671946555627e-04 0.0000000000000000e+00  -1.3240114032106256e-03 -8.7782656517512464e-04 0.0000000000000000e+00  -1.2659252942038271e-03 -8.4278663647990566e-04 0.0000000000000000e+00  -1.2093323047012415e-03 -8.0882701152459337e-04 0.0000000000000000e+00  -1.1541749592494366e-03 -7.7596461735826116e-04 0.0000000000000000e+00  -1.1004015858196406e-03 -7.4421283710189383e-04 0.0000000000000000e+00  -1.0479427717576548e-03 -7.1358837149171361e-04 0.0000000000000000e+00  -9.9674684029963452e-04 -6.8410484877496844e-04 0.0000000000000000e+00  -9.4675015058983910e-04 -6.5577400409564150e-04 0.0000000000000000e+00  -8.9788863302520366e-04 -6.2860774724341937e-04 0.0000000000000000e+00  -8.5010890640360259e-04 -6.0261414653645193e-04 0.0000000000000000e+00  -8.0334635673475711e-04 -5.7780252082111733e-04 0.0000000000000000e+00  -7.5754424766557476e-04 -5.5417976528934537e-04 0.0000000000000000e+00  -7.1264455221093704e-04 -5.3175152655660833e-04 0.0000000000000000e+00  -6.6859301996355781e-04 -5.1052303490379917e-04 0.0000000000000000e+00  -6.2533120748210899e-04 -4.9049809077726300e-04 0.0000000000000000e+00  -5.8280709468678182e-04 -4.7167993898373226e-04 0.0000000000000000e+00  -5.4096665542485050e-04 -4.5407154956662925e-04 0.0000000000000000e+00  -4.9975943791742542e-04 -4.3767470523124784e-04 0.0000000000000000e+00  -4.5913422674268402e-04 -4.2249056430605233e-04 0.0000000000000000e+00  -4.1904283792881835e-04 -4.0852034552975287e-04 0.0000000000000000e+00  -3.7943541996897411e-04 -3.9576498556331417e-04 0.0000000000000000e+00  -3.4026508753412971e-04 -3.8422491712900367e-04 0.0000000000000000e+00  -3.0148879477131542e-04 -3.7389978616574407e-04 0.0000000000000000e+00  -2.6305391274050640e-04 -3.6478928210542926e-04 0.0000000000000000e+00  -2.2492008982536951e-04 -3.5689506258059346e-04 0.0000000000000000e+00  -1.8704465599835807e-04 -3.5021558591323456e-04 0.0000000000000000e+00  -1.4938425060039744e-04 -3.4475096979434818e-04 0.0000000000000000e+00  -1.1188821157966378e-04 -3.4050048856306385e-04 0.0000000000000000e+00  -7.4520805778850746e-05 -3.3746532098114434e-04 0.0000000000000000e+00  -3.7238672884208908e-05 -3.3564416863958777e-04 0.0000000000000000e+00  -5.9731465620779627e-04 -1.8031732476230942e-02 0.0000000000000000e+00  -3.6555558838469182e-04 -1.9852561935267226e-02 0.0000000000000000e+00  -2.5324297272657977e-04 -2.0261018104782577e-02 0.0000000000000000e+00  -2.5955776441765656e-04 -2.0394606137106377e-02 0.0000000000000000e+00  -2.4728694742894860e-04 -2.0559926215314921e-02 0.0000000000000000e+00  -2.4134819761231571e-04 -2.0708296010053653e-02 0.0000000000000000e+00  -2.3344287205061243e-04 -2.0846861082873622e-02 0.0000000000000000e+00  -2.2456673139523194e-04 -2.0974887767412291e-02 0.0000000000000000e+00  -2.1822628987229180e-04 -2.1090508686011575e-02 0.0000000000000000e+00  -2.1281252141321016e-04 -2.1198250088352293e-02 0.0000000000000000e+00  -2.0617917949203624e-04 -2.1300042817200243e-02 0.0000000000000000e+00  -1.9911327648759300e-04 -2.1395092772001783e-02 0.0000000000000000e+00  -1.9210695355565487e-04 -2.1483624955291599e-02 0.0000000000000000e+00  -1.8510553014249747e-04 -2.1566364542566326e-02 0.0000000000000000e+00  -1.7810723106629757e-04 -2.1643752479557708e-02 0.0000000000000000e+00  -1.7105507461809204e-04 -2.1716265543649117e-02 0.0000000000000000e+00  -1.6394907691291350e-04 -2.1784166383970752e-02 0.0000000000000000e+00  -1.5688484298925044e-04 -2.1847689315625005e-02 0.0000000000000000e+00  -1.4983219651990554e-04 -2.1907155727862702e-02 0.0000000000000000e+00  -1.4274356036442459e-04 -2.1962820182428358e-02 0.0000000000000000e+00  -1.3561338561832268e-04 -2.2014851510108457e-02 0.0000000000000000e+00  -1.2846705535392544e-04 -2.2063394858163287e-02 0.0000000000000000e+00  -1.2131497943766624e-04 -2.2108598049040230e-02 0.0000000000000000e+00  -1.1414870483008780e-04 -2.2150607379528404e-02 0.0000000000000000e+00  -1.0695653511354193e-04 -2.2189547930589471e-02 0.0000000000000000e+00  -9.9735649750006599e-05 -2.2225520504480144e-02 0.0000000000000000e+00  -9.2488794306947662e-05 -2.2258606763160566e-02 0.0000000000000000e+00  -8.5219402530656388e-05 -2.2288879317427634e-02 0.0000000000000000e+00  -7.7933637269455983e-05 -2.2316403332571278e-02 0.0000000000000000e+00  -7.0637854638222762e-05 -2.2341239383910843e-02 0.0000000000000000e+00  -6.3335647438647646e-05 -2.2363445831690296e-02 0.0000000000000000e+00  -5.6026790003580398e-05 -2.2383075529333493e-02 0.0000000000000000e+00  -4.8711693405240339e-05 -2.2400176137672905e-02 0.0000000000000000e+00  -4.1393036063950052e-05 -2.2414787465097851e-02 0.0000000000000000e+00  -3.4072863735496315e-05 -2.2426943185174800e-02 0.0000000000000000e+00  -2.6756816651075929e-05 -2.2436672340834189e-02 0.0000000000000000e+00  -1.9448962740849259e-05 -2.2443998747576785e-02 0.0000000000000000e+00  -1.2154544832480356e-05 -2.2448940912362953e-02 0.0000000000000000e+00  -4.8755232090260928e-06 -2.2451515858797930e-02 0.0000000000000000e+00  2.3875414895316034e-06 -2.2451734276571992e-02 0.0000000000000000e+00  9.6379747608743640e-06 -2.2449599666909632e-02 0.0000000000000000e+00  1.6882179425825531e-05 -2.2445107865970287e-02 0.0000000000000000e+00  2.4126778852840541e-05 -2.2438247653568413e-02 0.0000000000000000e+00  3.1379484942484226e-05 -2.2429000100841447e-02 0.0000000000000000e+00  3.8647017661509128e-05 -2.2417340902200416e-02 0.0000000000000000e+00  4.5928258143482296e-05 -2.2403238342999399e-02 0.0000000000000000e+00  5.3227208353920885e-05 -2.2386654671053684e-02 0.0000000000000000e+00  6.0542462819182058e-05 -2.2367545405986115e-02 0.0000000000000000e+00  6.7871555216323195e-05 -2.2345859879747472e-02 0.0000000000000000e+00  7.5209616309926465e-05 -2.2321543917961515e-02 0.0000000000000000e+00  8.2554402586730428e-05 -2.2294539776631515e-02 0.0000000000000000e+00  8.9903087749629242e-05 -2.2264781983944524e-02 0.0000000000000000e+00  9.7251845275787144e-05 -2.2232199364913677e-02 0.0000000000000000e+00  1.0461315359711315e-04 -2.2196703283816972e-02 0.0000000000000000e+00  1.1199217028673057e-04 -2.2158188000971493e-02 0.0000000000000000e+00  1.1938840565554843e-04 -2.2116537489998922e-02 0.0000000000000000e+00  1.2678571731671549e-04 -2.2071636052033838e-02 0.0000000000000000e+00  1.3415174901389843e-04 -2.2023381558428659e-02 0.0000000000000000e+00  1.4144719951711282e-04 -2.1971679198535397e-02 0.0000000000000000e+00  1.4864009022988174e-04 -2.1916428193496269e-02 0.0000000000000000e+00  1.5573981143079550e-04 -2.1857491002984699e-02 0.0000000000000000e+00  1.6282299921684741e-04 -2.1794631240749433e-02 0.0000000000000000e+00  1.6998990341468491e-04 -2.1727501939376018e-02 0.0000000000000000e+00  1.7729575348804488e-04 -2.1655718729498351e-02 0.0000000000000000e+00  1.8477057752162846e-04 -2.1578872812712254e-02 0.0000000000000000e+00  1.9251772994065587e-04 -2.1496444809895651e-02 0.0000000000000000e+00  2.0065885189497035e-04 -2.1407696913598433e-02 0.0000000000000000e+00  2.0895961923558906e-04 -2.1312063744966102e-02 0.0000000000000000e+00  2.1679366504166368e-04 -2.1209606452419545e-02 0.0000000000000000e+00  2.2379414691237081e-04 -2.1100593052524663e-02 0.0000000000000000e+00  2.3110176668071191e-04 -2.0983444443650027e-02 0.0000000000000000e+00  2.3725438278374795e-04 -2.0858422908177205e-02 0.0000000000000000e+00  2.4274856807292660e-04 -2.0728058856836269e-02 0.0000000000000000e+00  2.5769623056073459e-04 -2.0574887664352216e-02 0.0000000000000000e+00  2.7185236449380336e-04 -2.0404589098768588e-02 0.0000000000000000e+00  3.2449376892523644e-04 -2.0127050140697669e-02 0.0000000000000000e+00  3.2173419281791247e-04 -1.9765730060211501e-02 0.0000000000000000e+00  6.1859041623176165e-04 -1.8161929957006367e-02 0.0000000000000000e+00  3.7254517020423638e-05 -3.3540880126431167e-04 0.0000000000000000e+00  7.4551236539218928e-05 -3.3722828799277765e-04 0.0000000000000000e+00  1.1193202776874633e-04 -3.4026171502901550e-04 0.0000000000000000e+00  1.4944003920423077e-04 -3.4450835231567966e-04 0.0000000000000000e+00  1.8711673080280223e-04 -3.4996942773476790e-04 0.0000000000000000e+00  2.2501010234708360e-04 -3.5664359395250905e-04 0.0000000000000000e+00  2.6315582261062219e-04 -3.6453225529253157e-04 0.0000000000000000e+00  3.0160355385853922e-04 -3.7363520424892998e-04 0.0000000000000000e+00  3.4039625032411254e-04 -3.8395229137765249e-04 0.0000000000000000e+00  3.7958074459331818e-04 -3.9548316517483049e-04 0.0000000000000000e+00  4.1920208362866386e-04 -4.0822849650811371e-04 0.0000000000000000e+00  4.5930890607424283e-04 -4.2218730165975569e-04 0.0000000000000000e+00  4.9994771009160362e-04 -4.3735886622114526e-04 0.0000000000000000e+00  5.4116861277027893e-04 -4.5374210195279601e-04 0.0000000000000000e+00  5.8302214466134073e-04 -4.7133560161854792e-04 0.0000000000000000e+00  6.2556003070321324e-04 -4.9013741495211691e-04 0.0000000000000000e+00  6.6883411213984774e-04 -5.1014436359026361e-04 0.0000000000000000e+00  7.1290006684298702e-04 -5.3135300802935412e-04 0.0000000000000000e+00  7.5781089146437295e-04 -5.5376035071509795e-04 0.0000000000000000e+00  8.0362431704768841e-04 -5.7735997606976901e-04 0.0000000000000000e+00  8.5040039044267978e-04 -6.0214877043227521e-04 0.0000000000000000e+00  8.9818806598165294e-04 -6.2811513023614625e-04 0.0000000000000000e+00  9.4705727568083911e-04 -6.5525347845915192e-04 0.0000000000000000e+00  9.9706353422413657e-04 -6.8355374389661785e-04 0.0000000000000000e+00  1.0482670423503074e-03 -7.1300483388068796e-04 0.0000000000000000e+00  1.1007281077875426e-03 -7.4359439784793438e-04 0.0000000000000000e+00  1.1545075087158563e-03 -7.7530873720296225e-04 0.0000000000000000e+00  1.2096644463468697e-03 -8.0813289594991163e-04 0.0000000000000000e+00  1.2662548238633127e-03 -8.4205035403988465e-04 0.0000000000000000e+00  1.3243324612350266e-03 -8.7704459570633420e-04 0.0000000000000000e+00  1.3839488379509253e-03 -9.1309866305953663e-04 0.0000000000000000e+00  1.4451491375876947e-03 -9.5019515667384071e-04 0.0000000000000000e+00  1.5079693192742488e-03 -9.8831845918514365e-04 0.0000000000000000e+00  1.5724390811585169e-03 -1.0274570897633743e-03 0.0000000000000000e+00  1.6385750772395429e-03 -1.0676031421568957e-03 0.0000000000000000e+00  1.7063774175356961e-03 -1.1087572888292205e-03 0.0000000000000000e+00  1.7758318593717576e-03 -1.1509326378594789e-03 0.0000000000000000e+00  1.8468969583090864e-03 -1.1941565114617985e-03 0.0000000000000000e+00  1.9195044669448958e-03 -1.2384841918451704e-03 0.0000000000000000e+00  1.9935586650677252e-03 -1.2840004655913155e-03 0.0000000000000000e+00  2.0689225962370185e-03 -1.3308365955687395e-03 0.0000000000000000e+00  2.1454124363380553e-03 -1.3791799939173173e-03 0.0000000000000000e+00  2.2227965668226474e-03 -1.4293024576372455e-03 0.0000000000000000e+00  2.3008169471721704e-03 -1.4815760363655803e-03 0.0000000000000000e+00  2.3791197879227911e-03 -1.5364970938047278e-03 0.0000000000000000e+00  2.4573258804143853e-03 -1.5947392890160433e-03 0.0000000000000000e+00  2.5350283172568748e-03 -1.6571637862555456e-03 0.0000000000000000e+00  2.6117628126152252e-03 -1.7248876454183189e-03 0.0000000000000000e+00  2.6870574633758209e-03 -1.7993070332258001e-03 0.0000000000000000e+00  2.7604745392187293e-03 -1.8821601159115593e-03 0.0000000000000000e+00  2.8315026131387130e-03 -1.9756273919221265e-03 0.0000000000000000e+00  2.8997202265022958e-03 -2.0823038610024232e-03 0.0000000000000000e+00  2.9645270997378246e-03 -2.2057086033792903e-03 0.0000000000000000e+00  3.0251801114937133e-03 -2.3503303663486804e-03 0.0000000000000000e+00  3.0804386909369574e-03 -2.5227426443115721e-03 0.0000000000000000e+00  3.1278915174456847e-03 -2.7333126618278264e-03 0.0000000000000000e+00  3.1605789637418617e-03 -3.0030814828873073e-03 0.0000000000000000e+00  3.1456844065818703e-03 -3.4179327199536408e-03 0.0000000000000000e+00  0.0000000000000000e+00 -8.2357623287045441e-05 0.0000000000000000e+00  0.0000000000000000e+00 -1.5907929504429665e-04 0.0000000000000000e+00  0.0000000000000000e+00 -2.3054884972925616e-04 0.0000000000000000e+00  0.0000000000000000e+00 -2.9705176058426430e-04 0.0000000000000000e+00  0.0000000000000000e+00 -3.5876594714753324e-04 0.0000000000000000e+00  0.0000000000000000e+00 -4.1579912904719519e-04 0.0000000000000000e+00  0.0000000000000000e+00 -4.6821815088764229e-04 0.0000000000000000e+00  0.0000000000000000e+00 -5.1605984352726272e-04 0.0000000000000000e+00  0.0000000000000000e+00 -5.5930305033276501e-04 0.0000000000000000e+00  0.0000000000000000e+00 -5.9797984199832762e-04 0.0000000000000000e+00  0.0000000000000000e+00 -6.3207276357761977e-04 0.0000000000000000e+00  0.0000000000000000e+00 -6.6159100032100993e-04 0.0000000000000000e+00  0.0000000000000000e+00 -6.8656387883680677e-04 0.0000000000000000e+00  0.0000000000000000e+00 -7.0703324076130860e-04 0.0000000000000000e+00  0.0000000000000000e+00 -7.2306424214872841e-04 0.0000000000000000e+00  0.0000000000000000e+00 -7.3475072643403895e-04 0.0000000000000000e+00  0.0000000000000000e+00 -7.4222172226060630e-04 0.0000000000000000e+00  0.0000000000000000e+00 -7.4562742692640006e-04 0.0000000000000000e+00  0.0000000000000000e+00 -7.4515016362487643e-04 0.0000000000000000e+00  0.0000000000000000e+00 -7.4099781716941977e-04 0.0000000000000000e+00  0.0000000000000000e+00 -7.3340716984636781e-04 0.0000000000000000e+00  0.0000000000000000e+00 -7.2263624030755871e-04 0.0000000000000000e+00  0.0000000000000000e+00 -7.0896062279216041e-04 0.0000000000000000e+00  0.0000000000000000e+00 -6.9267157727294229e-04 0.0000000000000000e+00  0.0000000000000000e+00 -6.7407188605099109e-04 0.0000000000000000e+00  0.0000000000000000e+00 -6.5347345666054533e-04 0.0000000000000000e+00  0.0000000000000000e+00 -6.3118461356536119e-04 0.0000000000000000e+00  0.0000000000000000e+00 -6.0751907157639059e-04 0.0000000000000000e+00  0.0000000000000000e+00 -5.8278209040793657e-04 0.0000000000000000e+00  0.0000000000000000e+00 -5.5727083311442869e-04 0.0000000000000000e+00  0.0000000000000000e+00 -5.3127230626616711e-04 0.0000000000000000e+00  0.0000000000000000e+00 -5.0505812804622560e-04 0.0000000000000000e+00  0.0000000000000000e+00 -4.7888456574677175e-04 0.0000000000000000e+00  0.0000000000000000e+00 -4.5299212609768323e-04 0.0000000000000000e+00  0.0000000000000000e+00 -4.2760210602877605e-04 0.0000000000000000e+00  0.0000000000000000e+00 -4.0291761509165527e-04 0.0000000000000000e+00  0.0000000000000000e+00 -3.7911551981697681e-04 0.0000000000000000e+00  0.0000000000000000e+00 -3.5636405780095003e-04 0.0000000000000000e+00  0.0000000000000000e+00 0.0000000000000000e+00 0.0000000000000000e+00  0.0000000000000000e+00 0.0000000000000000e+00 0.0000000000000000e+00  0.0000000000000000e+00 0.0000000000000000e+00 0.0000000000000000e+00  0.0000000000000000e+00 0.0000000000000000e+00 0.0000000000000000e+00  0.0000000000000000e+00 0.0000000000000000e+00 0.0000000000000000e+00  0.0000000000000000e+00 0.0000000000000000e+00 0.0000000000000000e+00  0.0000000000000000e+00 0.0000000000000000e+00 0.0000000000000000e+00  0.0000000000000000e+00 0.0000000000000000e+00 0.0000000000000000e+00  0.0000000000000000e+00 0.0000000000000000e+00 0.0000000000000000e+00  0.0000000000000000e+00 0.0000000000000000e+00 0.0000000000000000e+00  0.0000000000000000e+00 0.0000000000000000e+00 0.0000000000000000e+00  0.0000000000000000e+00 0.0000000000000000e+00 0.0000000000000000e+00  0.0000000000000000e+00 0.0000000000000000e+00 0.0000000000000000e+00  0.0000000000000000e+00 0.0000000000000000e+00 0.0000000000000000e+00  0.0000000000000000e+00 0.0000000000000000e+00 0.0000000000000000e+00  0.0000000000000000e+00 0.0000000000000000e+00 0.0000000000000000e+00  0.0000000000000000e+00 0.0000000000000000e+00 0.0000000000000000e+00  0.0000000000000000e+00 0.0000000000000000e+00 0.0000000000000000e+00  0.0000000000000000e+00 -3.5678110014072159e-04 0.0000000000000000e+00  0.0000000000000000e+00 -3.7971850127886686e-04 0.0000000000000000e+00  0.0000000000000000e+00 -4.0371232727170727e-04 0.0000000000000000e+00  0.0000000000000000e+00 -4.2858097207763547e-04 0.0000000000000000e+00  0.0000000000000000e+00 -4.5414704920088215e-04 0.0000000000000000e+00  0.0000000000000000e+00 -4.8019992767840664e-04 0.0000000000000000e+00  0.0000000000000000e+00 -5.0651341433202094e-04 0.0000000000000000e+00  0.0000000000000000e+00 -5.3284346552907370e-04 0.0000000000000000e+00  0.0000000000000000e+00 -5.5892966054484278e-04 0.0000000000000000e+00  0.0000000000000000e+00 -5.8449497529595930e-04 0.0000000000000000e+00  0.0000000000000000e+00 -6.0925233921672027e-04 0.0000000000000000e+00  0.0000000000000000e+00 -6.3289731787952381e-04 0.0000000000000000e+00  0.0000000000000000e+00 -6.5512905986599298e-04 0.0000000000000000e+00  0.0000000000000000e+00 -6.7563312973472278e-04 0.0000000000000000e+00  0.0000000000000000e+00 -6.9409905529601061e-04 0.0000000000000000e+00  0.0000000000000000e+00 -7.1021762722984670e-04 0.0000000000000000e+00  0.0000000000000000e+00 -7.2368938391319617e-04 0.0000000000000000e+00  0.0000000000000000e+00 -7.3422937788652511e-04 0.0000000000000000e+00  0.0000000000000000e+00 -7.4156336246570685e-04 0.0000000000000000e+00  0.0000000000000000e+00 -7.4543941218211795e-04 0.0000000000000000e+00  0.0000000000000000e+00 -7.4563033237547702e-04 0.0000000000000000e+00  0.0000000000000000e+00 -7.4193318890249311e-04 0.0000000000000000e+00  0.0000000000000000e+00 -7.3417221191578619e-04 0.00000000000