<?xml version="1.0"?>
<VTKFile type="UnstructuredGrid"  version="0.1"  >
<UnstructuredGrid>
<Piece  NumberOfPoints="3167" NumberOfCells="6038">
<Points>
<DataArray  type="Float64"  NumberOfComponents="3"  format="ascii">2.2 2.9 0  0 2.9 0  2.8 2.9 0  5 2.9 0  5 0 0  0 0 0  2.16271186440678 2.9 0  2.125423728813559 2.9 0  2.088135593220339 2.9 0  2.050847457627119 2.9 0  2.013559322033898 2.9 0  1.976271186440678 2.9 0  1.938983050847457 2.9 0  1.901694915254237 2.9 0  1.864406779661016 2.9 0  1.827118644067796 2.9 0  1.789830508474575 2.9 0  1.752542372881355 2.9 0  1.715254237288134 2.9 0  1.677966101694914 2.9 0  1.640677966101693 2.9 0  1.603389830508473 2.9 0  1.566101694915253 2.9 0  1.528813559322032 2.9 0  1.491525423728812 2.9 0  1.454237288135591 2.9 0  1.416949152542371 2.9 0  1.37966101694915 2.9 0  1.34237288135593 2.9 0  1.305084745762709 2.9 0  1.267796610169489 2.9 0  1.230508474576268 2.9 0  1.193220338983048 2.9 0  1.155932203389827 2.9 0  1.118644067796607 2.9 0  1.081355932203387 2.9 0  1.044067796610166 2.9 0  1.006779661016946 2.9 0  0.9694915254237257 2.9 0  0.9322033898305055 2.9 0  0.8949152542372856 2.9 0  0.8576271186440652 2.9 0  0.820338983050845 2.9 0  0.783050847457625 2.9 0  0.7457627118644048 2.9 0  0.7084745762711844 2.9 0  0.6711864406779642 2.9 0  0.633898305084744 2.9 0  0.5966101694915238 2.9 0  0.5593220338983036 2.9 0  0.5220338983050834 2.9 0  0.4847457627118632 2.9 0  0.447457627118643 2.9 0  0.4101694915254228 2.9 0  0.3728813559322024 2.9 0  0.3355932203389822 2.9 0  0.2983050847457622 2.9 0  0.2610169491525418 2.9 0  0.2237288135593216 2.9 0  0.1864406779661016 2.9 0  0.1491525423728812 2.9 0  0.1118644067796613 2.9 0  0.07457627118644039 2.9 0  0.03728813559321997 2.9 0  2.792405063291139 2.9 0  2.784810126582279 2.9 0  2.777215189873418 2.9 0  2.769620253164557 2.9 0  2.762025316455697 2.9 0  2.754430379746836 2.9 0  2.746835443037975 2.9 0  2.739240506329114 2.9 0  2.731645569620254 2.9 0  2.724050632911393 2.9 0  2.716455696202532 2.9 0  2.708860759493671 2.9 0  2.701265822784811 2.9 0  2.69367088607595 2.9 0  2.686075949367089 2.9 0  2.678481012658228 2.9 0  2.670886075949368 2.9 0  2.663291139240507 2.9 0  2.655696202531646 2.9 0  2.648101265822786 2.9 0  2.640506329113925 2.9 0  2.632911392405064 2.9 0  2.625316455696203 2.9 0  2.617721518987342 2.9 0  2.610126582278482 2.9 0  2.602531645569621 2.9 0  2.59493670886076 2.9 0  2.587341772151899 2.9 0  2.579746835443038 2.9 0  2.572151898734178 2.9 0  2.564556962025317 2.9 0  2.556962025316456 2.9 0  2.549367088607595 2.9 0  2.541772151898734 2.9 0  2.534177215189874 2.9 0  2.526582278481013 2.9 0  2.518987341772152 2.9 0  2.511392405063292 2.9 0  2.503797468354431 2.9 0  2.49620253164557 2.9 0  2.488607594936709 2.9 0  2.481012658227848 2.9 0  2.473417721518988 2.9 0  2.465822784810127 2.9 0  2.458227848101266 2.9 0  2.450632911392406 2.9 0  2.443037974683545 2.9 0  2.435443037974684 2.9 0  2.427848101265823 2.9 0  2.420253164556962 2.9 0  2.412658227848102 2.9 0  2.405063291139241 2.9 0  2.39746835443038 2.9 0  2.389873417721519 2.9 0  2.382278481012658 2.9 0  2.374683544303798 2.9 0  2.367088607594937 2.9 0  2.359493670886076 2.9 0  2.351898734177215 2.9 0  2.344303797468355 2.9 0  2.336708860759494 2.9 0  2.329113924050633 2.9 0  2.321518987341773 2.9 0  2.313924050632912 2.9 0  2.306329113924051 2.9 0  2.29873417721519 2.9 0  2.291139240506329 2.9 0  2.283544303797469 2.9 0  2.275949367088608 2.9 0  2.268354430379747 2.9 0  2.260759493670887 2.9 0  2.253164556962026 2.9 0  2.245569620253165 2.9 0  2.237974683544304 2.9 0  2.230379746835443 2.9 0  2.222784810126583 2.9 0  2.215189873417722 2.9 0  2.207594936708861 2.9 0  4.96271186440678 2.9 0  4.925423728813559 2.9 0  4.888135593220339 2.9 0  4.850847457627118 2.9 0  4.813559322033898 2.9 0  4.776271186440677 2.9 0  4.738983050847457 2.9 0  4.701694915254237 2.9 0  4.664406779661016 2.9 0  4.627118644067796 2.9 0  4.589830508474575 2.9 0  4.552542372881355 2.9 0  4.515254237288135 2.9 0  4.477966101694914 2.9 0  4.440677966101694 2.9 0  4.403389830508473 2.9 0  4.366101694915252 2.9 0  4.328813559322032 2.9 0  4.291525423728811 2.9 0  4.254237288135591 2.9 0  4.21694915254237 2.9 0  4.17966101694915 2.9 0  4.14237288135593 2.9 0  4.105084745762709 2.9 0  4.067796610169489 2.9 0  4.030508474576268 2.9 0  3.993220338983048 2.9 0  3.955932203389827 2.9 0  3.918644067796607 2.9 0  3.881355932203387 2.9 0  3.844067796610166 2.9 0  3.806779661016946 2.9 0  3.769491525423725 2.9 0  3.732203389830505 2.9 0  3.694915254237285 2.9 0  3.657627118644065 2.9 0  3.620338983050845 2.9 0  3.583050847457625 2.9 0  3.545762711864405 2.9 0  3.508474576271184 2.9 0  3.471186440677964 2.9 0  3.433898305084744 2.9 0  3.396610169491524 2.9 0  3.359322033898303 2.9 0  3.322033898305083 2.9 0  3.284745762711863 2.9 0  3.247457627118643 2.9 0  3.210169491525423 2.9 0  3.172881355932202 2.9 0  3.135593220338982 2.9 0  3.098305084745762 2.9 0  3.061016949152542 2.9 0  3.023728813559321 2.9 0  2.986440677966101 2.9 0  2.949152542372881 2.9 0  2.911864406779661 2.9 0  2.87457627118644 2.9 0  2.83728813559322 2.9 0  5 0.1063822625082082 0  5 0.210636880010749 0  5 0.3128064053694972 0  5 0.4129325400644018 0  5 0.5110561521032336 0  5 0.6072172918830103 0  5 0.7014552087832795 0  5 0.7938083674443693 0  5 0.88431446261646 0  5 0.9730104359544682 0  5 1.059932489996267 0  5 1.145116102913299 0  5 1.228596043483191 0  5 1.310406385079062 0  5 1.390580519944147 0  5 1.469151172477827 0  5 1.546150411986101 0  5 1.621609666658609 0  5 1.695559736099044 0  5 1.76803080383987 0  5 1.839052450169751 0  5 1.908653663631169 0  5 1.97686285289587 0  5 2.043707858613779 0  5 2.109215964341413 0  5 2.173413907925942 0  5 2.236327892833935 0  5 2.297983597762904 0  5 2.35840618845912 0  5 2.41762032730194 0  5 2.475650183444628 0  5 2.532519442457069 0  5 2.588251316112828 0  5 2.642868552557322 0  5 2.696393444426347 0  5 2.748847838312051 0  5 2.800253144313381 0  5 2.850630344319807 0  0.2631578947368421 0 0  0.5263157894736842 0 0  0.7894736842105263 0 0  1.052631578947368 0 0  1.31578947368421 0 0  1.578947368421053 0 0  1.842105263157895 0 0  2.105263157894737 0 0  2.368421052631579 0 0  2.631578947368421 0 0  2.894736842105263 0 0  3.157894736842105 0 0  3.421052631578947 0 0  3.684210526315789 0 0  3.947368421052632 0 0  4.210526315789473 0 0  4.473684210526315 0 0  4.736842105263158 0 0  0 2.850203682350569 0  0 2.799411438503675 0  0 2.747603349778291 0  0 2.694759099502208 0  0 2.640857964382145 0  0 2.58587880633613 0  0 2.52980006535898 0  0 2.472599749459174 0  0 2.414255427218689 0  0 2.35474421880616 0  0 2.294042786119219 0  0 2.232127324764723 0  0 2.1689735539481 0  0 2.104556707683347 0  0 2.038851524813415 0  0 1.971832238155655 0  0 1.903472565412126 0  0 1.83374569926617 0  0 1.762624296208475 0  0 1.690080464918761 0  0 1.616085756774206 0  0 1.540611154706337 0  0 1.463627060685571 0  0 1.385103284916206 0  0 1.305009033716617 0  0 1.223312897337225 0  0 1.139982838163732 0  0 1.054986177579938 0  0 0.9682895835804817 0  0 0.8798590579197976 0  0 0.7896599218415354 0  0 0.6976568029903638 0  0 0.6038136217958798 0  0 0.508093576867624 0  0 0.4104591310957497 0  0 0.3108719963522191 0  0 0.2092931188294389 0  0 0.1056826638508546 0  1.434832105763824 2.866945754981483 0  1.737156300467626 2.870039440267515 0  2.032203389830508 2.867707527316512 0  2.332911392405064 2.893422591869991 0  2.469810913293406 2.891944186606167 0  2.606221408823969 2.892519154985628 0  2.255455320628894 2.892068685006691 0  2.538247299216212 2.894964578182811 0  2.674683544303798 2.893422591869991 0  2.40126582278481 2.893422591869991 0  3.566125247295424 2.865029336199714 0  3.266101694915253 2.867707527316512 0  2.967796610169491 2.867707527316512 0  1.174288529834642 2.870795313888584 0  3.825423728813556 2.867707527316512 0  2.727766680262011 2.892655387647729 0  0.06601655192030442 1.502119107695954 0  4.933983535508361 1.507650792231964 0  0.9532124728485543 2.868722489783638 0  4.048935912500257 2.870640982995992 0  0.05930163367361763 1.866907161167414 0  4.943402512618553 1.871280731473148 0  4.271733870017743 2.86520865624265 0  0.7249420921613114 2.863922936177041 0  0.05494499779910056 2.196469063120752 0  4.947228695426367 2.208030108792719 0  0.5406152150397161 2.866493807382013 0  4.459322033898304 2.868847558178794 0  2.18135593220339 2.875780645487384 0  2.817027156509632 2.876587550645167 0  4.928427208322876 1.186856073198245 0  0.07189226971603224 1.174626666111662 0  4.610299014423113 2.867003104093161 0  0.3897270066746357 2.869433095314657 0  1.581132500042262 2.868247328632392 0  1.887637879411437 2.869235851794358 0  3.413449426418068 2.867372048034327 0  3.116721298814773 2.865731235547652 0  2.644303797468355 2.893422591869991 0  2.370983221828106 2.892719513369796 0  2.302531645569621 2.893336787387268 0  2.758987341772152 2.894242393897099 0  0.04979653335696277 2.443411216910286 0  4.950470983477169 2.446866954595817 0  2.482937483021586 0.2513241087417575 0  1.707129504814338 0.1999998659920923 0  3.28584657955054 0.229200625631625 0  4.907807122600524 0.834082362900164 0  4.757627118644067 2.867707527316512 0  0.0773489124676745 0.8347594898806663 0  0.2390604736599387 2.861365431805741 0  0.8363213715215729 2.863896768908178 0  4.160865610207075 2.868916854015731 0  1.282549332053297 2.867610952980761 0  1.065094818402487 2.861284686038041 0  3.93818127737282 2.86865134411395 0  3.711492629432973 2.863574306925269 0  4.91369361998929 0.5579891344254361 0  0.08208328472281323 0.5559535993317519 0  2.696596932532885 2.892010483922337 0  0.04706410140274553 2.613055974506516 0  4.955577063972248 2.616518038840186 0  2.234177215189874 2.893422591869991 0  2.279795840559739 2.89403861893984 0  0.9117357887652362 0.2117925286661764 0  4.055948041993057 0.2039101057937727 0  4.872119713780579 2.867632926423075 0  2.780113878992455 2.891535929611743 0  0.1327442468251063 2.85
[...]
<PointData  Vectors="displacement"> 
<DataArray  type="Float64"  Name="displacement"  NumberOfComponents="3" format="ascii">9.7647932708278981e-06 -5.1097916269889459e-05 0.0000000000000000e+00  0.0000000000000000e+00 -2.1039939651557843e-06 0.0000000000000000e+00  -9.7782016736932874e-06 -5.1100011868443323e-05 0.0000000000000000e+00  0.0000000000000000e+00 -2.1039964792407697e-06 0.0000000000000000e+00  0.0000000000000000e+00 0.0000000000000000e+00 0.0000000000000000e+00  0.0000000000000000e+00 0.0000000000000000e+00 0.0000000000000000e+00  9.6789012682598770e-06 -4.5222584583447955e-05 0.0000000000000000e+00  9.4849003147835890e-06 -4.1345406257955240e-05 0.0000000000000000e+00  9.2935423436647464e-06 -3.8225418838871328e-05 0.0000000000000000e+00  9.1032718605818377e-06 -3.5564810454571130e-05 0.0000000000000000e+00  8.9132592740628305e-06 -3.3230552562026874e-05 0.0000000000000000e+00  8.7236443754745446e-06 -3.1145872032215732e-05 0.0000000000000000e+00  8.5346252969314752e-06 -2.9260553080286906e-05 0.0000000000000000e+00  8.3462437503650927e-06 -2.7539584084869465e-05 0.0000000000000000e+00  8.1586922852134152e-06 -2.5956940116270727e-05 0.0000000000000000e+00  7.9719023477234585e-06 -2.4493212436704228e-05 0.0000000000000000e+00  7.7859309279904283e-06 -2.3133312797336593e-05 0.0000000000000000e+00  7.6008206277556251e-06 -2.1864913150114259e-05 0.0000000000000000e+00  7.4166429587017673e-06 -2.0677911500112630e-05 0.0000000000000000e+00  7.2333955513925410e-06 -1.9564060855567673e-05 0.0000000000000000e+00  7.0511205705643857e-06 -1.8516459217578108e-05 0.0000000000000000e+00  6.8698394892956571e-06 -1.7529202437237198e-05 0.0000000000000000e+00  6.6895906619060315e-06 -1.6597237784423747e-05 0.0000000000000000e+00  6.5103543508815243e-06 -1.5716185799417254e-05 0.0000000000000000e+00  6.3321826407219082e-06 -1.4882212182480361e-05 0.0000000000000000e+00  6.1550875980964972e-06 -1.4091979336673861e-05 0.0000000000000000e+00  5.9790844384080867e-06 -1.3342542481392705e-05 0.0000000000000000e+00  5.8041792614891754e-06 -1.2631288466704498e-05 0.0000000000000000e+00  5.6303916648478001e-06 -1.1955844996027293e-05 0.0000000000000000e+00  5.4577083176046272e-06 -1.1314128433010765e-05 0.0000000000000000e+00  5.2861482877372554e-06 -1.0704269646222610e-05 0.0000000000000000e+00  5.1157164052314993e-06 -1.0124547975988646e-05 0.0000000000000000e+00  4.9464084967560871e-06 -9.5733975317836564e-06 0.0000000000000000e+00  4.7782075219845876e-06 -9.0494372562733500e-06 0.0000000000000000e+00  4.6111435863426106e-06 -8.5513804935545155e-06 0.0000000000000000e+00  4.4451597214891473e-06 -8.0780245567646481e-06 0.0000000000000000e+00  4.2802845335707147e-06 -7.6283110944562713e-06 0.0000000000000000e+00  4.1164968361762780e-06 -7.2012631251970562e-06 0.0000000000000000e+00  3.9537671284744701e-06 -6.7959845114334294e-06 0.0000000000000000e+00  3.7920917645066619e-06 -6.4116022813934568e-06 0.0000000000000000e+00  3.6314448519725101e-06 -6.0473706838249808e-06 0.0000000000000000e+00  3.4718099977486138e-06 -5.7025681280923366e-06 0.0000000000000000e+00  3.3131571121674124e-06 -5.3765313467247181e-06 0.0000000000000000e+00  3.1554637136000941e-06 -5.0686646351962694e-06 0.0000000000000000e+00  2.9987011169864834e-06 -4.7783970506345598e-06 0.0000000000000000e+00  2.8428378195573746e-06 -4.5052103034006918e-06 0.0000000000000000e+00  2.6878422565671753e-06 -4.2486245322101979e-06 0.0000000000000000e+00  2.5336811091724161e-06 -4.0081953092127203e-06 0.0000000000000000e+00  2.3803152993014751e-06 -3.7835108141734930e-06 0.0000000000000000e+00  2.2277103609561530e-06 -3.5741973742834587e-06 0.0000000000000000e+00  2.0758254842901844e-06 -3.3799042785359216e-06 0.0000000000000000e+00  1.9246206089547302e-06 -3.2003151072263030e-06 0.0000000000000000e+00  1.7740530971299659e-06 -3.0351380694082753e-06 0.0000000000000000e+00  1.6240795916797484e-06 -2.8841094339499676e-06 0.0000000000000000e+00  1.4746545657306558e-06 -2.7469874637262736e-06 0.0000000000000000e+00  1.3257315311255955e-06 -2.6235572874555063e-06 0.0000000000000000e+00  1.1772679292504848e-06 -2.5136269909335699e-06 0.0000000000000000e+00  1.0292065232841525e-06 -2.4170215663670003e-06 0.0000000000000000e+00  8.8150460811465537e-07 -2.3335930183289688e-06 0.0000000000000000e+00  7.3411235204082604e-07 -2.2632161592753921e-06 0.0000000000000000e+00  5.8698183144780674e-07 -2.2057810802568637e-06 0.0000000000000000e+00  4.4005230393182991e-07 -2.1611985878259175e-06 0.0000000000000000e+00  2.9328071747819779e-07 -2.1294019531774823e-06 0.0000000000000000e+00  1.4661374892439541e-07 -2.1103434364351475e-06 0.0000000000000000e+00  -9.6394114124541485e-06 -5.2887212466561445e-05 0.0000000000000000e+00  -9.3800229979711371e-06 -5.4175755400082475e-05 0.0000000000000000e+00  -9.1262905074493516e-06 -5.5276685288945589e-05 0.0000000000000000e+00  -8.8737967607332973e-06 -5.6260354493966008e-05 0.0000000000000000e+00  -8.6230674032022741e-06 -5.7157881852789232e-05 0.0000000000000000e+00  -8.3725656337849144e-06 -5.7986006101943878e-05 0.0000000000000000e+00  -8.1222348589538615e-06 -5.8756013077762131e-05 0.0000000000000000e+00  -7.8720132005911619e-06 -5.9475437560761423e-05 0.0000000000000000e+00  -7.6217966736121868e-06 -6.0150032111227101e-05 0.0000000000000000e+00  -7.3716664000879010e-06 -6.0784336223700370e-05 0.0000000000000000e+00  -7.1216032957030250e-06 -6.1381901274540297e-05 0.0000000000000000e+00  -6.8715584189944312e-06 -6.1945596739732922e-05 0.0000000000000000e+00  -6.6215399746282016e-06 -6.2477840885410068e-05 0.0000000000000000e+00  -6.3715489571606978e-06 -6.2980611849472519e-05 0.0000000000000000e+00  -6.1215546276240302e-06 -6.3455586291593936e-05 0.0000000000000000e+00  -5.8715929970860930e-06 -6.3904278223167951e-05 0.0000000000000000e+00  -5.6216453266319459e-06 -6.4327940229316790e-05 0.0000000000000000e+00  -5.3717131226582485e-06 -6.4727670130309675e-05 0.0000000000000000e+00  -5.1217932933109618e-06 -6.5104443748674815e-05 0.0000000000000000e+00  -4.8718836318710585e-06 -6.5459115120952550e-05 0.0000000000000000e+00  -4.6219843300083819e-06 -6.5792443921519061e-05 0.0000000000000000e+00  -4.3720950279590741e-06 -6.6105105931431017e-05 0.0000000000000000e+00  -4.1222136702649798e-06 -6.6397699423844005e-05 0.0000000000000000e+00  -3.8723415055048641e-06 -6.6670764469028293e-05 0.0000000000000000e+00  -3.6224770189788536e-06 -6.6924783157568118e-05 0.0000000000000000e+00  -3.3726194230348833e-06 -6.7160181185271621e-05 0.0000000000000000e+00  -3.1227716035752468e-06 -6.7377343752509438e-05 0.0000000000000000e+00  -2.8729254595990977e-06 -6.7576610008082314e-05 0.0000000000000000e+00  -2.6230858632503020e-06 -6.7758289762189934e-05 0.0000000000000000e+00  -2.3732523650377998e-06 -6.7922652728827509e-05 0.0000000000000000e+00  -2.1234237768863769e-06 -6.8069938869100237e-05 0.0000000000000000e+00  -1.8735984424211054e-06 -6.8200356670929151e-05 0.0000000000000000e+00  -1.6237765925107607e-06 -6.8314089434568824e-05 0.0000000000000000e+00  -1.3739587482051552e-06 -6.8411293953418091e-05 0.0000000000000000e+00  -1.1241413347237843e-06 -6.8492098347209683e-05 0.0000000000000000e+00  -8.7433043914695505e-07 -6.8556616220901589e-05 0.0000000000000000e+00  -6.2451699926902630e-07 -6.8604930786132464e-05 0.0000000000000000e+00  -3.7470560950270686e-07 -6.8637104340642734e-05 0.0000000000000000e+00  -1.2489582761305700e-07 -6.8653180819525675e-05 0.0000000000000000e+00  1.2491397910788659e-07 -6.8653180510175229e-05 0.0000000000000000e+00  3.7472401179630849e-07 -6.8637103307357257e-05 0.0000000000000000e+00  6.2453478749519917e-07 -6.8604928463667585e-05 0.0000000000000000e+00  8.7434680175512339e-07 -6.8556614411582821e-05 0.0000000000000000e+00  1.1241599202664582e-06 -6.8492096257973903e-05 0.0000000000000000e+00  1.3739760106560771e-06 -6.8411288335471174e-05 0.0000000000000000e+00  1.6237941451737502e-06 -6.8314084773554262e-05 0.0000000000000000e+00  1.8736156294051132e-06 -6.8200352183418514e-05 0.0000000000000000e+00  2.1234406047762483e-06 -6.8069933780019604e-05 0.0000000000000000e+00  2.3732704304017180e-06 -6.7922647895724692e-05 0.0000000000000000e+00  2.6231039959778124e-06 -6.7758283429621255e-05 0.0000000000000000e+00  2.8729429970804606e-06 -6.7576603796261583e-05 0.0000000000000000e+00  3.1227895759661257e-06 -6.7377335457317132e-05 0.0000000000000000e+00  3.3726391799394256e-06 -6.7160172651496182e-05 0.0000000000000000e+00  3.6224967678669635e-06 -6.6924776389374311e-05 0.0000000000000000e+00  3.8723615931901880e-06 -6.6670759882354750e-05 0.0000000000000000e+00  4.1222344602447444e-06 -6.6397694404179362e-05 0.0000000000000000e+00  4.3721146005900538e-06 -6.6105099030140552e-05 0.0000000000000000e+00  4.6220083473811172e-06 -6.5792439859994358e-05 0.0000000000000000e+00  4.8719119690241578e-06 -6.5459103238734616e-05 0.0000000000000000e+00  5.1218241871772632e-06 -6.5104431769543572e-05 0.0000000000000000e+00  5.3717471384572287e-06 -6.4727657176390663e-05 0.0000000000000000e+00  5.6216839143191736e-06 -6.4327924395745723e-05 0.0000000000000000e+00  5.8716347472887855e-06 -6.3904261958580577e-05 0.0000000000000000e+00  6.1216023411356937e-06 -6.3455562858369649e-05 0.0000000000000000e+00  6.3715876744123976e-06 -6.2980565017147324e-05 0.0000000000000000e+00  6.6215976008341742e-06 -6.2477798924392888e-05 0.0000000000000000e+00  6.8716213981736201e-06 -6.1945557891754228e-05 0.0000000000000000e+00  7.1216720899951712e-06 -6.1381837552795660e-05 0.0000000000000000e+00  7.3717714036316799e-06 -6.0784297202801011e-05 0.0000000000000000e+00  7.6218857448821117e-06 -6.0149979763061022e-05 0.0000000000000000e+00  7.8720421089147558e-06 -5.9475317224978926e-05 0.0000000000000000e+00  8.1223018836944098e-06 -5.8755910005267019e-05 0.0000000000000000e+00  8.3727126683678724e-06 -5.7986067529074750e-05 0.0000000000000000e+00  8.6231746097622589e-06 -5.7157718711649861e-05 0.0000000000000000e+00  8.8737806399834462e-06 -5.6259953113969989e-05 0.0000000000000000e+00  9.1242159075609129e-06 -5.5276586150355450e-05 0.0000000000000000e+00  9.3816813552337088e-06 -5.4179405360795146e-05 0.0000000000000000e+00  9.6380415128848738e-06 -5.2883132211856157e-05 0.0000000000000000e+00  -1.4661489667401984e-07 -2.1103454231058762e-06 0.0000000000000000e+00  -2.9328187720490883e-07 -2.1294042042573751e-06 0.0000000000000000e+00  -4.4005256506390992e-07 -2.1612001389867007e-06 0.0000000000000000e+00  -5.8697917558982081e-07 -2.2057823186913146e-06 0.0000000000000000e+00  -7.3411260993829788e-07 -2.2632175743131597e-06 0.0000000000000000e+00  -8.8150695016233965e-07 -2.3335966171320981e-06 0.0000000000000000e+00  -1.0292062951405796e-06 -2.4170227117246797e-06 0.0000000000000000e+00  -1.1772657694401098e-06 -2.5136271919063219e-06 0.0000000000000000e+00  -1.3257321913847826e-06 -2.6235588756454685e-06 0.0000000000000000e+00  -1.4746548870008191e-06 -2.7469897765167815e-06 0.0000000000000000e+00  -1.6240796353173841e-06 -2.8841117374742865e-06 0.0000000000000000e+00  -1.7740538220212771e-06 -3.0351411991321685e-06 0.0000000000000000e+00  -1.9246210921146290e-06 -3.2003181493621957e-06 0.0000000000000000e+00  -2.0758255992850582e-06 -3.3799073442585183e-06 0.0000000000000000e+00  -2.2277099788282651e-06 -3.5741997462365316e-06 0.0000000000000000e+00  -2.3803148128483995e-06 -3.7835136925518220e-06 0.0000000000000000e+00  -2.5336797225459474e-06 -4.0081959937258109e-06 0.0000000000000000e+00  -2.6878425243681015e-06 -4.2486276075522411e-06 0.0000000000000000e+00  -2.8428369240728053e-06 -4.5052142771555717e-06 0.0000000000000000e+00  -2.9987004940609407e-06 -4.7784029407701536e-06 0.0000000000000000e+00  -3.1554679832504512e-06 -5.0686728166441973e-06 0.0000000000000000e+00  -3.3131552939081788e-06 -5.3765359194879838e-06 0.0000000000000000e+00  -3.4718081673622244e-06 -5.7025678248831983e-06 0.0000000000000000e+00  -3.6314440948042097e-06 -6.0473725524122089e-06 0.0000000000000000e+00  -3.7920891804458390e-06 -6.4116072047299730e-06 0.0000000000000000e+00  -3.9537646498688620e-06 -6.7959838288634535e-06 0.0000000000000000e+00  -4.1164908062611413e-06 -7.2012749611880101e-06 0.0000000000000000e+00  -4.2802837603731806e-06 -7.6283174517065332e-06 0.0000000000000000e+00  -4.4451611851886168e-06 -8.0780208035133102e-06 0.0000000000000000e+00  -4.6111339915658273e-06 -8.5513684873080885e-06 0.0000000000000000e+00  -4.7782111511438920e-06 -9.0494376083586661e-06 0.0000000000000000e+00  -4.9463989607405738e-06 -9.5733977760350596e-06 0.0000000000000000e+00  -5.1157331418903543e-06 -1.0124544867320403e-05 0.0000000000000000e+00  -5.2861460114339920e-06 -1.0704274372627025e-05 0.0000000000000000e+00  -5.4577061013396097e-06 -1.1314146002877523e-05 0.0000000000000000e+00  -5.6303860135939652e-06 -1.1955850877203416e-05 0.0000000000000000e+00  -5.8041851500564844e-06 -1.2631280825994284e-05 0.0000000000000000e+00  -5.9790839180176780e-06 -1.3342541106002979e-05 0.0000000000000000e+00  -6.1550845142012153e-06 -1.4091976516160513e-05 0.0000000000000000e+00  -6.3321769924140785e-06 -1.4882204012336061e-05 0.0000000000000000e+00  -6.5103498025597805e-06 -1.5716175640879391e-05 0.0000000000000000e+00  -6.6895740793024644e-06 -1.6597248314553592e-05 0.0000000000000000e+00  -6.8698518606229524e-06 -1.7529226216923165e-05 0.0000000000000000e+00  -7.0511404869759266e-06 -1.8516474144291853e-05 0.0000000000000000e+00  -7.2334015450668742e-06 -1.9564051066241203e-05 0.0000000000000000e+00  -7.4166203349115554e-06 -2.0677887083797751e-05 0.0000000000000000e+00  -7.6008051985272396e-06 -2.1864889492214398e-05 0.0000000000000000e+00  -7.7859100985933511e-06 -2.3133368554035256e-05 0.0000000000000000e+00  -7.9718850518593716e-06 -2.4493306827475459e-05 0.0000000000000000e+00  -8.1587193389757336e-06 -2.5956867373095589e-05 0.0000000000000000e+00  -8.3462641582651279e-06 -2.7539603560817287e-05 0.0000000000000000e+00  -8.5347052392831553e-06 -2.9260460459420590e-05 0.0000000000000000e+00  -8.7236408898509388e-06 -3.1145922949879379e-05 0.0000000000000000e+00  -8.9131020437537765e-06 -3.3230751334040243e-05 0.0000000000000000e+00  -9.1031069240318191e-06 -3.5564800582777298e-05 0.0000000000000000e+00  -9.2944465746350876e-06 -3.8225275829233783e-05 0.0000000000000000e+00  -9.4824789007876072e-06 -4.1346888128677894e-05 0.0000000000000000e+00  -9.6807471992964701e-06 -4.5219874175306309e-05 0.0000000000000000e+00  0.0000000000000000e+00 -4.0832566737745383e-07 0.0000000000000000e+00  0.0000000000000000e+00 -7.6274861915828631e-07 0.0000000000000000e+00  0.0000000000000000e+00 -1.0698655717065549e-06 0.0000000000000000e+00  0.0000000000000000e+00 -1.3352958481579542e-06 0.0000000000000000e+00  0.0000000000000000e+00 -1.5633097373640344e-06 0.0000000000000000e+00  0.0000000000000000e+00 -1.7574213732370435e-06 0.0000000000000000e+00  0.0000000000000000e+00 -1.9205716330306874e-06 0.0000000000000000e+00  0.0000000000000000e+00 -2.0552777222975228e-06 0.0000000000000000e+00  0.0000000000000000e+00 -2.1635391975469147e-06 0.0000000000000000e+00  0.0000000000000000e+00 -2.2475529087186060e-06 0.0000000000000000e+00  0.0000000000000000e+00 -2.3090923159427229e-06 0.0000000000000000e+00  0.0000000000000000e+00 -2.3499998833315965e-06 0.0000000000000000e+00  0.0000000000000000e+00 -2.3721570658736378e-06 0.0000000000000000e+00  0.0000000000000000e+00 -2.3774218951178521e-06 0.0000000000000000e+00  0.0000000000000000e+00 -2.3677018167975214e-06 0.0000000000000000e+00  0.0000000000000000e+00 -2.3449590628342173e-06 0.0000000000000000e+00  0.0000000000000000e+00 -2.3112243147398578e-06 0.0000000000000000e+00  0.0000000000000000e+00 -2.2685241157485178e-06 0.0000000000000000e+00  0.0000000000000000e+00 -2.2189049466340601e-06 0.0000000000000000e+00  0.0000000000000000e+00 -2.1644081232302019e-06 0.0000000000000000e+00  0.0000000000000000e+00 -2.1070429421412724e-06 0.0000000000000000e+00  0.0000000000000000e+00 -2.0487441966617231e-06 0.0000000000000000e+00  0.0000000000000000e+00 -1.9913808786593334e-06 0.0000000000000000e+00  0.0000000000000000e+00 -1.9366550415722905e-06 0.0000000000000000e+00  0.0000000000000000e+00 -1.8861921702293359e-06 0.0000000000000000e+00  0.0000000000000000e+00 -1.8414582818070126e-06 0.0000000000000000e+00  0.0000000000000000e+00 -1.8036875964937877e-06 0.0000000000000000e+00  0.0000000000000000e+00 -1.7739982302633328e-06 0.0000000000000000e+00  0.0000000000000000e+00 -1.7532808654494422e-06 0.0000000000000000e+00  0.0000000000000000e+00 -1.7422351973677189e-06 0.0000000000000000e+00  0.0000000000000000e+00 -1.7413709794174604e-06 0.0000000000000000e+00  0.0000000000000000e+00 -1.7510004138278165e-06 0.0000000000000000e+00  0.0000000000000000e+00 -1.7712574548619381e-06 0.0000000000000000e+00  0.0000000000000000e+00 -1.8021097294095717e-06 0.0000000000000000e+00  0.0000000000000000e+00 -1.8433647838417674e-06 0.0000000000000000e+00  0.0000000000000000e+00 -1.8946886769262111e-06 0.0000000000000000e+00  0.0000000000000000e+00 -1.9556232696689070e-06 0.0000000000000000e+00  0.0000000000000000e+00 -2.0256088165203678e-06 0.0000000000000000e+00  0.0000000000000000e+00 0.0000000000000000e+00 0.0000000000000000e+00  0.0000000000000000e+00 0.0000000000000000e+00 0.0000000000000000e+00  0.0000000000000000e+00 0.0000000000000000e+00 0.0000000000000000e+00  0.0000000000000000e+00 0.0000000000000000e+00 0.0000000000000000e+00  0.0000000000000000e+00 0.0000000000000000e+00 0.0000000000000000e+00  0.0000000000000000e+00 0.0000000000000000e+00 0.0000000000000000e+00  0.0000000000000000e+00 0.0000000000000000e+00 0.0000000000000000e+00  0.0000000000000000e+00 0.0000000000000000e+00 0.0000000000000000e+00  0.0000000000000000e+00 0.0000000000000000e+00 0.0000000000000000e+00  0.0000000000000000e+00 0.0000000000000000e+00 0.0000000000000000e+00  0.0000000000000000e+00 0.0000000000000000e+00 0.0000000000000000e+00  0.0000000000000000e+00 0.0000000000000000e+00 0.0000000000000000e+00  0.0000000000000000e+00 0.0000000000000000e+00 0.0000000000000000e+00  0.0000000000000000e+00 0.0000000000000000e+00 0.0000000000000000e+00  0.0000000000000000e+00 0.0000000000000000e+00 0.0000000000000000e+00  0.0000000000000000e+00 0.0000000000000000e+00 0.0000000000000000e+00  0.0000000000000000e+00 0.0000000000000000e+00 0.0000000000000000e+00  0.0000000000000000e+00 0.0000000000000000e+00 0.0000000000000000e+00  0.0000000000000000e+00 -2.0249719446523915e-06 0.0000000000000000e+00  0.0000000000000000e+00 -1.9545385227135294e-06 0.0000000000000000e+00  0.0000000000000000e+00 -1.8933427519094509e-06 0.0000000000000000e+00  0.0000000000000000e+00 -1.8419376411589770e-06 0.0000000000000000e+00  0.0000000000000000e+00 -1.8007731379996804e-06 0.0000000000000000e+00  0.0000000000000000e+00 -1.7701661677784762e-06 0.0000000000000000e+00  0.0000000000000000e+00 -1.7502881532193378e-06 0.0000000000000000e+00  0.0000000000000000e+00 -1.7411514243287732e-06 0.0000000000000000e+00  0.0000000000000000e+00 -1.7425966547876239e-06 0.0000000000000000e+00  0.0000000000000000e+00 -1.7542737488295743e-06 0.0000000000000000e+00  0.0000000000000000e+00 -1.7756571046294798e-06 0.0000000000000000e+00  0.0000000000000000e+00 -1.8059809860298643e-06 0.0000000000000000e+00  0.0000000000000000e+00 -1.8443573214889643e-06 0.0000000000000000e+00  0.0000000000000000e+00 -1.8896425132077795e-06 0.0000000000000000e+00  0.0000000000000000e+00 -1.9405465711067740e-06 0.0000000000000000e+00  0.0000000000000000e+00 -1.9955723701582109e-06 0.0000000000000000e+00  0.0000000000000000e+00 -2.0531086741854970e-06 0.0000000000000000e+00  0.0000000000000000e+00 -2.1114292136267262e-06 0.0000000000000000e+00  0.0000000000000000e+00 -2.1686421496297205e-06 0.0000000000000000e+00  0.0000000000000000e+00 -2.2228117709189336e-06 0.0000000000000000e+00  0.0000000000000000e+00 -2.2719412704531552e-06 0.0000000000000000e+00  0.0000000000000000e+00 -2.3140040229369067e-06 0.0000000000000000e+00  0.0000000000000000e+00 -2.3469657126388414e-06 0.00000000000