<?xml version="1.0"?>
<VTKFile type="UnstructuredGrid"  version="0.1"  >
<UnstructuredGrid>
<Piece  NumberOfPoints="3167" NumberOfCells="6038">
<Points>
<DataArray  type="Float64"  NumberOfComponents="3"  format="ascii">2.2 2.9 0  0 2.9 0  2.8 2.9 0  5 2.9 0  5 0 0  0 0 0  2.16271186440678 2.9 0  2.125423728813559 2.9 0  2.088135593220339 2.9 0  2.050847457627119 2.9 0  2.013559322033898 2.9 0  1.976271186440678 2.9 0  1.938983050847457 2.9 0  1.901694915254237 2.9 0  1.864406779661016 2.9 0  1.827118644067796 2.9 0  1.789830508474575 2.9 0  1.752542372881355 2.9 0  1.715254237288134 2.9 0  1.677966101694914 2.9 0  1.640677966101693 2.9 0  1.603389830508473 2.9 0  1.566101694915253 2.9 0  1.528813559322032 2.9 0  1.491525423728812 2.9 0  1.454237288135591 2.9 0  1.416949152542371 2.9 0  1.37966101694915 2.9 0  1.34237288135593 2.9 0  1.305084745762709 2.9 0  1.267796610169489 2.9 0  1.230508474576268 2.9 0  1.193220338983048 2.9 0  1.155932203389827 2.9 0  1.118644067796607 2.9 0  1.081355932203387 2.9 0  1.044067796610166 2.9 0  1.006779661016946 2.9 0  0.9694915254237257 2.9 0  0.9322033898305055 2.9 0  0.8949152542372856 2.9 0  0.8576271186440652 2.9 0  0.820338983050845 2.9 0  0.783050847457625 2.9 0  0.7457627118644048 2.9 0  0.7084745762711844 2.9 0  0.6711864406779642 2.9 0  0.633898305084744 2.9 0  0.5966101694915238 2.9 0  0.5593220338983036 2.9 0  0.5220338983050834 2.9 0  0.4847457627118632 2.9 0  0.447457627118643 2.9 0  0.4101694915254228 2.9 0  0.3728813559322024 2.9 0  0.3355932203389822 2.9 0  0.2983050847457622 2.9 0  0.2610169491525418 2.9 0  0.2237288135593216 2.9 0  0.1864406779661016 2.9 0  0.1491525423728812 2.9 0  0.1118644067796613 2.9 0  0.07457627118644039 2.9 0  0.03728813559321997 2.9 0  2.792405063291139 2.9 0  2.784810126582279 2.9 0  2.777215189873418 2.9 0  2.769620253164557 2.9 0  2.762025316455697 2.9 0  2.754430379746836 2.9 0  2.746835443037975 2.9 0  2.739240506329114 2.9 0  2.731645569620254 2.9 0  2.724050632911393 2.9 0  2.716455696202532 2.9 0  2.708860759493671 2.9 0  2.701265822784811 2.9 0  2.69367088607595 2.9 0  2.686075949367089 2.9 0  2.678481012658228 2.9 0  2.670886075949368 2.9 0  2.663291139240507 2.9 0  2.655696202531646 2.9 0  2.648101265822786 2.9 0  2.640506329113925 2.9 0  2.632911392405064 2.9 0  2.625316455696203 2.9 0  2.617721518987342 2.9 0  2.610126582278482 2.9 0  2.602531645569621 2.9 0  2.59493670886076 2.9 0  2.587341772151899 2.9 0  2.579746835443038 2.9 0  2.572151898734178 2.9 0  2.564556962025317 2.9 0  2.556962025316456 2.9 0  2.549367088607595 2.9 0  2.541772151898734 2.9 0  2.534177215189874 2.9 0  2.526582278481013 2.9 0  2.518987341772152 2.9 0  2.511392405063292 2.9 0  2.503797468354431 2.9 0  2.49620253164557 2.9 0  2.488607594936709 2.9 0  2.481012658227848 2.9 0  2.473417721518988 2.9 0  2.465822784810127 2.9 0  2.458227848101266 2.9 0  2.450632911392406 2.9 0  2.443037974683545 2.9 0  2.435443037974684 2.9 0  2.427848101265823 2.9 0  2.420253164556962 2.9 0  2.412658227848102 2.9 0  2.405063291139241 2.9 0  2.39746835443038 2.9 0  2.389873417721519 2.9 0  2.382278481012658 2.9 0  2.374683544303798 2.9 0  2.367088607594937 2.9 0  2.359493670886076 2.9 0  2.351898734177215 2.9 0  2.344303797468355 2.9 0  2.336708860759494 2.9 0  2.329113924050633 2.9 0  2.321518987341773 2.9 0  2.313924050632912 2.9 0  2.306329113924051 2.9 0  2.29873417721519 2.9 0  2.291139240506329 2.9 0  2.283544303797469 2.9 0  2.275949367088608 2.9 0  2.268354430379747 2.9 0  2.260759493670887 2.9 0  2.253164556962026 2.9 0  2.245569620253165 2.9 0  2.237974683544304 2.9 0  2.230379746835443 2.9 0  2.222784810126583 2.9 0  2.215189873417722 2.9 0  2.207594936708861 2.9 0  4.96271186440678 2.9 0  4.925423728813559 2.9 0  4.888135593220339 2.9 0  4.850847457627118 2.9 0  4.813559322033898 2.9 0  4.776271186440677 2.9 0  4.738983050847457 2.9 0  4.701694915254237 2.9 0  4.664406779661016 2.9 0  4.627118644067796 2.9 0  4.589830508474575 2.9 0  4.552542372881355 2.9 0  4.515254237288135 2.9 0  4.477966101694914 2.9 0  4.440677966101694 2.9 0  4.403389830508473 2.9 0  4.366101694915252 2.9 0  4.328813559322032 2.9 0  4.291525423728811 2.9 0  4.254237288135591 2.9 0  4.21694915254237 2.9 0  4.17966101694915 2.9 0  4.14237288135593 2.9 0  4.105084745762709 2.9 0  4.067796610169489 2.9 0  4.030508474576268 2.9 0  3.993220338983048 2.9 0  3.955932203389827 2.9 0  3.918644067796607 2.9 0  3.881355932203387 2.9 0  3.844067796610166 2.9 0  3.806779661016946 2.9 0  3.769491525423725 2.9 0  3.732203389830505 2.9 0  3.694915254237285 2.9 0  3.657627118644065 2.9 0  3.620338983050845 2.9 0  3.583050847457625 2.9 0  3.545762711864405 2.9 0  3.508474576271184 2.9 0  3.471186440677964 2.9 0  3.433898305084744 2.9 0  3.396610169491524 2.9 0  3.359322033898303 2.9 0  3.322033898305083 2.9 0  3.284745762711863 2.9 0  3.247457627118643 2.9 0  3.210169491525423 2.9 0  3.172881355932202 2.9 0  3.135593220338982 2.9 0  3.098305084745762 2.9 0  3.061016949152542 2.9 0  3.023728813559321 2.9 0  2.986440677966101 2.9 0  2.949152542372881 2.9 0  2.911864406779661 2.9 0  2.87457627118644 2.9 0  2.83728813559322 2.9 0  5 0.1063822625082082 0  5 0.210636880010749 0  5 0.3128064053694972 0  5 0.4129325400644018 0  5 0.5110561521032336 0  5 0.6072172918830103 0  5 0.7014552087832795 0  5 0.7938083674443693 0  5 0.88431446261646 0  5 0.9730104359544682 0  5 1.059932489996267 0  5 1.145116102913299 0  5 1.228596043483191 0  5 1.310406385079062 0  5 1.390580519944147 0  5 1.469151172477827 0  5 1.546150411986101 0  5 1.621609666658609 0  5 1.695559736099044 0  5 1.76803080383987 0  5 1.839052450169751 0  5 1.908653663631169 0  5 1.97686285289587 0  5 2.043707858613779 0  5 2.109215964341413 0  5 2.173413907925942 0  5 2.236327892833935 0  5 2.297983597762904 0  5 2.35840618845912 0  5 2.41762032730194 0  5 2.475650183444628 0  5 2.532519442457069 0  5 2.588251316112828 0  5 2.642868552557322 0  5 2.696393444426347 0  5 2.748847838312051 0  5 2.800253144313381 0  5 2.850630344319807 0  0.2631578947368421 0 0  0.5263157894736842 0 0  0.7894736842105263 0 0  1.052631578947368 0 0  1.31578947368421 0 0  1.578947368421053 0 0  1.842105263157895 0 0  2.105263157894737 0 0  2.368421052631579 0 0  2.631578947368421 0 0  2.894736842105263 0 0  3.157894736842105 0 0  3.421052631578947 0 0  3.684210526315789 0 0  3.947368421052632 0 0  4.210526315789473 0 0  4.473684210526315 0 0  4.736842105263158 0 0  0 2.850203682350569 0  0 2.799411438503675 0  0 2.747603349778291 0  0 2.694759099502208 0  0 2.640857964382145 0  0 2.58587880633613 0  0 2.52980006535898 0  0 2.472599749459174 0  0 2.414255427218689 0  0 2.35474421880616 0  0 2.294042786119219 0  0 2.232127324764723 0  0 2.1689735539481 0  0 2.104556707683347 0  0 2.038851524813415 0  0 1.971832238155655 0  0 1.903472565412126 0  0 1.83374569926617 0  0 1.762624296208475 0  0 1.690080464918761 0  0 1.616085756774206 0  0 1.540611154706337 0  0 1.463627060685571 0  0 1.385103284916206 0  0 1.305009033716617 0  0 1.223312897337225 0  0 1.139982838163732 0  0 1.054986177579938 0  0 0.9682895835804817 0  0 0.8798590579197976 0  0 0.7896599218415354 0  0 0.6976568029903638 0  0 0.6038136217958798 0  0 0.508093576867624 0  0 0.4104591310957497 0  0 0.3108719963522191 0  0 0.2092931188294389 0  0 0.1056826638508546 0  1.434832105763824 2.866945754981483 0  1.737156300467626 2.870039440267515 0  2.032203389830508 2.867707527316512 0  2.332911392405064 2.893422591869991 0  2.469810913293406 2.891944186606167 0  2.606221408823969 2.892519154985628 0  2.255455320628894 2.892068685006691 0  2.538247299216212 2.894964578182811 0  2.674683544303798 2.893422591869991 0  2.40126582278481 2.893422591869991 0  3.566125247295424 2.865029336199714 0  3.266101694915253 2.867707527316512 0  2.967796610169491 2.867707527316512 0  1.174288529834642 2.870795313888584 0  3.825423728813556 2.867707527316512 0  2.727766680262011 2.892655387647729 0  0.06601655192030442 1.502119107695954 0  4.933983535508361 1.507650792231964 0  0.9532124728485543 2.868722489783638 0  4.048935912500257 2.870640982995992 0  0.05930163367361763 1.866907161167414 0  4.943402512618553 1.871280731473148 0  4.271733870017743 2.86520865624265 0  0.7249420921613114 2.863922936177041 0  0.05494499779910056 2.196469063120752 0  4.947228695426367 2.208030108792719 0  0.5406152150397161 2.866493807382013 0  4.459322033898304 2.868847558178794 0  2.18135593220339 2.875780645487384 0  2.817027156509632 2.876587550645167 0  4.928427208322876 1.186856073198245 0  0.07189226971603224 1.174626666111662 0  4.610299014423113 2.867003104093161 0  0.3897270066746357 2.869433095314657 0  1.581132500042262 2.868247328632392 0  1.887637879411437 2.869235851794358 0  3.413449426418068 2.867372048034327 0  3.116721298814773 2.865731235547652 0  2.644303797468355 2.893422591869991 0  2.370983221828106 2.892719513369796 0  2.302531645569621 2.893336787387268 0  2.758987341772152 2.894242393897099 0  0.04979653335696277 2.443411216910286 0  4.950470983477169 2.446866954595817 0  2.482937483021586 0.2513241087417575 0  1.707129504814338 0.1999998659920923 0  3.28584657955054 0.229200625631625 0  4.907807122600524 0.834082362900164 0  4.757627118644067 2.867707527316512 0  0.0773489124676745 0.8347594898806663 0  0.2390604736599387 2.861365431805741 0  0.8363213715215729 2.863896768908178 0  4.160865610207075 2.868916854015731 0  1.282549332053297 2.867610952980761 0  1.065094818402487 2.861284686038041 0  3.93818127737282 2.86865134411395 0  3.711492629432973 2.863574306925269 0  4.91369361998929 0.5579891344254361 0  0.08208328472281323 0.5559535993317519 0  2.696596932532885 2.892010483922337 0  0.04706410140274553 2.613055974506516 0  4.955577063972248 2.616518038840186 0  2.234177215189874 2.893422591869991 0  2.279795840559739 2.89403861893984 0  0.9117357887652362 0.2117925286661764 0  4.055948041993057 0.2039101057937727 0  4.872119713780579 2.867632926423075 0  2.780113878992455 2.891535929611743 0  0.1327442468251063 2.85
[...]
<PointData  Vectors="displacement"> 
<DataArray  type="Float64"  Name="displacement"  NumberOfComponents="3" format="ascii">1.4549541973529914e-03 -7.6135895242148057e-03 0.0000000000000000e+00  0.0000000000000000e+00 -3.1349510080832740e-04 0.0000000000000000e+00  -1.4569520493811854e-03 -7.6139017683989809e-03 0.0000000000000000e+00  0.0000000000000000e+00 -3.1349547540700619e-04 0.0000000000000000e+00  0.0000000000000000e+00 0.0000000000000000e+00 0.0000000000000000e+00  0.0000000000000000e+00 0.0000000000000000e+00 0.0000000000000000e+00  1.4421562889703962e-03 -6.7381651029348854e-03 0.0000000000000000e+00  1.4132501469024538e-03 -6.1604655324363732e-03 0.0000000000000000e+00  1.3847378092057660e-03 -5.6955874069928181e-03 0.0000000000000000e+00  1.3563875072264383e-03 -5.2991567577320240e-03 0.0000000000000000e+00  1.3280756318351176e-03 -4.9513523317428589e-03 0.0000000000000000e+00  1.2998230119454644e-03 -4.6407349328009299e-03 0.0000000000000000e+00  1.2716591692425413e-03 -4.3598224089635056e-03 0.0000000000000000e+00  1.2435903188041592e-03 -4.1033980286462723e-03 0.0000000000000000e+00  1.2156451504965657e-03 -3.8675840773250186e-03 0.0000000000000000e+00  1.1878134498105623e-03 -3.6494886530695683e-03 0.0000000000000000e+00  1.1601037082703460e-03 -3.4468636068037740e-03 0.0000000000000000e+00  1.1325222735353738e-03 -3.2578720593676130e-03 0.0000000000000000e+00  1.1050798008463516e-03 -3.0810088135173322e-03 0.0000000000000000e+00  1.0777759371572786e-03 -2.9150450674801207e-03 0.0000000000000000e+00  1.0506169650138879e-03 -2.7589524234196633e-03 0.0000000000000000e+00  1.0236060839048503e-03 -2.6118511631488509e-03 0.0000000000000000e+00  9.9674900862380079e-04 -2.4729884298796338e-03 0.0000000000000000e+00  9.7004279828116693e-04 -2.3417116841136609e-03 0.0000000000000000e+00  9.4349521346739657e-04 -2.2174496151900489e-03 0.0000000000000000e+00  9.1710805211622434e-04 -2.0997049211648566e-03 0.0000000000000000e+00  8.9088358132265828e-04 -1.9880388297279414e-03 0.0000000000000000e+00  8.6482270996175010e-04 -1.8820619815393801e-03 0.0000000000000000e+00  8.3892835806219346e-04 -1.7814209044084536e-03 0.0000000000000000e+00  8.1319853932296997e-04 -1.6858051365189807e-03 0.0000000000000000e+00  7.8763609487274408e-04 -1.5949361772875351e-03 0.0000000000000000e+00  7.6224174437939318e-04 -1.5085576484226535e-03 0.0000000000000000e+00  7.3701486601656166e-04 -1.4264362322360937e-03 0.0000000000000000e+00  7.1195292077561316e-04 -1.3483661511850416e-03 0.0000000000000000e+00  6.8706039436496058e-04 -1.2741556935399250e-03 0.0000000000000000e+00  6.6232879850179594e-04 -1.2036256589582229e-03 0.0000000000000000e+00  6.3776239550195448e-04 -1.1366183530742758e-03 0.0000000000000000e+00  6.1335802859018994e-04 -1.0729882056546393e-03 0.0000000000000000e+00  5.8911130214262387e-04 -1.0126016922038469e-03 0.0000000000000000e+00  5.6502167291142317e-04 -9.5532873992788380e-04 0.0000000000000000e+00  5.4108528294383998e-04 -9.0105823189017345e-04 0.0000000000000000e+00  5.1729968966448571e-04 -8.4968265108600362e-04 0.0000000000000000e+00  4.9366040971289657e-04 -8.0110317066221955e-04 0.0000000000000000e+00  4.7016409332637388e-04 -7.5523103064446969e-04 0.0000000000000000e+00  4.4680646643095056e-04 -7.1198116054476453e-04 0.0000000000000000e+00  4.2358283511401644e-04 -6.7127633520690753e-04 0.0000000000000000e+00  4.0048849622848105e-04 -6.3304505529951296e-04 0.0000000000000000e+00  3.7751848526666569e-04 -5.9722110107287782e-04 0.0000000000000000e+00  3.5466697959589687e-04 -5.6374311131202103e-04 0.0000000000000000e+00  3.3192884378244490e-04 -5.3255540876839499e-04 0.0000000000000000e+00  3.0929799715921711e-04 -5.0360573750200647e-04 0.0000000000000000e+00  2.8676847073423682e-04 -4.7684695097686703e-04 0.0000000000000000e+00  2.6433391147234764e-04 -4.5223557234197307e-04 0.0000000000000000e+00  2.4198785916026551e-04 -4.2973230565868055e-04 0.0000000000000000e+00  2.1972353029385081e-04 -4.0930113209534810e-04 0.0000000000000000e+00  1.9753399813769910e-04 -3.9091003583100560e-04 0.0000000000000000e+00  1.7541292145831022e-04 -3.7453042164923179e-04 0.0000000000000000e+00  1.5335177196932874e-04 -3.6013621338881291e-04 0.0000000000000000e+00  1.3134418660907624e-04 -3.4770535973114376e-04 0.0000000000000000e+00  1.0938274045407780e-04 -3.3721920773216083e-04 0.0000000000000000e+00  8.7460292885722002e-05 -3.2866138095839759e-04 0.0000000000000000e+00  6.5567793285841168e-05 -3.2201858958618340e-04 0.0000000000000000e+00  4.3698826904250131e-05 -3.1728089102356171e-04 0.0000000000000000e+00  2.1845448589735906e-05 -3.1444117202895097e-04 0.0000000000000000e+00  -1.4362723004565550e-03 -7.8801946575185969e-03 0.0000000000000000e+00  -1.3976234266985877e-03 -8.0721875546132492e-03 0.0000000000000000e+00  -1.3598172856108465e-03 -8.2362261080538499e-03 0.0000000000000000e+00  -1.3221957173501697e-03 -8.3827928196019384e-03 0.0000000000000000e+00  -1.2848370430780386e-03 -8.5165243960666128e-03 0.0000000000000000e+00  -1.2475122794348612e-03 -8.6399149091906484e-03 0.0000000000000000e+00  -1.2102129939850440e-03 -8.7546459485875836e-03 0.0000000000000000e+00  -1.1729299668890060e-03 -8.8618401965545150e-03 0.0000000000000000e+00  -1.1356477043691332e-03 -8.9623547845739133e-03 0.0000000000000000e+00  -1.0983782936140169e-03 -9.0568660973324427e-03 0.0000000000000000e+00  -1.0611188910606738e-03 -9.1459032899076087e-03 0.0000000000000000e+00  -1.0238622044310853e-03 -9.2298939142213335e-03 0.0000000000000000e+00  -9.8660945622050934e-04 -9.3091982919272058e-03 0.0000000000000000e+00  -9.4936079461784614e-04 -9.3841111655725111e-03 0.0000000000000000e+00  -9.1211163951688970e-04 -9.4548823574485772e-03 0.0000000000000000e+00  -8.7486735656676796e-04 -9.5217374552531483e-03 0.0000000000000000e+00  -8.3762515366910537e-04 -9.5848630941693779e-03 0.0000000000000000e+00  -8.0038525527701245e-04 -9.6444228494173799e-03 0.0000000000000000e+00  -7.6314720070425751e-04 -9.7005621185538050e-03 0.0000000000000000e+00  -7.2591066114968813e-04 -9.7534081530232450e-03 0.0000000000000000e+00  -6.8867566517212184e-04 -9.8030741443076701e-03 0.0000000000000000e+00  -6.5144215916674360e-04 -9.8496607837845248e-03 0.0000000000000000e+00  -6.1420983687034071e-04 -9.8932572141540633e-03 0.0000000000000000e+00  -5.7697888432109619e-04 -9.9339439058865418e-03 0.0000000000000000e+00  -5.3974907582870785e-04 -9.9717926904790456e-03 0.0000000000000000e+00  -5.0252029403303415e-04 -1.0006866996606877e-02 0.0000000000000000e+00  -4.6529296893351585e-04 -1.0039224219125301e-02 0.0000000000000000e+00  -4.2806589348105270e-04 -1.0068914891205637e-02 0.0000000000000000e+00  -3.9083979362507893e-04 -1.0095985174567645e-02 0.0000000000000000e+00  -3.5361460239142860e-04 -1.0120475256596640e-02 0.0000000000000000e+00  -3.1639014275687083e-04 -1.0142420891497273e-02 0.0000000000000000e+00  -2.7916616792153683e-04 -1.0161853143969812e-02 0.0000000000000000e+00  -2.4194271228488817e-04 -1.0178799325752134e-02 0.0000000000000000e+00  -2.0471985348334949e-04 -1.0193282799060704e-02 0.0000000000000000e+00  -1.6749705887459515e-04 -1.0205322653735685e-02 0.0000000000000000e+00  -1.3027523543360274e-04 -1.0214935816915741e-02 0.0000000000000000e+00  -9.3053032891775354e-05 -1.0222134687135054e-02 0.0000000000000000e+00  -5.5831135816611858e-05 -1.0226928546757047e-02 0.0000000000000000e+00  -1.8609478315072714e-05 -1.0229323942110588e-02 0.0000000000000000e+00  1.8612182886337883e-05 -1.0229323896017361e-02 0.0000000000000000e+00  5.5833877756896984e-05 -1.0226928392797508e-02 0.0000000000000000e+00  9.3055683336024629e-05 -1.0222134341087735e-02 0.0000000000000000e+00  1.3027767346074012e-04 -1.0214935547327119e-02 0.0000000000000000e+00  1.6749982811892219e-04 -1.0205322342439427e-02 0.0000000000000000e+00  2.0472242558697160e-04 -1.0193281961986577e-02 0.0000000000000000e+00  2.4194532763012900e-04 -1.0178798631261008e-02 0.0000000000000000e+00  2.7916872878061517e-04 -1.0161852475330810e-02 0.0000000000000000e+00  3.1639265011092226e-04 -1.0142420133224384e-02 0.0000000000000000e+00  3.5361729412914804e-04 -1.0120474536464455e-02 0.0000000000000000e+00  3.9084249540000294e-04 -1.0095984231015031e-02 0.0000000000000000e+00  4.2806850656430638e-04 -1.0068913965644456e-02 0.0000000000000000e+00  4.6529564681828942e-04 -1.0039222983141754e-02 0.0000000000000000e+00  5.0252323781033224e-04 -1.0006865725074400e-02 0.0000000000000000e+00  5.3975201841153597e-04 -9.9717916820181753e-03 0.0000000000000000e+00  5.7698187738468895e-04 -9.9339432224722600e-03 0.0000000000000000e+00  6.1421293457584189e-04 -9.8932564662241318e-03 0.0000000000000000e+00  6.5144507548730364e-04 -9.8496597554923564e-03 0.0000000000000000e+00  6.8867924375919077e-04 -9.8030735391405593e-03 0.0000000000000000e+00  7.2591488338400953e-04 -9.7534063825728476e-03 0.0000000000000000e+00  7.6315180388881977e-04 -9.7005603336633509e-03 0.0000000000000000e+00  8.0039032362952389e-04 -9.6444209192835494e-03 0.0000000000000000e+00  8.3763090323296196e-04 -9.5848607349674746e-03 0.0000000000000000e+00  8.7487357734544128e-04 -9.5217350318298529e-03 0.0000000000000000e+00  9.1211874882862970e-04 -9.4548788658984292e-03 0.0000000000000000e+00  9.4936656348686957e-04 -9.3841041875563011e-03 0.0000000000000000e+00  9.8661804252372009e-04 -9.3091920397358960e-03 0.0000000000000000e+00  1.0238715883273003e-03 -9.2298881258727709e-03 0.0000000000000000e+00  1.0611291414087088e-03 -9.1458937953679455e-03 0.0000000000000000e+00  1.0983939391405561e-03 -9.0568602832188042e-03 0.0000000000000000e+00  1.1356609759868991e-03 -8.9623469846975834e-03 0.0000000000000000e+00  1.1729342742278100e-03 -8.8618222665233642e-03 0.0000000000000000e+00  1.2102229806700074e-03 -8.7546305907862387e-03 0.0000000000000000e+00  1.2475341875863727e-03 -8.6399240618335628e-03 0.0000000000000000e+00  1.2848530168541455e-03 -8.5165000880372370e-03 0.0000000000000000e+00  1.3221933153571229e-03 -8.3827330139829119e-03 0.0000000000000000e+00  1.3595081702261788e-03 -8.2362113364043091e-03 0.0000000000000000e+00  1.3978705219294342e-03 -8.0727313987597922e-03 0.0000000000000000e+00  1.4360681854194684e-03 -7.8795866995678525e-03 0.0000000000000000e+00  -2.1845619604441801e-05 -3.1444146804291085e-04 0.0000000000000000e+00  -4.3698999703556822e-05 -3.1728122643448389e-04 0.0000000000000000e+00  -6.5567832194560676e-05 -3.2201882070915394e-04 0.0000000000000000e+00  -8.7459897162932274e-05 -3.2866156548514206e-04 0.0000000000000000e+00  -1.0938277888086679e-04 -3.3721941857279826e-04 0.0000000000000000e+00  -1.3134453557426154e-04 -3.4770589595282020e-04 0.0000000000000000e+00  -1.5335173797603358e-04 -3.6013638404711951e-04 0.0000000000000000e+00  -1.7541259964667629e-04 -3.7453045159418732e-04 0.0000000000000000e+00  -1.9753409651644379e-04 -3.9091027247132253e-04 0.0000000000000000e+00  -2.1972357816324559e-04 -4.0930147670114941e-04 0.0000000000000000e+00  -2.4198786566242739e-04 -4.2973264888381896e-04 0.0000000000000000e+00  -2.6433401948132039e-04 -4.5223603867084540e-04 0.0000000000000000e+00  -2.8676854272524643e-04 -4.7684740425512495e-04 0.0000000000000000e+00  -3.0929801429365383e-04 -5.0360619429468546e-04 0.0000000000000000e+00  -3.3192878684560538e-04 -5.3255576218941432e-04 0.0000000000000000e+00  -3.5466690711461943e-04 -5.6374354019040230e-04 0.0000000000000000e+00  -3.7751827865956821e-04 -5.9722120306533852e-04 0.0000000000000000e+00  -4.0048853613108121e-04 -6.3304551352549301e-04 0.0000000000000000e+00  -4.2358270168709253e-04 -6.7127692729639879e-04 0.0000000000000000e+00  -4.4680637361533757e-04 -7.1198203817497761e-04 0.0000000000000000e+00  -4.7016472950458464e-04 -7.5523224968021953e-04 0.0000000000000000e+00  -4.9366013879259952e-04 -8.0110385200395226e-04 0.0000000000000000e+00  -5.1729941693726860e-04 -8.4968260590785312e-04 0.0000000000000000e+00  -5.4108517012613688e-04 -9.0105851030969082e-04 0.0000000000000000e+00  -5.6502128788674935e-04 -9.5532947350504582e-04 0.0000000000000000e+00  -5.8911093283078918e-04 -1.0126015905009449e-03 0.0000000000000000e+00  -6.1335713013324948e-04 -1.0729899692173176e-03 0.0000000000000000e+00  -6.3776228029595468e-04 -1.1366193003045874e-03 0.0000000000000000e+00  -6.6232901659346913e-04 -1.2036250997238022e-03 0.0000000000000000e+00  -6.8705896474368722e-04 -1.2741539046092400e-03 0.0000000000000000e+00  -7.1195346152082924e-04 -1.3483662036457933e-03 0.0000000000000000e+00  -7.3701344515074733e-04 -1.4264362686295892e-03 0.0000000000000000e+00  -7.6224423814207315e-04 -1.5085571852311176e-03 0.0000000000000000e+00  -7.8763575570408987e-04 -1.5949368815218114e-03 0.0000000000000000e+00  -8.1319820910004165e-04 -1.6858077544291486e-03 0.0000000000000000e+00  -8.3892751602595325e-04 -1.7814217807037244e-03 0.0000000000000000e+00  -8.6482358735888573e-04 -1.8820608430735700e-03 0.0000000000000000e+00  -8.9088350378511527e-04 -1.9880386247948874e-03 0.0000000000000000e+00  -9.1710759261648053e-04 -2.0997045009083751e-03 0.0000000000000000e+00  -9.4349437187021237e-04 -2.2174483978385584e-03 0.0000000000000000e+00  -9.7004212058193209e-04 -2.3417101704915361e-03 0.0000000000000000e+00  -9.9674653781660523e-04 -2.4729899988690128e-03 0.0000000000000000e+00  -1.0236079272333656e-03 -2.6118547063221031e-03 0.0000000000000000e+00  -1.0506199325599668e-03 -2.7589546475000498e-03 0.0000000000000000e+00  -1.0777768302155297e-03 -2.9150436088705273e-03 0.0000000000000000e+00  -1.1050764299023940e-03 -3.0810051754864634e-03 0.0000000000000000e+00  -1.1325199745811426e-03 -3.2578685343405481e-03 0.0000000000000000e+00  -1.1601006046910078e-03 -3.4468719145518607e-03 0.0000000000000000e+00  -1.1878108727276617e-03 -3.6495027172944506e-03 0.0000000000000000e+00  -1.2156491815080222e-03 -3.8675732385918538e-03 0.0000000000000000e+00  -1.2435933595821604e-03 -4.1034009305623911e-03 0.0000000000000000e+00  -1.2716710806538643e-03 -4.3598086084542798e-03 0.0000000000000000e+00  -1.2998224925885021e-03 -4.6407425195326641e-03 0.0000000000000000e+00  -1.3280522045200534e-03 -4.9513819487726736e-03 0.0000000000000000e+00  -1.3563629316815122e-03 -5.2991552868345412e-03 0.0000000000000000e+00  -1.3848725396214288e-03 -5.6955660985566047e-03 0.0000000000000000e+00  -1.4128893562181774e-03 -6.1606863311738360e-03 0.0000000000000000e+00  -1.4424313326960355e-03 -6.7377612521215147e-03 0.0000000000000000e+00  0.0000000000000000e+00 -6.0840524439248390e-05 0.0000000000000000e+00  0.0000000000000000e+00 -1.1364954425459759e-04 0.0000000000000000e+00  0.0000000000000000e+00 -1.5940997018429299e-04 0.0000000000000000e+00  0.0000000000000000e+00 -1.9895908137555570e-04 0.0000000000000000e+00  0.0000000000000000e+00 -2.3293315086726408e-04 0.0000000000000000e+00  0.0000000000000000e+00 -2.6185578461234452e-04 0.0000000000000000e+00  0.0000000000000000e+00 -2.8616517332159900e-04 0.0000000000000000e+00  0.0000000000000000e+00 -3.0623638062235805e-04 0.0000000000000000e+00  0.0000000000000000e+00 -3.2236734043451819e-04 0.0000000000000000e+00  0.0000000000000000e+00 -3.3488538339910201e-04 0.0000000000000000e+00  0.0000000000000000e+00 -3.4405475507549702e-04 0.0000000000000000e+00  0.0000000000000000e+00 -3.5014998261644065e-04 0.0000000000000000e+00  0.0000000000000000e+00 -3.5345140281520438e-04 0.0000000000000000e+00  0.0000000000000000e+00 -3.5423586237259342e-04 0.0000000000000000e+00  0.0000000000000000e+00 -3.5278757070286428e-04 0.0000000000000000e+00  0.0000000000000000e+00 -3.4939890036233585e-04 0.0000000000000000e+00  0.0000000000000000e+00 -3.4437242289627688e-04 0.0000000000000000e+00  0.0000000000000000e+00 -3.3801009324656929e-04 0.0000000000000000e+00  0.0000000000000000e+00 -3.3061683704851513e-04 0.0000000000000000e+00  0.0000000000000000e+00 -3.2249681036134576e-04 0.0000000000000000e+00  0.0000000000000000e+00 -3.1394939837909431e-04 0.0000000000000000e+00  0.0000000000000000e+00 -3.0526288530264379e-04 0.0000000000000000e+00  0.0000000000000000e+00 -2.9671575092029108e-04 0.0000000000000000e+00  0.0000000000000000e+00 -2.8856160119432382e-04 0.0000000000000000e+00  0.0000000000000000e+00 -2.8104263336423048e-04 0.0000000000000000e+00  0.0000000000000000e+00 -2.7437728398930491e-04 0.0000000000000000e+00  0.0000000000000000e+00 -2.6874945187763951e-04 0.0000000000000000e+00  0.0000000000000000e+00 -2.6432573630930589e-04 0.0000000000000000e+00  0.0000000000000000e+00 -2.6123884895204008e-04 0.0000000000000000e+00  0.0000000000000000e+00 -2.5959304440786662e-04 0.0000000000000000e+00  0.0000000000000000e+00 -2.5946427593328603e-04 0.0000000000000000e+00  0.0000000000000000e+00 -2.6089906166043293e-04 0.0000000000000000e+00  0.0000000000000000e+00 -2.6391736077452415e-04 0.0000000000000000e+00  0.0000000000000000e+00 -2.6851434968212757e-04 0.0000000000000000e+00  0.0000000000000000e+00 -2.7466135279253265e-04 0.0000000000000000e+00  0.0000000000000000e+00 -2.8230861286211793e-04 0.0000000000000000e+00  0.0000000000000000e+00 -2.9138786718078556e-04 0.0000000000000000e+00  0.0000000000000000e+00 -3.0181571366166295e-04 0.0000000000000000e+00  0.0000000000000000e+00 0.0000000000000000e+00 0.0000000000000000e+00  0.0000000000000000e+00 0.0000000000000000e+00 0.0000000000000000e+00  0.0000000000000000e+00 0.0000000000000000e+00 0.0000000000000000e+00  0.0000000000000000e+00 0.0000000000000000e+00 0.0000000000000000e+00  0.0000000000000000e+00 0.0000000000000000e+00 0.0000000000000000e+00  0.0000000000000000e+00 0.0000000000000000e+00 0.0000000000000000e+00  0.0000000000000000e+00 0.0000000000000000e+00 0.0000000000000000e+00  0.0000000000000000e+00 0.0000000000000000e+00 0.0000000000000000e+00  0.0000000000000000e+00 0.0000000000000000e+00 0.0000000000000000e+00  0.0000000000000000e+00 0.0000000000000000e+00 0.0000000000000000e+00  0.0000000000000000e+00 0.0000000000000000e+00 0.0000000000000000e+00  0.0000000000000000e+00 0.0000000000000000e+00 0.0000000000000000e+00  0.0000000000000000e+00 0.0000000000000000e+00 0.0000000000000000e+00  0.0000000000000000e+00 0.0000000000000000e+00 0.0000000000000000e+00  0.0000000000000000e+00 0.0000000000000000e+00 0.0000000000000000e+00  0.0000000000000000e+00 0.0000000000000000e+00 0.0000000000000000e+00  0.0000000000000000e+00 0.0000000000000000e+00 0.0000000000000000e+00  0.0000000000000000e+00 0.0000000000000000e+00 0.0000000000000000e+00  0.0000000000000000e+00 -3.0172081975332111e-04 0.0000000000000000e+00  0.0000000000000000e+00 -2.9122623988443144e-04 0.0000000000000000e+00  0.0000000000000000e+00 -2.8210807003462430e-04 0.0000000000000000e+00  0.0000000000000000e+00 -2.7444870853280746e-04 0.0000000000000000e+00  0.0000000000000000e+00 -2.6831519756207454e-04 0.0000000000000000e+00  0.0000000000000000e+00 -2.6375475899911757e-04 0.0000000000000000e+00  0.0000000000000000e+00 -2.6079293482980930e-04 0.0000000000000000e+00  0.0000000000000000e+00 -2.5943156222511555e-04 0.0000000000000000e+00  0.0000000000000000e+00 -2.5964690156348721e-04 0.0000000000000000e+00  0.0000000000000000e+00 -2.6138678857574079e-04 0.0000000000000000e+00  0.0000000000000000e+00 -2.6457290858992923e-04 0.0000000000000000e+00  0.0000000000000000e+00 -2.6909116691859185e-04 0.0000000000000000e+00  0.0000000000000000e+00 -2.7480924090200108e-04 0.0000000000000000e+00  0.0000000000000000e+00 -2.8155673446811119e-04 0.0000000000000000e+00  0.0000000000000000e+00 -2.8914143909506275e-04 0.0000000000000000e+00  0.0000000000000000e+00 -2.9734028315372789e-04 0.0000000000000000e+00  0.0000000000000000e+00 -3.0591319245379264e-04 0.0000000000000000e+00  0.0000000000000000e+00 -3.1460295283053895e-04 0.0000000000000000e+00  0.0000000000000000e+00 -3.2312768029498580e-04 0.0000000000000000e+00  0.0000000000000000e+00 -3.3119895386708113e-04 0.0000000000000000e+00  0.0000000000000000e+00 -3.3851924929768153e-04 0.0000000000000000e+00  0.0000000000000000e+00 -3.4478659941775770e-04 0.0000000000000000e+00  0.0000000000000000e+00 -3.4969789118334717e-04 0.00000000000