<?xml version="1.0"?>
<VTKFile type="UnstructuredGrid"  version="0.1"  >
<UnstructuredGrid>
<Piece  NumberOfPoints="3167" NumberOfCells="6038">
<Points>
<DataArray  type="Float64"  NumberOfComponents="3"  format="ascii">2.2 2.9 0  0 2.9 0  2.8 2.9 0  5 2.9 0  5 0 0  0 0 0  2.16271186440678 2.9 0  2.125423728813559 2.9 0  2.088135593220339 2.9 0  2.050847457627119 2.9 0  2.013559322033898 2.9 0  1.976271186440678 2.9 0  1.938983050847457 2.9 0  1.901694915254237 2.9 0  1.864406779661016 2.9 0  1.827118644067796 2.9 0  1.789830508474575 2.9 0  1.752542372881355 2.9 0  1.715254237288134 2.9 0  1.677966101694914 2.9 0  1.640677966101693 2.9 0  1.603389830508473 2.9 0  1.566101694915253 2.9 0  1.528813559322032 2.9 0  1.491525423728812 2.9 0  1.454237288135591 2.9 0  1.416949152542371 2.9 0  1.37966101694915 2.9 0  1.34237288135593 2.9 0  1.305084745762709 2.9 0  1.267796610169489 2.9 0  1.230508474576268 2.9 0  1.193220338983048 2.9 0  1.155932203389827 2.9 0  1.118644067796607 2.9 0  1.081355932203387 2.9 0  1.044067796610166 2.9 0  1.006779661016946 2.9 0  0.9694915254237257 2.9 0  0.9322033898305055 2.9 0  0.8949152542372856 2.9 0  0.8576271186440652 2.9 0  0.820338983050845 2.9 0  0.783050847457625 2.9 0  0.7457627118644048 2.9 0  0.7084745762711844 2.9 0  0.6711864406779642 2.9 0  0.633898305084744 2.9 0  0.5966101694915238 2.9 0  0.5593220338983036 2.9 0  0.5220338983050834 2.9 0  0.4847457627118632 2.9 0  0.447457627118643 2.9 0  0.4101694915254228 2.9 0  0.3728813559322024 2.9 0  0.3355932203389822 2.9 0  0.2983050847457622 2.9 0  0.2610169491525418 2.9 0  0.2237288135593216 2.9 0  0.1864406779661016 2.9 0  0.1491525423728812 2.9 0  0.1118644067796613 2.9 0  0.07457627118644039 2.9 0  0.03728813559321997 2.9 0  2.792405063291139 2.9 0  2.784810126582279 2.9 0  2.777215189873418 2.9 0  2.769620253164557 2.9 0  2.762025316455697 2.9 0  2.754430379746836 2.9 0  2.746835443037975 2.9 0  2.739240506329114 2.9 0  2.731645569620254 2.9 0  2.724050632911393 2.9 0  2.716455696202532 2.9 0  2.708860759493671 2.9 0  2.701265822784811 2.9 0  2.69367088607595 2.9 0  2.686075949367089 2.9 0  2.678481012658228 2.9 0  2.670886075949368 2.9 0  2.663291139240507 2.9 0  2.655696202531646 2.9 0  2.648101265822786 2.9 0  2.640506329113925 2.9 0  2.632911392405064 2.9 0  2.625316455696203 2.9 0  2.617721518987342 2.9 0  2.610126582278482 2.9 0  2.602531645569621 2.9 0  2.59493670886076 2.9 0  2.587341772151899 2.9 0  2.579746835443038 2.9 0  2.572151898734178 2.9 0  2.564556962025317 2.9 0  2.556962025316456 2.9 0  2.549367088607595 2.9 0  2.541772151898734 2.9 0  2.534177215189874 2.9 0  2.526582278481013 2.9 0  2.518987341772152 2.9 0  2.511392405063292 2.9 0  2.503797468354431 2.9 0  2.49620253164557 2.9 0  2.488607594936709 2.9 0  2.481012658227848 2.9 0  2.473417721518988 2.9 0  2.465822784810127 2.9 0  2.458227848101266 2.9 0  2.450632911392406 2.9 0  2.443037974683545 2.9 0  2.435443037974684 2.9 0  2.427848101265823 2.9 0  2.420253164556962 2.9 0  2.412658227848102 2.9 0  2.405063291139241 2.9 0  2.39746835443038 2.9 0  2.389873417721519 2.9 0  2.382278481012658 2.9 0  2.374683544303798 2.9 0  2.367088607594937 2.9 0  2.359493670886076 2.9 0  2.351898734177215 2.9 0  2.344303797468355 2.9 0  2.336708860759494 2.9 0  2.329113924050633 2.9 0  2.321518987341773 2.9 0  2.313924050632912 2.9 0  2.306329113924051 2.9 0  2.29873417721519 2.9 0  2.291139240506329 2.9 0  2.283544303797469 2.9 0  2.275949367088608 2.9 0  2.268354430379747 2.9 0  2.260759493670887 2.9 0  2.253164556962026 2.9 0  2.245569620253165 2.9 0  2.237974683544304 2.9 0  2.230379746835443 2.9 0  2.222784810126583 2.9 0  2.215189873417722 2.9 0  2.207594936708861 2.9 0  4.96271186440678 2.9 0  4.925423728813559 2.9 0  4.888135593220339 2.9 0  4.850847457627118 2.9 0  4.813559322033898 2.9 0  4.776271186440677 2.9 0  4.738983050847457 2.9 0  4.701694915254237 2.9 0  4.664406779661016 2.9 0  4.627118644067796 2.9 0  4.589830508474575 2.9 0  4.552542372881355 2.9 0  4.515254237288135 2.9 0  4.477966101694914 2.9 0  4.440677966101694 2.9 0  4.403389830508473 2.9 0  4.366101694915252 2.9 0  4.328813559322032 2.9 0  4.291525423728811 2.9 0  4.254237288135591 2.9 0  4.21694915254237 2.9 0  4.17966101694915 2.9 0  4.14237288135593 2.9 0  4.105084745762709 2.9 0  4.067796610169489 2.9 0  4.030508474576268 2.9 0  3.993220338983048 2.9 0  3.955932203389827 2.9 0  3.918644067796607 2.9 0  3.881355932203387 2.9 0  3.844067796610166 2.9 0  3.806779661016946 2.9 0  3.769491525423725 2.9 0  3.732203389830505 2.9 0  3.694915254237285 2.9 0  3.657627118644065 2.9 0  3.620338983050845 2.9 0  3.583050847457625 2.9 0  3.545762711864405 2.9 0  3.508474576271184 2.9 0  3.471186440677964 2.9 0  3.433898305084744 2.9 0  3.396610169491524 2.9 0  3.359322033898303 2.9 0  3.322033898305083 2.9 0  3.284745762711863 2.9 0  3.247457627118643 2.9 0  3.210169491525423 2.9 0  3.172881355932202 2.9 0  3.135593220338982 2.9 0  3.098305084745762 2.9 0  3.061016949152542 2.9 0  3.023728813559321 2.9 0  2.986440677966101 2.9 0  2.949152542372881 2.9 0  2.911864406779661 2.9 0  2.87457627118644 2.9 0  2.83728813559322 2.9 0  5 0.1063822625082082 0  5 0.210636880010749 0  5 0.3128064053694972 0  5 0.4129325400644018 0  5 0.5110561521032336 0  5 0.6072172918830103 0  5 0.7014552087832795 0  5 0.7938083674443693 0  5 0.88431446261646 0  5 0.9730104359544682 0  5 1.059932489996267 0  5 1.145116102913299 0  5 1.228596043483191 0  5 1.310406385079062 0  5 1.390580519944147 0  5 1.469151172477827 0  5 1.546150411986101 0  5 1.621609666658609 0  5 1.695559736099044 0  5 1.76803080383987 0  5 1.839052450169751 0  5 1.908653663631169 0  5 1.97686285289587 0  5 2.043707858613779 0  5 2.109215964341413 0  5 2.173413907925942 0  5 2.236327892833935 0  5 2.297983597762904 0  5 2.35840618845912 0  5 2.41762032730194 0  5 2.475650183444628 0  5 2.532519442457069 0  5 2.588251316112828 0  5 2.642868552557322 0  5 2.696393444426347 0  5 2.748847838312051 0  5 2.800253144313381 0  5 2.850630344319807 0  0.2631578947368421 0 0  0.5263157894736842 0 0  0.7894736842105263 0 0  1.052631578947368 0 0  1.31578947368421 0 0  1.578947368421053 0 0  1.842105263157895 0 0  2.105263157894737 0 0  2.368421052631579 0 0  2.631578947368421 0 0  2.894736842105263 0 0  3.157894736842105 0 0  3.421052631578947 0 0  3.684210526315789 0 0  3.947368421052632 0 0  4.210526315789473 0 0  4.473684210526315 0 0  4.736842105263158 0 0  0 2.850203682350569 0  0 2.799411438503675 0  0 2.747603349778291 0  0 2.694759099502208 0  0 2.640857964382145 0  0 2.58587880633613 0  0 2.52980006535898 0  0 2.472599749459174 0  0 2.414255427218689 0  0 2.35474421880616 0  0 2.294042786119219 0  0 2.232127324764723 0  0 2.1689735539481 0  0 2.104556707683347 0  0 2.038851524813415 0  0 1.971832238155655 0  0 1.903472565412126 0  0 1.83374569926617 0  0 1.762624296208475 0  0 1.690080464918761 0  0 1.616085756774206 0  0 1.540611154706337 0  0 1.463627060685571 0  0 1.385103284916206 0  0 1.305009033716617 0  0 1.223312897337225 0  0 1.139982838163732 0  0 1.054986177579938 0  0 0.9682895835804817 0  0 0.8798590579197976 0  0 0.7896599218415354 0  0 0.6976568029903638 0  0 0.6038136217958798 0  0 0.508093576867624 0  0 0.4104591310957497 0  0 0.3108719963522191 0  0 0.2092931188294389 0  0 0.1056826638508546 0  1.434832105763824 2.866945754981483 0  1.737156300467626 2.870039440267515 0  2.032203389830508 2.867707527316512 0  2.332911392405064 2.893422591869991 0  2.469810913293406 2.891944186606167 0  2.606221408823969 2.892519154985628 0  2.255455320628894 2.892068685006691 0  2.538247299216212 2.894964578182811 0  2.674683544303798 2.893422591869991 0  2.40126582278481 2.893422591869991 0  3.566125247295424 2.865029336199714 0  3.266101694915253 2.867707527316512 0  2.967796610169491 2.867707527316512 0  1.174288529834642 2.870795313888584 0  3.825423728813556 2.867707527316512 0  2.727766680262011 2.892655387647729 0  0.06601655192030442 1.502119107695954 0  4.933983535508361 1.507650792231964 0  0.9532124728485543 2.868722489783638 0  4.048935912500257 2.870640982995992 0  0.05930163367361763 1.866907161167414 0  4.943402512618553 1.871280731473148 0  4.271733870017743 2.86520865624265 0  0.7249420921613114 2.863922936177041 0  0.05494499779910056 2.196469063120752 0  4.947228695426367 2.208030108792719 0  0.5406152150397161 2.866493807382013 0  4.459322033898304 2.868847558178794 0  2.18135593220339 2.875780645487384 0  2.817027156509632 2.876587550645167 0  4.928427208322876 1.186856073198245 0  0.07189226971603224 1.174626666111662 0  4.610299014423113 2.867003104093161 0  0.3897270066746357 2.869433095314657 0  1.581132500042262 2.868247328632392 0  1.887637879411437 2.869235851794358 0  3.413449426418068 2.867372048034327 0  3.116721298814773 2.865731235547652 0  2.644303797468355 2.893422591869991 0  2.370983221828106 2.892719513369796 0  2.302531645569621 2.893336787387268 0  2.758987341772152 2.894242393897099 0  0.04979653335696277 2.443411216910286 0  4.950470983477169 2.446866954595817 0  2.482937483021586 0.2513241087417575 0  1.707129504814338 0.1999998659920923 0  3.28584657955054 0.229200625631625 0  4.907807122600524 0.834082362900164 0  4.757627118644067 2.867707527316512 0  0.0773489124676745 0.8347594898806663 0  0.2390604736599387 2.861365431805741 0  0.8363213715215729 2.863896768908178 0  4.160865610207075 2.868916854015731 0  1.282549332053297 2.867610952980761 0  1.065094818402487 2.861284686038041 0  3.93818127737282 2.86865134411395 0  3.711492629432973 2.863574306925269 0  4.91369361998929 0.5579891344254361 0  0.08208328472281323 0.5559535993317519 0  2.696596932532885 2.892010483922337 0  0.04706410140274553 2.613055974506516 0  4.955577063972248 2.616518038840186 0  2.234177215189874 2.893422591869991 0  2.279795840559739 2.89403861893984 0  0.9117357887652362 0.2117925286661764 0  4.055948041993057 0.2039101057937727 0  4.872119713780579 2.867632926423075 0  2.780113878992455 2.891535929611743 0  0.1327442468251063 2.85
[...]
<PointData  Vectors="displacement"> 
<DataArray  type="Float64"  Name="displacement"  NumberOfComponents="3" format="ascii">-3.9225253375153438e-02 -5.9396366263614331e-04 0.0000000000000000e+00  0.0000000000000000e+00 -3.0682532579975235e-04 0.0000000000000000e+00  3.8575847769913990e-02 -2.0062970306578484e-03 0.0000000000000000e+00  0.0000000000000000e+00 -3.0683271520016108e-04 0.0000000000000000e+00  0.0000000000000000e+00 0.0000000000000000e+00 0.0000000000000000e+00  0.0000000000000000e+00 0.0000000000000000e+00 0.0000000000000000e+00  -4.4600250695208378e-02 3.6003867577814000e-02 0.0000000000000000e+00  -4.5014051843316763e-02 3.9581047246352932e-02 0.0000000000000000e+00  -4.5119525356223177e-02 4.0868596782638336e-02 0.0000000000000000e+00  -4.5149833362451763e-02 4.1398067928353613e-02 0.0000000000000000e+00  -4.5114066203481996e-02 4.1525213718936818e-02 0.0000000000000000e+00  -4.5052536004874563e-02 4.1393089411462504e-02 0.0000000000000000e+00  -4.4973449292476410e-02 4.0966114677428327e-02 0.0000000000000000e+00  -4.4770944794146034e-02 4.0054592975770242e-02 0.0000000000000000e+00  -4.3824264788027256e-02 3.8555904856364717e-02 0.0000000000000000e+00  -4.1677405052718955e-02 3.6338623500939728e-02 0.0000000000000000e+00  -3.8403900650997941e-02 3.3140933546837281e-02 0.0000000000000000e+00  -3.4353007805604546e-02 2.9210284643730051e-02 0.0000000000000000e+00  -2.9752765696830712e-02 2.4688303529363204e-02 0.0000000000000000e+00  -2.4536001180124160e-02 1.9596572697326290e-02 0.0000000000000000e+00  -1.9368911257807514e-02 1.4560541022694495e-02 0.0000000000000000e+00  -1.4682296631398379e-02 9.9924752473771819e-03 0.0000000000000000e+00  -1.0797942978457801e-02 6.2260124034430415e-03 0.0000000000000000e+00  -7.7868547513603378e-03 3.3307890267262690e-03 0.0000000000000000e+00  -5.6394111381838606e-03 1.3103492591228338e-03 0.0000000000000000e+00  -4.3809962604269706e-03 1.7270971625813869e-04 0.0000000000000000e+00  -3.7282618056797296e-03 -3.5720514348779942e-04 0.0000000000000000e+00  -3.4361762831726845e-03 -5.2253186787941364e-04 0.0000000000000000e+00  -3.2800104037459996e-03 -5.5418233347267023e-04 0.0000000000000000e+00  -3.1425422943793988e-03 -5.6637205235285013e-04 0.0000000000000000e+00  -3.0093049322664264e-03 -5.7394123276270073e-04 0.0000000000000000e+00  -2.8801964510513575e-03 -5.7757383984923135e-04 0.0000000000000000e+00  -2.7551153435387919e-03 -5.7788261044289832e-04 0.0000000000000000e+00  -2.6339317657375983e-03 -5.7538350023791755e-04 0.0000000000000000e+00  -2.5165129468296878e-03 -5.7053188002711096e-04 0.0000000000000000e+00  -2.4026544133444491e-03 -5.6372158746241475e-04 0.0000000000000000e+00  -2.2922236248281358e-03 -5.5529986983932653e-04 0.0000000000000000e+00  -2.1850393106563506e-03 -5.4556478614113928e-04 0.0000000000000000e+00  -2.0809438322990960e-03 -5.3477173584986007e-04 0.0000000000000000e+00  -1.9797460033529899e-03 -5.2316809146759203e-04 0.0000000000000000e+00  -1.8813033746954044e-03 -5.1095424655779207e-04 0.0000000000000000e+00  -1.7854497333347691e-03 -4.9831345878583019e-04 0.0000000000000000e+00  -1.6920213195351509e-03 -4.8541058783075838e-04 0.0000000000000000e+00  -1.6008855163315184e-03 -4.7238253386490799e-04 0.0000000000000000e+00  -1.5118861977528625e-03 -4.5936004028585199e-04 0.0000000000000000e+00  -1.4248886667613126e-03 -4.4645446176814579e-04 0.0000000000000000e+00  -1.3397584699227616e-03 -4.3376429917817421e-04 0.0000000000000000e+00  -1.2563718420935605e-03 -4.2137823826262223e-04 0.0000000000000000e+00  -1.1745978661964048e-03 -4.0937405287262680e-04 0.0000000000000000e+00  -1.0943223623653899e-03 -3.9782001355243696e-04 0.0000000000000000e+00  -1.0154280296965960e-03 -3.8677861341087315e-04 0.0000000000000000e+00  -9.3780690979749029e-04 -3.7630301988662602e-04 0.0000000000000000e+00  -8.6135082386962789e-04 -3.6644033331416462e-04 0.0000000000000000e+00  -7.8595899017798378e-04 -3.5723251956184865e-04 0.0000000000000000e+00  -7.1152855337082844e-04 -3.4871698486998895e-04 0.0000000000000000e+00  -6.3796349726111463e-04 -3.4092562243213676e-04 0.0000000000000000e+00  -5.6517653787037673e-04 -3.3388507344124930e-04 0.0000000000000000e+00  -4.9306157701092010e-04 -3.2761932151928447e-04 0.0000000000000000e+00  -4.2153828118860029e-04 -3.2215184601010649e-04 0.0000000000000000e+00  -3.5052154338578235e-04 -3.1749689673318061e-04 0.0000000000000000e+00  -2.7992589039133606e-04 -3.1366957391563348e-04 0.0000000000000000e+00  -2.0965157246308975e-04 -3.1068052943208072e-04 0.0000000000000000e+00  -1.3962855777808621e-04 -3.0854074254254047e-04 0.0000000000000000e+00  -6.9771918895732772e-05 -3.0725421277436689e-04 0.0000000000000000e+00  2.6781907863084799e-02 -5.3275602332558333e-02 0.0000000000000000e+00  2.7334800021732934e-02 -6.9143848232681354e-02 0.0000000000000000e+00  2.7339114120533213e-02 -7.6270444192689441e-02 0.0000000000000000e+00  2.6801669157331513e-02 -8.0376909585237077e-02 0.0000000000000000e+00  2.6325738555118904e-02 -8.3844738865420765e-02 0.0000000000000000e+00  2.5143613466248556e-02 -8.6239266552930433e-02 0.0000000000000000e+00  2.3984933622245998e-02 -8.8408412195010833e-02 0.0000000000000000e+00  2.3036755644007301e-02 -9.0535547231926722e-02 0.0000000000000000e+00  2.1770578647316383e-02 -9.2153623440348831e-02 0.0000000000000000e+00  2.0658984351427889e-02 -9.3829312795567943e-02 0.0000000000000000e+00  1.9786397056652048e-02 -9.5606508248867281e-02 0.0000000000000000e+00  1.8807742807704964e-02 -9.7161319407414931e-02 0.0000000000000000e+00  1.7773283576747061e-02 -9.8537834752533346e-02 0.0000000000000000e+00  1.6746319970177385e-02 -9.9841740600361800e-02 0.0000000000000000e+00  1.5766905939170156e-02 -1.0111108842994976e-01 0.0000000000000000e+00  1.4822104635949553e-02 -1.0234226420120299e-01 0.0000000000000000e+00  1.3922258383832431e-02 -1.0354216214875822e-01 0.0000000000000000e+00  1.3032162014070970e-02 -1.0468211139460415e-01 0.0000000000000000e+00  1.2138003795073449e-02 -1.0575713797743967e-01 0.0000000000000000e+00  1.1265076377153103e-02 -1.0678690709025841e-01 0.0000000000000000e+00  1.0426434747836858e-02 -1.0778485705599940e-01 0.0000000000000000e+00  9.6179238453739536e-03 -1.0874652678326072e-01 0.0000000000000000e+00  8.8345854847789902e-03 -1.0966413438079575e-01 0.0000000000000000e+00  8.0775304308701602e-03 -1.1053654610994262e-01 0.0000000000000000e+00  7.3537035656668463e-03 -1.1136777591849929e-01 0.0000000000000000e+00  6.6711365801193460e-03 -1.1215617239799830e-01 0.0000000000000000e+00  6.0246403569878884e-03 -1.1289681493869905e-01 0.0000000000000000e+00  5.4112062357009050e-03 -1.1358650197279105e-01 0.0000000000000000e+00  4.8281382788091104e-03 -1.1422672672705099e-01 0.0000000000000000e+00  4.2723237272395079e-03 -1.1481640164743095e-01 0.0000000000000000e+00  3.7401313837460157e-03 -1.1536029803998590e-01 0.0000000000000000e+00  3.2271120462198490e-03 -1.1585647889445048e-01 0.0000000000000000e+00  2.7300449109624175e-03 -1.1629866159694340e-01 0.0000000000000000e+00  2.2501007497693210e-03 -1.1668272699854140e-01 0.0000000000000000e+00  1.7816091331083689e-03 -1.1700393834379146e-01 0.0000000000000000e+00  1.3228851713115539e-03 -1.1726291653093571e-01 0.0000000000000000e+00  8.7224960908475536e-04 -1.1745978734674786e-01 0.0000000000000000e+00  4.2511135699538279e-04 -1.1759479544728685e-01 0.0000000000000000e+00  -1.9262691247517877e-05 -1.1766628653670613e-01 0.0000000000000000e+00  -4.6405586322833679e-04 -1.1767439815021608e-01 0.0000000000000000e+00  -9.0942376708388938e-04 -1.1761664118458520e-01 0.0000000000000000e+00  -1.3602090852687606e-03 -1.1749123633872277e-01 0.0000000000000000e+00  -1.8190004425978814e-03 -1.1729742694220244e-01 0.0000000000000000e+00  -2.2864220616125599e-03 -1.1703863501940978e-01 0.0000000000000000e+00  -2.7651373378305803e-03 -1.1671718676556563e-01 0.0000000000000000e+00  -3.2542988123897866e-03 -1.1633140712156999e-01 0.0000000000000000e+00  -3.7609733310942813e-03 -1.1588734407095920e-01 0.0000000000000000e+00  -4.2896621712590647e-03 -1.1538838877099357e-01 0.0000000000000000e+00  -4.8498671972958228e-03 -1.1484060342932682e-01 0.0000000000000000e+00  -5.4400096087010340e-03 -1.1424308864291488e-01 0.0000000000000000e+00  -6.0599852235155268e-03 -1.1359600292670777e-01 0.0000000000000000e+00  -6.7086878356580112e-03 -1.1290191884492257e-01 0.0000000000000000e+00  -7.3833612776694063e-03 -1.1216430182032060e-01 0.0000000000000000e+00  -8.0827726860251796e-03 -1.1138614900022242e-01 0.0000000000000000e+00  -8.7995767310298997e-03 -1.1056286667608145e-01 0.0000000000000000e+00  -9.5245465516544305e-03 -1.0968077573191286e-01 0.0000000000000000e+00  -1.0258739182915345e-02 -1.0873830082550391e-01 0.0000000000000000e+00  -1.1043238027043645e-02 -1.0777147564695017e-01 0.0000000000000000e+00  -1.1877198260472167e-02 -1.0678370842004284e-01 0.0000000000000000e+00  -1.2761144021789701e-02 -1.0577400465313652e-01 0.0000000000000000e+00  -1.3689286199153940e-02 -1.0473996739747178e-01 0.0000000000000000e+00  -1.4645449299557970e-02 -1.0366740833285702e-01 0.0000000000000000e+00  -1.5612470527214848e-02 -1.0254000560284288e-01 0.0000000000000000e+00  -1.6577115689219588e-02 -1.0133797020681218e-01 0.0000000000000000e+00  -1.7527712751366081e-02 -1.0004578960016436e-01 0.0000000000000000e+00  -1.8480199660986584e-02 -9.8663317200763101e-02 0.0000000000000000e+00  -1.9363919920586194e-02 -9.7123196264304934e-02 0.0000000000000000e+00  -2.0248133111147475e-02 -9.5489598165216488e-02 0.0000000000000000e+00  -2.1228977334912164e-02 -9.3836021332829728e-02 0.0000000000000000e+00  -2.2353840740110334e-02 -9.2185659077836907e-02 0.0000000000000000e+00  -2.3563314990351275e-02 -9.0390004220710252e-02 0.0000000000000000e+00  -2.4596869563050256e-02 -8.8344824759693047e-02 0.0000000000000000e+00  -2.5900139382984935e-02 -8.6222492320542660e-02 0.0000000000000000e+00  -2.6795949283738466e-02 -8.3521434304193759e-02 0.0000000000000000e+00  -2.7341940295338145e-02 -7.9928536037047665e-02 0.0000000000000000e+00  -2.7218551350786987e-02 -7.4504643886579541e-02 0.0000000000000000e+00  -2.7721946268691587e-02 -6.8060422834602674e-02 0.0000000000000000e+00  -2.6986324929254610e-02 -5.4578169988161590e-02 0.0000000000000000e+00  6.9775931793987294e-05 -3.0726315928113369e-04 0.0000000000000000e+00  1.3963426017967823e-04 -3.0854858883388103e-04 0.0000000000000000e+00  2.0965682560211165e-04 -3.1068853741226854e-04 0.0000000000000000e+00  2.7992803877255432e-04 -3.1367519592552382e-04 0.0000000000000000e+00  3.5052941033854681e-04 -3.1750188548601593e-04 0.0000000000000000e+00  4.2155514227196667e-04 -3.2215397996169240e-04 0.0000000000000000e+00  4.9307621301972583e-04 -3.2762009690608438e-04 0.0000000000000000e+00  5.6519115879394288e-04 -3.3388187937080649e-04 0.0000000000000000e+00  6.3798592085582073e-04 -3.4091849324355429e-04 0.0000000000000000e+00  7.1155482259700493e-04 -3.4870513938090205e-04 0.0000000000000000e+00  7.8598933640725704e-04 -3.5721576724296613e-04 0.0000000000000000e+00  8.6138908230540398e-04 -3.6641721727080959e-04 0.0000000000000000e+00  9.3785028996097879e-04 -3.7627270967064455e-04 0.0000000000000000e+00  1.0154776261191560e-03 -3.8674034805768624e-04 0.0000000000000000e+00  1.0943779724258435e-03 -3.9777268930133472e-04 0.0000000000000000e+00  1.1746620397825468e-03 -4.0931585714021660e-04 0.0000000000000000e+00  1.2564425142263767e-03 -4.2130761226665323e-04 0.0000000000000000e+00  1.3398418809153125e-03 -4.3367788245160846e-04 0.0000000000000000e+00  1.4249786683340874e-03 -4.4635164518031509e-04 0.0000000000000000e+00  1.5119847250300487e-03 -4.5923724273357806e-04 0.0000000000000000e+00  1.6009999822576891e-03 -4.7224198707787309e-04 0.0000000000000000e+00  1.6921383336136687e-03 -4.8524505945426874e-04 0.0000000000000000e+00  1.7855709074316621e-03 -4.9812351842153048e-04 0.0000000000000000e+00  1.8814346865574339e-03 -5.1073428713675241e-04 0.0000000000000000e+00  1.9798833168624920e-03 -5.2291577895173828e-04 0.0000000000000000e+00  2.0810746995863503e-03 -5.3448574267249296e-04 0.0000000000000000e+00  2.1851734935141053e-03 -5.4523798526312614e-04 0.0000000000000000e+00  2.2923461341968947e-03 -5.5493950755774036e-04 0.0000000000000000e+00  2.4027577669429039e-03 -5.6332455006607735e-04 0.0000000000000000e+00  2.5165742425171450e-03 -5.7009589146929471e-04 0.0000000000000000e+00  2.6339641759306619e-03 -5.7491362416216556e-04 0.0000000000000000e+00  2.7550885409605014e-03 -5.7738859518730371e-04 0.0000000000000000e+00  2.8801025609766361e-03 -5.7706819585907345e-04 0.0000000000000000e+00  3.0091188183208983e-03 -5.7344203779386902e-04 0.0000000000000000e+00  3.1422713850573721e-03 -5.6589055009595088e-04 0.0000000000000000e+00  3.2796225779595737e-03 -5.5371886934882212e-04 0.0000000000000000e+00  3.4358452265421694e-03 -5.2238238361768379e-04 0.0000000000000000e+00  3.7161976492729085e-03 -3.6750548580392032e-04 0.0000000000000000e+00  4.3366502585066736e-03 1.2740045751190245e-04 0.0000000000000000e+00  5.5900121168149857e-03 1.2550851992462067e-03 0.0000000000000000e+00  7.6298056866511013e-03 3.1790160713178741e-03 0.0000000000000000e+00  1.0669969238357070e-02 6.0797651256217812e-03 0.0000000000000000e+00  1.4525106455073733e-02 9.8303294616327846e-03 0.0000000000000000e+00  1.9104524868005856e-02 1.4298616848378807e-02 0.0000000000000000e+00  2.4188074472403960e-02 1.9257341885122434e-02 0.0000000000000000e+00  2.9243839513621427e-02 2.4225551482741973e-02 0.0000000000000000e+00  3.4000404321503752e-02 2.8829158905243825e-02 0.0000000000000000e+00  3.8172199058295359e-02 3.2910874632272810e-02 0.0000000000000000e+00  4.1313094202101872e-02 3.6114664606024187e-02 0.0000000000000000e+00  4.3594584302122451e-02 3.8294469239540892e-02 0.0000000000000000e+00  4.4521055276692929e-02 3.9822249243319077e-02 0.0000000000000000e+00  4.4653425840674325e-02 4.0744196861999087e-02 0.0000000000000000e+00  4.4721964329365545e-02 4.1113749791640411e-02 0.0000000000000000e+00  4.4784019669897618e-02 4.1133799189775756e-02 0.0000000000000000e+00  4.4815450333202250e-02 4.0901044298442608e-02 0.0000000000000000e+00  4.4812124677165138e-02 4.0333808441298941e-02 0.0000000000000000e+00  4.4768599355134865e-02 3.9305054110439636e-02 0.0000000000000000e+00  4.4301188121571945e-02 3.6418604441498498e-02 0.0000000000000000e+00  0.0000000000000000e+00 -9.4415337205527888e-05 0.0000000000000000e+00  0.0000000000000000e+00 -1.8298417261144073e-04 0.0000000000000000e+00  0.0000000000000000e+00 -2.6602944879688175e-04 0.0000000000000000e+00  0.0000000000000000e+00 -3.4379530142430683e-04 0.0000000000000000e+00  0.0000000000000000e+00 -4.1644234908754104e-04 0.0000000000000000e+00  0.0000000000000000e+00 -4.8407019712884831e-04 0.0000000000000000e+00  0.0000000000000000e+00 -5.4673985567173385e-04 0.0000000000000000e+00  0.0000000000000000e+00 -6.0448197994129459e-04 0.0000000000000000e+00  0.0000000000000000e+00 -6.5727186555054277e-04 0.0000000000000000e+00  0.0000000000000000e+00 -7.0512080776685259e-04 0.0000000000000000e+00  0.0000000000000000e+00 -7.4799180447735988e-04 0.0000000000000000e+00  0.0000000000000000e+00 -7.8586180490571977e-04 0.0000000000000000e+00  0.0000000000000000e+00 -8.1871625523070022e-04 0.0000000000000000e+00  0.0000000000000000e+00 -8.4654354953106296e-04 0.0000000000000000e+00  0.0000000000000000e+00 -8.6934361005877071e-04 0.0000000000000000e+00  0.0000000000000000e+00 -8.8713392731975269e-04 0.0000000000000000e+00  0.0000000000000000e+00 -8.9995759244777102e-04 0.0000000000000000e+00  0.0000000000000000e+00 -9.0787108940096198e-04 0.0000000000000000e+00  0.0000000000000000e+00 -9.1095792602200343e-04 0.0000000000000000e+00  0.0000000000000000e+00 -9.0932309856872162e-04 0.0000000000000000e+00  0.0000000000000000e+00 -9.0310261056594039e-04 0.0000000000000000e+00  0.0000000000000000e+00 -8.9245961407953100e-04 0.0000000000000000e+00  0.0000000000000000e+00 -8.7757912942222974e-04 0.0000000000000000e+00  0.0000000000000000e+00 -8.5868293304151974e-04 0.0000000000000000e+00  0.0000000000000000e+00 -8.3601250312819364e-04 0.0000000000000000e+00  0.0000000000000000e+00 -8.0983912790865212e-04 0.0000000000000000e+00  0.0000000000000000e+00 -7.8045903525168704e-04 0.0000000000000000e+00  0.0000000000000000e+00 -7.4819090630346362e-04 0.0000000000000000e+00  0.0000000000000000e+00 -7.1337403356702949e-04 0.0000000000000000e+00  0.0000000000000000e+00 -6.7636442807161520e-04 0.0000000000000000e+00  0.0000000000000000e+00 -6.3753277270123937e-04 0.0000000000000000e+00  0.0000000000000000e+00 -5.9725784653856680e-04 0.0000000000000000e+00  0.0000000000000000e+00 -5.5592389402095682e-04 0.0000000000000000e+00  0.0000000000000000e+00 -5.1391815900248602e-04 0.0000000000000000e+00  0.0000000000000000e+00 -4.7162369185595112e-04 0.0000000000000000e+00  0.0000000000000000e+00 -4.2941750621969732e-04 0.0000000000000000e+00  0.0000000000000000e+00 -3.8765272951706844e-04 0.0000000000000000e+00  0.0000000000000000e+00 -3.4668519565345346e-04 0.0000000000000000e+00  0.0000000000000000e+00 0.0000000000000000e+00 0.0000000000000000e+00  0.0000000000000000e+00 0.0000000000000000e+00 0.0000000000000000e+00  0.0000000000000000e+00 0.0000000000000000e+00 0.0000000000000000e+00  0.0000000000000000e+00 0.0000000000000000e+00 0.0000000000000000e+00  0.0000000000000000e+00 0.0000000000000000e+00 0.0000000000000000e+00  0.0000000000000000e+00 0.0000000000000000e+00 0.0000000000000000e+00  0.0000000000000000e+00 0.0000000000000000e+00 0.0000000000000000e+00  0.0000000000000000e+00 0.0000000000000000e+00 0.0000000000000000e+00  0.0000000000000000e+00 0.0000000000000000e+00 0.0000000000000000e+00  0.0000000000000000e+00 0.0000000000000000e+00 0.0000000000000000e+00  0.0000000000000000e+00 0.0000000000000000e+00 0.0000000000000000e+00  0.0000000000000000e+00 0.0000000000000000e+00 0.0000000000000000e+00  0.0000000000000000e+00 0.0000000000000000e+00 0.0000000000000000e+00  0.0000000000000000e+00 0.0000000000000000e+00 0.0000000000000000e+00  0.0000000000000000e+00 0.0000000000000000e+00 0.0000000000000000e+00  0.0000000000000000e+00 0.0000000000000000e+00 0.0000000000000000e+00  0.0000000000000000e+00 0.0000000000000000e+00 0.0000000000000000e+00  0.0000000000000000e+00 0.0000000000000000e+00 0.0000000000000000e+00  0.0000000000000000e+00 -3.4702207639112346e-04 0.0000000000000000e+00  0.0000000000000000e+00 -3.8832426225507763e-04 0.0000000000000000e+00  0.0000000000000000e+00 -4.3041614568965336e-04 0.0000000000000000e+00  0.0000000000000000e+00 -4.7291953436133071e-04 0.0000000000000000e+00  0.0000000000000000e+00 -5.1548185968070816e-04 0.0000000000000000e+00  0.0000000000000000e+00 -5.5771579339213223e-04 0.0000000000000000e+00  0.0000000000000000e+00 -5.9923320406716964e-04 0.0000000000000000e+00  0.0000000000000000e+00 -6.3964394751143613e-04 0.0000000000000000e+00  0.0000000000000000e+00 -6.7856058324908470e-04 0.0000000000000000e+00  0.0000000000000000e+00 -7.1560105489304460e-04 0.0000000000000000e+00  0.0000000000000000e+00 -7.5039648333130409e-04 0.0000000000000000e+00  0.0000000000000000e+00 -7.8258887211560821e-04 0.0000000000000000e+00  0.0000000000000000e+00 -8.1184480171529847e-04 0.0000000000000000e+00  0.0000000000000000e+00 -8.3784725041587040e-04 0.0000000000000000e+00  0.0000000000000000e+00 -8.6030389226631528e-04 0.0000000000000000e+00  0.0000000000000000e+00 -8.7895039114683495e-04 0.0000000000000000e+00  0.0000000000000000e+00 -8.9354675203109305e-04 0.0000000000000000e+00  0.0000000000000000e+00 -9.0388359337934085e-04 0.0000000000000000e+00  0.0000000000000000e+00 -9.0977789923742938e-04 0.0000000000000000e+00  0.0000000000000000e+00 -9.1107427430410417e-04 0.0000000000000000e+00  0.0000000000000000e+00 -9.0764772160863930e-04 0.0000000000000000e+00  0.0000000000000000e+00 -8.9939708168044563e-04 0.0000000000000000e+00  0.0000000000000000e+00 -8.8624560895167947e-04 0.0000000000000000e+00  0.0000000000000000e+00 -8.68