<?xml version="1.0"?>
<VTKFile type="UnstructuredGrid"  version="0.1"  >
<UnstructuredGrid>
<Piece  NumberOfPoints="3167" NumberOfCells="6038">
<Points>
<DataArray  type="Float64"  NumberOfComponents="3"  format="ascii">2.2 2.9 0  0 2.9 0  2.8 2.9 0  5 2.9 0  5 0 0  0 0 0  2.16271186440678 2.9 0  2.125423728813559 2.9 0  2.088135593220339 2.9 0  2.050847457627119 2.9 0  2.013559322033898 2.9 0  1.976271186440678 2.9 0  1.938983050847457 2.9 0  1.901694915254237 2.9 0  1.864406779661016 2.9 0  1.827118644067796 2.9 0  1.789830508474575 2.9 0  1.752542372881355 2.9 0  1.715254237288134 2.9 0  1.677966101694914 2.9 0  1.640677966101693 2.9 0  1.603389830508473 2.9 0  1.566101694915253 2.9 0  1.528813559322032 2.9 0  1.491525423728812 2.9 0  1.454237288135591 2.9 0  1.416949152542371 2.9 0  1.37966101694915 2.9 0  1.34237288135593 2.9 0  1.305084745762709 2.9 0  1.267796610169489 2.9 0  1.230508474576268 2.9 0  1.193220338983048 2.9 0  1.155932203389827 2.9 0  1.118644067796607 2.9 0  1.081355932203387 2.9 0  1.044067796610166 2.9 0  1.006779661016946 2.9 0  0.9694915254237257 2.9 0  0.9322033898305055 2.9 0  0.8949152542372856 2.9 0  0.8576271186440652 2.9 0  0.820338983050845 2.9 0  0.783050847457625 2.9 0  0.7457627118644048 2.9 0  0.7084745762711844 2.9 0  0.6711864406779642 2.9 0  0.633898305084744 2.9 0  0.5966101694915238 2.9 0  0.5593220338983036 2.9 0  0.5220338983050834 2.9 0  0.4847457627118632 2.9 0  0.447457627118643 2.9 0  0.4101694915254228 2.9 0  0.3728813559322024 2.9 0  0.3355932203389822 2.9 0  0.2983050847457622 2.9 0  0.2610169491525418 2.9 0  0.2237288135593216 2.9 0  0.1864406779661016 2.9 0  0.1491525423728812 2.9 0  0.1118644067796613 2.9 0  0.07457627118644039 2.9 0  0.03728813559321997 2.9 0  2.792405063291139 2.9 0  2.784810126582279 2.9 0  2.777215189873418 2.9 0  2.769620253164557 2.9 0  2.762025316455697 2.9 0  2.754430379746836 2.9 0  2.746835443037975 2.9 0  2.739240506329114 2.9 0  2.731645569620254 2.9 0  2.724050632911393 2.9 0  2.716455696202532 2.9 0  2.708860759493671 2.9 0  2.701265822784811 2.9 0  2.69367088607595 2.9 0  2.686075949367089 2.9 0  2.678481012658228 2.9 0  2.670886075949368 2.9 0  2.663291139240507 2.9 0  2.655696202531646 2.9 0  2.648101265822786 2.9 0  2.640506329113925 2.9 0  2.632911392405064 2.9 0  2.625316455696203 2.9 0  2.617721518987342 2.9 0  2.610126582278482 2.9 0  2.602531645569621 2.9 0  2.59493670886076 2.9 0  2.587341772151899 2.9 0  2.579746835443038 2.9 0  2.572151898734178 2.9 0  2.564556962025317 2.9 0  2.556962025316456 2.9 0  2.549367088607595 2.9 0  2.541772151898734 2.9 0  2.534177215189874 2.9 0  2.526582278481013 2.9 0  2.518987341772152 2.9 0  2.511392405063292 2.9 0  2.503797468354431 2.9 0  2.49620253164557 2.9 0  2.488607594936709 2.9 0  2.481012658227848 2.9 0  2.473417721518988 2.9 0  2.465822784810127 2.9 0  2.458227848101266 2.9 0  2.450632911392406 2.9 0  2.443037974683545 2.9 0  2.435443037974684 2.9 0  2.427848101265823 2.9 0  2.420253164556962 2.9 0  2.412658227848102 2.9 0  2.405063291139241 2.9 0  2.39746835443038 2.9 0  2.389873417721519 2.9 0  2.382278481012658 2.9 0  2.374683544303798 2.9 0  2.367088607594937 2.9 0  2.359493670886076 2.9 0  2.351898734177215 2.9 0  2.344303797468355 2.9 0  2.336708860759494 2.9 0  2.329113924050633 2.9 0  2.321518987341773 2.9 0  2.313924050632912 2.9 0  2.306329113924051 2.9 0  2.29873417721519 2.9 0  2.291139240506329 2.9 0  2.283544303797469 2.9 0  2.275949367088608 2.9 0  2.268354430379747 2.9 0  2.260759493670887 2.9 0  2.253164556962026 2.9 0  2.245569620253165 2.9 0  2.237974683544304 2.9 0  2.230379746835443 2.9 0  2.222784810126583 2.9 0  2.215189873417722 2.9 0  2.207594936708861 2.9 0  4.96271186440678 2.9 0  4.925423728813559 2.9 0  4.888135593220339 2.9 0  4.850847457627118 2.9 0  4.813559322033898 2.9 0  4.776271186440677 2.9 0  4.738983050847457 2.9 0  4.701694915254237 2.9 0  4.664406779661016 2.9 0  4.627118644067796 2.9 0  4.589830508474575 2.9 0  4.552542372881355 2.9 0  4.515254237288135 2.9 0  4.477966101694914 2.9 0  4.440677966101694 2.9 0  4.403389830508473 2.9 0  4.366101694915252 2.9 0  4.328813559322032 2.9 0  4.291525423728811 2.9 0  4.254237288135591 2.9 0  4.21694915254237 2.9 0  4.17966101694915 2.9 0  4.14237288135593 2.9 0  4.105084745762709 2.9 0  4.067796610169489 2.9 0  4.030508474576268 2.9 0  3.993220338983048 2.9 0  3.955932203389827 2.9 0  3.918644067796607 2.9 0  3.881355932203387 2.9 0  3.844067796610166 2.9 0  3.806779661016946 2.9 0  3.769491525423725 2.9 0  3.732203389830505 2.9 0  3.694915254237285 2.9 0  3.657627118644065 2.9 0  3.620338983050845 2.9 0  3.583050847457625 2.9 0  3.545762711864405 2.9 0  3.508474576271184 2.9 0  3.471186440677964 2.9 0  3.433898305084744 2.9 0  3.396610169491524 2.9 0  3.359322033898303 2.9 0  3.322033898305083 2.9 0  3.284745762711863 2.9 0  3.247457627118643 2.9 0  3.210169491525423 2.9 0  3.172881355932202 2.9 0  3.135593220338982 2.9 0  3.098305084745762 2.9 0  3.061016949152542 2.9 0  3.023728813559321 2.9 0  2.986440677966101 2.9 0  2.949152542372881 2.9 0  2.911864406779661 2.9 0  2.87457627118644 2.9 0  2.83728813559322 2.9 0  5 0.1063822625082082 0  5 0.210636880010749 0  5 0.3128064053694972 0  5 0.4129325400644018 0  5 0.5110561521032336 0  5 0.6072172918830103 0  5 0.7014552087832795 0  5 0.7938083674443693 0  5 0.88431446261646 0  5 0.9730104359544682 0  5 1.059932489996267 0  5 1.145116102913299 0  5 1.228596043483191 0  5 1.310406385079062 0  5 1.390580519944147 0  5 1.469151172477827 0  5 1.546150411986101 0  5 1.621609666658609 0  5 1.695559736099044 0  5 1.76803080383987 0  5 1.839052450169751 0  5 1.908653663631169 0  5 1.97686285289587 0  5 2.043707858613779 0  5 2.109215964341413 0  5 2.173413907925942 0  5 2.236327892833935 0  5 2.297983597762904 0  5 2.35840618845912 0  5 2.41762032730194 0  5 2.475650183444628 0  5 2.532519442457069 0  5 2.588251316112828 0  5 2.642868552557322 0  5 2.696393444426347 0  5 2.748847838312051 0  5 2.800253144313381 0  5 2.850630344319807 0  0.2631578947368421 0 0  0.5263157894736842 0 0  0.7894736842105263 0 0  1.052631578947368 0 0  1.31578947368421 0 0  1.578947368421053 0 0  1.842105263157895 0 0  2.105263157894737 0 0  2.368421052631579 0 0  2.631578947368421 0 0  2.894736842105263 0 0  3.157894736842105 0 0  3.421052631578947 0 0  3.684210526315789 0 0  3.947368421052632 0 0  4.210526315789473 0 0  4.473684210526315 0 0  4.736842105263158 0 0  0 2.850203682350569 0  0 2.799411438503675 0  0 2.747603349778291 0  0 2.694759099502208 0  0 2.640857964382145 0  0 2.58587880633613 0  0 2.52980006535898 0  0 2.472599749459174 0  0 2.414255427218689 0  0 2.35474421880616 0  0 2.294042786119219 0  0 2.232127324764723 0  0 2.1689735539481 0  0 2.104556707683347 0  0 2.038851524813415 0  0 1.971832238155655 0  0 1.903472565412126 0  0 1.83374569926617 0  0 1.762624296208475 0  0 1.690080464918761 0  0 1.616085756774206 0  0 1.540611154706337 0  0 1.463627060685571 0  0 1.385103284916206 0  0 1.305009033716617 0  0 1.223312897337225 0  0 1.139982838163732 0  0 1.054986177579938 0  0 0.9682895835804817 0  0 0.8798590579197976 0  0 0.7896599218415354 0  0 0.6976568029903638 0  0 0.6038136217958798 0  0 0.508093576867624 0  0 0.4104591310957497 0  0 0.3108719963522191 0  0 0.2092931188294389 0  0 0.1056826638508546 0  1.434832105763824 2.866945754981483 0  1.737156300467626 2.870039440267515 0  2.032203389830508 2.867707527316512 0  2.332911392405064 2.893422591869991 0  2.469810913293406 2.891944186606167 0  2.606221408823969 2.892519154985628 0  2.255455320628894 2.892068685006691 0  2.538247299216212 2.894964578182811 0  2.674683544303798 2.893422591869991 0  2.40126582278481 2.893422591869991 0  3.566125247295424 2.865029336199714 0  3.266101694915253 2.867707527316512 0  2.967796610169491 2.867707527316512 0  1.174288529834642 2.870795313888584 0  3.825423728813556 2.867707527316512 0  2.727766680262011 2.892655387647729 0  0.06601655192030442 1.502119107695954 0  4.933983535508361 1.507650792231964 0  0.9532124728485543 2.868722489783638 0  4.048935912500257 2.870640982995992 0  0.05930163367361763 1.866907161167414 0  4.943402512618553 1.871280731473148 0  4.271733870017743 2.86520865624265 0  0.7249420921613114 2.863922936177041 0  0.05494499779910056 2.196469063120752 0  4.947228695426367 2.208030108792719 0  0.5406152150397161 2.866493807382013 0  4.459322033898304 2.868847558178794 0  2.18135593220339 2.875780645487384 0  2.817027156509632 2.876587550645167 0  4.928427208322876 1.186856073198245 0  0.07189226971603224 1.174626666111662 0  4.610299014423113 2.867003104093161 0  0.3897270066746357 2.869433095314657 0  1.581132500042262 2.868247328632392 0  1.887637879411437 2.869235851794358 0  3.413449426418068 2.867372048034327 0  3.116721298814773 2.865731235547652 0  2.644303797468355 2.893422591869991 0  2.370983221828106 2.892719513369796 0  2.302531645569621 2.893336787387268 0  2.758987341772152 2.894242393897099 0  0.04979653335696277 2.443411216910286 0  4.950470983477169 2.446866954595817 0  2.482937483021586 0.2513241087417575 0  1.707129504814338 0.1999998659920923 0  3.28584657955054 0.229200625631625 0  4.907807122600524 0.834082362900164 0  4.757627118644067 2.867707527316512 0  0.0773489124676745 0.8347594898806663 0  0.2390604736599387 2.861365431805741 0  0.8363213715215729 2.863896768908178 0  4.160865610207075 2.868916854015731 0  1.282549332053297 2.867610952980761 0  1.065094818402487 2.861284686038041 0  3.93818127737282 2.86865134411395 0  3.711492629432973 2.863574306925269 0  4.91369361998929 0.5579891344254361 0  0.08208328472281323 0.5559535993317519 0  2.696596932532885 2.892010483922337 0  0.04706410140274553 2.613055974506516 0  4.955577063972248 2.616518038840186 0  2.234177215189874 2.893422591869991 0  2.279795840559739 2.89403861893984 0  0.9117357887652362 0.2117925286661764 0  4.055948041993057 0.2039101057937727 0  4.872119713780579 2.867632926423075 0  2.780113878992455 2.891535929611743 0  0.1327442468251063 2.85
[...]
<PointData  Vectors="displacement"> 
<DataArray  type="Float64"  Name="displacement"  NumberOfComponents="3" format="ascii">-1.6207232806556660e-01 -4.4762888366167448e-03 0.0000000000000000e+00  0.0000000000000000e+00 -2.4479499331193932e-04 0.0000000000000000e+00  1.6115047567057125e-01 -7.8740406280371107e-03 0.0000000000000000e+00  0.0000000000000000e+00 -2.4505362292306221e-04 0.0000000000000000e+00  0.0000000000000000e+00 0.0000000000000000e+00 0.0000000000000000e+00  0.0000000000000000e+00 0.0000000000000000e+00 0.0000000000000000e+00  -1.9312221081558409e-01 1.5874260867726836e-01 0.0000000000000000e+00  -1.9821160136977661e-01 1.8890475970149032e-01 0.0000000000000000e+00  -2.0033487607554235e-01 2.0277933443053806e-01 0.0000000000000000e+00  -2.0163413999454680e-01 2.0955327494830109e-01 0.0000000000000000e+00  -2.0221476097880930e-01 2.1196933113885816e-01 0.0000000000000000e+00  -2.0247377844199674e-01 2.1164263154521634e-01 0.0000000000000000e+00  -2.0261994577560069e-01 2.0861460362363668e-01 0.0000000000000000e+00  -2.0226918596990232e-01 2.0247226719908398e-01 0.0000000000000000e+00  -1.9875144374498921e-01 1.9378745403916783e-01 0.0000000000000000e+00  -1.8996806490245977e-01 1.8321010501799972e-01 0.0000000000000000e+00  -1.7733643078480787e-01 1.7012201714539424e-01 0.0000000000000000e+00  -1.6259953329646648e-01 1.5536689123138089e-01 0.0000000000000000e+00  -1.4666235152113302e-01 1.3953492578938428e-01 0.0000000000000000e+00  -1.2975719402416094e-01 1.2285076907067041e-01 0.0000000000000000e+00  -1.1265962654445393e-01 1.0618029357141563e-01 0.0000000000000000e+00  -9.5932143875811837e-02 8.9755442530077736e-02 0.0000000000000000e+00  -7.9908669300195884e-02 7.4131678151023020e-02 0.0000000000000000e+00  -6.4941753391060827e-02 5.9526277688899593e-02 0.0000000000000000e+00  -5.1206474969875522e-02 4.6101728355918317e-02 0.0000000000000000e+00  -3.8861337690218753e-02 3.4093058583577890e-02 0.0000000000000000e+00  -2.8318347929881818e-02 2.3772714571626670e-02 0.0000000000000000e+00  -1.9727983391072151e-02 1.5363506771174811e-02 0.0000000000000000e+00  -1.3236163355780345e-02 9.0701577898770862e-03 0.0000000000000000e+00  -8.5118160211422426e-03 4.4783149376512949e-03 0.0000000000000000e+00  -5.7889539756479161e-03 1.8661009696095275e-03 0.0000000000000000e+00  -4.2207090211297833e-03 4.6115244311726157e-04 0.0000000000000000e+00  -3.5424230831369008e-03 -9.2309011906447806e-05 0.0000000000000000e+00  -3.2039277863096503e-03 -3.0007073928119040e-04 0.0000000000000000e+00  -3.0497957500887213e-03 -3.2969271687669567e-04 0.0000000000000000e+00  -2.9129391100141283e-03 -3.4272122998727276e-04 0.0000000000000000e+00  -2.7795944496431762e-03 -3.5197712216175143e-04 0.0000000000000000e+00  -2.6499254292009699e-03 -3.5792194868309685e-04 0.0000000000000000e+00  -2.5238486886119535e-03 -3.6109606835504074e-04 0.0000000000000000e+00  -2.4011966922063439e-03 -3.6198313956809614e-04 0.0000000000000000e+00  -2.2818201668758455e-03 -3.6096081123088147e-04 0.0000000000000000e+00  -2.1655439487030695e-03 -3.5836695023640458e-04 0.0000000000000000e+00  -2.0521856012468637e-03 -3.5449631818670673e-04 0.0000000000000000e+00  -1.9415945191505932e-03 -3.4959391144936936e-04 0.0000000000000000e+00  -1.8335909287756750e-03 -3.4388777937679213e-04 0.0000000000000000e+00  -1.7280165073746377e-03 -3.3757214915408927e-04 0.0000000000000000e+00  -1.6247120902706646e-03 -3.3081795043207946e-04 0.0000000000000000e+00  -1.5235297414305348e-03 -3.2377765575608244e-04 0.0000000000000000e+00  -1.4243120293907805e-03 -3.1658508463130330e-04 0.0000000000000000e+00  -1.3269210715754853e-03 -3.0935708187470050e-04 0.0000000000000000e+00  -1.2312145832822847e-03 -3.0219984086765498e-04 0.0000000000000000e+00  -1.1370612562933802e-03 -2.9520415316126891e-04 0.0000000000000000e+00  -1.0443293392240044e-03 -2.8845040465831412e-04 0.0000000000000000e+00  -9.5289583911308331e-04 -2.8200969454104328e-04 0.0000000000000000e+00  -8.6263527752497636e-04 -2.7594523732797730e-04 0.0000000000000000e+00  -7.7343035598022335e-04 -2.7031107542020510e-04 0.0000000000000000e+00  -6.8517453842847637e-04 -2.6515287103663746e-04 0.0000000000000000e+00  -5.9773818323190469e-04 -2.6051154636433940e-04 0.0000000000000000e+00  -5.1102332086352660e-04 -2.5642521868311763e-04 0.0000000000000000e+00  -4.2492595794302296e-04 -2.5291932448347389e-04 0.0000000000000000e+00  -3.3934194344732038e-04 -2.5001912455181437e-04 0.0000000000000000e+00  -2.5414958641242302e-04 -2.4774313217998053e-04 0.0000000000000000e+00  -1.6926350678065906e-04 -2.4610868419131871e-04 0.0000000000000000e+00  -8.4580149151452290e-05 -2.4512361943005611e-04 0.0000000000000000e+00  1.2438859012981632e-01 -1.6311881571968934e-01 0.0000000000000000e+00  1.2247009423634238e-01 -2.2804944591564927e-01 0.0000000000000000e+00  1.2056775298442776e-01 -2.6594120544283884e-01 0.0000000000000000e+00  1.1722148047991084e-01 -2.9261485051644143e-01 0.0000000000000000e+00  1.1406852062111747e-01 -3.1393656362101691e-01 0.0000000000000000e+00  1.0898919167211382e-01 -3.3037235848575458e-01 0.0000000000000000e+00  1.0416242269230158e-01 -3.4520434955474505e-01 0.0000000000000000e+00  1.0024623953081406e-01 -3.5871264768982691e-01 0.0000000000000000e+00  9.5695364885368964e-02 -3.7016881072252195e-01 0.0000000000000000e+00  9.1455457851632255e-02 -3.8077728929323545e-01 0.0000000000000000e+00  8.7643698390171443e-02 -3.9073497134892360e-01 0.0000000000000000e+00  8.3703926778208607e-02 -3.9966047755939349e-01 0.0000000000000000e+00  7.9840595588094004e-02 -4.0784111584432242e-01 0.0000000000000000e+00  7.6110171563166892e-02 -4.1553393192539534e-01 0.0000000000000000e+00  7.2631443560957409e-02 -4.2285406707106782e-01 0.0000000000000000e+00  6.9241433201623917e-02 -4.2971129009379505e-01 0.0000000000000000e+00  6.5842857184187920e-02 -4.3603576464318411e-01 0.0000000000000000e+00  6.2468932344667931e-02 -4.4192588955690637e-01 0.0000000000000000e+00  5.9129317739052861e-02 -4.4744586338039988e-01 0.0000000000000000e+00  5.5872463849808922e-02 -4.5264678605475317e-01 0.0000000000000000e+00  5.2693839338660974e-02 -4.5754182374997976e-01 0.0000000000000000e+00  4.9564510597822437e-02 -4.6214107072535693e-01 0.0000000000000000e+00  4.6505086851807681e-02 -4.6645883877909428e-01 0.0000000000000000e+00  4.3495685951788571e-02 -4.7049497887028496e-01 0.0000000000000000e+00  4.0529635895333600e-02 -4.7425661313630924e-01 0.0000000000000000e+00  3.7628047194153434e-02 -4.7776052243181599e-01 0.0000000000000000e+00  3.4761887358482971e-02 -4.8101577190552064e-01 0.0000000000000000e+00  3.1948849091594907e-02 -4.8401737298669989e-01 0.0000000000000000e+00  2.9174474797962605e-02 -4.8676098114095190e-01 0.0000000000000000e+00  2.6437016275203243e-02 -4.8924136475807800e-01 0.0000000000000000e+00  2.3724316025947458e-02 -4.9147630467419462e-01 0.0000000000000000e+00  2.1020223540412889e-02 -4.9346839859334501e-01 0.0000000000000000e+00  1.8307077705575818e-02 -4.9520476604370128e-01 0.0000000000000000e+00  1.5596719076193463e-02 -4.9668380996672179e-01 0.0000000000000000e+00  1.2873577241103655e-02 -4.9790160592216215e-01 0.0000000000000000e+00  1.0145982092627206e-02 -4.9886797549379497e-01 0.0000000000000000e+00  7.4174572568772319e-03 -4.9958753942012285e-01 0.0000000000000000e+00  4.6860973411263574e-03 -5.0006234831513707e-01 0.0000000000000000e+00  1.9548522114347855e-03 -5.0029006746705307e-01 0.0000000000000000e+00  -7.7692528482193690e-04 -5.0026871095818182e-01 0.0000000000000000e+00  -3.5077414908364539e-03 -5.0000064412507306e-01 0.0000000000000000e+00  -6.2396193945038160e-03 -4.9948404099900484e-01 0.0000000000000000e+00  -8.9712354208942580e-03 -4.9872167405912493e-01 0.0000000000000000e+00  -1.1699230090483450e-02 -4.9772160723417702e-01 0.0000000000000000e+00  -1.4435464496565489e-02 -4.9649165570213694e-01 0.0000000000000000e+00  -1.7182337999413714e-02 -4.9501894145168934e-01 0.0000000000000000e+00  -1.9941461433802127e-02 -4.9330077038320302e-01 0.0000000000000000e+00  -2.2706746598743947e-02 -4.9132993624071508e-01 0.0000000000000000e+00  -2.5481831420866494e-02 -4.8910457681179459e-01 0.0000000000000000e+00  -2.8271265737624361e-02 -4.8662399466595363e-01 0.0000000000000000e+00  -3.1088360832442735e-02 -4.8389615623182858e-01 0.0000000000000000e+00  -3.3925652754471944e-02 -4.8091242977080390e-01 0.0000000000000000e+00  -3.6792958337596000e-02 -4.7766787152778512e-01 0.0000000000000000e+00  -3.9703322055477039e-02 -4.7417690640824217e-01 0.0000000000000000e+00  -4.2655846643855320e-02 -4.7042987134182512e-01 0.0000000000000000e+00  -4.5641265953334342e-02 -4.6639902328712163e-01 0.0000000000000000e+00  -4.8660145461755525e-02 -4.6205222417744696e-01 0.0000000000000000e+00  -5.1735647089785314e-02 -4.5742616921251694e-01 0.0000000000000000e+00  -5.4887027229643982e-02 -4.5251486991655449e-01 0.0000000000000000e+00  -5.8143497931065470e-02 -4.4730092522173120e-01 0.0000000000000000e+00  -6.1480878393317687e-02 -4.4177827843844725e-01 0.0000000000000000e+00  -6.4893829991623020e-02 -4.3590212987947741e-01 0.0000000000000000e+00  -6.8402474033448374e-02 -4.2966990398738253e-01 0.0000000000000000e+00  -7.1913872539636173e-02 -4.2294179966226531e-01 0.0000000000000000e+00  -7.5431276144115655e-02 -4.1565871891445533e-01 0.0000000000000000e+00  -7.9162909825670771e-02 -4.0797139131593463e-01 0.0000000000000000e+00  -8.2904507423350857e-02 -3.9961552826559910e-01 0.0000000000000000e+00  -8.6748668294647960e-02 -3.9063656223817522e-01 0.0000000000000000e+00  -9.0800888618331688e-02 -3.8095964566178742e-01 0.0000000000000000e+00  -9.5041233649606316e-02 -3.7041826701615671e-01 0.0000000000000000e+00  -9.9708004456206076e-02 -3.5889575243177507e-01 0.0000000000000000e+00  -1.0382229400237618e-01 -3.4565655611624641e-01 0.0000000000000000e+00  -1.0797591463388118e-01 -3.3068849116749538e-01 0.0000000000000000e+00  -1.1164288367332673e-01 -3.1251513672059811e-01 0.0000000000000000e+00  -1.1557339474583576e-01 -2.9094947820477784e-01 0.0000000000000000e+00  -1.1859982030726314e-01 -2.6213067453519961e-01 0.0000000000000000e+00  -1.2326220802281927e-01 -2.2660797405544941e-01 0.0000000000000000e+00  -1.2609774753457037e-01 -1.6464782831857988e-01 0.0000000000000000e+00  8.4535115564112170e-05 -2.4538516286091170e-04 0.0000000000000000e+00  1.6917051514174779e-04 -2.4637207324363915e-04 0.0000000000000000e+00  2.5400582682729523e-04 -2.4801204897616116e-04 0.0000000000000000e+00  3.3914379562526947e-04 -2.5029272869807643e-04 0.0000000000000000e+00  4.2468375157083023e-04 -2.5320189741472759e-04 0.0000000000000000e+00  5.1074029765209132e-04 -2.5671634450277146e-04 0.0000000000000000e+00  5.9740013386965212e-04 -2.6081576401822744e-04 0.0000000000000000e+00  6.8478333435199922e-04 -2.6546957931088003e-04 0.0000000000000000e+00  7.7299474096523388e-04 -2.7064289601531666e-04 0.0000000000000000e+00  8.6214945208666041e-04 -2.7629422555093829e-04 0.0000000000000000e+00  9.5235914366845144e-04 -2.8237883082223118e-04 0.0000000000000000e+00  1.0437454496469471e-03 -2.8884129839104025e-04 0.0000000000000000e+00  1.1364259102562932e-03 -2.9561956253500008e-04 0.0000000000000000e+00  1.2305282742806913e-03 -3.0264284336154997e-04 0.0000000000000000e+00  1.3261829527940262e-03 -3.0983076792383702e-04 0.0000000000000000e+00  1.4235248394028567e-03 -3.1709193479142220e-04 0.0000000000000000e+00  1.5226911555640012e-03 -3.2432118302077397e-04 0.0000000000000000e+00  1.6238304732947514e-03 -3.3139925830472967e-04 0.0000000000000000e+00  1.7270861995542647e-03 -3.3819662134690109e-04 0.0000000000000000e+00  1.8326175368757831e-03 -3.4455735810717309e-04 0.0000000000000000e+00  1.9405921965649654e-03 -3.5031749564508243e-04 0.0000000000000000e+00  2.0511451857710855e-03 -3.5527286148067885e-04 0.0000000000000000e+00  2.1644800157830401e-03 -3.5920333866738005e-04 0.0000000000000000e+00  2.2807561678677723e-03 -3.6185454584593756e-04 0.0000000000000000e+00  2.4001518747520899e-03 -3.6293350976806941e-04 0.0000000000000000e+00  2.5228472340937591e-03 -3.6210082033760966e-04 0.0000000000000000e+00  2.6490259105995590e-03 -3.5895700911656940e-04 0.0000000000000000e+00  2.7788618897879856e-03 -3.5302362726032213e-04 0.0000000000000000e+00  2.9124952409067288e-03 -3.4372355766016017e-04 0.0000000000000000e+00  3.0499826990474572e-03 -3.3050871321339793e-04 0.0000000000000000e+00  3.2140834829095938e-03 -2.9111832449321429e-04 0.0000000000000000e+00  3.5758719874946924e-03 -5.8475507567346305e-05 0.0000000000000000e+00  4.3636445151077913e-03 6.0042103244264760e-04 0.0000000000000000e+00  6.0778708972614795e-03 2.1839690216290740e-03 0.0000000000000000e+00  9.0203773524407740e-03 4.9990142830490230e-03 0.0000000000000000e+00  1.3821816434266929e-02 9.6351710147090722e-03 0.0000000000000000e+00  2.0328699744529197e-02 1.5979315180567430e-02 0.0000000000000000e+00  2.8867310673006952e-02 2.4287696791628829e-02 0.0000000000000000e+00  3.9507844477586124e-02 3.4638269570515322e-02 0.0000000000000000e+00  5.1787286468233787e-02 4.6671029795214335e-02 0.0000000000000000e+00  6.5590212237402370e-02 6.0116433361255439e-02 0.0000000000000000e+00  8.0648405626089617e-02 7.4781292474126917e-02 0.0000000000000000e+00  9.6461050572168319e-02 9.0234640952550293e-02 0.0000000000000000e+00  1.1309101462032552e-01 1.0647380657995344e-01 0.0000000000000000e+00  1.3004707379997391e-01 1.2318227553968486e-01 0.0000000000000000e+00  1.4681267687969204e-01 1.3967836860570998e-01 0.0000000000000000e+00  1.6299342153855112e-01 1.5568212816503957e-01 0.0000000000000000e+00  1.7805293330267788e-01 1.7078666908641768e-01 0.0000000000000000e+00  1.9025670040126125e-01 1.8376476809968101e-01 0.0000000000000000e+00  1.9936638776067486e-01 1.9431553130703733e-01 0.0000000000000000e+00  2.0297512382141938e-01 2.0299325121754125e-01 0.0000000000000000e+00  2.0307611271153983e-01 2.0940294729332645e-01 0.0000000000000000e+00  2.0287580841266359e-01 2.1232887677821824e-01 0.0000000000000000e+00  2.0267578213214762e-01 2.1222356231467474e-01 0.0000000000000000e+00  2.0204162507409162e-01 2.0933607832183387e-01 0.0000000000000000e+00  2.0100124236905656e-01 2.0261247196506030e-01 0.0000000000000000e+00  1.9924667759954101e-01 1.9001184399002208e-01 0.0000000000000000e+00  1.9372997810051953e-01 1.6007897921596997e-01 0.0000000000000000e+00  0.0000000000000000e+00 -1.0059430656201562e-04 0.0000000000000000e+00  0.0000000000000000e+00 -1.9466428185852520e-04 0.0000000000000000e+00  0.0000000000000000e+00 -2.8258301085292423e-04 0.0000000000000000e+00  0.0000000000000000e+00 -3.6464339930401064e-04 0.0000000000000000e+00  0.0000000000000000e+00 -4.4105135171168330e-04 0.0000000000000000e+00  0.0000000000000000e+00 -5.1194885402469745e-04 0.0000000000000000e+00  0.0000000000000000e+00 -5.7743518498512374e-04 0.0000000000000000e+00  0.0000000000000000e+00 -6.3757581225713897e-04 0.0000000000000000e+00  0.0000000000000000e+00 -6.9238025387132385e-04 0.0000000000000000e+00  0.0000000000000000e+00 -7.4188752320076005e-04 0.0000000000000000e+00  0.0000000000000000e+00 -7.8608870452421674e-04 0.0000000000000000e+00  0.0000000000000000e+00 -8.2498483491050647e-04 0.0000000000000000e+00  0.0000000000000000e+00 -8.5858119699864848e-04 0.0000000000000000e+00  0.0000000000000000e+00 -8.8688257915194577e-04 0.0000000000000000e+00  0.0000000000000000e+00 -9.0990052746266106e-04 0.0000000000000000e+00  0.0000000000000000e+00 -9.2765851120077771e-04 0.0000000000000000e+00  0.0000000000000000e+00 -9.4019863995796688e-04 0.0000000000000000e+00  0.0000000000000000e+00 -9.4757101675500550e-04 0.0000000000000000e+00  0.0000000000000000e+00 -9.4984611765014197e-04 0.0000000000000000e+00  0.0000000000000000e+00 -9.4710988246013948e-04 0.0000000000000000e+00  0.0000000000000000e+00 -9.3947366762752631e-04 0.0000000000000000e+00  0.0000000000000000e+00 -9.2707229032016160e-04 0.0000000000000000e+00  0.0000000000000000e+00 -9.1005929429090735e-04 0.0000000000000000e+00  0.0000000000000000e+00 -8.8862564130186771e-04 0.0000000000000000e+00  0.0000000000000000e+00 -8.6298132845572515e-04 0.0000000000000000e+00  0.0000000000000000e+00 -8.3336919196514553e-04 0.0000000000000000e+00  0.0000000000000000e+00 -8.0006399731559171e-04 0.0000000000000000e+00  0.0000000000000000e+00 -7.6336742534845322e-04 0.0000000000000000e+00  0.0000000000000000e+00 -7.2361122960517383e-04 0.0000000000000000e+00  0.0000000000000000e+00 -6.8115319573977204e-04 0.0000000000000000e+00  0.0000000000000000e+00 -6.3637601825719298e-04 0.0000000000000000e+00  0.0000000000000000e+00 -5.8968140627208259e-04 0.0000000000000000e+00  0.0000000000000000e+00 -5.4148716553110716e-04 0.0000000000000000e+00  0.0000000000000000e+00 -4.9222460273246559e-04 0.0000000000000000e+00  0.0000000000000000e+00 -4.4233057444352877e-04 0.0000000000000000e+00  0.0000000000000000e+00 -3.9224481158807922e-04 0.0000000000000000e+00  0.0000000000000000e+00 -3.4238826308125307e-04 0.0000000000000000e+00  0.0000000000000000e+00 -2.9319300980576180e-04 0.0000000000000000e+00  0.0000000000000000e+00 0.0000000000000000e+00 0.0000000000000000e+00  0.0000000000000000e+00 0.0000000000000000e+00 0.0000000000000000e+00  0.0000000000000000e+00 0.0000000000000000e+00 0.0000000000000000e+00  0.0000000000000000e+00 0.0000000000000000e+00 0.0000000000000000e+00  0.0000000000000000e+00 0.0000000000000000e+00 0.0000000000000000e+00  0.0000000000000000e+00 0.0000000000000000e+00 0.0000000000000000e+00  0.0000000000000000e+00 0.0000000000000000e+00 0.0000000000000000e+00  0.0000000000000000e+00 0.0000000000000000e+00 0.0000000000000000e+00  0.0000000000000000e+00 0.0000000000000000e+00 0.0000000000000000e+00  0.0000000000000000e+00 0.0000000000000000e+00 0.0000000000000000e+00  0.0000000000000000e+00 0.0000000000000000e+00 0.0000000000000000e+00  0.0000000000000000e+00 0.0000000000000000e+00 0.0000000000000000e+00  0.0000000000000000e+00 0.0000000000000000e+00 0.0000000000000000e+00  0.0000000000000000e+00 0.0000000000000000e+00 0.0000000000000000e+00  0.0000000000000000e+00 0.0000000000000000e+00 0.0000000000000000e+00  0.0000000000000000e+00 0.0000000000000000e+00 0.0000000000000000e+00  0.0000000000000000e+00 0.0000000000000000e+00 0.0000000000000000e+00  0.0000000000000000e+00 0.0000000000000000e+00 0.0000000000000000e+00  0.0000000000000000e+00 -2.9337662704267606e-04 0.0000000000000000e+00  0.0000000000000000e+00 -3.4299622998629025e-04 0.0000000000000000e+00  0.0000000000000000e+00 -3.9326110753895620e-04 0.0000000000000000e+00  0.0000000000000000e+00 -4.4371280628976648e-04 0.0000000000000000e+00  0.0000000000000000e+00 -4.9393106084039985e-04 0.0000000000000000e+00  0.0000000000000000e+00 -5.4346462316075099e-04 0.0000000000000000e+00  0.0000000000000000e+00 -5.9187148781773564e-04 0.0000000000000000e+00  0.0000000000000000e+00 -6.3871767583648575e-04 0.0000000000000000e+00  0.0000000000000000e+00 -6.8358267696266145e-04 0.0000000000000000e+00  0.0000000000000000e+00 -7.2606263294857721e-04 0.0000000000000000e+00  0.0000000000000000e+00 -7.6577750324311887e-04 0.0000000000000000e+00  0.0000000000000000e+00 -8.0237006033502935e-04 0.0000000000000000e+00  0.0000000000000000e+00 -8.3551503268124475e-04 0.0000000000000000e+00  0.0000000000000000e+00 -8.6491394348074322e-04 0.0000000000000000e+00  0.0000000000000000e+00 -8.9029867073378934e-04 0.0000000000000000e+00  0.0000000000000000e+00 -9.1143527892807751e-04 0.0000000000000000e+00  0.0000000000000000e+00 -9.2811589150068976e-04 0.0000000000000000e+00  0.0000000000000000e+00 -9.4016357782796944e-04 0.0000000000000000e+00  0.0000000000000000e+00 -9.4742867508870688e-04 0.0000000000000000e+00  0.0000000000000000e+00 -9.4978508377291490e-04 0.0000000000000000e+00  0.0000000000000000e+00 -9.4713283236908918e-04 0.0000000000000000e+00  0.0000000000000000e+00 -9.3939042792141761e-04 0.0000000000000000e+00  0.0000000000000000e+00 -9.2649469211924444e-04 0.0000000000000000e+00  0.0000000000000000e+00 -9.084004512522746