<?xml version="1.0"?>
<VTKFile type="UnstructuredGrid"  version="0.1"  >
<UnstructuredGrid>
<Piece  NumberOfPoints="3167" NumberOfCells="6038">
<Points>
<DataArray  type="Float64"  NumberOfComponents="3"  format="ascii">2.2 2.9 0  0 2.9 0  2.8 2.9 0  5 2.9 0  5 0 0  0 0 0  2.16271186440678 2.9 0  2.125423728813559 2.9 0  2.088135593220339 2.9 0  2.050847457627119 2.9 0  2.013559322033898 2.9 0  1.976271186440678 2.9 0  1.938983050847457 2.9 0  1.901694915254237 2.9 0  1.864406779661016 2.9 0  1.827118644067796 2.9 0  1.789830508474575 2.9 0  1.752542372881355 2.9 0  1.715254237288134 2.9 0  1.677966101694914 2.9 0  1.640677966101693 2.9 0  1.603389830508473 2.9 0  1.566101694915253 2.9 0  1.528813559322032 2.9 0  1.491525423728812 2.9 0  1.454237288135591 2.9 0  1.416949152542371 2.9 0  1.37966101694915 2.9 0  1.34237288135593 2.9 0  1.305084745762709 2.9 0  1.267796610169489 2.9 0  1.230508474576268 2.9 0  1.193220338983048 2.9 0  1.155932203389827 2.9 0  1.118644067796607 2.9 0  1.081355932203387 2.9 0  1.044067796610166 2.9 0  1.006779661016946 2.9 0  0.9694915254237257 2.9 0  0.9322033898305055 2.9 0  0.8949152542372856 2.9 0  0.8576271186440652 2.9 0  0.820338983050845 2.9 0  0.783050847457625 2.9 0  0.7457627118644048 2.9 0  0.7084745762711844 2.9 0  0.6711864406779642 2.9 0  0.633898305084744 2.9 0  0.5966101694915238 2.9 0  0.5593220338983036 2.9 0  0.5220338983050834 2.9 0  0.4847457627118632 2.9 0  0.447457627118643 2.9 0  0.4101694915254228 2.9 0  0.3728813559322024 2.9 0  0.3355932203389822 2.9 0  0.2983050847457622 2.9 0  0.2610169491525418 2.9 0  0.2237288135593216 2.9 0  0.1864406779661016 2.9 0  0.1491525423728812 2.9 0  0.1118644067796613 2.9 0  0.07457627118644039 2.9 0  0.03728813559321997 2.9 0  2.792405063291139 2.9 0  2.784810126582279 2.9 0  2.777215189873418 2.9 0  2.769620253164557 2.9 0  2.762025316455697 2.9 0  2.754430379746836 2.9 0  2.746835443037975 2.9 0  2.739240506329114 2.9 0  2.731645569620254 2.9 0  2.724050632911393 2.9 0  2.716455696202532 2.9 0  2.708860759493671 2.9 0  2.701265822784811 2.9 0  2.69367088607595 2.9 0  2.686075949367089 2.9 0  2.678481012658228 2.9 0  2.670886075949368 2.9 0  2.663291139240507 2.9 0  2.655696202531646 2.9 0  2.648101265822786 2.9 0  2.640506329113925 2.9 0  2.632911392405064 2.9 0  2.625316455696203 2.9 0  2.617721518987342 2.9 0  2.610126582278482 2.9 0  2.602531645569621 2.9 0  2.59493670886076 2.9 0  2.587341772151899 2.9 0  2.579746835443038 2.9 0  2.572151898734178 2.9 0  2.564556962025317 2.9 0  2.556962025316456 2.9 0  2.549367088607595 2.9 0  2.541772151898734 2.9 0  2.534177215189874 2.9 0  2.526582278481013 2.9 0  2.518987341772152 2.9 0  2.511392405063292 2.9 0  2.503797468354431 2.9 0  2.49620253164557 2.9 0  2.488607594936709 2.9 0  2.481012658227848 2.9 0  2.473417721518988 2.9 0  2.465822784810127 2.9 0  2.458227848101266 2.9 0  2.450632911392406 2.9 0  2.443037974683545 2.9 0  2.435443037974684 2.9 0  2.427848101265823 2.9 0  2.420253164556962 2.9 0  2.412658227848102 2.9 0  2.405063291139241 2.9 0  2.39746835443038 2.9 0  2.389873417721519 2.9 0  2.382278481012658 2.9 0  2.374683544303798 2.9 0  2.367088607594937 2.9 0  2.359493670886076 2.9 0  2.351898734177215 2.9 0  2.344303797468355 2.9 0  2.336708860759494 2.9 0  2.329113924050633 2.9 0  2.321518987341773 2.9 0  2.313924050632912 2.9 0  2.306329113924051 2.9 0  2.29873417721519 2.9 0  2.291139240506329 2.9 0  2.283544303797469 2.9 0  2.275949367088608 2.9 0  2.268354430379747 2.9 0  2.260759493670887 2.9 0  2.253164556962026 2.9 0  2.245569620253165 2.9 0  2.237974683544304 2.9 0  2.230379746835443 2.9 0  2.222784810126583 2.9 0  2.215189873417722 2.9 0  2.207594936708861 2.9 0  4.96271186440678 2.9 0  4.925423728813559 2.9 0  4.888135593220339 2.9 0  4.850847457627118 2.9 0  4.813559322033898 2.9 0  4.776271186440677 2.9 0  4.738983050847457 2.9 0  4.701694915254237 2.9 0  4.664406779661016 2.9 0  4.627118644067796 2.9 0  4.589830508474575 2.9 0  4.552542372881355 2.9 0  4.515254237288135 2.9 0  4.477966101694914 2.9 0  4.440677966101694 2.9 0  4.403389830508473 2.9 0  4.366101694915252 2.9 0  4.328813559322032 2.9 0  4.291525423728811 2.9 0  4.254237288135591 2.9 0  4.21694915254237 2.9 0  4.17966101694915 2.9 0  4.14237288135593 2.9 0  4.105084745762709 2.9 0  4.067796610169489 2.9 0  4.030508474576268 2.9 0  3.993220338983048 2.9 0  3.955932203389827 2.9 0  3.918644067796607 2.9 0  3.881355932203387 2.9 0  3.844067796610166 2.9 0  3.806779661016946 2.9 0  3.769491525423725 2.9 0  3.732203389830505 2.9 0  3.694915254237285 2.9 0  3.657627118644065 2.9 0  3.620338983050845 2.9 0  3.583050847457625 2.9 0  3.545762711864405 2.9 0  3.508474576271184 2.9 0  3.471186440677964 2.9 0  3.433898305084744 2.9 0  3.396610169491524 2.9 0  3.359322033898303 2.9 0  3.322033898305083 2.9 0  3.284745762711863 2.9 0  3.247457627118643 2.9 0  3.210169491525423 2.9 0  3.172881355932202 2.9 0  3.135593220338982 2.9 0  3.098305084745762 2.9 0  3.061016949152542 2.9 0  3.023728813559321 2.9 0  2.986440677966101 2.9 0  2.949152542372881 2.9 0  2.911864406779661 2.9 0  2.87457627118644 2.9 0  2.83728813559322 2.9 0  5 0.1063822625082082 0  5 0.210636880010749 0  5 0.3128064053694972 0  5 0.4129325400644018 0  5 0.5110561521032336 0  5 0.6072172918830103 0  5 0.7014552087832795 0  5 0.7938083674443693 0  5 0.88431446261646 0  5 0.9730104359544682 0  5 1.059932489996267 0  5 1.145116102913299 0  5 1.228596043483191 0  5 1.310406385079062 0  5 1.390580519944147 0  5 1.469151172477827 0  5 1.546150411986101 0  5 1.621609666658609 0  5 1.695559736099044 0  5 1.76803080383987 0  5 1.839052450169751 0  5 1.908653663631169 0  5 1.97686285289587 0  5 2.043707858613779 0  5 2.109215964341413 0  5 2.173413907925942 0  5 2.236327892833935 0  5 2.297983597762904 0  5 2.35840618845912 0  5 2.41762032730194 0  5 2.475650183444628 0  5 2.532519442457069 0  5 2.588251316112828 0  5 2.642868552557322 0  5 2.696393444426347 0  5 2.748847838312051 0  5 2.800253144313381 0  5 2.850630344319807 0  0.2631578947368421 0 0  0.5263157894736842 0 0  0.7894736842105263 0 0  1.052631578947368 0 0  1.31578947368421 0 0  1.578947368421053 0 0  1.842105263157895 0 0  2.105263157894737 0 0  2.368421052631579 0 0  2.631578947368421 0 0  2.894736842105263 0 0  3.157894736842105 0 0  3.421052631578947 0 0  3.684210526315789 0 0  3.947368421052632 0 0  4.210526315789473 0 0  4.473684210526315 0 0  4.736842105263158 0 0  0 2.850203682350569 0  0 2.799411438503675 0  0 2.747603349778291 0  0 2.694759099502208 0  0 2.640857964382145 0  0 2.58587880633613 0  0 2.52980006535898 0  0 2.472599749459174 0  0 2.414255427218689 0  0 2.35474421880616 0  0 2.294042786119219 0  0 2.232127324764723 0  0 2.1689735539481 0  0 2.104556707683347 0  0 2.038851524813415 0  0 1.971832238155655 0  0 1.903472565412126 0  0 1.83374569926617 0  0 1.762624296208475 0  0 1.690080464918761 0  0 1.616085756774206 0  0 1.540611154706337 0  0 1.463627060685571 0  0 1.385103284916206 0  0 1.305009033716617 0  0 1.223312897337225 0  0 1.139982838163732 0  0 1.054986177579938 0  0 0.9682895835804817 0  0 0.8798590579197976 0  0 0.7896599218415354 0  0 0.6976568029903638 0  0 0.6038136217958798 0  0 0.508093576867624 0  0 0.4104591310957497 0  0 0.3108719963522191 0  0 0.2092931188294389 0  0 0.1056826638508546 0  1.434832105763824 2.866945754981483 0  1.737156300467626 2.870039440267515 0  2.032203389830508 2.867707527316512 0  2.332911392405064 2.893422591869991 0  2.469810913293406 2.891944186606167 0  2.606221408823969 2.892519154985628 0  2.255455320628894 2.892068685006691 0  2.538247299216212 2.894964578182811 0  2.674683544303798 2.893422591869991 0  2.40126582278481 2.893422591869991 0  3.566125247295424 2.865029336199714 0  3.266101694915253 2.867707527316512 0  2.967796610169491 2.867707527316512 0  1.174288529834642 2.870795313888584 0  3.825423728813556 2.867707527316512 0  2.727766680262011 2.892655387647729 0  0.06601655192030442 1.502119107695954 0  4.933983535508361 1.507650792231964 0  0.9532124728485543 2.868722489783638 0  4.048935912500257 2.870640982995992 0  0.05930163367361763 1.866907161167414 0  4.943402512618553 1.871280731473148 0  4.271733870017743 2.86520865624265 0  0.7249420921613114 2.863922936177041 0  0.05494499779910056 2.196469063120752 0  4.947228695426367 2.208030108792719 0  0.5406152150397161 2.866493807382013 0  4.459322033898304 2.868847558178794 0  2.18135593220339 2.875780645487384 0  2.817027156509632 2.876587550645167 0  4.928427208322876 1.186856073198245 0  0.07189226971603224 1.174626666111662 0  4.610299014423113 2.867003104093161 0  0.3897270066746357 2.869433095314657 0  1.581132500042262 2.868247328632392 0  1.887637879411437 2.869235851794358 0  3.413449426418068 2.867372048034327 0  3.116721298814773 2.865731235547652 0  2.644303797468355 2.893422591869991 0  2.370983221828106 2.892719513369796 0  2.302531645569621 2.893336787387268 0  2.758987341772152 2.894242393897099 0  0.04979653335696277 2.443411216910286 0  4.950470983477169 2.446866954595817 0  2.482937483021586 0.2513241087417575 0  1.707129504814338 0.1999998659920923 0  3.28584657955054 0.229200625631625 0  4.907807122600524 0.834082362900164 0  4.757627118644067 2.867707527316512 0  0.0773489124676745 0.8347594898806663 0  0.2390604736599387 2.861365431805741 0  0.8363213715215729 2.863896768908178 0  4.160865610207075 2.868916854015731 0  1.282549332053297 2.867610952980761 0  1.065094818402487 2.861284686038041 0  3.93818127737282 2.86865134411395 0  3.711492629432973 2.863574306925269 0  4.91369361998929 0.5579891344254361 0  0.08208328472281323 0.5559535993317519 0  2.696596932532885 2.892010483922337 0  0.04706410140274553 2.613055974506516 0  4.955577063972248 2.616518038840186 0  2.234177215189874 2.893422591869991 0  2.279795840559739 2.89403861893984 0  0.9117357887652362 0.2117925286661764 0  4.055948041993057 0.2039101057937727 0  4.872119713780579 2.867632926423075 0  2.780113878992455 2.891535929611743 0  0.1327442468251063 2.85
[...]
<PointData  Vectors="displacement"> 
<DataArray  type="Float64"  Name="displacement"  NumberOfComponents="3" format="ascii">1.6502500627695010e-03 -8.6355478496127711e-03 0.0000000000000000e+00  0.0000000000000000e+00 -3.5557498011145873e-04 0.0000000000000000e+00  -1.6525160828551703e-03 -8.6359020057679738e-03 0.0000000000000000e+00  0.0000000000000000e+00 -3.5557540499183912e-04 0.0000000000000000e+00  0.0000000000000000e+00 0.0000000000000000e+00 0.0000000000000000e+00  0.0000000000000000e+00 0.0000000000000000e+00 0.0000000000000000e+00  1.6357343143355511e-03 -7.6426167946039986e-03 0.0000000000000000e+00  1.6029481531980852e-03 -6.9873736575956219e-03 0.0000000000000000e+00  1.5706086560790230e-03 -6.4600957837703775e-03 0.0000000000000000e+00  1.5384529444380408e-03 -6.0104529668235721e-03 0.0000000000000000e+00  1.5063408173163415e-03 -5.6159633829835128e-03 0.0000000000000000e+00  1.4742958994549231e-03 -5.2636523734453508e-03 0.0000000000000000e+00  1.4423516751811379e-03 -4.9450334705693454e-03 0.0000000000000000e+00  1.4105151938114291e-03 -4.6541897103437591e-03 0.0000000000000000e+00  1.3788189962008028e-03 -4.3867228796505260e-03 0.0000000000000000e+00  1.3472514967650003e-03 -4.1393529018037400e-03 0.0000000000000000e+00  1.3158223268301241e-03 -3.9095298627505898e-03 0.0000000000000000e+00  1.2845386860904574e-03 -3.6951703223699786e-03 0.0000000000000000e+00  1.2534126600203587e-03 -3.4945670435196597e-03 0.0000000000000000e+00  1.2224438481851017e-03 -3.3063262845915470e-03 0.0000000000000000e+00  1.1916393764251484e-03 -3.1292816077712975e-03 0.0000000000000000e+00  1.1610028736907367e-03 -2.9624352118936639e-03 0.0000000000000000e+00  1.1305408218618951e-03 -2.8049331855681757e-03 0.0000000000000000e+00  1.1002498852987733e-03 -2.6560354001020732e-03 0.0000000000000000e+00  1.0701388662818126e-03 -2.5150938588397211e-03 0.0000000000000000e+00  1.0402098040781338e-03 -2.3815445078983954e-03 0.0000000000000000e+00  1.0104652700908005e-03 -2.2548896793558541e-03 0.0000000000000000e+00  9.8090629519151568e-04 -2.1346877508735258e-03 0.0000000000000000e+00  9.5153619135913221e-04 -2.0205378043290519e-03 0.0000000000000000e+00  9.2235270567504670e-04 -1.9120877051792471e-03 0.0000000000000000e+00  8.9335906062747487e-04 -1.8090215702120367e-03 0.0000000000000000e+00  8.6455607248401005e-04 -1.7110486079424737e-03 0.0000000000000000e+00  8.3594303595167069e-04 -1.6179041828718109e-03 0.0000000000000000e+00  8.0751707121529310e-04 -1.5293548963105504e-03 0.0000000000000000e+00  7.7928326609180134e-04 -1.4451833034110561e-03 0.0000000000000000e+00  7.5123199293156725e-04 -1.3651861500935552e-03 0.0000000000000000e+00  7.2336808617335790e-04 -1.2891845749634404e-03 0.0000000000000000e+00  6.9568796531370523e-04 -1.2170134681586174e-03 0.0000000000000000e+00  6.6818664471210388e-04 -1.1485213824325513e-03 0.0000000000000000e+00  6.4086350820154723e-04 -1.0835607855557883e-03 0.0000000000000000e+00  6.1371417998328176e-04 -1.0220056455667067e-03 0.0000000000000000e+00  5.8673588961945038e-04 -9.6373401364788355e-04 0.0000000000000000e+00  5.5992355195623857e-04 -9.0863379759674576e-04 0.0000000000000000e+00  5.3327336759837049e-04 -8.5660432334842579e-04 0.0000000000000000e+00  5.0678048877067559e-04 -8.0754910155748504e-04 0.0000000000000000e+00  4.8043959150515967e-04 -7.6138054127494888e-04 0.0000000000000000e+00  4.5424534135982087e-04 -7.1801754594374317e-04 0.0000000000000000e+00  4.2819210745011075e-04 -6.7738500725715686e-04 0.0000000000000000e+00  4.0227328558192326e-04 -6.3941332759551400e-04 0.0000000000000000e+00  3.7648305100156467e-04 -6.0403935625408592e-04 0.0000000000000000e+00  3.5081450684501802e-04 -5.7120382307274554e-04 0.0000000000000000e+00  3.2526088291332900e-04 -5.4085325312141325e-04 0.0000000000000000e+00  2.9981497341494454e-04 -5.1293833373015744e-04 0.0000000000000000e+00  2.7446945099385826e-04 -4.8741449433769820e-04 0.0000000000000000e+00  2.4921662160846161e-04 -4.6424088136989161e-04 0.0000000000000000e+00  2.2404862876020912e-04 -4.4338118158013392e-04 0.0000000000000000e+00  1.9895828004331834e-04 -4.2480296146792069e-04 0.0000000000000000e+00  1.7393590243501057e-04 -4.0847664471617043e-04 0.0000000000000000e+00  1.4897427877136831e-04 -3.9437722009774039e-04 0.0000000000000000e+00  1.2406498749489359e-04 -3.8248353091768598e-04 0.0000000000000000e+00  9.9199929514677966e-05 -3.7277700256355183e-04 0.0000000000000000e+00  7.4368839364477557e-05 -3.6524256134271813e-04 0.0000000000000000e+00  4.9564441253813953e-05 -3.5986893008712717e-04 0.0000000000000000e+00  2.4777723568223977e-05 -3.5664804075766937e-04 0.0000000000000000e+00  -1.6290605287057574e-03 -8.9379389068499557e-03 0.0000000000000000e+00  -1.5852238866581301e-03 -9.1557026626150305e-03 0.0000000000000000e+00  -1.5423430957599536e-03 -9.3417598138328915e-03 0.0000000000000000e+00  -1.4996716525649577e-03 -9.5079999094813961e-03 0.0000000000000000e+00  -1.4572983911422051e-03 -9.6596820331225370e-03 0.0000000000000000e+00  -1.4149635921106817e-03 -9.7996350312296639e-03 0.0000000000000000e+00  -1.3726576911642450e-03 -9.9297662101429651e-03 0.0000000000000000e+00  -1.3303702309009535e-03 -1.0051348947769888e-02 0.0000000000000000e+00  -1.2880836378415007e-03 -1.0165355426798599e-02 0.0000000000000000e+00  -1.2458116216158990e-03 -1.0272552821806597e-02 0.0000000000000000e+00  -1.2035509569748584e-03 -1.0373541315398565e-02 0.0000000000000000e+00  -1.1612933728110972e-03 -1.0468805849016145e-02 0.0000000000000000e+00  -1.1190402557131954e-03 -1.0558755109635561e-02 0.0000000000000000e+00  -1.0767917737611813e-03 -1.0643723402562111e-02 0.0000000000000000e+00  -1.0345427320694925e-03 -1.0723994083280603e-02 0.0000000000000000e+00  -9.9229921650861560e-04 -1.0799823019716659e-02 0.0000000000000000e+00  -9.5005806020187120e-04 -1.0871421898755874e-02 0.0000000000000000e+00  -9.0781951773030256e-04 -1.0938976252023738e-02 0.0000000000000000e+00  -8.6558306657060088e-04 -1.1002650993527470e-02 0.0000000000000000e+00  -8.2334833378722942e-04 -1.1062590455442473e-02 0.0000000000000000e+00  -7.8111535177240621e-04 -1.1118923022738232e-02 0.0000000000000000e+00  -7.3888405972603779e-04 -1.1171762902413321e-02 0.0000000000000000e+00  -6.9665411027575500e-04 -1.1221211202631122e-02 0.0000000000000000e+00  -6.5442571443131016e-04 -1.1267359195267293e-02 0.0000000000000000e+00  -6.1219861620839973e-04 -1.1310288353630602e-02 0.0000000000000000e+00  -5.6997268249384342e-04 -1.1350070620312503e-02 0.0000000000000000e+00  -5.2774840100512784e-04 -1.1386771094175680e-02 0.0000000000000000e+00  -4.8552440267313944e-04 -1.1420447091367469e-02 0.0000000000000000e+00  -4.4330151089018899e-04 -1.1451150969811625e-02 0.0000000000000000e+00  -4.0107964969229030e-04 -1.1478928311173373e-02 0.0000000000000000e+00  -3.5885861829470459e-04 -1.1503819668879457e-02 0.0000000000000000e+00  -3.1663813677006392e-04 -1.1525860277388581e-02 0.0000000000000000e+00  -2.7441824413520734e-04 -1.1545081114443696e-02 0.0000000000000000e+00  -2.3219902844755615e-04 -1.1561508678129257e-02 0.0000000000000000e+00  -1.8997988556917041e-04 -1.1575164620680074e-02 0.0000000000000000e+00  -1.4776184421663540e-04 -1.1586068141333965e-02 0.0000000000000000e+00  -1.0554337287724730e-04 -1.1594233302857880e-02 0.0000000000000000e+00  -6.3325248006759749e-05 -1.1599670633570076e-02 0.0000000000000000e+00  -2.1107394867430098e-05 -1.1602387558501270e-02 0.0000000000000000e+00  2.1110462468397934e-05 -1.1602387506221040e-02 0.0000000000000000e+00  6.3328357992723276e-05 -1.1599670458944824e-02 0.0000000000000000e+00  1.0554637908582764e-04 -1.1594232910361258e-02 0.0000000000000000e+00  1.4776460949573989e-04 -1.1586067835558950e-02 0.0000000000000000e+00  1.8998302652414761e-04 -1.1575164267599079e-02 0.0000000000000000e+00  2.3220194579998886e-04 -1.1561507728696184e-02 0.0000000000000000e+00  2.7442121053350302e-04 -1.1545080326732288e-02 0.0000000000000000e+00  3.1664104136861783e-04 -1.1525859518999378e-02 0.0000000000000000e+00  3.5886146220634869e-04 -1.1503818808824975e-02 0.0000000000000000e+00  4.0108270273708828e-04 -1.1478927494379149e-02 0.0000000000000000e+00  4.4330457531946741e-04 -1.1451149899607655e-02 0.0000000000000000e+00  4.8552736650582474e-04 -1.1420446041569889e-02 0.0000000000000000e+00  5.2775143833752385e-04 -1.1386769692288305e-02 0.0000000000000000e+00  5.6997602140903549e-04 -1.1350069178104528e-02 0.0000000000000000e+00  6.1220195376879023e-04 -1.1310287209805847e-02 0.0000000000000000e+00  6.5442910924840654e-04 -1.1267358420119543e-02 0.0000000000000000e+00  6.9665762378065370e-04 -1.1221210354307908e-02 0.0000000000000000e+00  7.3888736749902278e-04 -1.1171761736095359e-02 0.0000000000000000e+00  7.8111941070673364e-04 -1.1118922336340632e-02 0.0000000000000000e+00  8.2335312276441374e-04 -1.1062588447347730e-02 0.0000000000000000e+00  8.6558828763228554e-04 -1.1002648969054403e-02 0.0000000000000000e+00  9.0782526639858745e-04 -1.0938974062811545e-02 0.0000000000000000e+00  9.5006458151926561e-04 -1.0871419222882574e-02 0.0000000000000000e+00  9.9230627229113830e-04 -1.0799820271001646e-02 0.0000000000000000e+00  1.0345507956512649e-03 -1.0723990123066005e-02 0.0000000000000000e+00  1.0767983169750405e-03 -1.0643715487899431e-02 0.0000000000000000e+00  1.1190499945403268e-03 -1.0558748018223938e-02 0.0000000000000000e+00  1.1613040162906972e-03 -1.0468799283708044e-02 0.0000000000000000e+00  1.2035625832085362e-03 -1.0373530546424051e-02 0.0000000000000000e+00  1.2458293672131147e-03 -1.0272546227275022e-02 0.0000000000000000e+00  1.2880986908844704e-03 -1.0165346579959010e-02 0.0000000000000000e+00  1.3303751164060406e-03 -1.0051328611023145e-02 0.0000000000000000e+00  1.3726690183438342e-03 -9.9297487908917726e-03 0.0000000000000000e+00  1.4149884409536714e-03 -9.7996454124152470e-03 0.0000000000000000e+00  1.4573165090493332e-03 -9.6596544622704287e-03 0.0000000000000000e+00  1.4996689281567375e-03 -9.5079320762625000e-03 0.0000000000000000e+00  1.5419924883773443e-03 -9.3417430594115985e-03 0.0000000000000000e+00  1.5855041490340567e-03 -9.1563195059758719e-03 0.0000000000000000e+00  1.6288290156771155e-03 -8.9372493438051488e-03 0.0000000000000000e+00  -2.4777917537923942e-05 -3.5664837650504637e-04 0.0000000000000000e+00  -4.9564637247658445e-05 -3.5986931051964929e-04 0.0000000000000000e+00  -7.4368883495844047e-05 -3.6524282348890602e-04 0.0000000000000000e+00  -9.9199480674735295e-05 -3.7277721185898649e-04 0.0000000000000000e+00  -1.2406503107964095e-04 -3.8248377005907974e-04 0.0000000000000000e+00  -1.4897467457751823e-04 -3.9437782829548039e-04 0.0000000000000000e+00  -1.7393586387885702e-04 -4.0847683828163200e-04 0.0000000000000000e+00  -1.9895791503549200e-04 -4.2480299543233303e-04 0.0000000000000000e+00  -2.2404874034415457e-04 -4.4338144998425148e-04 0.0000000000000000e+00  -2.4921667590327873e-04 -4.6424127223150465e-04 0.0000000000000000e+00  -2.7446945836879366e-04 -4.8741488363332458e-04 0.0000000000000000e+00  -2.9981509592176639e-04 -5.1293886265350896e-04 0.0000000000000000e+00  -3.2526096456756163e-04 -5.4085376724238984e-04 0.0000000000000000e+00  -3.5081452627937947e-04 -5.7120434117987804e-04 0.0000000000000000e+00  -3.7648298642219699e-04 -6.0403975711416770e-04 0.0000000000000000e+00  -4.0227320337161548e-04 -6.3941381404146295e-04 0.0000000000000000e+00  -4.2819187311051723e-04 -6.7738512293988046e-04 0.0000000000000000e+00  -4.5424538661847501e-04 -7.1801806567656592e-04 0.0000000000000000e+00  -4.8043944016858191e-04 -7.6138121283953939e-04 0.0000000000000000e+00  -5.0678038349659133e-04 -8.0755009699041091e-04 0.0000000000000000e+00  -5.3327408916962983e-04 -8.5660570601313487e-04 0.0000000000000000e+00  -5.5992324467080124e-04 -9.0863457039374413e-04 0.0000000000000000e+00  -5.8673558028455360e-04 -9.6373396240555134e-04 0.0000000000000000e+00  -6.1371405202226346e-04 -1.0220059613579710e-03 0.0000000000000000e+00  -6.4086307149570951e-04 -1.0835616175996824e-03 0.0000000000000000e+00  -6.6818622582821114e-04 -1.1485212670782530e-03 0.0000000000000000e+00  -6.9568694625851831e-04 -1.2170154684411187e-03 0.0000000000000000e+00  -7.2336795550346621e-04 -1.2891856493387603e-03 0.0000000000000000e+00  -7.5123224029729129e-04 -1.3651855157941111e-03 0.0000000000000000e+00  -7.7928164457505549e-04 -1.4451812743554468e-03 0.0000000000000000e+00  -8.0751768454376044e-04 -1.5293549558130137e-03 0.0000000000000000e+00  -8.3594142436561371e-04 -1.6179042241503397e-03 0.0000000000000000e+00  -8.6455890097993603e-04 -1.7110480825775765e-03 0.0000000000000000e+00  -8.9335867593282796e-04 -1.8090223689744035e-03 0.0000000000000000e+00  -9.2235233112689401e-04 -1.9120906744867524e-03 0.0000000000000000e+00  -9.5153523629789411e-04 -2.0205387982478486e-03 0.0000000000000000e+00  -9.8090729036007934e-04 -2.1346864595935128e-03 0.0000000000000000e+00  -1.0104651821455342e-03 -2.2548894469150075e-03 0.0000000000000000e+00  -1.0402092829005728e-03 -2.3815440312316481e-03 0.0000000000000000e+00  -1.0701379117185638e-03 -2.5150924780853461e-03 0.0000000000000000e+00  -1.1002491166331992e-03 -2.6560336833091926e-03 0.0000000000000000e+00  -1.1305380194027274e-03 -2.8049349651601556e-03 0.0000000000000000e+00  -1.1610049644458990e-03 -2.9624392306606411e-03 0.0000000000000000e+00  -1.1916427422995609e-03 -3.1292841303859633e-03 0.0000000000000000e+00  -1.2224448611169441e-03 -3.3063246301954321e-03 0.0000000000000000e+00  -1.2534088366007031e-03 -3.4945629171625001e-03 0.0000000000000000e+00  -1.2845360785517673e-03 -3.6951663241849187e-03 0.0000000000000000e+00  -1.3158188066629565e-03 -3.9095392856326495e-03 0.0000000000000000e+00  -1.3472485737649328e-03 -4.1393688538440424e-03 0.0000000000000000e+00  -1.3788235682876237e-03 -4.3867105860538498e-03 0.0000000000000000e+00  -1.4105186427475524e-03 -4.6541930017788202e-03 0.0000000000000000e+00  -1.4423651854396193e-03 -4.9450178176427776e-03 0.0000000000000000e+00  -1.4742953103856174e-03 -5.2636609785303408e-03 0.0000000000000000e+00  -1.5063142453952292e-03 -5.6159969754535719e-03 0.0000000000000000e+00  -1.5384250701622523e-03 -6.0104512984901865e-03 0.0000000000000000e+00  -1.5707614711142383e-03 -6.4600716151413853e-03 0.0000000000000000e+00  -1.6025389342340405e-03 -6.9876240937475076e-03 0.0000000000000000e+00  -1.6360462766820808e-03 -7.6421587356277597e-03 0.0000000000000000e+00  0.0000000000000000e+00 -6.9007037786798591e-05 0.0000000000000000e+00  0.0000000000000000e+00 -1.2890451663776493e-04 0.0000000000000000e+00  0.0000000000000000e+00 -1.8080728161842631e-04 0.0000000000000000e+00  0.0000000000000000e+00 -2.2566499833871737e-04 0.0000000000000000e+00  0.0000000000000000e+00 -2.6419934561454784e-04 0.0000000000000000e+00  0.0000000000000000e+00 -2.9700421207708898e-04 0.0000000000000000e+00  0.0000000000000000e+00 -3.2457660598221648e-04 0.0000000000000000e+00  0.0000000000000000e+00 -3.4734193506831220e-04 0.0000000000000000e+00  0.0000000000000000e+00 -3.6563812438546010e-04 0.0000000000000000e+00  0.0000000000000000e+00 -3.7983644157347791e-04 0.0000000000000000e+00  0.0000000000000000e+00 -3.9023660139435540e-04 0.0000000000000000e+00  0.0000000000000000e+00 -3.9714998028307679e-04 0.0000000000000000e+00  0.0000000000000000e+00 -4.0089454413268124e-04 0.0000000000000000e+00  0.0000000000000000e+00 -4.0178430027495472e-04 0.0000000000000000e+00  0.0000000000000000e+00 -4.0014160703881886e-04 0.0000000000000000e+00  0.0000000000000000e+00 -3.9629808161902491e-04 0.0000000000000000e+00  0.0000000000000000e+00 -3.9059690919107898e-04 0.0000000000000000e+00  0.0000000000000000e+00 -3.8338057556154472e-04 0.0000000000000000e+00  0.0000000000000000e+00 -3.7499493598120137e-04 0.0000000000000000e+00  0.0000000000000000e+00 -3.6578497282595566e-04 0.0000000000000000e+00  0.0000000000000000e+00 -3.5609025722192544e-04 0.0000000000000000e+00  0.0000000000000000e+00 -3.4623776923588424e-04 0.0000000000000000e+00  0.0000000000000000e+00 -3.3654336849348406e-04 0.0000000000000000e+00  0.0000000000000000e+00 -3.2729470202577632e-04 0.0000000000000000e+00  0.0000000000000000e+00 -3.1876647676882478e-04 0.0000000000000000e+00  0.0000000000000000e+00 -3.1120644962545293e-04 0.0000000000000000e+00  0.0000000000000000e+00 -3.0482320380752377e-04 0.0000000000000000e+00  0.0000000000000000e+00 -2.9980570091458147e-04 0.0000000000000000e+00  0.0000000000000000e+00 -2.9630446626103835e-04 0.0000000000000000e+00  0.0000000000000000e+00 -2.9443774835523101e-04 0.0000000000000000e+00  0.0000000000000000e+00 -2.9429169552164626e-04 0.0000000000000000e+00  0.0000000000000000e+00 -2.9591906993700081e-04 0.0000000000000000e+00  0.0000000000000000e+00 -2.9934250987177546e-04 0.0000000000000000e+00  0.0000000000000000e+00 -3.0455654427033230e-04 0.0000000000000000e+00  0.0000000000000000e+00 -3.1152864846938235e-04 0.0000000000000000e+00  0.0000000000000000e+00 -3.2020238640065708e-04 0.0000000000000000e+00  0.0000000000000000e+00 -3.3050033257417936e-04 0.0000000000000000e+00  0.0000000000000000e+00 -3.4232788999208737e-04 0.0000000000000000e+00  0.0000000000000000e+00 0.0000000000000000e+00 0.0000000000000000e+00  0.0000000000000000e+00 0.0000000000000000e+00 0.0000000000000000e+00  0.0000000000000000e+00 0.0000000000000000e+00 0.0000000000000000e+00  0.0000000000000000e+00 0.0000000000000000e+00 0.0000000000000000e+00  0.0000000000000000e+00 0.0000000000000000e+00 0.0000000000000000e+00  0.0000000000000000e+00 0.0000000000000000e+00 0.0000000000000000e+00  0.0000000000000000e+00 0.0000000000000000e+00 0.0000000000000000e+00  0.0000000000000000e+00 0.0000000000000000e+00 0.0000000000000000e+00  0.0000000000000000e+00 0.0000000000000000e+00 0.0000000000000000e+00  0.0000000000000000e+00 0.0000000000000000e+00 0.0000000000000000e+00  0.0000000000000000e+00 0.0000000000000000e+00 0.0000000000000000e+00  0.0000000000000000e+00 0.0000000000000000e+00 0.0000000000000000e+00  0.0000000000000000e+00 0.0000000000000000e+00 0.0000000000000000e+00  0.0000000000000000e+00 0.0000000000000000e+00 0.0000000000000000e+00  0.0000000000000000e+00 0.0000000000000000e+00 0.0000000000000000e+00  0.0000000000000000e+00 0.0000000000000000e+00 0.0000000000000000e+00  0.0000000000000000e+00 0.0000000000000000e+00 0.0000000000000000e+00  0.0000000000000000e+00 0.0000000000000000e+00 0.0000000000000000e+00  0.0000000000000000e+00 -3.4222025864638449e-04 0.0000000000000000e+00  0.0000000000000000e+00 -3.3031701033871757e-04 0.0000000000000000e+00  0.0000000000000000e+00 -3.1997492507282888e-04 0.0000000000000000e+00  0.0000000000000000e+00 -3.1128746135600325e-04 0.0000000000000000e+00  0.0000000000000000e+00 -3.0433066032208451e-04 0.0000000000000000e+00  0.0000000000000000e+00 -2.9915808235470384e-04 0.0000000000000000e+00  0.0000000000000000e+00 -2.9579869789421329e-04 0.0000000000000000e+00  0.0000000000000000e+00 -2.9425459071170837e-04 0.0000000000000000e+00  0.0000000000000000e+00 -2.9449883465925742e-04 0.0000000000000000e+00  0.0000000000000000e+00 -2.9647226355235034e-04 0.0000000000000000e+00  0.0000000000000000e+00 -3.0008605068253730e-04 0.0000000000000000e+00  0.0000000000000000e+00 -3.0521078663920835e-04 0.0000000000000000e+00  0.0000000000000000e+00 -3.1169638733180008e-04 0.0000000000000000e+00  0.0000000000000000e+00 -3.1934958473228746e-04 0.0000000000000000e+00  0.0000000000000000e+00 -3.2795237051721896e-04 0.0000000000000000e+00  0.0000000000000000e+00 -3.3725173055691293e-04 0.0000000000000000e+00  0.0000000000000000e+00 -3.4697536593752330e-04 0.0000000000000000e+00  0.0000000000000000e+00 -3.5683153710309458e-04 0.0000000000000000e+00  0.0000000000000000e+00 -3.6650052328760137e-04 0.0000000000000000e+00  0.0000000000000000e+00 -3.7565518928548130e-04 0.0000000000000000e+00  0.0000000000000000e+00 -3.8395807470676643e-04 0.0000000000000000e+00  0.0000000000000000e+00 -3.9106667987651720e-04 0.0000000000000000e+00  0.0000000000000000e+00 -3.9663720543614567e-04 0.00000000000