<?xml version="1.0"?>
<VTKFile type="UnstructuredGrid"  version="0.1"  >
<UnstructuredGrid>
<Piece  NumberOfPoints="3167" NumberOfCells="6038">
<Points>
<DataArray  type="Float64"  NumberOfComponents="3"  format="ascii">2.2 2.9 0  0 2.9 0  2.8 2.9 0  5 2.9 0  5 0 0  0 0 0  2.16271186440678 2.9 0  2.125423728813559 2.9 0  2.088135593220339 2.9 0  2.050847457627119 2.9 0  2.013559322033898 2.9 0  1.976271186440678 2.9 0  1.938983050847457 2.9 0  1.901694915254237 2.9 0  1.864406779661016 2.9 0  1.827118644067796 2.9 0  1.789830508474575 2.9 0  1.752542372881355 2.9 0  1.715254237288134 2.9 0  1.677966101694914 2.9 0  1.640677966101693 2.9 0  1.603389830508473 2.9 0  1.566101694915253 2.9 0  1.528813559322032 2.9 0  1.491525423728812 2.9 0  1.454237288135591 2.9 0  1.416949152542371 2.9 0  1.37966101694915 2.9 0  1.34237288135593 2.9 0  1.305084745762709 2.9 0  1.267796610169489 2.9 0  1.230508474576268 2.9 0  1.193220338983048 2.9 0  1.155932203389827 2.9 0  1.118644067796607 2.9 0  1.081355932203387 2.9 0  1.044067796610166 2.9 0  1.006779661016946 2.9 0  0.9694915254237257 2.9 0  0.9322033898305055 2.9 0  0.8949152542372856 2.9 0  0.8576271186440652 2.9 0  0.820338983050845 2.9 0  0.783050847457625 2.9 0  0.7457627118644048 2.9 0  0.7084745762711844 2.9 0  0.6711864406779642 2.9 0  0.633898305084744 2.9 0  0.5966101694915238 2.9 0  0.5593220338983036 2.9 0  0.5220338983050834 2.9 0  0.4847457627118632 2.9 0  0.447457627118643 2.9 0  0.4101694915254228 2.9 0  0.3728813559322024 2.9 0  0.3355932203389822 2.9 0  0.2983050847457622 2.9 0  0.2610169491525418 2.9 0  0.2237288135593216 2.9 0  0.1864406779661016 2.9 0  0.1491525423728812 2.9 0  0.1118644067796613 2.9 0  0.07457627118644039 2.9 0  0.03728813559321997 2.9 0  2.792405063291139 2.9 0  2.784810126582279 2.9 0  2.777215189873418 2.9 0  2.769620253164557 2.9 0  2.762025316455697 2.9 0  2.754430379746836 2.9 0  2.746835443037975 2.9 0  2.739240506329114 2.9 0  2.731645569620254 2.9 0  2.724050632911393 2.9 0  2.716455696202532 2.9 0  2.708860759493671 2.9 0  2.701265822784811 2.9 0  2.69367088607595 2.9 0  2.686075949367089 2.9 0  2.678481012658228 2.9 0  2.670886075949368 2.9 0  2.663291139240507 2.9 0  2.655696202531646 2.9 0  2.648101265822786 2.9 0  2.640506329113925 2.9 0  2.632911392405064 2.9 0  2.625316455696203 2.9 0  2.617721518987342 2.9 0  2.610126582278482 2.9 0  2.602531645569621 2.9 0  2.59493670886076 2.9 0  2.587341772151899 2.9 0  2.579746835443038 2.9 0  2.572151898734178 2.9 0  2.564556962025317 2.9 0  2.556962025316456 2.9 0  2.549367088607595 2.9 0  2.541772151898734 2.9 0  2.534177215189874 2.9 0  2.526582278481013 2.9 0  2.518987341772152 2.9 0  2.511392405063292 2.9 0  2.503797468354431 2.9 0  2.49620253164557 2.9 0  2.488607594936709 2.9 0  2.481012658227848 2.9 0  2.473417721518988 2.9 0  2.465822784810127 2.9 0  2.458227848101266 2.9 0  2.450632911392406 2.9 0  2.443037974683545 2.9 0  2.435443037974684 2.9 0  2.427848101265823 2.9 0  2.420253164556962 2.9 0  2.412658227848102 2.9 0  2.405063291139241 2.9 0  2.39746835443038 2.9 0  2.389873417721519 2.9 0  2.382278481012658 2.9 0  2.374683544303798 2.9 0  2.367088607594937 2.9 0  2.359493670886076 2.9 0  2.351898734177215 2.9 0  2.344303797468355 2.9 0  2.336708860759494 2.9 0  2.329113924050633 2.9 0  2.321518987341773 2.9 0  2.313924050632912 2.9 0  2.306329113924051 2.9 0  2.29873417721519 2.9 0  2.291139240506329 2.9 0  2.283544303797469 2.9 0  2.275949367088608 2.9 0  2.268354430379747 2.9 0  2.260759493670887 2.9 0  2.253164556962026 2.9 0  2.245569620253165 2.9 0  2.237974683544304 2.9 0  2.230379746835443 2.9 0  2.222784810126583 2.9 0  2.215189873417722 2.9 0  2.207594936708861 2.9 0  4.96271186440678 2.9 0  4.925423728813559 2.9 0  4.888135593220339 2.9 0  4.850847457627118 2.9 0  4.813559322033898 2.9 0  4.776271186440677 2.9 0  4.738983050847457 2.9 0  4.701694915254237 2.9 0  4.664406779661016 2.9 0  4.627118644067796 2.9 0  4.589830508474575 2.9 0  4.552542372881355 2.9 0  4.515254237288135 2.9 0  4.477966101694914 2.9 0  4.440677966101694 2.9 0  4.403389830508473 2.9 0  4.366101694915252 2.9 0  4.328813559322032 2.9 0  4.291525423728811 2.9 0  4.254237288135591 2.9 0  4.21694915254237 2.9 0  4.17966101694915 2.9 0  4.14237288135593 2.9 0  4.105084745762709 2.9 0  4.067796610169489 2.9 0  4.030508474576268 2.9 0  3.993220338983048 2.9 0  3.955932203389827 2.9 0  3.918644067796607 2.9 0  3.881355932203387 2.9 0  3.844067796610166 2.9 0  3.806779661016946 2.9 0  3.769491525423725 2.9 0  3.732203389830505 2.9 0  3.694915254237285 2.9 0  3.657627118644065 2.9 0  3.620338983050845 2.9 0  3.583050847457625 2.9 0  3.545762711864405 2.9 0  3.508474576271184 2.9 0  3.471186440677964 2.9 0  3.433898305084744 2.9 0  3.396610169491524 2.9 0  3.359322033898303 2.9 0  3.322033898305083 2.9 0  3.284745762711863 2.9 0  3.247457627118643 2.9 0  3.210169491525423 2.9 0  3.172881355932202 2.9 0  3.135593220338982 2.9 0  3.098305084745762 2.9 0  3.061016949152542 2.9 0  3.023728813559321 2.9 0  2.986440677966101 2.9 0  2.949152542372881 2.9 0  2.911864406779661 2.9 0  2.87457627118644 2.9 0  2.83728813559322 2.9 0  5 0.1063822625082082 0  5 0.210636880010749 0  5 0.3128064053694972 0  5 0.4129325400644018 0  5 0.5110561521032336 0  5 0.6072172918830103 0  5 0.7014552087832795 0  5 0.7938083674443693 0  5 0.88431446261646 0  5 0.9730104359544682 0  5 1.059932489996267 0  5 1.145116102913299 0  5 1.228596043483191 0  5 1.310406385079062 0  5 1.390580519944147 0  5 1.469151172477827 0  5 1.546150411986101 0  5 1.621609666658609 0  5 1.695559736099044 0  5 1.76803080383987 0  5 1.839052450169751 0  5 1.908653663631169 0  5 1.97686285289587 0  5 2.043707858613779 0  5 2.109215964341413 0  5 2.173413907925942 0  5 2.236327892833935 0  5 2.297983597762904 0  5 2.35840618845912 0  5 2.41762032730194 0  5 2.475650183444628 0  5 2.532519442457069 0  5 2.588251316112828 0  5 2.642868552557322 0  5 2.696393444426347 0  5 2.748847838312051 0  5 2.800253144313381 0  5 2.850630344319807 0  0.2631578947368421 0 0  0.5263157894736842 0 0  0.7894736842105263 0 0  1.052631578947368 0 0  1.31578947368421 0 0  1.578947368421053 0 0  1.842105263157895 0 0  2.105263157894737 0 0  2.368421052631579 0 0  2.631578947368421 0 0  2.894736842105263 0 0  3.157894736842105 0 0  3.421052631578947 0 0  3.684210526315789 0 0  3.947368421052632 0 0  4.210526315789473 0 0  4.473684210526315 0 0  4.736842105263158 0 0  0 2.850203682350569 0  0 2.799411438503675 0  0 2.747603349778291 0  0 2.694759099502208 0  0 2.640857964382145 0  0 2.58587880633613 0  0 2.52980006535898 0  0 2.472599749459174 0  0 2.414255427218689 0  0 2.35474421880616 0  0 2.294042786119219 0  0 2.232127324764723 0  0 2.1689735539481 0  0 2.104556707683347 0  0 2.038851524813415 0  0 1.971832238155655 0  0 1.903472565412126 0  0 1.83374569926617 0  0 1.762624296208475 0  0 1.690080464918761 0  0 1.616085756774206 0  0 1.540611154706337 0  0 1.463627060685571 0  0 1.385103284916206 0  0 1.305009033716617 0  0 1.223312897337225 0  0 1.139982838163732 0  0 1.054986177579938 0  0 0.9682895835804817 0  0 0.8798590579197976 0  0 0.7896599218415354 0  0 0.6976568029903638 0  0 0.6038136217958798 0  0 0.508093576867624 0  0 0.4104591310957497 0  0 0.3108719963522191 0  0 0.2092931188294389 0  0 0.1056826638508546 0  1.434832105763824 2.866945754981483 0  1.737156300467626 2.870039440267515 0  2.032203389830508 2.867707527316512 0  2.332911392405064 2.893422591869991 0  2.469810913293406 2.891944186606167 0  2.606221408823969 2.892519154985628 0  2.255455320628894 2.892068685006691 0  2.538247299216212 2.894964578182811 0  2.674683544303798 2.893422591869991 0  2.40126582278481 2.893422591869991 0  3.566125247295424 2.865029336199714 0  3.266101694915253 2.867707527316512 0  2.967796610169491 2.867707527316512 0  1.174288529834642 2.870795313888584 0  3.825423728813556 2.867707527316512 0  2.727766680262011 2.892655387647729 0  0.06601655192030442 1.502119107695954 0  4.933983535508361 1.507650792231964 0  0.9532124728485543 2.868722489783638 0  4.048935912500257 2.870640982995992 0  0.05930163367361763 1.866907161167414 0  4.943402512618553 1.871280731473148 0  4.271733870017743 2.86520865624265 0  0.7249420921613114 2.863922936177041 0  0.05494499779910056 2.196469063120752 0  4.947228695426367 2.208030108792719 0  0.5406152150397161 2.866493807382013 0  4.459322033898304 2.868847558178794 0  2.18135593220339 2.875780645487384 0  2.817027156509632 2.876587550645167 0  4.928427208322876 1.186856073198245 0  0.07189226971603224 1.174626666111662 0  4.610299014423113 2.867003104093161 0  0.3897270066746357 2.869433095314657 0  1.581132500042262 2.868247328632392 0  1.887637879411437 2.869235851794358 0  3.413449426418068 2.867372048034327 0  3.116721298814773 2.865731235547652 0  2.644303797468355 2.893422591869991 0  2.370983221828106 2.892719513369796 0  2.302531645569621 2.893336787387268 0  2.758987341772152 2.894242393897099 0  0.04979653335696277 2.443411216910286 0  4.950470983477169 2.446866954595817 0  2.482937483021586 0.2513241087417575 0  1.707129504814338 0.1999998659920923 0  3.28584657955054 0.229200625631625 0  4.907807122600524 0.834082362900164 0  4.757627118644067 2.867707527316512 0  0.0773489124676745 0.8347594898806663 0  0.2390604736599387 2.861365431805741 0  0.8363213715215729 2.863896768908178 0  4.160865610207075 2.868916854015731 0  1.282549332053297 2.867610952980761 0  1.065094818402487 2.861284686038041 0  3.93818127737282 2.86865134411395 0  3.711492629432973 2.863574306925269 0  4.91369361998929 0.5579891344254361 0  0.08208328472281323 0.5559535993317519 0  2.696596932532885 2.892010483922337 0  0.04706410140274553 2.613055974506516 0  4.955577063972248 2.616518038840186 0  2.234177215189874 2.893422591869991 0  2.279795840559739 2.89403861893984 0  0.9117357887652362 0.2117925286661764 0  4.055948041993057 0.2039101057937727 0  4.872119713780579 2.867632926423075 0  2.780113878992455 2.891535929611743 0  0.1327442468251063 2.85
[...]
<PointData  Vectors="displacement"> 
<DataArray  type="Float64"  Name="displacement"  NumberOfComponents="3" format="ascii">-1.4728737686109934e-03 -5.7202843789005272e-03 0.0000000000000000e+00  0.0000000000000000e+00 -3.2763423194208103e-04 0.0000000000000000e+00  1.3705325537032983e-03 -5.9645329679572871e-03 0.0000000000000000e+00  0.0000000000000000e+00 -3.2735530770323782e-04 0.0000000000000000e+00  0.0000000000000000e+00 0.0000000000000000e+00 0.0000000000000000e+00  0.0000000000000000e+00 0.0000000000000000e+00 0.0000000000000000e+00  -1.6709679799119064e-03 -4.2897599679949296e-03 0.0000000000000000e+00  -1.6897094623098648e-03 -3.8490153675876733e-03 0.0000000000000000e+00  -1.6796432083283723e-03 -3.5288808885531498e-03 0.0000000000000000e+00  -1.6593656401652870e-03 -3.2677434884070800e-03 0.0000000000000000e+00  -1.6329631377105004e-03 -3.0469549506667738e-03 0.0000000000000000e+00  -1.6020844941764516e-03 -2.8561111056484086e-03 0.0000000000000000e+00  -1.5677294884913597e-03 -2.6884525573142260e-03 0.0000000000000000e+00  -1.5305903933208393e-03 -2.5392569813465888e-03 0.0000000000000000e+00  -1.4912598632409188e-03 -2.4049887016270887e-03 0.0000000000000000e+00  -1.4502185554716054e-03 -2.2829881627482829e-03 0.0000000000000000e+00  -1.4078936950602176e-03 -2.1712027002982761e-03 0.0000000000000000e+00  -1.3646664347174151e-03 -2.0679804133683236e-03 0.0000000000000000e+00  -1.3209031174376358e-03 -1.9719950792048435e-03 0.0000000000000000e+00  -1.2769010391594346e-03 -1.8821991268053227e-03 0.0000000000000000e+00  -1.2329226770462760e-03 -1.7977601162548020e-03 0.0000000000000000e+00  -1.1891995829364174e-03 -1.7179994879539151e-03 0.0000000000000000e+00  -1.1459177124365720e-03 -1.6423766162576936e-03 0.0000000000000000e+00  -1.1032327252886037e-03 -1.5704481290051580e-03 0.0000000000000000e+00  -1.0612752259436045e-03 -1.5018571388192750e-03 0.0000000000000000e+00  -1.0201362393828779e-03 -1.4363127141412771e-03 0.0000000000000000e+00  -9.7988943585277733e-04 -1.3735790779274841e-03 0.0000000000000000e+00  -9.4058691405735420e-04 -1.3134618625856992e-03 0.0000000000000000e+00  -9.0226257289370050e-04 -1.2557965033420328e-03 0.0000000000000000e+00  -8.6493758806180680e-04 -1.2004497228390481e-03 0.0000000000000000e+00  -8.2861758935255420e-04 -1.1473094423311858e-03 0.0000000000000000e+00  -7.9329988268323317e-04 -1.0962786380378686e-03 0.0000000000000000e+00  -7.5897299257222267e-04 -1.0472739081178548e-03 0.0000000000000000e+00  -7.2562071641134752e-04 -1.0002259434573170e-03 0.0000000000000000e+00  -6.9321961193881659e-04 -9.5507307208266717e-04 0.0000000000000000e+00  -6.6174005418016726e-04 -9.1175795263745635e-04 0.0000000000000000e+00  -6.3115432576688123e-04 -8.7023507337418273e-04 0.0000000000000000e+00  -6.0142877976077894e-04 -8.3046193972890320e-04 0.0000000000000000e+00  -5.7253364150443645e-04 -7.9239871567791053e-04 0.0000000000000000e+00  -5.4442675176975136e-04 -7.5600931497010304e-04 0.0000000000000000e+00  -5.1707784531134220e-04 -7.2126293742544062e-04 0.0000000000000000e+00  -4.9044865366780791e-04 -6.8812925163673304e-04 0.0000000000000000e+00  -4.6450113778473081e-04 -6.5658142998790742e-04 0.0000000000000000e+00  -4.3920335169425216e-04 -6.2659403942809258e-04 0.0000000000000000e+00  -4.1451649548455684e-04 -5.9814396362884803e-04 0.0000000000000000e+00  -3.9040665735248992e-04 -5.7120949051808864e-04 0.0000000000000000e+00  -3.6683896026022173e-04 -5.4577026584982696e-04 0.0000000000000000e+00  -3.4378084913854720e-04 -5.2180762679201694e-04 0.0000000000000000e+00  -3.2119724068803906e-04 -4.9930378380056123e-04 0.0000000000000000e+00  -2.9905675891842606e-04 -4.7824261284469809e-04 0.0000000000000000e+00  -2.7732693022502726e-04 -4.5860905150507208e-04 0.0000000000000000e+00  -2.5597740296701084e-04 -4.4038905063291633e-04 0.0000000000000000e+00  -2.3497734592387709e-04 -4.2356942763204837e-04 0.0000000000000000e+00  -2.1429780596849457e-04 -4.0813845905976037e-04 0.0000000000000000e+00  -1.9390875297906992e-04 -3.9408534647818676e-04 0.0000000000000000e+00  -1.7378202614266335e-04 -3.8140028618786789e-04 0.0000000000000000e+00  -1.5389170278457486e-04 -3.7007408294840245e-04 0.0000000000000000e+00  -1.3420622996674871e-04 -3.6009839155487267e-04 0.0000000000000000e+00  -1.1470129638997367e-04 -3.5146743726189136e-04 0.0000000000000000e+00  -9.5351372430593746e-05 -3.4417443473682015e-04 0.0000000000000000e+00  -7.6130340033245706e-05 -3.3821439773004734e-04 0.0000000000000000e+00  -5.7007842040024070e-05 -3.3358275359600316e-04 0.0000000000000000e+00  -3.7962448525245597e-05 -3.3027721704928899e-04 0.0000000000000000e+00  -1.8968189068707036e-05 -3.2829475105083754e-04 0.0000000000000000e+00  -8.6456091436841248e-04 -1.3360192110473797e-02 0.0000000000000000e+00  -6.8745364284947860e-04 -1.4427935993358530e-02 0.0000000000000000e+00  -5.9826912934290771e-04 -1.4705969011018514e-02 0.0000000000000000e+00  -5.8583273809905290e-04 -1.4842596156793827e-02 0.0000000000000000e+00  -5.7229650537155051e-04 -1.4989577024774636e-02 0.0000000000000000e+00  -5.5876316600789297e-04 -1.5127529015427760e-02 0.0000000000000000e+00  -5.4264212588840427e-04 -1.5256599053631331e-02 0.0000000000000000e+00  -5.2622563409366783e-04 -1.5375118140670198e-02 0.0000000000000000e+00  -5.1046912052257786e-04 -1.5484404751263335e-02 0.0000000000000000e+00  -4.9485914987982258e-04 -1.5586356287893550e-02 0.0000000000000000e+00  -4.7899794635754685e-04 -1.5681879645660281e-02 0.0000000000000000e+00  -4.6291020796347540e-04 -1.5771369744323901e-02 0.0000000000000000e+00  -4.4670087778983698e-04 -1.5855237789412561e-02 0.0000000000000000e+00  -4.3039776964779445e-04 -1.5933929292070294e-02 0.0000000000000000e+00  -4.1401100587477266e-04 -1.6007797243989659e-02 0.0000000000000000e+00  -3.9755532931088857e-04 -1.6077158326915329e-02 0.0000000000000000e+00  -3.8105419892091173e-04 -1.6142276618006268e-02 0.0000000000000000e+00  -3.6451720064838627e-04 -1.6203401551648188e-02 0.0000000000000000e+00  -3.4793987451526887e-04 -1.6260755286243201e-02 0.0000000000000000e+00  -3.3132078845677238e-04 -1.6314522410866530e-02 0.0000000000000000e+00  -3.1466305892000930e-04 -1.6364857671314497e-02 0.0000000000000000e+00  -2.9797593780393067e-04 -1.6411900143913319e-02 0.0000000000000000e+00  -2.8126624919770692e-04 -1.6455776860561128e-02 0.0000000000000000e+00  -2.6453616476396940e-04 -1.6496603707722005e-02 0.0000000000000000e+00  -2.4778547737721722e-04 -1.6534484544863122e-02 0.0000000000000000e+00  -2.3101599410941959e-04 -1.6569511052441893e-02 0.0000000000000000e+00  -2.1422748362548560e-04 -1.6601762843395661e-02 0.0000000000000000e+00  -1.9742169063500373e-04 -1.6631309351886062e-02 0.0000000000000000e+00  -1.8059890546879857e-04 -1.6658213602834489e-02 0.0000000000000000e+00  -1.6376177715524945e-04 -1.6682529773340740e-02 0.0000000000000000e+00  -1.4691298623971369e-04 -1.6704307819775797e-02 0.0000000000000000e+00  -1.3005453727995986e-04 -1.6723590033956768e-02 0.0000000000000000e+00  -1.1318807961616174e-04 -1.6740414749450712e-02 0.0000000000000000e+00  -9.6315053989512339e-05 -1.6754815555836348e-02 0.0000000000000000e+00  -7.9438972648017257e-05 -1.6766819051327243e-02 0.0000000000000000e+00  -6.2560483558939551e-05 -1.6776449190208667e-02 0.0000000000000000e+00  -4.5680639769090118e-05 -1.6783727855142979e-02 0.0000000000000000e+00  -2.8803416246265268e-05 -1.6788665626193064e-02 0.0000000000000000e+00  -1.1926818201519614e-05 -1.6791274520094150e-02 0.0000000000000000e+00  4.9468331381808156e-06 -1.6791560200685226e-02 0.0000000000000000e+00  2.1817908965175898e-05 -1.6789523058259481e-02 0.0000000000000000e+00  3.8686935052214817e-05 -1.6785159042396251e-02 0.0000000000000000e+00  5.5554152626315629e-05 -1.6778459338619725e-02 0.0000000000000000e+00  7.2421078196511783e-05 -1.6769409524427591e-02 0.0000000000000000e+00  8.9287754397908835e-05 -1.6757992187475718e-02 0.0000000000000000e+00  1.0615064249814332e-04 -1.6744182183158141e-02 0.0000000000000000e+00  1.2301198730084028e-04 -1.6727952782556271e-02 0.0000000000000000e+00  1.3986950271688509e-04 -1.6709270742931801e-02 0.0000000000000000e+00  1.5672148435964383e-04 -1.6688097870968963e-02 0.0000000000000000e+00  1.7356652492156514e-04 -1.6664390003109611e-02 0.0000000000000000e+00  1.9040355930103299e-04 -1.6638099071131330e-02 0.0000000000000000e+00  2.0723034808831401e-04 -1.6609166937890229e-02 0.0000000000000000e+00  2.2404429088846299e-04 -1.6577530433921257e-02 0.0000000000000000e+00  2.4084424788521736e-04 -1.6543119120898463e-02 0.0000000000000000e+00  2.5762608410536151e-04 -1.6505853385357105e-02 0.0000000000000000e+00  2.7438418763256559e-04 -1.6465645447014725e-02 0.0000000000000000e+00  2.9111167876862099e-04 -1.6422401414471561e-02 0.0000000000000000e+00  3.0780005849467113e-04 -1.6376019263382259e-02 0.0000000000000000e+00  3.2444578890306557e-04 -1.6326386345068732e-02 0.0000000000000000e+00  3.4104017122801026e-04 -1.6273375770335947e-02 0.0000000000000000e+00  3.5759941042411473e-04 -1.6216832993266296e-02 0.0000000000000000e+00  3.7414568254571991e-04 -1.6156561089552289e-02 0.0000000000000000e+00  3.9070145779892005e-04 -1.6092316815450921e-02 0.0000000000000000e+00  4.0727173814618600e-04 -1.6023824881138467e-02 0.0000000000000000e+00  4.2384473700023362e-04 -1.5950788258748988e-02 0.0000000000000000e+00  4.4040298915964048e-04 -1.5872886461136122e-02 0.0000000000000000e+00  4.5693849759232053e-04 -1.5789748727640249e-02 0.0000000000000000e+00  4.7347807603514340e-04 -1.5700902577059472e-02 0.0000000000000000e+00  4.8993924421698387e-04 -1.5605800348423165e-02 0.0000000000000000e+00  5.0610953191387051e-04 -1.5503973165082381e-02 0.0000000000000000e+00  5.2174161202654711e-04 -1.5395073238200947e-02 0.0000000000000000e+00  5.3627046348624107e-04 -1.5279361200577445e-02 0.0000000000000000e+00  5.5092614011590887e-04 -1.5156510778727856e-02 0.0000000000000000e+00  5.6829917021665130e-04 -1.5020762035759330e-02 0.0000000000000000e+00  5.8603203489793068e-04 -1.4873886559181411e-02 0.0000000000000000e+00  6.2403931898609931e-04 -1.4677212763665771e-02 0.0000000000000000e+00  6.2349696952535688e-04 -1.4461319829393334e-02 0.0000000000000000e+00  8.3334195018326110e-04 -1.3510001918204624e-02 0.0000000000000000e+00  1.8956219610111007e-05 -3.2801632251439349e-04 0.0000000000000000e+00  3.7937684682535311e-05 -3.2999832942669796e-04 0.0000000000000000e+00  5.6969435222204050e-05 -3.3330373102929587e-04 0.0000000000000000e+00  7.6077305068430611e-05 -3.3793430250087295e-04 0.0000000000000000e+00  9.5286058462847216e-05 -3.4389391801454747e-04 0.0000000000000000e+00  1.1462454996013812e-04 -3.5118587740180091e-04 0.0000000000000000e+00  1.3411400445906214e-04 -3.5981586228873373e-04 0.0000000000000000e+00  1.5378421902890137e-04 -3.6978982123840153e-04 0.0000000000000000e+00  1.7366093961517553e-04 -3.8111456969634196e-04 0.0000000000000000e+00  1.9377224973933887e-04 -3.9379790489460682e-04 0.0000000000000000e+00  2.1414516436748789e-04 -4.0784924841419227e-04 0.0000000000000000e+00  2.3480886186371685e-04 -4.2327814879188086e-04 0.0000000000000000e+00  2.5579122262705601e-04 -4.4009550158964579e-04 0.0000000000000000e+00  2.7712233434030119e-04 -4.5831320102162736e-04 0.0000000000000000e+00  2.9883250678798112e-04 -4.7794426968099309e-04 0.0000000000000000e+00  3.2095279086567547e-04 -4.9900279235794100e-04 0.0000000000000000e+00  3.4351423152710506e-04 -5.2150356063441550e-04 0.0000000000000000e+00  3.6655025908631972e-04 -5.4546300227757477e-04 0.0000000000000000e+00  3.9009266166806282e-04 -5.7089918121972004e-04 0.0000000000000000e+00  4.1417587276691703e-04 -5.9783021483966075e-04 0.0000000000000000e+00  4.3883572442900739e-04 -6.2627809555143371e-04 0.0000000000000000e+00  4.6410193872916246e-04 -6.5626137683640171e-04 0.0000000000000000e+00  4.9001561568326512e-04 -6.8780585225976091e-04 0.0000000000000000e+00  5.1661011298947382e-04 -7.2093625610897424e-04 0.0000000000000000e+00  5.4392109089620034e-04 -7.5567975538158182e-04 0.0000000000000000e+00  5.7198433920699039e-04 -7.9206595335724775e-04 0.0000000000000000e+00  6.0083579477858591e-04 -8.3012719965920416e-04 0.0000000000000000e+00  6.3051046336484653e-04 -8.6989892267018290e-04 0.0000000000000000e+00  6.6104109964422572e-04 -9.1141997030128909e-04 0.0000000000000000e+00  6.9245942250385740e-04 -9.5473368744770340e-04 0.0000000000000000e+00  7.2479573843649129e-04 -9.9988879768664416e-04 0.0000000000000000e+00  7.5807665477613023e-04 -1.0469394039686892e-03 0.0000000000000000e+00  7.9232160362017903e-04 -1.0959482405078706e-03 0.0000000000000000e+00  8.2755217096908986e-04 -1.1469866147611784e-03 0.0000000000000000e+00  8.6377484992887694e-04 -1.2001376360033333e-03 0.0000000000000000e+00  9.0099194300212969e-04 -1.2554972815903248e-03 0.0000000000000000e+00  9.3919630649688939e-04 -1.3131803154871886e-03 0.0000000000000000e+00  9.7836673207870933e-04 -1.3733218967531926e-03 0.0000000000000000e+00  1.0184658245506423e-03 -1.4360863471357436e-03 0.0000000000000000e+00  1.0594416469799559e-03 -1.5016694445711075e-03 0.0000000000000000e+00  1.1012193846941596e-03 -1.5703106353361696e-03 0.0000000000000000e+00  1.1436985112021928e-03 -1.6423012717186117e-03 0.0000000000000000e+00  1.1867486114928263e-03 -1.7180016839515311e-03 0.0000000000000000e+00  1.2302249517188826e-03 -1.7978551154487631e-03 0.0000000000000000e+00  1.2739218962245864e-03 -1.8824061746284175e-03 0.0000000000000000e+00  1.3176079331192964e-03 -1.9723412699564455e-03 0.0000000000000000e+00  1.3610211081355849e-03 -2.0685007029939222e-03 0.0000000000000000e+00  1.4038432880922958e-03 -2.1719441844816148e-03 0.0000000000000000e+00  1.4457154653278366e-03 -2.2839850498312698e-03 0.0000000000000000e+00  1.4862686205205705e-03 -2.4062764178792535e-03 0.0000000000000000e+00  1.5250165345399302e-03 -2.5409402339540339e-03 0.0000000000000000e+00  1.5615184605366420e-03 -2.6905782829878279e-03 0.0000000000000000e+00  1.5951502117957847e-03 -2.8588129012156837e-03 0.0000000000000000e+00  1.6252037106528879e-03 -3.0503187163128135e-03 0.0000000000000000e+00  1.6506134744026309e-03 -3.2718419465285801e-03 0.0000000000000000e+00  1.6694944600522176e-03 -3.5337152299682968e-03 0.0000000000000000e+00  1.6774205833585585e-03 -3.8547508289929287e-03 0.0000000000000000e+00  1.6465047942842159e-03 -4.3051647886129633e-03 0.0000000000000000e+00  0.0000000000000000e+00 -7.1348666615223005e-05 0.0000000000000000e+00  0.0000000000000000e+00 -1.3710945065233850e-04 0.0000000000000000e+00  0.0000000000000000e+00 -1.9774893731707566e-04 0.0000000000000000e+00  0.0000000000000000e+00 -2.5363040855782258e-04 0.0000000000000000e+00  0.0000000000000000e+00 -3.0499683901547318e-04 0.0000000000000000e+00  0.0000000000000000e+00 -3.5201706905086045e-04 0.0000000000000000e+00  0.0000000000000000e+00 -3.9481418217315937e-04 0.0000000000000000e+00  0.0000000000000000e+00 -4.3347800025244428e-04 0.0000000000000000e+00  0.0000000000000000e+00 -4.6804070237538178e-04 0.0000000000000000e+00  0.0000000000000000e+00 -4.9858355586445487e-04 0.0000000000000000e+00  0.0000000000000000e+00 -5.2513914449387172e-04 0.0000000000000000e+00  0.0000000000000000e+00 -5.4776454605872228e-04 0.0000000000000000e+00  0.0000000000000000e+00 -5.6653530938708188e-04 0.0000000000000000e+00  0.0000000000000000e+00 -5.8153758166001434e-04 0.0000000000000000e+00  0.0000000000000000e+00 -5.9287851210237247e-04 0.0000000000000000e+00  0.0000000000000000e+00 -6.0069030194095138e-04 0.0000000000000000e+00  0.0000000000000000e+00 -6.0513523524856913e-04 0.0000000000000000e+00  0.0000000000000000e+00 -6.0639268774505132e-04 0.0000000000000000e+00  0.0000000000000000e+00 -6.0466769959456449e-04 0.0000000000000000e+00  0.0000000000000000e+00 -6.0018507616836224e-04 0.0000000000000000e+00  0.0000000000000000e+00 -5.9319035007563477e-04 0.0000000000000000e+00  0.0000000000000000e+00 -5.8394226871256831e-04 0.0000000000000000e+00  0.0000000000000000e+00 -5.7271036896206786e-04 0.0000000000000000e+00  0.0000000000000000e+00 -5.5976877157027705e-04 0.0000000000000000e+00  0.0000000000000000e+00 -5.4539700203117642e-04 0.0000000000000000e+00  0.0000000000000000e+00 -5.2987439362258153e-04 0.0000000000000000e+00  0.0000000000000000e+00 -5.1346767311099845e-04 0.0000000000000000e+00  0.0000000000000000e+00 -4.9644218758914706e-04 0.0000000000000000e+00  0.0000000000000000e+00 -4.7904709098096411e-04 0.0000000000000000e+00  0.0000000000000000e+00 -4.6151712195779574e-04 0.0000000000000000e+00  0.0000000000000000e+00 -4.4407111408836081e-04 0.0000000000000000e+00  0.0000000000000000e+00 -4.2690804239870357e-04 0.0000000000000000e+00  0.0000000000000000e+00 -4.1020791163735181e-04 0.0000000000000000e+00  0.0000000000000000e+00 -3.9413202576903366e-04 0.0000000000000000e+00  0.0000000000000000e+00 -3.7882101575780391e-04 0.0000000000000000e+00  0.0000000000000000e+00 -3.6439644583174404e-04 0.0000000000000000e+00  0.0000000000000000e+00 -3.5095641476244827e-04 0.0000000000000000e+00  0.0000000000000000e+00 -3.3858827591377687e-04 0.0000000000000000e+00  0.0000000000000000e+00 0.0000000000000000e+00 0.0000000000000000e+00  0.0000000000000000e+00 0.0000000000000000e+00 0.0000000000000000e+00  0.0000000000000000e+00 0.0000000000000000e+00 0.0000000000000000e+00  0.0000000000000000e+00 0.0000000000000000e+00 0.0000000000000000e+00  0.0000000000000000e+00 0.0000000000000000e+00 0.0000000000000000e+00  0.0000000000000000e+00 0.0000000000000000e+00 0.0000000000000000e+00  0.0000000000000000e+00 0.0000000000000000e+00 0.0000000000000000e+00  0.0000000000000000e+00 0.0000000000000000e+00 0.0000000000000000e+00  0.0000000000000000e+00 0.0000000000000000e+00 0.0000000000000000e+00  0.0000000000000000e+00 0.0000000000000000e+00 0.0000000000000000e+00  0.0000000000000000e+00 0.0000000000000000e+00 0.0000000000000000e+00  0.0000000000000000e+00 0.0000000000000000e+00 0.0000000000000000e+00  0.0000000000000000e+00 0.0000000000000000e+00 0.0000000000000000e+00  0.0000000000000000e+00 0.0000000000000000e+00 0.0000000000000000e+00  0.0000000000000000e+00 0.0000000000000000e+00 0.0000000000000000e+00  0.0000000000000000e+00 0.0000000000000000e+00 0.0000000000000000e+00  0.0000000000000000e+00 0.0000000000000000e+00 0.0000000000000000e+00  0.0000000000000000e+00 0.0000000000000000e+00 0.0000000000000000e+00  0.0000000000000000e+00 -3.3897526000113958e-04 0.0000000000000000e+00  0.0000000000000000e+00 -3.5146191529646689e-04 0.0000000000000000e+00  0.0000000000000000e+00 -3.6503138532258621e-04 0.0000000000000000e+00  0.0000000000000000e+00 -3.7958696450312912e-04 0.0000000000000000e+00  0.0000000000000000e+00 -3.9502959523640777e-04 0.0000000000000000e+00  0.0000000000000000e+00 -4.1123172667198660e-04 0.0000000000000000e+00  0.0000000000000000e+00 -4.2804829777573939e-04 0.0000000000000000e+00  0.0000000000000000e+00 -4.4531454460732455e-04 0.0000000000000000e+00  0.0000000000000000e+00 -4.6284637804234688e-04 0.0000000000000000e+00  0.0000000000000000e+00 -4.8043934589488759e-04 0.0000000000000000e+00  0.0000000000000000e+00 -4.9787380406956443e-04 0.0000000000000000e+00  0.0000000000000000e+00 -5.1490706278193449e-04 0.0000000000000000e+00  0.0000000000000000e+00 -5.3129313980322744e-04 0.0000000000000000e+00  0.0000000000000000e+00 -5.4676517874810210e-04 0.0000000000000000e+00  0.0000000000000000e+00 -5.6105263661051629e-04 0.0000000000000000e+00  0.0000000000000000e+00 -5.7387692434402587e-04 0.0000000000000000e+00  0.0000000000000000e+00 -5.8496172908362697e-04 0.0000000000000000e+00  0.0000000000000000e+00 -5.9403648952468114e-04 0.0000000000000000e+00  0.0000000000000000e+00 -6.0083209769647150e-04 0.0000000000000000e+00  0.0000000000000000e+00 -6.0509438457192317e-04 0.0000000000000000e+00  0.0000000000000000e+00 -6.0658546551863512e-04 0.0000000000000000e+00  0.0000000000000000e+00 -6.0508503215363294e-04 0.0000000000000000e+00  0.0000000000000000e+00 -6.0039353611325271e-04 0.00000000000