<?xml version="1.0"?>
<VTKFile type="UnstructuredGrid"  version="0.1"  >
<UnstructuredGrid>
<Piece  NumberOfPoints="3167" NumberOfCells="6038">
<Points>
<DataArray  type="Float64"  NumberOfComponents="3"  format="ascii">2.2 2.9 0  0 2.9 0  2.8 2.9 0  5 2.9 0  5 0 0  0 0 0  2.16271186440678 2.9 0  2.125423728813559 2.9 0  2.088135593220339 2.9 0  2.050847457627119 2.9 0  2.013559322033898 2.9 0  1.976271186440678 2.9 0  1.938983050847457 2.9 0  1.901694915254237 2.9 0  1.864406779661016 2.9 0  1.827118644067796 2.9 0  1.789830508474575 2.9 0  1.752542372881355 2.9 0  1.715254237288134 2.9 0  1.677966101694914 2.9 0  1.640677966101693 2.9 0  1.603389830508473 2.9 0  1.566101694915253 2.9 0  1.528813559322032 2.9 0  1.491525423728812 2.9 0  1.454237288135591 2.9 0  1.416949152542371 2.9 0  1.37966101694915 2.9 0  1.34237288135593 2.9 0  1.305084745762709 2.9 0  1.267796610169489 2.9 0  1.230508474576268 2.9 0  1.193220338983048 2.9 0  1.155932203389827 2.9 0  1.118644067796607 2.9 0  1.081355932203387 2.9 0  1.044067796610166 2.9 0  1.006779661016946 2.9 0  0.9694915254237257 2.9 0  0.9322033898305055 2.9 0  0.8949152542372856 2.9 0  0.8576271186440652 2.9 0  0.820338983050845 2.9 0  0.783050847457625 2.9 0  0.7457627118644048 2.9 0  0.7084745762711844 2.9 0  0.6711864406779642 2.9 0  0.633898305084744 2.9 0  0.5966101694915238 2.9 0  0.5593220338983036 2.9 0  0.5220338983050834 2.9 0  0.4847457627118632 2.9 0  0.447457627118643 2.9 0  0.4101694915254228 2.9 0  0.3728813559322024 2.9 0  0.3355932203389822 2.9 0  0.2983050847457622 2.9 0  0.2610169491525418 2.9 0  0.2237288135593216 2.9 0  0.1864406779661016 2.9 0  0.1491525423728812 2.9 0  0.1118644067796613 2.9 0  0.07457627118644039 2.9 0  0.03728813559321997 2.9 0  2.792405063291139 2.9 0  2.784810126582279 2.9 0  2.777215189873418 2.9 0  2.769620253164557 2.9 0  2.762025316455697 2.9 0  2.754430379746836 2.9 0  2.746835443037975 2.9 0  2.739240506329114 2.9 0  2.731645569620254 2.9 0  2.724050632911393 2.9 0  2.716455696202532 2.9 0  2.708860759493671 2.9 0  2.701265822784811 2.9 0  2.69367088607595 2.9 0  2.686075949367089 2.9 0  2.678481012658228 2.9 0  2.670886075949368 2.9 0  2.663291139240507 2.9 0  2.655696202531646 2.9 0  2.648101265822786 2.9 0  2.640506329113925 2.9 0  2.632911392405064 2.9 0  2.625316455696203 2.9 0  2.617721518987342 2.9 0  2.610126582278482 2.9 0  2.602531645569621 2.9 0  2.59493670886076 2.9 0  2.587341772151899 2.9 0  2.579746835443038 2.9 0  2.572151898734178 2.9 0  2.564556962025317 2.9 0  2.556962025316456 2.9 0  2.549367088607595 2.9 0  2.541772151898734 2.9 0  2.534177215189874 2.9 0  2.526582278481013 2.9 0  2.518987341772152 2.9 0  2.511392405063292 2.9 0  2.503797468354431 2.9 0  2.49620253164557 2.9 0  2.488607594936709 2.9 0  2.481012658227848 2.9 0  2.473417721518988 2.9 0  2.465822784810127 2.9 0  2.458227848101266 2.9 0  2.450632911392406 2.9 0  2.443037974683545 2.9 0  2.435443037974684 2.9 0  2.427848101265823 2.9 0  2.420253164556962 2.9 0  2.412658227848102 2.9 0  2.405063291139241 2.9 0  2.39746835443038 2.9 0  2.389873417721519 2.9 0  2.382278481012658 2.9 0  2.374683544303798 2.9 0  2.367088607594937 2.9 0  2.359493670886076 2.9 0  2.351898734177215 2.9 0  2.344303797468355 2.9 0  2.336708860759494 2.9 0  2.329113924050633 2.9 0  2.321518987341773 2.9 0  2.313924050632912 2.9 0  2.306329113924051 2.9 0  2.29873417721519 2.9 0  2.291139240506329 2.9 0  2.283544303797469 2.9 0  2.275949367088608 2.9 0  2.268354430379747 2.9 0  2.260759493670887 2.9 0  2.253164556962026 2.9 0  2.245569620253165 2.9 0  2.237974683544304 2.9 0  2.230379746835443 2.9 0  2.222784810126583 2.9 0  2.215189873417722 2.9 0  2.207594936708861 2.9 0  4.96271186440678 2.9 0  4.925423728813559 2.9 0  4.888135593220339 2.9 0  4.850847457627118 2.9 0  4.813559322033898 2.9 0  4.776271186440677 2.9 0  4.738983050847457 2.9 0  4.701694915254237 2.9 0  4.664406779661016 2.9 0  4.627118644067796 2.9 0  4.589830508474575 2.9 0  4.552542372881355 2.9 0  4.515254237288135 2.9 0  4.477966101694914 2.9 0  4.440677966101694 2.9 0  4.403389830508473 2.9 0  4.366101694915252 2.9 0  4.328813559322032 2.9 0  4.291525423728811 2.9 0  4.254237288135591 2.9 0  4.21694915254237 2.9 0  4.17966101694915 2.9 0  4.14237288135593 2.9 0  4.105084745762709 2.9 0  4.067796610169489 2.9 0  4.030508474576268 2.9 0  3.993220338983048 2.9 0  3.955932203389827 2.9 0  3.918644067796607 2.9 0  3.881355932203387 2.9 0  3.844067796610166 2.9 0  3.806779661016946 2.9 0  3.769491525423725 2.9 0  3.732203389830505 2.9 0  3.694915254237285 2.9 0  3.657627118644065 2.9 0  3.620338983050845 2.9 0  3.583050847457625 2.9 0  3.545762711864405 2.9 0  3.508474576271184 2.9 0  3.471186440677964 2.9 0  3.433898305084744 2.9 0  3.396610169491524 2.9 0  3.359322033898303 2.9 0  3.322033898305083 2.9 0  3.284745762711863 2.9 0  3.247457627118643 2.9 0  3.210169491525423 2.9 0  3.172881355932202 2.9 0  3.135593220338982 2.9 0  3.098305084745762 2.9 0  3.061016949152542 2.9 0  3.023728813559321 2.9 0  2.986440677966101 2.9 0  2.949152542372881 2.9 0  2.911864406779661 2.9 0  2.87457627118644 2.9 0  2.83728813559322 2.9 0  5 0.1063822625082082 0  5 0.210636880010749 0  5 0.3128064053694972 0  5 0.4129325400644018 0  5 0.5110561521032336 0  5 0.6072172918830103 0  5 0.7014552087832795 0  5 0.7938083674443693 0  5 0.88431446261646 0  5 0.9730104359544682 0  5 1.059932489996267 0  5 1.145116102913299 0  5 1.228596043483191 0  5 1.310406385079062 0  5 1.390580519944147 0  5 1.469151172477827 0  5 1.546150411986101 0  5 1.621609666658609 0  5 1.695559736099044 0  5 1.76803080383987 0  5 1.839052450169751 0  5 1.908653663631169 0  5 1.97686285289587 0  5 2.043707858613779 0  5 2.109215964341413 0  5 2.173413907925942 0  5 2.236327892833935 0  5 2.297983597762904 0  5 2.35840618845912 0  5 2.41762032730194 0  5 2.475650183444628 0  5 2.532519442457069 0  5 2.588251316112828 0  5 2.642868552557322 0  5 2.696393444426347 0  5 2.748847838312051 0  5 2.800253144313381 0  5 2.850630344319807 0  0.2631578947368421 0 0  0.5263157894736842 0 0  0.7894736842105263 0 0  1.052631578947368 0 0  1.31578947368421 0 0  1.578947368421053 0 0  1.842105263157895 0 0  2.105263157894737 0 0  2.368421052631579 0 0  2.631578947368421 0 0  2.894736842105263 0 0  3.157894736842105 0 0  3.421052631578947 0 0  3.684210526315789 0 0  3.947368421052632 0 0  4.210526315789473 0 0  4.473684210526315 0 0  4.736842105263158 0 0  0 2.850203682350569 0  0 2.799411438503675 0  0 2.747603349778291 0  0 2.694759099502208 0  0 2.640857964382145 0  0 2.58587880633613 0  0 2.52980006535898 0  0 2.472599749459174 0  0 2.414255427218689 0  0 2.35474421880616 0  0 2.294042786119219 0  0 2.232127324764723 0  0 2.1689735539481 0  0 2.104556707683347 0  0 2.038851524813415 0  0 1.971832238155655 0  0 1.903472565412126 0  0 1.83374569926617 0  0 1.762624296208475 0  0 1.690080464918761 0  0 1.616085756774206 0  0 1.540611154706337 0  0 1.463627060685571 0  0 1.385103284916206 0  0 1.305009033716617 0  0 1.223312897337225 0  0 1.139982838163732 0  0 1.054986177579938 0  0 0.9682895835804817 0  0 0.8798590579197976 0  0 0.7896599218415354 0  0 0.6976568029903638 0  0 0.6038136217958798 0  0 0.508093576867624 0  0 0.4104591310957497 0  0 0.3108719963522191 0  0 0.2092931188294389 0  0 0.1056826638508546 0  1.434832105763824 2.866945754981483 0  1.737156300467626 2.870039440267515 0  2.032203389830508 2.867707527316512 0  2.332911392405064 2.893422591869991 0  2.469810913293406 2.891944186606167 0  2.606221408823969 2.892519154985628 0  2.255455320628894 2.892068685006691 0  2.538247299216212 2.894964578182811 0  2.674683544303798 2.893422591869991 0  2.40126582278481 2.893422591869991 0  3.566125247295424 2.865029336199714 0  3.266101694915253 2.867707527316512 0  2.967796610169491 2.867707527316512 0  1.174288529834642 2.870795313888584 0  3.825423728813556 2.867707527316512 0  2.727766680262011 2.892655387647729 0  0.06601655192030442 1.502119107695954 0  4.933983535508361 1.507650792231964 0  0.9532124728485543 2.868722489783638 0  4.048935912500257 2.870640982995992 0  0.05930163367361763 1.866907161167414 0  4.943402512618553 1.871280731473148 0  4.271733870017743 2.86520865624265 0  0.7249420921613114 2.863922936177041 0  0.05494499779910056 2.196469063120752 0  4.947228695426367 2.208030108792719 0  0.5406152150397161 2.866493807382013 0  4.459322033898304 2.868847558178794 0  2.18135593220339 2.875780645487384 0  2.817027156509632 2.876587550645167 0  4.928427208322876 1.186856073198245 0  0.07189226971603224 1.174626666111662 0  4.610299014423113 2.867003104093161 0  0.3897270066746357 2.869433095314657 0  1.581132500042262 2.868247328632392 0  1.887637879411437 2.869235851794358 0  3.413449426418068 2.867372048034327 0  3.116721298814773 2.865731235547652 0  2.644303797468355 2.893422591869991 0  2.370983221828106 2.892719513369796 0  2.302531645569621 2.893336787387268 0  2.758987341772152 2.894242393897099 0  0.04979653335696277 2.443411216910286 0  4.950470983477169 2.446866954595817 0  2.482937483021586 0.2513241087417575 0  1.707129504814338 0.1999998659920923 0  3.28584657955054 0.229200625631625 0  4.907807122600524 0.834082362900164 0  4.757627118644067 2.867707527316512 0  0.0773489124676745 0.8347594898806663 0  0.2390604736599387 2.861365431805741 0  0.8363213715215729 2.863896768908178 0  4.160865610207075 2.868916854015731 0  1.282549332053297 2.867610952980761 0  1.065094818402487 2.861284686038041 0  3.93818127737282 2.86865134411395 0  3.711492629432973 2.863574306925269 0  4.91369361998929 0.5579891344254361 0  0.08208328472281323 0.5559535993317519 0  2.696596932532885 2.892010483922337 0  0.04706410140274553 2.613055974506516 0  4.955577063972248 2.616518038840186 0  2.234177215189874 2.893422591869991 0  2.279795840559739 2.89403861893984 0  0.9117357887652362 0.2117925286661764 0  4.055948041993057 0.2039101057937727 0  4.872119713780579 2.867632926423075 0  2.780113878992455 2.891535929611743 0  0.1327442468251063 2.85
[...]
<PointData  Vectors="displacement"> 
<DataArray  type="Float64"  Name="displacement"  NumberOfComponents="3" format="ascii">1.1424808126865779e-03 -5.9784562035780668e-03 0.0000000000000000e+00  0.0000000000000000e+00 -2.4616729392331780e-04 0.0000000000000000e+00  -1.1440495958228080e-03 -5.9787013886085953e-03 0.0000000000000000e+00  0.0000000000000000e+00 -2.4616758807127266e-04 0.0000000000000000e+00  0.0000000000000000e+00 0.0000000000000000e+00 0.0000000000000000e+00  0.0000000000000000e+00 0.0000000000000000e+00 0.0000000000000000e+00  1.1324314483861506e-03 -5.2910423962643054e-03 0.0000000000000000e+00  1.1097333368294451e-03 -4.8374125321815802e-03 0.0000000000000000e+00  1.0873444542085556e-03 -4.4723740041487216e-03 0.0000000000000000e+00  1.0650828076878753e-03 -4.1610828231855475e-03 0.0000000000000000e+00  1.0428513350651605e-03 -3.8879746497578146e-03 0.0000000000000000e+00  1.0206663919303319e-03 -3.6440670277698571e-03 0.0000000000000000e+00  9.9855115974078839e-04 -3.4234847103941602e-03 0.0000000000000000e+00  9.7651051879252878e-04 -3.2221313379302932e-03 0.0000000000000000e+00  9.5456699736978735e-04 -3.0369619936042084e-03 0.0000000000000000e+00  9.3271257468346264e-04 -2.8657058550948969e-03 0.0000000000000000e+00  9.1095391857470267e-04 -2.7065975972888688e-03 0.0000000000000000e+00  8.8929601344724053e-04 -2.5581948385638292e-03 0.0000000000000000e+00  8.6774722616794135e-04 -2.4193156455136092e-03 0.0000000000000000e+00  8.4630727951276268e-04 -2.2889951201018389e-03 0.0000000000000000e+00  8.2498110675587196e-04 -2.1664257284570495e-03 0.0000000000000000e+00  8.0377122024743292e-04 -2.0509166851571505e-03 0.0000000000000000e+00  7.8268210744285045e-04 -1.9418768207779672e-03 0.0000000000000000e+00  7.6171145905299721e-04 -1.8387937385322029e-03 0.0000000000000000e+00  7.4086536896433180e-04 -1.7412188253505755e-03 0.0000000000000000e+00  7.2014524897716966e-04 -1.6487615823911959e-03 0.0000000000000000e+00  6.9955287929363127e-04 -1.5610774703232828e-03 0.0000000000000000e+00  6.7908897359412622e-04 -1.4778607506047477e-03 0.0000000000000000e+00  6.5875582478709172e-04 -1.3988338645354963e-03 0.0000000000000000e+00  6.3855187315964789e-04 -1.3237530266625550e-03 0.0000000000000000e+00  6.1847934966517519e-04 -1.2523995486083323e-03 0.0000000000000000e+00  5.9853881941200702e-04 -1.1845721131909421e-03 0.0000000000000000e+00  5.7872979412038734e-04 -1.1200875112189455e-03 0.0000000000000000e+00  5.5905028007212604e-04 -1.0587841589842269e-03 0.0000000000000000e+00  5.3950379960201610e-04 -1.0005115177461148e-03 0.0000000000000000e+00  5.2008368741416234e-04 -9.4512887314169181e-04 0.0000000000000000e+00  5.0079329042770925e-04 -8.9251239805161297e-04 0.0000000000000000e+00  4.8163012983256514e-04 -8.4254778564827389e-04 0.0000000000000000e+00  4.6259075403145628e-04 -7.9513018783792014e-04 0.0000000000000000e+00  4.4367473644722489e-04 -7.5015746692323770e-04 0.0000000000000000e+00  4.2487904768073335e-04 -7.0754237000772012e-04 0.0000000000000000e+00  4.0620176973654232e-04 -6.6720047098699599e-04 0.0000000000000000e+00  3.8763938212354955e-04 -6.2905416756697753e-04 0.0000000000000000e+00  3.6918925449117929e-04 -5.9303376231814077e-04 0.0000000000000000e+00  3.5084803068739058e-04 -5.5907245492441235e-04 0.0000000000000000e+00  3.3261202488818719e-04 -5.2710960549804157e-04 0.0000000000000000e+00  3.1447754401833723e-04 -4.9708907026874507e-04 0.0000000000000000e+00  2.9644068977315361e-04 -4.6895885117803160e-04 0.0000000000000000e+00  2.7849689001825450e-04 -4.4267076525843273e-04 0.0000000000000000e+00  2.6064211223185261e-04 -4.1818109279129022e-04 0.0000000000000000e+00  2.4287158166193547e-04 -3.9544880058882420e-04 0.0000000000000000e+00  2.2518061124768925e-04 -3.7443686754559365e-04 0.0000000000000000e+00  2.0756421236419229e-04 -3.5511115412087841e-04 0.0000000000000000e+00  1.9001731222651711e-04 -3.3744080377225274e-04 0.0000000000000000e+00  1.7253458419047335e-04 -3.2139753325607890e-04 0.0000000000000000e+00  1.5511058914168314e-04 -3.0695620263240054e-04 0.0000000000000000e+00  1.3774034772229726e-04 -2.9409435793932982e-04 0.0000000000000000e+00  1.2041716322423789e-04 -2.8279152326504128e-04 0.0000000000000000e+00  1.0313603914940878e-04 -2.7303038314458952e-04 0.0000000000000000e+00  8.5891145188772458e-05 -2.6479629063532107e-04 0.0000000000000000e+00  6.8676874279392417e-05 -2.5807638639015136e-04 0.0000000000000000e+00  5.1486119560022867e-05 -2.5286023477572820e-04 0.0000000000000000e+00  3.4313843944948046e-05 -2.4914002852185758e-04 0.0000000000000000e+00  1.7153808624155038e-05 -2.4691018206300197e-04 0.0000000000000000e+00  -1.1278111352578299e-03 -6.1878038585884273e-03 0.0000000000000000e+00  -1.0974626907633187e-03 -6.3385633818104038e-03 0.0000000000000000e+00  -1.0677759893722738e-03 -6.4673721788073828e-03 0.0000000000000000e+00  -1.0382342210065066e-03 -6.5824614757948050e-03 0.0000000000000000e+00  -1.0088988861753705e-03 -6.6874721767771379e-03 0.0000000000000000e+00  -9.7959017915354683e-04 -6.7843627139282242e-03 0.0000000000000000e+00  -9.5030147849832123e-04 -6.8744535300989725e-03 0.0000000000000000e+00  -9.2102554446988867e-04 -6.9586261946099218e-03 0.0000000000000000e+00  -8.9175021081334374e-04 -7.0375537570144140e-03 0.0000000000000000e+00  -8.6248496881100414e-04 -7.1117673381737951e-03 0.0000000000000000e+00  -8.3322758559797676e-04 -7.1816824491220798e-03 0.0000000000000000e+00  -8.0397233502306497e-04 -7.2476348185496363e-03 0.0000000000000000e+00  -7.7472017703221030e-04 -7.3099073835938460e-03 0.0000000000000000e+00  -7.4547122798850822e-04 -7.3687315863891515e-03 0.0000000000000000e+00  -7.1622189143272328e-04 -7.4243035961173405e-03 0.0000000000000000e+00  -6.8697638065980896e-04 -7.4768005521115297e-03 0.0000000000000000e+00  -6.5773250321667770e-04 -7.5263690068309843e-03 0.0000000000000000e+00  -6.2849043535174586e-04 -7.5731374052472001e-03 0.0000000000000000e+00  -5.9924981531810616e-04 -7.6172199185959360e-03 0.0000000000000000e+00  -5.7001038492961859e-04 -7.6587164691524759e-03 0.0000000000000000e+00  -5.4077216661166394e-04 -7.6977159388187692e-03 0.0000000000000000e+00  -5.1153511827187019e-04 -7.7342973939784473e-03 0.0000000000000000e+00  -4.8229899942167480e-04 -7.7685308325907716e-03 0.0000000000000000e+00  -4.5306395614475129e-04 -7.8004794428773519e-03 0.0000000000000000e+00  -4.2382981122119826e-04 -7.8301996294365649e-03 0.0000000000000000e+00  -3.9459647249573616e-04 -7.8577411986778829e-03 0.0000000000000000e+00  -3.6536427761893291e-04 -7.8831492190446998e-03 0.0000000000000000e+00  -3.3613227877371039e-04 -7.9064633709467081e-03 0.0000000000000000e+00  -3.0690104600089878e-04 -7.9277199021772771e-03 0.0000000000000000e+00  -2.7767052671004596e-04 -7.9469503692738662e-03 0.0000000000000000e+00  -2.4844058189633277e-04 -7.9641828476857742e-03 0.0000000000000000e+00  -2.1921101776388921e-04 -7.9794417304997860e-03 0.0000000000000000e+00  -1.8998186132437305e-04 -7.9927484638456312e-03 0.0000000000000000e+00  -1.6075317354061457e-04 -8.0041213925510172e-03 0.0000000000000000e+00  -1.3152453616327068e-04 -8.0135755066246608e-03 0.0000000000000000e+00  -1.0229666138074659e-04 -8.0211240978465843e-03 0.0000000000000000e+00  -7.3068488915016381e-05 -8.0267769019785312e-03 0.0000000000000000e+00  -4.3840556312371217e-05 -8.0305412078562049e-03 0.0000000000000000e+00  -1.4612811831296937e-05 -8.0324221558854929e-03 0.0000000000000000e+00  1.4614935555045600e-05 -8.0324221196914850e-03 0.0000000000000000e+00  4.3842709379578399e-05 -8.0305410869617958e-03 0.0000000000000000e+00  7.3070570136343061e-05 -8.0267766302500963e-03 0.0000000000000000e+00  1.0229857580474369e-04 -8.0211238861561916e-03 0.0000000000000000e+00  1.3152671067056434e-04 -8.0135752621839761e-03 0.0000000000000000e+00  1.6075519324614676e-04 -8.0041207352512019e-03 0.0000000000000000e+00  1.8998391498473323e-04 -7.9927479185069629e-03 0.0000000000000000e+00  2.1921302863981280e-04 -7.9794412054611016e-03 0.0000000000000000e+00  2.4844255075824200e-04 -7.9641822522634447e-03 0.0000000000000000e+00  2.7767264035644627e-04 -7.9469498038009460e-03 0.0000000000000000e+00  3.0690316752886261e-04 -7.9277191612668347e-03 0.0000000000000000e+00  3.3613433065787931e-04 -7.9064626441637635e-03 0.0000000000000000e+00  3.6536638038751700e-04 -7.8831482485072820e-03 0.0000000000000000e+00  3.9459878405240950e-04 -7.8577402002262056e-03 0.0000000000000000e+00  4.2383212183993188e-04 -7.8301988375578911e-03 0.0000000000000000e+00  4.5306630640274358e-04 -7.8004789062366044e-03 0.0000000000000000e+00  4.8230143184814533e-04 -7.7685302452900895e-03 0.0000000000000000e+00  5.1153740826855455e-04 -7.7342965865275504e-03 0.0000000000000000e+00  5.4077497664312374e-04 -7.6977154636204397e-03 0.0000000000000000e+00  5.7001370037536401e-04 -7.6587150789330380e-03 0.0000000000000000e+00  5.9925342989927525e-04 -7.6172185170376629e-03 0.0000000000000000e+00  6.2849441519902268e-04 -7.5731358896387593e-03 0.0000000000000000e+00  6.5773701797487694e-04 -7.5263671543033157e-03 0.0000000000000000e+00  6.8698126543232719e-04 -7.4767986491549822e-03 0.0000000000000000e+00  7.1622747391241468e-04 -7.4243008544303095e-03 0.0000000000000000e+00  7.4547575790579758e-04 -7.3687261070072953e-03 0.0000000000000000e+00  7.7472691929715033e-04 -7.3099024741550347e-03 0.0000000000000000e+00  8.0397970358586754e-04 -7.2476302733363368e-03 0.0000000000000000e+00  8.3323563452898707e-04 -7.1816749936781821e-03 0.0000000000000000e+00  8.6249725422446444e-04 -7.1117627727288607e-03 0.0000000000000000e+00  8.9176063215078713e-04 -7.0375476322793078e-03 0.0000000000000000e+00  9.2102892674264330e-04 -6.9586121153237162e-03 0.0000000000000000e+00  9.5030932039188564e-04 -6.8744414706173821e-03 0.0000000000000000e+00  9.7960738219869583e-04 -6.7843699009028620e-03 0.0000000000000000e+00  1.0089114293418465e-03 -6.6874530892641381e-03 0.0000000000000000e+00  1.0382323348777417e-03 -6.5824145143355758e-03 0.0000000000000000e+00  1.0675332611843160e-03 -6.4673605795926440e-03 0.0000000000000000e+00  1.0976567185620400e-03 -6.3389904272140628e-03 0.0000000000000000e+00  1.1276508570072343e-03 -6.1873264687881784e-03 0.0000000000000000e+00  -1.7153942910870382e-05 -2.4691041450349314e-04 0.0000000000000000e+00  -3.4313979632994199e-05 -2.4914029189821818e-04 0.0000000000000000e+00  -5.1486150112507285e-05 -2.5286041626154985e-04 0.0000000000000000e+00  -6.8676563544047329e-05 -2.5807653128699014e-04 0.0000000000000000e+00  -8.5891175362828108e-05 -2.6479645619474689e-04 0.0000000000000000e+00  -1.0313631316905075e-04 -2.7303080420456281e-04 0.0000000000000000e+00  -1.2041713653151601e-04 -2.8279165727189854e-04 0.0000000000000000e+00  -1.3774009502457100e-04 -2.9409438145315309e-04 0.0000000000000000e+00  -1.5511066639210648e-04 -3.0695638845063520e-04 0.0000000000000000e+00  -1.7253462177919235e-04 -3.2139780385257984e-04 0.0000000000000000e+00  -1.9001731733224111e-04 -3.3744107328460875e-04 0.0000000000000000e+00  -2.0756429717660676e-04 -3.5511152029858262e-04 0.0000000000000000e+00  -2.2518066777754196e-04 -3.7443722347550002e-04 0.0000000000000000e+00  -2.4287159511649265e-04 -3.9544915927837627e-04 0.0000000000000000e+00  -2.6064206752305860e-04 -4.1818137030980783e-04 0.0000000000000000e+00  -2.7849683310342553e-04 -4.4267110202870445e-04 0.0000000000000000e+00  -2.9644052753804968e-04 -4.6895893126607072e-04 0.0000000000000000e+00  -3.1447757535125104e-04 -4.9708943008377527e-04 0.0000000000000000e+00  -3.3261192011670951e-04 -5.2711007042737271e-04 0.0000000000000000e+00  -3.5084795780533146e-04 -5.5907314407028369e-04 0.0000000000000000e+00  -3.6918975404051196e-04 -5.9303471954755434e-04 0.0000000000000000e+00  -3.8763916938747671e-04 -6.2905470258028397e-04 0.0000000000000000e+00  -4.0620155558161286e-04 -6.6720043551153456e-04 0.0000000000000000e+00  -4.2487895909233475e-04 -7.0754258863244099e-04 0.0000000000000000e+00  -4.4367443411241287e-04 -7.5015804295362548e-04 0.0000000000000000e+00  -4.6259046403491431e-04 -7.9513010797725118e-04 0.0000000000000000e+00  -4.8162942433281912e-04 -8.4254917045923543e-04 0.0000000000000000e+00  -5.0079319996393671e-04 -8.9251314184990991e-04 0.0000000000000000e+00  -5.2008385866735398e-04 -9.4512843401130665e-04 0.0000000000000000e+00  -5.3950267701349819e-04 -1.0005101130153085e-03 0.0000000000000000e+00  -5.5905070468413999e-04 -1.0587842001782389e-03 0.0000000000000000e+00  -5.7872867840696139e-04 -1.1200875397963884e-03 0.0000000000000000e+00  -5.9854077760149247e-04 -1.1845717494767829e-03 0.0000000000000000e+00  -6.1847908333810954e-04 -1.2524001015976627e-03 0.0000000000000000e+00  -6.3855161385707878e-04 -1.3237550823369808e-03 0.0000000000000000e+00  -6.5875516359084803e-04 -1.3988345526331249e-03 0.0000000000000000e+00  -6.7908966255697631e-04 -1.4778598566416615e-03 0.0000000000000000e+00  -6.9955281840844517e-04 -1.5610773094026961e-03 0.0000000000000000e+00  -7.2014488816193357e-04 -1.6487612523911396e-03 0.0000000000000000e+00  -7.4086470811285008e-04 -1.7412178694436991e-03 0.0000000000000000e+00  -7.6171092689990521e-04 -1.8387925499832865e-03 0.0000000000000000e+00  -7.8268016727880963e-04 -1.9418780528031837e-03 0.0000000000000000e+00  -8.0377266769331222e-04 -2.0509194673804434e-03 0.0000000000000000e+00  -8.2498343697661673e-04 -2.1664274748825893e-03 0.0000000000000000e+00  -8.4630798077326634e-04 -2.2889939747506830e-03 0.0000000000000000e+00  -8.6774457918509945e-04 -2.4193127888048047e-03 0.0000000000000000e+00  -8.8929420822814382e-04 -2.5581920705895567e-03 0.0000000000000000e+00  -9.1095148153589039e-04 -2.7066041208226011e-03 0.0000000000000000e+00  -9.3271055106802824e-04 -2.8657168988151047e-03 0.0000000000000000e+00  -9.5457016266066008e-04 -3.0369534826526624e-03 0.0000000000000000e+00  -9.7651290651753326e-04 -3.2221336166161044e-03 0.0000000000000000e+00  -9.9856051299665677e-04 -3.4234738737526889e-03 0.0000000000000000e+00  -1.0206659841131170e-03 -3.6440729851363839e-03 0.0000000000000000e+00  -1.0428329391197711e-03 -3.8879979060832378e-03 0.0000000000000000e+00  -1.0650635101123265e-03 -4.1610816681855118e-03 0.0000000000000000e+00  -1.0874502492329320e-03 -4.4723572720209558e-03 0.0000000000000000e+00  -1.1094500313927949e-03 -4.8375859110559626e-03 0.0000000000000000e+00  -1.1326474223183611e-03 -5.2907252785115233e-03 0.0000000000000000e+00  0.0000000000000000e+00 -4.7774103083168155e-05 0.0000000000000000e+00  0.0000000000000000e+00 -8.9241588441529710e-05 0.0000000000000000e+00  0.0000000000000000e+00 -1.2517427188967967e-04 0.0000000000000000e+00  0.0000000000000000e+00 -1.5622961423449673e-04 0.0000000000000000e+00  0.0000000000000000e+00 -1.8290723927161001e-04 0.0000000000000000e+00  0.0000000000000000e+00 -2.0561830066875389e-04 0.0000000000000000e+00  0.0000000000000000e+00 -2.2470688106461108e-04 0.0000000000000000e+00  0.0000000000000000e+00 -2.4046749350883144e-04 0.0000000000000000e+00  0.0000000000000000e+00 -2.5313408611301068e-04 0.0000000000000000e+00  0.0000000000000000e+00 -2.6296369032010008e-04 0.0000000000000000e+00  0.0000000000000000e+00 -2.7016380096532301e-04 0.0000000000000000e+00  0.0000000000000000e+00 -2.7494998634982254e-04 0.0000000000000000e+00  0.0000000000000000e+00 -2.7754237670724096e-04 0.0000000000000000e+00  0.0000000000000000e+00 -2.7815836172881457e-04 0.0000000000000000e+00  0.0000000000000000e+00 -2.7702111256533603e-04 0.0000000000000000e+00  0.0000000000000000e+00 -2.7436021035163257e-04 0.0000000000000000e+00  0.0000000000000000e+00 -2.7041324482459311e-04 0.0000000000000000e+00  0.0000000000000000e+00 -2.6541732154260775e-04 0.0000000000000000e+00  0.0000000000000000e+00 -2.5961187875621643e-04 0.0000000000000000e+00  0.0000000000000000e+00 -2.5323575041796928e-04 0.0000000000000000e+00  0.0000000000000000e+00 -2.4652402423056393e-04 0.0000000000000000e+00  0.0000000000000000e+00 -2.3970307100945831e-04 0.0000000000000000e+00  0.0000000000000000e+00 -2.3299156280318136e-04 0.0000000000000000e+00  0.0000000000000000e+00 -2.2658863986399895e-04 0.0000000000000000e+00  0.0000000000000000e+00 -2.2068448391687848e-04 0.0000000000000000e+00  0.0000000000000000e+00 -2.1545061897146732e-04 0.0000000000000000e+00  0.0000000000000000e+00 -2.1103144878982394e-04 0.0000000000000000e+00  0.0000000000000000e+00 -2.0755779294086394e-04 0.0000000000000000e+00  0.0000000000000000e+00 -2.0513386125764184e-04 0.0000000000000000e+00  0.0000000000000000e+00 -2.0384151809208273e-04 0.0000000000000000e+00  0.0000000000000000e+00 -2.0374040459190883e-04 0.0000000000000000e+00  0.0000000000000000e+00 -2.0486704841792344e-04 0.0000000000000000e+00  0.0000000000000000e+00 -2.0723712221892116e-04 0.0000000000000000e+00  0.0000000000000000e+00 -2.1084683834099904e-04 0.0000000000000000e+00  0.0000000000000000e+00 -2.1567367970957193e-04 0.0000000000000000e+00  0.0000000000000000e+00 -2.2167857520045443e-04 0.0000000000000000e+00  0.0000000000000000e+00 -2.2880792255135441e-04 0.0000000000000000e+00  0.0000000000000000e+00 -2.3699623153298290e-04 0.0000000000000000e+00  0.0000000000000000e+00 0.0000000000000000e+00 0.0000000000000000e+00  0.0000000000000000e+00 0.0000000000000000e+00 0.0000000000000000e+00  0.0000000000000000e+00 0.0000000000000000e+00 0.0000000000000000e+00  0.0000000000000000e+00 0.0000000000000000e+00 0.0000000000000000e+00  0.0000000000000000e+00 0.0000000000000000e+00 0.0000000000000000e+00  0.0000000000000000e+00 0.0000000000000000e+00 0.0000000000000000e+00  0.0000000000000000e+00 0.0000000000000000e+00 0.0000000000000000e+00  0.0000000000000000e+00 0.0000000000000000e+00 0.0000000000000000e+00  0.0000000000000000e+00 0.0000000000000000e+00 0.0000000000000000e+00  0.0000000000000000e+00 0.0000000000000000e+00 0.0000000000000000e+00  0.0000000000000000e+00 0.0000000000000000e+00 0.0000000000000000e+00  0.0000000000000000e+00 0.0000000000000000e+00 0.0000000000000000e+00  0.0000000000000000e+00 0.0000000000000000e+00 0.0000000000000000e+00  0.0000000000000000e+00 0.0000000000000000e+00 0.0000000000000000e+00  0.0000000000000000e+00 0.0000000000000000e+00 0.0000000000000000e+00  0.0000000000000000e+00 0.0000000000000000e+00 0.0000000000000000e+00  0.0000000000000000e+00 0.0000000000000000e+00 0.0000000000000000e+00  0.0000000000000000e+00 0.0000000000000000e+00 0.0000000000000000e+00  0.0000000000000000e+00 -2.3692171752442016e-04 0.0000000000000000e+00  0.0000000000000000e+00 -2.2868100715757393e-04 0.0000000000000000e+00  0.0000000000000000e+00 -2.2152110197349721e-04 0.0000000000000000e+00  0.0000000000000000e+00 -2.1550670401569464e-04 0.0000000000000000e+00  0.0000000000000000e+00 -2.1069045714605880e-04 0.0000000000000000e+00  0.0000000000000000e+00 -2.0710944163017985e-04 0.0000000000000000e+00  0.0000000000000000e+00 -2.0478371392676321e-04 0.0000000000000000e+00  0.0000000000000000e+00 -2.0371471664656758e-04 0.0000000000000000e+00  0.0000000000000000e+00 -2.0388380861025525e-04 0.0000000000000000e+00  0.0000000000000000e+00 -2.0525002861316582e-04 0.0000000000000000e+00  0.0000000000000000e+00 -2.0775188124175678e-04 0.0000000000000000e+00  0.0000000000000000e+00 -2.1129977536560592e-04 0.0000000000000000e+00  0.0000000000000000e+00 -2.1578980661432330e-04 0.0000000000000000e+00  0.0000000000000000e+00 -2.2108817404542980e-04 0.0000000000000000e+00  0.0000000000000000e+00 -2.2704394881961309e-04 0.0000000000000000e+00  0.0000000000000000e+00 -2.3348196730863205e-04 0.0000000000000000e+00  0.0000000000000000e+00 -2.4021371487982401e-04 0.0000000000000000e+00  0.0000000000000000e+00 -2.4703721799445005e-04 0.0000000000000000e+00  0.0000000000000000e+00 -2.5373113150680104e-04 0.0000000000000000e+00  0.0000000000000000e+00 -2.6006897719764091e-04 0.0000000000000000e+00  0.0000000000000000e+00 -2.6581712864314606e-04 0.0000000000000000e+00  0.0000000000000000e+00 -2.7073847068374271e-04 0.0000000000000000e+00  0.0000000000000000e+00 -2.7459498837886993e-04 0.00000000000