<?xml version="1.0"?>
<VTKFile type="UnstructuredGrid"  version="0.1"  >
<UnstructuredGrid>
<Piece  NumberOfPoints="3167" NumberOfCells="6038">
<Points>
<DataArray  type="Float64"  NumberOfComponents="3"  format="ascii">2.2 2.9 0  0 2.9 0  2.8 2.9 0  5 2.9 0  5 0 0  0 0 0  2.16271186440678 2.9 0  2.125423728813559 2.9 0  2.088135593220339 2.9 0  2.050847457627119 2.9 0  2.013559322033898 2.9 0  1.976271186440678 2.9 0  1.938983050847457 2.9 0  1.901694915254237 2.9 0  1.864406779661016 2.9 0  1.827118644067796 2.9 0  1.789830508474575 2.9 0  1.752542372881355 2.9 0  1.715254237288134 2.9 0  1.677966101694914 2.9 0  1.640677966101693 2.9 0  1.603389830508473 2.9 0  1.566101694915253 2.9 0  1.528813559322032 2.9 0  1.491525423728812 2.9 0  1.454237288135591 2.9 0  1.416949152542371 2.9 0  1.37966101694915 2.9 0  1.34237288135593 2.9 0  1.305084745762709 2.9 0  1.267796610169489 2.9 0  1.230508474576268 2.9 0  1.193220338983048 2.9 0  1.155932203389827 2.9 0  1.118644067796607 2.9 0  1.081355932203387 2.9 0  1.044067796610166 2.9 0  1.006779661016946 2.9 0  0.9694915254237257 2.9 0  0.9322033898305055 2.9 0  0.8949152542372856 2.9 0  0.8576271186440652 2.9 0  0.820338983050845 2.9 0  0.783050847457625 2.9 0  0.7457627118644048 2.9 0  0.7084745762711844 2.9 0  0.6711864406779642 2.9 0  0.633898305084744 2.9 0  0.5966101694915238 2.9 0  0.5593220338983036 2.9 0  0.5220338983050834 2.9 0  0.4847457627118632 2.9 0  0.447457627118643 2.9 0  0.4101694915254228 2.9 0  0.3728813559322024 2.9 0  0.3355932203389822 2.9 0  0.2983050847457622 2.9 0  0.2610169491525418 2.9 0  0.2237288135593216 2.9 0  0.1864406779661016 2.9 0  0.1491525423728812 2.9 0  0.1118644067796613 2.9 0  0.07457627118644039 2.9 0  0.03728813559321997 2.9 0  2.792405063291139 2.9 0  2.784810126582279 2.9 0  2.777215189873418 2.9 0  2.769620253164557 2.9 0  2.762025316455697 2.9 0  2.754430379746836 2.9 0  2.746835443037975 2.9 0  2.739240506329114 2.9 0  2.731645569620254 2.9 0  2.724050632911393 2.9 0  2.716455696202532 2.9 0  2.708860759493671 2.9 0  2.701265822784811 2.9 0  2.69367088607595 2.9 0  2.686075949367089 2.9 0  2.678481012658228 2.9 0  2.670886075949368 2.9 0  2.663291139240507 2.9 0  2.655696202531646 2.9 0  2.648101265822786 2.9 0  2.640506329113925 2.9 0  2.632911392405064 2.9 0  2.625316455696203 2.9 0  2.617721518987342 2.9 0  2.610126582278482 2.9 0  2.602531645569621 2.9 0  2.59493670886076 2.9 0  2.587341772151899 2.9 0  2.579746835443038 2.9 0  2.572151898734178 2.9 0  2.564556962025317 2.9 0  2.556962025316456 2.9 0  2.549367088607595 2.9 0  2.541772151898734 2.9 0  2.534177215189874 2.9 0  2.526582278481013 2.9 0  2.518987341772152 2.9 0  2.511392405063292 2.9 0  2.503797468354431 2.9 0  2.49620253164557 2.9 0  2.488607594936709 2.9 0  2.481012658227848 2.9 0  2.473417721518988 2.9 0  2.465822784810127 2.9 0  2.458227848101266 2.9 0  2.450632911392406 2.9 0  2.443037974683545 2.9 0  2.435443037974684 2.9 0  2.427848101265823 2.9 0  2.420253164556962 2.9 0  2.412658227848102 2.9 0  2.405063291139241 2.9 0  2.39746835443038 2.9 0  2.389873417721519 2.9 0  2.382278481012658 2.9 0  2.374683544303798 2.9 0  2.367088607594937 2.9 0  2.359493670886076 2.9 0  2.351898734177215 2.9 0  2.344303797468355 2.9 0  2.336708860759494 2.9 0  2.329113924050633 2.9 0  2.321518987341773 2.9 0  2.313924050632912 2.9 0  2.306329113924051 2.9 0  2.29873417721519 2.9 0  2.291139240506329 2.9 0  2.283544303797469 2.9 0  2.275949367088608 2.9 0  2.268354430379747 2.9 0  2.260759493670887 2.9 0  2.253164556962026 2.9 0  2.245569620253165 2.9 0  2.237974683544304 2.9 0  2.230379746835443 2.9 0  2.222784810126583 2.9 0  2.215189873417722 2.9 0  2.207594936708861 2.9 0  4.96271186440678 2.9 0  4.925423728813559 2.9 0  4.888135593220339 2.9 0  4.850847457627118 2.9 0  4.813559322033898 2.9 0  4.776271186440677 2.9 0  4.738983050847457 2.9 0  4.701694915254237 2.9 0  4.664406779661016 2.9 0  4.627118644067796 2.9 0  4.589830508474575 2.9 0  4.552542372881355 2.9 0  4.515254237288135 2.9 0  4.477966101694914 2.9 0  4.440677966101694 2.9 0  4.403389830508473 2.9 0  4.366101694915252 2.9 0  4.328813559322032 2.9 0  4.291525423728811 2.9 0  4.254237288135591 2.9 0  4.21694915254237 2.9 0  4.17966101694915 2.9 0  4.14237288135593 2.9 0  4.105084745762709 2.9 0  4.067796610169489 2.9 0  4.030508474576268 2.9 0  3.993220338983048 2.9 0  3.955932203389827 2.9 0  3.918644067796607 2.9 0  3.881355932203387 2.9 0  3.844067796610166 2.9 0  3.806779661016946 2.9 0  3.769491525423725 2.9 0  3.732203389830505 2.9 0  3.694915254237285 2.9 0  3.657627118644065 2.9 0  3.620338983050845 2.9 0  3.583050847457625 2.9 0  3.545762711864405 2.9 0  3.508474576271184 2.9 0  3.471186440677964 2.9 0  3.433898305084744 2.9 0  3.396610169491524 2.9 0  3.359322033898303 2.9 0  3.322033898305083 2.9 0  3.284745762711863 2.9 0  3.247457627118643 2.9 0  3.210169491525423 2.9 0  3.172881355932202 2.9 0  3.135593220338982 2.9 0  3.098305084745762 2.9 0  3.061016949152542 2.9 0  3.023728813559321 2.9 0  2.986440677966101 2.9 0  2.949152542372881 2.9 0  2.911864406779661 2.9 0  2.87457627118644 2.9 0  2.83728813559322 2.9 0  5 0.1063822625082082 0  5 0.210636880010749 0  5 0.3128064053694972 0  5 0.4129325400644018 0  5 0.5110561521032336 0  5 0.6072172918830103 0  5 0.7014552087832795 0  5 0.7938083674443693 0  5 0.88431446261646 0  5 0.9730104359544682 0  5 1.059932489996267 0  5 1.145116102913299 0  5 1.228596043483191 0  5 1.310406385079062 0  5 1.390580519944147 0  5 1.469151172477827 0  5 1.546150411986101 0  5 1.621609666658609 0  5 1.695559736099044 0  5 1.76803080383987 0  5 1.839052450169751 0  5 1.908653663631169 0  5 1.97686285289587 0  5 2.043707858613779 0  5 2.109215964341413 0  5 2.173413907925942 0  5 2.236327892833935 0  5 2.297983597762904 0  5 2.35840618845912 0  5 2.41762032730194 0  5 2.475650183444628 0  5 2.532519442457069 0  5 2.588251316112828 0  5 2.642868552557322 0  5 2.696393444426347 0  5 2.748847838312051 0  5 2.800253144313381 0  5 2.850630344319807 0  0.2631578947368421 0 0  0.5263157894736842 0 0  0.7894736842105263 0 0  1.052631578947368 0 0  1.31578947368421 0 0  1.578947368421053 0 0  1.842105263157895 0 0  2.105263157894737 0 0  2.368421052631579 0 0  2.631578947368421 0 0  2.894736842105263 0 0  3.157894736842105 0 0  3.421052631578947 0 0  3.684210526315789 0 0  3.947368421052632 0 0  4.210526315789473 0 0  4.473684210526315 0 0  4.736842105263158 0 0  0 2.850203682350569 0  0 2.799411438503675 0  0 2.747603349778291 0  0 2.694759099502208 0  0 2.640857964382145 0  0 2.58587880633613 0  0 2.52980006535898 0  0 2.472599749459174 0  0 2.414255427218689 0  0 2.35474421880616 0  0 2.294042786119219 0  0 2.232127324764723 0  0 2.1689735539481 0  0 2.104556707683347 0  0 2.038851524813415 0  0 1.971832238155655 0  0 1.903472565412126 0  0 1.83374569926617 0  0 1.762624296208475 0  0 1.690080464918761 0  0 1.616085756774206 0  0 1.540611154706337 0  0 1.463627060685571 0  0 1.385103284916206 0  0 1.305009033716617 0  0 1.223312897337225 0  0 1.139982838163732 0  0 1.054986177579938 0  0 0.9682895835804817 0  0 0.8798590579197976 0  0 0.7896599218415354 0  0 0.6976568029903638 0  0 0.6038136217958798 0  0 0.508093576867624 0  0 0.4104591310957497 0  0 0.3108719963522191 0  0 0.2092931188294389 0  0 0.1056826638508546 0  1.434832105763824 2.866945754981483 0  1.737156300467626 2.870039440267515 0  2.032203389830508 2.867707527316512 0  2.332911392405064 2.893422591869991 0  2.469810913293406 2.891944186606167 0  2.606221408823969 2.892519154985628 0  2.255455320628894 2.892068685006691 0  2.538247299216212 2.894964578182811 0  2.674683544303798 2.893422591869991 0  2.40126582278481 2.893422591869991 0  3.566125247295424 2.865029336199714 0  3.266101694915253 2.867707527316512 0  2.967796610169491 2.867707527316512 0  1.174288529834642 2.870795313888584 0  3.825423728813556 2.867707527316512 0  2.727766680262011 2.892655387647729 0  0.06601655192030442 1.502119107695954 0  4.933983535508361 1.507650792231964 0  0.9532124728485543 2.868722489783638 0  4.048935912500257 2.870640982995992 0  0.05930163367361763 1.866907161167414 0  4.943402512618553 1.871280731473148 0  4.271733870017743 2.86520865624265 0  0.7249420921613114 2.863922936177041 0  0.05494499779910056 2.196469063120752 0  4.947228695426367 2.208030108792719 0  0.5406152150397161 2.866493807382013 0  4.459322033898304 2.868847558178794 0  2.18135593220339 2.875780645487384 0  2.817027156509632 2.876587550645167 0  4.928427208322876 1.186856073198245 0  0.07189226971603224 1.174626666111662 0  4.610299014423113 2.867003104093161 0  0.3897270066746357 2.869433095314657 0  1.581132500042262 2.868247328632392 0  1.887637879411437 2.869235851794358 0  3.413449426418068 2.867372048034327 0  3.116721298814773 2.865731235547652 0  2.644303797468355 2.893422591869991 0  2.370983221828106 2.892719513369796 0  2.302531645569621 2.893336787387268 0  2.758987341772152 2.894242393897099 0  0.04979653335696277 2.443411216910286 0  4.950470983477169 2.446866954595817 0  2.482937483021586 0.2513241087417575 0  1.707129504814338 0.1999998659920923 0  3.28584657955054 0.229200625631625 0  4.907807122600524 0.834082362900164 0  4.757627118644067 2.867707527316512 0  0.0773489124676745 0.8347594898806663 0  0.2390604736599387 2.861365431805741 0  0.8363213715215729 2.863896768908178 0  4.160865610207075 2.868916854015731 0  1.282549332053297 2.867610952980761 0  1.065094818402487 2.861284686038041 0  3.93818127737282 2.86865134411395 0  3.711492629432973 2.863574306925269 0  4.91369361998929 0.5579891344254361 0  0.08208328472281323 0.5559535993317519 0  2.696596932532885 2.892010483922337 0  0.04706410140274553 2.613055974506516 0  4.955577063972248 2.616518038840186 0  2.234177215189874 2.893422591869991 0  2.279795840559739 2.89403861893984 0  0.9117357887652362 0.2117925286661764 0  4.055948041993057 0.2039101057937727 0  4.872119713780579 2.867632926423075 0  2.780113878992455 2.891535929611743 0  0.1327442468251063 2.85
[...]
<PointData  Vectors="displacement"> 
<DataArray  type="Float64"  Name="displacement"  NumberOfComponents="3" format="ascii">1.7088388223944534e-03 -8.9421353472321601e-03 0.0000000000000000e+00  0.0000000000000000e+00 -3.6819894390239882e-04 0.0000000000000000e+00  -1.7111852928973663e-03 -8.9425020769786714e-03 0.0000000000000000e+00  0.0000000000000000e+00 -3.6819938386728891e-04 0.0000000000000000e+00  0.0000000000000000e+00 0.0000000000000000e+00 0.0000000000000000e+00  0.0000000000000000e+00 0.0000000000000000e+00 0.0000000000000000e+00  1.6938077219450969e-03 -7.9139523021047355e-03 0.0000000000000000e+00  1.6598575550867743e-03 -7.2354460951433962e-03 0.0000000000000000e+00  1.6263699101409996e-03 -6.6894482968036465e-03 0.0000000000000000e+00  1.5930725756015212e-03 -6.2238418295510372e-03 0.0000000000000000e+00  1.5598203729607078e-03 -5.8153466983557091e-03 0.0000000000000000e+00  1.5266377657077602e-03 -5.4505276056386774e-03 0.0000000000000000e+00  1.4935594269627165e-03 -5.1205967890510977e-03 0.0000000000000000e+00  1.4605926563136095e-03 -4.8194272148530063e-03 0.0000000000000000e+00  1.4277711499120736e-03 -4.5424645203481790e-03 0.0000000000000000e+00  1.3950829108513314e-03 -4.2863121764239922e-03 0.0000000000000000e+00  1.3625379123980573e-03 -4.0483297395346365e-03 0.0000000000000000e+00  1.3301436098569822e-03 -3.8263598012706897e-03 0.0000000000000000e+00  1.2979125177725605e-03 -3.6186345125203590e-03 0.0000000000000000e+00  1.2658442214934485e-03 -3.4237106497249765e-03 0.0000000000000000e+00  1.2339460998485265e-03 -3.2403803630767884e-03 0.0000000000000000e+00  1.2022219106265024e-03 -3.0676104265171087e-03 0.0000000000000000e+00  1.1706783658333231e-03 -2.9045166122747389e-03 0.0000000000000000e+00  1.1393120114040552e-03 -2.7503325148985971e-03 0.0000000000000000e+00  1.1081319621261371e-03 -2.6043871319346235e-03 0.0000000000000000e+00  1.0771403296667066e-03 -2.4660963839184574e-03 0.0000000000000000e+00  1.0463397767212430e-03 -2.3349449342442287e-03 0.0000000000000000e+00  1.0157313707604449e-03 -2.2104754816737698e-03 0.0000000000000000e+00  9.8531854134821365e-04 -2.0922728743052320e-03 0.0000000000000000e+00  9.5509895558066953e-04 -1.9799724757773277e-03 0.0000000000000000e+00  9.2507595035389403e-04 -1.8732471880893880e-03 0.0000000000000000e+00  8.9525037091539475e-04 -1.7717958957984203e-03 0.0000000000000000e+00  8.6562148693220323e-04 -1.6753445680625268e-03 0.0000000000000000e+00  8.3618631634719686e-04 -1.5836515198482039e-03 0.0000000000000000e+00  8.0695012760985320e-04 -1.4964915863723961e-03 0.0000000000000000e+00  7.7790295126049856e-04 -1.4136542974341555e-03 0.0000000000000000e+00  7.4904979337477885e-04 -1.3349544415301906e-03 0.0000000000000000e+00  7.2038694633075979e-04 -1.2602210469098121e-03 0.0000000000000000e+00  6.9190924748294786e-04 -1.1892972895011635e-03 0.0000000000000000e+00  6.6361605878858436e-04 -1.1220303992441601e-03 0.0000000000000000e+00  6.3550284909511423e-04 -1.0582898696696675e-03 0.0000000000000000e+00  6.0756674960593974e-04 -9.9794942241644832e-04 0.0000000000000000e+00  5.7980249462924113e-04 -9.4089298567710442e-04 0.0000000000000000e+00  5.5220614987996940e-04 -8.8701631115961329e-04 0.0000000000000000e+00  5.2477269547259310e-04 -8.3621948386130185e-04 0.0000000000000000e+00  4.9749661842250260e-04 -7.8841180309536195e-04 0.0000000000000000e+00  4.7037239489922274e-04 -7.4350929313701287e-04 0.0000000000000000e+00  4.4339419410514418e-04 -7.0143417911244126e-04 0.0000000000000000e+00  4.1655517737773114e-04 -6.6211439248056248e-04 0.0000000000000000e+00  3.8984931316730063e-04 -6.2548454049979384e-04 0.0000000000000000e+00  3.6326945975075835e-04 -5.9148324874396809e-04 0.0000000000000000e+00  3.3680860656705664e-04 -5.6005514376477770e-04 0.0000000000000000e+00  3.1045929199772365e-04 -5.3114916214661348e-04 0.0000000000000000e+00  2.8421392854393603e-04 -5.0471915094140406e-04 0.0000000000000000e+00  2.5806454900284488e-04 -4.8072280615225524e-04 0.0000000000000000e+00  2.3200301794696216e-04 -4.5912252530487307e-04 0.0000000000000000e+00  2.0602188761882075e-04 -4.3988472341352795e-04 0.0000000000000000e+00  1.8011114157471511e-04 -4.2297877411437830e-04 0.0000000000000000e+00  1.5426330642005594e-04 -4.0837877820771998e-04 0.0000000000000000e+00  1.2846966160713836e-04 -3.9606282787334418e-04 0.0000000000000000e+00  1.0272182050336476e-04 -3.8601168904509866e-04 0.0000000000000000e+00  7.7009153188068507e-05 -3.7820975286967921e-04 0.0000000000000000e+00  5.1324125558683085e-05 -3.7264534180619734e-04 0.0000000000000000e+00  2.5657406061770375e-05 -3.6931010137628538e-04 0.0000000000000000e+00  -1.6868969971805189e-03 -9.2552621816493624e-03 0.0000000000000000e+00  -1.6415040246459932e-03 -9.4807571950155638e-03 0.0000000000000000e+00  -1.5971008388046863e-03 -9.6734199255666051e-03 0.0000000000000000e+00  -1.5529144331293944e-03 -9.8455620364452327e-03 0.0000000000000000e+00  -1.5090367955614553e-03 -1.0002629324239315e-02 0.0000000000000000e+00  -1.4651989859134284e-03 -1.0147551067841369e-02 0.0000000000000000e+00  -1.4213911003180054e-03 -1.0282302288609581e-02 0.0000000000000000e+00  -1.3776023101045379e-03 -1.0408201573134501e-02 0.0000000000000000e+00  -1.3338144178832109e-03 -1.0526255619466008e-02 0.0000000000000000e+00  -1.2900416200164640e-03 -1.0637258839148843e-02 0.0000000000000000e+00  -1.2462805767491140e-03 -1.0741832723045852e-02 0.0000000000000000e+00  -1.2025227233251011e-03 -1.0840479429454590e-02 0.0000000000000000e+00  -1.1587694955610013e-03 -1.0933622154948069e-02 0.0000000000000000e+00  -1.1150210675041823e-03 -1.1021607073658995e-02 0.0000000000000000e+00  -1.0712720598352740e-03 -1.1104727601030213e-02 0.0000000000000000e+00  -1.0275287744911708e-03 -1.1183248689055713e-02 0.0000000000000000e+00  -9.8378793216170163e-04 -1.1257389540131824e-02 0.0000000000000000e+00  -9.4004979646629047e-04 -1.1327342272805647e-02 0.0000000000000000e+00  -8.9631382633050471e-04 -1.1393277656019567e-02 0.0000000000000000e+00  -8.5257963557849306e-04 -1.1455345146168239e-02 0.0000000000000000e+00  -8.0884725775249265e-04 -1.1513677686267399e-02 0.0000000000000000e+00  -7.6511662989382702e-04 -1.1568393538001962e-02 0.0000000000000000e+00  -7.2138739229738033e-04 -1.1619597399174238e-02 0.0000000000000000e+00  -6.7765976346437532e-04 -1.1667383782081516e-02 0.0000000000000000e+00  -6.3393347832230867e-04 -1.1711837052576066e-02 0.0000000000000000e+00  -5.9020839903208748e-04 -1.1753031707424191e-02 0.0000000000000000e+00  -5.4648503062661299e-04 -1.1791035156690794e-02 0.0000000000000000e+00  -5.0276195543076695e-04 -1.1825906751416019e-02 0.0000000000000000e+00  -4.5904002606972371e-04 -1.1857700708384818e-02 0.0000000000000000e+00  -4.1531916388255053e-04 -1.1886464227546391e-02 0.0000000000000000e+00  -3.7159916095605634e-04 -1.1912239302094115e-02 0.0000000000000000e+00  -3.2787972742462352e-04 -1.1935062417414214e-02 0.0000000000000000e+00  -2.8416090369030454e-04 -1.1954965651051166e-02 0.0000000000000000e+00  -2.4044278093681936e-04 -1.1971976441849825e-02 0.0000000000000000e+00  -1.9672473357754412e-04 -1.1986117210763390e-02 0.0000000000000000e+00  -1.5300782685154641e-04 -1.1997407838659432e-02 0.0000000000000000e+00  -1.0929047487289009e-04 -1.2005862887574730e-02 0.0000000000000000e+00  -6.5573481663805348e-05 -1.2011493259613985e-02 0.0000000000000000e+00  -2.1856769833138540e-05 -1.2014306643418475e-02 0.0000000000000000e+00  2.1859946343014774e-05 -1.2014306589282143e-02 0.0000000000000000e+00  6.5576702063470046e-05 -1.2011493078789020e-02 0.0000000000000000e+00  1.0929358781076743e-04 -1.2005862481143314e-02 0.0000000000000000e+00  1.5301069030623858e-04 -1.1997407522028502e-02 0.0000000000000000e+00  1.9672798604571389e-04 -1.1986116845146975e-02 0.0000000000000000e+00  2.4044580186389263e-04 -1.1971975458709070e-02 0.0000000000000000e+00  2.8416397540451376e-04 -1.1954964835373673e-02 0.0000000000000000e+00  3.2788273514501722e-04 -1.1935061632099949e-02 0.0000000000000000e+00  3.7160210583497529e-04 -1.1912238411505153e-02 0.0000000000000000e+00  4.1532232531946920e-04 -1.1886463381753556e-02 0.0000000000000000e+00  4.5904319929530559e-04 -1.1857699600185441e-02 0.0000000000000000e+00  5.0276502448827920e-04 -1.1825905664347523e-02 0.0000000000000000e+00  5.4648817579329315e-04 -1.1791033705032272e-02 0.0000000000000000e+00  5.9021185648864541e-04 -1.1753030214013568e-02 0.0000000000000000e+00  6.3393693437596558e-04 -1.1711835868142149e-02 0.0000000000000000e+00  6.7766327880752091e-04 -1.1667382979413729e-02 0.0000000000000000e+00  7.2139103054209657e-04 -1.1619596520733043e-02 0.0000000000000000e+00  7.6512005510253798e-04 -1.1568392330276260e-02 0.0000000000000000e+00  8.0885146079099615e-04 -1.1513676975500656e-02 0.0000000000000000e+00  8.5258459457853472e-04 -1.1455343066780192e-02 0.0000000000000000e+00  8.9631923275532524e-04 -1.1393275559671722e-02 0.0000000000000000e+00  9.4005574922930660e-04 -1.1327340005869945e-02 0.0000000000000000e+00  9.8379468500515662e-04 -1.1257386769257102e-02 0.0000000000000000e+00  1.0275360807748472e-03 -1.1183245842753183e-02 0.0000000000000000e+00  1.0712804096980552e-03 -1.1104723500216278e-02 0.0000000000000000e+00  1.1150278430214914e-03 -1.1021598878002371e-02 0.0000000000000000e+00  1.1587795801453087e-03 -1.0933614811770350e-02 0.0000000000000000e+00  1.2025337446797159e-03 -1.0840472631058628e-02 0.0000000000000000e+00  1.2462926157484841e-03 -1.0741821571740881e-02 0.0000000000000000e+00  1.2900599956348821e-03 -1.0637252010491890e-02 0.0000000000000000e+00  1.3338300053537414e-03 -1.0526246458537438e-02 0.0000000000000000e+00  1.3776073690595094e-03 -1.0408180514373080e-02 0.0000000000000000e+00  1.4214028296459821e-03 -1.0282284250923432e-02 0.0000000000000000e+00  1.4652247169638609e-03 -1.0147561817589752e-02 0.0000000000000000e+00  1.5090555567078892e-03 -1.0002600774540387e-02 0.0000000000000000e+00  1.5529116119966213e-03 -9.8454917949463774e-03 0.0000000000000000e+00  1.5967377838226938e-03 -9.6734025763137860e-03 0.0000000000000000e+00  1.6417942371654433e-03 -9.4813959381406972e-03 0.0000000000000000e+00  1.6866572647544094e-03 -9.2545481370763395e-03 0.0000000000000000e+00  -2.5657606917968551e-05 -3.6931044904368686e-04 0.0000000000000000e+00  -5.1324328510888873e-05 -3.7264573574519888e-04 0.0000000000000000e+00  -7.7009198886228972e-05 -3.7821002432283154e-04 0.0000000000000000e+00  -1.0272135572827614e-04 -3.8601190577113969e-04 0.0000000000000000e+00  -1.2846970673927315e-04 -3.9606307550496414e-04 0.0000000000000000e+00  -1.5426371627849514e-04 -4.0837940799827834e-04 0.0000000000000000e+00  -1.8011110164970392e-04 -4.2297897455198562e-04 0.0000000000000000e+00  -2.0602150965213660e-04 -4.3988475858377661e-04 0.0000000000000000e+00  -2.3200313349246764e-04 -4.5912280323813005e-04 0.0000000000000000e+00  -2.5806460522528852e-04 -4.8072321089061119e-04 0.0000000000000000e+00  -2.8421393618070339e-04 -5.0471955405817623e-04 0.0000000000000000e+00  -3.1045941885389999e-04 -5.3114970984830792e-04 0.0000000000000000e+00  -3.3680869112025599e-04 -5.6005567613856902e-04 0.0000000000000000e+00  -3.6326947987509696e-04 -5.9148378524543569e-04 0.0000000000000000e+00  -3.8984924629517425e-04 -6.2548495559159353e-04 0.0000000000000000e+00  -4.1655509224871408e-04 -6.6211489619678106e-04 0.0000000000000000e+00  -4.4339395144580169e-04 -7.0143429890224293e-04 0.0000000000000000e+00  -4.7037244176469285e-04 -7.4350983132188758e-04 0.0000000000000000e+00  -4.9749646171302832e-04 -7.8841249850248143e-04 0.0000000000000000e+00  -5.2477258646096731e-04 -8.3622051463504068e-04 0.0000000000000000e+00  -5.5220689706914300e-04 -8.8701774291300936e-04 0.0000000000000000e+00  -5.7980217643426154e-04 -9.4089378591068163e-04 0.0000000000000000e+00  -6.0756642928873881e-04 -9.9794936935486086e-04 0.0000000000000000e+00  -6.3550271659110094e-04 -1.0582901966724549e-03 0.0000000000000000e+00  -6.6361560657839731e-04 -1.1220312608280732e-03 0.0000000000000000e+00  -6.9190881372743730e-04 -1.1892971700514451e-03 0.0000000000000000e+00  -7.2038589109609864e-04 -1.2602231182082589e-03 0.0000000000000000e+00  -7.4904965806571911e-04 -1.3349555540490116e-03 0.0000000000000000e+00  -7.7790320740843757e-04 -1.4136536406152036e-03 0.0000000000000000e+00  -8.0694844852446533e-04 -1.4964894852793086e-03 0.0000000000000000e+00  -8.3618695145063913e-04 -1.5836515814631796e-03 0.0000000000000000e+00  -8.6561981813007300e-04 -1.6753446108065647e-03 0.0000000000000000e+00  -8.9525329983129449e-04 -1.7717953517815139e-03 0.0000000000000000e+00  -9.2507555200144881e-04 -1.8732480152101811e-03 0.0000000000000000e+00  -9.5509856773494926e-04 -1.9799755505040336e-03 0.0000000000000000e+00  -9.8531755237947580e-04 -2.0922739035110862e-03 0.0000000000000000e+00  -1.0157324012604369e-03 -2.2104741445494952e-03 0.0000000000000000e+00  -1.0463396856536594e-03 -2.3349446935510437e-03 0.0000000000000000e+00  -1.0771397899858000e-03 -2.4660958903286296e-03 0.0000000000000000e+00  -1.1081309736730690e-03 -2.6043857021593821e-03 0.0000000000000000e+00  -1.1393112154485790e-03 -2.7503307371544890e-03 0.0000000000000000e+00  -1.1706754638785637e-03 -2.9045184550474980e-03 0.0000000000000000e+00  -1.2022240756096583e-03 -3.0676145879622021e-03 0.0000000000000000e+00  -1.2339495852214384e-03 -3.2403829752517370e-03 0.0000000000000000e+00  -1.2658452703873679e-03 -3.4237089365929028e-03 0.0000000000000000e+00  -1.2979085586101950e-03 -3.6186302396653105e-03 0.0000000000000000e+00  -1.3301409097429542e-03 -3.8263556611382288e-03 0.0000000000000000e+00  -1.3625342672545404e-03 -4.0483394969568851e-03 0.0000000000000000e+00  -1.3950798840761133e-03 -4.2863286948089186e-03 0.0000000000000000e+00  -1.4277758843215034e-03 -4.5424517902924481e-03 0.0000000000000000e+00  -1.4605962276971697e-03 -4.8194306231437488e-03 0.0000000000000000e+00  -1.4935734168753454e-03 -5.1205805803993254e-03 0.0000000000000000e+00  -1.5266371557247521e-03 -5.4505365162296421e-03 0.0000000000000000e+00  -1.5597928576577820e-03 -5.8153814834578403e-03 0.0000000000000000e+00  -1.5930437117064745e-03 -6.2238401019868795e-03 0.0000000000000000e+00  -1.6265281505620816e-03 -6.6894232701168186e-03 0.0000000000000000e+00  -1.6594338076387999e-03 -7.2357054225196081e-03 0.0000000000000000e+00  -1.6941307598778948e-03 -7.9134779806796333e-03 0.0000000000000000e+00  0.0000000000000000e+00 -7.1456991791063693e-05 0.0000000000000000e+00  0.0000000000000000e+00 -1.3348100835271510e-04 0.0000000000000000e+00  0.0000000000000000e+00 -1.8722647504866631e-04 0.0000000000000000e+00  0.0000000000000000e+00 -2.3367677342766587e-04 0.0000000000000000e+00  0.0000000000000000e+00 -2.7357920403873283e-04 0.0000000000000000e+00  0.0000000000000000e+00 -3.0754874031651219e-04 0.0000000000000000e+00  0.0000000000000000e+00 -3.3610003578040174e-04 0.0000000000000000e+00  0.0000000000000000e+00 -3.5967360140209839e-04 0.0000000000000000e+00  0.0000000000000000e+00 -3.7861935957074272e-04 0.0000000000000000e+00  0.0000000000000000e+00 -3.9332175902579059e-04 0.0000000000000000e+00  0.0000000000000000e+00 -4.0409115529001292e-04 0.0000000000000000e+00  0.0000000000000000e+00 -4.1124997958306769e-04 0.0000000000000000e+00  0.0000000000000000e+00 -4.1512748652792434e-04 0.0000000000000000e+00  0.0000000000000000e+00 -4.1604883164566311e-04 0.0000000000000000e+00  0.0000000000000000e+00 -4.1434781793960523e-04 0.0000000000000000e+00  0.0000000000000000e+00 -4.1036783599603165e-04 0.0000000000000000e+00  0.0000000000000000e+00 -4.0446425507951951e-04 0.0000000000000000e+00  0.0000000000000000e+00 -3.9699172025603734e-04 0.0000000000000000e+00  0.0000000000000000e+00 -3.8830836566100725e-04 0.0000000000000000e+00  0.0000000000000000e+00 -3.7877142156533860e-04 0.0000000000000000e+00  0.0000000000000000e+00 -3.6873251487477474e-04 0.0000000000000000e+00  0.0000000000000000e+00 -3.5853023441585633e-04 0.0000000000000000e+00  0.0000000000000000e+00 -3.4849165376544194e-04 0.0000000000000000e+00  0.0000000000000000e+00 -3.3891463227521201e-04 0.0000000000000000e+00  0.0000000000000000e+00 -3.3008362979020301e-04 0.0000000000000000e+00  0.0000000000000000e+00 -3.2225519931629732e-04 0.0000000000000000e+00  0.0000000000000000e+00 -3.1564532938648898e-04 0.0000000000000000e+00  0.0000000000000000e+00 -3.1044969029616411e-04 0.0000000000000000e+00  0.0000000000000000e+00 -3.0682415145373776e-04 0.0000000000000000e+00  0.0000000000000000e+00 -3.0489115953944031e-04 0.0000000000000000e+00  0.0000000000000000e+00 -3.0473992139815422e-04 0.0000000000000000e+00  0.0000000000000000e+00 -3.0642507241997110e-04 0.0000000000000000e+00  0.0000000000000000e+00 -3.0997005460095084e-04 0.0000000000000000e+00  0.0000000000000000e+00 -3.1536920264679368e-04 0.0000000000000000e+00  0.0000000000000000e+00 -3.2258883717243729e-04 0.0000000000000000e+00  0.0000000000000000e+00 -3.3157051846221869e-04 0.0000000000000000e+00  0.0000000000000000e+00 -3.4223407219219739e-04 0.0000000000000000e+00  0.0000000000000000e+00 -3.5448154289121459e-04 0.0000000000000000e+00  0.0000000000000000e+00 0.0000000000000000e+00 0.0000000000000000e+00  0.0000000000000000e+00 0.0000000000000000e+00 0.0000000000000000e+00  0.0000000000000000e+00 0.0000000000000000e+00 0.0000000000000000e+00  0.0000000000000000e+00 0.0000000000000000e+00 0.0000000000000000e+00  0.0000000000000000e+00 0.0000000000000000e+00 0.0000000000000000e+00  0.0000000000000000e+00 0.0000000000000000e+00 0.0000000000000000e+00  0.0000000000000000e+00 0.0000000000000000e+00 0.0000000000000000e+00  0.0000000000000000e+00 0.0000000000000000e+00 0.0000000000000000e+00  0.0000000000000000e+00 0.0000000000000000e+00 0.0000000000000000e+00  0.0000000000000000e+00 0.0000000000000000e+00 0.0000000000000000e+00  0.0000000000000000e+00 0.0000000000000000e+00 0.0000000000000000e+00  0.0000000000000000e+00 0.0000000000000000e+00 0.0000000000000000e+00  0.0000000000000000e+00 0.0000000000000000e+00 0.0000000000000000e+00  0.0000000000000000e+00 0.0000000000000000e+00 0.0000000000000000e+00  0.0000000000000000e+00 0.0000000000000000e+00 0.0000000000000000e+00  0.0000000000000000e+00 0.0000000000000000e+00 0.0000000000000000e+00  0.0000000000000000e+00 0.0000000000000000e+00 0.0000000000000000e+00  0.0000000000000000e+00 0.0000000000000000e+00 0.0000000000000000e+00  0.0000000000000000e+00 -3.5437009031430406e-04 0.0000000000000000e+00  0.0000000000000000e+00 -3.4204424147500401e-04 0.0000000000000000e+00  0.0000000000000000e+00 -3.3133498158429092e-04 0.0000000000000000e+00  0.0000000000000000e+00 -3.2233908720296256e-04 0.0000000000000000e+00  0.0000000000000000e+00 -3.1513529915008813e-04 0.0000000000000000e+00  0.0000000000000000e+00 -3.0977907936138036e-04 0.0000000000000000e+00  0.0000000000000000e+00 -3.0630042681353511e-04 0.0000000000000000e+00  0.0000000000000000e+00 -3.0470149925768678e-04 0.0000000000000000e+00  0.0000000000000000e+00 -3.0495441458798918e-04 0.0000000000000000e+00  0.0000000000000000e+00 -3.0699790604533375e-04 0.0000000000000000e+00  0.0000000000000000e+00 -3.1073999331032026e-04 0.0000000000000000e+00  0.0000000000000000e+00 -3.1604667255539381e-04 0.0000000000000000e+00  0.0000000000000000e+00 -3.2276253126074030e-04 0.0000000000000000e+00  0.0000000000000000e+00 -3.3068743981154089e-04 0.0000000000000000e+00  0.0000000000000000e+00 -3.3959564994386629e-04 0.0000000000000000e+00  0.0000000000000000e+00 -3.4922516477786891e-04 0.0000000000000000e+00  0.0000000000000000e+00 -3.5929401798264290e-04 0.0000000000000000e+00  0.0000000000000000e+00 -3.6950011238486176e-04 0.0000000000000000e+00  0.0000000000000000e+00 -3.7951237618538653e-04 0.0000000000000000e+00  0.0000000000000000e+00 -3.8899205991100184e-04 0.0000000000000000e+00  0.0000000000000000e+00 -3.9758972232949229e-04 0.0000000000000000e+00  0.0000000000000000e+00 -4.0495070401414549e-04 0.0000000000000000e+00  0.0000000000000000e+00 -4.1071899971198558e-04 0.00000000000