<?xml version="1.0"?>
<VTKFile type="UnstructuredGrid"  version="0.1"  >
<UnstructuredGrid>
<Piece  NumberOfPoints="3167" NumberOfCells="6038">
<Points>
<DataArray  type="Float64"  NumberOfComponents="3"  format="ascii">2.2 2.9 0  0 2.9 0  2.8 2.9 0  5 2.9 0  5 0 0  0 0 0  2.16271186440678 2.9 0  2.125423728813559 2.9 0  2.088135593220339 2.9 0  2.050847457627119 2.9 0  2.013559322033898 2.9 0  1.976271186440678 2.9 0  1.938983050847457 2.9 0  1.901694915254237 2.9 0  1.864406779661016 2.9 0  1.827118644067796 2.9 0  1.789830508474575 2.9 0  1.752542372881355 2.9 0  1.715254237288134 2.9 0  1.677966101694914 2.9 0  1.640677966101693 2.9 0  1.603389830508473 2.9 0  1.566101694915253 2.9 0  1.528813559322032 2.9 0  1.491525423728812 2.9 0  1.454237288135591 2.9 0  1.416949152542371 2.9 0  1.37966101694915 2.9 0  1.34237288135593 2.9 0  1.305084745762709 2.9 0  1.267796610169489 2.9 0  1.230508474576268 2.9 0  1.193220338983048 2.9 0  1.155932203389827 2.9 0  1.118644067796607 2.9 0  1.081355932203387 2.9 0  1.044067796610166 2.9 0  1.006779661016946 2.9 0  0.9694915254237257 2.9 0  0.9322033898305055 2.9 0  0.8949152542372856 2.9 0  0.8576271186440652 2.9 0  0.820338983050845 2.9 0  0.783050847457625 2.9 0  0.7457627118644048 2.9 0  0.7084745762711844 2.9 0  0.6711864406779642 2.9 0  0.633898305084744 2.9 0  0.5966101694915238 2.9 0  0.5593220338983036 2.9 0  0.5220338983050834 2.9 0  0.4847457627118632 2.9 0  0.447457627118643 2.9 0  0.4101694915254228 2.9 0  0.3728813559322024 2.9 0  0.3355932203389822 2.9 0  0.2983050847457622 2.9 0  0.2610169491525418 2.9 0  0.2237288135593216 2.9 0  0.1864406779661016 2.9 0  0.1491525423728812 2.9 0  0.1118644067796613 2.9 0  0.07457627118644039 2.9 0  0.03728813559321997 2.9 0  2.792405063291139 2.9 0  2.784810126582279 2.9 0  2.777215189873418 2.9 0  2.769620253164557 2.9 0  2.762025316455697 2.9 0  2.754430379746836 2.9 0  2.746835443037975 2.9 0  2.739240506329114 2.9 0  2.731645569620254 2.9 0  2.724050632911393 2.9 0  2.716455696202532 2.9 0  2.708860759493671 2.9 0  2.701265822784811 2.9 0  2.69367088607595 2.9 0  2.686075949367089 2.9 0  2.678481012658228 2.9 0  2.670886075949368 2.9 0  2.663291139240507 2.9 0  2.655696202531646 2.9 0  2.648101265822786 2.9 0  2.640506329113925 2.9 0  2.632911392405064 2.9 0  2.625316455696203 2.9 0  2.617721518987342 2.9 0  2.610126582278482 2.9 0  2.602531645569621 2.9 0  2.59493670886076 2.9 0  2.587341772151899 2.9 0  2.579746835443038 2.9 0  2.572151898734178 2.9 0  2.564556962025317 2.9 0  2.556962025316456 2.9 0  2.549367088607595 2.9 0  2.541772151898734 2.9 0  2.534177215189874 2.9 0  2.526582278481013 2.9 0  2.518987341772152 2.9 0  2.511392405063292 2.9 0  2.503797468354431 2.9 0  2.49620253164557 2.9 0  2.488607594936709 2.9 0  2.481012658227848 2.9 0  2.473417721518988 2.9 0  2.465822784810127 2.9 0  2.458227848101266 2.9 0  2.450632911392406 2.9 0  2.443037974683545 2.9 0  2.435443037974684 2.9 0  2.427848101265823 2.9 0  2.420253164556962 2.9 0  2.412658227848102 2.9 0  2.405063291139241 2.9 0  2.39746835443038 2.9 0  2.389873417721519 2.9 0  2.382278481012658 2.9 0  2.374683544303798 2.9 0  2.367088607594937 2.9 0  2.359493670886076 2.9 0  2.351898734177215 2.9 0  2.344303797468355 2.9 0  2.336708860759494 2.9 0  2.329113924050633 2.9 0  2.321518987341773 2.9 0  2.313924050632912 2.9 0  2.306329113924051 2.9 0  2.29873417721519 2.9 0  2.291139240506329 2.9 0  2.283544303797469 2.9 0  2.275949367088608 2.9 0  2.268354430379747 2.9 0  2.260759493670887 2.9 0  2.253164556962026 2.9 0  2.245569620253165 2.9 0  2.237974683544304 2.9 0  2.230379746835443 2.9 0  2.222784810126583 2.9 0  2.215189873417722 2.9 0  2.207594936708861 2.9 0  4.96271186440678 2.9 0  4.925423728813559 2.9 0  4.888135593220339 2.9 0  4.850847457627118 2.9 0  4.813559322033898 2.9 0  4.776271186440677 2.9 0  4.738983050847457 2.9 0  4.701694915254237 2.9 0  4.664406779661016 2.9 0  4.627118644067796 2.9 0  4.589830508474575 2.9 0  4.552542372881355 2.9 0  4.515254237288135 2.9 0  4.477966101694914 2.9 0  4.440677966101694 2.9 0  4.403389830508473 2.9 0  4.366101694915252 2.9 0  4.328813559322032 2.9 0  4.291525423728811 2.9 0  4.254237288135591 2.9 0  4.21694915254237 2.9 0  4.17966101694915 2.9 0  4.14237288135593 2.9 0  4.105084745762709 2.9 0  4.067796610169489 2.9 0  4.030508474576268 2.9 0  3.993220338983048 2.9 0  3.955932203389827 2.9 0  3.918644067796607 2.9 0  3.881355932203387 2.9 0  3.844067796610166 2.9 0  3.806779661016946 2.9 0  3.769491525423725 2.9 0  3.732203389830505 2.9 0  3.694915254237285 2.9 0  3.657627118644065 2.9 0  3.620338983050845 2.9 0  3.583050847457625 2.9 0  3.545762711864405 2.9 0  3.508474576271184 2.9 0  3.471186440677964 2.9 0  3.433898305084744 2.9 0  3.396610169491524 2.9 0  3.359322033898303 2.9 0  3.322033898305083 2.9 0  3.284745762711863 2.9 0  3.247457627118643 2.9 0  3.210169491525423 2.9 0  3.172881355932202 2.9 0  3.135593220338982 2.9 0  3.098305084745762 2.9 0  3.061016949152542 2.9 0  3.023728813559321 2.9 0  2.986440677966101 2.9 0  2.949152542372881 2.9 0  2.911864406779661 2.9 0  2.87457627118644 2.9 0  2.83728813559322 2.9 0  5 0.1063822625082082 0  5 0.210636880010749 0  5 0.3128064053694972 0  5 0.4129325400644018 0  5 0.5110561521032336 0  5 0.6072172918830103 0  5 0.7014552087832795 0  5 0.7938083674443693 0  5 0.88431446261646 0  5 0.9730104359544682 0  5 1.059932489996267 0  5 1.145116102913299 0  5 1.228596043483191 0  5 1.310406385079062 0  5 1.390580519944147 0  5 1.469151172477827 0  5 1.546150411986101 0  5 1.621609666658609 0  5 1.695559736099044 0  5 1.76803080383987 0  5 1.839052450169751 0  5 1.908653663631169 0  5 1.97686285289587 0  5 2.043707858613779 0  5 2.109215964341413 0  5 2.173413907925942 0  5 2.236327892833935 0  5 2.297983597762904 0  5 2.35840618845912 0  5 2.41762032730194 0  5 2.475650183444628 0  5 2.532519442457069 0  5 2.588251316112828 0  5 2.642868552557322 0  5 2.696393444426347 0  5 2.748847838312051 0  5 2.800253144313381 0  5 2.850630344319807 0  0.2631578947368421 0 0  0.5263157894736842 0 0  0.7894736842105263 0 0  1.052631578947368 0 0  1.31578947368421 0 0  1.578947368421053 0 0  1.842105263157895 0 0  2.105263157894737 0 0  2.368421052631579 0 0  2.631578947368421 0 0  2.894736842105263 0 0  3.157894736842105 0 0  3.421052631578947 0 0  3.684210526315789 0 0  3.947368421052632 0 0  4.210526315789473 0 0  4.473684210526315 0 0  4.736842105263158 0 0  0 2.850203682350569 0  0 2.799411438503675 0  0 2.747603349778291 0  0 2.694759099502208 0  0 2.640857964382145 0  0 2.58587880633613 0  0 2.52980006535898 0  0 2.472599749459174 0  0 2.414255427218689 0  0 2.35474421880616 0  0 2.294042786119219 0  0 2.232127324764723 0  0 2.1689735539481 0  0 2.104556707683347 0  0 2.038851524813415 0  0 1.971832238155655 0  0 1.903472565412126 0  0 1.83374569926617 0  0 1.762624296208475 0  0 1.690080464918761 0  0 1.616085756774206 0  0 1.540611154706337 0  0 1.463627060685571 0  0 1.385103284916206 0  0 1.305009033716617 0  0 1.223312897337225 0  0 1.139982838163732 0  0 1.054986177579938 0  0 0.9682895835804817 0  0 0.8798590579197976 0  0 0.7896599218415354 0  0 0.6976568029903638 0  0 0.6038136217958798 0  0 0.508093576867624 0  0 0.4104591310957497 0  0 0.3108719963522191 0  0 0.2092931188294389 0  0 0.1056826638508546 0  1.434832105763824 2.866945754981483 0  1.737156300467626 2.870039440267515 0  2.032203389830508 2.867707527316512 0  2.332911392405064 2.893422591869991 0  2.469810913293406 2.891944186606167 0  2.606221408823969 2.892519154985628 0  2.255455320628894 2.892068685006691 0  2.538247299216212 2.894964578182811 0  2.674683544303798 2.893422591869991 0  2.40126582278481 2.893422591869991 0  3.566125247295424 2.865029336199714 0  3.266101694915253 2.867707527316512 0  2.967796610169491 2.867707527316512 0  1.174288529834642 2.870795313888584 0  3.825423728813556 2.867707527316512 0  2.727766680262011 2.892655387647729 0  0.06601655192030442 1.502119107695954 0  4.933983535508361 1.507650792231964 0  0.9532124728485543 2.868722489783638 0  4.048935912500257 2.870640982995992 0  0.05930163367361763 1.866907161167414 0  4.943402512618553 1.871280731473148 0  4.271733870017743 2.86520865624265 0  0.7249420921613114 2.863922936177041 0  0.05494499779910056 2.196469063120752 0  4.947228695426367 2.208030108792719 0  0.5406152150397161 2.866493807382013 0  4.459322033898304 2.868847558178794 0  2.18135593220339 2.875780645487384 0  2.817027156509632 2.876587550645167 0  4.928427208322876 1.186856073198245 0  0.07189226971603224 1.174626666111662 0  4.610299014423113 2.867003104093161 0  0.3897270066746357 2.869433095314657 0  1.581132500042262 2.868247328632392 0  1.887637879411437 2.869235851794358 0  3.413449426418068 2.867372048034327 0  3.116721298814773 2.865731235547652 0  2.644303797468355 2.893422591869991 0  2.370983221828106 2.892719513369796 0  2.302531645569621 2.893336787387268 0  2.758987341772152 2.894242393897099 0  0.04979653335696277 2.443411216910286 0  4.950470983477169 2.446866954595817 0  2.482937483021586 0.2513241087417575 0  1.707129504814338 0.1999998659920923 0  3.28584657955054 0.229200625631625 0  4.907807122600524 0.834082362900164 0  4.757627118644067 2.867707527316512 0  0.0773489124676745 0.8347594898806663 0  0.2390604736599387 2.861365431805741 0  0.8363213715215729 2.863896768908178 0  4.160865610207075 2.868916854015731 0  1.282549332053297 2.867610952980761 0  1.065094818402487 2.861284686038041 0  3.93818127737282 2.86865134411395 0  3.711492629432973 2.863574306925269 0  4.91369361998929 0.5579891344254361 0  0.08208328472281323 0.5559535993317519 0  2.696596932532885 2.892010483922337 0  0.04706410140274553 2.613055974506516 0  4.955577063972248 2.616518038840186 0  2.234177215189874 2.893422591869991 0  2.279795840559739 2.89403861893984 0  0.9117357887652362 0.2117925286661764 0  4.055948041993057 0.2039101057937727 0  4.872119713780579 2.867632926423075 0  2.780113878992455 2.891535929611743 0  0.1327442468251063 2.85
[...]
<PointData  Vectors="displacement"> 
<DataArray  type="Float64"  Name="displacement"  NumberOfComponents="3" format="ascii">1.8943698945401363e-03 -9.9129957563602218e-03 0.0000000000000000e+00  0.0000000000000000e+00 -4.0817482924037285e-04 0.0000000000000000e+00  -1.8969711246976510e-03 -9.9134023024792135e-03 0.0000000000000000e+00  0.0000000000000000e+00 -4.0817531697288028e-04 0.0000000000000000e+00  0.0000000000000000e+00 0.0000000000000000e+00 0.0000000000000000e+00  0.0000000000000000e+00 0.0000000000000000e+00 0.0000000000000000e+00  1.8777068460419934e-03 -8.7731814091903913e-03 0.0000000000000000e+00  1.8400706610676235e-03 -8.0210088140446768e-03 0.0000000000000000e+00  1.8029472146705934e-03 -7.4157312547423280e-03 0.0000000000000000e+00  1.7660347409525429e-03 -6.8995732281880075e-03 0.0000000000000000e+00  1.7291722991678699e-03 -6.4467271970343300e-03 0.0000000000000000e+00  1.6923870088417455e-03 -6.0422991742508760e-03 0.0000000000000000e+00  1.6557173076043818e-03 -5.6765472975766444e-03 0.0000000000000000e+00  1.6191712875705149e-03 -5.3426793124656162e-03 0.0000000000000000e+00  1.5827863033310986e-03 -5.0356463825574098e-03 0.0000000000000000e+00  1.5465490554580474e-03 -4.7516832127214538e-03 0.0000000000000000e+00  1.5104706000298464e-03 -4.4878626826841102e-03 0.0000000000000000e+00  1.4745592017843116e-03 -4.2417931511229343e-03 0.0000000000000000e+00  1.4388287339878669e-03 -4.0115148310225692e-03 0.0000000000000000e+00  1.4032787369698799e-03 -3.7954278059808308e-03 0.0000000000000000e+00  1.3679173906892238e-03 -3.5921930882108393e-03 0.0000000000000000e+00  1.3327488609230942e-03 -3.4006652728246801e-03 0.0000000000000000e+00  1.2977805884095129e-03 -3.2198641301788536e-03 0.0000000000000000e+00  1.2630087440707813e-03 -3.0489400450875877e-03 0.0000000000000000e+00  1.2284434322998321e-03 -2.8871491634018102e-03 0.0000000000000000e+00  1.1940869940305202e-03 -2.7338439913153182e-03 0.0000000000000000e+00  1.1599423810509778e-03 -2.5884532413907439e-03 0.0000000000000000e+00  1.1260107767287213e-03 -2.4504699625412072e-03 0.0000000000000000e+00  1.0922959829803055e-03 -2.3194339292297987e-03 0.0000000000000000e+00  1.0587954136151421e-03 -2.1949409160045802e-03 0.0000000000000000e+00  1.0255127678208884e-03 -2.0766283113676635e-03 0.0000000000000000e+00  9.9244898261478028e-04 -1.9641623073422478e-03 0.0000000000000000e+00  9.5960324837055671e-04 -1.8572391211664574e-03 0.0000000000000000e+00  9.2697225926489262e-04 -1.7555908277174367e-03 0.0000000000000000e+00  8.9456185575035165e-04 -1.6589678157499697e-03 0.0000000000000000e+00  8.6236098596878107e-04 -1.5671367640127201e-03 0.0000000000000000e+00  8.3037519951261211e-04 -1.4798923523248961e-03 0.0000000000000000e+00  7.9860038621809917e-04 -1.3970450462885908e-03 0.0000000000000000e+00  7.6703082292395362e-04 -1.3184209952184312e-03 0.0000000000000000e+00  7.3566580231420220e-04 -1.2438508425906677e-03 0.0000000000000000e+00  7.0450030128258378e-04 -1.1731899126623732e-03 0.0000000000000000e+00  6.7353113956315617e-04 -1.1062982168502330e-03 0.0000000000000000e+00  6.4275247976041576e-04 -1.0430470812649031e-03 0.0000000000000000e+00  6.1215996043836624e-04 -9.8332093922837041e-04 0.0000000000000000e+00  5.8174801669533163e-04 -9.2700902782338543e-04 0.0000000000000000e+00  5.5151053699408880e-04 -8.7401079886000044e-04 0.0000000000000000e+00  5.2144139777399558e-04 -8.2423315924903058e-04 0.0000000000000000e+00  4.9153413517941710e-04 -7.7758988998750543e-04 0.0000000000000000e+00  4.6178116806445626e-04 -7.3400109794987951e-04 0.0000000000000000e+00  4.3217581002546470e-04 -6.9339429061119923e-04 0.0000000000000000e+00  4.0271014395226929e-04 -6.5570143003616950e-04 0.0000000000000000e+00  3.7337639813719419e-04 -6.2086113080209540e-04 0.0000000000000000e+00  3.4416630084319082e-04 -5.8881678546538786e-04 0.0000000000000000e+00  3.1507144078584911e-04 -5.5951723018647030e-04 0.0000000000000000e+00  2.8608298575172520e-04 -5.3291556796307090e-04 0.0000000000000000e+00  2.5719191703834677e-04 -5.0897011376654423e-04 0.0000000000000000e+00  2.2838997827457841e-04 -4.8764363624128162e-04 0.0000000000000000e+00  1.9966606551711271e-04 -4.6890218387536723e-04 0.0000000000000000e+00  1.7101189397423342e-04 -4.5271704555598606e-04 0.0000000000000000e+00  1.4241779629591334e-04 -4.3906393489959237e-04 0.0000000000000000e+00  1.1387447530087292e-04 -4.2792152956999435e-04 0.0000000000000000e+00  8.5370146962773037e-05 -4.1927252603838662e-04 0.0000000000000000e+00  5.6896459190768673e-05 -4.1310397891658381e-04 0.0000000000000000e+00  2.8443067291334006e-05 -4.0940662666856726e-04 0.0000000000000000e+00  -1.8700458140172595e-03 -1.0260119218514149e-02 0.0000000000000000e+00  -1.8197244616075577e-03 -1.0510096547617254e-02 0.0000000000000000e+00  -1.7705003584463377e-03 -1.0723676946056693e-02 0.0000000000000000e+00  -1.7215165715834422e-03 -1.0914508771830714e-02 0.0000000000000000e+00  -1.6728750762224124e-03 -1.1088629079442436e-02 0.0000000000000000e+00  -1.6242777329554571e-03 -1.1249285183778431e-02 0.0000000000000000e+00  -1.5757135626382455e-03 -1.1398666537087194e-02 0.0000000000000000e+00  -1.5271705609158871e-03 -1.1538234886789102e-02 0.0000000000000000e+00  -1.4786285546819586e-03 -1.1669106229579456e-02 0.0000000000000000e+00  -1.4301032816182507e-03 -1.1792161227399291e-02 0.0000000000000000e+00  -1.3815910393675883e-03 -1.1908088847262256e-02 0.0000000000000000e+00  -1.3330823332861116e-03 -1.2017445767509656e-02 0.0000000000000000e+00  -1.2845787550790529e-03 -1.2120701131770998e-02 0.0000000000000000e+00  -1.2360804976903504e-03 -1.2218238698799110e-02 0.0000000000000000e+00  -1.1875815977602463e-03 -1.2310383740570632e-02 0.0000000000000000e+00  -1.1390890414359263e-03 -1.2397429975296045e-02 0.0000000000000000e+00  -1.0905991933678285e-03 -1.2479620404488989e-02 0.0000000000000000e+00  -1.0421123457969158e-03 -1.2557168005281687e-02 0.0000000000000000e+00  -9.9362789890353014e-04 -1.2630262087244550e-02 0.0000000000000000e+00  -9.4514542458415732e-04 -1.2699068333466509e-02 0.0000000000000000e+00  -8.9666496002276271e-04 -1.2763734120776433e-02 0.0000000000000000e+00  -8.4818643542515645e-04 -1.2824390550699319e-02 0.0000000000000000e+00  -7.9970945203252405e-04 -1.2881153688227445e-02 0.0000000000000000e+00  -7.5123425206907811e-04 -1.2934128306993224e-02 0.0000000000000000e+00  -7.0276054168301580e-04 -1.2983407932570039e-02 0.0000000000000000e+00  -6.5428816806985637e-04 -1.3029075149944534e-02 0.0000000000000000e+00  -6.0581769109464443e-04 -1.3071204687988653e-02 0.0000000000000000e+00  -5.5734753916324912e-04 -1.3109862341569760e-02 0.0000000000000000e+00  -5.0887865747157853e-04 -1.3145108213866602e-02 0.0000000000000000e+00  -4.6041095881836945e-04 -1.3176994629394282e-02 0.0000000000000000e+00  -4.1194421271699872e-04 -1.3205568140607193e-02 0.0000000000000000e+00  -3.6347809783072473e-04 -1.3230869194162042e-02 0.0000000000000000e+00  -3.1501265894810841e-04 -1.3252933350308147e-02 0.0000000000000000e+00  -2.6654799715281622e-04 -1.3271791026964953e-02 0.0000000000000000e+00  -2.1808341893739123e-04 -1.3287467079360555e-02 0.0000000000000000e+00  -1.6962010519542804e-04 -1.3299983546856740e-02 0.0000000000000000e+00  -1.2115629785908905e-04 -1.3309356572511415e-02 0.0000000000000000e+00  -7.2692888244446543e-05 -1.3315598242086361e-02 0.0000000000000000e+00  -2.4229790557878636e-05 -1.3318717078989625e-02 0.0000000000000000e+00  2.4233311945971278e-05 -1.3318717018975631e-02 0.0000000000000000e+00  7.2696458287504689e-05 -1.3315598041628971e-02 0.0000000000000000e+00  1.2115974877308006e-04 -1.3309356121953161e-02 0.0000000000000000e+00  1.6962327953948817e-04 -1.3299983195848734e-02 0.0000000000000000e+00  2.1808702453067786e-04 -1.3287466674048648e-02 0.0000000000000000e+00  2.6655134606625884e-04 -1.3271789937083195e-02 0.0000000000000000e+00  3.1501606416271870e-04 -1.3252932446071383e-02 0.0000000000000000e+00  3.6348143210361973e-04 -1.3230868323585086e-02 0.0000000000000000e+00  4.1194747732563021e-04 -1.3205567153325711e-02 0.0000000000000000e+00  4.6041446349701207e-04 -1.3176993691772512e-02 0.0000000000000000e+00  5.0888217521879639e-04 -1.3145106985348431e-02 0.0000000000000000e+00  5.5735094143272146e-04 -1.3109861136476679e-02 0.0000000000000000e+00  6.0582117773656547e-04 -1.3071203078721486e-02 0.0000000000000000e+00  6.5429200090741304e-04 -1.3029073494392180e-02 0.0000000000000000e+00  7.0276437296535623e-04 -1.2983406619540439e-02 0.0000000000000000e+00  7.5123814907805176e-04 -1.2934127417178648e-02 0.0000000000000000e+00  7.9971348528666704e-04 -1.2881152714412628e-02 0.0000000000000000e+00  8.4819023251367039e-04 -1.2824389211849110e-02 0.0000000000000000e+00  8.9666961939116098e-04 -1.2763733332840730e-02 0.0000000000000000e+00  9.4515092198991818e-04 -1.2699066028316327e-02 0.0000000000000000e+00  9.9363389231161723e-04 -1.2630259763293218e-02 0.0000000000000000e+00  1.0421189448599161e-03 -1.2557165492221538e-02 0.0000000000000000e+00  1.0906066793771446e-03 -1.2479617332776444e-02 0.0000000000000000e+00  1.1390971409732586e-03 -1.2397426819966386e-02 0.0000000000000000e+00  1.1875908541795573e-03 -1.2310379194525475e-02 0.0000000000000000e+00  1.2360880088352530e-03 -1.2218229613328342e-02 0.0000000000000000e+00  1.2845899345610842e-03 -1.2120692991333983e-02 0.0000000000000000e+00  1.3330945512449416e-03 -1.2017438231002138e-02 0.0000000000000000e+00  1.3816043854583185e-03 -1.1908076485244178e-02 0.0000000000000000e+00  1.4301236523038118e-03 -1.1792153657345296e-02 0.0000000000000000e+00  1.4786458345064318e-03 -1.1669096074035787e-02 0.0000000000000000e+00  1.5271761691288269e-03 -1.1538211541647867e-02 0.0000000000000000e+00  1.5757265654361165e-03 -1.1398646541023695e-02 0.0000000000000000e+00  1.6243062576627937e-03 -1.1249297100642357e-02 0.0000000000000000e+00  1.6728958742933165e-03 -1.1088597430061914e-02 0.0000000000000000e+00  1.7215134441562539e-03 -1.0914430904111981e-02 0.0000000000000000e+00  1.7700978860663002e-03 -1.0723657713170713e-02 0.0000000000000000e+00  1.8200461829148337e-03 -1.0510804639995971e-02 0.0000000000000000e+00  1.8697800534991733e-03 -1.0259327649101771e-02 0.0000000000000000e+00  -2.8443289954776591e-05 -4.0940701208271588e-04 0.0000000000000000e+00  -5.6896684177785429e-05 -4.1310441562610620e-04 0.0000000000000000e+00  -8.5370197622448155e-05 -4.1927282696359634e-04 0.0000000000000000e+00  -1.1387396006448895e-04 -4.2792176982629217e-04 0.0000000000000000e+00  -1.4241784632810855e-04 -4.3906420941693179e-04 0.0000000000000000e+00  -1.7101234833158887e-04 -4.5271774372380590e-04 0.0000000000000000e+00  -1.9966602125738611e-04 -4.6890240607477281e-04 0.0000000000000000e+00  -2.2838955927151152e-04 -4.8764367523001530e-04 0.0000000000000000e+00  -2.5719204512879268e-04 -5.0897042187541305e-04 0.0000000000000000e+00  -2.8608304807831983e-04 -5.3291601664444920e-04 0.0000000000000000e+00  -3.1507144925175114e-04 -5.5951767707020713e-04 0.0000000000000000e+00  -3.4416644147232346e-04 -5.8881739263183855e-04 0.0000000000000000e+00  -3.7337649187045504e-04 -6.2086172097647102e-04 0.0000000000000000e+00  -4.0271016626153609e-04 -6.5570202478636879e-04 0.0000000000000000e+00  -4.3217573589293592e-04 -6.9339475077010956e-04 0.0000000000000000e+00  -4.6178107369286011e-04 -7.3400165635528877e-04 0.0000000000000000e+00  -4.9153386617420294e-04 -7.7759002278305787e-04 0.0000000000000000e+00  -5.2144144972771664e-04 -8.2423375586540711e-04 0.0000000000000000e+00  -5.5151036327044276e-04 -8.7401156976846489e-04 0.0000000000000000e+00  -5.8174789584815789e-04 -9.2701017050970209e-04 0.0000000000000000e+00  -6.1216078875093582e-04 -9.8332252642927887e-04 0.0000000000000000e+00  -6.4275212701855270e-04 -1.0430479683809844e-03 0.0000000000000000e+00  -6.7353078446865896e-04 -1.1062981580276744e-03 0.0000000000000000e+00  -7.0450015439242012e-04 -1.1731902751683210e-03 0.0000000000000000e+00  -7.3566530100690878e-04 -1.2438517977179785e-03 0.0000000000000000e+00  -7.6703034207498773e-04 -1.3184208627998880e-03 0.0000000000000000e+00  -7.9859921641510349e-04 -1.3970473424708700e-03 0.0000000000000000e+00  -8.3037504951285427e-04 -1.4798935856314755e-03 0.0000000000000000e+00  -8.6236126992706797e-04 -1.5671360358819966e-03 0.0000000000000000e+00  -8.9455999436426428e-04 -1.6589654865382046e-03 0.0000000000000000e+00  -9.2697296332242256e-04 -1.7555908960220396e-03 0.0000000000000000e+00  -9.5960139838419513e-04 -1.8572391685512774e-03 0.0000000000000000e+00  -9.9245222952726352e-04 -1.9641617042606492e-03 0.0000000000000000e+00  -1.0255123262187488e-03 -2.0766292282901433e-03 0.0000000000000000e+00  -1.0587949836604583e-03 -2.1949443245587574e-03 0.0000000000000000e+00  -1.0922948866378193e-03 -2.3194350701780044e-03 0.0000000000000000e+00  -1.1260119191115697e-03 -2.4504684802434413e-03 0.0000000000000000e+00  -1.1599422800960566e-03 -2.5884529745651575e-03 0.0000000000000000e+00  -1.1940863957556865e-03 -2.7338434441357387e-03 0.0000000000000000e+00  -1.2284423365290017e-03 -2.8871475783938290e-03 0.0000000000000000e+00  -1.2630078616972817e-03 -3.0489380743312618e-03 0.0000000000000000e+00  -1.2977773713853788e-03 -3.2198661730240830e-03 0.0000000000000000e+00  -1.3327512609615636e-03 -3.4006698860838125e-03 0.0000000000000000e+00  -1.3679212544740510e-03 -3.5921959839933541e-03 0.0000000000000000e+00  -1.4032798997437102e-03 -3.7954259068515616e-03 0.0000000000000000e+00  -1.4388243449735872e-03 -4.0115100942575447e-03 0.0000000000000000e+00  -1.4745562085150463e-03 -4.2417885614903800e-03 0.0000000000000000e+00  -1.5104665591278901e-03 -4.4878734994836323e-03 0.0000000000000000e+00  -1.5465457000615190e-03 -4.7517015245310277e-03 0.0000000000000000e+00  -1.5827915517621228e-03 -5.0356322703813423e-03 0.0000000000000000e+00  -1.6191752467042905e-03 -5.3426830907993567e-03 0.0000000000000000e+00  -1.6557328164218106e-03 -5.6765293291283943e-03 0.0000000000000000e+00  -1.6923863326320098e-03 -6.0423090522774316e-03 0.0000000000000000e+00  -1.7291417964891973e-03 -6.4467657588046911e-03 0.0000000000000000e+00  -1.7660027432631761e-03 -6.8995713130597398e-03 0.0000000000000000e+00  -1.8031226354802490e-03 -7.4157035108723584e-03 0.0000000000000000e+00  -1.8396009067538684e-03 -8.0212962969645907e-03 0.0000000000000000e+00  -1.8780649566646369e-03 -8.7726555900105637e-03 0.0000000000000000e+00  0.0000000000000000e+00 -7.9215179471236300e-05 0.0000000000000000e+00  0.0000000000000000e+00 -1.4797323211672423e-04 0.0000000000000000e+00  0.0000000000000000e+00 -2.0755392091109290e-04 0.0000000000000000e+00  0.0000000000000000e+00 -2.5904739454266957e-04 0.0000000000000000e+00  0.0000000000000000e+00 -3.0328208904865245e-04 0.0000000000000000e+00  0.0000000000000000e+00 -3.4093974640801933e-04 0.0000000000000000e+00  0.0000000000000000e+00 -3.7259089680798829e-04 0.0000000000000000e+00  0.0000000000000000e+00 -3.9872387812575502e-04 0.0000000000000000e+00  0.0000000000000000e+00 -4.1972660432413776e-04 0.0000000000000000e+00  0.0000000000000000e+00 -4.3602526429144793e-04 0.0000000000000000e+00  0.0000000000000000e+00 -4.4796390929292867e-04 0.0000000000000000e+00  0.0000000000000000e+00 -4.5589997736637219e-04 0.0000000000000000e+00  0.0000000000000000e+00 -4.6019847077952749e-04 0.0000000000000000e+00  0.0000000000000000e+00 -4.6121984765290654e-04 0.0000000000000000e+00  0.0000000000000000e+00 -4.5933415245876229e-04 0.0000000000000000e+00  0.0000000000000000e+00 -4.5492205818988647e-04 0.0000000000000000e+00  0.0000000000000000e+00 -4.4837751705958164e-04 0.0000000000000000e+00  0.0000000000000000e+00 -4.4009367845526442e-04 0.0000000000000000e+00  0.0000000000000000e+00 -4.3046755964705951e-04 0.0000000000000000e+00  0.0000000000000000e+00 -4.1989517590671827e-04 0.0000000000000000e+00  0.0000000000000000e+00 -4.0876633077546466e-04 0.0000000000000000e+00  0.0000000000000000e+00 -3.9745637415243513e-04 0.0000000000000000e+00  0.0000000000000000e+00 -3.8632789045997567e-04 0.0000000000000000e+00  0.0000000000000000e+00 -3.7571107806509224e-04 0.0000000000000000e+00  0.0000000000000000e+00 -3.6592128102456805e-04 0.0000000000000000e+00  0.0000000000000000e+00 -3.5724290667063822e-04 0.0000000000000000e+00  0.0000000000000000e+00 -3.4991539371987947e-04 0.0000000000000000e+00  0.0000000000000000e+00 -3.4415565667117643e-04 0.0000000000000000e+00  0.0000000000000000e+00 -3.4013648789728670e-04 0.0000000000000000e+00  0.0000000000000000e+00 -3.3799362828943689e-04 0.0000000000000000e+00  0.0000000000000000e+00 -3.3782597000709666e-04 0.0000000000000000e+00  0.0000000000000000e+00 -3.3969408028271096e-04 0.0000000000000000e+00  0.0000000000000000e+00 -3.4362394624333985e-04 0.0000000000000000e+00  0.0000000000000000e+00 -3.4960928750558848e-04 0.0000000000000000e+00  0.0000000000000000e+00 -3.5761276806544479e-04 0.0000000000000000e+00  0.0000000000000000e+00 -3.6756960332383110e-04 0.0000000000000000e+00  0.0000000000000000e+00 -3.7939091431592171e-04 0.0000000000000000e+00  0.0000000000000000e+00 -3.9296811040511799e-04 0.0000000000000000e+00  0.0000000000000000e+00 0.0000000000000000e+00 0.0000000000000000e+00  0.0000000000000000e+00 0.0000000000000000e+00 0.0000000000000000e+00  0.0000000000000000e+00 0.0000000000000000e+00 0.0000000000000000e+00  0.0000000000000000e+00 0.0000000000000000e+00 0.0000000000000000e+00  0.0000000000000000e+00 0.0000000000000000e+00 0.0000000000000000e+00  0.0000000000000000e+00 0.0000000000000000e+00 0.0000000000000000e+00  0.0000000000000000e+00 0.0000000000000000e+00 0.0000000000000000e+00  0.0000000000000000e+00 0.0000000000000000e+00 0.0000000000000000e+00  0.0000000000000000e+00 0.0000000000000000e+00 0.0000000000000000e+00  0.0000000000000000e+00 0.0000000000000000e+00 0.0000000000000000e+00  0.0000000000000000e+00 0.0000000000000000e+00 0.0000000000000000e+00  0.0000000000000000e+00 0.0000000000000000e+00 0.0000000000000000e+00  0.0000000000000000e+00 0.0000000000000000e+00 0.0000000000000000e+00  0.0000000000000000e+00 0.0000000000000000e+00 0.0000000000000000e+00  0.0000000000000000e+00 0.0000000000000000e+00 0.0000000000000000e+00  0.0000000000000000e+00 0.0000000000000000e+00 0.0000000000000000e+00  0.0000000000000000e+00 0.0000000000000000e+00 0.0000000000000000e+00  0.0000000000000000e+00 0.0000000000000000e+00 0.0000000000000000e+00  0.0000000000000000e+00 -3.9284455726271362e-04 0.0000000000000000e+00  0.0000000000000000e+00 -3.7918047340657535e-04 0.0000000000000000e+00  0.0000000000000000e+00 -3.6730849387058473e-04 0.0000000000000000e+00  0.0000000000000000e+00 -3.5733590238499780e-04 0.0000000000000000e+00  0.0000000000000000e+00 -3.4934998877209696e-04 0.0000000000000000e+00  0.0000000000000000e+00 -3.4341223654918673e-04 0.0000000000000000e+00  0.0000000000000000e+00 -3.3955590172471829e-04 0.0000000000000000e+00  0.0000000000000000e+00 -3.3778337631994935e-04 0.0000000000000000e+00  0.0000000000000000e+00 -3.3806375102897018e-04 0.0000000000000000e+00  0.0000000000000000e+00 -3.4032910727311216e-04 0.0000000000000000e+00  0.0000000000000000e+00 -3.4447747829829733e-04 0.0000000000000000e+00  0.0000000000000000e+00 -3.5036031128997885e-04 0.0000000000000000e+00  0.0000000000000000e+00 -3.5780532036904850e-04 0.0000000000000000e+00  0.0000000000000000e+00 -3.6659064756250766e-04 0.0000000000000000e+00  0.0000000000000000e+00 -3.7646603479491402e-04 0.0000000000000000e+00  0.0000000000000000e+00 -3.8714103981089414e-04 0.0000000000000000e+00  0.0000000000000000e+00 -3.9830308279218627e-04 0.0000000000000000e+00  0.0000000000000000e+00 -4.0961726744378910e-04 0.0000000000000000e+00  0.0000000000000000e+00 -4.2071657702837079e-04 0.0000000000000000e+00  0.0000000000000000e+00 -4.3122548355848148e-04 0.0000000000000000e+00  0.0000000000000000e+00 -4.4075660646812224e-04 0.0000000000000000e+00  0.0000000000000000e+00 -4.4891678044996642e-04 0.0000000000000000e+00  0.0000000000000000e+00 -4.5531134825214340e-04 0.00000000000