<?xml version="1.0"?>
<VTKFile type="UnstructuredGrid"  version="0.1"  >
<UnstructuredGrid>
<Piece  NumberOfPoints="3167" NumberOfCells="6038">
<Points>
<DataArray  type="Float64"  NumberOfComponents="3"  format="ascii">2.2 2.9 0  0 2.9 0  2.8 2.9 0  5 2.9 0  5 0 0  0 0 0  2.16271186440678 2.9 0  2.125423728813559 2.9 0  2.088135593220339 2.9 0  2.050847457627119 2.9 0  2.013559322033898 2.9 0  1.976271186440678 2.9 0  1.938983050847457 2.9 0  1.901694915254237 2.9 0  1.864406779661016 2.9 0  1.827118644067796 2.9 0  1.789830508474575 2.9 0  1.752542372881355 2.9 0  1.715254237288134 2.9 0  1.677966101694914 2.9 0  1.640677966101693 2.9 0  1.603389830508473 2.9 0  1.566101694915253 2.9 0  1.528813559322032 2.9 0  1.491525423728812 2.9 0  1.454237288135591 2.9 0  1.416949152542371 2.9 0  1.37966101694915 2.9 0  1.34237288135593 2.9 0  1.305084745762709 2.9 0  1.267796610169489 2.9 0  1.230508474576268 2.9 0  1.193220338983048 2.9 0  1.155932203389827 2.9 0  1.118644067796607 2.9 0  1.081355932203387 2.9 0  1.044067796610166 2.9 0  1.006779661016946 2.9 0  0.9694915254237257 2.9 0  0.9322033898305055 2.9 0  0.8949152542372856 2.9 0  0.8576271186440652 2.9 0  0.820338983050845 2.9 0  0.783050847457625 2.9 0  0.7457627118644048 2.9 0  0.7084745762711844 2.9 0  0.6711864406779642 2.9 0  0.633898305084744 2.9 0  0.5966101694915238 2.9 0  0.5593220338983036 2.9 0  0.5220338983050834 2.9 0  0.4847457627118632 2.9 0  0.447457627118643 2.9 0  0.4101694915254228 2.9 0  0.3728813559322024 2.9 0  0.3355932203389822 2.9 0  0.2983050847457622 2.9 0  0.2610169491525418 2.9 0  0.2237288135593216 2.9 0  0.1864406779661016 2.9 0  0.1491525423728812 2.9 0  0.1118644067796613 2.9 0  0.07457627118644039 2.9 0  0.03728813559321997 2.9 0  2.792405063291139 2.9 0  2.784810126582279 2.9 0  2.777215189873418 2.9 0  2.769620253164557 2.9 0  2.762025316455697 2.9 0  2.754430379746836 2.9 0  2.746835443037975 2.9 0  2.739240506329114 2.9 0  2.731645569620254 2.9 0  2.724050632911393 2.9 0  2.716455696202532 2.9 0  2.708860759493671 2.9 0  2.701265822784811 2.9 0  2.69367088607595 2.9 0  2.686075949367089 2.9 0  2.678481012658228 2.9 0  2.670886075949368 2.9 0  2.663291139240507 2.9 0  2.655696202531646 2.9 0  2.648101265822786 2.9 0  2.640506329113925 2.9 0  2.632911392405064 2.9 0  2.625316455696203 2.9 0  2.617721518987342 2.9 0  2.610126582278482 2.9 0  2.602531645569621 2.9 0  2.59493670886076 2.9 0  2.587341772151899 2.9 0  2.579746835443038 2.9 0  2.572151898734178 2.9 0  2.564556962025317 2.9 0  2.556962025316456 2.9 0  2.549367088607595 2.9 0  2.541772151898734 2.9 0  2.534177215189874 2.9 0  2.526582278481013 2.9 0  2.518987341772152 2.9 0  2.511392405063292 2.9 0  2.503797468354431 2.9 0  2.49620253164557 2.9 0  2.488607594936709 2.9 0  2.481012658227848 2.9 0  2.473417721518988 2.9 0  2.465822784810127 2.9 0  2.458227848101266 2.9 0  2.450632911392406 2.9 0  2.443037974683545 2.9 0  2.435443037974684 2.9 0  2.427848101265823 2.9 0  2.420253164556962 2.9 0  2.412658227848102 2.9 0  2.405063291139241 2.9 0  2.39746835443038 2.9 0  2.389873417721519 2.9 0  2.382278481012658 2.9 0  2.374683544303798 2.9 0  2.367088607594937 2.9 0  2.359493670886076 2.9 0  2.351898734177215 2.9 0  2.344303797468355 2.9 0  2.336708860759494 2.9 0  2.329113924050633 2.9 0  2.321518987341773 2.9 0  2.313924050632912 2.9 0  2.306329113924051 2.9 0  2.29873417721519 2.9 0  2.291139240506329 2.9 0  2.283544303797469 2.9 0  2.275949367088608 2.9 0  2.268354430379747 2.9 0  2.260759493670887 2.9 0  2.253164556962026 2.9 0  2.245569620253165 2.9 0  2.237974683544304 2.9 0  2.230379746835443 2.9 0  2.222784810126583 2.9 0  2.215189873417722 2.9 0  2.207594936708861 2.9 0  4.96271186440678 2.9 0  4.925423728813559 2.9 0  4.888135593220339 2.9 0  4.850847457627118 2.9 0  4.813559322033898 2.9 0  4.776271186440677 2.9 0  4.738983050847457 2.9 0  4.701694915254237 2.9 0  4.664406779661016 2.9 0  4.627118644067796 2.9 0  4.589830508474575 2.9 0  4.552542372881355 2.9 0  4.515254237288135 2.9 0  4.477966101694914 2.9 0  4.440677966101694 2.9 0  4.403389830508473 2.9 0  4.366101694915252 2.9 0  4.328813559322032 2.9 0  4.291525423728811 2.9 0  4.254237288135591 2.9 0  4.21694915254237 2.9 0  4.17966101694915 2.9 0  4.14237288135593 2.9 0  4.105084745762709 2.9 0  4.067796610169489 2.9 0  4.030508474576268 2.9 0  3.993220338983048 2.9 0  3.955932203389827 2.9 0  3.918644067796607 2.9 0  3.881355932203387 2.9 0  3.844067796610166 2.9 0  3.806779661016946 2.9 0  3.769491525423725 2.9 0  3.732203389830505 2.9 0  3.694915254237285 2.9 0  3.657627118644065 2.9 0  3.620338983050845 2.9 0  3.583050847457625 2.9 0  3.545762711864405 2.9 0  3.508474576271184 2.9 0  3.471186440677964 2.9 0  3.433898305084744 2.9 0  3.396610169491524 2.9 0  3.359322033898303 2.9 0  3.322033898305083 2.9 0  3.284745762711863 2.9 0  3.247457627118643 2.9 0  3.210169491525423 2.9 0  3.172881355932202 2.9 0  3.135593220338982 2.9 0  3.098305084745762 2.9 0  3.061016949152542 2.9 0  3.023728813559321 2.9 0  2.986440677966101 2.9 0  2.949152542372881 2.9 0  2.911864406779661 2.9 0  2.87457627118644 2.9 0  2.83728813559322 2.9 0  5 0.1063822625082082 0  5 0.210636880010749 0  5 0.3128064053694972 0  5 0.4129325400644018 0  5 0.5110561521032336 0  5 0.6072172918830103 0  5 0.7014552087832795 0  5 0.7938083674443693 0  5 0.88431446261646 0  5 0.9730104359544682 0  5 1.059932489996267 0  5 1.145116102913299 0  5 1.228596043483191 0  5 1.310406385079062 0  5 1.390580519944147 0  5 1.469151172477827 0  5 1.546150411986101 0  5 1.621609666658609 0  5 1.695559736099044 0  5 1.76803080383987 0  5 1.839052450169751 0  5 1.908653663631169 0  5 1.97686285289587 0  5 2.043707858613779 0  5 2.109215964341413 0  5 2.173413907925942 0  5 2.236327892833935 0  5 2.297983597762904 0  5 2.35840618845912 0  5 2.41762032730194 0  5 2.475650183444628 0  5 2.532519442457069 0  5 2.588251316112828 0  5 2.642868552557322 0  5 2.696393444426347 0  5 2.748847838312051 0  5 2.800253144313381 0  5 2.850630344319807 0  0.2631578947368421 0 0  0.5263157894736842 0 0  0.7894736842105263 0 0  1.052631578947368 0 0  1.31578947368421 0 0  1.578947368421053 0 0  1.842105263157895 0 0  2.105263157894737 0 0  2.368421052631579 0 0  2.631578947368421 0 0  2.894736842105263 0 0  3.157894736842105 0 0  3.421052631578947 0 0  3.684210526315789 0 0  3.947368421052632 0 0  4.210526315789473 0 0  4.473684210526315 0 0  4.736842105263158 0 0  0 2.850203682350569 0  0 2.799411438503675 0  0 2.747603349778291 0  0 2.694759099502208 0  0 2.640857964382145 0  0 2.58587880633613 0  0 2.52980006535898 0  0 2.472599749459174 0  0 2.414255427218689 0  0 2.35474421880616 0  0 2.294042786119219 0  0 2.232127324764723 0  0 2.1689735539481 0  0 2.104556707683347 0  0 2.038851524813415 0  0 1.971832238155655 0  0 1.903472565412126 0  0 1.83374569926617 0  0 1.762624296208475 0  0 1.690080464918761 0  0 1.616085756774206 0  0 1.540611154706337 0  0 1.463627060685571 0  0 1.385103284916206 0  0 1.305009033716617 0  0 1.223312897337225 0  0 1.139982838163732 0  0 1.054986177579938 0  0 0.9682895835804817 0  0 0.8798590579197976 0  0 0.7896599218415354 0  0 0.6976568029903638 0  0 0.6038136217958798 0  0 0.508093576867624 0  0 0.4104591310957497 0  0 0.3108719963522191 0  0 0.2092931188294389 0  0 0.1056826638508546 0  1.434832105763824 2.866945754981483 0  1.737156300467626 2.870039440267515 0  2.032203389830508 2.867707527316512 0  2.332911392405064 2.893422591869991 0  2.469810913293406 2.891944186606167 0  2.606221408823969 2.892519154985628 0  2.255455320628894 2.892068685006691 0  2.538247299216212 2.894964578182811 0  2.674683544303798 2.893422591869991 0  2.40126582278481 2.893422591869991 0  3.566125247295424 2.865029336199714 0  3.266101694915253 2.867707527316512 0  2.967796610169491 2.867707527316512 0  1.174288529834642 2.870795313888584 0  3.825423728813556 2.867707527316512 0  2.727766680262011 2.892655387647729 0  0.06601655192030442 1.502119107695954 0  4.933983535508361 1.507650792231964 0  0.9532124728485543 2.868722489783638 0  4.048935912500257 2.870640982995992 0  0.05930163367361763 1.866907161167414 0  4.943402512618553 1.871280731473148 0  4.271733870017743 2.86520865624265 0  0.7249420921613114 2.863922936177041 0  0.05494499779910056 2.196469063120752 0  4.947228695426367 2.208030108792719 0  0.5406152150397161 2.866493807382013 0  4.459322033898304 2.868847558178794 0  2.18135593220339 2.875780645487384 0  2.817027156509632 2.876587550645167 0  4.928427208322876 1.186856073198245 0  0.07189226971603224 1.174626666111662 0  4.610299014423113 2.867003104093161 0  0.3897270066746357 2.869433095314657 0  1.581132500042262 2.868247328632392 0  1.887637879411437 2.869235851794358 0  3.413449426418068 2.867372048034327 0  3.116721298814773 2.865731235547652 0  2.644303797468355 2.893422591869991 0  2.370983221828106 2.892719513369796 0  2.302531645569621 2.893336787387268 0  2.758987341772152 2.894242393897099 0  0.04979653335696277 2.443411216910286 0  4.950470983477169 2.446866954595817 0  2.482937483021586 0.2513241087417575 0  1.707129504814338 0.1999998659920923 0  3.28584657955054 0.229200625631625 0  4.907807122600524 0.834082362900164 0  4.757627118644067 2.867707527316512 0  0.0773489124676745 0.8347594898806663 0  0.2390604736599387 2.861365431805741 0  0.8363213715215729 2.863896768908178 0  4.160865610207075 2.868916854015731 0  1.282549332053297 2.867610952980761 0  1.065094818402487 2.861284686038041 0  3.93818127737282 2.86865134411395 0  3.711492629432973 2.863574306925269 0  4.91369361998929 0.5579891344254361 0  0.08208328472281323 0.5559535993317519 0  2.696596932532885 2.892010483922337 0  0.04706410140274553 2.613055974506516 0  4.955577063972248 2.616518038840186 0  2.234177215189874 2.893422591869991 0  2.279795840559739 2.89403861893984 0  0.9117357887652362 0.2117925286661764 0  4.055948041993057 0.2039101057937727 0  4.872119713780579 2.867632926423075 0  2.780113878992455 2.891535929611743 0  0.1327442468251063 2.85
[...]
<PointData  Vectors="displacement"> 
<DataArray  type="Float64"  Name="displacement"  NumberOfComponents="3" format="ascii">2.4411983177063880e-04 -1.2774479067474464e-03 0.0000000000000000e+00  0.0000000000000000e+00 -5.2599849128914279e-05 0.0000000000000000e+00  -2.4445504184247559e-04 -1.2775002967112356e-03 0.0000000000000000e+00  0.0000000000000000e+00 -5.2599911981040256e-05 0.0000000000000000e+00  0.0000000000000000e+00 0.0000000000000000e+00 0.0000000000000000e+00  0.0000000000000000e+00 0.0000000000000000e+00 0.0000000000000000e+00  2.4197253170644514e-04 -1.1305646145863869e-03 0.0000000000000000e+00  2.3712250786954149e-04 -1.0336351564490533e-03 0.0000000000000000e+00  2.3233855859157380e-04 -9.5563547097194605e-04 0.0000000000000000e+00  2.2758179651450548e-04 -8.8912026136443105e-04 0.0000000000000000e+00  2.2283148185153195e-04 -8.3076381405081329e-04 0.0000000000000000e+00  2.1809110938682483e-04 -7.7864680080552316e-04 0.0000000000000000e+00  2.1336563242324780e-04 -7.3151382700729797e-04 0.0000000000000000e+00  2.0865609375908951e-04 -6.8848960212185555e-04 0.0000000000000000e+00  2.0396730713029856e-04 -6.4892350290687980e-04 0.0000000000000000e+00  1.9929755869304991e-04 -6.1233031091771140e-04 0.0000000000000000e+00  1.9464827319972517e-04 -5.7833281993351668e-04 0.0000000000000000e+00  1.9002051569385697e-04 -5.4662282875295371e-04 0.0000000000000000e+00  1.8541607396751098e-04 -5.1694778750290655e-04 0.0000000000000000e+00  1.8083488878478033e-04 -4.8910152138928052e-04 0.0000000000000000e+00  1.7627801426407715e-04 -4.6291148043953976e-04 0.0000000000000000e+00  1.7174598723235972e-04 -4.3823006093101448e-04 0.0000000000000000e+00  1.6723976654761977e-04 -4.1493094461067585e-04 0.0000000000000000e+00  1.6275885877200968e-04 -3.9290464498551228e-04 0.0000000000000000e+00  1.5830456601802133e-04 -3.7205530456208745e-04 0.0000000000000000e+00  1.5387718995238790e-04 -3.5229948341692138e-04 0.0000000000000000e+00  1.4947711096017930e-04 -3.3356356203488840e-04 0.0000000000000000e+00  1.4510448153720807e-04 -3.1578221166768047e-04 0.0000000000000000e+00  1.4075979162117504e-04 -2.9889612490074637e-04 0.0000000000000000e+00  1.3644270794009711e-04 -2.8285321082533149e-04 0.0000000000000000e+00  1.3215370719341476e-04 -2.6760674115562546e-04 0.0000000000000000e+00  1.2789291013077196e-04 -2.5311369939977276e-04 0.0000000000000000e+00  1.2366021241888735e-04 -2.3933493829464517e-04 0.0000000000000000e+00  1.1945518804960054e-04 -2.2623593140688495e-04 0.0000000000000000e+00  1.1527858965855118e-04 -2.1378451233891214e-04 0.0000000000000000e+00  1.1112899303721490e-04 -2.0195061391916391e-04 0.0000000000000000e+00  1.0700711333925476e-04 -1.9070777736145391e-04 0.0000000000000000e+00  1.0291242090439471e-04 -1.8003157812997134e-04 0.0000000000000000e+00  9.8844178211850012e-05 -1.6989961278587908e-04 0.0000000000000000e+00  9.4802294112655581e-05 -1.6029005703487874e-04 0.0000000000000000e+00  9.0786121299302614e-05 -1.5118426709566544e-04 0.0000000000000000e+00  8.6795249943706572e-05 -1.4256420320234839e-04 0.0000000000000000e+00  8.2828927804177766e-05 -1.3441328366815632e-04 0.0000000000000000e+00  7.8886592839995834e-05 -1.2671661587994331e-04 0.0000000000000000e+00  7.4967527924656182e-05 -1.1945992626589880e-04 0.0000000000000000e+00  7.1070945488928939e-05 -1.1263025758505040e-04 0.0000000000000000e+00  6.7196056414174613e-05 -1.0621561330528638e-04 0.0000000000000000e+00  6.3342027729306337e-05 -1.0020488273034789e-04 0.0000000000000000e+00  5.9507882482533017e-05 -9.4587770354365240e-05 0.0000000000000000e+00  5.5692759023900137e-05 -8.9354934357112919e-05 0.0000000000000000e+00  5.1895637107251155e-05 -8.4497606963423398e-05 0.0000000000000000e+00  4.8115515223865148e-05 -8.0007877680681952e-05 0.0000000000000000e+00  4.4351327428246120e-05 -7.5878451735230136e-05 0.0000000000000000e+00  4.0601989791990658e-05 -7.2102735848771546e-05 0.0000000000000000e+00  3.6866364143263383e-05 -6.8674686593179094e-05 0.0000000000000000e+00  3.3143288278137246e-05 -6.5588932186410009e-05 0.0000000000000000e+00  2.9431698231259882e-05 -6.2840674773361090e-05 0.0000000000000000e+00  2.5730163082101903e-05 -6.0425539159196657e-05 0.0000000000000000e+00  2.2037615202864901e-05 -5.8339825458245633e-05 0.0000000000000000e+00  1.8352808801019671e-05 -5.6580403981906003e-05 0.0000000000000000e+00  1.4674545786194568e-05 -5.5144527006442493e-05 0.0000000000000000e+00  1.1001307598295459e-05 -5.4029964695668388e-05 0.0000000000000000e+00  7.3320179369548621e-06 -5.3235048829457135e-05 0.0000000000000000e+00  3.6653437231099747e-06 -5.2758585910898316e-05 0.0000000000000000e+00  -2.4098528531149729e-04 -1.3221803116641917e-03 0.0000000000000000e+00  -2.3450057494942239e-04 -1.3543938850022197e-03 0.0000000000000000e+00  -2.2815726268637855e-04 -1.3819171322237978e-03 0.0000000000000000e+00  -2.2184491901847955e-04 -1.4065088623493160e-03 0.0000000000000000e+00  -2.1557668508020265e-04 -1.4289470463198989e-03 0.0000000000000000e+00  -2.0931414084477014e-04 -1.4496501525487629e-03 0.0000000000000000e+00  -2.0305587147399534e-04 -1.4689003269442230e-03 0.0000000000000000e+00  -1.9680033001492838e-04 -1.4868859390192114e-03 0.0000000000000000e+00  -1.9054491684045296e-04 -1.5037508027808553e-03 0.0000000000000000e+00  -1.8429166000234613e-04 -1.5196084055926890e-03 0.0000000000000000e+00  -1.7804008239272480e-04 -1.5345475318636901e-03 0.0000000000000000e+00  -1.7178896047500869e-04 -1.5486399184935099e-03 0.0000000000000000e+00  -1.6553849936585180e-04 -1.5619460221354350e-03 0.0000000000000000e+00  -1.5928872392916338e-04 -1.5745152962369959e-03 0.0000000000000000e+00  -1.5303886569074769e-04 -1.5863896572900279e-03 0.0000000000000000e+00  -1.4678982492730451e-04 -1.5976069555793842e-03 0.0000000000000000e+00  -1.4054113316595176e-04 -1.6081985057331144e-03 0.0000000000000000e+00  -1.3429282806660728e-04 -1.6181917532579460e-03 0.0000000000000000e+00  -1.2804483233292368e-04 -1.6276110937170779e-03 0.0000000000000000e+00  -1.2179709079692225e-04 -1.6364778780240305e-03 0.0000000000000000e+00  -1.1554960825035091e-04 -1.6448110980381966e-03 0.0000000000000000e+00  -1.0930237569911317e-04 -1.6526276482859907e-03 0.0000000000000000e+00  -1.0305534175676370e-04 -1.6599424855963160e-03 0.0000000000000000e+00  -9.6808537637762718e-05 -1.6667691117259276e-03 0.0000000000000000e+00  -9.0561925474610388e-05 -1.6731195789394346e-03 0.0000000000000000e+00  -8.4315485576007431e-05 -1.6790045296320242e-03 0.0000000000000000e+00  -7.8069290089511197e-05 -1.6844335938129677e-03 0.0000000000000000e+00  -7.1823136490104775e-05 -1.6894152502022865e-03 0.0000000000000000e+00  -6.5577146581384223e-05 -1.6939572440549723e-03 0.0000000000000000e+00  -5.9331309126073722e-05 -1.6980663182209093e-03 0.0000000000000000e+00  -5.3085594422288915e-05 -1.7017484717277290e-03 0.0000000000000000e+00  -4.6839961060655750e-05 -1.7050089167734571e-03 0.0000000000000000e+00  -4.0594414812895782e-05 -1.7078522358644492e-03 0.0000000000000000e+00  -3.4348968705254938e-05 -1.7102823488356863e-03 0.0000000000000000e+00  -2.8103533368215542e-05 -1.7123024586804809e-03 0.0000000000000000e+00  -2.1858260978787266e-05 -1.7139154055227732e-03 0.0000000000000000e+00  -1.5612924981836381e-05 -1.7151232696535311e-03 0.0000000000000000e+00  -9.3676402376812814e-06 -1.7159276085162815e-03 0.0000000000000000e+00  -3.1223956904430090e-06 -1.7163295204883514e-03 0.0000000000000000e+00  3.1228494775790069e-06 -1.7163295127545896e-03 0.0000000000000000e+00  9.3681002947868484e-06 -1.7159275826841430e-03 0.0000000000000000e+00  1.5613369687258139e-05 -1.7151232115918992e-03 0.0000000000000000e+00  2.1858670043754008e-05 -1.7139153602897823e-03 0.0000000000000000e+00  2.8103998006536193e-05 -1.7123024064495645e-03 0.0000000000000000e+00  3.4349400266276123e-05 -1.7102822083870060e-03 0.0000000000000000e+00  4.0594853629222062e-05 -1.7078521193390913e-03 0.0000000000000000e+00  4.6840390735008265e-05 -1.7050088045857013e-03 0.0000000000000000e+00  5.3086015119287847e-05 -1.7017483445007317e-03 0.0000000000000000e+00  5.9331760759929504e-05 -1.6980661973933608e-03 0.0000000000000000e+00  6.5577599899334621e-05 -1.6939570857407728e-03 0.0000000000000000e+00  7.1823574926902303e-05 -1.6894150949067824e-03 0.0000000000000000e+00  7.8069739399046941e-05 -1.6844333864331742e-03 0.0000000000000000e+00  8.4315979498382910e-05 -1.6790043162876449e-03 0.0000000000000000e+00  9.0562419196571408e-05 -1.6731194097345877e-03 0.0000000000000000e+00  9.6809039829650768e-05 -1.6667689970590988e-03 0.0000000000000000e+00  1.0305586150601863e-04 -1.6599423601047145e-03 0.0000000000000000e+00  1.0930286501465317e-04 -1.6526274757537435e-03 0.0000000000000000e+00  1.1555020868443272e-04 -1.6448109965000886e-03 0.0000000000000000e+00  1.2179779922550964e-04 -1.6364775809685915e-03 0.0000000000000000e+00  1.2804560467933676e-04 -1.6276107942388100e-03 0.0000000000000000e+00  1.3429367846133392e-04 -1.6181914294099854e-03 0.0000000000000000e+00  1.4054209785788375e-04 -1.6081981098938641e-03 0.0000000000000000e+00  1.4679086868212525e-04 -1.5976065489647336e-03 0.0000000000000000e+00  1.5304005852829770e-04 -1.5863890714594615e-03 0.0000000000000000e+00  1.5928969186021697e-04 -1.5745141254289038e-03 0.0000000000000000e+00  1.6553994002076232e-04 -1.5619449731100439e-03 0.0000000000000000e+00  1.7179053495424866e-04 -1.5486389472940828e-03 0.0000000000000000e+00  1.7804180224978688e-04 -1.5345459388201178e-03 0.0000000000000000e+00  1.8429428509070091e-04 -1.5196074300702642e-03 0.0000000000000000e+00  1.9054714362196613e-04 -1.5037494940767699e-03 0.0000000000000000e+00  1.9680105272278987e-04 -1.4868829306247200e-03 0.0000000000000000e+00  2.0305754709228608e-04 -1.4688977501319143e-03 0.0000000000000000e+00  2.0931781670912575e-04 -1.4496516882271031e-03 0.0000000000000000e+00  2.1557936524398705e-04 -1.4289429677914781e-03 0.0000000000000000e+00  2.2184451599952014e-04 -1.4064988278494769e-03 0.0000000000000000e+00  2.2810539768895901e-04 -1.3819146537591075e-03 0.0000000000000000e+00  2.3454203388078042e-04 -1.3544851340200950e-03 0.0000000000000000e+00  2.4095103782206120e-04 -1.3220783052966154e-03 0.0000000000000000e+00  -3.6653724168525204e-06 -5.2758635577667968e-05 0.0000000000000000e+00  -7.3320469301268127e-06 -5.3235105106455726e-05 0.0000000000000000e+00  -1.1001314126603822e-05 -5.4030003474689255e-05 0.0000000000000000e+00  -1.4674479389753441e-05 -5.5144557967304873e-05 0.0000000000000000e+00  -1.8352815248467299e-05 -5.6580439357850757e-05 0.0000000000000000e+00  -2.2037673754070468e-05 -5.8339915428324525e-05 0.0000000000000000e+00  -2.5730157378528584e-05 -6.0425567793139516e-05 0.0000000000000000e+00  -2.9431644236018746e-05 -6.2840679797680998e-05 0.0000000000000000e+00  -3.3143304784637555e-05 -6.5588971891160009e-05 0.0000000000000000e+00  -3.6866372175040497e-05 -6.8674744412943370e-05 0.0000000000000000e+00  -4.0601990882956747e-05 -7.2102793436881337e-05 0.0000000000000000e+00  -4.4351345550556203e-05 -7.5878529978328930e-05 0.0000000000000000e+00  -4.8115527302892569e-05 -8.0007953734080367e-05 0.0000000000000000e+00  -5.1895639982155626e-05 -8.4497683606489857e-05 0.0000000000000000e+00  -5.5692749470738008e-05 -8.9354993655941286e-05 0.0000000000000000e+00  -5.9507870321243559e-05 -9.4587842313824871e-05 0.0000000000000000e+00  -6.3341993063684604e-05 -1.0020489984317674e-04 0.0000000000000000e+00  -6.7196063109240285e-05 -1.0621569018883990e-04 0.0000000000000000e+00  -7.1070923101859351e-05 -1.1263035692892485e-04 0.0000000000000000e+00  -7.4967512351564728e-05 -1.1946007351929056e-04 0.0000000000000000e+00  -7.8886699581304457e-05 -1.2671682041614325e-04 0.0000000000000000e+00  -8.2828882347749674e-05 -1.3441339798723922e-04 0.0000000000000000e+00  -8.6795204184103244e-05 -1.4256419562212172e-04 0.0000000000000000e+00  -9.0786102370154936e-05 -1.5118431381034940e-04 0.0000000000000000e+00  -9.4802229511197446e-05 -1.6029018011829528e-04 0.0000000000000000e+00  -9.8844116246774797e-05 -1.6989959572163385e-04 0.0000000000000000e+00  -1.0291227015658357e-04 -1.8003187402974968e-04 0.0000000000000000e+00  -1.0700709400938642e-04 -1.9070793629271442e-04 0.0000000000000000e+00  -1.1112902962977471e-04 -2.0195052008788484e-04 0.0000000000000000e+00  -1.1527834978920722e-04 -2.1378421218275722e-04 0.0000000000000000e+00  -1.1945527877866044e-04 -2.2623594020902452e-04 0.0000000000000000e+00  -1.2365997401857912e-04 -2.3933494440093688e-04 0.0000000000000000e+00  -1.2789332854732486e-04 -2.5311362168307239e-04 0.0000000000000000e+00  -1.3215365028591816e-04 -2.6760685931573878e-04 0.0000000000000000e+00  -1.3644265253356117e-04 -2.8285365007200302e-04 0.0000000000000000e+00  -1.4075965033992225e-04 -2.9889627193015368e-04 0.0000000000000000e+00  -1.4510462875148741e-04 -3.1578202064992699e-04 0.0000000000000000e+00  -1.4947709795051946e-04 -3.3356352765014742e-04 0.0000000000000000e+00  -1.5387711285511104e-04 -3.5229941290408818e-04 0.0000000000000000e+00  -1.5830442481043491e-04 -3.7205510030848151e-04 0.0000000000000000e+00  -1.6275874506407930e-04 -3.9290439102206804e-04 0.0000000000000000e+00  -1.6723935198264834e-04 -4.1493120786392659e-04 0.0000000000000000e+00  -1.7174629651566209e-04 -4.3823065542317061e-04 0.0000000000000000e+00  -1.7627851217448781e-04 -4.6291185360739000e-04 0.0000000000000000e+00  -1.8083503862676329e-04 -4.8910127665612740e-04 0.0000000000000000e+00  -1.8541550837288133e-04 -5.1694717709504265e-04 0.0000000000000000e+00  -1.9002012996327490e-04 -5.4662223730545954e-04 0.0000000000000000e+00  -1.9464775246493028e-04 -5.7833421385098153e-04 0.0000000000000000e+00  -1.9929712629658349e-04 -6.1233267068698614e-04 0.0000000000000000e+00  -2.0396798347449631e-04 -6.4892168432748975e-04 0.0000000000000000e+00  -2.0865660395673411e-04 -6.8849008902053361e-04 0.0000000000000000e+00  -2.1336763098218805e-04 -7.3151151148561548e-04 0.0000000000000000e+00  -2.1809102224638901e-04 -7.7864807374708879e-04 0.0000000000000000e+00  -2.2282755109396475e-04 -8.3076878335111765e-04 0.0000000000000000e+00  -2.2757767310091978e-04 -8.8912001456955137e-04 0.0000000000000000e+00  -2.3236116436600648e-04 -9.5563189573097179e-04 0.0000000000000000e+00  -2.3706197251982360e-04 -1.0336722032170838e-03 0.0000000000000000e+00  -2.4201867998255132e-04 -1.1304968543828016e-03 0.0000000000000000e+00  0.0000000000000000e+00 -1.0208141684437504e-05 0.0000000000000000e+00  0.0000000000000000e+00 -1.9068715478959368e-05 0.0000000000000000e+00  0.0000000000000000e+00 -2.6746639292666715e-05 0.0000000000000000e+00  0.0000000000000000e+00 -3.3382396203952039e-05 0.0000000000000000e+00  0.0000000000000000e+00 -3.9082743434104537e-05 0.0000000000000000e+00  0.0000000000000000e+00 -4.3935534330930039e-05 0.0000000000000000e+00  0.0000000000000000e+00 -4.8014290825771354e-05 0.0000000000000000e+00  0.0000000000000000e+00 -5.1381943057442367e-05 0.0000000000000000e+00  0.0000000000000000e+00 -5.4088479938677458e-05 0.0000000000000000e+00  0.0000000000000000e+00 -5.6188822717970225e-05 0.0000000000000000e+00  0.0000000000000000e+00 -5.7727307898573436e-05 0.0000000000000000e+00  0.0000000000000000e+00 -5.8749997083295692e-05 0.0000000000000000e+00  0.0000000000000000e+00 -5.9303926646846899e-05 0.0000000000000000e+00  0.0000000000000000e+00 -5.9435547377952422e-05 0.0000000000000000e+00  0.0000000000000000e+00 -5.9192545419944484e-05 0.0000000000000000e+00  0.0000000000000000e+00 -5.8623976570862199e-05 0.0000000000000000e+00  0.0000000000000000e+00 -5.7780607868503321e-05 0.0000000000000000e+00  0.0000000000000000e+00 -5.6713102893720044e-05 0.0000000000000000e+00  0.0000000000000000e+00 -5.5472623665858791e-05 0.0000000000000000e+00  0.0000000000000000e+00 -5.4110203080762786e-05 0.0000000000000000e+00  0.0000000000000000e+00 -5.2676073553539861e-05 0.0000000000000000e+00  0.0000000000000000e+00 -5.1218604916551335e-05 0.0000000000000000e+00  0.0000000000000000e+00 -4.9784521966491998e-05 0.0000000000000000e+00  0.0000000000000000e+00 -4.8416376039316451e-05 0.0000000000000000e+00  0.0000000000000000e+00 -4.7154804255743020e-05 0.0000000000000000e+00  0.0000000000000000e+00 -4.6036457045185414e-05 0.0000000000000000e+00  0.0000000000000000e+00 -4.5092189912355395e-05 0.0000000000000000e+00  0.0000000000000000e+00 -4.4349955756594600e-05 0.0000000000000000e+00  0.0000000000000000e+00 -4.3832021636247932e-05 0.0000000000000000e+00  0.0000000000000000e+00 -4.3555879934205651e-05 0.0000000000000000e+00  0.0000000000000000e+00 -4.3534274485450123e-05 0.0000000000000000e+00  0.0000000000000000e+00 -4.3775010345709742e-05 0.0000000000000000e+00  0.0000000000000000e+00 -4.4281436371563706e-05 0.0000000000000000e+00  0.0000000000000000e+00 -4.5052743235255535e-05 0.0000000000000000e+00  0.0000000000000000e+00 -4.6084119596061083e-05 0.0000000000000000e+00  0.0000000000000000e+00 -4.7367216923173193e-05 0.0000000000000000e+00  0.0000000000000000e+00 -4.8890581741741626e-05 0.0000000000000000e+00  0.0000000000000000e+00 -5.0640220413029181e-05 0.0000000000000000e+00  0.0000000000000000e+00 0.0000000000000000e+00 0.0000000000000000e+00  0.0000000000000000e+00 0.0000000000000000e+00 0.0000000000000000e+00  0.0000000000000000e+00 0.0000000000000000e+00 0.0000000000000000e+00  0.0000000000000000e+00 0.0000000000000000e+00 0.0000000000000000e+00  0.0000000000000000e+00 0.0000000000000000e+00 0.0000000000000000e+00  0.0000000000000000e+00 0.0000000000000000e+00 0.0000000000000000e+00  0.0000000000000000e+00 0.0000000000000000e+00 0.0000000000000000e+00  0.0000000000000000e+00 0.0000000000000000e+00 0.0000000000000000e+00  0.0000000000000000e+00 0.0000000000000000e+00 0.0000000000000000e+00  0.0000000000000000e+00 0.0000000000000000e+00 0.0000000000000000e+00  0.0000000000000000e+00 0.0000000000000000e+00 0.0000000000000000e+00  0.0000000000000000e+00 0.0000000000000000e+00 0.0000000000000000e+00  0.0000000000000000e+00 0.0000000000000000e+00 0.0000000000000000e+00  0.0000000000000000e+00 0.0000000000000000e+00 0.0000000000000000e+00  0.0000000000000000e+00 0.0000000000000000e+00 0.0000000000000000e+00  0.0000000000000000e+00 0.0000000000000000e+00 0.0000000000000000e+00  0.0000000000000000e+00 0.0000000000000000e+00 0.0000000000000000e+00  0.0000000000000000e+00 0.0000000000000000e+00 0.0000000000000000e+00  0.0000000000000000e+00 -5.0624298616329311e-05 0.0000000000000000e+00  0.0000000000000000e+00 -4.8863463067858021e-05 0.0000000000000000e+00  0.0000000000000000e+00 -4.7333568797756334e-05 0.0000000000000000e+00  0.0000000000000000e+00 -4.6048441028994714e-05 0.0000000000000000e+00  0.0000000000000000e+00 -4.5019328450012580e-05 0.0000000000000000e+00  0.0000000000000000e+00 -4.4254154194483001e-05 0.0000000000000000e+00  0.0000000000000000e+00 -4.3757203830505102e-05 0.0000000000000000e+00  0.0000000000000000e+00 -4.3528785608241052e-05 0.0000000000000000e+00  0.0000000000000000e+00 -4.3564916369712796e-05 0.0000000000000000e+00  0.0000000000000000e+00 -4.3856843720762067e-05 0.0000000000000000e+00  0.0000000000000000e+00 -4.4391427615760098e-05 0.0000000000000000e+00  0.0000000000000000e+00 -4.5149524650770119e-05 0.0000000000000000e+00  0.0000000000000000e+00 -4.6108933037247900e-05 0.0000000000000000e+00  0.0000000000000000e+00 -4.7241062830218673e-05 0.0000000000000000e+00  0.0000000000000000e+00 -4.8513664277693827e-05 0.0000000000000000e+00  0.0000000000000000e+00 -4.9889309253980073e-05 0.0000000000000000e+00  0.0000000000000000e+00 -5.1327716854662570e-05 0.0000000000000000e+00  0.0000000000000000e+00 -5.2785730340693701e-05 0.0000000000000000e+00  0.0000000000000000e+00 -5.4216053740768858e-05 0.0000000000000000e+00  0.0000000000000000e+00 -5.5570294272999331e-05 0.0000000000000000e+00  0.0000000000000000e+00 -5.6798531761354772e-05 0.0000000000000000e+00  0.0000000000000000e+00 -5.7850100573448546e-05 0.0000000000000000e+00  0.0000000000000000e+00 -5.8674142815996897e-05 0.00000000000