<?xml version="1.0"?>
<VTKFile type="UnstructuredGrid"  version="0.1"  >
<UnstructuredGrid>
<Piece  NumberOfPoints="3167" NumberOfCells="6038">
<Points>
<DataArray  type="Float64"  NumberOfComponents="3"  format="ascii">2.2 2.9 0  0 2.9 0  2.8 2.9 0  5 2.9 0  5 0 0  0 0 0  2.16271186440678 2.9 0  2.125423728813559 2.9 0  2.088135593220339 2.9 0  2.050847457627119 2.9 0  2.013559322033898 2.9 0  1.976271186440678 2.9 0  1.938983050847457 2.9 0  1.901694915254237 2.9 0  1.864406779661016 2.9 0  1.827118644067796 2.9 0  1.789830508474575 2.9 0  1.752542372881355 2.9 0  1.715254237288134 2.9 0  1.677966101694914 2.9 0  1.640677966101693 2.9 0  1.603389830508473 2.9 0  1.566101694915253 2.9 0  1.528813559322032 2.9 0  1.491525423728812 2.9 0  1.454237288135591 2.9 0  1.416949152542371 2.9 0  1.37966101694915 2.9 0  1.34237288135593 2.9 0  1.305084745762709 2.9 0  1.267796610169489 2.9 0  1.230508474576268 2.9 0  1.193220338983048 2.9 0  1.155932203389827 2.9 0  1.118644067796607 2.9 0  1.081355932203387 2.9 0  1.044067796610166 2.9 0  1.006779661016946 2.9 0  0.9694915254237257 2.9 0  0.9322033898305055 2.9 0  0.8949152542372856 2.9 0  0.8576271186440652 2.9 0  0.820338983050845 2.9 0  0.783050847457625 2.9 0  0.7457627118644048 2.9 0  0.7084745762711844 2.9 0  0.6711864406779642 2.9 0  0.633898305084744 2.9 0  0.5966101694915238 2.9 0  0.5593220338983036 2.9 0  0.5220338983050834 2.9 0  0.4847457627118632 2.9 0  0.447457627118643 2.9 0  0.4101694915254228 2.9 0  0.3728813559322024 2.9 0  0.3355932203389822 2.9 0  0.2983050847457622 2.9 0  0.2610169491525418 2.9 0  0.2237288135593216 2.9 0  0.1864406779661016 2.9 0  0.1491525423728812 2.9 0  0.1118644067796613 2.9 0  0.07457627118644039 2.9 0  0.03728813559321997 2.9 0  2.792405063291139 2.9 0  2.784810126582279 2.9 0  2.777215189873418 2.9 0  2.769620253164557 2.9 0  2.762025316455697 2.9 0  2.754430379746836 2.9 0  2.746835443037975 2.9 0  2.739240506329114 2.9 0  2.731645569620254 2.9 0  2.724050632911393 2.9 0  2.716455696202532 2.9 0  2.708860759493671 2.9 0  2.701265822784811 2.9 0  2.69367088607595 2.9 0  2.686075949367089 2.9 0  2.678481012658228 2.9 0  2.670886075949368 2.9 0  2.663291139240507 2.9 0  2.655696202531646 2.9 0  2.648101265822786 2.9 0  2.640506329113925 2.9 0  2.632911392405064 2.9 0  2.625316455696203 2.9 0  2.617721518987342 2.9 0  2.610126582278482 2.9 0  2.602531645569621 2.9 0  2.59493670886076 2.9 0  2.587341772151899 2.9 0  2.579746835443038 2.9 0  2.572151898734178 2.9 0  2.564556962025317 2.9 0  2.556962025316456 2.9 0  2.549367088607595 2.9 0  2.541772151898734 2.9 0  2.534177215189874 2.9 0  2.526582278481013 2.9 0  2.518987341772152 2.9 0  2.511392405063292 2.9 0  2.503797468354431 2.9 0  2.49620253164557 2.9 0  2.488607594936709 2.9 0  2.481012658227848 2.9 0  2.473417721518988 2.9 0  2.465822784810127 2.9 0  2.458227848101266 2.9 0  2.450632911392406 2.9 0  2.443037974683545 2.9 0  2.435443037974684 2.9 0  2.427848101265823 2.9 0  2.420253164556962 2.9 0  2.412658227848102 2.9 0  2.405063291139241 2.9 0  2.39746835443038 2.9 0  2.389873417721519 2.9 0  2.382278481012658 2.9 0  2.374683544303798 2.9 0  2.367088607594937 2.9 0  2.359493670886076 2.9 0  2.351898734177215 2.9 0  2.344303797468355 2.9 0  2.336708860759494 2.9 0  2.329113924050633 2.9 0  2.321518987341773 2.9 0  2.313924050632912 2.9 0  2.306329113924051 2.9 0  2.29873417721519 2.9 0  2.291139240506329 2.9 0  2.283544303797469 2.9 0  2.275949367088608 2.9 0  2.268354430379747 2.9 0  2.260759493670887 2.9 0  2.253164556962026 2.9 0  2.245569620253165 2.9 0  2.237974683544304 2.9 0  2.230379746835443 2.9 0  2.222784810126583 2.9 0  2.215189873417722 2.9 0  2.207594936708861 2.9 0  4.96271186440678 2.9 0  4.925423728813559 2.9 0  4.888135593220339 2.9 0  4.850847457627118 2.9 0  4.813559322033898 2.9 0  4.776271186440677 2.9 0  4.738983050847457 2.9 0  4.701694915254237 2.9 0  4.664406779661016 2.9 0  4.627118644067796 2.9 0  4.589830508474575 2.9 0  4.552542372881355 2.9 0  4.515254237288135 2.9 0  4.477966101694914 2.9 0  4.440677966101694 2.9 0  4.403389830508473 2.9 0  4.366101694915252 2.9 0  4.328813559322032 2.9 0  4.291525423728811 2.9 0  4.254237288135591 2.9 0  4.21694915254237 2.9 0  4.17966101694915 2.9 0  4.14237288135593 2.9 0  4.105084745762709 2.9 0  4.067796610169489 2.9 0  4.030508474576268 2.9 0  3.993220338983048 2.9 0  3.955932203389827 2.9 0  3.918644067796607 2.9 0  3.881355932203387 2.9 0  3.844067796610166 2.9 0  3.806779661016946 2.9 0  3.769491525423725 2.9 0  3.732203389830505 2.9 0  3.694915254237285 2.9 0  3.657627118644065 2.9 0  3.620338983050845 2.9 0  3.583050847457625 2.9 0  3.545762711864405 2.9 0  3.508474576271184 2.9 0  3.471186440677964 2.9 0  3.433898305084744 2.9 0  3.396610169491524 2.9 0  3.359322033898303 2.9 0  3.322033898305083 2.9 0  3.284745762711863 2.9 0  3.247457627118643 2.9 0  3.210169491525423 2.9 0  3.172881355932202 2.9 0  3.135593220338982 2.9 0  3.098305084745762 2.9 0  3.061016949152542 2.9 0  3.023728813559321 2.9 0  2.986440677966101 2.9 0  2.949152542372881 2.9 0  2.911864406779661 2.9 0  2.87457627118644 2.9 0  2.83728813559322 2.9 0  5 0.1063822625082082 0  5 0.210636880010749 0  5 0.3128064053694972 0  5 0.4129325400644018 0  5 0.5110561521032336 0  5 0.6072172918830103 0  5 0.7014552087832795 0  5 0.7938083674443693 0  5 0.88431446261646 0  5 0.9730104359544682 0  5 1.059932489996267 0  5 1.145116102913299 0  5 1.228596043483191 0  5 1.310406385079062 0  5 1.390580519944147 0  5 1.469151172477827 0  5 1.546150411986101 0  5 1.621609666658609 0  5 1.695559736099044 0  5 1.76803080383987 0  5 1.839052450169751 0  5 1.908653663631169 0  5 1.97686285289587 0  5 2.043707858613779 0  5 2.109215964341413 0  5 2.173413907925942 0  5 2.236327892833935 0  5 2.297983597762904 0  5 2.35840618845912 0  5 2.41762032730194 0  5 2.475650183444628 0  5 2.532519442457069 0  5 2.588251316112828 0  5 2.642868552557322 0  5 2.696393444426347 0  5 2.748847838312051 0  5 2.800253144313381 0  5 2.850630344319807 0  0.2631578947368421 0 0  0.5263157894736842 0 0  0.7894736842105263 0 0  1.052631578947368 0 0  1.31578947368421 0 0  1.578947368421053 0 0  1.842105263157895 0 0  2.105263157894737 0 0  2.368421052631579 0 0  2.631578947368421 0 0  2.894736842105263 0 0  3.157894736842105 0 0  3.421052631578947 0 0  3.684210526315789 0 0  3.947368421052632 0 0  4.210526315789473 0 0  4.473684210526315 0 0  4.736842105263158 0 0  0 2.850203682350569 0  0 2.799411438503675 0  0 2.747603349778291 0  0 2.694759099502208 0  0 2.640857964382145 0  0 2.58587880633613 0  0 2.52980006535898 0  0 2.472599749459174 0  0 2.414255427218689 0  0 2.35474421880616 0  0 2.294042786119219 0  0 2.232127324764723 0  0 2.1689735539481 0  0 2.104556707683347 0  0 2.038851524813415 0  0 1.971832238155655 0  0 1.903472565412126 0  0 1.83374569926617 0  0 1.762624296208475 0  0 1.690080464918761 0  0 1.616085756774206 0  0 1.540611154706337 0  0 1.463627060685571 0  0 1.385103284916206 0  0 1.305009033716617 0  0 1.223312897337225 0  0 1.139982838163732 0  0 1.054986177579938 0  0 0.9682895835804817 0  0 0.8798590579197976 0  0 0.7896599218415354 0  0 0.6976568029903638 0  0 0.6038136217958798 0  0 0.508093576867624 0  0 0.4104591310957497 0  0 0.3108719963522191 0  0 0.2092931188294389 0  0 0.1056826638508546 0  1.434832105763824 2.866945754981483 0  1.737156300467626 2.870039440267515 0  2.032203389830508 2.867707527316512 0  2.332911392405064 2.893422591869991 0  2.469810913293406 2.891944186606167 0  2.606221408823969 2.892519154985628 0  2.255455320628894 2.892068685006691 0  2.538247299216212 2.894964578182811 0  2.674683544303798 2.893422591869991 0  2.40126582278481 2.893422591869991 0  3.566125247295424 2.865029336199714 0  3.266101694915253 2.867707527316512 0  2.967796610169491 2.867707527316512 0  1.174288529834642 2.870795313888584 0  3.825423728813556 2.867707527316512 0  2.727766680262011 2.892655387647729 0  0.06601655192030442 1.502119107695954 0  4.933983535508361 1.507650792231964 0  0.9532124728485543 2.868722489783638 0  4.048935912500257 2.870640982995992 0  0.05930163367361763 1.866907161167414 0  4.943402512618553 1.871280731473148 0  4.271733870017743 2.86520865624265 0  0.7249420921613114 2.863922936177041 0  0.05494499779910056 2.196469063120752 0  4.947228695426367 2.208030108792719 0  0.5406152150397161 2.866493807382013 0  4.459322033898304 2.868847558178794 0  2.18135593220339 2.875780645487384 0  2.817027156509632 2.876587550645167 0  4.928427208322876 1.186856073198245 0  0.07189226971603224 1.174626666111662 0  4.610299014423113 2.867003104093161 0  0.3897270066746357 2.869433095314657 0  1.581132500042262 2.868247328632392 0  1.887637879411437 2.869235851794358 0  3.413449426418068 2.867372048034327 0  3.116721298814773 2.865731235547652 0  2.644303797468355 2.893422591869991 0  2.370983221828106 2.892719513369796 0  2.302531645569621 2.893336787387268 0  2.758987341772152 2.894242393897099 0  0.04979653335696277 2.443411216910286 0  4.950470983477169 2.446866954595817 0  2.482937483021586 0.2513241087417575 0  1.707129504814338 0.1999998659920923 0  3.28584657955054 0.229200625631625 0  4.907807122600524 0.834082362900164 0  4.757627118644067 2.867707527316512 0  0.0773489124676745 0.8347594898806663 0  0.2390604736599387 2.861365431805741 0  0.8363213715215729 2.863896768908178 0  4.160865610207075 2.868916854015731 0  1.282549332053297 2.867610952980761 0  1.065094818402487 2.861284686038041 0  3.93818127737282 2.86865134411395 0  3.711492629432973 2.863574306925269 0  4.91369361998929 0.5579891344254361 0  0.08208328472281323 0.5559535993317519 0  2.696596932532885 2.892010483922337 0  0.04706410140274553 2.613055974506516 0  4.955577063972248 2.616518038840186 0  2.234177215189874 2.893422591869991 0  2.279795840559739 2.89403861893984 0  0.9117357887652362 0.2117925286661764 0  4.055948041993057 0.2039101057937727 0  4.872119713780579 2.867632926423075 0  2.780113878992455 2.891535929611743 0  0.1327442468251063 2.85
[...]
<PointData  Vectors="displacement"> 
<DataArray  type="Float64"  Name="displacement"  NumberOfComponents="3" format="ascii">1.8650755147276606e-03 -9.7597020075505282e-03 0.0000000000000000e+00  0.0000000000000000e+00 -4.0186284734490351e-04 0.0000000000000000e+00  -1.8676365196765550e-03 -9.7601022668738664e-03 0.0000000000000000e+00  0.0000000000000000e+00 -4.0186332753515571e-04 0.0000000000000000e+00  0.0000000000000000e+00 0.0000000000000000e+00 0.0000000000000000e+00  0.0000000000000000e+00 0.0000000000000000e+00 0.0000000000000000e+00  1.8486701422372207e-03 -8.6375136554400263e-03 0.0000000000000000e+00  1.8116159601232792e-03 -7.8969725952707931e-03 0.0000000000000000e+00  1.7750665876396052e-03 -7.3010549982256961e-03 0.0000000000000000e+00  1.7387249253708031e-03 -6.7928787968242763e-03 0.0000000000000000e+00  1.7024325213456867e-03 -6.3470355393482336e-03 0.0000000000000000e+00  1.6662160757153271e-03 -5.9488615581542144e-03 0.0000000000000000e+00  1.6301134317135929e-03 -5.5887656383357695e-03 0.0000000000000000e+00  1.5941325563194248e-03 -5.2600605602109943e-03 0.0000000000000000e+00  1.5583102264754634e-03 -4.9577755622085846e-03 0.0000000000000000e+00  1.5226333484148820e-03 -4.6782035754113285e-03 0.0000000000000000e+00  1.4871128072458798e-03 -4.4184627442920886e-03 0.0000000000000000e+00  1.4517567399010493e-03 -4.1761984116725805e-03 0.0000000000000000e+00  1.4165788051117663e-03 -3.9494810965222211e-03 0.0000000000000000e+00  1.3815785503157067e-03 -3.7367356234141169e-03 0.0000000000000000e+00  1.3467640289775349e-03 -3.5366437105580949e-03 0.0000000000000000e+00  1.3121393424552115e-03 -3.3480776655129586e-03 0.0000000000000000e+00  1.2777118164237987e-03 -3.1700724168255727e-03 0.0000000000000000e+00  1.2434776810181405e-03 -3.0017914876893266e-03 0.0000000000000000e+00  1.2094468843776699e-03 -2.8425025268543598e-03 0.0000000000000000e+00  1.1756217312362341e-03 -2.6915680533052878e-03 0.0000000000000000e+00  1.1420051277357566e-03 -2.5484256139465572e-03 0.0000000000000000e+00  1.1085982389442564e-03 -2.4125760971410860e-03 0.0000000000000000e+00  1.0754048079857650e-03 -2.2835663942417095e-03 0.0000000000000000e+00  1.0424222886623307e-03 -2.1609985307055406e-03 0.0000000000000000e+00  1.0096543229576788e-03 -2.0445155024289888e-03 0.0000000000000000e+00  9.7710183339908799e-04 -1.9337886634142756e-03 0.0000000000000000e+00  9.4476402288029050e-04 -1.8285189285711003e-03 0.0000000000000000e+00  9.1263763669894064e-04 -1.7284425159486110e-03 0.0000000000000000e+00  8.8072842499132555e-04 -1.6333136742693007e-03 0.0000000000000000e+00  8.4902550680431531e-04 -1.5429026903424207e-03 0.0000000000000000e+00  8.1753434591190152e-04 -1.4570074190415219e-03 0.0000000000000000e+00  7.8625089570957189e-04 -1.3754412569129946e-03 0.0000000000000000e+00  7.5516952153853174e-04 -1.2980330416841261e-03 0.0000000000000000e+00  7.2428952702068364e-04 -1.2246160357464830e-03 0.0000000000000000e+00  6.9360596672666760e-04 -1.1550478006108940e-03 0.0000000000000000e+00  6.6311570956991155e-04 -1.0891905124659517e-03 0.0000000000000000e+00  6.3281300842391464e-04 -1.0269174872247250e-03 0.0000000000000000e+00  6.0269356929756684e-04 -9.6811494532277758e-04 0.0000000000000000e+00  5.7275191334437304e-04 -9.1267383667147800e-04 0.0000000000000000e+00  5.4298202353541744e-04 -8.6049516794979488e-04 0.0000000000000000e+00  5.1337787100429470e-04 -8.1148728565239665e-04 0.0000000000000000e+00  4.8393309185190041e-04 -7.6556530405986404e-04 0.0000000000000000e+00  4.5464022216655238e-04 -7.2265056550735614e-04 0.0000000000000000e+00  4.2549267894259678e-04 -6.8267169848834619e-04 0.0000000000000000e+00  3.9648266749939926e-04 -6.4556171720055915e-04 0.0000000000000000e+00  3.6760253631033048e-04 -6.1126018548041399e-04 0.0000000000000000e+00  3.3884414155180135e-04 -5.7971137125716076e-04 0.0000000000000000e+00  3.1019920201081025e-04 -5.5086490188461796e-04 0.0000000000000000e+00  2.8165902205453362e-04 -5.2467460557188976e-04 0.0000000000000000e+00  2.5321472244497031e-04 -5.0109944190417544e-04 0.0000000000000000e+00  2.2485817448682726e-04 -4.8010275526847872e-04 0.0000000000000000e+00  1.9657844594726050e-04 -4.6165111917626401e-04 0.0000000000000000e+00  1.6836738014988964e-04 -4.4571626650099697e-04 0.0000000000000000e+00  1.4021545923979104e-04 -4.3227428642176403e-04 0.0000000000000000e+00  1.1211352980652957e-04 -4.2130418632922164e-04 0.0000000000000000e+00  8.4049990050977610e-05 -4.1278893027490678e-04 0.0000000000000000e+00  5.6016617038334131e-05 -4.0671577305704935e-04 0.0000000000000000e+00  2.8003226044560805e-05 -4.0307559635925985e-04 0.0000000000000000e+00  -1.8411275797798809e-03 -1.0101457581114449e-02 0.0000000000000000e+00  -1.7915843926136282e-03 -1.0347569281416990e-02 0.0000000000000000e+00  -1.7431214869239734e-03 -1.0557846890189839e-02 0.0000000000000000e+00  -1.6948951813012259e-03 -1.0745727708348798e-02 0.0000000000000000e+00  -1.6470058740127892e-03 -1.0917155433884052e-02 0.0000000000000000e+00  -1.5991600360540858e-03 -1.1075327165472581e-02 0.0000000000000000e+00  -1.5513468580613671e-03 -1.1222398497853890e-02 0.0000000000000000e+00  -1.5035545213140968e-03 -1.1359808574106799e-02 0.0000000000000000e+00  -1.4557631646611056e-03 -1.1488656133245756e-02 0.0000000000000000e+00  -1.4079882824179703e-03 -1.1609808218728170e-02 0.0000000000000000e+00  -1.3602262294804624e-03 -1.1723943143438616e-02 0.0000000000000000e+00  -1.3124676580291113e-03 -1.1831608977290438e-02 0.0000000000000000e+00  -1.2647141351551513e-03 -1.1933267609114749e-02 0.0000000000000000e+00  -1.2169658508188515e-03 -1.2029296863250674e-02 0.0000000000000000e+00  -1.1692169338773572e-03 -1.2120016981695833e-02 0.0000000000000000e+00  -1.1214742624446503e-03 -1.2205717140626522e-02 0.0000000000000000e+00  -1.0737342573879150e-03 -1.2286636583801020e-02 0.0000000000000000e+00  -1.0259972064289237e-03 -1.2362984994890736e-02 0.0000000000000000e+00  -9.7826251902358012e-04 -1.2434948755998503e-02 0.0000000000000000e+00  -9.3052977368852723e-04 -1.2502690988103627e-02 0.0000000000000000e+00  -8.8279900703272117e-04 -1.2566356789011851e-02 0.0000000000000000e+00  -8.3507015034126335e-04 -1.2626075232905001e-02 0.0000000000000000e+00  -7.8734281102171291e-04 -1.2681960589955889e-02 0.0000000000000000e+00  -7.3961722755254704e-04 -1.2734116013586115e-02 0.0000000000000000e+00  -6.9189311062606285e-04 -1.2782633583097310e-02 0.0000000000000000e+00  -6.4417030980073585e-04 -1.2827594606388692e-02 0.0000000000000000e+00  -5.9644937628390321e-04 -1.2869072656731099e-02 0.0000000000000000e+00  -5.4872876278443670e-04 -1.2907132511545488e-02 0.0000000000000000e+00  -5.0100939988181241e-04 -1.2941833344580007e-02 0.0000000000000000e+00  -4.5329120172324063e-04 -1.2973226671207776e-02 0.0000000000000000e+00  -4.0557394138632420e-04 -1.3001358323999868e-02 0.0000000000000000e+00  -3.5785730250344612e-04 -1.3026268124149230e-02 0.0000000000000000e+00  -3.1014132917056098e-04 -1.3047991082004416e-02 0.0000000000000000e+00  -2.6242612090818571e-04 -1.3066557145104673e-02 0.0000000000000000e+00  -2.1471099493320541e-04 -1.3081990784318900e-02 0.0000000000000000e+00  -1.6699711387797354e-04 -1.3094313698194009e-02 0.0000000000000000e+00  -1.1928274686126860e-04 -1.3103541780152994e-02 0.0000000000000000e+00  -7.1568771415924631e-05 -1.3109686929064409e-02 0.0000000000000000e+00  -2.3855103075025302e-05 -1.3112757536531025e-02 0.0000000000000000e+00  2.3858570008661969e-05 -1.3112757477445083e-02 0.0000000000000000e+00  7.1572286252130383e-05 -1.3109686731706875e-02 0.0000000000000000e+00  1.1928614441060928e-04 -1.3103541336562136e-02 0.0000000000000000e+00  1.6700023913423793e-04 -1.3094313352613964e-02 0.0000000000000000e+00  2.1471454476989390e-04 -1.3081990385274703e-02 0.0000000000000000e+00  2.6242941803430618e-04 -1.3066556072076758e-02 0.0000000000000000e+00  3.1014468172721260e-04 -1.3047990191750696e-02 0.0000000000000000e+00  3.5786058521541930e-04 -1.3026267267034803e-02 0.0000000000000000e+00  4.0557715551131629e-04 -1.3001357351985626e-02 0.0000000000000000e+00  4.5329465220582112e-04 -1.2973225748085310e-02 0.0000000000000000e+00  5.0101286323087687e-04 -1.2941832135059540e-02 0.0000000000000000e+00  5.4873211244149385e-04 -1.2907131325087869e-02 0.0000000000000000e+00  5.9645280900868060e-04 -1.2869071072349508e-02 0.0000000000000000e+00  6.4417408336760792e-04 -1.2827592976437666e-02 0.0000000000000000e+00  6.9189688266176855e-04 -1.2782632290372291e-02 0.0000000000000000e+00  7.3962106429849468e-04 -1.2734115137531558e-02 0.0000000000000000e+00  7.8734678190594588e-04 -1.2681959631200064e-02 0.0000000000000000e+00  8.3507388871191318e-04 -1.2626073914758663e-02 0.0000000000000000e+00  8.8280359434903032e-04 -1.2566356013260721e-02 0.0000000000000000e+00  9.3053518608285834e-04 -1.2502688718600097e-02 0.0000000000000000e+00  9.7826841975009798e-04 -1.2434946467984563e-02 0.0000000000000000e+00  1.0260037034445573e-03 -1.2362982520692341e-02 0.0000000000000000e+00  1.0737416276341998e-03 -1.2286633559589182e-02 0.0000000000000000e+00  1.1214822367314049e-03 -1.2205714034090620e-02 0.0000000000000000e+00  1.1692260471561629e-03 -1.2120012505950340e-02 0.0000000000000000e+00  1.2169732458120284e-03 -1.2029287918276876e-02 0.0000000000000000e+00  1.2647251417585942e-03 -1.1933259594560781e-02 0.0000000000000000e+00  1.3124796870504331e-03 -1.1831601557326848e-02 0.0000000000000000e+00  1.3602393691883453e-03 -1.1723930972585766e-02 0.0000000000000000e+00  1.4080083380929290e-03 -1.1609800765736865e-02 0.0000000000000000e+00  1.4557801772717971e-03 -1.1488646134746577e-02 0.0000000000000000e+00  1.5035600428020932e-03 -1.1359785589972901e-02 0.0000000000000000e+00  1.5513596597850434e-03 -1.1222378811007865e-02 0.0000000000000000e+00  1.5991881196576996e-03 -1.1075338898055105e-02 0.0000000000000000e+00  1.6470263504640391e-03 -1.0917124273926939e-02 0.0000000000000000e+00  1.6948921022363124e-03 -1.0745651044770045e-02 0.0000000000000000e+00  1.7427252383436260e-03 -1.0557827954719620e-02 0.0000000000000000e+00  1.7919011388491408e-03 -1.0348266423913561e-02 0.0000000000000000e+00  1.8408659289605269e-03 -1.0100678252466178e-02 0.0000000000000000e+00  -2.8003445264754307e-05 -4.0307597581339588e-04 0.0000000000000000e+00  -5.6016838546170245e-05 -4.0671620301333173e-04 0.0000000000000000e+00  -8.4050039927255739e-05 -4.1278922654663388e-04 0.0000000000000000e+00  -1.1211302253771861e-04 -4.2130442287021584e-04 0.0000000000000000e+00  -1.4021550849829256e-04 -4.3227455669398991e-04 0.0000000000000000e+00  -1.6836782748110054e-04 -4.4571695387240719e-04 0.0000000000000000e+00  -1.9657840237196278e-04 -4.6165133793959633e-04 0.0000000000000000e+00  -2.2485776196318937e-04 -4.8010279365429381e-04 0.0000000000000000e+00  -2.5321484855463637e-04 -5.0109974524847401e-04 0.0000000000000000e+00  -2.8165908341731518e-04 -5.2467504731489630e-04 0.0000000000000000e+00  -3.1019921034579654e-04 -5.5086534185778177e-04 0.0000000000000000e+00  -3.3884428000625693e-04 -5.7971196903443950e-04 0.0000000000000000e+00  -3.6760262859410821e-04 -6.1126076652838176e-04 0.0000000000000000e+00  -3.9648268946367769e-04 -6.4556230275359034e-04 0.0000000000000000e+00  -4.2549260595644764e-04 -6.8267215153139708e-04 0.0000000000000000e+00  -4.5464012925431116e-04 -7.2265111527763026e-04 0.0000000000000000e+00  -4.8393282700656112e-04 -7.6556543480187718e-04 0.0000000000000000e+00  -5.1337792215460807e-04 -8.1148787304274666e-04 0.0000000000000000e+00  -5.4298185249821991e-04 -8.6049592693699436e-04 0.0000000000000000e+00  -5.7275179436597050e-04 -9.1267496168738775e-04 0.0000000000000000e+00  -6.0269438480117950e-04 -9.6811650797934239e-04 0.0000000000000000e+00  -6.3281266113682309e-04 -1.0269183606225162e-03 0.0000000000000000e+00  -6.6311535996656679e-04 -1.0891904545530201e-03 0.0000000000000000e+00  -6.9360582210800182e-04 -1.1550481575110798e-03 0.0000000000000000e+00  -7.2428903346556542e-04 -1.2246169761037837e-03 0.0000000000000000e+00  -7.5516904812537519e-04 -1.2980329113132926e-03 0.0000000000000000e+00  -7.8624974399631392e-04 -1.3754435175873008e-03 0.0000000000000000e+00  -8.1753419823172820e-04 -1.4570086332763505e-03 0.0000000000000000e+00  -8.4902578637149537e-04 -1.5429019734714512e-03 0.0000000000000000e+00  -8.8072659238955979e-04 -1.6333113810762746e-03 0.0000000000000000e+00  -9.1263832986898360e-04 -1.7284425831969575e-03 0.0000000000000000e+00  -9.4476220150196597e-04 -1.8285189752231658e-03 0.0000000000000000e+00  -9.7710503010158488e-04 -1.9337880696586817e-03 0.0000000000000000e+00  -1.0096538881844389e-03 -2.0445164051722557e-03 0.0000000000000000e+00  -1.0424218653564310e-03 -2.1610018865501181e-03 0.0000000000000000e+00  -1.0754037285970288e-03 -2.2835675175463866e-03 0.0000000000000000e+00  -1.1085993636613914e-03 -2.4125746377654509e-03 0.0000000000000000e+00  -1.1420050283419943e-03 -2.5484253512471407e-03 0.0000000000000000e+00  -1.1756211422130735e-03 -2.6915675145872489e-03 0.0000000000000000e+00  -1.2094458055517498e-03 -2.8425009663568118e-03 0.0000000000000000e+00  -1.2434768122895927e-03 -3.0017895474086145e-03 0.0000000000000000e+00  -1.2777086491474615e-03 -3.1700744280804129e-03 0.0000000000000000e+00  -1.3121417053796847e-03 -3.3480822074330326e-03 0.0000000000000000e+00  -1.3467678330131131e-03 -3.5366465615604679e-03 0.0000000000000000e+00  -1.3815796951084996e-03 -3.7367337536528271e-03 0.0000000000000000e+00  -1.4165744839688423e-03 -3.9494764330061400e-03 0.0000000000000000e+00  -1.4517537929194541e-03 -4.1761938930137263e-03 0.0000000000000000e+00  -1.4871088288320995e-03 -4.4184733938215162e-03 0.0000000000000000e+00  -1.5226300449059300e-03 -4.6782216040485913e-03 0.0000000000000000e+00  -1.5583153937451842e-03 -4.9577616682620444e-03 0.0000000000000000e+00  -1.5941364542294834e-03 -5.2600642801168933e-03 0.0000000000000000e+00  -1.6301287007039493e-03 -5.5887479477501213e-03 0.0000000000000000e+00  -1.6662154099624444e-03 -5.9488712834277827e-03 0.0000000000000000e+00  -1.7024024903579229e-03 -6.3470735048025591e-03 0.0000000000000000e+00  -1.7386934224910670e-03 -6.7928769113113959e-03 0.0000000000000000e+00  -1.7752392957563294e-03 -7.3010276833846439e-03 0.0000000000000000e+00  -1.8111534700514908e-03 -7.8972556325785440e-03 0.0000000000000000e+00  -1.8490227150667318e-03 -8.6369959674846303e-03 0.0000000000000000e+00  0.0000000000000000e+00 -7.7990202469103770e-05 0.0000000000000000e+00  0.0000000000000000e+00 -1.4568498625924914e-04 0.0000000000000000e+00  0.0000000000000000e+00 -2.0434432419597293e-04 0.0000000000000000e+00  0.0000000000000000e+00 -2.5504150699819534e-04 0.0000000000000000e+00  0.0000000000000000e+00 -2.9859215983656003e-04 0.0000000000000000e+00  0.0000000000000000e+00 -3.3566748228830781e-04 0.0000000000000000e+00  0.0000000000000000e+00 -3.6682918190889576e-04 0.0000000000000000e+00  0.0000000000000000e+00 -3.9255804495886198e-04 0.0000000000000000e+00  0.0000000000000000e+00 -4.1323598673149661e-04 0.0000000000000000e+00  0.0000000000000000e+00 -4.2928260556529172e-04 0.0000000000000000e+00  0.0000000000000000e+00 -4.4103663234510001e-04 0.0000000000000000e+00  0.0000000000000000e+00 -4.4884997771637701e-04 0.0000000000000000e+00  0.0000000000000000e+00 -4.5308199958190616e-04 0.0000000000000000e+00  0.0000000000000000e+00 -4.5408758196755254e-04 0.0000000000000000e+00  0.0000000000000000e+00 -4.5223104700836935e-04 0.0000000000000000e+00  0.0000000000000000e+00 -4.4788718100138337e-04 0.0000000000000000e+00  0.0000000000000000e+00 -4.4144384411536167e-04 0.0000000000000000e+00  0.0000000000000000e+00 -4.3328810610801836e-04 0.0000000000000000e+00  0.0000000000000000e+00 -4.2381084480715690e-04 0.0000000000000000e+00  0.0000000000000000e+00 -4.1340195153702710e-04 0.0000000000000000e+00  0.0000000000000000e+00 -4.0244520194904025e-04 0.0000000000000000e+00  0.0000000000000000e+00 -3.9131014156244934e-04 0.0000000000000000e+00  0.0000000000000000e+00 -3.8035374782399700e-04 0.0000000000000000e+00  0.0000000000000000e+00 -3.6990111294037462e-04 0.0000000000000000e+00  0.0000000000000000e+00 -3.6026270451387917e-04 0.0000000000000000e+00  0.0000000000000000e+00 -3.5171853182521624e-04 0.0000000000000000e+00  0.0000000000000000e+00 -3.4450433093039705e-04 0.0000000000000000e+00  0.0000000000000000e+00 -3.3883366198038530e-04 0.0000000000000000e+00  0.0000000000000000e+00 -3.3487664530093715e-04 0.0000000000000000e+00  0.0000000000000000e+00 -3.3276692269733251e-04 0.0000000000000000e+00  0.0000000000000000e+00 -3.3260185706884289e-04 0.0000000000000000e+00  0.0000000000000000e+00 -3.3444107904122603e-04 0.0000000000000000e+00  0.0000000000000000e+00 -3.3831017387875241e-04 0.0000000000000000e+00  0.0000000000000000e+00 -3.4420295831735808e-04 0.0000000000000000e+00  0.0000000000000000e+00 -3.5208267371391764e-04 0.0000000000000000e+00  0.0000000000000000e+00 -3.6188553729305054e-04 0.0000000000000000e+00  0.0000000000000000e+00 -3.7352404450691299e-04 0.0000000000000000e+00  0.0000000000000000e+00 -3.8689128395555465e-04 0.0000000000000000e+00  0.0000000000000000e+00 0.0000000000000000e+00 0.0000000000000000e+00  0.0000000000000000e+00 0.0000000000000000e+00 0.0000000000000000e+00  0.0000000000000000e+00 0.0000000000000000e+00 0.0000000000000000e+00  0.0000000000000000e+00 0.0000000000000000e+00 0.0000000000000000e+00  0.0000000000000000e+00 0.0000000000000000e+00 0.0000000000000000e+00  0.0000000000000000e+00 0.0000000000000000e+00 0.0000000000000000e+00  0.0000000000000000e+00 0.0000000000000000e+00 0.0000000000000000e+00  0.0000000000000000e+00 0.0000000000000000e+00 0.0000000000000000e+00  0.0000000000000000e+00 0.0000000000000000e+00 0.0000000000000000e+00  0.0000000000000000e+00 0.0000000000000000e+00 0.0000000000000000e+00  0.0000000000000000e+00 0.0000000000000000e+00 0.0000000000000000e+00  0.0000000000000000e+00 0.0000000000000000e+00 0.0000000000000000e+00  0.0000000000000000e+00 0.0000000000000000e+00 0.0000000000000000e+00  0.0000000000000000e+00 0.0000000000000000e+00 0.0000000000000000e+00  0.0000000000000000e+00 0.0000000000000000e+00 0.0000000000000000e+00  0.0000000000000000e+00 0.0000000000000000e+00 0.0000000000000000e+00  0.0000000000000000e+00 0.0000000000000000e+00 0.0000000000000000e+00  0.0000000000000000e+00 0.0000000000000000e+00 0.0000000000000000e+00  0.0000000000000000e+00 -3.8676964142875448e-04 0.0000000000000000e+00  0.0000000000000000e+00 -3.7331685783843278e-04 0.0000000000000000e+00  0.0000000000000000e+00 -3.6162846561485441e-04 0.0000000000000000e+00  0.0000000000000000e+00 -3.5181008946151879e-04 0.0000000000000000e+00  0.0000000000000000e+00 -3.4394766935809585e-04 0.0000000000000000e+00  0.0000000000000000e+00 -3.3810173804584915e-04 0.0000000000000000e+00  0.0000000000000000e+00 -3.3430503726505797e-04 0.0000000000000000e+00  0.0000000000000000e+00 -3.3255992204696077e-04 0.0000000000000000e+00  0.0000000000000000e+00 -3.3283596106460498e-04 0.0000000000000000e+00  0.0000000000000000e+00 -3.3506628602662108e-04 0.0000000000000000e+00  0.0000000000000000e+00 -3.3915050698440647e-04 0.0000000000000000e+00  0.0000000000000000e+00 -3.4494236833188674e-04 0.0000000000000000e+00  0.0000000000000000e+00 -3.5227224840457907e-04 0.0000000000000000e+00  0.0000000000000000e+00 -3.6092172002288159e-04 0.0000000000000000e+00  0.0000000000000000e+00 -3.7064439508159098e-04 0.0000000000000000e+00  0.0000000000000000e+00 -3.8115432270041677e-04 0.0000000000000000e+00  0.0000000000000000e+00 -3.9214375676962712e-04 0.0000000000000000e+00  0.0000000000000000e+00 -4.0328297980290611e-04 0.0000000000000000e+00  0.0000000000000000e+00 -4.1421065057947883e-04 0.0000000000000000e+00  0.0000000000000000e+00 -4.2455704824572181e-04 0.0000000000000000e+00  0.0000000000000000e+00 -4.3394078265675989e-04 0.0000000000000000e+00  0.0000000000000000e+00 -4.4197476838115290e-04 0.0000000000000000e+00  0.0000000000000000e+00 -4.4827045111422401e-04 0.00000000000