<?xml version="1.0"?>
<VTKFile type="UnstructuredGrid"  version="0.1"  >
<UnstructuredGrid>
<Piece  NumberOfPoints="3167" NumberOfCells="6038">
<Points>
<DataArray  type="Float64"  NumberOfComponents="3"  format="ascii">2.2 2.9 0  0 2.9 0  2.8 2.9 0  5 2.9 0  5 0 0  0 0 0  2.16271186440678 2.9 0  2.125423728813559 2.9 0  2.088135593220339 2.9 0  2.050847457627119 2.9 0  2.013559322033898 2.9 0  1.976271186440678 2.9 0  1.938983050847457 2.9 0  1.901694915254237 2.9 0  1.864406779661016 2.9 0  1.827118644067796 2.9 0  1.789830508474575 2.9 0  1.752542372881355 2.9 0  1.715254237288134 2.9 0  1.677966101694914 2.9 0  1.640677966101693 2.9 0  1.603389830508473 2.9 0  1.566101694915253 2.9 0  1.528813559322032 2.9 0  1.491525423728812 2.9 0  1.454237288135591 2.9 0  1.416949152542371 2.9 0  1.37966101694915 2.9 0  1.34237288135593 2.9 0  1.305084745762709 2.9 0  1.267796610169489 2.9 0  1.230508474576268 2.9 0  1.193220338983048 2.9 0  1.155932203389827 2.9 0  1.118644067796607 2.9 0  1.081355932203387 2.9 0  1.044067796610166 2.9 0  1.006779661016946 2.9 0  0.9694915254237257 2.9 0  0.9322033898305055 2.9 0  0.8949152542372856 2.9 0  0.8576271186440652 2.9 0  0.820338983050845 2.9 0  0.783050847457625 2.9 0  0.7457627118644048 2.9 0  0.7084745762711844 2.9 0  0.6711864406779642 2.9 0  0.633898305084744 2.9 0  0.5966101694915238 2.9 0  0.5593220338983036 2.9 0  0.5220338983050834 2.9 0  0.4847457627118632 2.9 0  0.447457627118643 2.9 0  0.4101694915254228 2.9 0  0.3728813559322024 2.9 0  0.3355932203389822 2.9 0  0.2983050847457622 2.9 0  0.2610169491525418 2.9 0  0.2237288135593216 2.9 0  0.1864406779661016 2.9 0  0.1491525423728812 2.9 0  0.1118644067796613 2.9 0  0.07457627118644039 2.9 0  0.03728813559321997 2.9 0  2.792405063291139 2.9 0  2.784810126582279 2.9 0  2.777215189873418 2.9 0  2.769620253164557 2.9 0  2.762025316455697 2.9 0  2.754430379746836 2.9 0  2.746835443037975 2.9 0  2.739240506329114 2.9 0  2.731645569620254 2.9 0  2.724050632911393 2.9 0  2.716455696202532 2.9 0  2.708860759493671 2.9 0  2.701265822784811 2.9 0  2.69367088607595 2.9 0  2.686075949367089 2.9 0  2.678481012658228 2.9 0  2.670886075949368 2.9 0  2.663291139240507 2.9 0  2.655696202531646 2.9 0  2.648101265822786 2.9 0  2.640506329113925 2.9 0  2.632911392405064 2.9 0  2.625316455696203 2.9 0  2.617721518987342 2.9 0  2.610126582278482 2.9 0  2.602531645569621 2.9 0  2.59493670886076 2.9 0  2.587341772151899 2.9 0  2.579746835443038 2.9 0  2.572151898734178 2.9 0  2.564556962025317 2.9 0  2.556962025316456 2.9 0  2.549367088607595 2.9 0  2.541772151898734 2.9 0  2.534177215189874 2.9 0  2.526582278481013 2.9 0  2.518987341772152 2.9 0  2.511392405063292 2.9 0  2.503797468354431 2.9 0  2.49620253164557 2.9 0  2.488607594936709 2.9 0  2.481012658227848 2.9 0  2.473417721518988 2.9 0  2.465822784810127 2.9 0  2.458227848101266 2.9 0  2.450632911392406 2.9 0  2.443037974683545 2.9 0  2.435443037974684 2.9 0  2.427848101265823 2.9 0  2.420253164556962 2.9 0  2.412658227848102 2.9 0  2.405063291139241 2.9 0  2.39746835443038 2.9 0  2.389873417721519 2.9 0  2.382278481012658 2.9 0  2.374683544303798 2.9 0  2.367088607594937 2.9 0  2.359493670886076 2.9 0  2.351898734177215 2.9 0  2.344303797468355 2.9 0  2.336708860759494 2.9 0  2.329113924050633 2.9 0  2.321518987341773 2.9 0  2.313924050632912 2.9 0  2.306329113924051 2.9 0  2.29873417721519 2.9 0  2.291139240506329 2.9 0  2.283544303797469 2.9 0  2.275949367088608 2.9 0  2.268354430379747 2.9 0  2.260759493670887 2.9 0  2.253164556962026 2.9 0  2.245569620253165 2.9 0  2.237974683544304 2.9 0  2.230379746835443 2.9 0  2.222784810126583 2.9 0  2.215189873417722 2.9 0  2.207594936708861 2.9 0  4.96271186440678 2.9 0  4.925423728813559 2.9 0  4.888135593220339 2.9 0  4.850847457627118 2.9 0  4.813559322033898 2.9 0  4.776271186440677 2.9 0  4.738983050847457 2.9 0  4.701694915254237 2.9 0  4.664406779661016 2.9 0  4.627118644067796 2.9 0  4.589830508474575 2.9 0  4.552542372881355 2.9 0  4.515254237288135 2.9 0  4.477966101694914 2.9 0  4.440677966101694 2.9 0  4.403389830508473 2.9 0  4.366101694915252 2.9 0  4.328813559322032 2.9 0  4.291525423728811 2.9 0  4.254237288135591 2.9 0  4.21694915254237 2.9 0  4.17966101694915 2.9 0  4.14237288135593 2.9 0  4.105084745762709 2.9 0  4.067796610169489 2.9 0  4.030508474576268 2.9 0  3.993220338983048 2.9 0  3.955932203389827 2.9 0  3.918644067796607 2.9 0  3.881355932203387 2.9 0  3.844067796610166 2.9 0  3.806779661016946 2.9 0  3.769491525423725 2.9 0  3.732203389830505 2.9 0  3.694915254237285 2.9 0  3.657627118644065 2.9 0  3.620338983050845 2.9 0  3.583050847457625 2.9 0  3.545762711864405 2.9 0  3.508474576271184 2.9 0  3.471186440677964 2.9 0  3.433898305084744 2.9 0  3.396610169491524 2.9 0  3.359322033898303 2.9 0  3.322033898305083 2.9 0  3.284745762711863 2.9 0  3.247457627118643 2.9 0  3.210169491525423 2.9 0  3.172881355932202 2.9 0  3.135593220338982 2.9 0  3.098305084745762 2.9 0  3.061016949152542 2.9 0  3.023728813559321 2.9 0  2.986440677966101 2.9 0  2.949152542372881 2.9 0  2.911864406779661 2.9 0  2.87457627118644 2.9 0  2.83728813559322 2.9 0  5 0.1063822625082082 0  5 0.210636880010749 0  5 0.3128064053694972 0  5 0.4129325400644018 0  5 0.5110561521032336 0  5 0.6072172918830103 0  5 0.7014552087832795 0  5 0.7938083674443693 0  5 0.88431446261646 0  5 0.9730104359544682 0  5 1.059932489996267 0  5 1.145116102913299 0  5 1.228596043483191 0  5 1.310406385079062 0  5 1.390580519944147 0  5 1.469151172477827 0  5 1.546150411986101 0  5 1.621609666658609 0  5 1.695559736099044 0  5 1.76803080383987 0  5 1.839052450169751 0  5 1.908653663631169 0  5 1.97686285289587 0  5 2.043707858613779 0  5 2.109215964341413 0  5 2.173413907925942 0  5 2.236327892833935 0  5 2.297983597762904 0  5 2.35840618845912 0  5 2.41762032730194 0  5 2.475650183444628 0  5 2.532519442457069 0  5 2.588251316112828 0  5 2.642868552557322 0  5 2.696393444426347 0  5 2.748847838312051 0  5 2.800253144313381 0  5 2.850630344319807 0  0.2631578947368421 0 0  0.5263157894736842 0 0  0.7894736842105263 0 0  1.052631578947368 0 0  1.31578947368421 0 0  1.578947368421053 0 0  1.842105263157895 0 0  2.105263157894737 0 0  2.368421052631579 0 0  2.631578947368421 0 0  2.894736842105263 0 0  3.157894736842105 0 0  3.421052631578947 0 0  3.684210526315789 0 0  3.947368421052632 0 0  4.210526315789473 0 0  4.473684210526315 0 0  4.736842105263158 0 0  0 2.850203682350569 0  0 2.799411438503675 0  0 2.747603349778291 0  0 2.694759099502208 0  0 2.640857964382145 0  0 2.58587880633613 0  0 2.52980006535898 0  0 2.472599749459174 0  0 2.414255427218689 0  0 2.35474421880616 0  0 2.294042786119219 0  0 2.232127324764723 0  0 2.1689735539481 0  0 2.104556707683347 0  0 2.038851524813415 0  0 1.971832238155655 0  0 1.903472565412126 0  0 1.83374569926617 0  0 1.762624296208475 0  0 1.690080464918761 0  0 1.616085756774206 0  0 1.540611154706337 0  0 1.463627060685571 0  0 1.385103284916206 0  0 1.305009033716617 0  0 1.223312897337225 0  0 1.139982838163732 0  0 1.054986177579938 0  0 0.9682895835804817 0  0 0.8798590579197976 0  0 0.7896599218415354 0  0 0.6976568029903638 0  0 0.6038136217958798 0  0 0.508093576867624 0  0 0.4104591310957497 0  0 0.3108719963522191 0  0 0.2092931188294389 0  0 0.1056826638508546 0  1.434832105763824 2.866945754981483 0  1.737156300467626 2.870039440267515 0  2.032203389830508 2.867707527316512 0  2.332911392405064 2.893422591869991 0  2.469810913293406 2.891944186606167 0  2.606221408823969 2.892519154985628 0  2.255455320628894 2.892068685006691 0  2.538247299216212 2.894964578182811 0  2.674683544303798 2.893422591869991 0  2.40126582278481 2.893422591869991 0  3.566125247295424 2.865029336199714 0  3.266101694915253 2.867707527316512 0  2.967796610169491 2.867707527316512 0  1.174288529834642 2.870795313888584 0  3.825423728813556 2.867707527316512 0  2.727766680262011 2.892655387647729 0  0.06601655192030442 1.502119107695954 0  4.933983535508361 1.507650792231964 0  0.9532124728485543 2.868722489783638 0  4.048935912500257 2.870640982995992 0  0.05930163367361763 1.866907161167414 0  4.943402512618553 1.871280731473148 0  4.271733870017743 2.86520865624265 0  0.7249420921613114 2.863922936177041 0  0.05494499779910056 2.196469063120752 0  4.947228695426367 2.208030108792719 0  0.5406152150397161 2.866493807382013 0  4.459322033898304 2.868847558178794 0  2.18135593220339 2.875780645487384 0  2.817027156509632 2.876587550645167 0  4.928427208322876 1.186856073198245 0  0.07189226971603224 1.174626666111662 0  4.610299014423113 2.867003104093161 0  0.3897270066746357 2.869433095314657 0  1.581132500042262 2.868247328632392 0  1.887637879411437 2.869235851794358 0  3.413449426418068 2.867372048034327 0  3.116721298814773 2.865731235547652 0  2.644303797468355 2.893422591869991 0  2.370983221828106 2.892719513369796 0  2.302531645569621 2.893336787387268 0  2.758987341772152 2.894242393897099 0  0.04979653335696277 2.443411216910286 0  4.950470983477169 2.446866954595817 0  2.482937483021586 0.2513241087417575 0  1.707129504814338 0.1999998659920923 0  3.28584657955054 0.229200625631625 0  4.907807122600524 0.834082362900164 0  4.757627118644067 2.867707527316512 0  0.0773489124676745 0.8347594898806663 0  0.2390604736599387 2.861365431805741 0  0.8363213715215729 2.863896768908178 0  4.160865610207075 2.868916854015731 0  1.282549332053297 2.867610952980761 0  1.065094818402487 2.861284686038041 0  3.93818127737282 2.86865134411395 0  3.711492629432973 2.863574306925269 0  4.91369361998929 0.5579891344254361 0  0.08208328472281323 0.5559535993317519 0  2.696596932532885 2.892010483922337 0  0.04706410140274553 2.613055974506516 0  4.955577063972248 2.616518038840186 0  2.234177215189874 2.893422591869991 0  2.279795840559739 2.89403861893984 0  0.9117357887652362 0.2117925286661764 0  4.055948041993057 0.2039101057937727 0  4.872119713780579 2.867632926423075 0  2.780113878992455 2.891535929611743 0  0.1327442468251063 2.85
[...]
<PointData  Vectors="displacement"> 
<DataArray  type="Float64"  Name="displacement"  NumberOfComponents="3" format="ascii">1.0741272597908142e-04 -5.6207707896887237e-04 0.0000000000000000e+00  0.0000000000000000e+00 -2.3143933616722325e-05 0.0000000000000000e+00  -1.0756021841068614e-04 -5.6210013055293852e-04 0.0000000000000000e+00  0.0000000000000000e+00 -2.3143961271657179e-05 0.0000000000000000e+00  0.0000000000000000e+00 0.0000000000000000e+00 0.0000000000000000e+00  0.0000000000000000e+00 0.0000000000000000e+00 0.0000000000000000e+00  1.0646791395083607e-04 -4.9744843041800663e-04 0.0000000000000000e+00  1.0433390346259843e-04 -4.5479946883758018e-04 0.0000000000000000e+00  1.0222896578029276e-04 -4.2047960722765360e-04 0.0000000000000000e+00  1.0013599046638274e-04 -3.9121291500034713e-04 0.0000000000000000e+00  9.8045852014674308e-05 -3.6553607818235546e-04 0.0000000000000000e+00  9.5960088130203028e-05 -3.4260459235442776e-04 0.0000000000000000e+00  9.3880878266229127e-05 -3.2186608388320938e-04 0.0000000000000000e+00  9.1808681253999515e-05 -3.0293542493361450e-04 0.0000000000000000e+00  8.9745615137331428e-05 -2.8552634127902525e-04 0.0000000000000000e+00  8.7690925824942097e-05 -2.6942533680379146e-04 0.0000000000000000e+00  8.5645240207879342e-05 -2.5446644077074565e-04 0.0000000000000000e+00  8.3609026905297345e-05 -2.4051404465129801e-04 0.0000000000000000e+00  8.1583072545705128e-05 -2.2745702650127733e-04 0.0000000000000000e+00  7.9567351065303637e-05 -2.1520466941128189e-04 0.0000000000000000e+00  7.7562326276194200e-05 -2.0368105139339607e-04 0.0000000000000000e+00  7.5568234382238463e-05 -1.9282122680964493e-04 0.0000000000000000e+00  7.3585497280952860e-05 -1.8256961562869607e-04 0.0000000000000000e+00  7.1613897859684354e-05 -1.7287804379362409e-04 0.0000000000000000e+00  6.9654009047929419e-05 -1.6370433400731744e-04 0.0000000000000000e+00  6.7705963579050714e-05 -1.5501177270344448e-04 0.0000000000000000e+00  6.5769928822478877e-05 -1.4676796729534998e-04 0.0000000000000000e+00  6.3845971876371599e-05 -1.3894417313377861e-04 0.0000000000000000e+00  6.1934308313317077e-05 -1.3151429495632767e-04 0.0000000000000000e+00  6.0034791493642811e-05 -1.2445541276314521e-04 0.0000000000000000e+00  5.8147631165102588e-05 -1.1774696610847464e-04 0.0000000000000000e+00  5.6272880457539768e-05 -1.1137002773589951e-04 0.0000000000000000e+00  5.4410493464310540e-05 -1.0530737284964337e-04 0.0000000000000000e+00  5.2560282741824323e-05 -9.9543809819028939e-05 0.0000000000000000e+00  5.0722579449762600e-05 -9.4065185429120980e-05 0.0000000000000000e+00  4.8896756936374678e-05 -8.8858270124431756e-05 0.0000000000000000e+00  4.7083129869272267e-05 -8.3911422039039340e-05 0.0000000000000000e+00  4.5281465197933847e-05 -7.9213894377186991e-05 0.0000000000000000e+00  4.3491438413214146e-05 -7.4755829625786348e-05 0.0000000000000000e+00  4.1713009409568568e-05 -7.0527625095346237e-05 0.0000000000000000e+00  3.9945893371693223e-05 -6.6521077522092379e-05 0.0000000000000000e+00  3.8189909975230946e-05 -6.2728249409032950e-05 0.0000000000000000e+00  3.6444728233838241e-05 -5.9141844813988481e-05 0.0000000000000000e+00  3.4710100849598168e-05 -5.5755310987174777e-05 0.0000000000000000e+00  3.2985712286848715e-05 -5.2562367556995212e-05 0.0000000000000000e+00  3.1271216015128710e-05 -4.9557313337421968e-05 0.0000000000000000e+00  2.9566264822236796e-05 -4.6734869854325813e-05 0.0000000000000000e+00  2.7870492200894763e-05 -4.4090148401352926e-05 0.0000000000000000e+00  2.6183468292314519e-05 -4.1618618955920623e-05 0.0000000000000000e+00  2.4504813970516075e-05 -3.9316171117129649e-05 0.0000000000000000e+00  2.2834080327190532e-05 -3.7178947063906277e-05 0.0000000000000000e+00  2.1170826698500690e-05 -3.5203466179500047e-05 0.0000000000000000e+00  1.9514584068428323e-05 -3.3386518763501288e-05 0.0000000000000000e+00  1.7864875508475939e-05 -3.1725203773459490e-05 0.0000000000000000e+00  1.6221200223035945e-05 -3.0216862100998797e-05 0.0000000000000000e+00  1.4583046842380453e-05 -2.8859130162020427e-05 0.0000000000000000e+00  1.2949947221754403e-05 -2.7649896900278912e-05 0.0000000000000000e+00  1.1321271756124870e-05 -2.6587237230046552e-05 0.0000000000000000e+00  9.6965506892605835e-06 -2.5669523201628107e-05 0.0000000000000000e+00  8.0752358724486682e-06 -2.4895377752038666e-05 0.0000000000000000e+00  6.4568001459256255e-06 -2.4263591882834721e-05 0.0000000000000000e+00  4.8405753432500135e-06 -2.3773184466094117e-05 0.0000000000000000e+00  3.2260878922601446e-06 -2.3423421484961169e-05 0.0000000000000000e+00  1.6127512381683808e-06 -2.3213777800795304e-05 0.0000000000000000e+00  -1.0603352553705573e-04 -5.8175933713223895e-04 0.0000000000000000e+00  -1.0318025297774284e-04 -5.9593330940097130e-04 0.0000000000000000e+00  -1.0038919558200363e-04 -6.0804353817846550e-04 0.0000000000000000e+00  -9.7611764368128075e-05 -6.1886389943369342e-04 0.0000000000000000e+00  -9.4853741435286317e-05 -6.2873670038074967e-04 0.0000000000000000e+00  -9.2098221971696108e-05 -6.3784606712145007e-04 0.0000000000000000e+00  -8.9344583448555179e-05 -6.4631614385545226e-04 0.0000000000000000e+00  -8.6592145206565793e-05 -6.5422981316844717e-04 0.0000000000000000e+00  -8.3839763409796582e-05 -6.6165035322357036e-04 0.0000000000000000e+00  -8.1088330401029581e-05 -6.6862769846077693e-04 0.0000000000000000e+00  -7.8337636252796209e-05 -6.7520091402001759e-04 0.0000000000000000e+00  -7.5587142609001085e-05 -6.8140156413713814e-04 0.0000000000000000e+00  -7.2836939720971955e-05 -6.8725624973958504e-04 0.0000000000000000e+00  -7.0087038528828994e-05 -6.9278673034427185e-04 0.0000000000000000e+00  -6.7337100903926080e-05 -6.9801144920760580e-04 0.0000000000000000e+00  -6.4587522968010988e-05 -7.0294706045492231e-04 0.0000000000000000e+00  -6.1838098593015737e-05 -7.0760734252256344e-04 0.0000000000000000e+00  -5.9088844349304132e-05 -7.1200437143348924e-04 0.0000000000000000e+00  -5.6339726226483271e-05 -7.1614888123550720e-04 0.0000000000000000e+00  -5.3590719950642621e-05 -7.2005026633056629e-04 0.0000000000000000e+00  -5.0841827630151251e-05 -7.2371688313679894e-04 0.0000000000000000e+00  -4.8093045307606762e-05 -7.2715616524582794e-04 0.0000000000000000e+00  -4.5344350372973153e-05 -7.3037469366237092e-04 0.0000000000000000e+00  -4.2595756560612886e-05 -7.3337840915939964e-04 0.0000000000000000e+00  -3.9847247208826055e-05 -7.3617261473334279e-04 0.0000000000000000e+00  -3.7098813653440843e-05 -7.3876199303808242e-04 0.0000000000000000e+00  -3.4350487639382509e-05 -7.4115078127769780e-04 0.0000000000000000e+00  -3.1602180055643796e-05 -7.4334271008899783e-04 0.0000000000000000e+00  -2.8853944495806909e-05 -7.4534118738417963e-04 0.0000000000000000e+00  -2.6105776015470370e-05 -7.4714918001719203e-04 0.0000000000000000e+00  -2.3357661545805139e-05 -7.4876932756019266e-04 0.0000000000000000e+00  -2.0609582866686647e-05 -7.5020392338031358e-04 0.0000000000000000e+00  -1.7861542517672266e-05 -7.5145498378035018e-04 0.0000000000000000e+00  -1.5113546230310260e-05 -7.5252423348769442e-04 0.0000000000000000e+00  -1.2365554682012999e-05 -7.5341308181940377e-04 0.0000000000000000e+00  -9.6176348306648916e-06 -7.5412277843001248e-04 0.0000000000000000e+00  -6.8696869920066152e-06 -7.5465423864754639e-04 0.0000000000000000e+00  -4.1217617045784126e-06 -7.5500814774715679e-04 0.0000000000000000e+00  -1.3738541037936904e-06 -7.5518498901486751e-04 0.0000000000000000e+00  1.3740537701360084e-06 -7.5518498561201225e-04 0.0000000000000000e+00  4.1219641297074380e-06 -7.5500813638101568e-04 0.0000000000000000e+00  6.8698826623946403e-06 -7.5465421310042869e-04 0.0000000000000000e+00  9.6178148192527022e-06 -7.5412275852749741e-04 0.0000000000000000e+00  1.2365759122876915e-05 -7.5341305883780201e-04 0.0000000000000000e+00  1.5113736117162493e-05 -7.5252417169027622e-04 0.0000000000000000e+00  1.7861735596858681e-05 -7.5145493250919392e-04 0.0000000000000000e+00  2.0609771923404752e-05 -7.5020387401770236e-04 0.0000000000000000e+00  2.3357846652487895e-05 -7.4876927158031589e-04 0.0000000000000000e+00  2.6105974734370195e-05 -7.4714912685307244e-04 0.0000000000000000e+00  2.8854143955708331e-05 -7.4534111772593388e-04 0.0000000000000000e+00  3.1602372967837983e-05 -7.4334264175897813e-04 0.0000000000000000e+00  3.4350685335581520e-05 -7.4115069003059038e-04 0.0000000000000000e+00  3.7099030979289370e-05 -7.3876189916655783e-04 0.0000000000000000e+00  3.9847464446492265e-05 -7.3617254028321237e-04 0.0000000000000000e+00  4.2595977525047041e-05 -7.3337835870599700e-04 0.0000000000000000e+00  4.5344579062648809e-05 -7.3037463844606815e-04 0.0000000000000000e+00  4.8093260606447943e-05 -7.2715608933164111e-04 0.0000000000000000e+00  5.0842091821150962e-05 -7.2371683846003264e-04 0.0000000000000000e+00  5.3591031659224737e-05 -7.2005013562617389e-04 0.0000000000000000e+00  5.6340066058908560e-05 -7.1614874946507041e-04 0.0000000000000000e+00  5.9089218522987238e-05 -7.1200422894038750e-04 0.0000000000000000e+00  6.1838523057469028e-05 -7.0760716835329405e-04 0.0000000000000000e+00  6.4587982220135084e-05 -7.0294688154447682e-04 0.0000000000000000e+00  6.7337625752450937e-05 -6.9801119144215771e-04 0.0000000000000000e+00  7.0087464418495341e-05 -6.9278621518871237e-04 0.0000000000000000e+00  7.2837573609135296e-05 -6.8725578816841411e-04 0.0000000000000000e+00  7.5587835379869358e-05 -6.8140113680939150e-04 0.0000000000000000e+00  7.8338392989906345e-05 -6.7520021308084717e-04 0.0000000000000000e+00  8.1089485439908563e-05 -6.6862726923091142e-04 0.0000000000000000e+00  8.3840743193665257e-05 -6.6164977739377429e-04 0.0000000000000000e+00  8.6592463198027677e-05 -6.5422848947487261e-04 0.0000000000000000e+00  8.9345320720606031e-05 -6.4631501005803823e-04 0.0000000000000000e+00  9.2099839352015531e-05 -6.3784674281992153e-04 0.0000000000000000e+00  9.4854920707354578e-05 -6.2873490582824665e-04 0.0000000000000000e+00  9.7611587039789254e-05 -6.1885948425376603e-04 0.0000000000000000e+00  1.0036637498314239e-04 -6.0804244765400354e-04 0.0000000000000000e+00  1.0319849490754384e-04 -5.9597345896883784e-04 0.0000000000000000e+00  1.0601845664170734e-04 -5.8171445433050691e-04 0.0000000000000000e+00  -1.6127638634150800e-06 -2.3213799654173396e-05 0.0000000000000000e+00  -3.2261006492557350e-06 -2.3423446246840023e-05 0.0000000000000000e+00  -4.8405782157055820e-06 -2.3773201528862745e-05 0.0000000000000000e+00  -6.4567709314913683e-06 -2.4263605505613597e-05 0.0000000000000000e+00  -8.0752387093254571e-06 -2.4895393317453800e-05 0.0000000000000000e+00  -9.6965764517908118e-06 -2.5669562788462264e-05 0.0000000000000000e+00  -1.1321269246552349e-05 -2.6587249828980852e-05 0.0000000000000000e+00  -1.2949923463847990e-05 -2.7649899110979112e-05 0.0000000000000000e+00  -1.4583054105240239e-05 -2.8859147632109868e-05 0.0000000000000000e+00  -1.6221203757017487e-05 -3.0216887541694551e-05 0.0000000000000000e+00  -1.7864875988500579e-05 -3.1725229112227276e-05 0.0000000000000000e+00  -1.9514592042244314e-05 -3.3386553190464196e-05 0.0000000000000000e+00  -2.1170832013272276e-05 -3.5203499642994799e-05 0.0000000000000000e+00  -2.2834081592147977e-05 -3.7178980786854925e-05 0.0000000000000000e+00  -2.4504809767124168e-05 -3.9316197208613529e-05 0.0000000000000000e+00  -2.6183462941346570e-05 -4.1618650618082257e-05 0.0000000000000000e+00  -2.7870476948020591e-05 -4.4090155930997057e-05 0.0000000000000000e+00  -2.9566267768065084e-05 -4.6734903683088840e-05 0.0000000000000000e+00  -3.1271206164817463e-05 -4.9557357048726224e-05 0.0000000000000000e+00  -3.2985705434687787e-05 -5.2562432348487147e-05 0.0000000000000000e+00  -3.4710147815773217e-05 -5.5755400983102324e-05 0.0000000000000000e+00  -3.6444708233009062e-05 -5.9141895114384546e-05 0.0000000000000000e+00  -3.8189889841004554e-05 -6.2728246073732828e-05 0.0000000000000000e+00  -3.9945885042867266e-05 -6.6521098076552951e-05 0.0000000000000000e+00  -4.1712980984925924e-05 -7.0527679252049082e-05 0.0000000000000000e+00  -4.3491411148579898e-05 -7.4755822117518036e-05 0.0000000000000000e+00  -4.5281398868895672e-05 -7.9214024573088902e-05 0.0000000000000000e+00  -4.7083121364128853e-05 -8.3911491968793344e-05 0.0000000000000000e+00  -4.8896773037099659e-05 -8.8858228838668279e-05 0.0000000000000000e+00  -5.0722473907249943e-05 -9.4065053360412078e-05 0.0000000000000000e+00  -5.2560322662609303e-05 -9.9543813691969603e-05 0.0000000000000000e+00  -5.4410388568173462e-05 -1.0530737553641102e-04 0.0000000000000000e+00  -5.6273064560821507e-05 -1.1136999354055050e-04 0.0000000000000000e+00  -5.8147606125802568e-05 -1.1774701809892356e-04 0.0000000000000000e+00  -6.0034767114765429e-05 -1.2445560603167974e-04 0.0000000000000000e+00  -6.1934246149564321e-05 -1.3151435964926596e-04 0.0000000000000000e+00  -6.3846036650652970e-05 -1.3894408908596615e-04 0.0000000000000000e+00  -6.5769923098227075e-05 -1.4676795216606302e-04 0.0000000000000000e+00  -6.7705929656247278e-05 -1.5501174167779696e-04 0.0000000000000000e+00  -6.9653946916589660e-05 -1.6370424413573003e-04 0.0000000000000000e+00  -7.1613847828193156e-05 -1.7287793204970791e-04 0.0000000000000000e+00  -7.3585314872363434e-05 -1.8256973146012559e-04 0.0000000000000000e+00  -7.5568370466889498e-05 -1.9282148838619285e-04 0.0000000000000000e+00  -7.7562545356772749e-05 -2.0368121558724932e-04 0.0000000000000000e+00  -7.9567416995773881e-05 -2.1520456172869349e-04 0.0000000000000000e+00  -8.1582823684065811e-05 -2.2745675792181625e-04 0.0000000000000000e+00  -8.3608857183838914e-05 -2.4051378441439960e-04 0.0000000000000000e+00  -8.5645011084567262e-05 -2.5446705409442905e-04 0.0000000000000000e+00  -8.7690735570494674e-05 -2.6942637510227104e-04 0.0000000000000000e+00  -8.9745912728776282e-05 -2.8552554110409265e-04 0.0000000000000000e+00  -9.1808905740960788e-05 -3.0293563916903199e-04 0.0000000000000000e+00  -9.3881757632160423e-05 -3.2186506505366754e-04 0.0000000000000000e+00  -9.5960049788408798e-05 -3.4260515244871555e-04 0.0000000000000000e+00  -9.8044122481341948e-05 -3.6553826467448848e-04 0.0000000000000000e+00  -1.0013417616440202e-04 -3.9121280641059888e-04 0.0000000000000000e+00  -1.0223891232104023e-04 -4.2047803412162356e-04 0.0000000000000000e+00  -1.0430726790871960e-04 -4.5481576941551271e-04 0.0000000000000000e+00  -1.0648821919231962e-04 -4.9741861592842850e-04 0.0000000000000000e+00  0.0000000000000000e+00 -4.4915823411524893e-06 0.0000000000000000e+00  0.0000000000000000e+00 -8.3902348107420962e-06 0.0000000000000000e+00  0.0000000000000000e+00 -1.1768521288773313e-05 0.0000000000000000e+00  0.0000000000000000e+00 -1.4688254329738809e-05 0.0000000000000000e+00  0.0000000000000000e+00 -1.7196407111005883e-05 0.0000000000000000e+00  0.0000000000000000e+00 -1.9331635105609049e-05 0.0000000000000000e+00  0.0000000000000000e+00 -2.1126287963339227e-05 0.0000000000000000e+00  0.0000000000000000e+00 -2.2608054945274419e-05 0.0000000000000000e+00  0.0000000000000000e+00 -2.3798931173017875e-05 0.0000000000000000e+00  0.0000000000000000e+00 -2.4723081995906667e-05 0.0000000000000000e+00  0.0000000000000000e+00 -2.5400015475372066e-05 0.0000000000000000e+00  0.0000000000000000e+00 -2.5849998716649849e-05 0.0000000000000000e+00  0.0000000000000000e+00 -2.6093727724612381e-05 0.0000000000000000e+00  0.0000000000000000e+00 -2.6151640846298778e-05 0.0000000000000000e+00  0.0000000000000000e+00 -2.6044719984775287e-05 0.0000000000000000e+00  0.0000000000000000e+00 -2.5794549691179111e-05 0.0000000000000000e+00  0.0000000000000000e+00 -2.5423467462141201e-05 0.0000000000000000e+00  0.0000000000000000e+00 -2.4953765273236534e-05 0.0000000000000000e+00  0.0000000000000000e+00 -2.4407954412977593e-05 0.0000000000000000e+00  0.0000000000000000e+00 -2.3808489355535358e-05 0.0000000000000000e+00  0.0000000000000000e+00 -2.3177472363557257e-05 0.0000000000000000e+00  0.0000000000000000e+00 -2.2536186163282329e-05 0.0000000000000000e+00  0.0000000000000000e+00 -2.1905189665256222e-05 0.0000000000000000e+00  0.0000000000000000e+00 -2.1303205457298960e-05 0.0000000000000000e+00  0.0000000000000000e+00 -2.0748113872526627e-05 0.0000000000000000e+00  0.0000000000000000e+00 -2.0256041099881291e-05 0.0000000000000000e+00  0.0000000000000000e+00 -1.9840563561436056e-05 0.0000000000000000e+00  0.0000000000000000e+00 -1.9513980532901290e-05 0.0000000000000000e+00  0.0000000000000000e+00 -1.9286089519948743e-05 0.0000000000000000e+00  0.0000000000000000e+00 -1.9164587171050125e-05 0.0000000000000000e+00  0.0000000000000000e+00 -1.9155080773597695e-05 0.0000000000000000e+00  0.0000000000000000e+00 -1.9261004552111930e-05 0.0000000000000000e+00  0.0000000000000000e+00 -1.9483832003487643e-05 0.0000000000000000e+00  0.0000000000000000e+00 -1.9823207023512011e-05 0.0000000000000000e+00  0.0000000000000000e+00 -2.0277012622266448e-05 0.0000000000000000e+00  0.0000000000000000e+00 -2.0841575446195759e-05 0.0000000000000000e+00  0.0000000000000000e+00 -2.1511855966365832e-05 0.0000000000000000e+00  0.0000000000000000e+00 -2.2281696981732327e-05 0.0000000000000000e+00  0.0000000000000000e+00 0.0000000000000000e+00 0.0000000000000000e+00  0.0000000000000000e+00 0.0000000000000000e+00 0.0000000000000000e+00  0.0000000000000000e+00 0.0000000000000000e+00 0.0000000000000000e+00  0.0000000000000000e+00 0.0000000000000000e+00 0.0000000000000000e+00  0.0000000000000000e+00 0.0000000000000000e+00 0.0000000000000000e+00  0.0000000000000000e+00 0.0000000000000000e+00 0.0000000000000000e+00  0.0000000000000000e+00 0.0000000000000000e+00 0.0000000000000000e+00  0.0000000000000000e+00 0.0000000000000000e+00 0.0000000000000000e+00  0.0000000000000000e+00 0.0000000000000000e+00 0.0000000000000000e+00  0.0000000000000000e+00 0.0000000000000000e+00 0.0000000000000000e+00  0.0000000000000000e+00 0.0000000000000000e+00 0.0000000000000000e+00  0.0000000000000000e+00 0.0000000000000000e+00 0.0000000000000000e+00  0.0000000000000000e+00 0.0000000000000000e+00 0.0000000000000000e+00  0.0000000000000000e+00 0.0000000000000000e+00 0.0000000000000000e+00  0.0000000000000000e+00 0.0000000000000000e+00 0.0000000000000000e+00  0.0000000000000000e+00 0.0000000000000000e+00 0.0000000000000000e+00  0.0000000000000000e+00 0.0000000000000000e+00 0.0000000000000000e+00  0.0000000000000000e+00 0.0000000000000000e+00 0.0000000000000000e+00  0.0000000000000000e+00 -2.2274691391184942e-05 0.0000000000000000e+00  0.0000000000000000e+00 -2.1499923749857570e-05 0.0000000000000000e+00  0.0000000000000000e+00 -2.0826770271012809e-05 0.0000000000000000e+00  0.0000000000000000e+00 -2.0261314052757691e-05 0.0000000000000000e+00  0.0000000000000000e+00 -1.9808504518005546e-05 0.0000000000000000e+00  0.0000000000000000e+00 -1.9471827845572519e-05 0.0000000000000000e+00  0.0000000000000000e+00 -1.9253169685422231e-05 0.0000000000000000e+00  0.0000000000000000e+00 -1.9152665667626037e-05 0.0000000000000000e+00  0.0000000000000000e+00 -1.9168563202673605e-05 0.0000000000000000e+00  0.0000000000000000e+00 -1.9297011237135264e-05 0.0000000000000000e+00  0.0000000000000000e+00 -1.9532228150934392e-05 0.0000000000000000e+00  0.0000000000000000e+00 -1.9865790846338785e-05 0.0000000000000000e+00  0.0000000000000000e+00 -2.0287930536388989e-05 0.0000000000000000e+00  0.0000000000000000e+00 -2.0786067645296107e-05 0.0000000000000000e+00  0.0000000000000000e+00 -2.1346012282185148e-05 0.0000000000000000e+00  0.0000000000000000e+00 -2.1951296071751080e-05 0.0000000000000000e+00  0.0000000000000000e+00 -2.2584195416051368e-05 0.0000000000000000e+00  0.0000000000000000e+00 -2.3225721349905049e-05 0.0000000000000000e+00  0.0000000000000000e+00 -2.3855063645938100e-05 0.0000000000000000e+00  0.0000000000000000e+00 -2.4450929480119497e-05 0.0000000000000000e+00  0.0000000000000000e+00 -2.4991353974995886e-05 0.0000000000000000e+00  0.0000000000000000e+00 -2.5454044252317116e-05 0.0000000000000000e+00  0.0000000000000000e+00 -2.5816622839038369e-05 0.00000000000