<?xml version="1.0"?>
<VTKFile type="UnstructuredGrid"  version="0.1"  >
<UnstructuredGrid>
<Piece  NumberOfPoints="1855" NumberOfCells="3532">
<Points>
<DataArray  type="Float64"  NumberOfComponents="3"  format="ascii">0 0 0  30 0 0  30 -10 0  0 -10 0  0.1391574078963744 0 0  0.2856388821882616 0 0  0.4398299073010886 0 0  0.6021362569539473 0 0  0.7729850389704483 0 0  0.9528258543586996 0 0  1.142131984380316 0 0  1.34140159760994 0 0  1.551159074717981 0 0  1.771956417032531 0 0  2.004374674080994 0 0  2.249025475789527 0 0  2.506552636773105 0 0  2.777633857742732 0 0  3.062982518028728 0 0  3.363349525995907 0 0  3.679525322337712 0 0  4.01234195575742 0 0  4.362675247811097 0 0  4.731447135329707 0 0  5.119628065610077 0 0  5.528239565804708 0 0  5.958356943167011 0 0  6.411112081475485 0 0  6.887696441559404 0 0  7.389364184530748 0 0  7.917435485335147 0 0  8.473300005202017 0 0  9.058420557070402 0 0  9.674336929103793 0 0  10.32266995225095 0 0  11.00512576896296 0 0  11.72350030646412 0 0  12.47968402994705 0 0  13.27566689579597 0 0  14.1135435963616 0 0  14.9955190732806 0 0  15.92391430904694 0 0  16.90117245730496 0 0  17.92986524844506 0 0  19.01269976086341 0 0  20.15252556282024 0 0  21.35234220269763 0 0  22.61530708683689 0 0  23.94474379751883 0 0  25.34415086349739 0 0  26.81721093579712 0 0  28.3678004819169 0 0  30 -1.111111111111111 0  30 -2.222222222222222 0  30 -3.333333333333333 0  30 -4.444444444444445 0  30 -5.555555555555555 0  30 -6.666666666666666 0  30 -7.777777777777777 0  30 -8.888888888888889 0  28.36780047917311 -10 0  26.8172109305839 -10 0  25.34415085606858 -10 0  23.94474378810899 -10 0  22.61530707566275 -10 0  21.3523421899591 -10 0  20.15252554870171 -10 0  19.01269974553473 -10 0  17.92986523206254 -10 0  16.90117244001232 -10 0  15.92391429097614 -10 0  14.99551905455266 -10 0  14.11354357708742 -10 0  13.27566687607703 -10 0  12.47968400987599 -10 0  11.72350028612546 -10 0  11.00512574843363 -10 0  10.32266993160086 -10 0  9.674336908396342 -10 0  9.058420536362949 -10 0  8.473299984546333 -10 0  7.917435464777824 -10 0  7.389364164113587 -10 0  6.887696420787165 -10 0  6.411112061446698 -10 0  5.95835692337857 -10 0  5.528239546282652 -10 0  5.119628046377237 -10 0  4.731447115907979 -10 0  4.362675229213632 -10 0  4.012341937260036 -10 0  3.679525304434552 -10 0  3.363349508456405 -10 0  3.062982500861274 -10 0  2.777633840953978 -10 0  2.506552620368097 -10 0  2.249025459771861 -10 0  2.004374658452946 -10 0  1.771956401795187 -10 0  1.551159059871345 -10 0  1.341401583153029 -10 0  1.142131970307521 -10 0  0.9528258406748833 -10 0  0.7729850256685147 -10 0  0.6021362439621285 -10 0  0.4398298947504031 -10 0  0.2856388700059078 -10 0  0.1391573960769001 -10 0  0 -9.855072463768115 0  0 -9.710144927536232 0  0 -9.565217391304348 0  0 -9.420289855072463 0  0 -9.27536231884058 0  0 -9.130434782608695 0  0 -8.985507246376812 0  0 -8.840579710144928 0  0 -8.695652173913043 0  0 -8.55072463768116 0  0 -8.405797101449275 0  0 -8.260869565217391 0  0 -8.115942028985508 0  0 -7.971014492753623 0  0 -7.826086956521739 0  0 -7.681159420289855 0  0 -7.536231884057971 0  0 -7.391304347826087 0  0 -7.246376811594203 0  0 -7.101449275362318 0  0 -6.956521739130435 0  0 -6.811594202898551 0  0 -6.666666666666667 0  0 -6.521739130434783 0  0 -6.376811594202898 0  0 -6.231884057971015 0  0 -6.086956521739131 0  0 -5.942028985507246 0  0 -5.797101449275362 0  0 -5.652173913043478 0  0 -5.507246376811594 0  0 -5.36231884057971 0  0 -5.217391304347826 0  0 -5.072463768115941 0  0 -4.927536231884058 0  0 -4.782608695652174 0  0 -4.637681159420289 0  0 -4.492753623188406 0  0 -4.347826086956522 0  0 -4.202898550724638 0  0 -4.057971014492754 0  0 -3.913043478260869 0  0 -3.768115942028985 0  0 -3.623188405797101 0  0 -3.478260869565217 0  0 -3.333333333333334 0  0 -3.188405797101449 0  0 -3.043478260869565 0  0 -2.898550724637681 0  0 -2.753623188405797 0  0 -2.608695652173912 0  0 -2.463768115942029 0  0 -2.318840579710145 0  0 -2.173913043478261 0  0 -2.028985507246377 0  0 -1.884057971014492 0  0 -1.739130434782609 0  0 -1.594202898550725 0  0 -1.44927536231884 0  0 -1.304347826086957 0  0 -1.159420289855072 0  0 -1.014492753623188 0  0 -0.8695652173913047 0  0 -0.72463768115942 0  0 -0.579710144927537 0  0 -0.4347826086956523 0  0 -0.2898550724637676 0  0 -0.1449275362318829 0  5.15859856094262 -4.976557621770688 0  2.816777084926057 -7.160262673925935 0  2.81677708460006 -2.839737326002783 0  2.227649803257325 -5.003121586636773 0  1.518662968975629 -8.46230852045241 0  1.518662969184829 -1.537691480152612 0  9.960740911025725 -5.055901393541221 0  1.491099662214591 -3.691833922963321 0  1.503675657181264 -6.345020369042368 0  5.319208041801049 -7.493850249937013 0  5.291109955459268 -2.489368743223226 0  1.096914507335763 -2.53623188405797 0  1.096914507253562 -7.463768115942029 0  1.089580194952752 -4.71277167923441 0  15.07565076110197 -5.047572991082069 0  7.501630508673601 -5.937500100385354 0  0.8894869418764504 -5.623930488933245 0  2.955144522453978 -1.440834296472408 0  2.955144521140721 -8.559165705576945 0  8.106603955004623 -2.748811534843258 0  3.662152539483591 -4.228178367024407 0  3.662181528265114 -5.771746159989156 0  0.8436558190317136 -0.8541050638451999 0  0.8436558075840921 -9.145894948342754 0  0.7854168197005933 -1.811594202898552 0  0.7894693398152999 -3.286543351392342 0  0.7854168196772591 -8.188405797101449 0  0.7854168196772591 -6.739130434782609 0  20.00078956016804 -4.999999999785771 0  0.7379120031523989 -3.977302749614766 0  6.584332478112232 -3.934875417052907 0  7.295091310194352 -7.969791332537982 0  9.811174303464586 -7.412814499648229 0  4.013376806449688 -2.206189431585293 0  4.013376806983409 -7.793810569017377 0  12.11177433894592 -2.818343737884045 0  2.591152707837148 -3.990098461753838 0  2.58990939378082 -6.025895074707176 0  25.43156400064585 -5.044446479916348 0  2.03262751726143 -2.282125834846944 0  2.032627517335952 -7.717874165160392 0  12.51865094522923 -6.491408052923457 0  0.598175343983641 -6.156971652625402 0  2.126700074935224 -0.8767654465386991 0  2.126700059112423 -9.123234559633019 0  6.617961838548696 -1.617756429129908 0  0.5903949564549755 -4.980060355019413 0  1.676697585305984 -5.547101897225158 0  4.773518305133987 -3.729331162566817 0  4.77931803486508 -6.231222307502165 0  4.878549698409591 -8.72048903376362 0  4.852580875634024 -1.222215410052823 0  0.5487847095754042 -2.675169258708207 0  0.545113423825768 -7.32369553390529 0  1.78738026998851 -4.400451872599477 0  1.68244194111824 -3.010100184333533 0  1.683984276238402 -7.018293626028473 0  9.998503440677371 -2.00585287985007 0  3.693061162502273 -3.243678395563028 0  3.694987482168253 -6.757603268814477 0  6.081763036485869 -5.83414381546261 0  0.5196640460586313 -1.350633211792632 0  0.5196640458460706 -8.649366789040087 0  3.84593363904758 -0.9906418103762418 0  3.845933620847308 -9.009358200471317 0  17.41551885287501 -3.057748733689079 0  17.30725517812527 -7.002961443761516 0  8.117698464370697 -4.451550942597151 0  0.4918476668493152 -0.4789811193757592 0  0.4918476560347713 -9.521018882514893 0  1.463770869328428 -0.6252343353791154 0  1.463770854281917 -9.374765668872765 0  0.5034132782032188 -4.464280853772128 0  3.138906271796685 -4.99999841599503 0  14.61209972381335 -2.388610981020637 0  6.208601124947327 -8.776231214192325 0  14.74910972998159 -7.542186851303819 0  2.243794246335625 -1.632184311040998 0  2.243794245689214 -8.367815689183566 0  0.4590235278399923 -5.431413993025926 0  0.4971508861448406 -2.209632053221267 0  0.4971508861368665 -7.790367946777407 0  0.4644363683211541 -3.560571347760519 0  6.478811279411406 -7.007392971062433 0  1.238895267772762 -4.173677632458826 0  1.293241773632479 -2.02256720952064 0  1.293241773542714 -7.977432790434841 0  0.4324740478030531 -0.942028985507247 0  0.4324740423701829 -9.057971014492754 0  2.117396640811705 -3.472968170680347 0  2.107095929630507 -6.531506384346077 0  8.087741545730886 -1.392783601483453 0  1.028911946384717 -1.352376108341404 0  1.028911946221715 -8.647623891551962 0  4.05691976296832 -4.991522392209158 0  11.51826881314265 -8.065248940008736 0  1.618560396201739 -4.958056164503666 0  2.701984523487646 -2.141781914603403 0  2.70198452396172 -7.858218085853512 0  2.843615645746219 -9.289121726447632 0  2.843615661334342 -0.7108782798429658 0  8.678774612240533 -8.488146490452822 0  6.487906449371135 -2.667543558824978 0  8.369190916679937 -7.129867754908394 0  11.80978191929258 -4.655775487536958 0  0.3792065166453504 -3.113833531412848 0  0.4134714637263563 -6.58827691137208 0  9.551050695080825 -3.49648183875815 0  1.083867845277057 -6.036251777836495 0  0.3756430921870901 -1.80381664325008 0  0.3756430921689482 -8.196183356748573 0  3.113073783220456 -3.503408140759125 0  3.113391383189963 -6.496678880796299 0  22.62850736315072 -3.277987336300344 0  22.59385352108348 -6.800312122582239 0  0.3777114402537816 -4.137047872695438 0  0.9196816123347897 -0.4281025456111269 0  0.9196815944880363 -9.571897460530383 0  0.4052043328723194 -5.827814332459883 0  8.865857694874787 -5.767686953139113 0  1.200388325130726 -5.182186034620629 0  5.65297436943758 -4.325500846767599 0  1.200079167961391 -3.009849046583253 0  1.20883344838 -7.021823297793294 0  1.057642414577487 -3.660996704809145 0  10.88812987788297 -6.333458225047037 0  4.493502926606794 -2.839780197438185 0  4.485862892033458 -7.147606077919463 0  0.3631651408878085 -7.003529808558233 0  1.946748828463205 -6.049056369468467 0  6.918750162798794 -4.993796052442676 0  3.351203216022585 -1.980935554775394 0  3.351203216441711 -8.019064445907297 0  2.281892243515294 -2.856654416292082 0  2.281892243715877 -7.143345583598931 0  5.811143619672087 -0.9953286820321026 0  2.695713766833098 -4.565354125099452 0  2.698172168139827 -5.435483248292925 0  19.86166219288896 -2.493475492328429 0  19.83739102036415 -7.594404063416508
[...]
<PointData  Vectors="flow"> 
<DataArray  type="Float64"  Name="flow"  NumberOfComponents="3" format="ascii">-1.2858989591904076e-14 -6.0419379208766218e-15 0.0000000000000000e+00  -9.6585504148518143e-25 -4.5381763158850906e-25 0.0000000000000000e+00  -3.6704648064180138e-25 -1.7246083249886420e-25 0.0000000000000000e+00  2.3554711686040303e-20 1.1067440776280275e-20 0.0000000000000000e+00  5.9096493095546027e-14 2.7767138317741837e-14 0.0000000000000000e+00  -2.9428494955241200e-13 -1.3827302553875853e-13 0.0000000000000000e+00  5.1195614168103577e-13 2.4054823313612418e-13 0.0000000000000000e+00  -3.0467959566264744e-12 -1.4315706452632141e-12 0.0000000000000000e+00  3.1256675839780844e-12 1.4686293482640288e-12 0.0000000000000000e+00  2.6699532845145926e-11 1.2545069642823418e-11 0.0000000000000000e+00  4.2511709607280270e-11 1.9974595089433375e-11 0.0000000000000000e+00  -2.1165429594838691e-10 -9.9448102641915710e-11 0.0000000000000000e+00  -7.4448223986394549e-10 -3.4980318199224028e-10 0.0000000000000000e+00  -9.8952670169250105e-10 -4.6494002191587576e-10 0.0000000000000000e+00  -3.1836608608035665e-09 -1.4958781282636953e-09 0.0000000000000000e+00  -7.4583524797935949e-10 -3.5043890776068874e-10 0.0000000000000000e+00  3.3974511375608361e-08 1.5963298450197070e-08 0.0000000000000000e+00  -6.6207058816503316e-08 -3.1108115955314996e-08 0.0000000000000000e+00  -1.2658911978351644e-07 -5.9479292499930327e-08 0.0000000000000000e+00  -1.2255546120608283e-07 -5.7584033580504066e-08 0.0000000000000000e+00  -2.9321687957844539e-08 -1.3777118109509289e-08 0.0000000000000000e+00  1.0243652458464392e-07 4.8130929568559150e-08 0.0000000000000000e+00  -1.1473727528494693e-07 -5.3910572796375713e-08 0.0000000000000000e+00  -3.7197786174280223e-08 -1.7477789623575347e-08 0.0000000000000000e+00  6.0461127138613566e-08 2.8408326656374625e-08 0.0000000000000000e+00  5.2709797450390213e-08 2.4766279009802224e-08 0.0000000000000000e+00  8.9301281531682661e-08 4.1959190915657306e-08 0.0000000000000000e+00  3.8016031741531210e-08 1.7862251317554411e-08 0.0000000000000000e+00  -2.6729790353311095e-08 -1.2559286466366817e-08 0.0000000000000000e+00  -1.4250825132506571e-09 -6.6959071827916164e-10 0.0000000000000000e+00  -3.2307641288166230e-10 -1.5180101176530066e-10 0.0000000000000000e+00  -9.1409952878027943e-11 -4.2949973377925621e-11 0.0000000000000000e+00  6.0945586642120669e-11 2.8635955291147871e-11 0.0000000000000000e+00  4.1942689404223377e-12 1.9707234678413402e-12 0.0000000000000000e+00  9.4482426906653254e-13 4.4393609148199833e-13 0.0000000000000000e+00  -2.8751433335472399e-13 -1.3509177692974853e-13 0.0000000000000000e+00  8.6448352274230474e-14 4.0618710674734492e-14 0.0000000000000000e+00  -1.6496235570010362e-14 -7.7509380134276243e-15 0.0000000000000000e+00  3.0885249480861976e-15 1.4511774716082015e-15 0.0000000000000000e+00  3.1952331193545101e-16 1.5013154814296991e-16 0.0000000000000000e+00  -1.1389906852052049e-16 -5.3516732114001104e-17 0.0000000000000000e+00  6.6690030155931965e-17 3.1335045359801659e-17 0.0000000000000000e+00  -1.5646513845204521e-17 -7.3516869000641509e-18 0.0000000000000000e+00  3.4733896466853574e-18 1.6320103901088135e-18 0.0000000000000000e+00  -3.3447484186545683e-19 -1.5715668919418412e-19 0.0000000000000000e+00  7.7128196698234546e-20 3.6239532901814268e-20 0.0000000000000000e+00  -9.7457806428011622e-21 -4.5791623994593100e-21 0.0000000000000000e+00  1.6390509905249506e-21 7.7012616451124512e-22 0.0000000000000000e+00  2.9136316002102113e-23 1.3690019053952581e-23 0.0000000000000000e+00  1.9651279528054327e-23 9.2333701746715014e-24 0.0000000000000000e+00  -1.9873546972738838e-23 -9.3378049821668815e-24 0.0000000000000000e+00  4.6231684845123779e-24 2.1722466436059223e-24 0.0000000000000000e+00  4.3737431464436292e-25 2.0550514007188878e-25 0.0000000000000000e+00  -3.8466026757296803e-26 -1.8073686433084151e-26 0.0000000000000000e+00  1.1970234313465901e-25 5.6243464623256749e-26 0.0000000000000000e+00  -1.5573536451768017e-25 -7.3173976678022089e-26 0.0000000000000000e+00  -3.8831227950444934e-26 -1.8245280236925483e-26 0.0000000000000000e+00  1.2177118492318256e-25 5.7215532728999981e-26 0.0000000000000000e+00  -1.3740570295815347e-26 -6.4561583265473458e-27 0.0000000000000000e+00  1.8102486173555202e-25 8.5056525547706386e-26 0.0000000000000000e+00  1.8062976073283748e-24 8.4870882988948844e-25 0.0000000000000000e+00  -7.4653948911721573e-24 -3.5076980321758496e-24 0.0000000000000000e+00  1.3517169928431132e-23 6.3511912028406880e-24 0.0000000000000000e+00  1.4435444133189078e-22 6.7826524541184049e-23 0.0000000000000000e+00  -1.8744900991008886e-21 -8.8074982339171749e-22 0.0000000000000000e+00  1.0040066986988930e-20 4.7174360802828506e-21 0.0000000000000000e+00  -5.3155249379593430e-20 -2.4975579506061633e-20 0.0000000000000000e+00  1.2201582775288872e-19 5.7330480857646225e-20 0.0000000000000000e+00  -1.1987044568371662e-18 -5.6322449457833888e-19 0.0000000000000000e+00  2.9958699069758361e-18 1.4076424798077912e-18 0.0000000000000000e+00  -2.3985810883350143e-17 -1.1269997483342666e-17 0.0000000000000000e+00  6.3721229168885403e-17 2.9940121510227472e-17 0.0000000000000000e+00  -1.5777238037361395e-16 -7.4131091018727464e-17 0.0000000000000000e+00  -1.0427369656125188e-15 -4.8994145060982297e-16 0.0000000000000000e+00  2.4017741144921057e-15 1.1285000268501641e-15 0.0000000000000000e+00  -1.9845727837982511e-14 -9.3247338552319650e-15 0.0000000000000000e+00  1.2444404698105684e-13 5.8471406412489815e-14 0.0000000000000000e+00  -4.7030955464001521e-13 -2.2098012541507493e-13 0.0000000000000000e+00  -9.0416628941520307e-13 -4.2483249183399600e-13 0.0000000000000000e+00  1.1902562272726531e-12 5.5925500084749079e-13 0.0000000000000000e+00  -4.1492709064456101e-12 -1.9495806458563064e-12 0.0000000000000000e+00  3.8911010688570050e-12 1.8282767035360453e-12 0.0000000000000000e+00  7.0205259017950783e-12 3.2986714366156746e-12 0.0000000000000000e+00  -3.4646533883945018e-12 -1.6279055629078234e-12 0.0000000000000000e+00  -4.9785296848520115e-12 -2.3392170184238617e-12 0.0000000000000000e+00  5.0509322375734315e-13 2.3732361554430921e-13 0.0000000000000000e+00  3.2035014982656664e-11 1.5052004703497400e-11 0.0000000000000000e+00  1.1260377704879387e-11 5.2908125146425605e-12 0.0000000000000000e+00  2.6133024819288723e-12 1.2278889605936023e-12 0.0000000000000000e+00  9.0198699158388919e-13 4.2380852473971043e-13 0.0000000000000000e+00  -7.1904678649587747e-13 -3.3785205401745926e-13 0.0000000000000000e+00  -1.0141932334448670e-12 -4.7652986359868963e-13 0.0000000000000000e+00  8.8814690582943726e-13 4.1730560797860705e-13 0.0000000000000000e+00  5.1480077863675876e-13 2.4188481714772725e-13 0.0000000000000000e+00  2.5263006873847111e-13 1.1870102089713433e-13 0.0000000000000000e+00  -2.0228663487622106e-13 -9.5046603888275487e-14 0.0000000000000000e+00  -1.9213081069227633e-15 -9.0274778013763052e-16 0.0000000000000000e+00  1.6852827237495816e-14 7.9184865367894817e-15 0.0000000000000000e+00  6.6657736801780234e-15 3.1319871971593564e-15 0.0000000000000000e+00  1.2381261454502680e-15 5.8174720926242634e-16 0.0000000000000000e+00  5.0016552771279919e-16 2.3500828327179307e-16 0.0000000000000000e+00  -4.6459825524636587e-17 -2.1829660847641151e-17 0.0000000000000000e+00  -7.8460626035181991e-17 -3.6865589504493213e-17 0.0000000000000000e+00  -3.6564719584637751e-18 -1.7180336312250664e-18 0.0000000000000000e+00  6.0383482950548612e-18 2.8371844679244735e-18 0.0000000000000000e+00  -9.4364517313925823e-19 -4.4338208027105545e-19 0.0000000000000000e+00  6.5942950600617477e-19 3.0984021800531621e-19 0.0000000000000000e+00  -1.6166022188111517e-19 -7.5957836181451487e-20 0.0000000000000000e+00  9.1460914844362263e-20 4.2973918419230550e-20 0.0000000000000000e+00  -2.5129898587884483e-19 -1.1807559695165811e-19 0.0000000000000000e+00  1.9867717587395277e-20 9.3350659812434635e-21 0.0000000000000000e+00  -1.8162465634470399e-18 -8.5338345652456548e-19 0.0000000000000000e+00  -1.6250814014219041e-18 -7.6356239917513586e-19 0.0000000000000000e+00  -7.5293366645010065e-17 -3.5377417787892677e-17 0.0000000000000000e+00  9.2870681080894754e-17 4.3636312616161867e-17 0.0000000000000000e+00  -1.1113649859110074e-16 -5.2218708198798664e-17 0.0000000000000000e+00  -4.0383044452976900e-16 -1.8974418316234047e-16 0.0000000000000000e+00  2.7412572980737054e-15 1.2880099405741016e-15 0.0000000000000000e+00  -8.7673319433295303e-15 -4.1194274989277783e-15 0.0000000000000000e+00  -1.8563757099914548e-14 -8.7223857811139735e-15 0.0000000000000000e+00  1.3439365116220540e-14 6.3146337546864814e-15 0.0000000000000000e+00  5.2647143000101484e-14 2.4736840126101014e-14 0.0000000000000000e+00  3.9131867464784405e-14 1.8386539024734575e-14 0.0000000000000000e+00  3.2459689818348232e-13 1.5251542853479471e-13 0.0000000000000000e+00  9.4676234276186820e-14 4.4484671675855408e-14 0.0000000000000000e+00  5.9783608281816058e-14 2.8089986957618005e-14 0.0000000000000000e+00  -7.7286029200069755e-12 -3.6313692241564087e-12 0.0000000000000000e+00  -6.7905320988610460e-12 -3.1906063145792931e-12 0.0000000000000000e+00  -2.9277401576922973e-12 -1.3756309665552122e-12 0.0000000000000000e+00  -7.9486531764225110e-12 -3.7347622613179486e-12 0.0000000000000000e+00  6.3485899741342486e-12 2.9829549386188793e-12 0.0000000000000000e+00  2.7345674098656046e-11 1.2848666229003352e-11 0.0000000000000000e+00  9.5225754133507993e-11 4.4742869634605890e-11 0.0000000000000000e+00  -2.3846492270594438e-10 -1.1204537098335254e-10 0.0000000000000000e+00  -2.4878109288025073e-09 -1.1689253718788854e-09 0.0000000000000000e+00  -2.8204017810645177e-09 -1.3251968478029092e-09 0.0000000000000000e+00  4.1880792424983458e-09 1.9678151700829055e-09 0.0000000000000000e+00  1.4118701188009764e-08 6.6338272919257242e-09 0.0000000000000000e+00  -2.7956127909048713e-09 -1.3135494676883693e-09 0.0000000000000000e+00  -2.0470746306758312e-08 -9.6184056683052422e-09 0.0000000000000000e+00  -3.8092186473867121e-09 -1.7898033457501371e-09 0.0000000000000000e+00  -2.5865764193359281e-08 -1.2153314256565129e-08 0.0000000000000000e+00  6.2437498907770224e-08 2.9336946704821984e-08 0.0000000000000000e+00  -2.3359420642774645e-07 -1.0975681128177197e-07 0.0000000000000000e+00  -3.3096259669363831e-09 -1.5550642210753879e-09 0.0000000000000000e+00  -2.0759403250721890e-07 -9.7540343134171394e-08 0.0000000000000000e+00  -3.8774790488628916e-08 -1.8218762473747635e-08 0.0000000000000000e+00  1.0780468705758268e-07 5.0653219844857122e-08 0.0000000000000000e+00  -1.3314654522394044e-07 -6.2560371083022326e-08 0.0000000000000000e+00  9.7334284017902254e-08 4.5733585629417995e-08 0.0000000000000000e+00  3.4183040458781802e-07 1.6061278137187760e-07 0.0000000000000000e+00  5.1006262818227371e-09 2.3965854495882900e-09 0.0000000000000000e+00  1.7153142444570504e-07 8.0595929452574451e-08 0.0000000000000000e+00  1.4555837647923806e-07 6.8392206733322560e-08 0.0000000000000000e+00  -3.1897514102315545e-10 -1.4987398400091416e-10 0.0000000000000000e+00  -2.9871712260167671e-08 -1.4035553087301129e-08 0.0000000000000000e+00  -2.1464923182330217e-08 -1.0085530625647027e-08 0.0000000000000000e+00  1.3999180322044921e-08 6.5776690963499570e-09 0.0000000000000000e+00  -6.1863419152853578e-09 -2.9067209007622018e-09 0.0000000000000000e+00  -3.4781635681740181e-09 -1.6342534697121912e-09 0.0000000000000000e+00  3.5957905326198180e-09 1.6895217947950677e-09 0.0000000000000000e+00  2.9208357113224810e-10 1.3723868363654870e-10 0.0000000000000000e+00  -1.4199886600543964e-11 -6.6719731523842864e-12 0.0000000000000000e+00  2.4087919717609664e-10 1.1317974444001981e-10 0.0000000000000000e+00  1.3669496822455890e-10 6.4227636721081929e-11 0.0000000000000000e+00  2.2915555202014245e-10 1.0767126060990169e-10 0.0000000000000000e+00  1.5935608981658550e-11 7.4875214347450435e-12 0.0000000000000000e+00  5.3705851366163612e-11 2.5234285915161082e-11 0.0000000000000000e+00  -3.1271389515742678e-11 -1.4693206865384249e-11 0.0000000000000000e+00  -9.6227598278905786e-12 -4.5213597143141770e-12 0.0000000000000000e+00  9.2130186266969884e-12 4.3288382970174616e-12 0.0000000000000000e+00  -1.5941498901605740e-13 -7.4902888785185229e-14 0.0000000000000000e+00  6.6280276429632675e-13 3.1142518057446017e-13 0.0000000000000000e+00  -2.1488484559495609e-14 -1.0096601198272185e-14 0.0000000000000000e+00  7.8210558800262964e-14 3.6748092659299606e-14 0.0000000000000000e+00  -3.7444951866808726e-14 -1.7593923147111873e-14 0.0000000000000000e+00  3.1891342135312445e-03 1.4984498433400096e-03 0.0000000000000000e+00  8.6508319008641696e-06 4.0646886705521486e-06 0.0000000000000000e+00  -4.3148025405755188e+00 -2.0273575077322863e+00 0.0000000000000000e+00  1.6351618061773150e+00 7.6829878840028987e-01 0.0000000000000000e+00  2.5040464049679803e-11 1.1765537892134323e-11 0.0000000000000000e+00  -1.1277303678825216e-05 -5.2987653699660869e-06 0.0000000000000000e+00  1.3774170144266404e-11 6.4719455854950681e-12 0.0000000000000000e+00  -4.5727137519497259e-02 -2.1485399316765505e-02 0.0000000000000000e+00  -3.0752851716744658e-05 -1.4449566168050891e-05 0.0000000000000000e+00  -4.6311513907779900e-07 -2.1759975000585417e-07 0.0000000000000000e+00  -6.6260263484517717e-04 -3.1133114754711047e-04 0.0000000000000000e+00  -3.5349558228546220e-06 -1.6609379362260162e-06 0.0000000000000000e+00  3.6125887070155366e-09 1.6974146020920653e-09 0.0000000000000000e+00  2.3591685228850322e-03 1.1084813202688775e-03 0.0000000000000000e+00  -3.7006919534024420e-16 -1.7388108829967878e-16 0.0000000000000000e+00  -7.6602342865079881e-08 -3.5992454685235157e-08 0.0000000000000000e+00  3.1072381156008851e-05 1.4599700595186767e-05 0.0000000000000000e+00  -6.7864362320029469e-04 -3.1886818264138773e-04 0.0000000000000000e+00  2.7003064534271539e-09 1.2687687350817399e-09 0.0000000000000000e+00  1.5843379288994976e-08 7.4441862975982101e-09 0.0000000000000000e+00  -3.8690151038647038e+01 -1.8178993695742747e+01 0.0000000000000000e+00  6.9836152510698545e-03 3.2813285607460707e-03 0.0000000000000000e+00  1.5456785670018510e-09 7.2625410268116504e-10 0.0000000000000000e+00  -3.4871995820302278e-15 -1.6384991403678189e-15 0.0000000000000000e+00  -2.8628297705648544e-07 -1.3451321060777926e-07 0.0000000000000000e+00  -9.6055095902232229e-05 -4.5132545001088503e-05 0.0000000000000000e+00  4.1050174353401134e-12 1.9287876649388142e-12 0.0000000000000000e+00  2.4086181757715686e-09 1.1317157844399514e-09 0.0000000000000000e+00  -5.8835607301789125e-20 -2.7644558253495649e-20 0.0000000000000000e+00  4.0927021353296235e-04 1.9230011855573227e-04 0.0000000000000000e+00  3.1924592122740984e-05 1.5000121306292053e-05 0.0000000000000000e+00  1.6919889127097611e-09 7.9499963044065095e-10 0.0000000000000000e+00  -1.0160721093632892e-11 -4.7741267414760606e-12 0.0000000000000000e+00  -6.6633685132332977e-04 -3.1308571029738504e-04 0.0000000000000000e+00  5.0668406078396477e-08 2.3807108784673122e-08 0.0000000000000000e+00  -3.3261955778395484e-13 -1.5628496352974465e-13 0.0000000000000000e+00  2.4426096291172067e+02 1.1476870432614113e+02 0.0000000000000000e+00  -1.6540727793078826e-04 -7.7718431745851286e-05 0.0000000000000000e+00  -4.2687094761031445e-23 -2.0057001736054773e-23 0.0000000000000000e+00  -8.6545699852811596e-03 -4.0664450506960968e-03 0.0000000000000000e+00  1.7170470811591850e-08 8.0677348694004597e-09 0.0000000000000000e+00  1.7127962202356674e-14 8.0477617310550101e-15 0.0000000000000000e+00  1.1388324603793271e-07 5.3509297746248724e-08 0.0000000000000000e+00  -7.0620413698982892e-07 -3.3181779366593275e-07 0.0000000000000000e+00  2.5633659725290555e-12 1.2044257415263046e-12 0.0000000000000000e+00  -1.6458374332409545e-06 -7.7331484938423749e-07 0.0000000000000000e+00  3.6556290386633901e-06 1.7176375760708255e-06 0.0000000000000000e+00  9.1921133251880995e-05 4.3190157108004569e-05 0.0000000000000000e+00  -1.5986814033941193e-01 -7.5115806926607312e-02 0.0000000000000000e+00  -3.3644952730276775e-06 -1.5808451690104077e-06 0.0000000000000000e+00  7.7627027471821421e-11 3.6473914036155705e-11 0.0000000000000000e+00  2.1971763063507840e-06 1.0323674927422305e-06 0.0000000000000000e+00  -5.7624369757344151e-07 -2.7075444949633929e-07 0.0000000000000000e+00  -3.7936703329545552e-10 -1.7824977989261141e-10 0.0000000000000000e+00  1.9011780056163230e+00 8.9328943027544472e-01 0.0000000000000000e+00  1.4890060429921612e-02 6.9962589294207947e-03 0.0000000000000000e+00  -1.4141224805808014e-07 -6.6444102618797996e-08 0.0000000000000000e+00  -1.7825876144533358e-11 -8.3756842853590108e-12 0.0000000000000000e+00  -5.1469820188462023e+00 -2.4183662033069786e+00 0.0000000000000000e+00  -2.2469505978507786e-06 -1.0557544919422357e-06 0.0000000000000000e+00  2.3949471019348041e-05 1.1252922797903004e-05 0.0000000000000000e+00  -4.3969270547383994e-09 -2.0659446154368196e-09 0.0000000000000000e+00  4.8447612497921284e-14 2.2763644455503716e-14 0.0000000000000000e+00  -3.4405024447068218e-06 -1.6165579759571856e-06 0.0000000000000000e+00  -8.7140209940033310e-11 -4.0943787620865229e-11 0.0000000000000000e+00  1.6684240972629530e-17 7.8392744230106705e-18 0.0000000000000000e+00  -5.0678939324005936e-18 -2.3812057946162252e-18 0.0000000000000000e+00  -3.0637244665440952e-08 -1.4395246921410186e-08 0.0000000000000000e+00  5.9524443923014585e-12 2.7968215728550293e-12 0.0000000000000000e+00  -1.0499447983151322e-17 -4.9332813021027036e-18 0.0000000000000000e+00  -1.8202983625187811e-08 -8.5528723895508820e-09 0.0000000000000000e+00  4.9332157158048736e-14 2.3179257508655066e-14 0.0000000000000000e+00  6.6590274235520310e-06 3.1288173941634670e-06 0.0000000000000000e+00  -1.9303893078318968e+00 -9.0701468242788297e-01 0.0000000000000000e+00  -5.5707921088989665e-16 -2.6174980430241627e-16 0.0000000000000000e+00  3.8020827154627056e-10 1.7864504495226186e-10 0.0000000000000000e+00  -9.8564795346800158e-17 -4.6311754933234473e-17 0.0000000000000000e+00  2.2744498670723552e-04 1.0686753265318135e-04 0.0000000000000000e+00  -4.9430476777744757e-10 -2.3225454065107801e-10 0.0000000000000000e+00  9.5344133046974674e-07 4.4798491271219954e-07 0.0000000000000000e+00  1.2170615659766256e-07 5.7184978453869527e-08 0.0000000000000000e+00  1.9371687317672764e-11 9.1020006944947844e-12 0.0000000000000000e+00  1.6424257504785616e-05 7.7171183265350808e-06 0.0000000000000000e+00  -1.0067015493790442e-07 -4.7300981330819006e-08 0.0000000000000000e+00  -2.6779831628612215e-02 -1.2582798910846998e-02 0.0000000000000000e+00  -2.5774097538749299e-05 -1.2110243669050487e-05 0.0000000000000000e+00  3.9180927523593223e-11 1.8409590433836211e-11 0.0000000000000000e+00  2.1722110072998280e-10 1.0206372719528022e-10 0.0000000000000000e+00  -1.0313783410935469e-15 -4.8460447574724347e-16 0.0000000000000000e+00  4.1754638502207673e+00 1.9618876890437564e+00 0.0000000000000000e+00  2.7127541832314225e-05 1.2746174380607532e-05 0.0000000000000000e+00  -3.3039404105254396e-09 -1.5523927997607505e-09 0.0000000000000000e+00  -1.4911481874500965e-07 -7.0063240311458508e-08 0.0000000000000000e+00  2.7314950075821227e-13 1.2834230208403099e-13 0.0000000000000000e+00  4.3616350640379015e-01 2.0493622848118045e-01 0.0000000000000000e+00  -2.0858020061703692e-13 -9.8003705084694966e-14 0.0000000000000000e+00  4.5878998763654311e-02 2.1556752995312827e-02 0.0000000000000000e+00  7.8989341169759600e-03 3.7114012135067305e-03 0.0000000000000000e+00  -1.3336132127515884e-08 -6.2661285976768700e-09 0.0000000000000000e+00  -3.0774598695943913e-12 -1.4459784225803293e-12 0.0000000000000000e+00  -2.6697964257611378e-06 -1.2544332624689974e-06 0.0000000000000000e+00  9.7103246561442462e-11 4.5625030135275142e-11 0.0000000000000000e+00  -1.0684580150780275e-05 -5.0202676905725760e-06 0.0000000000000000e+00  2.0855092004575946e-09 9.7989947285710749e-10 0.0000000000000000e+00  -7.9009846