<?xml version="1.0"?>
<VTKFile type="UnstructuredGrid"  version="0.1"  >
<UnstructuredGrid>
<Piece  NumberOfPoints="1855" NumberOfCells="3532">
<Points>
<DataArray  type="Float64"  NumberOfComponents="3"  format="ascii">0 0 0  30 0 0  30 -10 0  0 -10 0  0.1391574078963744 0 0  0.2856388821882616 0 0  0.4398299073010886 0 0  0.6021362569539473 0 0  0.7729850389704483 0 0  0.9528258543586996 0 0  1.142131984380316 0 0  1.34140159760994 0 0  1.551159074717981 0 0  1.771956417032531 0 0  2.004374674080994 0 0  2.249025475789527 0 0  2.506552636773105 0 0  2.777633857742732 0 0  3.062982518028728 0 0  3.363349525995907 0 0  3.679525322337712 0 0  4.01234195575742 0 0  4.362675247811097 0 0  4.731447135329707 0 0  5.119628065610077 0 0  5.528239565804708 0 0  5.958356943167011 0 0  6.411112081475485 0 0  6.887696441559404 0 0  7.389364184530748 0 0  7.917435485335147 0 0  8.473300005202017 0 0  9.058420557070402 0 0  9.674336929103793 0 0  10.32266995225095 0 0  11.00512576896296 0 0  11.72350030646412 0 0  12.47968402994705 0 0  13.27566689579597 0 0  14.1135435963616 0 0  14.9955190732806 0 0  15.92391430904694 0 0  16.90117245730496 0 0  17.92986524844506 0 0  19.01269976086341 0 0  20.15252556282024 0 0  21.35234220269763 0 0  22.61530708683689 0 0  23.94474379751883 0 0  25.34415086349739 0 0  26.81721093579712 0 0  28.3678004819169 0 0  30 -1.111111111111111 0  30 -2.222222222222222 0  30 -3.333333333333333 0  30 -4.444444444444445 0  30 -5.555555555555555 0  30 -6.666666666666666 0  30 -7.777777777777777 0  30 -8.888888888888889 0  28.36780047917311 -10 0  26.8172109305839 -10 0  25.34415085606858 -10 0  23.94474378810899 -10 0  22.61530707566275 -10 0  21.3523421899591 -10 0  20.15252554870171 -10 0  19.01269974553473 -10 0  17.92986523206254 -10 0  16.90117244001232 -10 0  15.92391429097614 -10 0  14.99551905455266 -10 0  14.11354357708742 -10 0  13.27566687607703 -10 0  12.47968400987599 -10 0  11.72350028612546 -10 0  11.00512574843363 -10 0  10.32266993160086 -10 0  9.674336908396342 -10 0  9.058420536362949 -10 0  8.473299984546333 -10 0  7.917435464777824 -10 0  7.389364164113587 -10 0  6.887696420787165 -10 0  6.411112061446698 -10 0  5.95835692337857 -10 0  5.528239546282652 -10 0  5.119628046377237 -10 0  4.731447115907979 -10 0  4.362675229213632 -10 0  4.012341937260036 -10 0  3.679525304434552 -10 0  3.363349508456405 -10 0  3.062982500861274 -10 0  2.777633840953978 -10 0  2.506552620368097 -10 0  2.249025459771861 -10 0  2.004374658452946 -10 0  1.771956401795187 -10 0  1.551159059871345 -10 0  1.341401583153029 -10 0  1.142131970307521 -10 0  0.9528258406748833 -10 0  0.7729850256685147 -10 0  0.6021362439621285 -10 0  0.4398298947504031 -10 0  0.2856388700059078 -10 0  0.1391573960769001 -10 0  0 -9.855072463768115 0  0 -9.710144927536232 0  0 -9.565217391304348 0  0 -9.420289855072463 0  0 -9.27536231884058 0  0 -9.130434782608695 0  0 -8.985507246376812 0  0 -8.840579710144928 0  0 -8.695652173913043 0  0 -8.55072463768116 0  0 -8.405797101449275 0  0 -8.260869565217391 0  0 -8.115942028985508 0  0 -7.971014492753623 0  0 -7.826086956521739 0  0 -7.681159420289855 0  0 -7.536231884057971 0  0 -7.391304347826087 0  0 -7.246376811594203 0  0 -7.101449275362318 0  0 -6.956521739130435 0  0 -6.811594202898551 0  0 -6.666666666666667 0  0 -6.521739130434783 0  0 -6.376811594202898 0  0 -6.231884057971015 0  0 -6.086956521739131 0  0 -5.942028985507246 0  0 -5.797101449275362 0  0 -5.652173913043478 0  0 -5.507246376811594 0  0 -5.36231884057971 0  0 -5.217391304347826 0  0 -5.072463768115941 0  0 -4.927536231884058 0  0 -4.782608695652174 0  0 -4.637681159420289 0  0 -4.492753623188406 0  0 -4.347826086956522 0  0 -4.202898550724638 0  0 -4.057971014492754 0  0 -3.913043478260869 0  0 -3.768115942028985 0  0 -3.623188405797101 0  0 -3.478260869565217 0  0 -3.333333333333334 0  0 -3.188405797101449 0  0 -3.043478260869565 0  0 -2.898550724637681 0  0 -2.753623188405797 0  0 -2.608695652173912 0  0 -2.463768115942029 0  0 -2.318840579710145 0  0 -2.173913043478261 0  0 -2.028985507246377 0  0 -1.884057971014492 0  0 -1.739130434782609 0  0 -1.594202898550725 0  0 -1.44927536231884 0  0 -1.304347826086957 0  0 -1.159420289855072 0  0 -1.014492753623188 0  0 -0.8695652173913047 0  0 -0.72463768115942 0  0 -0.579710144927537 0  0 -0.4347826086956523 0  0 -0.2898550724637676 0  0 -0.1449275362318829 0  5.15859856094262 -4.976557621770688 0  2.816777084926057 -7.160262673925935 0  2.81677708460006 -2.839737326002783 0  2.227649803257325 -5.003121586636773 0  1.518662968975629 -8.46230852045241 0  1.518662969184829 -1.537691480152612 0  9.960740911025725 -5.055901393541221 0  1.491099662214591 -3.691833922963321 0  1.503675657181264 -6.345020369042368 0  5.319208041801049 -7.493850249937013 0  5.291109955459268 -2.489368743223226 0  1.096914507335763 -2.53623188405797 0  1.096914507253562 -7.463768115942029 0  1.089580194952752 -4.71277167923441 0  15.07565076110197 -5.047572991082069 0  7.501630508673601 -5.937500100385354 0  0.8894869418764504 -5.623930488933245 0  2.955144522453978 -1.440834296472408 0  2.955144521140721 -8.559165705576945 0  8.106603955004623 -2.748811534843258 0  3.662152539483591 -4.228178367024407 0  3.662181528265114 -5.771746159989156 0  0.8436558190317136 -0.8541050638451999 0  0.8436558075840921 -9.145894948342754 0  0.7854168197005933 -1.811594202898552 0  0.7894693398152999 -3.286543351392342 0  0.7854168196772591 -8.188405797101449 0  0.7854168196772591 -6.739130434782609 0  20.00078956016804 -4.999999999785771 0  0.7379120031523989 -3.977302749614766 0  6.584332478112232 -3.934875417052907 0  7.295091310194352 -7.969791332537982 0  9.811174303464586 -7.412814499648229 0  4.013376806449688 -2.206189431585293 0  4.013376806983409 -7.793810569017377 0  12.11177433894592 -2.818343737884045 0  2.591152707837148 -3.990098461753838 0  2.58990939378082 -6.025895074707176 0  25.43156400064585 -5.044446479916348 0  2.03262751726143 -2.282125834846944 0  2.032627517335952 -7.717874165160392 0  12.51865094522923 -6.491408052923457 0  0.598175343983641 -6.156971652625402 0  2.126700074935224 -0.8767654465386991 0  2.126700059112423 -9.123234559633019 0  6.617961838548696 -1.617756429129908 0  0.5903949564549755 -4.980060355019413 0  1.676697585305984 -5.547101897225158 0  4.773518305133987 -3.729331162566817 0  4.77931803486508 -6.231222307502165 0  4.878549698409591 -8.72048903376362 0  4.852580875634024 -1.222215410052823 0  0.5487847095754042 -2.675169258708207 0  0.545113423825768 -7.32369553390529 0  1.78738026998851 -4.400451872599477 0  1.68244194111824 -3.010100184333533 0  1.683984276238402 -7.018293626028473 0  9.998503440677371 -2.00585287985007 0  3.693061162502273 -3.243678395563028 0  3.694987482168253 -6.757603268814477 0  6.081763036485869 -5.83414381546261 0  0.5196640460586313 -1.350633211792632 0  0.5196640458460706 -8.649366789040087 0  3.84593363904758 -0.9906418103762418 0  3.845933620847308 -9.009358200471317 0  17.41551885287501 -3.057748733689079 0  17.30725517812527 -7.002961443761516 0  8.117698464370697 -4.451550942597151 0  0.4918476668493152 -0.4789811193757592 0  0.4918476560347713 -9.521018882514893 0  1.463770869328428 -0.6252343353791154 0  1.463770854281917 -9.374765668872765 0  0.5034132782032188 -4.464280853772128 0  3.138906271796685 -4.99999841599503 0  14.61209972381335 -2.388610981020637 0  6.208601124947327 -8.776231214192325 0  14.74910972998159 -7.542186851303819 0  2.243794246335625 -1.632184311040998 0  2.243794245689214 -8.367815689183566 0  0.4590235278399923 -5.431413993025926 0  0.4971508861448406 -2.209632053221267 0  0.4971508861368665 -7.790367946777407 0  0.4644363683211541 -3.560571347760519 0  6.478811279411406 -7.007392971062433 0  1.238895267772762 -4.173677632458826 0  1.293241773632479 -2.02256720952064 0  1.293241773542714 -7.977432790434841 0  0.4324740478030531 -0.942028985507247 0  0.4324740423701829 -9.057971014492754 0  2.117396640811705 -3.472968170680347 0  2.107095929630507 -6.531506384346077 0  8.087741545730886 -1.392783601483453 0  1.028911946384717 -1.352376108341404 0  1.028911946221715 -8.647623891551962 0  4.05691976296832 -4.991522392209158 0  11.51826881314265 -8.065248940008736 0  1.618560396201739 -4.958056164503666 0  2.701984523487646 -2.141781914603403 0  2.70198452396172 -7.858218085853512 0  2.843615645746219 -9.289121726447632 0  2.843615661334342 -0.7108782798429658 0  8.678774612240533 -8.488146490452822 0  6.487906449371135 -2.667543558824978 0  8.369190916679937 -7.129867754908394 0  11.80978191929258 -4.655775487536958 0  0.3792065166453504 -3.113833531412848 0  0.4134714637263563 -6.58827691137208 0  9.551050695080825 -3.49648183875815 0  1.083867845277057 -6.036251777836495 0  0.3756430921870901 -1.80381664325008 0  0.3756430921689482 -8.196183356748573 0  3.113073783220456 -3.503408140759125 0  3.113391383189963 -6.496678880796299 0  22.62850736315072 -3.277987336300344 0  22.59385352108348 -6.800312122582239 0  0.3777114402537816 -4.137047872695438 0  0.9196816123347897 -0.4281025456111269 0  0.9196815944880363 -9.571897460530383 0  0.4052043328723194 -5.827814332459883 0  8.865857694874787 -5.767686953139113 0  1.200388325130726 -5.182186034620629 0  5.65297436943758 -4.325500846767599 0  1.200079167961391 -3.009849046583253 0  1.20883344838 -7.021823297793294 0  1.057642414577487 -3.660996704809145 0  10.88812987788297 -6.333458225047037 0  4.493502926606794 -2.839780197438185 0  4.485862892033458 -7.147606077919463 0  0.3631651408878085 -7.003529808558233 0  1.946748828463205 -6.049056369468467 0  6.918750162798794 -4.993796052442676 0  3.351203216022585 -1.980935554775394 0  3.351203216441711 -8.019064445907297 0  2.281892243515294 -2.856654416292082 0  2.281892243715877 -7.143345583598931 0  5.811143619672087 -0.9953286820321026 0  2.695713766833098 -4.565354125099452 0  2.698172168139827 -5.435483248292925 0  19.86166219288896 -2.493475492328429 0  19.83739102036415 -7.594404063416508
[...]
<PointData  Vectors="flow"> 
<DataArray  type="Float64"  Name="flow"  NumberOfComponents="3" format="ascii">-1.2475986895006059e-12 -5.5637384037762784e-13 0.0000000000000000e+00  -9.3708722243862937e-23 -4.1789945845942289e-23 0.0000000000000000e+00  -3.5611406709810798e-23 -1.5881112475613525e-23 0.0000000000000000e+00  2.2853138826374266e-18 1.0191489234893700e-18 0.0000000000000000e+00  5.7336314656093902e-12 2.5569460634076402e-12 0.0000000000000000e+00  -2.8551972515204138e-11 -1.2732917028791813e-11 0.0000000000000000e+00  4.9670761989353948e-11 2.2150963154315309e-11 0.0000000000000000e+00  -2.9560476859364825e-10 -1.3182665365112054e-10 0.0000000000000000e+00  3.0325701360243166e-10 1.3523921650396499e-10 0.0000000000000000e+00  2.5904292051728843e-09 1.1552168635936241e-09 0.0000000000000000e+00  4.1245505967175856e-09 1.8393671575963018e-09 0.0000000000000000e+00  -2.0535021073399963e-08 -9.1577112359875668e-09 0.0000000000000000e+00  -7.2230796997884639e-08 -3.2211741048987718e-08 0.0000000000000000e+00  -9.6005382649556931e-08 -4.2814154816913844e-08 0.0000000000000000e+00  -3.0888360935089320e-07 -1.3774842937118719e-07 0.0000000000000000e+00  -7.2362067899039924e-08 -3.2270282065437856e-08 0.0000000000000000e+00  3.2962586652468178e-06 1.4699855874291685e-06 0.0000000000000000e+00  -6.4235093453348286e-06 -2.8646010878675187e-06 0.0000000000000000e+00  -1.2281868557260788e-05 -5.4771702100390160e-06 0.0000000000000000e+00  -1.1890516879189025e-05 -5.3026446691744515e-06 0.0000000000000000e+00  -2.8448346745053840e-06 -1.2686704518161735e-06 0.0000000000000000e+00  9.9385471086515369e-06 4.4321524775148935e-06 0.0000000000000000e+00  -1.1131984613510679e-05 -4.9643728248246179e-06 0.0000000000000000e+00  -3.6089856789816278e-06 -1.6094480051807500e-06 0.0000000000000000e+00  5.8660303319130620e-06 2.6159901024299221e-06 0.0000000000000000e+00  5.1139845594362839e-06 2.2806109471823694e-06 0.0000000000000000e+00  8.6641458890204233e-06 3.8638258940428246e-06 0.0000000000000000e+00  3.6883731059716072e-06 1.6448512867037518e-06 0.0000000000000000e+00  -2.5933648345444327e-06 -1.1565260244649195e-06 0.0000000000000000e+00  -1.3826366863856256e-07 -6.1659481492345386e-08 0.0000000000000000e+00  -3.1345363991389272e-08 -1.3978646089236208e-08 0.0000000000000000e+00  -8.8687323838990061e-09 -3.9550624229065748e-09 0.0000000000000000e+00  5.9130333283282952e-09 2.6369513601202989e-09 0.0000000000000000e+00  4.0693433928731882e-10 1.8147471862241845e-10 0.0000000000000000e+00  9.1668284780160018e-11 4.0880000975620369e-11 0.0000000000000000e+00  -2.7895077054252495e-11 -1.2439970704455205e-11 0.0000000000000000e+00  8.3873503618604791e-12 3.7403873302311108e-12 0.0000000000000000e+00  -1.6004898154514142e-12 -7.1374767591686724e-13 0.0000000000000000e+00  2.9965337868756301e-13 1.3363215470294144e-13 0.0000000000000000e+00  3.1000636744160670e-14 1.3824912982559092e-14 0.0000000000000000e+00  -1.1050660520870639e-14 -4.9281058760708924e-15 0.0000000000000000e+00  6.4703679578121817e-15 2.8854979567070067e-15 0.0000000000000000e+00  -1.5180485238762633e-15 -6.7698250584626114e-16 0.0000000000000000e+00  3.3699353595074772e-16 1.5028421347124533e-16 0.0000000000000000e+00  -3.2451256873634023e-17 -1.4471825406527088e-17 0.0000000000000000e+00  7.4830947203538312e-18 3.3371293048884023e-18 0.0000000000000000e+00  -9.4555043156533819e-19 -4.2167367544391643e-19 0.0000000000000000e+00  1.5902321509701179e-19 7.0917321120414348e-20 0.0000000000000000e+00  2.8268496059739999e-21 1.2606499066421046e-21 0.0000000000000000e+00  1.9065969694575623e-21 8.5025792899323570e-22 0.0000000000000000e+00  -1.9281616943315607e-21 -8.5987484258556662e-22 0.0000000000000000e+00  4.4854682410269117e-22 2.0003204653501158e-22 0.0000000000000000e+00  4.2434719918824733e-23 1.8924008405328047e-23 0.0000000000000000e+00  -3.7320323054707900e-24 -1.6643213588492342e-24 0.0000000000000000e+00  1.1613703033010919e-23 5.1791979358908299e-24 0.0000000000000000e+00  -1.5109681463890712e-23 -6.7382497061716538e-24 0.0000000000000000e+00  -3.7674646795869099e-24 -1.6801226307057874e-24 0.0000000000000000e+00  1.1814425203730388e-23 5.2687111470796168e-24 0.0000000000000000e+00  -1.3331309875888728e-24 -5.9451746265310577e-25 0.0000000000000000e+00  1.7563306872142881e-23 7.8324581264961539e-24 0.0000000000000000e+00  1.7524973573116226e-22 7.8153631704231052e-23 0.0000000000000000e+00  -7.2430394443236765e-22 -3.2300752682403853e-22 0.0000000000000000e+00  1.3114563448348305e-21 5.8485153054740329e-22 0.0000000000000000e+00  1.4005487020741193e-20 6.2458278176037487e-21 0.0000000000000000e+00  -1.8186587479567575e-19 -8.1104137127789575e-20 0.0000000000000000e+00  9.7410253939018004e-19 4.3440665281482281e-19 0.0000000000000000e+00  -5.1572029817810000e-18 -2.2998844522103609e-18 0.0000000000000000e+00  1.1838160822423895e-17 5.2792961833074974e-18 0.0000000000000000e+00  -1.1630012597491638e-16 -5.1864712803575754e-17 0.0000000000000000e+00  2.9066384595338226e-16 1.2962322066621282e-16 0.0000000000000000e+00  -2.3271397811471373e-15 -1.0378014244714081e-15 0.0000000000000000e+00  6.1823303795595864e-15 2.7570459352884644e-15 0.0000000000000000e+00  -1.5307315834320180e-14 -6.8263858949892739e-15 0.0000000000000000e+00  -1.0116792322555908e-13 -4.5116419600091440e-14 0.0000000000000000e+00  2.3302377035932659e-13 1.0391829608765426e-13 0.0000000000000000e+00  -1.9254626396494669e-12 -8.5867118356323178e-13 0.0000000000000000e+00  1.2073750337854404e-11 5.3843586882266462e-12 0.0000000000000000e+00  -4.5630146897226967e-11 -2.0349027519712903e-11 0.0000000000000000e+00  -8.7723585877636514e-11 -3.9120839719681153e-11 0.0000000000000000e+00  1.1548046591858328e-10 5.1499180667974667e-11 0.0000000000000000e+00  -4.0256856172616333e-10 -1.7952777490696114e-10 0.0000000000000000e+00  3.7752053219459628e-10 1.6835746148674696e-10 0.0000000000000000e+00  6.8114207979443843e-10 3.0375924403201623e-10 0.0000000000000000e+00  -3.3614593091017266e-10 -1.4990621910854057e-10 0.0000000000000000e+00  -4.8302450717992331e-10 -2.1540756840950098e-10 0.0000000000000000e+00  4.9004911274835809e-11 2.1854023182934485e-11 0.0000000000000000e+00  3.1080857811454756e-09 1.3860688030789811e-09 0.0000000000000000e+00  1.0924989376096978e-09 4.8720621033170107e-10 0.0000000000000000e+00  2.5354657365737643e-10 1.1307055873616778e-10 0.0000000000000000e+00  8.7512147093979436e-11 3.9026547373065407e-11 0.0000000000000000e+00  -6.9763010702386438e-11 -3.1111217499217873e-11 0.0000000000000000e+00  -9.8398567002715722e-11 -4.3881409199676663e-11 0.0000000000000000e+00  8.6169360965533656e-11 3.8427724144589104e-11 0.0000000000000000e+00  4.9946752984812814e-11 2.2274042932568830e-11 0.0000000000000000e+00  2.4510552748639015e-11 1.0930622544976723e-11 0.0000000000000000e+00  -1.9626156376543997e-11 -8.7523977757948536e-12 0.0000000000000000e+00  -1.8640822898191650e-13 -8.3129826208917607e-14 0.0000000000000000e+00  1.6350868803189208e-12 7.2917643679015230e-13 0.0000000000000000e+00  6.4672348075727236e-13 2.8841007102639910e-13 0.0000000000000000e+00  1.2012487804428386e-13 5.3570383076584686e-14 0.0000000000000000e+00  4.8526818724601635e-14 2.1640815049207005e-14 0.0000000000000000e+00  -4.5076027960592481e-15 -2.0101914979922920e-15 0.0000000000000000e+00  -7.6123690371846498e-15 -3.3947799330291883e-15 0.0000000000000000e+00  -3.5475645974915581e-16 -1.5820569191878264e-16 0.0000000000000000e+00  5.8584971749270757e-16 2.6126306475685697e-16 0.0000000000000000e+00  -9.1553887103487922e-17 -4.0828984671070160e-17 0.0000000000000000e+00  6.3978851653267091e-17 2.8531738368150572e-17 0.0000000000000000e+00  -1.5684520118924220e-17 -6.9946023240366796e-18 0.0000000000000000e+00  8.8736767912304356e-18 3.9572674099096320e-18 0.0000000000000000e+00  -2.4381409069081763e-17 -1.0873030175282499e-17 0.0000000000000000e+00  1.9275961185167954e-18 8.5962262078480251e-19 0.0000000000000000e+00  -1.7621499855580635e-16 -7.8584096235205815e-17 0.0000000000000000e+00  -1.5766786435710634e-16 -7.0312894630898539e-17 0.0000000000000000e+00  -7.3050767234110335e-15 -3.2577411511103140e-15 0.0000000000000000e+00  9.0104544514524660e-15 4.0182641973670308e-15 0.0000000000000000e+00  -1.0782631792877301e-14 -4.8085769169751881e-15 0.0000000000000000e+00  -3.9180242722413255e-14 -1.7472655505210920e-14 0.0000000000000000e+00  2.6596094414866995e-13 1.1860681894887799e-13 0.0000000000000000e+00  -8.5061985350709684e-13 -3.7933883594141938e-13 0.0000000000000000e+00  -1.8010838926755500e-12 -8.0320376307168238e-13 0.0000000000000000e+00  1.3039076038504022e-12 5.8148512591194784e-13 0.0000000000000000e+00  5.1079057295629853e-12 2.2779000578955608e-12 0.0000000000000000e+00  3.7966331816236721e-12 1.6931304926351237e-12 0.0000000000000000e+00  3.1492883783391373e-11 1.4044433392396024e-11 0.0000000000000000e+00  9.1856319631978878e-12 4.0963856203677231e-12 0.0000000000000000e+00  5.8002964239873373e-12 2.5866756865817455e-12 0.0000000000000000e+00  -7.4984078692636308e-10 -3.3439582920770747e-10 0.0000000000000000e+00  -6.5882773191485137e-10 -2.9380803173132155e-10 0.0000000000000000e+00  -2.8405379426038888e-10 -1.2667542994113815e-10 0.0000000000000000e+00  -7.7119039682892860e-10 -3.4391681103625371e-10 0.0000000000000000e+00  6.1594983612812858e-10 2.7468638648839212e-10 0.0000000000000000e+00  2.6531188103980905e-09 1.1831736550718731e-09 0.0000000000000000e+00  9.2389472138984745e-09 4.1201618643094861e-09 0.0000000000000000e+00  -2.3136228778589968e-08 -1.0317734833908901e-08 0.0000000000000000e+00  -2.4137119268324322e-07 -1.0764087727878252e-07 0.0000000000000000e+00  -2.7363966202575012e-07 -1.2203118753021833e-07 0.0000000000000000e+00  4.0633380539908651e-07 1.8120690706691885e-07 0.0000000000000000e+00  1.3698178207330978e-06 6.1087816775766075e-07 0.0000000000000000e+00  -2.7123459657203065e-07 -1.2095863470204837e-07 0.0000000000000000e+00  -1.9861028802364367e-06 -8.8571404904612272e-07 0.0000000000000000e+00  -3.6957617537018468e-07 -1.6481462968279746e-07 0.0000000000000000e+00  -2.5095357049580144e-06 -1.1191419400185203e-06 0.0000000000000000e+00  6.0577809209887764e-06 2.7015023849744293e-06 0.0000000000000000e+00  -2.2663664491778889e-05 -1.0106992061179955e-05 0.0000000000000000e+00  -3.2110493515653607e-07 -1.4319860019150927e-07 0.0000000000000000e+00  -2.0141088151063860e-05 -8.9820345743368337e-06 0.0000000000000000e+00  -3.7619890313723242e-06 -1.6776807337630032e-06 0.0000000000000000e+00  1.0459374380374452e-05 4.6644184070806495e-06 0.0000000000000000e+00  -1.2918079927329995e-05 -5.7608923445973771e-06 0.0000000000000000e+00  9.4435199839238398e-06 4.2113922724956896e-06 0.0000000000000000e+00  3.3164904734328806e-05 1.4790080791270167e-05 0.0000000000000000e+00  4.9487050435447308e-07 2.2069035925929164e-07 0.0000000000000000e+00  1.6642239175725619e-05 7.4217026681775783e-06 0.0000000000000000e+00  1.4122294636249366e-05 6.2979188482953723e-06 0.0000000000000000e+00  -3.0947452370158776e-08 -1.3801195103833372e-08 0.0000000000000000e+00  -2.8981988672257748e-06 -1.2924685217343021e-06 0.0000000000000000e+00  -2.0825594298145068e-06 -9.2872940436026338e-07 0.0000000000000000e+00  1.3582217248905785e-06 6.0570682185004928e-07 0.0000000000000000e+00  -6.0020828317428081e-07 -2.6766635004226341e-07 0.0000000000000000e+00  -3.3745670906014964e-07 -1.5049076819417468e-07 0.0000000000000000e+00  3.4886905570244774e-07 1.5558017008480804e-07 0.0000000000000000e+00  2.8338391439299137e-08 1.2637669314576316e-08 0.0000000000000000e+00  -1.3776945526924673e-09 -6.1439084186246829e-10 0.0000000000000000e+00  2.3370465352430358e-08 1.0422193986712822e-08 0.0000000000000000e+00  1.3262353313176120e-08 5.9144230491700401e-09 0.0000000000000000e+00  2.2233019503500839e-08 9.9149434417127528e-09 0.0000000000000000e+00  1.5460969728467996e-09 6.8949087364249542e-10 0.0000000000000000e+00  5.2106232223039427e-09 2.3237075169696947e-09 0.0000000000000000e+00  -3.0339976792007521e-09 -1.3530287861631443e-09 0.0000000000000000e+00  -9.3361476536335653e-10 -4.1635089617350622e-10 0.0000000000000000e+00  8.9386105205719051e-10 3.9862249814971855e-10 0.0000000000000000e+00  -1.5466684218206670e-11 -6.8974571461246248e-12 0.0000000000000000e+00  6.4306130293012600e-11 2.8677690167556257e-11 0.0000000000000000e+00  -2.0848453903920546e-12 -9.2974884168108890e-13 0.0000000000000000e+00  7.5881071344634212e-12 3.3839601973998767e-12 0.0000000000000000e+00  -3.6329660696557438e-12 -1.6201421988869468e-12 0.0000000000000000e+00  3.0941464234080429e-01 1.3798524659971625e-01 0.0000000000000000e+00  8.3931684254595184e-04 3.7429819292920160e-04 0.0000000000000000e+00  -4.1862869213807386e+02 -1.8668988281027765e+02 0.0000000000000000e+00  1.5864588052801963e+02 7.0749046590291400e+01 0.0000000000000000e+00  2.4294638322544674e-09 1.0834334259769292e-09 0.0000000000000000e+00  -1.0941411212946933e-03 -4.8793855162952005e-04 0.0000000000000000e+00  1.3363908958884608e-09 5.9597123758506523e-10 0.0000000000000000e+00  -4.4365162936173883e+00 -1.9784900617087695e+00 0.0000000000000000e+00  -2.9836883548278788e-03 -1.3305930524262477e-03 0.0000000000000000e+00  -4.4932133778622860e-05 -2.0037744538494589e-05 0.0000000000000000e+00  -6.4286713429875769e-02 -2.8669031105309363e-02 0.0000000000000000e+00  -3.4296677981701917e-04 -1.5294801606846869e-04 0.0000000000000000e+00  3.5049884008109673e-07 1.5630698184035699e-07 0.0000000000000000e+00  2.2889011118848138e-01 1.0207486690882427e-01 0.0000000000000000e+00  -3.5904675078181342e-14 -1.6011897198092662e-14 0.0000000000000000e+00  -7.4320755832417072e-06 -3.3143770260613119e-06 0.0000000000000000e+00  3.0146895860547794e-03 1.3444182305218158e-03 0.0000000000000000e+00  -6.5843034469496103e-02 -2.9363081460572760e-02 0.0000000000000000e+00  2.6198783103975607e-07 1.1683498621350841e-07 0.0000000000000000e+00  1.5371487080645735e-06 6.8550034328726118e-07 0.0000000000000000e+00  -3.7537771834566902e+03 -1.6740186127621787e+03 0.0000000000000000e+00  6.7756095243258341e-01 3.0216221960423667e-01 0.0000000000000000e+00  1.4996408083219728e-07 6.6877347879155572e-08 0.0000000000000000e+00  -3.3833339684068930e-13 -1.5088173217271649e-13 0.0000000000000000e+00  -2.7775608997060911e-05 -1.2386693234431041e-05 0.0000000000000000e+00  -9.3194112111988549e-03 -4.1560452485795247e-03 0.0000000000000000e+00  3.9827502278498378e-10 1.7761304642125603e-10 0.0000000000000000e+00  2.3368779157359735e-07 1.0421442018283475e-07 0.0000000000000000e+00  -5.7083199298876822e-18 -2.5456582378802209e-18 0.0000000000000000e+00  3.9708017368396568e-02 1.7708019656448724e-02 0.0000000000000000e+00  3.0973723876601546e-03 1.3812911033851099e-03 0.0000000000000000e+00  1.6415933266446314e-07 7.3207802410337342e-08 0.0000000000000000e+00  -9.8580858396359350e-10 -4.3962703099392096e-10 0.0000000000000000e+00  -6.4649012780937654e-02 -2.8830600593169046e-02 0.0000000000000000e+00  4.9159256697968789e-06 2.1922854415715009e-06 0.0000000000000000e+00  -3.2271254395819554e-11 -1.4391552262044083e-11 0.0000000000000000e+00  2.3698569397449457e+04 1.0568513880366900e+04 0.0000000000000000e+00  -1.6048065184704561e-02 -7.1567273455686560e-03 0.0000000000000000e+00  -4.1415667305602878e-21 -1.8469556007504471e-21 0.0000000000000000e+00  -8.3967951717031020e-01 -3.7445992977235465e-01 0.0000000000000000e+00  1.6659051420445552e-06 7.4292001857999586e-07 0.0000000000000000e+00  1.6617808922506446e-12 7.4108078556714685e-13 0.0000000000000000e+00  1.1049125399592279e-05 4.9274212798715599e-06 0.0000000000000000e+00  -6.8516997352818923e-05 -3.0555550650338459e-05 0.0000000000000000e+00  2.4870165771431745e-10 1.1090994049231117e-10 0.0000000000000000e+00  -1.5968164607079458e-04 -7.1210952215565096e-05 0.0000000000000000e+00  3.5467467839061194e-04 1.5816922104965828e-04 0.0000000000000000e+00  8.9183278797158819e-03 3.9771798206769664e-03 0.0000000000000000e+00  -1.5510649647459271e+01 -6.9170637831971202e+00 0.0000000000000000e+00  -3.2642843852234558e-04 -1.4557264726034694e-04 0.0000000000000000e+00  7.5314920392071064e-09 3.3587123687221920e-09 0.0000000000000000e+00  2.1317338044435748e-04 9.5065900070465776e-05 0.0000000000000000e+00  -5.5908038247284809e-05 -2.4932512521372111e-05 0.0000000000000000e+00  -3.6806765430242519e-08 -1.6414189600102698e-08 0.0000000000000000e+00  1.8445517599669242e+02 8.2258850951415198e+01 0.0000000000000000e+00  1.4446562652675998e+00 6.4425280428458520e-01 0.0000000000000000e+00  -1.3720030963215952e-05 -6.1185270402615949e-06 0.0000000000000000e+00  -1.7294935623185975e-09 -7.7127764181986681e-10 0.0000000000000000e+00  -4.9936800832614068e+02 -2.2269604712822817e+02 0.0000000000000000e+00  -2.1800255776053800e-04 -9.7219499582776940e-05 0.0000000000000000e+00  2.3236140323795859e-03 1.0362290964475653e-03 0.0000000000000000e+00  -4.2659653716300387e-07 -1.9024318931289078e-07 0.0000000000000000e+00  4.7004609055671324e-12 2.0961976856693582e-12 0.0000000000000000e+00  -3.3380276969368608e-04 -1.4886127283245668e-04 0.0000000000000000e+00  -8.4544754428015014e-09 -3.7703221477194003e-09 0.0000000000000000e+00  1.6187303849961901e-15 7.2188216324337204e-16 0.0000000000000000e+00  -4.9169476212748197e-16 -2.1927411867347919e-16 0.0000000000000000e+00  -2.9724719832247560e-06 -1.3255910467360706e-06 0.0000000000000000e+00  5.7751519044980455e-10 2.5754623429076561e-10 0.0000000000000000e+00  -1.0186723809549144e-15 -4.5428283104831878e-16 0.0000000000000000e+00  -1.7660811025217236e-06 -7.8759406666392640e-07 0.0000000000000000e+00  4.7862807711866341e-12 2.1344695503460705e-12 0.0000000000000000e+00  6.4606894869894326e-04 2.8811817867511021e-04 0.0000000000000000e+00  -1.8728930087892280e+02 -8.3522745309517958e+01 0.0000000000000000e+00  -5.4048670658528229e-14 -2.4103316807448913e-14 0.0000000000000000e+00  3.6888383642293575e-08 1.6450587713106302e-08 0.0000000000000000e+00  -9.5629060609072418e-15 -4.2646331829726885e-15 0.0000000000000000e+00  2.2067057860291232e-02 9.8409318885066179e-03 0.0000000000000000e+00  -4.7958198899337386e-08 -2.1387235754390817e-08 0.0000000000000000e+00  9.2504325157761834e-05 4.1252838010086675e-05 0.0000000000000000e+00  1.1808116056878777e-05 5.2658975466062402e-06 0.0000000000000000e+00  1.8794705087995487e-09 8.3816072720938406e-10 0.0000000000000000e+00  1.5935063943042587e-03 7.1063337892752641e-04 0.0000000000000000e+00  -9.7671712442653175e-06 -4.3557264211082683e-06 0.0000000000000000e+00  -2.5982199150342651e+00 -1.1586911756471110e+00 0.0000000000000000e+00  -2.5006420669824196e-03 -1.1151757708031678e-03 0.0000000000000000e+00  3.8013930629999895e-09 1.6952531892228763e-09 0.0000000000000000e+00  2.1075120923437741e-08 9.3985718831506348e-09 0.0000000000000000e+00  -1.0006589223291268e-13 -4.4624962514769113e-14 0.0000000000000000e+00  4.0510984089079057e+02 1.8066107302613497e+02 0.0000000000000000e+00  2.6319552868038889e-03 1.1737356595071756e-03 0.0000000000000000e+00  -3.2055331384316634e-07 -1.4295260148124016e-07 0.0000000000000000e+00  -1.4467346063373515e-05 -6.4517965248691315e-06 0.0000000000000000e+00  2.6501379190651502e-11 1.1818443093675119e-11 0.0000000000000000e+00  4.2317245465378946e+01 1.8871619994407073e+01 0.0000000000000000e+00  -2.0236767678031548e-11 -9.0247034119306288e-12 0.0000000000000000e+00  4.4512501020431694e+00 1.9850606886629509e+00 0.0000000000000000e+00  7.6636657821041243e-01 3.4176560126611361e-01 0.0000000000000000e+00  -1.2938917825838366e-06 -5.7701851257745875e-07 0.0000000000000000e+00  -2.9857982797605927e-10 -1.3315339856346622e-10 0.0000000000000000e+00  -2.5902770184292433e-04 -1.1551489950364304e-04 0.0000000000000000e+00  9.4211043791949524e-09 4.2013959041182944e-09 0.0000000000000000e+00  -1.0366341848795165e-03 -4.6229300123665218e-04 0.0000000000000000e+00  2.0233926832559779e-07 9.0234365204868193e-08 0.0000000000000000e+00  -7.6656552