<?xml version="1.0"?>
<VTKFile type="UnstructuredGrid"  version="0.1"  >
<UnstructuredGrid>
<Piece  NumberOfPoints="1121" NumberOfCells="2112">
<Points>
<DataArray  type="Float64"  NumberOfComponents="3"  format="ascii">0 0 0  0.5 0 0  0.5 -0.22 0  0 -0.22 0  0.0125 0 0  0.025 0 0  0.03750000000000001 0 0  0.05 0 0  0.0625 0 0  0.07500000000000001 0 0  0.08750000000000001 0 0  0.1 0 0  0.1125 0 0  0.125 0 0  0.1375 0 0  0.15 0 0  0.1625 0 0  0.175 0 0  0.1875 0 0  0.2 0 0  0.2125 0 0  0.225 0 0  0.2375 0 0  0.25 0 0  0.2625 0 0  0.275 0 0  0.2875 0 0  0.3 0 0  0.3124999999999999 0 0  0.325 0 0  0.3375 0 0  0.35 0 0  0.3625 0 0  0.375 0 0  0.3875 0 0  0.4 0 0  0.4125 0 0  0.425 0 0  0.4375 0 0  0.45 0 0  0.4625 0 0  0.475 0 0  0.4875 0 0  0.5 -0.00916666666666667 0  0.5 -0.01833333333333334 0  0.5 -0.02750000000000001 0  0.5 -0.03666666666666668 0  0.5 -0.04583333333333335 0  0.5 -0.05500000000000002 0  0.5 -0.06416666666666669 0  0.5 -0.07333333333333336 0  0.5 -0.08250000000000002 0  0.5 -0.09166666666666669 0  0.5 -0.1008333333333334 0  0.5 -0.11 0  0.5 -0.1191666666666667 0  0.5 -0.1283333333333334 0  0.5 -0.1375 0  0.5 -0.1466666666666667 0  0.5 -0.1558333333333333 0  0.5 -0.165 0  0.5 -0.1741666666666667 0  0.5 -0.1833333333333333 0  0.5 -0.1925 0  0.5 -0.2016666666666667 0  0.5 -0.2108333333333333 0  0.4875 -0.22 0  0.475 -0.22 0  0.4625 -0.22 0  0.45 -0.22 0  0.4375 -0.22 0  0.425 -0.22 0  0.4125 -0.22 0  0.4 -0.22 0  0.3875 -0.22 0  0.375 -0.22 0  0.3625 -0.22 0  0.35 -0.22 0  0.3375 -0.22 0  0.325 -0.22 0  0.3125 -0.22 0  0.3 -0.22 0  0.2875 -0.22 0  0.275 -0.22 0  0.2625 -0.22 0  0.25 -0.22 0  0.2375 -0.22 0  0.225 -0.22 0  0.2125 -0.22 0  0.2 -0.22 0  0.1875000000000001 -0.22 0  0.175 -0.22 0  0.1625 -0.22 0  0.15 -0.22 0  0.1375 -0.22 0  0.125 -0.22 0  0.1125 -0.22 0  0.09999999999999998 -0.22 0  0.08749999999999997 -0.22 0  0.07499999999999996 -0.22 0  0.0625 -0.22 0  0.04999999999999999 -0.22 0  0.03750000000000003 -0.22 0  0.02500000000000002 -0.22 0  0.01250000000000001 -0.22 0  0 -0.2108333333333333 0  0 -0.2016666666666667 0  0 -0.1925 0  0 -0.1833333333333333 0  0 -0.1741666666666666 0  0 -0.165 0  0 -0.1558333333333333 0  0 -0.1466666666666666 0  0 -0.1375 0  0 -0.1283333333333333 0  0 -0.1191666666666666 0  0 -0.11 0  0 -0.1008333333333333 0  0 -0.09166666666666665 0  0 -0.08249999999999999 0  0 -0.07333333333333333 0  0 -0.06416666666666668 0  0 -0.05499999999999999 0  0 -0.04583333333333331 0  0 -0.03666666666666665 0  0 -0.0275 0  0 -0.01833333333333334 0  0 -0.009166666666666684 0  0.1054583333333335 -0.1054166666666667 0  0.3942676334017064 -0.1137728325038039 0  0.2847879184121186 -0.1095588156798053 0  0.1945032948335413 -0.1282408799476467 0  0.06153506715537374 -0.1512727221728088 0  0.4399056412223469 -0.06797859302281792 0  0.05788181883779472 -0.06001948808334377 0  0.4421098014386607 -0.1599837267347342 0  0.3413511741034609 -0.06957267157055583 0  0.2288650014326337 -0.07000139022125416 0  0.3374198095657364 -0.153292781564552 0  0.1625149941501948 -0.06635759941053934 0  0.1410798075665959 -0.1547982873744018 0  0.2480541718311375 -0.1584999930406966 0  0.4521112869309225 -0.1144576824167908 0  0.04769384748510372 -0.1054790589784799 0  0.2872553124970689 -0.0549183148201307 0  0.3883603170589741 -0.1667590078701163 0  0.1113816725357426 -0.05349980002187416 0  0.388663619148569 -0.05083099728992514 0  0.2924675002385118 -0.1733355444551434 0  0.03957129721715399 -0.1820306497250263 0  0.463886478278041 -0.04123097885421483 0  0.1819898664669143 -0.1745112248447572 0  0.1501955722423063 -0.1126410264576243 0  0.2381168692527681 -0.1138631020717532 0  0.09896708868237117 -0.1743617443889283 0  0.351521105495953 -0.110482033201648 0  0.1944214316144394 -0.04364751139729321 0  0.4676096572335854 -0.17875 0  0.0323903427664145 -0.04125 0  0.03139627442974444 -0.07791666666666666 0  0.4686037255702555 -0.1420833333333333 0  0.03146427625974824 -0.1353922207127977 0  0.4687538427589449 -0.08499498352404596 0  0.1945393885069078 -0.08884182758867265 0  0.2525813348104176 -0.03744007417230172 0  0.3217010222371471 -0.03764154129720884 0  0.4222469886470394 -0.03586904090069724 0  0.09663319060065351 -0.1401271138728219 0  0.2193792666828137 -0.183158231426584 0  0.3560154827479793 -0.1838943099753877 0  0.1434582748922029 -0.03603411582704523 0  0.3765333185963097 -0.08241017292348579 0  0.07538111331820632 -0.08899587837746269 0  0.423855991190923 -0.1306886077643884 0  0.3185210010305527 -0.09753607818954631 0  0.3569762884570115 -0.03650734503769727 0  0.4254213410091923 -0.0987078979590463 0  0.2610082403268991 -0.0817800662321487 0  0.0828105113527246 -0.0341734786714956 0  0.4171399376253134 -0.185803221952863 0  0.3057870365127394 -0.1382026892003179 0  0.12895829204953 -0.08335230948371621 0  0.06875298785225953 -0.187362820013113 0  0.3717868049890677 -0.1386048615715364 0  0.321448533906611 -0.1855116827647124 0  0.26298072168791 -0.1839420817131204 0  0.07484000163200957 -0.1198633334100699 0  0.1547686158654376 -0.1863750548878711 0  0.216059367308573 -0.1515159536473182 0  0.2699691944498949 -0.1417527519042215 0  0.1656185503016955 -0.1403556565429203 0  0.4083071195762781 -0.07378364169239227 0  0.1267131755037155 -0.1278660972450704 0  0.4735015828166597 -0.0640900788079139 0  0.02554956908977171 -0.1556408100003981 0  0.4768150825846236 -0.1145833333333333 0  0.02318491741537634 -0.1054166666666667 0  0.223953700752457 -0.0304451531933032 0  0.1244872804067221 -0.1907232817427361 0  0.4438735214118281 -0.1930008132865749 0  0.05574102313663398 -0.02865323925202035 0  0.4137204188713657 -0.1553454939163003 0  0.08893893095617791 -0.06579816339826482 0  0.1717694871603352 -0.02800139159048265 0  0.3128492556460914 -0.06943040619515532 0  0.2797695783739821 -0.02590934499649085 0  0.02258333333333329 -0.1970833333333333 0  0.4762493762769904 -0.02160603458451191 0  0.4793770768812318 -0.1979934752448725 0  0.02062142143957255 -0.02200567641944876 0  0.1164030865048185 -0.02740272745133866 0  0.3830675041448486 -0.1925667518381948 0  0.4791226873505327 -0.1610342148373401 0  0.02087731264946724 -0.05896578516265992 0  0.3274724693986852 -0.1225305077389053 0  0.3972801610854721 -0.02625449066011495 0  0.2900140160514686 -0.08365001034985962 0  0.1709547781797311 -0.09465470820062212 0  0.2138438311308281 -0.1099941211103435 0  0.4450205721789285 -0.02492933314930469 0  0.05420467580227878 -0.08349945672846135 0  0.4461329107542346 -0.1367113815538408 0  0.3659666316461785 -0.05978339436610505 0  0.44602790301578 -0.09307279226297782 0  0.1051970245947556 -0.08027435556391044 0  0.05333928713341426 -0.1272409570081178 0  0.3959065276465774 -0.1392957050603055 0  0.1954280839215327 -0.1956301054107469 0  0.1114114251973984 -0.1581699686077357 0  0.1861203385256373 -0.06601416834570389 0  0.2411653975579025 -0.1955923650394697 0  0.3655092946697883 -0.1617364087021952 0  0.135090011654307 -0.05852644219278214 0  0.301466572149827 -0.195730962509487 0  0.3171403096460815 -0.1628017925003279 0  0.2583110626374412 -0.1046341192205865 0  0.4408293443687437 -0.04585722764353674 0  0.2712011044137034 -0.1640374945295207 0  0.2411933721253841 -0.08983355018053346 0  0.2501709838730871 -0.1314559421109842 0  0.4829353992284747 -0.03936718280336758 0  0.01826814268142685 -0.17875 0  0.08176459786747367 -0.1581134879103219 0  0.09090727073593149 -0.1966179220907174 0  0.1938567422944586 -0.1528508759815354 0  0.1733129361306733 -0.1172649579021292 0  0.1296640686621583 -0.1060858859555111 0  0.05006156132458137 -0.1998033571646454 0  0.162505650870633 -0.1635353305739766 0  0.30277270753554 -0.02336446206680166 0  0.04392010531002208 -0.1476919574928456 0  0.4570380569409145 -0.07105832940298668 0  0.2509935571465481 -0.06292905082461901 0  0.3948833058972995 -0.09019561948060845 0  0.4598195232581849 -0.1577532743262658 0  0.04018055885339097 -0.06224663359087233 0  0.1730418602576066 -0.1983511585214162 0  0.354008461825654 -0.08842076759065362 0  0.373211974938222 -0.1031515537153039 0  0.3385725936424656 -0.02355841481827918 0  0.05693481862827446 -0.1711111761535942 0  0.2226017506701603 -0.1306213423698554 0  0.4834446118625366 -0.09366667033152501 0  0.01655538813746335 -0.126333329668475 0  0.4825096030146118 -0.1326572162395438 0  0.01749039698538812 -0.08734278376045618 0  0.3772923679603625 -0.01999366789017346 0  0.01651090378487999 -0.1420833333333333 0  0.48348909621512 -0.07791666666666669 0  0.2083850969976113 -0.06098599897318754 0  0.3496303726904554 -0.1333395240176083 0  0.3051888980043784 -0.1167126520442686 0  0.2175622493287656 -0.08816391583608728 0  0.421331648509181 -0.05567865783938017 0  0.2036856364456695 -0.0217459550834085 0  0.3419325538888507 -0.04719577702332296 0  0.3412491916251918 -0.1996737604301947 0  0.4838834006315611 -0.1786454571355643 0  0.01611659936843887 -0.0413545428644357 0  0.172916357627664 -0.04916537131395513 0  0.4024134926805814 -0.2009331510593763 0  0.2424815730009992 -0.02045273553971888 0  0.1462759520833398 -0.1337233768065287 0  0.2346404539413744 -0.0484884977905098 0  0.09697638824467633 -0.01835062747588986 0  0.3376316573341132 -0.1736137832302001 0  0.1473441332611047 -0.09306137774954895 0  0.434705037373379 -0.114505364151485 0  0.0768089501139663 -0.1390499296181859 0  0.2037322897871967 -0.1695319781453501 0  0.2796822656650553 -0.2007669332776081 0  0.2910707535484897 -0.1516548901144321 0  0.414355300365443 -0.1140560482952263 0  0.09372496308173206 -0.1210763918452149 0  0.3897041267298961 -0.06995384811683555 0  0.4607061536274312 -0.2009522278863767 0  0.03767528917450519 -0.01920779542340162 0  0.06550910726222195 -0.1022565085744684 0  0.05021276002452402 -0.04427151993747909 0  0.4497875067624045 -0.1757266867012744 0  0.2685456651208211 -0.05149244248160013 0  0.1924991911245588 -0.1082791409797235 0  0.4653652048205058 -0.1036696603203247 0  0.03478864406010496 -0.1162949466270758 0  0.03530598512279109
[...]
<PointData  Vectors="flow"> 
<DataArray  type="Float64"  Name="flow"  NumberOfComponents="3" format="ascii">-1.8146206265896586e-01 2.0387823138345146e-03 0.0000000000000000e+00  1.8125566695922277e-01 1.8449399031405616e-03 0.0000000000000000e+00  1.6410237153674553e-01 -1.5381312398255326e-03 0.0000000000000000e+00  -1.6383127478438539e-01 -1.2535248655549929e-03 0.0000000000000000e+00  -1.7319974177660502e-01 2.4495962275560695e-04 0.0000000000000000e+00  -1.6188663441393891e-01 -4.2397236518812556e-04 0.0000000000000000e+00  -1.5372278948290505e-01 -8.2826474321836836e-05 0.0000000000000000e+00  -1.4514938935163813e-01 3.8076943153627691e-04 0.0000000000000000e+00  -1.3617347178811767e-01 1.7412438178712579e-04 0.0000000000000000e+00  -1.2740119958558874e-01 -3.4424258786314414e-05 0.0000000000000000e+00  -1.1889525626996413e-01 -2.0701707763501020e-04 0.0000000000000000e+00  -1.0982245708862488e-01 3.5032661254817606e-04 0.0000000000000000e+00  -1.0030122882433702e-01 -2.9199199814496519e-04 0.0000000000000000e+00  -9.1897751091305560e-02 3.3027673008121679e-04 0.0000000000000000e+00  -8.3007542848432092e-02 9.3020446797802614e-05 0.0000000000000000e+00  -7.3619152784498862e-02 2.6041078201741294e-04 0.0000000000000000e+00  -6.4484063850579518e-02 3.3410955286996549e-04 0.0000000000000000e+00  -5.5426445721750178e-02 -2.4681225095008375e-07 0.0000000000000000e+00  -4.6286136895851690e-02 -1.1950076415400544e-04 0.0000000000000000e+00  -3.7176757817696922e-02 -7.2913746542069486e-04 0.0000000000000000e+00  -2.7624352877994338e-02 6.1938010535587886e-04 0.0000000000000000e+00  -1.8506773409363783e-02 5.1747521211364380e-04 0.0000000000000000e+00  -9.0611048190704802e-03 3.7838697217290336e-04 0.0000000000000000e+00  -7.4179134069093274e-06 2.5424708980736525e-04 0.0000000000000000e+00  9.2267559550436237e-03 -3.3696232628049671e-04 0.0000000000000000e+00  1.8114524990160530e-02 2.4721711263718017e-04 0.0000000000000000e+00  2.7815365163827366e-02 -5.7226665489185807e-04 0.0000000000000000e+00  3.7221793997121284e-02 -8.4868747520106159e-05 0.0000000000000000e+00  4.6004707059803356e-02 4.9824604848900148e-04 0.0000000000000000e+00  5.5277573078337180e-02 4.1803901320837541e-04 0.0000000000000000e+00  6.4579505867282463e-02 -5.3496218289107570e-04 0.0000000000000000e+00  7.3817970941422298e-02 6.7148533509560706e-04 0.0000000000000000e+00  8.2767911888876361e-02 4.6083379861728858e-04 0.0000000000000000e+00  9.1773267817805967e-02 -1.6324591073504024e-04 0.0000000000000000e+00  1.0053559565799002e-01 2.4744900133417773e-04 0.0000000000000000e+00  1.1068566202679110e-01 -1.4142444272092708e-04 0.0000000000000000e+00  1.1864205592878531e-01 -1.4350146918419075e-04 0.0000000000000000e+00  1.2695512307980311e-01 5.8207538858137578e-04 0.0000000000000000e+00  1.3617782708351611e-01 4.9204502030221551e-04 0.0000000000000000e+00  1.4501434048866263e-01 -8.0539067199239848e-05 0.0000000000000000e+00  1.5392857824658129e-01 1.0308253342959455e-04 0.0000000000000000e+00  1.6224094362476699e-01 -5.7665250244600611e-04 0.0000000000000000e+00  1.7323226005712683e-01 3.8729181304756905e-04 0.0000000000000000e+00  1.8066085122782471e-01 1.5534286716595924e-05 0.0000000000000000e+00  1.7929059001629508e-01 -1.1627219922582026e-04 0.0000000000000000e+00  1.7796120380967947e-01 2.0531861167415112e-04 0.0000000000000000e+00  1.7570084339842773e-01 -1.6203679170213913e-04 0.0000000000000000e+00  1.7444805739843539e-01 1.1157020589898650e-04 0.0000000000000000e+00  1.7265406291348684e-01 -1.6711357163898179e-04 0.0000000000000000e+00  1.7138899050716194e-01 3.2226523035293651e-04 0.0000000000000000e+00  1.6978169400746265e-01 1.3233636110195315e-05 0.0000000000000000e+00  1.6833613291999139e-01 -3.8182663360121055e-04 0.0000000000000000e+00  1.6730420702503063e-01 1.2823977276955889e-04 0.0000000000000000e+00  1.6603471125578090e-01 4.1429062909520100e-04 0.0000000000000000e+00  1.6534147830946891e-01 -1.4677707015892325e-04 0.0000000000000000e+00  1.6456521729641524e-01 1.9358239610890680e-04 0.0000000000000000e+00  1.6347025892565473e-01 -1.0361097097928219e-04 0.0000000000000000e+00  1.6304896903470636e-01 -2.0343437403951958e-04 0.0000000000000000e+00  1.6224295817529136e-01 3.6986618496038007e-04 0.0000000000000000e+00  1.6165725905354392e-01 6.9218222862240742e-06 0.0000000000000000e+00  1.6187560407350041e-01 2.4837626000391717e-05 0.0000000000000000e+00  1.6222775983893417e-01 -2.2385570283804052e-04 0.0000000000000000e+00  1.6218034792717420e-01 1.6380851779765213e-04 0.0000000000000000e+00  1.6296134148889116e-01 -2.7863069847286454e-04 0.0000000000000000e+00  1.6331256308763967e-01 2.5959793403528751e-04 0.0000000000000000e+00  1.6372323100330613e-01 8.5396835684213788e-06 0.0000000000000000e+00  1.5763456275761470e-01 -3.0896929089329749e-04 0.0000000000000000e+00  1.5010559938982143e-01 -9.1614474412051383e-04 0.0000000000000000e+00  1.4282027963189489e-01 -2.0990060020029152e-04 0.0000000000000000e+00  1.3554561788450853e-01 -1.2567637911200314e-03 0.0000000000000000e+00  1.2847930398549393e-01 -2.7448991356992131e-04 0.0000000000000000e+00  1.2047541338075114e-01 -3.4546619297487171e-04 0.0000000000000000e+00  1.1315859868217232e-01 -8.2721489000739780e-04 0.0000000000000000e+00  1.0501206131877797e-01 -7.7758980209971529e-04 0.0000000000000000e+00  9.6874758188117888e-02 -6.8123921241539174e-04 0.0000000000000000e+00  8.8447293094270338e-02 -1.1933688153145268e-03 0.0000000000000000e+00  8.0287034988867370e-02 -6.9871650747373778e-04 0.0000000000000000e+00  7.1273620646427491e-02 -1.1445640548327558e-03 0.0000000000000000e+00  6.2965393032534123e-02 -8.1964057797929838e-04 0.0000000000000000e+00  5.3833787938175282e-02 -1.6483817761762710e-03 0.0000000000000000e+00  4.5133793591721635e-02 -1.1898830784154294e-03 0.0000000000000000e+00  3.6262779068732182e-02 -6.5574511243550297e-04 0.0000000000000000e+00  2.6889103791504845e-02 -1.5069548261114828e-03 0.0000000000000000e+00  1.8377144955010572e-02 -1.2683253904498745e-03 0.0000000000000000e+00  8.7255733561134950e-03 -1.2076004381944960e-03 0.0000000000000000e+00  1.5730240067069688e-04 -1.8445596326602080e-03 0.0000000000000000e+00  -9.0466865011229764e-03 -7.0335809316590106e-04 0.0000000000000000e+00  -1.8414618612466870e-02 -1.4689893340900867e-03 0.0000000000000000e+00  -2.6900193538783045e-02 -1.5209436555125742e-03 0.0000000000000000e+00  -3.6556855438040117e-02 -9.0118844843751350e-04 0.0000000000000000e+00  -4.4956561710411333e-02 -9.3552295186485207e-04 0.0000000000000000e+00  -5.3696459302701893e-02 -8.7849933155396509e-04 0.0000000000000000e+00  -6.2992166632473146e-02 -1.1778718920997914e-03 0.0000000000000000e+00  -7.1527843473243105e-02 -1.5537260377653315e-03 0.0000000000000000e+00  -7.9702056396483187e-02 -2.9792883827394308e-04 0.0000000000000000e+00  -8.8796722060814959e-02 -9.5715166956675561e-04 0.0000000000000000e+00  -9.6524890419137588e-02 -8.4256765219494531e-04 0.0000000000000000e+00  -1.0536357646953615e-01 -4.7204727972352626e-04 0.0000000000000000e+00  -1.1288664549758357e-01 -8.8304512036923471e-04 0.0000000000000000e+00  -1.2036208458825846e-01 -3.5356662568067934e-04 0.0000000000000000e+00  -1.2855904876606769e-01 -7.7187481860683822e-04 0.0000000000000000e+00  -1.3566091079129813e-01 -5.1361030184882161e-04 0.0000000000000000e+00  -1.4305459155256070e-01 -7.1840882352113195e-04 0.0000000000000000e+00  -1.5009439174038397e-01 -9.9424929603320836e-04 0.0000000000000000e+00  -1.5778866137882119e-01 -4.7369681342146366e-04 0.0000000000000000e+00  -1.6354941334550377e-01 1.8016017459766934e-05 0.0000000000000000e+00  -1.6312725369807460e-01 1.5259100326602774e-04 0.0000000000000000e+00  -1.6266856263608423e-01 -1.9973651456515221e-04 0.0000000000000000e+00  -1.6224238674834160e-01 2.0854412275490798e-04 0.0000000000000000e+00  -1.6210433989049258e-01 -1.0863489986779915e-04 0.0000000000000000e+00  -1.6206662851174519e-01 9.6562312828235106e-05 0.0000000000000000e+00  -1.6220823225931294e-01 -2.0686439195499869e-04 0.0000000000000000e+00  -1.6248435272012793e-01 1.4841817817247974e-04 0.0000000000000000e+00  -1.6303286241841752e-01 3.2478640542745439e-04 0.0000000000000000e+00  -1.6362934339126337e-01 -2.1836501373965632e-04 0.0000000000000000e+00  -1.6414745764117572e-01 -1.0913491914879070e-04 0.0000000000000000e+00  -1.6547999454917969e-01 1.6945481790099179e-04 0.0000000000000000e+00  -1.6624819059599472e-01 -1.3685272599616837e-04 0.0000000000000000e+00  -1.6689226459879034e-01 4.3188697533011418e-04 0.0000000000000000e+00  -1.6842208705582529e-01 4.6029157614608244e-05 0.0000000000000000e+00  -1.6908036629120687e-01 -2.9817777131286867e-04 0.0000000000000000e+00  -1.7063795351616362e-01 -1.6226524826191705e-04 0.0000000000000000e+00  -1.7257981238613967e-01 1.2162910097291743e-04 0.0000000000000000e+00  -1.7466737160203705e-01 2.5825705246001953e-04 0.0000000000000000e+00  -1.7570775903624580e-01 -1.3925641664587750e-04 0.0000000000000000e+00  -1.7826709410959451e-01 3.6092857589117762e-04 0.0000000000000000e+00  -1.7938926442656095e-01 -3.0881901098265971e-04 0.0000000000000000e+00  -1.8085737973618965e-01 3.1429251526831874e-05 0.0000000000000000e+00  -1.0423208862809631e-01 -7.3083823388350594e-03 0.0000000000000000e+00  1.0365551451535110e-01 -6.3792004735306451e-03 0.0000000000000000e+00  2.5123987551098841e-02 -8.8821343946631579e-03 0.0000000000000000e+00  -4.0833509594617415e-02 -7.2002415747948554e-03 0.0000000000000000e+00  -1.3083046181130309e-01 -2.1555589766460818e-03 0.0000000000000000e+00  1.3572085815434085e-01 -6.2698793013442992e-03 0.0000000000000000e+00  -1.3835066318006223e-01 -6.0262921252893587e-03 0.0000000000000000e+00  1.3289551657769064e-01 -1.7392574801370004e-03 0.0000000000000000e+00  6.7166125086793829e-02 -8.2638323074702268e-03 0.0000000000000000e+00  -1.4841410225607749e-02 -8.6209202817684148e-03 0.0000000000000000e+00  6.3031276759399513e-02 -5.0846897201148617e-03 0.0000000000000000e+00  -6.4054493612831401e-02 -8.4267561086068914e-03 0.0000000000000000e+00  -7.8484986066840748e-02 -4.9559824578917994e-03 0.0000000000000000e+00  -5.9863948912892073e-04 -5.2774661054625369e-03 0.0000000000000000e+00  1.4035827532403911e-01 -4.0139534421389251e-03 0.0000000000000000e+00  -1.4111567799059921e-01 -4.3840997873623149e-03 0.0000000000000000e+00  2.8270486203708811e-02 -7.7653049795074090e-03 0.0000000000000000e+00  9.7759331601671384e-02 -2.3712546402272143e-03 0.0000000000000000e+00  -1.0106865163596203e-01 -8.0795914858244229e-03 0.0000000000000000e+00  1.0154888350801285e-01 -7.2677640617679617e-03 0.0000000000000000e+00  3.1307603580623511e-02 -4.3236129720644473e-03 0.0000000000000000e+00  -1.4249285309262608e-01 -1.6201304245015572e-04 0.0000000000000000e+00  1.5340047421566769e-01 -4.5944521186491762e-03 0.0000000000000000e+00  -4.9285889500366095e-02 -3.9301547528656144e-03 0.0000000000000000e+00  -7.3789114400479347e-02 -7.6198604477049825e-03 0.0000000000000000e+00  -9.3921804129038448e-03 -7.9662312913967876e-03 0.0000000000000000e+00  -1.0628047385314597e-01 -2.5148662068024885e-03 0.0000000000000000e+00  7.3695481009060843e-02 -7.7025220708967276e-03 0.0000000000000000e+00  -4.1115068579857743e-02 -6.5418529688581924e-03 0.0000000000000000e+00  1.4637466921989556e-01 -4.8052317892526379e-06 0.0000000000000000e+00  -1.5549992765179149e-01 -4.2139578562427399e-03 0.0000000000000000e+00  -1.5391648434581831e-01 -3.6414213434137217e-03 0.0000000000000000e+00  1.4870669258549110e-01 -1.5159206930716847e-03 0.0000000000000000e+00  -1.4859266783058636e-01 -2.0490905759967047e-03 0.0000000000000000e+00  1.5235418209926949e-01 -3.5457237272378426e-03 0.0000000000000000e+00  -4.1056954843913862e-02 -8.9302072347780884e-03 0.0000000000000000e+00  1.7523977403771185e-03 -6.0020342216539641e-03 0.0000000000000000e+00  5.2602449409565995e-02 -6.5186020362497472e-03 0.0000000000000000e+00  1.2537024026096746e-01 -5.3829636429522125e-03 0.0000000000000000e+00  -1.0949996336642415e-01 -4.5042840019846242e-03 0.0000000000000000e+00  -2.2369805852639292e-02 -3.5852223941379921e-03 0.0000000000000000e+00  7.5535054805237353e-02 -3.0560039160193561e-03 0.0000000000000000e+00  -7.9063208504154867e-02 -5.4165050566427489e-03 0.0000000000000000e+00  9.3014897899688920e-02 -8.4975376393597625e-03 0.0000000000000000e+00  -1.2517324951725670e-01 -6.1763108189260077e-03 0.0000000000000000e+00  1.2273748786164718e-01 -4.6531505340961501e-03 0.0000000000000000e+00  5.0524128368777330e-02 -8.9585729030965001e-03 0.0000000000000000e+00  7.8810493172375706e-02 -5.8622850929592133e-03 0.0000000000000000e+00  1.2504988728614702e-01 -5.6771575081777017e-03 0.0000000000000000e+00  8.7699633129835405e-03 -8.7136144386699196e-03 0.0000000000000000e+00  -1.2171049230559201e-01 -5.1633660400712189e-03 0.0000000000000000e+00  1.1630867364741297e-01 -1.5836676056883991e-03 0.0000000000000000e+00  4.0132570317658531e-02 -6.9411283204368250e-03 0.0000000000000000e+00  -8.8751744061944277e-02 -8.2190055283884126e-03 0.0000000000000000e+00  -1.2490275143201229e-01 -1.2824455369566993e-03 0.0000000000000000e+00  8.7702351936178619e-02 -5.2314332540897056e-03 0.0000000000000000e+00  5.0854877780458350e-02 -2.9830011160098670e-03 0.0000000000000000e+00  9.3466566282004483e-03 -3.3967556717500983e-03 0.0000000000000000e+00  -1.2412737750164315e-01 -5.2005288279662930e-03 0.0000000000000000e+00  -6.7285260742522029e-02 -2.3200096761854753e-03 0.0000000000000000e+00  -2.5571246169257839e-02 -6.0659218088404739e-03 0.0000000000000000e+00  1.4903108522790710e-02 -6.6523413802804365e-03 0.0000000000000000e+00  -6.2505470243315653e-02 -6.1473748089454104e-03 0.0000000000000000e+00  1.1390540428490337e-01 -7.3793603340468281e-03 0.0000000000000000e+00  -8.9289037842760530e-02 -6.2357225908673862e-03 0.0000000000000000e+00  1.5741875778182732e-01 -3.5426279031744606e-03 0.0000000000000000e+00  -1.5090689248459055e-01 -8.1289916795697185e-04 0.0000000000000000e+00  1.5488819751763502e-01 -1.9434158810182063e-03 0.0000000000000000e+00  -1.5563512429596746e-01 -2.2311451089525765e-03 0.0000000000000000e+00  -1.8276010538573993e-02 -5.7169811827659147e-03 0.0000000000000000e+00  -8.8693153499080635e-02 -1.6500012983821156e-03 0.0000000000000000e+00  1.3193959125716995e-01 -6.0686237487329093e-05 0.0000000000000000e+00  -1.4016493786271039e-01 -4.2705310702628382e-03 0.0000000000000000e+00  1.1523281182176158e-01 -3.4442593510412033e-03 0.0000000000000000e+00  -1.1676242135198275e-01 -7.0002721493731806e-03 0.0000000000000000e+00  -5.7829237082266442e-02 -5.4508558744901505e-03 0.0000000000000000e+00  4.5594998409295061e-02 -8.2959693406621862e-03 0.0000000000000000e+00  2.2637670549495559e-02 -4.9284341742382998e-03 0.0000000000000000e+00  -1.5153929508354400e-01 8.2523818833580968e-04 0.0000000000000000e+00  1.6322437336975040e-01 -2.8864819559888508e-03 0.0000000000000000e+00  1.5327905118396248e-01 6.8644232802536371e-04 0.0000000000000000e+00  -1.6594301056028529e-01 -2.7241317276806318e-03 0.0000000000000000e+00  -9.7836293642073441e-02 -4.6379314824641152e-03 0.0000000000000000e+00  9.3990931802405725e-02 -1.8060029137274137e-03 0.0000000000000000e+00  1.5326392565865943e-01 -5.4569380493092962e-04 0.0000000000000000e+00  -1.6172983345610709e-01 -2.9113209220762151e-03 0.0000000000000000e+00  5.6655330049726754e-02 -7.8028537529811117e-03 0.0000000000000000e+00  1.0747896823112169e-01 -4.7808315028345120e-03 0.0000000000000000e+00  2.9101840484323533e-02 -8.5460768597497745e-03 0.0000000000000000e+00  -5.7484436336244733e-02 -8.8380756170656459e-03 0.0000000000000000e+00  -2.6687598782750451e-02 -8.4032261080030368e-03 0.0000000000000000e+00  1.4127911109212837e-01 -4.3749461490333015e-03 0.0000000000000000e+00  -1.3922008375725392e-01 -5.2837399203810240e-03 0.0000000000000000e+00  1.3630125333513080e-01 -3.2209714488375175e-03 0.0000000000000000e+00  8.5667085677449753e-02 -7.6687725608911936e-03 0.0000000000000000e+00  1.3794488017012477e-01 -4.9046016632479563e-03 0.0000000000000000e+00  -1.0436795121182567e-01 -7.1898925828093353e-03 0.0000000000000000e+00  -1.3718915016434888e-01 -3.5788419852531240e-03 0.0000000000000000e+00  1.0374902444561533e-01 -5.2127133696128706e-03 0.0000000000000000e+00  -3.9076401095036052e-02 -2.2593061417451516e-03 0.0000000000000000e+00  -9.8396475888822804e-02 -4.0386942190076738e-03 0.0000000000000000e+00  -4.7530729184337712e-02 -8.2598701486615075e-03 0.0000000000000000e+00  -7.1548670950531282e-03 -2.1201471562332258e-03 0.0000000000000000e+00  8.2733363225702822e-02 -4.0701949870098376e-03 0.0000000000000000e+00  -8.4545924799444741e-02 -7.4804993323259739e-03 0.0000000000000000e+00  3.7184970690039856e-02 -2.4634511503036872e-03 0.0000000000000000e+00  4.8894428540555417e-02 -5.0426244944127251e-03 0.0000000000000000e+00  6.5243322998677121e-03 -9.2881865509722855e-03 0.0000000000000000e+00  1.3805314001781369e-01 -5.5353268357898082e-03 0.0000000000000000e+00  1.5963703872055941e-02 -4.9028396475617984e-03 0.0000000000000000e+00  -6.0702956274201478e-03 -8.8932401762709650e-03 0.0000000000000000e+00  -1.6334729733699821e-05 -6.8907589579563404e-03 0.0000000000000000e+00  1.6630828124094851e-01 -2.7721296408392973e-03 0.0000000000000000e+00  -1.5431159575990661e-01 1.8710968852936772e-04 0.0000000000000000e+00  -1.1775316806737073e-01 -2.8155283113048589e-03 0.0000000000000000e+00  -1.1074879981488622e-01 -8.4039620046001977e-04 0.0000000000000000e+00  -4.1368443829105296e-02 -6.2242204942633394e-03 0.0000000000000000e+00  -5.6152398022348934e-02 -7.6331837080589725e-03 0.0000000000000000e+00  -8.7836574677127160e-02 -7.7876803924560407e-03 0.0000000000000000e+00  -1.3562404870364367e-01 -2.4961867961314810e-04 0.0000000000000000e+00  -6.3134233498669409e-02 -4.3954455306362151e-03 0.0000000000000000e+00  3.8877414688724632e-02 -4.2355147891625818e-03 0.0000000000000000e+00  -1.4140325222355515e-01 -2.2810230412695430e-03 0.0000000000000000e+00  1.4715342320190766e-01 -4.7499235693294409e-03 0.0000000000000000e+00  9.2209582713579275e-04 -8.4606706198246066e-03 0.0000000000000000e+00  1.0489812568571120e-01 -7.8826225001474744e-03 0.0000000000000000e+00  1.4323610649980253e-01 -1.6575630915197862e-03 0.0000000000000000e+00  -1.4987543595701125e-01 -4.3241599939617612e-03 0.0000000000000000e+00  -5.5216421702400612e-02 -1.7144937391945841e-03 0.0000000000000000e+00  7.6441253593554206e-02 -8.0553729079614663e-03 0.0000000000000000e+00  8.9829286400795794e-02 -7.8906764938373123e-03 0.0000000000000000e+00  6.5152171834113703e-02 -4.3081850753623144e-03 0.0000000000000000e+00  -1.3277871734322591e-01 -1.3285347199985993e-03 0.0000000000000000e+00  -2.0087340356584001e-02 -7.1096268707351046e-03 0.0000000000000000e+00  1.5974808766922746e-01 -1.8874049924802951e-03 0.0000000000000000e+00  -1.5692431538580334e-01 -1.1180957851926506e-03 0.0000000000000000e+00  1.5602993235858661e-01 -1.1673333345001205e-03 0.0000000000000000e+00  -1.5993473893002738e-01 -2.0339168592763959e-03 0.0000000000000000e+00  9.3102866911786805e-02 -3.8373086525277642e-03 0.0000000000000000e+00  -1.5639473868945813e-01 -7.9721245789054845e-04 0.0000000000000000e+00  1.6199425730604194e-01 -2.1139542550272549e-03 0.0000000000000000e+00  -3.0809988652687723e-02 -8.0772153350228103e-03 0.0000000000000000e+00  7.1734145381411180e-02 -6.9871976496992420e-03 0.0000000000000000e+00  4.0051610706543998e-02 -8.2219006360417981e-03 0.0000000000000000e+00  -2.3786829509567738e-02 -8.8798546389470857e-03 0.0000000000000000e+00  1.2419940864506646e-01 -6.4365670953218735e-03 0.0000000000000000e+00  -3.4712540702919285e-02 -4.3115803304167527e-03 0.0000000000000000e+00  6.7745743825858976e-02 -7.2369016672847349e-03 0.0000000000000000e+00  6.5504374531372575e-02 -2.3155061792695863e-03 0.0000000000000000e+00  1.5539017834063248e-01 1.5243892148885706e-04 0.0000000000000000e+00  -1.6666515748129102e-01 -2.4752499121036202e-03 0.0000000000000000e+00 