<?xml version="1.0"?>
<VTKFile type="UnstructuredGrid"  version="0.1"  >
<UnstructuredGrid>
<Piece  NumberOfPoints="572" NumberOfCells="1038">
<Points>
<DataArray  type="Float64"  NumberOfComponents="3"  format="ascii">0 0 0  4 0 0  4 -1 0  0 -1 0  0.09999999999999999 0 0  0.2 0 0  0.3 0 0  0.4 0 0  0.4999999999999998 0 0  0.5999999999999996 0 0  0.6999999999999995 0 0  0.7999999999999994 0 0  0.8999999999999992 0 0  0.999999999999999 0 0  1.099999999999999 0 0  1.199999999999999 0 0  1.299999999999999 0 0  1.399999999999999 0 0  1.499999999999998 0 0  1.599999999999998 0 0  1.699999999999999 0 0  1.799999999999999 0 0  1.899999999999999 0 0  2 0 0  2.1 0 0  2.200000000000001 0 0  2.300000000000001 0 0  2.400000000000002 0 0  2.500000000000002 0 0  2.600000000000002 0 0  2.700000000000003 0 0  2.800000000000003 0 0  2.900000000000004 0 0  3.000000000000004 0 0  3.100000000000005 0 0  3.200000000000005 0 0  3.300000000000005 0 0  3.400000000000004 0 0  3.500000000000004 0 0  3.600000000000003 0 0  3.700000000000002 0 0  3.800000000000002 0 0  3.900000000000001 0 0  4 -0.08333333333333325 0  4 -0.1666666666666665 0  4 -0.2499999999999997 0  4 -0.333333333333333 0  4 -0.4166666666666666 0  4 -0.5000000000000001 0  4 -0.5833333333333337 0  4 -0.6666666666666673 0  4 -0.7500000000000006 0  4 -0.8333333333333337 0  4 -0.9166666666666669 0  3.9 -1 0  3.8 -1 0  3.7 -1 0  3.6 -1 0  3.5 -1 0  3.4 -1 0  3.300000000000001 -1 0  3.200000000000001 -1 0  3.100000000000001 -1 0  3.000000000000001 -1 0  2.900000000000001 -1 0  2.800000000000001 -1 0  2.700000000000001 -1 0  2.600000000000001 -1 0  2.500000000000002 -1 0  2.400000000000002 -1 0  2.300000000000002 -1 0  2.200000000000001 -1 0  2.100000000000001 -1 0  2 -1 0  1.9 -1 0  1.799999999999999 -1 0  1.699999999999999 -1 0  1.599999999999998 -1 0  1.499999999999998 -1 0  1.399999999999998 -1 0  1.299999999999997 -1 0  1.199999999999997 -1 0  1.099999999999996 -1 0  0.9999999999999956 -1 0  0.899999999999995 -1 0  0.7999999999999949 -1 0  0.6999999999999953 -1 0  0.5999999999999956 -1 0  0.499999999999996 -1 0  0.3999999999999968 -1 0  0.2999999999999976 -1 0  0.1999999999999984 -1 0  0.0999999999999992 -1 0  0 -0.9166666666666667 0  0 -0.8333333333333335 0  0 -0.7500000000000002 0  0 -0.666666666666667 0  0 -0.5833333333333335 0  0 -0.4999999999999999 0  0 -0.4166666666666663 0  0 -0.3333333333333327 0  0 -0.2499999999999994 0  0 -0.1666666666666663 0  0 -0.08333333333333315 0  3.491090701185765 -0.499339806301727 0  0.4950203227078167 -0.4989128584675094 0  2.64262313781888 -0.4879297506908338 0  1.449999999999998 -0.5 0  2.058402291097397 -0.5120941233772698 0  0.9749999999999992 -0.4749999999999993 0  3.081769880806683 -0.5597407802610527 0  1.745473944409859 -0.3290615136625714 0  2.347280045777389 -0.6545118286598804 0  2.335768673639667 -0.3237239238763549 0  1.750327526220345 -0.682828817540943 0  3.707492972392909 -0.3028030525063309 0  0.293580296675358 -0.7109385489008262 0  3.71498825372084 -0.7080088716251347 0  0.2918697062415769 -0.2988161261649331 0  3.250413907284768 -0.3098344370860925 0  0.7481958762886598 -0.6907216494845363 0  2.897531957111618 -0.3144800466372323 0  1.202975631932859 -0.6871206495416401 0  0.7276881720430104 -0.301075268817204 0  1.222241507685503 -0.2908020883113388 0  2.821785532795642 -0.7097679058139483 0  3.313580174540806 -0.7110306688463971 0  1.50219738324048 -0.2570217529780842 0  2.109436430026117 -0.7485141141565509 0  2.001923272149049 -0.2612004201407864 0  2.591779594323503 -0.2533220405676498 0  1.508220405676497 -0.7466779594323502 0  2.584305190871683 -0.7502831919469019 0  3.478286033189422 -0.23795222571263 0  0.5261060937617643 -0.7658117832712512 0  3.785135972681774 -0.5040707172464052 0  0.2090645029521114 -0.4969048262114374 0  0.9574438986108131 -0.2423163095862805 0  0.9754244626643473 -0.7628641460288867 0  0.5097271592765806 -0.2292760602594508 0  3.047448237147327 -0.7984168297371277 0  3.522893514415914 -0.785726174019542 0  3.27411286219494 -0.5150314861460955 0  2.876192398366876 -0.5166549013936721 0  3.072152863254761 -0.2028141497170135 0  2.188888454287124 -0.1960738743988359 0  1.911111545712876 -0.8039261256011641 0  0.6968885413728847 -0.4974520678389611 0  1.252104989604988 -0.4970114345114344 0  1.649610740490046 -0.5028202775347195 0  2.446694231298332 -0.485633542353709 0  1.845992484168205 -0.4989419599210881 0  2.246214131289309 -0.4959316037735846 0  2.743080194417513 -0.1797603284198384 0  1.345217800961618 -0.8177514544794908 0  3.831771135951664 -0.1764827624326512 0  0.168177957407361 -0.823589473522286 0  3.837430960455357 -0.8286944021295046 0  0.167391597779325 -0.1752538625856722 0  3.066111254276541 -0.3870061788029396 0  1.358909159394344 -0.1720779287034414 0  1.669284305949535 -0.172759019086266 0  2.264869859182613 -0.8283162784008133 0  2.434165412425708 -0.1697954173687042 0  1.668706113475668 -0.8314479749300888 0  1.842683258862577 -0.1656794186994128 0  3.848464877921415 -0.3616620315967092 0  0.151535122078585 -0.6383379684032905 0  3.848707346075076 -0.6466646759135177 0  0.1509968549082652 -0.3452619778382686 0  2.732975255829699 -0.3508363638623346 0  1.370252652534258 -0.6495109932111033 0  1.11832587037856 -0.1733419061976365 0  2.439737645513045 -0.836456385212641 0  3.331229791744127 -0.165499768727795 0  0.6726591332606813 -0.8336090461037186 0  1.132616756253317 -0.8280723285747189 0  1.950606351728588 -0.6518091391595896 0  2.153824719141371 -0.3536025000168445 0  3.62532407618639 -0.1564302309141494 0  0.3803710983093131 -0.8404803223371928 0  1.377912260103223 -0.3517997484404782 0  0.8924624300191402 -0.6125774599817652 0  3.207249628251628 -0.8375220474312923 0  0.6546785576266954 -0.155978749966339 0  2.719684587363634 -0.8327734580127736 0  3.647699282718985 -0.5637569936419204 0  0.3570156455557587 -0.5653989322146081 0  0.8322251523939386 -0.8403847541693579 0  0.3645988133126639 -0.1519337183240305 0  1.061404500324257 -0.6180105656135877 0  3.396758647231262 -0.3766313243368538 0  0.8148021518360848 -0.1629813466347811 0  0.6093556516052328 -0.6299486913462624 0  0.415997866655875 -0.3680522660477806 0  0.5920160015096863 -0.3645412637424194 0  3.572255424430109 -0.362089200459548 0  1.08043890485706 -0.3398660584513152 0  2.923658429424994 -0.1561137197110593 0  3.653613361778262 -0.8546909554159527 0  3.456739790681186 -0.6487708965425909 0  0.8424839600900655 -0.4190496412612194 0  2.6968241495241 -0.6460539373019687 0  2.90777185621417 -0.8467190841342236 0  3.167421855912535 -0.6853653881872064 0  3.378998015397395 -0.8550267917096944 0  2.549623533286458 -0.6074164390661531 0  1.563854363100012 -0.3870450365840445 0  1.945115925347995 -0.3956210114182645 0  2.206384380497951 -0.6363666106481864 0  2.9679770331043 -0.6663940397605803 0  2.492817266347368 -0.3527603982764793 0  1.545918816851176 -0.6075709531787901 0  2.028456012399734 -0.8701972194942087 0  2.065700499244939 -0.1359115819594244 0  1.113999927383315 -0.4803729266898425 0  3.194766700972084 -0.1349664610116483 0  1.791586588241401 -0.8656156413257059 0  2.307333345265183 -0.1346440826116952 0  2.64093544674549 -0.1331489671463476 0  0.4565707965077976 -0.6534785968762363 0  1.459077473581533 -0.8718776489042938 0  1.56279060907849 -0.1324694119967317 0  0.3144726782861624 -0.406319735913186 0  3.686635179527132 -0.4155119011072678 0  3.583227123430988 -0.6879918386850498 0  3.884530589958141 -0.5337716741137969 0  0.1138901561454064 -0.4712706309748976 0  2.551320204776417 -0.8759992125181354 0  2.968455986624249 -0.4231600805006418 0  1.843995631966074 -0.2713141166917306 0  1.23826657576458 -0.1310261345083986 0  1.632298315745049 -0.7047459448475459 0  3.454977942639006 -0.1019833897113779 0  2.11213131937471 -0.6131325843633801 0  1.631670858552932 -0.3027829344070553 0  0.549999999999996 -0.8847857258099061 0  2.175907031111534 -0.8808902127996396 0  2.440789547527098 -0.7252338716820566 0  0.9499999999999957 -0.8853403742417534 0  0.1192006629558211 -0.7258150973260704 0  0.1086302422397907 -0.2553484983400458 0  3.891615894289125 -0.7428762999771643 0  3.880790852604017 -0.2741969419997524 0  2.58999033724616 -0.3943081590477266 0  0.95310975133633 -0.1100375897447476 0  0.9389274183125247 -0.357418794071099 0  0.5436861363815539 -0.1129935035840732 0  1.237622314162623 -0.8886349339205675 0  2.766143121931948 -0.4669467935657355 0  3.157965388639583 -0.4824178848815803 0  3.732166646772587 -0.1061123528525496 0  0.8463407040907105 -0.2803849511418723 0  0.2658218649297859 -0.8967607408767373 0  3.384357462435764 -0.5450459842617623 0  1.954320722194999 -0.1009956898074866 0  0.8013980381943526 -0.5278489923710374 0  3.744358883260304 -0.603637271636247 0  0.2581863795088786 -0.6001369967359219 0  0.2629966501688439 -0.1025990268626685 0  0.3980883060404261 -0.7330050441066103 0  1.076076863672032 -0.7275728344185368 0  1.749999999999999 -0.5550190100941714 0  2.351512610076122 -0.5440435521440684 0  0.8619623856291254 -0.7246873586411677 0  3.553081028189586 -0.8932001918706867 0  2.806636304103025 -0.6100531542467602 0  2.546714489935151 -0.08818853426728746 0  1.172246975380209 -0.5783812280673658 0  1.560837452008869 -0.9052833905541354 0  3.005913589025749 -0.2858329927011495 0  3.104244827324224 -0.8867193195303111 0  0.6392996137609843 -0.7340215588892431 0  3.370409685921998 -0.2678372406131186 0  1.860045411420065 -0.6863616357695403 0  2.239306624928278 -0.3159929711989559 0  0.620090528303912 -0.2611000972275821 0  1.457468991263225 -0.08750102207080079 0  1.752790718352056 -0.1005001786212033 0  0.394717592657301 -0.2605042194828123 0  3.745581301416776 -0.9074819423317642 0  3.141158115761163 -0.2920724092797614 0  3.257376892791448 -0.6242591031763242 0  2.350280737493299 -0.9013197570937703 0  3.914203942485891 -0.125 0  3.914203942485891 -0.8750000000000003 0  0.08579605751410901 -0.1249999999999997 0  0.08579605751410968 -0.875 0  3.921126745430668 -0.4525
[...]
<PointData  Vectors="flow"> 
<DataArray  type="Float64"  Name="flow"  NumberOfComponents="3" format="ascii">-7.7461905657086007e+01 2.3560857746329228e+02 0.0000000000000000e+00  4.7502094468447950e+01 1.3340225451585295e+02 0.0000000000000000e+00  2.6104996160394018e+02 -9.1437987217078671e+02 0.0000000000000000e+00  -1.9021304653208733e+02 -6.4009918083184800e+02 0.0000000000000000e+00  5.5605498304478232e+01 2.9390432387428007e+02 0.0000000000000000e+00  -3.9067590997106940e+01 -2.7582189546859752e+01 0.0000000000000000e+00  1.2999555292195621e+01 8.0476825779449364e+00 0.0000000000000000e+00  2.8862072989916885e+00 8.0291990904101826e+00 0.0000000000000000e+00  -4.1722824843541160e+00 -2.7103172945001504e+00 0.0000000000000000e+00  2.6626795737355828e+00 -2.3400508096561029e-01 0.0000000000000000e+00  -1.0219220370214270e+00 -2.2754388710782103e+00 0.0000000000000000e+00  7.1912958295829399e-01 -6.4353493257820584e-03 0.0000000000000000e+00  -2.7096220512889796e-01 -5.2952906740495453e-01 0.0000000000000000e+00  2.3956547071231371e-01 5.9615852889425697e-02 0.0000000000000000e+00  -3.6739769445395842e-01 1.3430763415435429e-01 0.0000000000000000e+00  1.8897722820026894e-01 -2.1932270610512372e+00 0.0000000000000000e+00  -1.3944240671556296e-01 -1.9546991851387834e+00 0.0000000000000000e+00  2.6760323162124888e-01 2.7028349651801947e-01 0.0000000000000000e+00  -1.0895595534396270e-01 -2.2766904692597614e-01 0.0000000000000000e+00  -2.1757674528834137e-02 -2.4354550152986576e-01 0.0000000000000000e+00  5.9927860610220332e-02 6.9362743403251284e-02 0.0000000000000000e+00  -3.3056906129339536e-02 -8.1216853724807182e-04 0.0000000000000000e+00  5.8317775198541970e-02 -6.6712852879650689e-02 0.0000000000000000e+00  -4.9260485339229665e-02 2.6482711624676991e-01 0.0000000000000000e+00  3.2314149126351603e-02 3.1750169041225035e-01 0.0000000000000000e+00  -4.9023459747210479e-02 -1.2418349729586924e-01 0.0000000000000000e+00  1.9568216920911843e-02 -8.0697865434860211e-02 0.0000000000000000e+00  3.2324611490630865e-02 -6.3390479806536684e-02 0.0000000000000000e+00  -1.4650169782815567e-01 3.1340999122985364e-01 0.0000000000000000e+00  6.0763934757007740e-02 -8.5806373196819219e-01 0.0000000000000000e+00  -9.4397768427987347e-02 -8.0494837851359691e-01 0.0000000000000000e+00  1.1991561397844315e-01 5.8384303889820424e-02 0.0000000000000000e+00  -9.1679446276897669e-02 -1.7691608990650196e-01 0.0000000000000000e+00  -1.3006160728088667e-01 -1.0135552837303888e-01 0.0000000000000000e+00  6.5204962507051589e-01 -1.7026507100589992e+00 0.0000000000000000e+00  -1.6471281619002234e+00 -6.0388394337584943e+00 0.0000000000000000e+00  1.9468806086073969e+00 -7.7635157404097710e-02 0.0000000000000000e+00  -1.9681591658208224e+00 1.4813976822149306e+00 0.0000000000000000e+00  1.8510493375141261e+00 -2.2901124445488859e+00 0.0000000000000000e+00  1.4043496988105142e+00 -1.2823530367985672e+00 0.0000000000000000e+00  -1.4547037996917409e+01 1.3560592872344147e+01 0.0000000000000000e+00  2.8013449189308325e+01 -3.1212196322446143e+01 0.0000000000000000e+00  -3.1373398757476455e+01 1.5580517263893563e+02 0.0000000000000000e+00  6.0959460048556686e+01 -8.8428052767222624e+01 0.0000000000000000e+00  -3.1750809432778055e+01 4.9648887921582293e+01 0.0000000000000000e+00  3.2881207058091832e+01 -2.0974164258152079e+01 0.0000000000000000e+00  4.8146840768851035e+01 2.1313266743177298e+01 0.0000000000000000e+00  -3.5058132329091052e+01 -4.9519494050785163e+01 0.0000000000000000e+00  1.1019463070462484e+02 1.1287184990587743e+02 0.0000000000000000e+00  5.8080346384249147e+01 -1.5605566004408280e+02 0.0000000000000000e+00  1.5490754656550092e+02 1.2351269688043119e+02 0.0000000000000000e+00  1.3177521751192577e+02 1.2972937893161298e+02 0.0000000000000000e+00  -1.0168013395833688e+02 -4.7035455333827673e+02 0.0000000000000000e+00  3.0539859236200414e+02 6.6234899113389633e+02 0.0000000000000000e+00  -1.9094345898526225e+02 -1.2216570360979781e+03 0.0000000000000000e+00  1.8509408794216171e+02 1.6027340893973408e+02 0.0000000000000000e+00  -7.3222374425488368e+01 -6.3090979100123292e+01 0.0000000000000000e+00  -6.7405014757703627e+00 -4.6366743116614515e+01 0.0000000000000000e+00  1.8131705585708641e+01 1.6822517294282736e+01 0.0000000000000000e+00  -1.0503861367447113e+01 -1.4619253262651457e+00 0.0000000000000000e+00  3.3710561453155905e+00 -8.6997243543284419e-01 0.0000000000000000e+00  3.8408724664299870e-01 1.7640732885775106e+00 0.0000000000000000e+00  -1.1950101489970155e+01 2.7666020511678315e+01 0.0000000000000000e+00  1.0761078820321131e+01 2.9727147564870847e+01 0.0000000000000000e+00  1.0095905860904446e+00 8.3704604247663834e+00 0.0000000000000000e+00  -3.3633186045676937e+00 -3.8317876568811915e+00 0.0000000000000000e+00  2.3147418256807528e+00 8.9300839317533376e-01 0.0000000000000000e+00  -1.2495180772516292e+00 3.0377536757525698e+00 0.0000000000000000e+00  5.5622380555910722e-01 4.4053149436077685e+00 0.0000000000000000e+00  -5.4480476190804483e-01 -4.4481483164409980e-01 0.0000000000000000e+00  1.6324108227687603e-01 3.0186680708198405e-01 0.0000000000000000e+00  -6.9465964946906114e-02 1.9617338013769844e-01 0.0000000000000000e+00  4.9720154473421879e-01 2.7994016917746785e-02 0.0000000000000000e+00  -3.2349363105291379e-01 1.8562118702597148e+00 0.0000000000000000e+00  9.1938159922918414e-02 7.4974379114591938e-01 0.0000000000000000e+00  -1.6723302857278754e-02 4.3931235450688783e-01 0.0000000000000000e+00  -1.4123947621794969e-01 5.7040177117533453e-01 0.0000000000000000e+00  4.8029945761921161e-01 -1.2294345358084731e+00 0.0000000000000000e+00  -1.7801813542834319e-01 3.0098861220755548e+00 0.0000000000000000e+00  2.2134519916734174e-01 3.0816395924028748e+00 0.0000000000000000e+00  -2.0127928946336257e-01 -2.9446198264631512e-01 0.0000000000000000e+00  3.0209455709157992e-02 6.9934344337752463e-01 0.0000000000000000e+00  -2.1215684482809744e-01 8.0257076719796627e-01 0.0000000000000000e+00  3.8792227350959363e-01 -1.0831626066570077e+00 0.0000000000000000e+00  -4.5952980304348073e-01 1.4224945051139155e+00 0.0000000000000000e+00  1.4973604742902715e+00 6.1131974037616943e-01 0.0000000000000000e+00  -1.6934453951111728e+00 -3.5490691655979867e-01 0.0000000000000000e+00  5.3395493593471359e+00 -1.1101895568907507e+00 0.0000000000000000e+00  -1.2763093445325239e+01 1.8565853682108443e+01 0.0000000000000000e+00  -4.7725609075474402e+00 -2.7752410097969321e+01 0.0000000000000000e+00  6.4749612580389552e+01 -9.5575232558246213e+01 0.0000000000000000e+00  -1.3942412348406052e+02 1.2285816657689226e+02 0.0000000000000000e+00  1.3997464514959483e+02 -8.0850880487612608e+02 0.0000000000000000e+00  -2.9665819083651354e+02 4.2184605507300472e+02 0.0000000000000000e+00  1.5119794134274696e+02 -2.3580628608358106e+02 0.0000000000000000e+00  -1.4619580911655106e+02 8.9116496442305262e+01 0.0000000000000000e+00  -5.5137778265615033e+01 -2.6174220792760256e+01 0.0000000000000000e+00  3.3655529261849004e+01 5.5413342722000813e+01 0.0000000000000000e+00  -2.1903013125974030e+02 -1.6377824936526960e+02 0.0000000000000000e+00  -5.6210823808677034e+01 1.7811607636767232e+02 0.0000000000000000e+00  -4.7609107284606608e+01 -1.3837284856756199e+02 0.0000000000000000e+00  -7.9750482737742274e+01 1.9156680850944444e+01 0.0000000000000000e+00  3.8164306303712596e+00 1.4177953124391905e+02 0.0000000000000000e+00  -5.5513812213165700e+01 -1.8353018515573655e+02 0.0000000000000000e+00  3.4673933791993412e+00 7.4879581500492287e-01 0.0000000000000000e+00  1.0486364370241626e-01 -4.6729322724884037e+00 0.0000000000000000e+00  1.6518802854069733e-01 -3.2741055046225481e-01 0.0000000000000000e+00  5.9262486333120805e-02 -3.7374161764791428e-02 0.0000000000000000e+00  -3.5626740709703258e-02 8.5130322972122252e-02 0.0000000000000000e+00  -2.2954792060560866e-01 3.2068972510874272e-01 0.0000000000000000e+00  1.9293101452059333e-01 9.4105569708252304e-02 0.0000000000000000e+00  3.5901918754173291e-02 8.5881240142158081e-03 0.0000000000000000e+00  8.9458833182868014e-02 5.8034549931330191e-02 0.0000000000000000e+00  1.4186338428272076e-02 -8.6160977637448795e-03 0.0000000000000000e+00  7.5193045701807751e-02 -1.7788580815715362e-02 0.0000000000000000e+00  -7.0539486000755698e+00 6.5116490505364331e+00 0.0000000000000000e+00  -2.9330889949895450e+01 3.1115590653373946e+01 0.0000000000000000e+00  -1.9714493600339321e+01 -5.8649089893715844e+00 0.0000000000000000e+00  4.0577253480563527e+01 4.4224779084577605e+01 0.0000000000000000e+00  6.4360416376562912e-01 -9.8463659223238131e-02 0.0000000000000000e+00  8.1276106186123886e-01 7.4290766255892060e-01 0.0000000000000000e+00  3.1894245255994526e-02 7.9909497022311232e-02 0.0000000000000000e+00  -5.3136873105028667e-02 -9.3997579343950824e-02 0.0000000000000000e+00  1.0795437425811960e+00 -8.4873255147505067e-01 0.0000000000000000e+00  -1.0075099226374801e-01 -2.7237310238025264e-01 0.0000000000000000e+00  -1.0589897818661727e+00 9.4240505333616040e-02 0.0000000000000000e+00  -2.0077511677711740e-01 -9.3910989155030555e-01 0.0000000000000000e+00  3.6501007205862267e-02 -3.3367136823276482e-03 0.0000000000000000e+00  2.7062241192411927e-02 -1.0681003034054144e-01 0.0000000000000000e+00  -4.8295442375744244e-03 -4.7293956521198749e-02 0.0000000000000000e+00  2.4898359449142832e-02 1.2280995886749303e-01 0.0000000000000000e+00  1.2873772600562822e-01 -4.2411294051409815e-01 0.0000000000000000e+00  3.7677635898228407e-01 -1.6335105903940256e-01 0.0000000000000000e+00  8.9001136440114681e-01 -3.3810606602156279e-01 0.0000000000000000e+00  2.3784651788996381e+01 1.9417441713185872e+00 0.0000000000000000e+00  -3.8208718210524786e+01 4.4339571182139117e+01 0.0000000000000000e+00  1.6489262063133371e+01 -2.0002696728852928e+01 0.0000000000000000e+00  -7.4982069985536559e-01 -3.8177793654008285e-01 0.0000000000000000e+00  -3.4371082033733230e-01 -4.9649216969708154e-01 0.0000000000000000e+00  4.3694844885860782e+00 1.6247858737527350e+00 0.0000000000000000e+00  -4.3804905675346539e-01 6.2208368865946335e+00 0.0000000000000000e+00  6.2996981392986795e+00 2.7102802749358821e+00 0.0000000000000000e+00  7.6863667784931478e-01 -7.0816393747729034e-01 0.0000000000000000e+00  6.1366747853603278e-02 6.3743902993375479e-01 0.0000000000000000e+00  3.9809632554257962e-01 5.0029900655943456e-03 0.0000000000000000e+00  5.1976830337703908e-02 -1.8830022034845368e-02 0.0000000000000000e+00  3.3876869425688616e-01 1.6866718756800675e-01 0.0000000000000000e+00  -7.6704160333185656e-01 -7.3923036708814738e-01 0.0000000000000000e+00  6.3999758235073523e-01 -2.7279031077175087e-01 0.0000000000000000e+00  -1.7419604311709877e-01 7.7585069862232028e-02 0.0000000000000000e+00  1.1458201613342636e-01 2.1877429130903242e-03 0.0000000000000000e+00  -5.7654565151134436e-02 3.0388614771747285e-02 0.0000000000000000e+00  9.8841852243373527e-03 -3.0433368275710370e-02 0.0000000000000000e+00  7.6734530201702872e-02 -1.0565809604005098e-01 0.0000000000000000e+00  8.0902297581056798e-03 3.6439323682753366e-01 0.0000000000000000e+00  8.5748332478489075e+00 1.2084005055643063e+01 0.0000000000000000e+00  -2.3871714855669207e+01 -4.9399575623123340e+01 0.0000000000000000e+00  4.2131519570833817e+01 -6.4490455193100672e+01 0.0000000000000000e+00  -1.5839312267817355e+01 1.9872804785466105e+01 0.0000000000000000e+00  3.7204062164017927e-02 -1.1330786457814154e-01 0.0000000000000000e+00  1.4471223114301451e-01 -1.4263868957542866e-01 0.0000000000000000e+00  2.3896354178801468e-02 2.1139649504131334e-02 0.0000000000000000e+00  -2.9216208547493461e-02 6.7418503434744648e-02 0.0000000000000000e+00  6.5625001100202696e-03 -2.8393345707933813e-02 0.0000000000000000e+00  -6.9517888792680407e-02 1.2841425215326671e-01 0.0000000000000000e+00  1.3370924902367349e-02 5.4110013205782240e-03 0.0000000000000000e+00  1.9209181537625884e+01 3.8381077351363700e+01 0.0000000000000000e+00  -2.2963406778544101e+01 -6.7987691893781289e+01 0.0000000000000000e+00  7.3725676006149783e+01 -7.0031075966578996e+01 0.0000000000000000e+00  -5.9488809188013638e+00 7.0628376806156552e+01 0.0000000000000000e+00  1.0914320911343011e-02 -5.2479359649512274e-02 0.0000000000000000e+00  2.5172873769387699e-01 -9.3262918010260959e-02 0.0000000000000000e+00  -2.0285733854143498e-01 -1.1767140293707921e-01 0.0000000000000000e+00  -9.4614664834208412e-02 3.1132841106071213e-01 0.0000000000000000e+00  5.6487207620560209e-01 9.4977221474978474e-02 0.0000000000000000e+00  7.1235860053488542e+00 -1.2053427279536550e+00 0.0000000000000000e+00  -2.3776821147588281e-01 -5.2614732573890093e-02 0.0000000000000000e+00  1.2204754416428262e-02 1.2883560007690587e-01 0.0000000000000000e+00  -6.9500912707483483e-04 1.2071534340017792e-02 0.0000000000000000e+00  3.7184321506427205e+00 -1.9561308378442619e+00 0.0000000000000000e+00  -2.7980623896699957e+00 -7.3526684873395087e+00 0.0000000000000000e+00  1.4092164552802192e-01 3.9630116231179534e-02 0.0000000000000000e+00  -5.7645652245330838e-02 -4.7498329881076390e-01 0.0000000000000000e+00  4.6753926534260121e-01 -4.2371660408539430e-01 0.0000000000000000e+00  7.4587379655155139e-01 1.6409243019042660e-01 0.0000000000000000e+00  -5.3695768150118728e-01 2.8839774938750712e-01 0.0000000000000000e+00  -5.7973515878791879e+00 -4.7852986349167015e-01 0.0000000000000000e+00  1.2618573739626132e+01 -6.2243413611591625e-01 0.0000000000000000e+00  8.9770447198269809e-01 3.5609505159751413e-02 0.0000000000000000e+00  -4.1218894661298044e+00 4.8858448530244889e+00 0.0000000000000000e+00  -3.6600142477798886e-01 -2.5656479066772214e-01 0.0000000000000000e+00  1.1361619718592200e+00 -6.6837892459375242e-02 0.0000000000000000e+00  -4.0679517172740370e-01 -9.4787763486809407e-01 0.0000000000000000e+00  3.6503914240744451e-01 -3.9252616836374671e-01 0.0000000000000000e+00  2.2819272723983435e+01 -9.0133411164005821e+00 0.0000000000000000e+00  6.2658134512627157e+00 -2.3432240659820328e-01 0.0000000000000000e+00  2.8346133904635518e+00 -5.6841664075259404e+00 0.0000000000000000e+00  2.1881852351435038e-01 6.2944184934117442e-01 0.0000000000000000e+00  1.8546432033785129e-01 3.0596330140547148e-02 0.0000000000000000e+00  3.7747111559181363e+01 1.4848195907781008e+01 0.0000000000000000e+00  -8.4966941829208054e+00 3.2845107099919963e+00 0.0000000000000000e+00  -2.0947381718323090e-02 -1.8466001075628342e+00 0.0000000000000000e+00  7.4936096026796817e-01 -4.5840804041890387e-01 0.0000000000000000e+00  -1.9997338712522145e-01 -4.8663249356508098e-01 0.0000000000000000e+00  2.4963436209118731e-01 -2.1218643590544831e-01 0.0000000000000000e+00  -2.5881532737030422e+00 1.1502315967924357e+00 0.0000000000000000e+00  2.2577985675649992e-01 -2.0885097237124786e-01 0.0000000000000000e+00  1.6630520467785812e-01 -1.2980553989642479e-01 0.0000000000000000e+00  -6.3969949396702446e-05 -2.6048485887201215e-02 0.0000000000000000e+00  -2.7029130623534814e-01 7.1905563757938898e-02 0.0000000000000000e+00  -1.6083036075064516e+00 2.7778070472985807e+00 0.0000000000000000e+00  4.4568385215504873e-02 -2.5043061450184503e-02 0.0000000000000000e+00  5.6787018848972720e-02 -1.7621603121178095e-01 0.0000000000000000e+00  9.9951041575864884e-03 -2.1164652001953788e-01 0.0000000000000000e+00  -1.4641675202280329e-02 -6.7824671755849567e-02 0.0000000000000000e+00  -6.1287207040229486e-01 -4.9917740456351728e-01 0.0000000000000000e+00  3.3704979799412510e-01 1.0534969901122735e+00 0.0000000000000000e+00  1.4951940223262633e-02 -2.2278184219490041e-01 0.0000000000000000e+00  2.7134499203954054e-02 4.0039796055198418e-02 0.0000000000000000e+00  -4.1644024728019750e-02 1.2229821364841356e-01 0.0000000000000000e+00  -2.7453033645085045e+00 -1.1834355449538162e+01 0.0000000000000000e+00  6.2823844762745357e-02 -1.7991224834552633e-01 0.0000000000000000e+00  3.4405883131964958e-02 6.2819269547754339e-02 0.0000000000000000e+00  -2.1021316497492691e+01 -1.2572964008825183e+01 0.0000000000000000e+00  -7.8494416342334041e+00 1.9061432129440714e+01 0.0000000000000000e+00  -2.2925380962299513e+01 -9.2675258917308145e+00 0.0000000000000000e+00  4.9337859171004169e+01 -2.5053044711933051e+01 0.0000000000000000e+00  -2.3479330325147242e+01 -6.4140674022001789e+01 0.0000000000000000e+00  1.1483484915174034e-02 -7.0174456487332315e-01 0.0000000000000000e+00  7.3564507774283430e-02 1.4719480009769154e-01 0.0000000000000000e+00  4.3818851886185438e-03 6.1174213292243037e-03 0.0000000000000000e+00  -5.8183067698056222e-02 8.6466070315025373e-02 0.0000000000000000e+00  -2.9665247275226353e-01 -1.8029442698128364e-02 0.0000000000000000e+00  2.2472223611285216e+00 1.4796549187166597e-01 0.0000000000000000e+00  5.0718887530973727e-02 -2.1095517339971004e-02 0.0000000000000000e+00  -7.9534439339300558e-03 1.4181984386651902e-01 0.0000000000000000e+00  1.2977213014938638e+00 -3.4542194587197792e+00 0.0000000000000000e+00  9.8021548878289306e-03 -9.9581570444341128e-02 0.0000000000000000e+00  2.5888376428690590e-01 -1.8033320755586321e-01 0.0000000000000000e+00  -1.8260202700221354e-01 1.9903889032577490e-01 0.0000000000000000e+00  1.2884589065887562e+00 6.1243779023098568e+01 0.0000000000000000e+00  5.5926169353327829e+01 -3.8510840026417391e+01 0.0000000000000000e+00  -1.0982308664995853e+02 1.1600194968424390e+02 0.0000000000000000e+00  -1.3837685692572332e+01 -1.7521986963604313e+01 0.0000000000000000e+00  1.0513306363086417e-02 1.2046210307161574e-01 0.0000000000000000e+00  -8.8417930468143197e-02 7.8828819619399026e-02 0.0000000000000000e+00  1.1234056959752137e+00 -6.6522983927189736e-02 0.0000000000000000e+00  -1.5748378171335176e+00 2.4737415112687816e-01 0.0000000000000000e+00  1.8316640391340962e-02 -1.1580021596714425e-01 0.0000000000000000e+00  3.4841221543199880e-02 -1.7185688007334662e-01 0.0000000000000000e+00  -1.6766967457338400e-01 2.9128520291233151e-01 0.0000000000000000e+00  -9.8549492809599393e+00 -7.4886085566203586e-01 0.0000000000000000e+00  5.7617974855988602e-02 1.1844395451078453e+00 0.0000000000000000e+00  5.8716466068572224e+01 3.9065742420381980e+01 0.0000000000000000e+00  -2.3881537374997461e+00 2.0190894969393467e+00 0.0000000000000000e+00  -3.6340662956027953e-03 -2.8192290241621322e-02 0.0000000000000000e+00  5.5150260239353405e-02 2.9518672809215174e-01 0.0000000000000000e+00  -4.2333396074082906e+01 -2.0741373870221484e+01 0.0000000000000000e+00  1.5591567150534926e+01 -3.1825391396027797e+01 0.0000000000000000e+00  1.9702369118959915e+01 3.0874245534458176e+00 0.0000000000000000e+00  3.7948092807463595e+01 2.0268985452321534e+01 0.0000000000000000e+00  6.7897722559012885e-02 -6.8690662568288388e-02 0.0000000000000000e+00  3.0259861355208782e-02 -4.7049273383030284e-02 0.0000000000000000e+00  -9.0908868410039020e-02 -1.6548602682724670e-01 0.0000000000000000e+00  -1.5041447631579105e-01 -7.4135108843927627e-02 0.0000000000000000e+00  -2.5212087260783616e+01 1.1079081795245445e+01 0.0000000000000000e+00  -6.1765227771077236e-01 -6.7523995543737081e-01 0.0000000000000000e+00  4.4171049689271699e-02 6.7805373438832126e-02 0.0000000000000000e+00  5.8648623928406883e-02 -1.2035706871497527e-01 0.0000000000000000e+00  -7.6726276679728769e-02 -3.1093359231824386e-01 0.0000000000000000e+00  -1.8831912905706080e-01 -2.1406635191593076e-01 0.0000000000000000e+00  -5.2717160195744448e+00 -6.5393163951362645e+00 0.0000000000000000e+00  -6.2007551282713642e+00 -2.0358532814015000e-02 0.0000000000000000e+00  -2.5123664285727804e-01 -1.5139294555889610e-01 0.0000000000000000e+00  1.9498151319967758e-03 -3.1773620998307266e-02 0.0000000000000000e+00  -2.0514540345925427e-03 1.6870672131636743e-02 0.0000000000000000e+00  6.5138264130921086e-03 9.0315008177695694e-02 0.0000000000000000e+00  -6.9617598602586900e-02 -1.0454171887548654e-02 0.0000000000000000e+00  -4.0585511679863441e-03 -1.9590010337014477e-02 0.0000000000000000e+00  -9.8744346025794947e+00 -2.6180875452945807e+00 0.0000000000000000e+00  -8.6198824362