<?xml version="1.0"?>
<VTKFile type="UnstructuredGrid"  version="0.1"  >
<UnstructuredGrid>
<Piece  NumberOfPoints="1855" NumberOfCells="3532">
<Points>
<DataArray  type="Float64"  NumberOfComponents="3"  format="ascii">0 0 0  30 0 0  30 -10 0  0 -10 0  0.1391574078963744 0 0  0.2856388821882616 0 0  0.4398299073010886 0 0  0.6021362569539473 0 0  0.7729850389704483 0 0  0.9528258543586996 0 0  1.142131984380316 0 0  1.34140159760994 0 0  1.551159074717981 0 0  1.771956417032531 0 0  2.004374674080994 0 0  2.249025475789527 0 0  2.506552636773105 0 0  2.777633857742732 0 0  3.062982518028728 0 0  3.363349525995907 0 0  3.679525322337712 0 0  4.01234195575742 0 0  4.362675247811097 0 0  4.731447135329707 0 0  5.119628065610077 0 0  5.528239565804708 0 0  5.958356943167011 0 0  6.411112081475485 0 0  6.887696441559404 0 0  7.389364184530748 0 0  7.917435485335147 0 0  8.473300005202017 0 0  9.058420557070402 0 0  9.674336929103793 0 0  10.32266995225095 0 0  11.00512576896296 0 0  11.72350030646412 0 0  12.47968402994705 0 0  13.27566689579597 0 0  14.1135435963616 0 0  14.9955190732806 0 0  15.92391430904694 0 0  16.90117245730496 0 0  17.92986524844506 0 0  19.01269976086341 0 0  20.15252556282024 0 0  21.35234220269763 0 0  22.61530708683689 0 0  23.94474379751883 0 0  25.34415086349739 0 0  26.81721093579712 0 0  28.3678004819169 0 0  30 -1.111111111111111 0  30 -2.222222222222222 0  30 -3.333333333333333 0  30 -4.444444444444445 0  30 -5.555555555555555 0  30 -6.666666666666666 0  30 -7.777777777777777 0  30 -8.888888888888889 0  28.36780047917311 -10 0  26.8172109305839 -10 0  25.34415085606858 -10 0  23.94474378810899 -10 0  22.61530707566275 -10 0  21.3523421899591 -10 0  20.15252554870171 -10 0  19.01269974553473 -10 0  17.92986523206254 -10 0  16.90117244001232 -10 0  15.92391429097614 -10 0  14.99551905455266 -10 0  14.11354357708742 -10 0  13.27566687607703 -10 0  12.47968400987599 -10 0  11.72350028612546 -10 0  11.00512574843363 -10 0  10.32266993160086 -10 0  9.674336908396342 -10 0  9.058420536362949 -10 0  8.473299984546333 -10 0  7.917435464777824 -10 0  7.389364164113587 -10 0  6.887696420787165 -10 0  6.411112061446698 -10 0  5.95835692337857 -10 0  5.528239546282652 -10 0  5.119628046377237 -10 0  4.731447115907979 -10 0  4.362675229213632 -10 0  4.012341937260036 -10 0  3.679525304434552 -10 0  3.363349508456405 -10 0  3.062982500861274 -10 0  2.777633840953978 -10 0  2.506552620368097 -10 0  2.249025459771861 -10 0  2.004374658452946 -10 0  1.771956401795187 -10 0  1.551159059871345 -10 0  1.341401583153029 -10 0  1.142131970307521 -10 0  0.9528258406748833 -10 0  0.7729850256685147 -10 0  0.6021362439621285 -10 0  0.4398298947504031 -10 0  0.2856388700059078 -10 0  0.1391573960769001 -10 0  0 -9.855072463768115 0  0 -9.710144927536232 0  0 -9.565217391304348 0  0 -9.420289855072463 0  0 -9.27536231884058 0  0 -9.130434782608695 0  0 -8.985507246376812 0  0 -8.840579710144928 0  0 -8.695652173913043 0  0 -8.55072463768116 0  0 -8.405797101449275 0  0 -8.260869565217391 0  0 -8.115942028985508 0  0 -7.971014492753623 0  0 -7.826086956521739 0  0 -7.681159420289855 0  0 -7.536231884057971 0  0 -7.391304347826087 0  0 -7.246376811594203 0  0 -7.101449275362318 0  0 -6.956521739130435 0  0 -6.811594202898551 0  0 -6.666666666666667 0  0 -6.521739130434783 0  0 -6.376811594202898 0  0 -6.231884057971015 0  0 -6.086956521739131 0  0 -5.942028985507246 0  0 -5.797101449275362 0  0 -5.652173913043478 0  0 -5.507246376811594 0  0 -5.36231884057971 0  0 -5.217391304347826 0  0 -5.072463768115941 0  0 -4.927536231884058 0  0 -4.782608695652174 0  0 -4.637681159420289 0  0 -4.492753623188406 0  0 -4.347826086956522 0  0 -4.202898550724638 0  0 -4.057971014492754 0  0 -3.913043478260869 0  0 -3.768115942028985 0  0 -3.623188405797101 0  0 -3.478260869565217 0  0 -3.333333333333334 0  0 -3.188405797101449 0  0 -3.043478260869565 0  0 -2.898550724637681 0  0 -2.753623188405797 0  0 -2.608695652173912 0  0 -2.463768115942029 0  0 -2.318840579710145 0  0 -2.173913043478261 0  0 -2.028985507246377 0  0 -1.884057971014492 0  0 -1.739130434782609 0  0 -1.594202898550725 0  0 -1.44927536231884 0  0 -1.304347826086957 0  0 -1.159420289855072 0  0 -1.014492753623188 0  0 -0.8695652173913047 0  0 -0.72463768115942 0  0 -0.579710144927537 0  0 -0.4347826086956523 0  0 -0.2898550724637676 0  0 -0.1449275362318829 0  5.15859856094262 -4.976557621770688 0  2.816777084926057 -7.160262673925935 0  2.81677708460006 -2.839737326002783 0  2.227649803257325 -5.003121586636773 0  1.518662968975629 -8.46230852045241 0  1.518662969184829 -1.537691480152612 0  9.960740911025725 -5.055901393541221 0  1.491099662214591 -3.691833922963321 0  1.503675657181264 -6.345020369042368 0  5.319208041801049 -7.493850249937013 0  5.291109955459268 -2.489368743223226 0  1.096914507335763 -2.53623188405797 0  1.096914507253562 -7.463768115942029 0  1.089580194952752 -4.71277167923441 0  15.07565076110197 -5.047572991082069 0  7.501630508673601 -5.937500100385354 0  0.8894869418764504 -5.623930488933245 0  2.955144522453978 -1.440834296472408 0  2.955144521140721 -8.559165705576945 0  8.106603955004623 -2.748811534843258 0  3.662152539483591 -4.228178367024407 0  3.662181528265114 -5.771746159989156 0  0.8436558190317136 -0.8541050638451999 0  0.8436558075840921 -9.145894948342754 0  0.7854168197005933 -1.811594202898552 0  0.7894693398152999 -3.286543351392342 0  0.7854168196772591 -8.188405797101449 0  0.7854168196772591 -6.739130434782609 0  20.00078956016804 -4.999999999785771 0  0.7379120031523989 -3.977302749614766 0  6.584332478112232 -3.934875417052907 0  7.295091310194352 -7.969791332537982 0  9.811174303464586 -7.412814499648229 0  4.013376806449688 -2.206189431585293 0  4.013376806983409 -7.793810569017377 0  12.11177433894592 -2.818343737884045 0  2.591152707837148 -3.990098461753838 0  2.58990939378082 -6.025895074707176 0  25.43156400064585 -5.044446479916348 0  2.03262751726143 -2.282125834846944 0  2.032627517335952 -7.717874165160392 0  12.51865094522923 -6.491408052923457 0  0.598175343983641 -6.156971652625402 0  2.126700074935224 -0.8767654465386991 0  2.126700059112423 -9.123234559633019 0  6.617961838548696 -1.617756429129908 0  0.5903949564549755 -4.980060355019413 0  1.676697585305984 -5.547101897225158 0  4.773518305133987 -3.729331162566817 0  4.77931803486508 -6.231222307502165 0  4.878549698409591 -8.72048903376362 0  4.852580875634024 -1.222215410052823 0  0.5487847095754042 -2.675169258708207 0  0.545113423825768 -7.32369553390529 0  1.78738026998851 -4.400451872599477 0  1.68244194111824 -3.010100184333533 0  1.683984276238402 -7.018293626028473 0  9.998503440677371 -2.00585287985007 0  3.693061162502273 -3.243678395563028 0  3.694987482168253 -6.757603268814477 0  6.081763036485869 -5.83414381546261 0  0.5196640460586313 -1.350633211792632 0  0.5196640458460706 -8.649366789040087 0  3.84593363904758 -0.9906418103762418 0  3.845933620847308 -9.009358200471317 0  17.41551885287501 -3.057748733689079 0  17.30725517812527 -7.002961443761516 0  8.117698464370697 -4.451550942597151 0  0.4918476668493152 -0.4789811193757592 0  0.4918476560347713 -9.521018882514893 0  1.463770869328428 -0.6252343353791154 0  1.463770854281917 -9.374765668872765 0  0.5034132782032188 -4.464280853772128 0  3.138906271796685 -4.99999841599503 0  14.61209972381335 -2.388610981020637 0  6.208601124947327 -8.776231214192325 0  14.74910972998159 -7.542186851303819 0  2.243794246335625 -1.632184311040998 0  2.243794245689214 -8.367815689183566 0  0.4590235278399923 -5.431413993025926 0  0.4971508861448406 -2.209632053221267 0  0.4971508861368665 -7.790367946777407 0  0.4644363683211541 -3.560571347760519 0  6.478811279411406 -7.007392971062433 0  1.238895267772762 -4.173677632458826 0  1.293241773632479 -2.02256720952064 0  1.293241773542714 -7.977432790434841 0  0.4324740478030531 -0.942028985507247 0  0.4324740423701829 -9.057971014492754 0  2.117396640811705 -3.472968170680347 0  2.107095929630507 -6.531506384346077 0  8.087741545730886 -1.392783601483453 0  1.028911946384717 -1.352376108341404 0  1.028911946221715 -8.647623891551962 0  4.05691976296832 -4.991522392209158 0  11.51826881314265 -8.065248940008736 0  1.618560396201739 -4.958056164503666 0  2.701984523487646 -2.141781914603403 0  2.70198452396172 -7.858218085853512 0  2.843615645746219 -9.289121726447632 0  2.843615661334342 -0.7108782798429658 0  8.678774612240533 -8.488146490452822 0  6.487906449371135 -2.667543558824978 0  8.369190916679937 -7.129867754908394 0  11.80978191929258 -4.655775487536958 0  0.3792065166453504 -3.113833531412848 0  0.4134714637263563 -6.58827691137208 0  9.551050695080825 -3.49648183875815 0  1.083867845277057 -6.036251777836495 0  0.3756430921870901 -1.80381664325008 0  0.3756430921689482 -8.196183356748573 0  3.113073783220456 -3.503408140759125 0  3.113391383189963 -6.496678880796299 0  22.62850736315072 -3.277987336300344 0  22.59385352108348 -6.800312122582239 0  0.3777114402537816 -4.137047872695438 0  0.9196816123347897 -0.4281025456111269 0  0.9196815944880363 -9.571897460530383 0  0.4052043328723194 -5.827814332459883 0  8.865857694874787 -5.767686953139113 0  1.200388325130726 -5.182186034620629 0  5.65297436943758 -4.325500846767599 0  1.200079167961391 -3.009849046583253 0  1.20883344838 -7.021823297793294 0  1.057642414577487 -3.660996704809145 0  10.88812987788297 -6.333458225047037 0  4.493502926606794 -2.839780197438185 0  4.485862892033458 -7.147606077919463 0  0.3631651408878085 -7.003529808558233 0  1.946748828463205 -6.049056369468467 0  6.918750162798794 -4.993796052442676 0  3.351203216022585 -1.980935554775394 0  3.351203216441711 -8.019064445907297 0  2.281892243515294 -2.856654416292082 0  2.281892243715877 -7.143345583598931 0  5.811143619672087 -0.9953286820321026 0  2.695713766833098 -4.565354125099452 0  2.698172168139827 -5.435483248292925 0  19.86166219288896 -2.493475492328429 0  19.83739102036415 -7.594404063416508
[...]
<PointData  Vectors="flow"> 
<DataArray  type="Float64"  Name="flow"  NumberOfComponents="3" format="ascii">-1.6314440532743946e-13 -7.4106713607836125e-14 0.0000000000000000e+00  -1.2253983506979172e-23 -5.5662493879838644e-24 0.0000000000000000e+00  -4.6567873302842710e-24 -2.1152990464205222e-24 0.0000000000000000e+00  2.9884303142276120e-19 1.3574645663696101e-19 0.0000000000000000e+00  7.4976825777042890e-13 3.4057472850093626e-13 0.0000000000000000e+00  -3.7336481803960066e-12 -1.6959723250190333e-12 0.0000000000000000e+00  6.4952832951096287e-12 2.9504174414462299e-12 0.0000000000000000e+00  -3.8655269991883699e-11 -1.7558769588038696e-11 0.0000000000000000e+00  3.9655929075517122e-11 1.8013308963637035e-11 0.0000000000000000e+00  3.3874196548725728e-10 1.5387014818520154e-10 0.0000000000000000e+00  5.3935400863059513e-10 2.4499616134923088e-10 0.0000000000000000e+00  -2.6852976278351966e-09 -1.2197695768873200e-09 0.0000000000000000e+00  -9.4453853805055516e-09 -4.2904717934022707e-09 0.0000000000000000e+00  -1.2554310286158419e-08 -5.7026698221920180e-09 0.0000000000000000e+00  -4.0391700622189605e-08 -1.8347525826180542e-08 0.0000000000000000e+00  -9.4625512474514931e-09 -4.2982692166913182e-09 0.0000000000000000e+00  4.3104097837932997e-07 1.9579605119701829e-07 0.0000000000000000e+00  -8.3998133460638935e-07 -3.8155311593228093e-07 0.0000000000000000e+00  -1.6060598323377099e-06 -7.2953660772626985e-07 0.0000000000000000e+00  -1.5548840517519886e-06 -7.0629052148805693e-07 0.0000000000000000e+00  -3.7200973769285035e-07 -1.6898170081406772e-07 0.0000000000000000e+00  1.2996313409953293e-06 5.9034453182508109e-07 0.0000000000000000e+00  -1.4556932651254775e-06 -6.6123409922022946e-07 0.0000000000000000e+00  -4.7193526843827249e-07 -2.1437187324565919e-07 0.0000000000000000e+00  7.6708162503421259e-07 3.4843915233348657e-07 0.0000000000000000e+00  6.6873905593544980e-07 3.0376802438991008e-07 0.0000000000000000e+00  1.1329820563535699e-06 5.1464576186045661e-07 0.0000000000000000e+00  4.8231650294561049e-07 2.1908744514030673e-07 0.0000000000000000e+00  -3.3912584815090021e-07 -1.5404452304382127e-07 0.0000000000000000e+00  -1.8080288307658956e-08 -8.2127900425000615e-09 0.0000000000000000e+00  -4.0989308590844270e-09 -1.8618983265949726e-09 0.0000000000000000e+00  -1.1597351640041962e-09 -5.2679809330452673e-10 0.0000000000000000e+00  7.7322805333948687e-10 3.5123110588663535e-10 0.0000000000000000e+00  5.3213474291896643e-11 2.4171688213964622e-11 0.0000000000000000e+00  1.1987162164968136e-11 5.4450484633356629e-12 0.0000000000000000e+00  -3.6477481067255404e-12 -1.6569530761173500e-12 0.0000000000000000e+00  1.0967864094233201e-12 4.9820425143583213e-13 0.0000000000000000e+00  -2.0929082514423190e-13 -9.5068263043297176e-14 0.0000000000000000e+00  3.9184693509023452e-14 1.7799254922998172e-14 0.0000000000000000e+00  4.0538520030207384e-15 1.8414217073117194e-15 0.0000000000000000e+00  -1.4450587791772298e-15 -6.5640349039271975e-16 0.0000000000000000e+00  8.4610888229574149e-16 3.8433649315457537e-16 0.0000000000000000e+00  -1.9851024674058104e-16 -9.0171293179802631e-17 0.0000000000000000e+00  4.4067543902184623e-17 2.0017240853619835e-17 0.0000000000000000e+00  -4.2435448588810388e-18 -1.9275877889157983e-18 0.0000000000000000e+00  9.7853985294719003e-19 4.4449193639626901e-19 0.0000000000000000e+00  -1.2364654128210042e-19 -5.6165204102472163e-20 0.0000000000000000e+00  2.0794946386681752e-20 9.4458963105426034e-21 0.0000000000000000e+00  3.6965788902947893e-22 1.6791339709261516e-22 0.0000000000000000e+00  2.4931945777031987e-22 1.1325086886530516e-22 0.0000000000000000e+00  -2.5213940640061769e-22 -1.1453180231266962e-22 0.0000000000000000e+00  5.8655003003439584e-23 2.6643448180270369e-23 0.0000000000000000e+00  5.5490497101790736e-24 2.5206003040223291e-24 0.0000000000000000e+00  -4.8802567385073366e-25 -2.2168077889487232e-25 0.0000000000000000e+00  1.5186860093035798e-24 6.8984792292327937e-25 0.0000000000000000e+00  -1.9758436890473298e-24 -8.9750722437708674e-25 0.0000000000000000e+00  -4.9265904967355447e-25 -2.2378544349829570e-25 0.0000000000000000e+00  1.5449337919067899e-24 7.0177071552111881e-25 0.0000000000000000e+00  -1.7432918455599471e-25 -7.9187287651388565e-26 0.0000000000000000e+00  2.2966962688827786e-24 1.0432512981409326e-24 0.0000000000000000e+00  2.2916835485853210e-23 1.0409743201058335e-23 0.0000000000000000e+00  -9.4714860864464089e-23 -4.3023277778979674e-23 0.0000000000000000e+00  1.7149486232357275e-22 7.7899825139089455e-23 0.0000000000000000e+00  1.8314517885832467e-21 8.3191864845561114e-22 0.0000000000000000e+00  -2.3782006379608932e-20 -1.0802738422173697e-20 0.0000000000000000e+00  1.2738020715649588e-19 5.7861184464813465e-20 0.0000000000000000e+00  -6.7439058785188940e-19 -3.0633517621063351e-19 0.0000000000000000e+00  1.5480376212306072e-18 7.0318059893284901e-19 0.0000000000000000e+00  -1.5208187577753013e-17 -6.9081670257511192e-18 0.0000000000000000e+00  3.8009161677808905e-17 1.7265281351683432e-17 0.0000000000000000e+00  -3.0431246754599395e-16 -1.3823089326577052e-16 0.0000000000000000e+00  8.0844314906642365e-16 3.6722721073908661e-16 0.0000000000000000e+00  -2.0016876900929562e-15 -9.0924660324285370e-16 0.0000000000000000e+00  -1.3229398853771317e-14 -6.0093220487247243e-15 0.0000000000000000e+00  3.0471757274486734e-14 1.3841490824865455e-14 0.0000000000000000e+00  -2.5178645983633990e-13 -1.1437147986762296e-13 0.0000000000000000e+00  1.5788448926070104e-12 7.1717449368117309e-13 0.0000000000000000e+00  -5.9669052582378466e-12 -2.7104070054368670e-12 0.0000000000000000e+00  -1.1471326774899321e-11 -5.2107353991279410e-12 0.0000000000000000e+00  1.5101003309617376e-11 6.8594796444949123e-12 0.0000000000000000e+00  -5.2642575821097616e-11 -2.3912363296326490e-11 0.0000000000000000e+00  4.9367126818993103e-11 2.2424523363054749e-11 0.0000000000000000e+00  8.9070724814596210e-11 4.0459485456639579e-11 0.0000000000000000e+00  -4.3956705359742277e-11 -1.9966893554826497e-11 0.0000000000000000e+00  -6.3163536997615559e-11 -2.8691404632267685e-11 0.0000000000000000e+00  6.4082121721828020e-12 2.9108662551379540e-12 0.0000000000000000e+00  4.0643422499475404e-10 1.8461867970070798e-10 0.0000000000000000e+00  1.4286251740817272e-10 6.4893868972173010e-11 0.0000000000000000e+00  3.3155457223748879e-11 1.5060534672248219e-11 0.0000000000000000e+00  1.1443677615828178e-11 5.1981760452924781e-12 0.0000000000000000e+00  -9.1226810277016646e-12 -4.1438865702973603e-12 0.0000000000000000e+00  -1.2867259186650899e-11 -5.8448237287028589e-12 0.0000000000000000e+00  1.1268085860041028e-11 5.1184152472933112e-12 0.0000000000000000e+00  6.5313737360573340e-12 2.9668111631060328e-12 0.0000000000000000e+00  3.2051649188764284e-12 1.4559140917663413e-12 0.0000000000000000e+00  -2.5664483602465755e-12 -1.1657834863559673e-12 0.0000000000000000e+00  -2.4375995198880289e-14 -1.1072551899550438e-14 0.0000000000000000e+00  2.1381497030516013e-13 9.7123310711577620e-14 0.0000000000000000e+00  8.4569917047340510e-14 3.8415038565908031e-14 0.0000000000000000e+00  1.5708337912258090e-14 7.1353553104222411e-15 0.0000000000000000e+00  6.3456935710846176e-15 2.8824678061844680e-15 0.0000000000000000e+00  -5.8944449349313846e-16 -2.6774926286525344e-16 0.0000000000000000e+00  -9.9544463308279329e-16 -4.5217076361439054e-16 0.0000000000000000e+00  -4.6390343424463334e-17 -2.1072349293412510e-17 0.0000000000000000e+00  7.6609653870231772e-17 3.4799168672453680e-17 0.0000000000000000e+00  -1.1972202754471402e-17 -5.4382533008095501e-18 0.0000000000000000e+00  8.3663054428846966e-18 3.8003105296020702e-18 0.0000000000000000e+00  -2.0510134622475581e-18 -9.3165234166342567e-19 0.0000000000000000e+00  1.1603817279999542e-18 5.2709178852972552e-19 0.0000000000000000e+00  -3.1882772217503638e-18 -1.4482430243343599e-18 0.0000000000000000e+00  2.5206544789878589e-19 1.1449820740328166e-19 0.0000000000000000e+00  -2.3043059752387373e-17 -1.0467079311062444e-17 0.0000000000000000e+00  -2.0617711597696498e-17 -9.3653891811542958e-18 0.0000000000000000e+00  -9.5526102098525303e-16 -4.3391775991828527e-16 0.0000000000000000e+00  1.1782676958410489e-15 5.3521631044476660e-16 0.0000000000000000e+00  -1.4100095379371241e-15 -6.4048272328128420e-16 0.0000000000000000e+00  -5.1234723579995741e-15 -2.3272860503545527e-15 0.0000000000000000e+00  3.4778843901180623e-14 1.5797941825976582e-14 0.0000000000000000e+00  -1.1123277968148396e-13 -5.0526377114280641e-14 0.0000000000000000e+00  -2.3552185737947560e-13 -1.0698344695410076e-13 0.0000000000000000e+00  1.7050773812310664e-13 7.7451433848732698e-14 0.0000000000000000e+00  6.6794414720950141e-13 3.0340694505544006e-13 0.0000000000000000e+00  4.9647331940558062e-13 2.2551803735640057e-13 0.0000000000000000e+00  4.1182215404090923e-12 1.8706609255535916e-12 0.0000000000000000e+00  1.2011750868322065e-12 5.4562176357861672e-13 0.0000000000000000e+00  7.5848581661547663e-13 3.4453459237364171e-13 0.0000000000000000e+00  -9.8054230340950794e-11 -4.4540152948116330e-11 0.0000000000000000e+00  -8.6152750432511538e-11 -3.9134024792425399e-11 0.0000000000000000e+00  -3.7144786809742382e-11 -1.6872647717271941e-11 0.0000000000000000e+00  -1.0084604908911011e-10 -4.5808308678002247e-11 0.0000000000000000e+00  8.0545748061727523e-11 3.6587100072229262e-11 0.0000000000000000e+00  3.4693968038608553e-10 1.5759387814717495e-10 0.0000000000000000e+00  1.2081469480113156e-09 5.4878866175496991e-10 0.0000000000000000e+00  -3.0254490625615758e-09 -1.3742799623704742e-09 0.0000000000000000e+00  -3.1563322424813618e-08 -1.4337323371603513e-08 0.0000000000000000e+00  -3.5782964755327190e-08 -1.6254053676190162e-08 0.0000000000000000e+00  5.3134944436984643e-08 2.4136016813183519e-08 0.0000000000000000e+00  1.7912660188821230e-07 8.1366466468966725e-08 0.0000000000000000e+00  -3.5468462202124103e-08 -1.6111194038482229e-08 0.0000000000000000e+00  -2.5971618601570424e-07 -1.1797347863542192e-07 0.0000000000000000e+00  -4.8328269227417260e-08 -2.1952632697458648e-08 0.0000000000000000e+00  -3.2816378670390780e-07 -1.4906511632390777e-07 0.0000000000000000e+00  7.9215622321166488e-07 3.5982903764545140e-07 0.0000000000000000e+00  -2.9636533744131333e-06 -1.3462098893905007e-06 0.0000000000000000e+00  -4.1989843476661783e-08 -1.9073466225932937e-08 0.0000000000000000e+00  -2.6337843063686992e-06 -1.1963701660816356e-06 0.0000000000000000e+00  -4.9194301704281358e-07 -2.2346019284079592e-07 0.0000000000000000e+00  1.3677382220289814e-06 6.2128140101991625e-07 0.0000000000000000e+00  -1.6892551150083278e-06 -7.6732723238189597e-07 0.0000000000000000e+00  1.2348982609077170e-06 5.6094017794989181e-07 0.0000000000000000e+00  4.3368662584833730e-06 1.9699781008601962e-06 0.0000000000000000e+00  6.4712599353013428e-08 2.9395050706442325e-08 0.0000000000000000e+00  2.1762512549027925e-06 9.8854035577921367e-07 0.0000000000000000e+00  1.8467263389095405e-06 8.3885696009582512e-07 0.0000000000000000e+00  -4.0468972561595277e-09 -1.8382625831431339e-09 0.0000000000000000e+00  -3.7898799886001195e-07 -1.7215150612095225e-07 0.0000000000000000e+00  -2.7232949392736081e-07 -1.2370294753863423e-07 0.0000000000000000e+00  1.7761021831369512e-07 8.0677664404005720e-08 0.0000000000000000e+00  -7.8487276601955639e-08 -3.5652060009819216e-08 0.0000000000000000e+00  -4.4128111536739529e-08 -2.0044753095543588e-08 0.0000000000000000e+00  4.5620466828563093e-08 2.0722640553531118e-08 0.0000000000000000e+00  3.7057188807654633e-09 1.6832857201377145e-09 0.0000000000000000e+00  -1.8015661639709021e-10 -8.1834340252730135e-11 0.0000000000000000e+00  3.0560794141856341e-09 1.3881934930916529e-09 0.0000000000000000e+00  1.7342746211016062e-09 7.8777689253496059e-10 0.0000000000000000e+00  2.9073393360038879e-09 1.3206298009521674e-09 0.0000000000000000e+00  2.0217805079180612e-10 9.1837356468019193e-11 0.0000000000000000e+00  6.8137617820711220e-10 3.0950831072785521e-10 0.0000000000000000e+00  -3.9674596591326242e-10 -1.8021788495896009e-10 0.0000000000000000e+00  -1.2208575320088765e-10 -5.5456231734680530e-11 0.0000000000000000e+00  1.1688728996790043e-10 5.3094881829762554e-11 0.0000000000000000e+00  -2.0225277730747268e-12 -9.1871300240005500e-13 0.0000000000000000e+00  8.4091026015439702e-12 3.8197507106712666e-12 0.0000000000000000e+00  -2.7262842152496555e-13 -1.2383873240861292e-13 0.0000000000000000e+00  9.9227198331578231e-13 4.5072961920499490e-13 0.0000000000000000e+00  -4.7507110579444386e-13 -2.1579629598579612e-13 0.0000000000000000e+00  4.0461142071653619e-02 1.8379068909730439e-02 0.0000000000000000e+00  1.0975472185953831e-04 4.9854984138916804e-05 0.0000000000000000e+00  -5.4742706614422637e+01 -2.4866326694136969e+01 0.0000000000000000e+00  2.0745603577663275e+01 9.4234828332971183e+00 0.0000000000000000e+00  3.1769304946635591e-10 1.4430888870967358e-10 0.0000000000000000e+00  -1.4307726040444350e-04 -6.4991413829393132e-05 0.0000000000000000e+00  1.7475547211579753e-10 7.9380924509763357e-11 0.0000000000000000e+00  -5.8014874377387038e-01 -2.6352676157363247e-01 0.0000000000000000e+00  -3.9016717990113291e-04 -1.7722953724388154e-04 0.0000000000000000e+00  -5.8756283627875919e-06 -2.6689453890451250e-06 0.0000000000000000e+00  -8.4065635217770093e-03 -3.8185973590945466e-03 0.0000000000000000e+00  -4.4848645490892862e-05 -2.0372048434160421e-05 0.0000000000000000e+00  4.5833588408045569e-08 2.0819448898399930e-08 0.0000000000000000e+00  2.9931212167370717e-02 1.3595953618948008e-02 0.0000000000000000e+00  -4.6951370768508646e-15 -2.1327190350498578e-15 0.0000000000000000e+00  -9.7186824704176219e-07 -4.4146142617346586e-07 0.0000000000000000e+00  3.9422110964271981e-04 1.7907099426315901e-04 0.0000000000000000e+00  -8.6100785403837362e-03 -3.9110420198140592e-03 0.0000000000000000e+00  3.4259292878157480e-08 1.5561940972679996e-08 0.0000000000000000e+00  2.0100791543586794e-07 9.1305834191597586e-08 0.0000000000000000e+00  -4.9086918051500106e+02 -2.2297241334343300e+02 0.0000000000000000e+00  8.8602432487288676e-02 4.0246768352949297e-02 0.0000000000000000e+00  1.9610312990660637e-08 8.9077884444897238e-09 0.0000000000000000e+00  -4.4242753134087875e-14 -2.0096827893972494e-14 0.0000000000000000e+00  -3.6321256591306988e-06 -1.6498567356241423e-06 0.0000000000000000e+00  -1.2186689621015111e-03 -5.5356818136641304e-04 0.0000000000000000e+00  5.2081123758664401e-11 2.3657329315162649e-11 0.0000000000000000e+00  3.0558589159642424e-08 1.3880933339810129e-08 0.0000000000000000e+00  -7.4645835092458748e-19 -3.3907123643695062e-19 0.0000000000000000e+00  5.1924877244715539e-03 2.3586355899689469e-03 0.0000000000000000e+00  4.0503326952412801e-04 1.8398230969690285e-04 0.0000000000000000e+00  2.1466579703777571e-08 9.7509790241030594e-09 0.0000000000000000e+00  -1.2891096836740283e-10 -5.8556517427233993e-11 0.0000000000000000e+00  -8.4539402244595378e-03 -3.8401177522109499e-03 0.0000000000000000e+00  6.4283954189943663e-07 2.9200342930375482e-07 0.0000000000000000e+00  -4.2200065228378516e-12 -1.9168957353056478e-12 0.0000000000000000e+00  3.0989845083963364e+03 1.4076827028050220e+03 0.0000000000000000e+00  -2.0985530629746138e-03 -9.5324672958644328e-04 0.0000000000000000e+00  -5.4157915286976553e-22 -2.4600691085386462e-22 0.0000000000000000e+00  -1.0980214763548402e-01 -4.9876526823071858e-02 0.0000000000000000e+00  2.1784497372273863e-07 9.8953899437594272e-08 0.0000000000000000e+00  2.1730565904910831e-13 9.8708921143775278e-14 0.0000000000000000e+00  1.4448580363821505e-06 6.5631230498679944e-07 0.0000000000000000e+00  -8.9597439320987357e-06 -4.0698740250574347e-06 0.0000000000000000e+00  3.2521903391860732e-11 1.4772749183799185e-11 0.0000000000000000e+00  -2.0881047254349307e-05 -9.4850067681082362e-06 0.0000000000000000e+00  4.6379649143346638e-05 2.1067491523228023e-05 0.0000000000000000e+00  1.1662206049878380e-03 5.2974403997446738e-04 0.0000000000000000e+00  -2.0282769886444099e+00 -9.2132452604278692e-01 0.0000000000000000e+00  -4.2685980622511092e-05 -1.9389679558505662e-05 0.0000000000000000e+00  9.8486861224310759e-10 4.4736671197741620e-10 0.0000000000000000e+00  2.7875986626882258e-05 1.2662387982891938e-05 0.0000000000000000e+00  -7.3109115372091642e-06 -3.3209084087976520e-06 0.0000000000000000e+00  -4.8131004854991545e-09 -2.1863027330219569e-09 0.0000000000000000e+00  2.4120600839677280e+01 1.0956541567498382e+01 0.0000000000000000e+00  1.8891298081916402e-01 8.5811831170491251e-02 0.0000000000000000e+00  -1.7941236323868675e-06 -8.1496270702935304e-07 0.0000000000000000e+00  -2.2616022372951127e-10 -1.0273101854623121e-10 0.0000000000000000e+00  -6.5300723256231393e+01 -2.9662200104389271e+01 0.0000000000000000e+00  -2.8507482369944142e-05 -1.2949238605086079e-05 0.0000000000000000e+00  3.0385141689656886e-04 1.3802146562179419e-04 0.0000000000000000e+00  -5.5784635681255628e-08 -2.5339612546633721e-08 0.0000000000000000e+00  6.1466391849977581e-13 2.7920493431515763e-13 0.0000000000000000e+00  -4.3650297821431495e-05 -1.9827710996630327e-05 0.0000000000000000e+00  -1.1055641369929678e-09 -5.0219144634960031e-10 0.0000000000000000e+00  2.1167608484052749e-16 9.6151743392126090e-17 0.0000000000000000e+00  -6.4297317915598888e-17 -2.9206413269029610e-17 0.0000000000000000e+00  -3.8870045162502670e-07 -1.7656329060134531e-07 0.0000000000000000e+00  7.5519774993680502e-11 3.4304102098704383e-11 0.0000000000000000e+00  -1.3320845974990551e-16 -6.0508609884686556e-17 0.0000000000000000e+00  -2.3094465684816292e-07 -1.0490429941472391e-07 0.0000000000000000e+00  6.2588630199504822e-13 2.8430258972057745e-13 0.0000000000000000e+00  8.4484326028110826e-05 3.8376159701893569e-05 0.0000000000000000e+00  -2.4491210092818005e+01 -1.1124887112218646e+01 0.0000000000000000e+00  -7.0677681112777066e-15 -3.2104629405943818e-15 0.0000000000000000e+00  4.8237734324820439e-09 2.1911508123895870e-09 0.0000000000000000e+00  -1.2505099882185547e-15 -5.6803164886135529e-16 0.0000000000000000e+00  2.8856370740373920e-03 1.3107717656185925e-03 0.0000000000000000e+00  -6.2713370139394230e-09 -2.8486920841536434e-09 0.0000000000000000e+00  1.2096488434209625e-05 5.4947088271601443e-06 0.0000000000000000e+00  1.5441087653819148e-06 7.0139595547786297e-07 0.0000000000000000e+00  2.4577221911903407e-10 1.1163957120356900e-10 0.0000000000000000e+00  2.0837762597226097e-04 9.4653451457399869e-05 0.0000000000000000e+00  -1.2772210790112085e-06 -5.8016489456813517e-07 0.0000000000000000e+00  -3.3976073116736782e-01 -1.5433291230106497e-01 0.0000000000000000e+00  -3.2700079471703250e-04 -1.4853683885140333e-04 0.0000000000000000e+00  4.9709575354494348e-10 2.2580077183578854e-10 0.0000000000000000e+00  2.7559247209809296e-09 1.2518512272154454e-09 0.0000000000000000e+00  -1.3085289860662560e-14 -5.9438619806384858e-15 0.0000000000000000e+00  5.2974890596331889e+01 2.4063313957653268e+01 0.0000000000000000e+00  3.4417219553661778e-04 1.5633677584727149e-04 0.0000000000000000e+00  -4.1917709759391310e-08 -1.9040700206672305e-08 0.0000000000000000e+00  -1.8918475869192557e-06 -8.5935283549635007e-07 0.0000000000000000e+00  3.4654987896360080e-12 1.5741681475157754e-12 0.0000000000000000e+00  5.5336879596338999e+00 2.5136223825552646e+00 0.0000000000000000e+00  -2.6462960055717528e-12 -1.2020534802457170e-12 0.0000000000000000e+00  5.8207543577351872e-01 2.6440194213493867e-01 0.0000000000000000e+00  1.0021525408543777e-01 4.5521776359663854e-02 0.0000000000000000e+00  -1.6919800189289796e-07 -7.6856499272097417e-08 0.0000000000000000e+00  -3.9044308789248624e-11 -1.7735486568806687e-11 0.0000000000000000e+00  -3.3872206452391258e-05 -1.5386110837174198e-05 0.0000000000000000e+00  1.2319670454982096e-09 5.5960870268146621e-10 0.0000000000000000e+00  -1.3555726617664216e-04 -6.1575531700589839e-05 0.0000000000000000e+00  2.6459245174890718e-08 1.2018847355014736e-08 0.0000000000000000e+00  -1.0024126