<?xml version="1.0"?>
<VTKFile type="UnstructuredGrid"  version="0.1"  >
<UnstructuredGrid>
<Piece  NumberOfPoints="1855" NumberOfCells="3532">
<Points>
<DataArray  type="Float64"  NumberOfComponents="3"  format="ascii">0 0 0  30 0 0  30 -10 0  0 -10 0  0.1391574078963744 0 0  0.2856388821882616 0 0  0.4398299073010886 0 0  0.6021362569539473 0 0  0.7729850389704483 0 0  0.9528258543586996 0 0  1.142131984380316 0 0  1.34140159760994 0 0  1.551159074717981 0 0  1.771956417032531 0 0  2.004374674080994 0 0  2.249025475789527 0 0  2.506552636773105 0 0  2.777633857742732 0 0  3.062982518028728 0 0  3.363349525995907 0 0  3.679525322337712 0 0  4.01234195575742 0 0  4.362675247811097 0 0  4.731447135329707 0 0  5.119628065610077 0 0  5.528239565804708 0 0  5.958356943167011 0 0  6.411112081475485 0 0  6.887696441559404 0 0  7.389364184530748 0 0  7.917435485335147 0 0  8.473300005202017 0 0  9.058420557070402 0 0  9.674336929103793 0 0  10.32266995225095 0 0  11.00512576896296 0 0  11.72350030646412 0 0  12.47968402994705 0 0  13.27566689579597 0 0  14.1135435963616 0 0  14.9955190732806 0 0  15.92391430904694 0 0  16.90117245730496 0 0  17.92986524844506 0 0  19.01269976086341 0 0  20.15252556282024 0 0  21.35234220269763 0 0  22.61530708683689 0 0  23.94474379751883 0 0  25.34415086349739 0 0  26.81721093579712 0 0  28.3678004819169 0 0  30 -1.111111111111111 0  30 -2.222222222222222 0  30 -3.333333333333333 0  30 -4.444444444444445 0  30 -5.555555555555555 0  30 -6.666666666666666 0  30 -7.777777777777777 0  30 -8.888888888888889 0  28.36780047917311 -10 0  26.8172109305839 -10 0  25.34415085606858 -10 0  23.94474378810899 -10 0  22.61530707566275 -10 0  21.3523421899591 -10 0  20.15252554870171 -10 0  19.01269974553473 -10 0  17.92986523206254 -10 0  16.90117244001232 -10 0  15.92391429097614 -10 0  14.99551905455266 -10 0  14.11354357708742 -10 0  13.27566687607703 -10 0  12.47968400987599 -10 0  11.72350028612546 -10 0  11.00512574843363 -10 0  10.32266993160086 -10 0  9.674336908396342 -10 0  9.058420536362949 -10 0  8.473299984546333 -10 0  7.917435464777824 -10 0  7.389364164113587 -10 0  6.887696420787165 -10 0  6.411112061446698 -10 0  5.95835692337857 -10 0  5.528239546282652 -10 0  5.119628046377237 -10 0  4.731447115907979 -10 0  4.362675229213632 -10 0  4.012341937260036 -10 0  3.679525304434552 -10 0  3.363349508456405 -10 0  3.062982500861274 -10 0  2.777633840953978 -10 0  2.506552620368097 -10 0  2.249025459771861 -10 0  2.004374658452946 -10 0  1.771956401795187 -10 0  1.551159059871345 -10 0  1.341401583153029 -10 0  1.142131970307521 -10 0  0.9528258406748833 -10 0  0.7729850256685147 -10 0  0.6021362439621285 -10 0  0.4398298947504031 -10 0  0.2856388700059078 -10 0  0.1391573960769001 -10 0  0 -9.855072463768115 0  0 -9.710144927536232 0  0 -9.565217391304348 0  0 -9.420289855072463 0  0 -9.27536231884058 0  0 -9.130434782608695 0  0 -8.985507246376812 0  0 -8.840579710144928 0  0 -8.695652173913043 0  0 -8.55072463768116 0  0 -8.405797101449275 0  0 -8.260869565217391 0  0 -8.115942028985508 0  0 -7.971014492753623 0  0 -7.826086956521739 0  0 -7.681159420289855 0  0 -7.536231884057971 0  0 -7.391304347826087 0  0 -7.246376811594203 0  0 -7.101449275362318 0  0 -6.956521739130435 0  0 -6.811594202898551 0  0 -6.666666666666667 0  0 -6.521739130434783 0  0 -6.376811594202898 0  0 -6.231884057971015 0  0 -6.086956521739131 0  0 -5.942028985507246 0  0 -5.797101449275362 0  0 -5.652173913043478 0  0 -5.507246376811594 0  0 -5.36231884057971 0  0 -5.217391304347826 0  0 -5.072463768115941 0  0 -4.927536231884058 0  0 -4.782608695652174 0  0 -4.637681159420289 0  0 -4.492753623188406 0  0 -4.347826086956522 0  0 -4.202898550724638 0  0 -4.057971014492754 0  0 -3.913043478260869 0  0 -3.768115942028985 0  0 -3.623188405797101 0  0 -3.478260869565217 0  0 -3.333333333333334 0  0 -3.188405797101449 0  0 -3.043478260869565 0  0 -2.898550724637681 0  0 -2.753623188405797 0  0 -2.608695652173912 0  0 -2.463768115942029 0  0 -2.318840579710145 0  0 -2.173913043478261 0  0 -2.028985507246377 0  0 -1.884057971014492 0  0 -1.739130434782609 0  0 -1.594202898550725 0  0 -1.44927536231884 0  0 -1.304347826086957 0  0 -1.159420289855072 0  0 -1.014492753623188 0  0 -0.8695652173913047 0  0 -0.72463768115942 0  0 -0.579710144927537 0  0 -0.4347826086956523 0  0 -0.2898550724637676 0  0 -0.1449275362318829 0  5.15859856094262 -4.976557621770688 0  2.816777084926057 -7.160262673925935 0  2.81677708460006 -2.839737326002783 0  2.227649803257325 -5.003121586636773 0  1.518662968975629 -8.46230852045241 0  1.518662969184829 -1.537691480152612 0  9.960740911025725 -5.055901393541221 0  1.491099662214591 -3.691833922963321 0  1.503675657181264 -6.345020369042368 0  5.319208041801049 -7.493850249937013 0  5.291109955459268 -2.489368743223226 0  1.096914507335763 -2.53623188405797 0  1.096914507253562 -7.463768115942029 0  1.089580194952752 -4.71277167923441 0  15.07565076110197 -5.047572991082069 0  7.501630508673601 -5.937500100385354 0  0.8894869418764504 -5.623930488933245 0  2.955144522453978 -1.440834296472408 0  2.955144521140721 -8.559165705576945 0  8.106603955004623 -2.748811534843258 0  3.662152539483591 -4.228178367024407 0  3.662181528265114 -5.771746159989156 0  0.8436558190317136 -0.8541050638451999 0  0.8436558075840921 -9.145894948342754 0  0.7854168197005933 -1.811594202898552 0  0.7894693398152999 -3.286543351392342 0  0.7854168196772591 -8.188405797101449 0  0.7854168196772591 -6.739130434782609 0  20.00078956016804 -4.999999999785771 0  0.7379120031523989 -3.977302749614766 0  6.584332478112232 -3.934875417052907 0  7.295091310194352 -7.969791332537982 0  9.811174303464586 -7.412814499648229 0  4.013376806449688 -2.206189431585293 0  4.013376806983409 -7.793810569017377 0  12.11177433894592 -2.818343737884045 0  2.591152707837148 -3.990098461753838 0  2.58990939378082 -6.025895074707176 0  25.43156400064585 -5.044446479916348 0  2.03262751726143 -2.282125834846944 0  2.032627517335952 -7.717874165160392 0  12.51865094522923 -6.491408052923457 0  0.598175343983641 -6.156971652625402 0  2.126700074935224 -0.8767654465386991 0  2.126700059112423 -9.123234559633019 0  6.617961838548696 -1.617756429129908 0  0.5903949564549755 -4.980060355019413 0  1.676697585305984 -5.547101897225158 0  4.773518305133987 -3.729331162566817 0  4.77931803486508 -6.231222307502165 0  4.878549698409591 -8.72048903376362 0  4.852580875634024 -1.222215410052823 0  0.5487847095754042 -2.675169258708207 0  0.545113423825768 -7.32369553390529 0  1.78738026998851 -4.400451872599477 0  1.68244194111824 -3.010100184333533 0  1.683984276238402 -7.018293626028473 0  9.998503440677371 -2.00585287985007 0  3.693061162502273 -3.243678395563028 0  3.694987482168253 -6.757603268814477 0  6.081763036485869 -5.83414381546261 0  0.5196640460586313 -1.350633211792632 0  0.5196640458460706 -8.649366789040087 0  3.84593363904758 -0.9906418103762418 0  3.845933620847308 -9.009358200471317 0  17.41551885287501 -3.057748733689079 0  17.30725517812527 -7.002961443761516 0  8.117698464370697 -4.451550942597151 0  0.4918476668493152 -0.4789811193757592 0  0.4918476560347713 -9.521018882514893 0  1.463770869328428 -0.6252343353791154 0  1.463770854281917 -9.374765668872765 0  0.5034132782032188 -4.464280853772128 0  3.138906271796685 -4.99999841599503 0  14.61209972381335 -2.388610981020637 0  6.208601124947327 -8.776231214192325 0  14.74910972998159 -7.542186851303819 0  2.243794246335625 -1.632184311040998 0  2.243794245689214 -8.367815689183566 0  0.4590235278399923 -5.431413993025926 0  0.4971508861448406 -2.209632053221267 0  0.4971508861368665 -7.790367946777407 0  0.4644363683211541 -3.560571347760519 0  6.478811279411406 -7.007392971062433 0  1.238895267772762 -4.173677632458826 0  1.293241773632479 -2.02256720952064 0  1.293241773542714 -7.977432790434841 0  0.4324740478030531 -0.942028985507247 0  0.4324740423701829 -9.057971014492754 0  2.117396640811705 -3.472968170680347 0  2.107095929630507 -6.531506384346077 0  8.087741545730886 -1.392783601483453 0  1.028911946384717 -1.352376108341404 0  1.028911946221715 -8.647623891551962 0  4.05691976296832 -4.991522392209158 0  11.51826881314265 -8.065248940008736 0  1.618560396201739 -4.958056164503666 0  2.701984523487646 -2.141781914603403 0  2.70198452396172 -7.858218085853512 0  2.843615645746219 -9.289121726447632 0  2.843615661334342 -0.7108782798429658 0  8.678774612240533 -8.488146490452822 0  6.487906449371135 -2.667543558824978 0  8.369190916679937 -7.129867754908394 0  11.80978191929258 -4.655775487536958 0  0.3792065166453504 -3.113833531412848 0  0.4134714637263563 -6.58827691137208 0  9.551050695080825 -3.49648183875815 0  1.083867845277057 -6.036251777836495 0  0.3756430921870901 -1.80381664325008 0  0.3756430921689482 -8.196183356748573 0  3.113073783220456 -3.503408140759125 0  3.113391383189963 -6.496678880796299 0  22.62850736315072 -3.277987336300344 0  22.59385352108348 -6.800312122582239 0  0.3777114402537816 -4.137047872695438 0  0.9196816123347897 -0.4281025456111269 0  0.9196815944880363 -9.571897460530383 0  0.4052043328723194 -5.827814332459883 0  8.865857694874787 -5.767686953139113 0  1.200388325130726 -5.182186034620629 0  5.65297436943758 -4.325500846767599 0  1.200079167961391 -3.009849046583253 0  1.20883344838 -7.021823297793294 0  1.057642414577487 -3.660996704809145 0  10.88812987788297 -6.333458225047037 0  4.493502926606794 -2.839780197438185 0  4.485862892033458 -7.147606077919463 0  0.3631651408878085 -7.003529808558233 0  1.946748828463205 -6.049056369468467 0  6.918750162798794 -4.993796052442676 0  3.351203216022585 -1.980935554775394 0  3.351203216441711 -8.019064445907297 0  2.281892243515294 -2.856654416292082 0  2.281892243715877 -7.143345583598931 0  5.811143619672087 -0.9953286820321026 0  2.695713766833098 -4.565354125099452 0  2.698172168139827 -5.435483248292925 0  19.86166219288896 -2.493475492328429 0  19.83739102036415 -7.594404063416508
[...]
<PointData  Vectors="flow"> 
<DataArray  type="Float64"  Name="flow"  NumberOfComponents="3" format="ascii">-8.9007749736972901e-16 -4.1821271768284371e-16 0.0000000000000000e+00  -6.6854851386482081e-26 -3.1412488430778960e-26 0.0000000000000000e+00  -2.5406336211183272e-26 -1.1937446957867949e-26 0.0000000000000000e+00  1.6304172795952807e-21 7.6606952031882894e-22 0.0000000000000000e+00  4.0905592388789191e-15 1.9219943220557580e-15 0.0000000000000000e+00  -2.0369906168685372e-14 -9.5710248185408856e-15 0.0000000000000000e+00  3.5436737707402130e-14 1.6650341600840006e-14 0.0000000000000000e+00  -2.1089405980837594e-13 -9.9090897316542738e-14 0.0000000000000000e+00  2.1635342037359430e-13 1.0165603802118639e-13 0.0000000000000000e+00  1.8480964780242484e-12 8.6834848976477323e-13 0.0000000000000000e+00  2.9425885934288060e-12 1.3826076676660531e-12 0.0000000000000000e+00  -1.4650352167941745e-11 -6.8836293617931821e-12 0.0000000000000000e+00  -5.1531800703183467e-11 -2.4212784260758453e-11 0.0000000000000000e+00  -6.8493363644799821e-11 -3.2182361466029025e-11 0.0000000000000000e+00  -2.2036761684931134e-10 -1.0354215245771976e-10 0.0000000000000000e+00  -5.1625453635140015e-11 -2.4256788122566569e-11 0.0000000000000000e+00  2.3516581799397183e-09 1.1049525029000340e-09 0.0000000000000000e+00  -4.5827405643679275e-09 -2.1532511399550658e-09 0.0000000000000000e+00  -8.7622846356519384e-09 -4.1170559658182570e-09 0.0000000000000000e+00  -8.4830816153690358e-09 -3.9858693508967207e-09 0.0000000000000000e+00  -2.0295976172658143e-09 -9.5362879954572541e-10 0.0000000000000000e+00  7.0904828711391748e-09 3.3315414893485515e-09 0.0000000000000000e+00  -7.9419200171796250e-09 -3.7315986122776840e-09 0.0000000000000000e+00  -2.5747678065267904e-09 -1.2097830188404013e-09 0.0000000000000000e+00  4.1850168978728963e-09 1.9663762937274022e-09 0.0000000000000000e+00  3.6484829749801298e-09 1.7142799193273053e-09 0.0000000000000000e+00  6.1812835767184221e-09 2.9043441846658921e-09 0.0000000000000000e+00  2.6314053799167842e-09 1.2363948066458356e-09 0.0000000000000000e+00  -1.8501908515325099e-09 -8.6933255423030828e-10 0.0000000000000000e+00  -9.8641799798804278e-11 -4.6347936323401736e-11 0.0000000000000000e+00  -2.2362802534496737e-11 -1.0507409130771212e-11 0.0000000000000000e+00  -6.3272422386580744e-12 -2.9729244699326431e-12 0.0000000000000000e+00  4.2185503648204087e-12 1.9821323625943159e-12 0.0000000000000000e+00  2.9032019779665331e-13 1.3641014324882375e-13 0.0000000000000000e+00  6.5399136911533782e-14 3.0728504947837958e-14 0.0000000000000000e+00  -1.9901255573876367e-14 -9.3508241736780064e-15 0.0000000000000000e+00  5.9838086417324907e-15 2.8115584109790373e-15 0.0000000000000000e+00  -1.1418415084044069e-15 -5.3650681182710884e-16 0.0000000000000000e+00  2.1378246997628011e-16 1.0044804865411914e-16 0.0000000000000000e+00  2.2116862900165275e-17 1.0391851684185203e-17 0.0000000000000000e+00  -7.8839007635028960e-18 -3.7043376267682347e-18 0.0000000000000000e+00  4.6161710231164568e-18 2.1689588092848953e-18 0.0000000000000000e+00  -1.0830252086578056e-18 -5.0887132544107584e-19 0.0000000000000000e+00  2.4042215307943557e-19 1.1296499723635302e-19 0.0000000000000000e+00  -2.3151782498383596e-20 -1.0878120058605578e-20 0.0000000000000000e+00  5.3386832459236422e-21 2.5084391367307535e-21 0.0000000000000000e+00  -6.7458644261756033e-22 -3.1696187164913987e-22 0.0000000000000000e+00  1.1345233568167172e-22 5.3306829768317498e-23 0.0000000000000000e+00  2.0167664842074466e-24 9.4759995032400498e-25 0.0000000000000000e+00  1.3602283116751205e-24 6.3911825720327937e-25 0.0000000000000000e+00  -1.3756132880371891e-24 -6.4634705783567507e-25 0.0000000000000000e+00  3.2000789838138942e-25 1.5035923642327964e-25 0.0000000000000000e+00  3.0274309860049488e-26 1.4224718004846400e-26 0.0000000000000000e+00  -2.6625532733495391e-27 -1.2510299875161534e-27 0.0000000000000000e+00  8.2855936109995321e-27 3.8930774364160113e-27 0.0000000000000000e+00  -1.0779738369889595e-26 -5.0649788281400460e-27 0.0000000000000000e+00  -2.6878318818833178e-27 -1.2629074202176799e-27 0.0000000000000000e+00  8.4287953383531591e-27 3.9603623455957338e-27 0.0000000000000000e+00  -9.5109902173279155e-28 -4.4688435314878884e-28 0.0000000000000000e+00  1.2530234568097419e-26 5.8874687512190435e-27 0.0000000000000000e+00  1.2502886345347021e-25 5.8746188874779241e-26 0.0000000000000000e+00  -5.1674200014865699e-25 -2.4279692146095138e-25 0.0000000000000000e+00  9.3563562637877638e-25 4.3961870648912517e-25 0.0000000000000000e+00  9.9919701277143065e-24 4.6948372411007842e-24 0.0000000000000000e+00  -1.2974903232696391e-22 -6.0964012219756789e-23 0.0000000000000000e+00  6.9495644532054490e-22 3.2653294182538451e-22 0.0000000000000000e+00  -3.6793164036496178e-21 -1.7287673454642990e-21 0.0000000000000000e+00  8.4457291009989728e-21 3.9683188605257577e-21 0.0000000000000000e+00  -8.2972293849534123e-20 -3.8985446329938069e-20 0.0000000000000000e+00  2.0736904483733154e-19 9.7434630199050585e-20 0.0000000000000000e+00  -1.6602572364532609e-18 -7.8009015278060017e-19 0.0000000000000000e+00  4.4106756431059707e-18 2.0724045411459775e-18 0.0000000000000000e+00  -1.0920737160050642e-17 -5.1312286630111743e-18 0.0000000000000000e+00  -7.2176488061832740e-17 -3.3912918048532363e-17 0.0000000000000000e+00  1.6624673951213500e-16 7.8112862017902699e-17 0.0000000000000000e+00  -1.3736876946096543e-15 -6.4544229655043745e-16 0.0000000000000000e+00  8.6138063265248154e-15 4.0472917965627619e-15 0.0000000000000000e+00  -3.2554031433901434e-14 -1.5295870300886084e-14 0.0000000000000000e+00  -6.2584860368457068e-14 -2.9406186110580209e-14 0.0000000000000000e+00  8.2387521696617848e-14 3.8710684691744652e-14 0.0000000000000000e+00  -2.8720551003815528e-13 -1.3494667289251823e-13 0.0000000000000000e+00  2.6933543079943413e-13 1.2655021929637822e-13 0.0000000000000000e+00  4.8594892158738020e-13 2.2832845426681471e-13 0.0000000000000000e+00  -2.3981744406553363e-13 -1.1268086804439090e-13 0.0000000000000000e+00  -3.4460539926588685e-13 -1.6191664319236535e-13 0.0000000000000000e+00  3.4961698143328391e-14 1.6427139028383679e-14 0.0000000000000000e+00  2.2174095219671710e-12 1.0418742920005475e-12 0.0000000000000000e+00  7.7942428799437822e-13 3.6622108824614130e-13 0.0000000000000000e+00  1.8088837512161996e-13 8.4992395808678988e-14 0.0000000000000000e+00  6.2434013060753557e-14 2.9335308841245760e-14 0.0000000000000000e+00  -4.9771201667270837e-14 -2.3385547408085918e-14 0.0000000000000000e+00  -7.0200739227774252e-14 -3.2984590693002007e-14 0.0000000000000000e+00  6.1476025747391443e-14 2.8885187948389803e-14 0.0000000000000000e+00  3.5633638663296025e-14 1.6742857684127200e-14 0.0000000000000000e+00  1.7486625814259287e-14 8.2162837803398022e-15 0.0000000000000000e+00  -1.4001938522084950e-14 -6.5789650670348484e-15 0.0000000000000000e+00  -1.3298969559495145e-16 -6.2486673557006289e-17 0.0000000000000000e+00  1.1665241801423337e-15 5.4810423705996303e-16 0.0000000000000000e+00  4.6139357317944248e-16 2.1679085330321370e-16 0.0000000000000000e+00  8.5700996419208012e-17 4.0267557293066323e-17 0.0000000000000000e+00  3.4620611362614748e-17 1.6266875646881244e-17 0.0000000000000000e+00  -3.2158704955511120e-18 -1.5110121799897981e-18 0.0000000000000000e+00  -5.4309117496622922e-18 -2.5517737152481825e-18 0.0000000000000000e+00  -2.5309480085753254e-19 -1.1891938040318582e-19 0.0000000000000000e+00  4.1796424985778152e-19 1.9638510730115071e-19 0.0000000000000000e+00  -6.5317521886915763e-20 -3.0690157229408778e-20 0.0000000000000000e+00  4.5644594406334093e-20 2.1446615525743021e-20 0.0000000000000000e+00  -1.1189846969529425e-20 -5.2576728716444812e-21 0.0000000000000000e+00  6.3307697397211803e-21 2.9745819051678775e-21 0.0000000000000000e+00  -1.7394490511402066e-20 -8.1729929932832629e-21 0.0000000000000000e+00  1.3752097878491904e-21 6.4615746882717974e-22 0.0000000000000000e+00  -1.2571751335867891e-19 -5.9069758619257062e-20 0.0000000000000000e+00  -1.1248538436568763e-19 -5.2852497040077881e-20 0.0000000000000000e+00  -5.2116794148527364e-18 -2.4487649875636796e-18 0.0000000000000000e+00  6.4283513727663805e-18 3.0204317104627629e-18 0.0000000000000000e+00  -7.6926803482818875e-18 -3.6144906080958822e-18 0.0000000000000000e+00  -2.7952459939392394e-17 -1.3133771240953165e-17 0.0000000000000000e+00  1.8974519094813765e-16 8.9153868295928850e-17 0.0000000000000000e+00  -6.0685987953839970e-16 -2.8513979987633932e-16 0.0000000000000000e+00  -1.2849518496907712e-15 -6.0374878225637354e-16 0.0000000000000000e+00  9.3025010895217485e-16 4.3708826179665343e-16 0.0000000000000000e+00  3.6441461399657230e-15 1.7122422096190174e-15 0.0000000000000000e+00  2.7086416402722938e-15 1.2726851144475578e-15 0.0000000000000000e+00  2.2468047953863412e-14 1.0556859850497372e-14 0.0000000000000000e+00  6.5533287092785021e-15 3.0791536888365158e-15 0.0000000000000000e+00  4.1381201892186067e-15 1.9443413585283604e-15 0.0000000000000000e+00  -5.3496081445895265e-13 -2.5135723207231256e-13 0.0000000000000000e+00  -4.7002913978314307e-13 -2.2084836940572989e-13 0.0000000000000000e+00  -2.0265321889274110e-13 -9.5218847427062154e-14 0.0000000000000000e+00  -5.5019232080134857e-13 -2.5851392312526175e-13 0.0000000000000000e+00  4.3943865383961622e-13 2.0647509258490693e-13 0.0000000000000000e+00  1.8928212820814584e-12 8.8936293166210420e-13 0.0000000000000000e+00  6.5913655438107873e-12 3.0970257145745041e-12 0.0000000000000000e+00  -1.6506138378571007e-11 -7.7555909571364169e-12 0.0000000000000000e+00  -1.7220206219248630e-10 -8.0911035986111119e-11 0.0000000000000000e+00  -1.9522343811892886e-10 -9.1727883080265447e-11 0.0000000000000000e+00  2.8989175738162088e-10 1.3620883579990440e-10 0.0000000000000000e+00  9.7727260215271426e-10 4.5918229825048397e-10 0.0000000000000000e+00  -1.9350758617224767e-10 -9.0921671140424788e-11 0.0000000000000000e+00  -1.4169504152551466e-09 -6.6576976244972334e-10 0.0000000000000000e+00  -2.6366766816070031e-10 -1.2388715858163094e-10 0.0000000000000000e+00  -1.7903844229935166e-09 -8.4123184492340995e-10 0.0000000000000000e+00  4.3218180069795329e-09 2.0306538019113304e-09 0.0000000000000000e+00  -1.6168995640853444e-08 -7.5971807276849673e-09 0.0000000000000000e+00  -2.2908670831612382e-10 -1.0763891363731825e-10 0.0000000000000000e+00  -1.4369307604016470e-08 -6.7515774773038986e-09 0.0000000000000000e+00  -2.6839253762895399e-09 -1.2610719055284046e-09 0.0000000000000000e+00  7.4620579925931646e-09 3.5061301536230819e-09 0.0000000000000000e+00  -9.2161785270410391e-09 -4.3303230110119926e-09 0.0000000000000000e+00  6.7373144139936009e-09 3.1656013990764284e-09 0.0000000000000000e+00  2.3660922101683993e-08 1.1117344910155533e-08 0.0000000000000000e+00  3.5305671907544889e-10 1.6588758890890085e-10 0.0000000000000000e+00  1.1873114905312773e-08 5.5787138384972914e-09 0.0000000000000000e+00  1.0075304481108716e-08 4.7339928050965093e-09 0.0000000000000000e+00  -2.2078919437322754e-11 -1.0374023530167080e-11 0.0000000000000000e+00  -2.0676693686274133e-09 -9.7151723134063254e-10 0.0000000000000000e+00  -1.4857656560660620e-09 -6.9810336144821342e-10 0.0000000000000000e+00  9.6899957008428372e-10 4.5529512299322837e-10 0.0000000000000000e+00  -4.2820811779001671e-10 -2.0119830150073930e-10 0.0000000000000000e+00  -2.4075259584563470e-10 -1.1312025941037626e-10 0.0000000000000000e+00  2.4889453525610219e-10 1.1694583933810499e-10 0.0000000000000000e+00  2.0217530479990852e-11 9.4994294225601069e-12 0.0000000000000000e+00  -9.8289211901245261e-13 -4.6182269015447851e-13 0.0000000000000000e+00  1.6673250371546720e-11 7.8341103680262364e-12 0.0000000000000000e+00  9.4617943618954008e-12 4.4457283168465309e-12 0.0000000000000000e+00  1.5861759494609337e-11 7.4528224397034786e-12 0.0000000000000000e+00  1.1030358847469137e-12 5.1827356204926927e-13 0.0000000000000000e+00  3.7174281413371382e-12 1.7466745652749527e-12 0.0000000000000000e+00  -2.1645526594850273e-12 -1.0170389128653958e-12 0.0000000000000000e+00  -6.6607115000631782e-13 -3.1296086760697938e-13 0.0000000000000000e+00  6.3770955749384908e-13 2.9963486091935523e-13 0.0000000000000000e+00  -1.1034435750377187e-14 -5.1846511982372810e-15 0.0000000000000000e+00  4.5878085636373688e-14 2.1556323952434563e-14 0.0000000000000000e+00  -1.4873965347188493e-15 -6.9886964774981333e-16 0.0000000000000000e+00  5.4136025188677556e-15 2.5436407824721302e-15 0.0000000000000000e+00  -2.5918761974675472e-15 -1.2178215847986033e-15 0.0000000000000000e+00  2.2074647306217693e-04 1.0372016222300627e-04 0.0000000000000000e+00  5.9879594376024763e-07 2.8135087081458136e-07 0.0000000000000000e+00  -2.9866332961168007e-01 -1.4033025564427182e-01 0.0000000000000000e+00  1.1318313292307143e-01 5.3180341886515492e-02 0.0000000000000000e+00  1.7332585437621003e-12 8.1439062123896473e-13 0.0000000000000000e+00  -7.8059587526587989e-07 -3.6677157143245471e-07 0.0000000000000000e+00  9.5342474637916985e-13 4.4797712049524838e-13 0.0000000000000000e+00  -3.1651550718153195e-03 -1.4871829794407983e-03 0.0000000000000000e+00  -2.1286603505967491e-06 -1.0001745161264180e-06 0.0000000000000000e+00  -3.2056046164305553e-08 -1.5061886435908972e-08 0.0000000000000000e+00  -4.5864233014458443e-05 -2.1549815145420198e-05 0.0000000000000000e+00  -2.4468365960105403e-07 -1.1496731302244642e-07 0.0000000000000000e+00  2.5005727645902937e-10 1.1749216610164524e-10 0.0000000000000000e+00  1.6329765256556383e-04 7.6727201027423521e-05 0.0000000000000000e+00  -2.5615563407054584e-17 -1.2035754660800660e-17 0.0000000000000000e+00  -5.3022845335324874e-09 -2.4913368007271480e-09 0.0000000000000000e+00  2.1507776376202410e-06 1.0105665670896214e-06 0.0000000000000000e+00  -4.6974563081095173e-05 -2.2071515959186789e-05 0.0000000000000000e+00  1.8691064278572754e-10 8.7822024615004926e-11 0.0000000000000000e+00  1.0966519015076011e-09 5.1527397719508955e-10 0.0000000000000000e+00  -2.6780667768031488e+00 -1.2583191780184306e+00 0.0000000000000000e+00  4.8339402881069699e-04 2.2712800974970012e-04 0.0000000000000000e+00  1.0698925454619036e-10 5.0270079896242470e-11 0.0000000000000000e+00  -2.4137805343247283e-16 -1.1341413754790905e-16 0.0000000000000000e+00  -1.9816023174824041e-08 -9.3107767920200759e-09 0.0000000000000000e+00  -6.6487711774878695e-06 -3.1239983839671611e-06 0.0000000000000000e+00  2.8414235966152669e-13 1.3350741794284649e-13 0.0000000000000000e+00  1.6672047385120838e-10 7.8335451316013175e-11 0.0000000000000000e+00  -4.0725011657506387e-21 -1.9135095374595733e-21 0.0000000000000000e+00  2.8328991543685805e-05 1.3310688763292936e-05 0.0000000000000000e+00  2.2097662384802593e-06 1.0382830110519477e-06 0.0000000000000000e+00  1.1711660906469683e-10 5.5028528984819795e-11 0.0000000000000000e+00  -7.0330791839092159e-13 -3.3045697345155031e-13 0.0000000000000000e+00  -4.6122709159396269e-05 -2.1671263009623056e-05 0.0000000000000000e+00  3.5071813190024110e-09 1.6478877796156886e-09 0.0000000000000000e+00  -2.3023362874091135e-14 -1.0817780683396266e-14 0.0000000000000000e+00  1.6907330472564137e+01 7.9440954822339975e+00 0.0000000000000000e+00  -1.1449211847878575e-05 -5.3795383170314392e-06 0.0000000000000000e+00  -2.9547284569547068e-24 -1.3883117162825706e-24 0.0000000000000000e+00  -5.9905468763736557e-04 -2.8147244447569893e-04 0.0000000000000000e+00  1.1885109307704675e-09 5.5843495405975202e-10 0.0000000000000000e+00  1.1855685567795480e-15 5.5705244722543933e-16 0.0000000000000000e+00  7.8828055580356711e-09 3.7038230324141289e-09 0.0000000000000000e+00  -4.8882255202990717e-08 -2.2967866118760234e-08 0.0000000000000000e+00  1.7743185445206861e-13 8.3368311493311072e-14 0.0000000000000000e+00  -1.1392208176129430e-07 -5.3527545138788491e-08 0.0000000000000000e+00  2.5303645537548171e-07 1.1889196613568135e-07 0.0000000000000000e+00  6.3626252790293579e-06 2.9895495812484666e-06 0.0000000000000000e+00  -1.1065802118079665e-02 -5.1993890316500199e-03 0.0000000000000000e+00  -2.3288466882454107e-07 -1.0942342722245522e-07 0.0000000000000000e+00  5.3732114678645081e-12 2.5246626021900335e-12 0.0000000000000000e+00  1.5208482548800284e-07 7.1458730698859943e-08 0.0000000000000000e+00  -3.9886613527875344e-08 -1.8741164777170942e-08 0.0000000000000000e+00  -2.6259144014922473e-11 -1.2338148099416715e-11 0.0000000000000000e+00  1.3159632405012178e-01 6.1831982586582047e-02 0.0000000000000000e+00  1.0306647834517945e-03 4.8426920282911766e-04 0.0000000000000000e+00  -9.7883164885838931e-09 -4.5991483352039082e-09 0.0000000000000000e+00  -1.2338769787276560e-12 -5.7975069146775570e-13 0.0000000000000000e+00  -3.5626538474110947e-01 -1.6739521582019345e-01 0.0000000000000000e+00  -1.5553011770906249e-07 -7.3077539204006982e-08 0.0000000000000000e+00  1.6577418525675720e-06 7.7890827195116824e-07 0.0000000000000000e+00  -3.0434784949688329e-10 -1.4300118993587936e-10 0.0000000000000000e+00  3.3534617457687039e-15 1.5756609446793102e-15 0.0000000000000000e+00  -2.3814575661583039e-07 -1.1189540727999360e-07 0.0000000000000000e+00  -6.0316978584794715e-12 -2.8340596870394264e-12 0.0000000000000000e+00  1.1548549241988043e-18 5.4262130860047306e-19 0.0000000000000000e+00  -3.5079104124373290e-19 -1.6482303521981542e-19 0.0000000000000000e+00  -2.1206582261555339e-09 -9.9641462980226581e-10 0.0000000000000000e+00  4.1201812709046996e-13 1.9359125601343511e-13 0.0000000000000000e+00  -7.2675402043180114e-19 -3.4147338278957082e-19 0.0000000000000000e+00  -1.2599797203327727e-09 -5.9201535217191702e-10 0.0000000000000000e+00  3.4146884301649360e-15 1.6044289768469887e-15 0.0000000000000000e+00  4.6092660871296078e-07 2.1657144490432063e-07 0.0000000000000000e+00  -1.3361828095312120e-01 -6.2782021312355760e-02 0.0000000000000000e+00  -3.8560080193062948e-17 -1.8117878476047518e-17 0.0000000000000000e+00  2.6317373102956597e-11 1.2365507677910620e-11 0.0000000000000000e+00  -6.8224883256981330e-18 -3.2056212998096618e-18 0.0000000000000000e+00  1.5743357058561183e-05 7.3971897507451522e-06 0.0000000000000000e+00  -3.4214939478470106e-11 -1.6076266243029355e-11 0.0000000000000000e+00  6.5995595318599046e-08 3.1008757501284873e-08 0.0000000000000000e+00  8.4242941877127376e-09 3.9582474303803769e-09 0.0000000000000000e+00  1.3408754120462737e-12 6.3002508411134040e-13 0.0000000000000000e+00  1.1368593085431470e-06 5.3416587033586357e-07 0.0000000000000000e+00  -6.9682177535447360e-09 -3.2740938769124455e-09 0.0000000000000000e+00  -1.8536546239204489e-03 -8.7096004584544804e-04 0.0000000000000000e+00  -1.7840394122954053e-06 -8.3825057174705769e-07 0.0000000000000000e+00  2.7120374945152065e-12 1.2742806939740402e-12 0.0000000000000000e+00  1.5035676973824502e-11 7.0646784667700574e-12 0.0000000000000000e+00  -7.1390263295637037e-17 -3.3543501680685837e-17 0.0000000000000000e+00  2.8901854127809185e-01 1.3579854559387125e-01 0.0000000000000000e+00  1.8777225357660136e-06 8.8226861937037161e-07 0.0000000000000000e+00  -2.2869316372343007e-10 -1.0745400237495770e-10 0.0000000000000000e+00  -1.0321475395925424e-08 -4.8496589213663946e-09 0.0000000000000000e+00  1.8906946172172817e-14 8.8836369474725598e-15 0.0000000000000000e+00  3.0190499762773867e-02 1.4185338907347049e-02 0.0000000000000000e+00  -1.4437568491615682e-14 -6.7836506073388333e-15 0.0000000000000000e+00  3.1756666501302922e-03 1.4921219603129499e-03 0.0000000000000000e+00  5.4675085164955647e-04 2.5689691093132836e-04 0.0000000000000000e+00  -9.2310449618255882e-10 -4.3373081691716733e-10 0.0000000000000000e+00  -2.1301656396929617e-13 -1.0008817927913007e-13 0.0000000000000000e+00  -1.8479879030497378e-07 -8.6829747461688291e-08 0.0000000000000000e+00  6.7213223922585633e-12 3.1580873714880234e-12 0.0000000000000000e+00  -7.3956855576275460e-07 -3.4749443338621869e-07 0.0000000000000000e+00  1.4435541740025462e-10 6.7826983157764446e-11 0.0000000000000000e+00  -5.4689278