<?xml version="1.0"?>
<VTKFile type="UnstructuredGrid"  version="0.1"  >
<UnstructuredGrid>
<Piece  NumberOfPoints="1855" NumberOfCells="3532">
<Points>
<DataArray  type="Float64"  NumberOfComponents="3"  format="ascii">0 0 0  30 0 0  30 -10 0  0 -10 0  0.1391574078963744 0 0  0.2856388821882616 0 0  0.4398299073010886 0 0  0.6021362569539473 0 0  0.7729850389704483 0 0  0.9528258543586996 0 0  1.142131984380316 0 0  1.34140159760994 0 0  1.551159074717981 0 0  1.771956417032531 0 0  2.004374674080994 0 0  2.249025475789527 0 0  2.506552636773105 0 0  2.777633857742732 0 0  3.062982518028728 0 0  3.363349525995907 0 0  3.679525322337712 0 0  4.01234195575742 0 0  4.362675247811097 0 0  4.731447135329707 0 0  5.119628065610077 0 0  5.528239565804708 0 0  5.958356943167011 0 0  6.411112081475485 0 0  6.887696441559404 0 0  7.389364184530748 0 0  7.917435485335147 0 0  8.473300005202017 0 0  9.058420557070402 0 0  9.674336929103793 0 0  10.32266995225095 0 0  11.00512576896296 0 0  11.72350030646412 0 0  12.47968402994705 0 0  13.27566689579597 0 0  14.1135435963616 0 0  14.9955190732806 0 0  15.92391430904694 0 0  16.90117245730496 0 0  17.92986524844506 0 0  19.01269976086341 0 0  20.15252556282024 0 0  21.35234220269763 0 0  22.61530708683689 0 0  23.94474379751883 0 0  25.34415086349739 0 0  26.81721093579712 0 0  28.3678004819169 0 0  30 -1.111111111111111 0  30 -2.222222222222222 0  30 -3.333333333333333 0  30 -4.444444444444445 0  30 -5.555555555555555 0  30 -6.666666666666666 0  30 -7.777777777777777 0  30 -8.888888888888889 0  28.36780047917311 -10 0  26.8172109305839 -10 0  25.34415085606858 -10 0  23.94474378810899 -10 0  22.61530707566275 -10 0  21.3523421899591 -10 0  20.15252554870171 -10 0  19.01269974553473 -10 0  17.92986523206254 -10 0  16.90117244001232 -10 0  15.92391429097614 -10 0  14.99551905455266 -10 0  14.11354357708742 -10 0  13.27566687607703 -10 0  12.47968400987599 -10 0  11.72350028612546 -10 0  11.00512574843363 -10 0  10.32266993160086 -10 0  9.674336908396342 -10 0  9.058420536362949 -10 0  8.473299984546333 -10 0  7.917435464777824 -10 0  7.389364164113587 -10 0  6.887696420787165 -10 0  6.411112061446698 -10 0  5.95835692337857 -10 0  5.528239546282652 -10 0  5.119628046377237 -10 0  4.731447115907979 -10 0  4.362675229213632 -10 0  4.012341937260036 -10 0  3.679525304434552 -10 0  3.363349508456405 -10 0  3.062982500861274 -10 0  2.777633840953978 -10 0  2.506552620368097 -10 0  2.249025459771861 -10 0  2.004374658452946 -10 0  1.771956401795187 -10 0  1.551159059871345 -10 0  1.341401583153029 -10 0  1.142131970307521 -10 0  0.9528258406748833 -10 0  0.7729850256685147 -10 0  0.6021362439621285 -10 0  0.4398298947504031 -10 0  0.2856388700059078 -10 0  0.1391573960769001 -10 0  0 -9.855072463768115 0  0 -9.710144927536232 0  0 -9.565217391304348 0  0 -9.420289855072463 0  0 -9.27536231884058 0  0 -9.130434782608695 0  0 -8.985507246376812 0  0 -8.840579710144928 0  0 -8.695652173913043 0  0 -8.55072463768116 0  0 -8.405797101449275 0  0 -8.260869565217391 0  0 -8.115942028985508 0  0 -7.971014492753623 0  0 -7.826086956521739 0  0 -7.681159420289855 0  0 -7.536231884057971 0  0 -7.391304347826087 0  0 -7.246376811594203 0  0 -7.101449275362318 0  0 -6.956521739130435 0  0 -6.811594202898551 0  0 -6.666666666666667 0  0 -6.521739130434783 0  0 -6.376811594202898 0  0 -6.231884057971015 0  0 -6.086956521739131 0  0 -5.942028985507246 0  0 -5.797101449275362 0  0 -5.652173913043478 0  0 -5.507246376811594 0  0 -5.36231884057971 0  0 -5.217391304347826 0  0 -5.072463768115941 0  0 -4.927536231884058 0  0 -4.782608695652174 0  0 -4.637681159420289 0  0 -4.492753623188406 0  0 -4.347826086956522 0  0 -4.202898550724638 0  0 -4.057971014492754 0  0 -3.913043478260869 0  0 -3.768115942028985 0  0 -3.623188405797101 0  0 -3.478260869565217 0  0 -3.333333333333334 0  0 -3.188405797101449 0  0 -3.043478260869565 0  0 -2.898550724637681 0  0 -2.753623188405797 0  0 -2.608695652173912 0  0 -2.463768115942029 0  0 -2.318840579710145 0  0 -2.173913043478261 0  0 -2.028985507246377 0  0 -1.884057971014492 0  0 -1.739130434782609 0  0 -1.594202898550725 0  0 -1.44927536231884 0  0 -1.304347826086957 0  0 -1.159420289855072 0  0 -1.014492753623188 0  0 -0.8695652173913047 0  0 -0.72463768115942 0  0 -0.579710144927537 0  0 -0.4347826086956523 0  0 -0.2898550724637676 0  0 -0.1449275362318829 0  5.15859856094262 -4.976557621770688 0  2.816777084926057 -7.160262673925935 0  2.81677708460006 -2.839737326002783 0  2.227649803257325 -5.003121586636773 0  1.518662968975629 -8.46230852045241 0  1.518662969184829 -1.537691480152612 0  9.960740911025725 -5.055901393541221 0  1.491099662214591 -3.691833922963321 0  1.503675657181264 -6.345020369042368 0  5.319208041801049 -7.493850249937013 0  5.291109955459268 -2.489368743223226 0  1.096914507335763 -2.53623188405797 0  1.096914507253562 -7.463768115942029 0  1.089580194952752 -4.71277167923441 0  15.07565076110197 -5.047572991082069 0  7.501630508673601 -5.937500100385354 0  0.8894869418764504 -5.623930488933245 0  2.955144522453978 -1.440834296472408 0  2.955144521140721 -8.559165705576945 0  8.106603955004623 -2.748811534843258 0  3.662152539483591 -4.228178367024407 0  3.662181528265114 -5.771746159989156 0  0.8436558190317136 -0.8541050638451999 0  0.8436558075840921 -9.145894948342754 0  0.7854168197005933 -1.811594202898552 0  0.7894693398152999 -3.286543351392342 0  0.7854168196772591 -8.188405797101449 0  0.7854168196772591 -6.739130434782609 0  20.00078956016804 -4.999999999785771 0  0.7379120031523989 -3.977302749614766 0  6.584332478112232 -3.934875417052907 0  7.295091310194352 -7.969791332537982 0  9.811174303464586 -7.412814499648229 0  4.013376806449688 -2.206189431585293 0  4.013376806983409 -7.793810569017377 0  12.11177433894592 -2.818343737884045 0  2.591152707837148 -3.990098461753838 0  2.58990939378082 -6.025895074707176 0  25.43156400064585 -5.044446479916348 0  2.03262751726143 -2.282125834846944 0  2.032627517335952 -7.717874165160392 0  12.51865094522923 -6.491408052923457 0  0.598175343983641 -6.156971652625402 0  2.126700074935224 -0.8767654465386991 0  2.126700059112423 -9.123234559633019 0  6.617961838548696 -1.617756429129908 0  0.5903949564549755 -4.980060355019413 0  1.676697585305984 -5.547101897225158 0  4.773518305133987 -3.729331162566817 0  4.77931803486508 -6.231222307502165 0  4.878549698409591 -8.72048903376362 0  4.852580875634024 -1.222215410052823 0  0.5487847095754042 -2.675169258708207 0  0.545113423825768 -7.32369553390529 0  1.78738026998851 -4.400451872599477 0  1.68244194111824 -3.010100184333533 0  1.683984276238402 -7.018293626028473 0  9.998503440677371 -2.00585287985007 0  3.693061162502273 -3.243678395563028 0  3.694987482168253 -6.757603268814477 0  6.081763036485869 -5.83414381546261 0  0.5196640460586313 -1.350633211792632 0  0.5196640458460706 -8.649366789040087 0  3.84593363904758 -0.9906418103762418 0  3.845933620847308 -9.009358200471317 0  17.41551885287501 -3.057748733689079 0  17.30725517812527 -7.002961443761516 0  8.117698464370697 -4.451550942597151 0  0.4918476668493152 -0.4789811193757592 0  0.4918476560347713 -9.521018882514893 0  1.463770869328428 -0.6252343353791154 0  1.463770854281917 -9.374765668872765 0  0.5034132782032188 -4.464280853772128 0  3.138906271796685 -4.99999841599503 0  14.61209972381335 -2.388610981020637 0  6.208601124947327 -8.776231214192325 0  14.74910972998159 -7.542186851303819 0  2.243794246335625 -1.632184311040998 0  2.243794245689214 -8.367815689183566 0  0.4590235278399923 -5.431413993025926 0  0.4971508861448406 -2.209632053221267 0  0.4971508861368665 -7.790367946777407 0  0.4644363683211541 -3.560571347760519 0  6.478811279411406 -7.007392971062433 0  1.238895267772762 -4.173677632458826 0  1.293241773632479 -2.02256720952064 0  1.293241773542714 -7.977432790434841 0  0.4324740478030531 -0.942028985507247 0  0.4324740423701829 -9.057971014492754 0  2.117396640811705 -3.472968170680347 0  2.107095929630507 -6.531506384346077 0  8.087741545730886 -1.392783601483453 0  1.028911946384717 -1.352376108341404 0  1.028911946221715 -8.647623891551962 0  4.05691976296832 -4.991522392209158 0  11.51826881314265 -8.065248940008736 0  1.618560396201739 -4.958056164503666 0  2.701984523487646 -2.141781914603403 0  2.70198452396172 -7.858218085853512 0  2.843615645746219 -9.289121726447632 0  2.843615661334342 -0.7108782798429658 0  8.678774612240533 -8.488146490452822 0  6.487906449371135 -2.667543558824978 0  8.369190916679937 -7.129867754908394 0  11.80978191929258 -4.655775487536958 0  0.3792065166453504 -3.113833531412848 0  0.4134714637263563 -6.58827691137208 0  9.551050695080825 -3.49648183875815 0  1.083867845277057 -6.036251777836495 0  0.3756430921870901 -1.80381664325008 0  0.3756430921689482 -8.196183356748573 0  3.113073783220456 -3.503408140759125 0  3.113391383189963 -6.496678880796299 0  22.62850736315072 -3.277987336300344 0  22.59385352108348 -6.800312122582239 0  0.3777114402537816 -4.137047872695438 0  0.9196816123347897 -0.4281025456111269 0  0.9196815944880363 -9.571897460530383 0  0.4052043328723194 -5.827814332459883 0  8.865857694874787 -5.767686953139113 0  1.200388325130726 -5.182186034620629 0  5.65297436943758 -4.325500846767599 0  1.200079167961391 -3.009849046583253 0  1.20883344838 -7.021823297793294 0  1.057642414577487 -3.660996704809145 0  10.88812987788297 -6.333458225047037 0  4.493502926606794 -2.839780197438185 0  4.485862892033458 -7.147606077919463 0  0.3631651408878085 -7.003529808558233 0  1.946748828463205 -6.049056369468467 0  6.918750162798794 -4.993796052442676 0  3.351203216022585 -1.980935554775394 0  3.351203216441711 -8.019064445907297 0  2.281892243515294 -2.856654416292082 0  2.281892243715877 -7.143345583598931 0  5.811143619672087 -0.9953286820321026 0  2.695713766833098 -4.565354125099452 0  2.698172168139827 -5.435483248292925 0  19.86166219288896 -2.493475492328429 0  19.83739102036415 -7.594404063416508
[...]
<PointData  Vectors="flow"> 
<DataArray  type="Float64"  Name="flow"  NumberOfComponents="3" format="ascii">-4.5377943785396069e-13 -2.0443668400772897e-13 0.0000000000000000e+00  -3.4083949958984526e-23 -1.5355499007301117e-23 0.0000000000000000e+00  -1.2952661984949054e-23 -5.8354324686879133e-24 0.0000000000000000e+00  8.3121957221530010e-19 3.7448098977263026e-19 0.0000000000000000e+00  2.0854495000852168e-12 9.3953657856177883e-13 0.0000000000000000e+00  -1.0384988495585288e-11 -4.6786443685866939e-12 0.0000000000000000e+00  1.8066362719833535e-11 8.1392566044657828e-12 0.0000000000000000e+00  -1.0751803993403503e-10 -4.8439020637595947e-11 0.0000000000000000e+00  1.1030133192338183e-10 4.9692949170846085e-11 0.0000000000000000e+00  9.4219681249774441e-10 4.2447844913519724e-10 0.0000000000000000e+00  1.5001909403479029e-09 6.7586592877278898e-10 0.0000000000000000e+00  -7.4690446514789682e-09 -3.3649535300130528e-09 0.0000000000000000e+00  -2.6271950053557462e-08 -1.1836037297693714e-08 0.0000000000000000e+00  -3.4919296514417487e-08 -1.5731839285295238e-08 0.0000000000000000e+00  -1.1234785014855761e-07 -5.0614946433866544e-08 0.0000000000000000e+00  -2.6319696204810984e-08 -1.1857547890775216e-08 0.0000000000000000e+00  1.1989227118663326e-06 5.4013858528862660e-07 0.0000000000000000e+00  -2.3363734543056267e-06 -1.0525828227493282e-06 0.0000000000000000e+00  -4.4671892144588007e-06 -2.0125578059642286e-06 0.0000000000000000e+00  -4.3248458904611644e-06 -1.9484293005248075e-06 0.0000000000000000e+00  -1.0347297494366942e-06 -4.6616638210712638e-07 0.0000000000000000e+00  3.6148709981847196e-06 1.6285714563876435e-06 0.0000000000000000e+00  -4.0489508065609172e-06 -1.8241330645531105e-06 0.0000000000000000e+00  -1.3126684938141625e-06 -5.9138332786941711e-07 0.0000000000000000e+00  2.1336059173926434e-06 9.6123200468020753e-07 0.0000000000000000e+00  1.8600701155783836e-06 8.3799867232657304e-07 0.0000000000000000e+00  3.1513428830052360e-06 1.4197427988799372e-06 0.0000000000000000e+00  1.3415434696339921e-06 6.0439208017279446e-07 0.0000000000000000e+00  -9.4326456630125482e-07 -4.2495949351208338e-07 0.0000000000000000e+00  -5.0289576574938177e-08 -2.2656456898432363e-08 0.0000000000000000e+00  -1.1401007207721575e-08 -5.1363810553375718e-09 0.0000000000000000e+00  -3.2257555490490497e-09 -1.4532671885396314e-09 0.0000000000000000e+00  2.1507019543396544e-09 9.6893411017809115e-10 0.0000000000000000e+00  1.4801108503824148e-10 6.6681944789535229e-11 0.0000000000000000e+00  3.3341797395786266e-11 1.5021144480869469e-11 0.0000000000000000e+00  -1.0146060981867868e-11 -4.5710027600254886e-12 0.0000000000000000e+00  3.0506661832201358e-12 1.3743859383790640e-12 0.0000000000000000e+00  -5.8213380220625764e-13 -2.6226288422120886e-13 0.0000000000000000e+00  1.0899060962168193e-13 4.9102442641326608e-14 0.0000000000000000e+00  1.1275622227938695e-14 5.0798926220748818e-15 0.0000000000000000e+00  -4.0193714222983954e-15 -1.8108069622021120e-15 0.0000000000000000e+00  2.3534169755978083e-15 1.0602612688976749e-15 0.0000000000000000e+00  -5.5214806780163276e-16 -2.4875371302956269e-16 0.0000000000000000e+00  1.2257205669666193e-16 5.5221155329513544e-17 0.0000000000000000e+00  -1.1803245086500250e-17 -5.3175972393689826e-18 0.0000000000000000e+00  2.7217682610498321e-18 1.2262108670194640e-18 0.0000000000000000e+00  -3.4391775729585039e-19 -1.5494180654251264e-19 0.0000000000000000e+00  5.7840286111022464e-20 2.6058202087158557e-20 0.0000000000000000e+00  1.0281881793335736e-21 4.6321927435272840e-22 0.0000000000000000e+00  6.9347179369099842e-22 3.1242286919290769e-22 0.0000000000000000e+00  -7.0131536455489080e-22 -3.1595655424875206e-22 0.0000000000000000e+00  1.6314647282450592e-22 7.3500738749940896e-23 0.0000000000000000e+00  1.5434453011458791e-23 6.9535288069866787e-24 0.0000000000000000e+00  -1.3574232931482635e-24 -6.1154625727089772e-25 0.0000000000000000e+00  4.2241625276410643e-24 1.9030694381938220e-24 0.0000000000000000e+00  -5.4957277677017332e-24 -2.4759349307487198e-24 0.0000000000000000e+00  -1.3703108369903237e-24 -6.1735235271791816e-25 0.0000000000000000e+00  4.2971696528973130e-24 1.9359606037056631e-24 0.0000000000000000e+00  -4.8488944019003932e-25 -2.1845236031765254e-25 0.0000000000000000e+00  6.3881659914918945e-24 2.8779961436063312e-24 0.0000000000000000e+00  6.3742233166319485e-23 2.8717146905990171e-23 0.0000000000000000e+00  -2.6344548091140613e-22 -1.1868744161052604e-22 0.0000000000000000e+00  4.7700588974438195e-22 2.1490066366312876e-22 0.0000000000000000e+00  5.0941076490605105e-21 2.2949970599758628e-21 0.0000000000000000e+00  -6.6148670340969238e-20 -2.9801294831654155e-20 0.0000000000000000e+00  3.5430279500656549e-19 1.5962047308349676e-19 0.0000000000000000e+00  -1.8757896186217679e-18 -8.4508062185614437e-19 0.0000000000000000e+00  4.3058028262073604e-18 1.9398500204062455e-18 0.0000000000000000e+00  -4.2300946795934308e-17 -1.9057419909209966e-17 0.0000000000000000e+00  1.0572091629399890e-16 4.7629380607500258e-17 0.0000000000000000e+00  -8.4643258331670982e-16 -3.8133475458412851e-16 0.0000000000000000e+00  2.2486512913755811e-15 1.0130622393835041e-15 0.0000000000000000e+00  -5.5676117912012997e-15 -2.5083201165272703e-15 0.0000000000000000e+00  -3.6797027534970545e-14 -1.6577794547428312e-14 0.0000000000000000e+00  8.4755936672707179e-14 3.8184239297580827e-14 0.0000000000000000e+00  -7.0033365823643395e-13 -3.1551427597945998e-13 0.0000000000000000e+00  4.3914919815231090e-12 1.9784546933086212e-12 0.0000000000000000e+00  -1.6596700992452660e-11 -7.4771446948126527e-12 0.0000000000000000e+00  -3.1907022523422026e-11 -1.4374749794960084e-11 0.0000000000000000e+00  4.2002818172744511e-11 1.8923107020505825e-11 0.0000000000000000e+00  -1.4642315447678052e-10 -6.5966550412137019e-11 0.0000000000000000e+00  1.3731262810653105e-10 6.1862076640678465e-11 0.0000000000000000e+00  2.4774654916599968e-10 1.1161475986083565e-10 0.0000000000000000e+00  -1.2226376386013376e-10 -5.5082263260050954e-11 0.0000000000000000e+00  -1.7568677426675494e-10 -7.9150394572679718e-11 0.0000000000000000e+00  1.7824177980885149e-11 8.0301475509971839e-12 0.0000000000000000e+00  1.1304800417309168e-09 5.0930379781281861e-10 0.0000000000000000e+00  3.9736620271941760e-10 1.7902139683738843e-10 0.0000000000000000e+00  9.2220537447099030e-11 4.1547190772365985e-11 0.0000000000000000e+00  3.1830117527291611e-11 1.4340102560905310e-11 0.0000000000000000e+00  -2.5374361199594283e-11 -1.1431655623252109e-11 0.0000000000000000e+00  -3.5789750979941211e-11 -1.6123996376751399e-11 0.0000000000000000e+00  3.1341716297270883e-11 1.4120068069252478e-11 0.0000000000000000e+00  1.8166746793515266e-11 8.1844816310728523e-12 0.0000000000000000e+00  8.9150340901843818e-12 4.0164006016502480e-12 0.0000000000000000e+00  -7.1384703131958069e-12 -3.2160231997709668e-12 0.0000000000000000e+00  -6.7800825754814560e-14 -3.0545623785538153e-14 0.0000000000000000e+00  5.9471752546526436e-13 2.6793210243812192e-13 0.0000000000000000e+00  2.3522773790541867e-13 1.0597478579340007e-13 0.0000000000000000e+00  4.3692094332858215e-14 1.9684159610680871e-14 0.0000000000000000e+00  1.7650285069235890e-14 7.9518053272986470e-15 0.0000000000000000e+00  -1.6395155590324296e-15 -7.3863444728303527e-16 0.0000000000000000e+00  -2.7687882101040560e-15 -1.2473942915314219e-15 0.0000000000000000e+00  -1.2903282781137891e-16 -5.8131861528701605e-17 0.0000000000000000e+00  2.1308659403702734e-16 9.5999759040317466e-17 0.0000000000000000e+00  -3.3300188412185401e-17 -1.5002398804175694e-17 0.0000000000000000e+00  2.3270533691713548e-17 1.0483839385765869e-17 0.0000000000000000e+00  -5.7048093930136531e-18 -2.5701303715290755e-18 0.0000000000000000e+00  3.2275539401489072e-18 1.4540773995856425e-18 0.0000000000000000e+00  -8.8680616568169685e-18 -3.9952385839025293e-18 0.0000000000000000e+00  7.0110965203097488e-19 3.1586387665531363e-19 0.0000000000000000e+00  -6.4093320760138446e-17 -2.8875318866835309e-17 0.0000000000000000e+00  -5.7347314851894582e-17 -2.5836108706277753e-17 0.0000000000000000e+00  -2.6570191496084517e-15 -1.1970401013758626e-15 0.0000000000000000e+00  3.2773030223568877e-15 1.4764903529956212e-15 0.0000000000000000e+00  -3.9218834026802897e-15 -1.7668866656909757e-15 0.0000000000000000e+00  -1.4250727150631435e-14 -6.4202367060792242e-15 0.0000000000000000e+00  9.6735920566894520e-14 4.3581460893553272e-14 0.0000000000000000e+00  -3.0938939115620324e-13 -1.3938608918524904e-13 0.0000000000000000e+00  -6.5509433700454322e-13 -2.9513305980283607e-13 0.0000000000000000e+00  4.7426024447459545e-13 2.1366369572762409e-13 0.0000000000000000e+00  1.8578591097269632e-12 8.3700257010844649e-13 0.0000000000000000e+00  1.3809200710081796e-12 6.2213202416519629e-13 0.0000000000000000e+00  1.1454663442575323e-11 5.1605542589135479e-12 0.0000000000000000e+00  3.3410189860505470e-12 1.5051956649804364e-12 0.0000000000000000e+00  2.1096970306347673e-12 9.5046057451096349e-13 0.0000000000000000e+00  -2.7273379944605309e-10 -1.2287201429678741e-10 0.0000000000000000e+00  -2.3963032371458452e-10 -1.0795823847724545e-10 0.0000000000000000e+00  -1.0331669323198777e-10 -4.6546230183724070e-11 0.0000000000000000e+00  -2.8049912820242167e-10 -1.2637044972323525e-10 0.0000000000000000e+00  2.2403467776672757e-10 1.0093208903861764e-10 0.0000000000000000e+00  9.6499841854124556e-10 4.3475102726616902e-10 0.0000000000000000e+00  3.3604109305079813e-09 1.5139321225865536e-09 0.0000000000000000e+00  -8.4151618445605073e-09 -3.7911981887640684e-09 0.0000000000000000e+00  -8.7792080138994873e-08 -3.9552082462434258e-08 0.0000000000000000e+00  -9.9528841328213405e-08 -4.4839727380551176e-08 0.0000000000000000e+00  1.4779265748416671e-07 6.6583538821512084e-08 0.0000000000000000e+00  4.9823325872794752e-07 2.2446401661215645e-07 0.0000000000000000e+00  -9.8654065441724375e-08 -4.4445623402791518e-08 0.0000000000000000e+00  -7.2238986470447628e-07 -3.2545103674024045e-07 0.0000000000000000e+00  -1.3442308854206126e-07 -6.0560281456517838e-08 0.0000000000000000e+00  -9.1277404429314258e-07 -4.1122290544083364e-07 0.0000000000000000e+00  2.2033498785327194e-06 9.9265304969818372e-07 0.0000000000000000e+00  -8.2432796854787162e-06 -3.7137618491869583e-06 0.0000000000000000e+00  -1.1679301861545932e-07 -5.2617583454014865e-08 0.0000000000000000e+00  -7.3257624714364567e-06 -3.3004020512069167e-06 0.0000000000000000e+00  -1.3683192217460834e-06 -6.1645509034244132e-07 0.0000000000000000e+00  3.8043074801002647e-06 1.7139163683917226e-06 0.0000000000000000e+00  -4.6985934635141362e-06 -2.1168100337996305e-06 0.0000000000000000e+00  3.4348186045169208e-06 1.5474542632350019e-06 0.0000000000000000e+00  1.2062814712355943e-05 5.4345385310018223e-06 0.0000000000000000e+00  1.7999542734881222e-07 8.1091528690171674e-08 0.0000000000000000e+00  6.0531531504051642e-06 2.7270661793583266e-06 0.0000000000000000e+00  5.1365931811057298e-06 2.3141376392200527e-06 0.0000000000000000e+00  -1.1256277886250873e-08 -5.0711776104659109e-09 0.0000000000000000e+00  -1.0541394951970739e-06 -4.7491085955513661e-07 0.0000000000000000e+00  -7.5747326068206273e-07 -3.4125680610543668e-07 0.0000000000000000e+00  4.9401550032774749e-07 2.2256383236105773e-07 0.0000000000000000e+00  -2.1830912426105431e-07 -9.8352613030748560e-08 0.0000000000000000e+00  -1.2274052307529934e-07 -5.5297052791898195e-08 0.0000000000000000e+00  1.2689144779774320e-07 5.7167127138667561e-08 0.0000000000000000e+00  1.0307304300037438e-08 4.6436460896591229e-09 0.0000000000000000e+00  -5.0109820162242078e-10 -2.2575473050608063e-10 0.0000000000000000e+00  8.5003589048785841e-09 3.8295811630588177e-09 0.0000000000000000e+00  4.8238133638010270e-09 2.1732240954580767e-09 0.0000000000000000e+00  8.0866445091675938e-09 3.6431945793356547e-09 0.0000000000000000e+00  5.6234991356632938e-10 2.5334984794646624e-10 0.0000000000000000e+00  1.8952197502165852e-09 8.5383428352901334e-10 0.0000000000000000e+00  -1.1035325484904415e-09 -4.9716341484073504e-10 0.0000000000000000e+00  -3.3957648959083460e-10 -1.5298597888712016e-10 0.0000000000000000e+00  3.2511717841289457e-10 1.4647177091808196e-10 0.0000000000000000e+00  -5.6255776228908298e-12 -2.5344348794006151e-12 0.0000000000000000e+00  2.3389572224228167e-11 1.0537468618001532e-11 0.0000000000000000e+00  -7.5830471547162616e-13 -3.4163139306531480e-13 0.0000000000000000e+00  2.7599636155683618e-12 1.2434186357522134e-12 0.0000000000000000e+00  -1.3213906961466846e-12 -5.9531285391964314e-13 0.0000000000000000e+00  1.1254099867754504e-01 5.0701963697085795e-02 0.0000000000000000e+00  3.0527823425681677e-04 1.3753393103564031e-04 0.0000000000000000e+00  -1.5226458170134347e+02 -6.8598229840605072e+01 0.0000000000000000e+00  5.7703041121875472e+01 2.5996370483217778e+01 0.0000000000000000e+00  8.8365012031893899e-10 3.9810199703048934e-10 0.0000000000000000e+00  -3.9796350151084998e-04 -1.7929049185160816e-04 0.0000000000000000e+00  4.8607514146408901e-10 2.1898654238160596e-10 0.0000000000000000e+00  -1.6136598144019285e+00 -7.2698591882655172e-01 0.0000000000000000e+00  -1.0852339264055852e-03 -4.8891952076164126e-04 0.0000000000000000e+00  -1.6342818070612076e-05 -7.3627653767176205e-06 0.0000000000000000e+00  -2.3382509878528961e-02 -1.0534286890458100e-02 0.0000000000000000e+00  -1.2474465856504382e-04 -5.6199955787598171e-05 0.0000000000000000e+00  1.2748423668522010e-07 5.7434190351239501e-08 0.0000000000000000e+00  8.3252432741024771e-02 3.7506880800158800e-02 0.0000000000000000e+00  -1.3059330224070744e-14 -5.8834886371165926e-15 0.0000000000000000e+00  -2.7032114642582259e-06 -1.2178506600876041e-06 0.0000000000000000e+00  1.0965097648601393e-03 4.9399951079811784e-04 0.0000000000000000e+00  -2.3948578512956498e-02 -1.0789312096294759e-02 0.0000000000000000e+00  9.5290810814643203e-08 4.2930410138202471e-08 0.0000000000000000e+00  5.5909523031215719e-07 2.5188354825001968e-07 0.0000000000000000e+00  -1.3653323897124644e+03 -6.1510946296115458e+02 0.0000000000000000e+00  2.4644401336276203e-01 1.1102794151209210e-01 0.0000000000000000e+00  5.4545277156038029e-08 2.4573734858501168e-08 0.0000000000000000e+00  -1.2305939395226867e-13 -5.5440710479479869e-14 0.0000000000000000e+00  -1.0102607787912078e-05 -4.5514262297977648e-06 0.0000000000000000e+00  -3.3896774789339526e-03 -1.5271172861560005e-03 0.0000000000000000e+00  1.4486149871076466e-10 6.5262993353942072e-11 0.0000000000000000e+00  8.4997455981657293e-08 3.8293048561568345e-08 0.0000000000000000e+00  -2.0762431306431324e-18 -9.3538892557558063e-19 0.0000000000000000e+00  1.4442690547341723e-02 6.5067200435788598e-03 0.0000000000000000e+00  1.1265833418432148e-03 5.0754825682272208e-04 0.0000000000000000e+00  5.9708406494703463e-08 2.6899827565768140e-08 0.0000000000000000e+00  -3.5856054420967090e-10 -1.6153867398862352e-10 0.0000000000000000e+00  -2.3514286223954111e-02 -1.0593654761370920e-02 0.0000000000000000e+00  1.7880316849845418e-06 8.0554392307355691e-07 0.0000000000000000e+00  -1.1737774175154836e-11 -5.2881012884776863e-12 0.0000000000000000e+00  8.6196976556799127e+03 3.8833456496182548e+03 0.0000000000000000e+00  -5.8370388326345179e-03 -2.6297023704105796e-03 0.0000000000000000e+00  -1.5063800873184620e-21 -6.7865426287951282e-22 0.0000000000000000e+00  -3.0541014709750047e-01 -1.3759336040038847e-01 0.0000000000000000e+00  6.0592681383594407e-07 2.7298211033496614e-07 0.0000000000000000e+00  6.0442673230427826e-13 2.7230629369698583e-13 0.0000000000000000e+00  4.0188130644894117e-06 1.8105554108768730e-06 0.0000000000000000e+00  -2.4921158385192739e-05 -1.1227478719606192e-05 0.0000000000000000e+00  9.0458333581711009e-11 4.0753282796964399e-11 0.0000000000000000e+00  -5.8079772124965104e-05 -2.6166095311206403e-05 0.0000000000000000e+00  1.2900308210931982e-04 5.8118460496867399e-05 0.0000000000000000e+00  3.2437945357855070e-03 1.4613941117177331e-03 0.0000000000000000e+00  -5.6415688289887269e+00 -2.5416392365733436e+00 0.0000000000000000e+00  -1.1872929538865223e-04 -5.3489914744974899e-05 0.0000000000000000e+00  2.7393714441308230e-09 1.2341414519619397e-09 0.0000000000000000e+00  7.7535907626025764e-05 3.4931472262292344e-05 0.0000000000000000e+00  -2.0334999051278136e-05 -9.1613225028533285e-06 0.0000000000000000e+00  -1.3387440582230557e-08 -6.0313088951873552e-09 0.0000000000000000e+00  6.7090456873225151e+01 3.0225588441360387e+01 0.0000000000000000e+00  5.2545366828474604e-01 2.3672735382602794e-01 0.0000000000000000e+00  -4.9902809214388893e-06 -2.2482210491307822e-06 0.0000000000000000e+00  -6.2905533893685187e-10 -2.8340197201926959e-10 0.0000000000000000e+00  -1.8163126974042731e+02 -8.1828508302301003e+01 0.0000000000000000e+00  -7.9292387002187294e-05 -3.5722801241165139e-05 0.0000000000000000e+00  8.4515018994196561e-04 3.8075701080101239e-04 0.0000000000000000e+00  -1.5516266444762099e-07 -6.9903873898500182e-08 0.0000000000000000e+00  1.7096623500274530e-12 7.7023697518211093e-13 0.0000000000000000e+00  -1.2141150392385259e-04 -5.4698303166773184e-05 0.0000000000000000e+00  -3.0750810705967199e-09 -1.3853853319154823e-09 0.0000000000000000e+00  5.8876830372010662e-16 2.6525185942896596e-16 0.0000000000000000e+00  -1.7884033915045087e-16 -8.0571138427172085e-17 0.0000000000000000e+00  -1.0811542821708956e-06 -4.8708155969576343e-07 0.0000000000000000e+00  2.1005514087172991e-10 9.4634028949573305e-11 0.0000000000000000e+00  -3.7051383932770008e-16 -1.6692387175882776e-16 0.0000000000000000e+00  -6.4236304241999796e-07 -2.8939735776155581e-07 0.0000000000000000e+00  1.7408769470811803e-12 7.8429977349769962e-13 0.0000000000000000e+00  2.3498967001388778e-04 1.0586753146177255e-04 0.0000000000000000e+00  -6.8121291232614453e+01 -3.0689999872586640e+01 0.0000000000000000e+00  -1.9658705635542423e-14 -8.8566388354241891e-15 0.0000000000000000e+00  1.3417126944275374e-08 6.0446831931621682e-09 0.0000000000000000e+00  -3.4782419804446587e-15 -1.5670173598465863e-15 0.0000000000000000e+00  8.0262805621750585e-03 3.6159994177057402e-03 0.0000000000000000e+00  -1.7443465370856504e-08 -7.8586289296987042e-09 0.0000000000000000e+00  3.3645883906748725e-05 1.5158141516800958e-05 0.0000000000000000e+00  4.2948748756297747e-06 1.9349267607943801e-06 0.0000000000000000e+00  6.8360529561596988e-10 3.0797781509621604e-10 0.0000000000000000e+00  5.7959377635570075e-04 2.6111855193361639e-04 0.0000000000000000e+00  -3.5525377783301488e-06 -1.6004890980708901e-06 0.0000000000000000e+00  -9.4503046723875483e-01 -4.2575506709218219e-01 0.0000000000000000e+00  -9.0953923002553660e-04 -4.0976555711897544e-04 0.0000000000000000e+00  1.3826513459072096e-09 6.2291199802460511e-10 0.0000000000000000e+00  7.6654909994895341e-09 3.4534565264525522e-09 0.0000000000000000e+00  -3.6396194311475473e-14 -1.6397211188607541e-14 0.0000000000000000e+00  1.4734747432454822e+02 6.6382974932238184e+01 0.0000000000000000e+00  9.5730077352093059e-04 4.3128308471226338e-04 0.0000000000000000e+00  -1.1659238165455429e-07 -5.2527192502917355e-08 0.0000000000000000e+00  -5.2620960723389446e-06 -2.3706791939419695e-06 0.0000000000000000e+00  9.6391420195401508e-12 4.3426256607698948e-12 0.0000000000000000e+00  1.5391724935599502e+01 6.9342789569185301e+00 0.0000000000000000e+00  -7.3605632469798422e-12 -3.3160804944317445e-12 0.0000000000000000e+00  1.6190188287718241e+00 7.2940026164585670e-01 0.0000000000000000e+00  2.7874459790398476e-01 1.2557999884273735e-01 0.0000000000000000e+00  -4.7061726714363339e-07 -2.1202246180794859e-07 0.0000000000000000e+00  -1.0860013531093343e-10 -4.8926526179229499e-11 0.0000000000000000e+00  -9.4214145878860833e-05 -4.2445351118561348e-05 0.0000000000000000e+00  3.4266655496935754e-09 1.5437811494850720e-09 0.0000000000000000e+00  -3.7704694757504151e-04 -1.6986716727848913e-04 0.0000000000000000e+00  7.3595299681923135e-08 3.3156149817369099e-08 0.0000000000000000e+00  -2.7881695