<?xml version="1.0"?>
<VTKFile type="UnstructuredGrid"  version="0.1"  >
<UnstructuredGrid>
<Piece  NumberOfPoints="1855" NumberOfCells="3532">
<Points>
<DataArray  type="Float64"  NumberOfComponents="3"  format="ascii">0 0 0  30 0 0  30 -10 0  0 -10 0  0.1391574078963744 0 0  0.2856388821882616 0 0  0.4398299073010886 0 0  0.6021362569539473 0 0  0.7729850389704483 0 0  0.9528258543586996 0 0  1.142131984380316 0 0  1.34140159760994 0 0  1.551159074717981 0 0  1.771956417032531 0 0  2.004374674080994 0 0  2.249025475789527 0 0  2.506552636773105 0 0  2.777633857742732 0 0  3.062982518028728 0 0  3.363349525995907 0 0  3.679525322337712 0 0  4.01234195575742 0 0  4.362675247811097 0 0  4.731447135329707 0 0  5.119628065610077 0 0  5.528239565804708 0 0  5.958356943167011 0 0  6.411112081475485 0 0  6.887696441559404 0 0  7.389364184530748 0 0  7.917435485335147 0 0  8.473300005202017 0 0  9.058420557070402 0 0  9.674336929103793 0 0  10.32266995225095 0 0  11.00512576896296 0 0  11.72350030646412 0 0  12.47968402994705 0 0  13.27566689579597 0 0  14.1135435963616 0 0  14.9955190732806 0 0  15.92391430904694 0 0  16.90117245730496 0 0  17.92986524844506 0 0  19.01269976086341 0 0  20.15252556282024 0 0  21.35234220269763 0 0  22.61530708683689 0 0  23.94474379751883 0 0  25.34415086349739 0 0  26.81721093579712 0 0  28.3678004819169 0 0  30 -1.111111111111111 0  30 -2.222222222222222 0  30 -3.333333333333333 0  30 -4.444444444444445 0  30 -5.555555555555555 0  30 -6.666666666666666 0  30 -7.777777777777777 0  30 -8.888888888888889 0  28.36780047917311 -10 0  26.8172109305839 -10 0  25.34415085606858 -10 0  23.94474378810899 -10 0  22.61530707566275 -10 0  21.3523421899591 -10 0  20.15252554870171 -10 0  19.01269974553473 -10 0  17.92986523206254 -10 0  16.90117244001232 -10 0  15.92391429097614 -10 0  14.99551905455266 -10 0  14.11354357708742 -10 0  13.27566687607703 -10 0  12.47968400987599 -10 0  11.72350028612546 -10 0  11.00512574843363 -10 0  10.32266993160086 -10 0  9.674336908396342 -10 0  9.058420536362949 -10 0  8.473299984546333 -10 0  7.917435464777824 -10 0  7.389364164113587 -10 0  6.887696420787165 -10 0  6.411112061446698 -10 0  5.95835692337857 -10 0  5.528239546282652 -10 0  5.119628046377237 -10 0  4.731447115907979 -10 0  4.362675229213632 -10 0  4.012341937260036 -10 0  3.679525304434552 -10 0  3.363349508456405 -10 0  3.062982500861274 -10 0  2.777633840953978 -10 0  2.506552620368097 -10 0  2.249025459771861 -10 0  2.004374658452946 -10 0  1.771956401795187 -10 0  1.551159059871345 -10 0  1.341401583153029 -10 0  1.142131970307521 -10 0  0.9528258406748833 -10 0  0.7729850256685147 -10 0  0.6021362439621285 -10 0  0.4398298947504031 -10 0  0.2856388700059078 -10 0  0.1391573960769001 -10 0  0 -9.855072463768115 0  0 -9.710144927536232 0  0 -9.565217391304348 0  0 -9.420289855072463 0  0 -9.27536231884058 0  0 -9.130434782608695 0  0 -8.985507246376812 0  0 -8.840579710144928 0  0 -8.695652173913043 0  0 -8.55072463768116 0  0 -8.405797101449275 0  0 -8.260869565217391 0  0 -8.115942028985508 0  0 -7.971014492753623 0  0 -7.826086956521739 0  0 -7.681159420289855 0  0 -7.536231884057971 0  0 -7.391304347826087 0  0 -7.246376811594203 0  0 -7.101449275362318 0  0 -6.956521739130435 0  0 -6.811594202898551 0  0 -6.666666666666667 0  0 -6.521739130434783 0  0 -6.376811594202898 0  0 -6.231884057971015 0  0 -6.086956521739131 0  0 -5.942028985507246 0  0 -5.797101449275362 0  0 -5.652173913043478 0  0 -5.507246376811594 0  0 -5.36231884057971 0  0 -5.217391304347826 0  0 -5.072463768115941 0  0 -4.927536231884058 0  0 -4.782608695652174 0  0 -4.637681159420289 0  0 -4.492753623188406 0  0 -4.347826086956522 0  0 -4.202898550724638 0  0 -4.057971014492754 0  0 -3.913043478260869 0  0 -3.768115942028985 0  0 -3.623188405797101 0  0 -3.478260869565217 0  0 -3.333333333333334 0  0 -3.188405797101449 0  0 -3.043478260869565 0  0 -2.898550724637681 0  0 -2.753623188405797 0  0 -2.608695652173912 0  0 -2.463768115942029 0  0 -2.318840579710145 0  0 -2.173913043478261 0  0 -2.028985507246377 0  0 -1.884057971014492 0  0 -1.739130434782609 0  0 -1.594202898550725 0  0 -1.44927536231884 0  0 -1.304347826086957 0  0 -1.159420289855072 0  0 -1.014492753623188 0  0 -0.8695652173913047 0  0 -0.72463768115942 0  0 -0.579710144927537 0  0 -0.4347826086956523 0  0 -0.2898550724637676 0  0 -0.1449275362318829 0  5.15859856094262 -4.976557621770688 0  2.816777084926057 -7.160262673925935 0  2.81677708460006 -2.839737326002783 0  2.227649803257325 -5.003121586636773 0  1.518662968975629 -8.46230852045241 0  1.518662969184829 -1.537691480152612 0  9.960740911025725 -5.055901393541221 0  1.491099662214591 -3.691833922963321 0  1.503675657181264 -6.345020369042368 0  5.319208041801049 -7.493850249937013 0  5.291109955459268 -2.489368743223226 0  1.096914507335763 -2.53623188405797 0  1.096914507253562 -7.463768115942029 0  1.089580194952752 -4.71277167923441 0  15.07565076110197 -5.047572991082069 0  7.501630508673601 -5.937500100385354 0  0.8894869418764504 -5.623930488933245 0  2.955144522453978 -1.440834296472408 0  2.955144521140721 -8.559165705576945 0  8.106603955004623 -2.748811534843258 0  3.662152539483591 -4.228178367024407 0  3.662181528265114 -5.771746159989156 0  0.8436558190317136 -0.8541050638451999 0  0.8436558075840921 -9.145894948342754 0  0.7854168197005933 -1.811594202898552 0  0.7894693398152999 -3.286543351392342 0  0.7854168196772591 -8.188405797101449 0  0.7854168196772591 -6.739130434782609 0  20.00078956016804 -4.999999999785771 0  0.7379120031523989 -3.977302749614766 0  6.584332478112232 -3.934875417052907 0  7.295091310194352 -7.969791332537982 0  9.811174303464586 -7.412814499648229 0  4.013376806449688 -2.206189431585293 0  4.013376806983409 -7.793810569017377 0  12.11177433894592 -2.818343737884045 0  2.591152707837148 -3.990098461753838 0  2.58990939378082 -6.025895074707176 0  25.43156400064585 -5.044446479916348 0  2.03262751726143 -2.282125834846944 0  2.032627517335952 -7.717874165160392 0  12.51865094522923 -6.491408052923457 0  0.598175343983641 -6.156971652625402 0  2.126700074935224 -0.8767654465386991 0  2.126700059112423 -9.123234559633019 0  6.617961838548696 -1.617756429129908 0  0.5903949564549755 -4.980060355019413 0  1.676697585305984 -5.547101897225158 0  4.773518305133987 -3.729331162566817 0  4.77931803486508 -6.231222307502165 0  4.878549698409591 -8.72048903376362 0  4.852580875634024 -1.222215410052823 0  0.5487847095754042 -2.675169258708207 0  0.545113423825768 -7.32369553390529 0  1.78738026998851 -4.400451872599477 0  1.68244194111824 -3.010100184333533 0  1.683984276238402 -7.018293626028473 0  9.998503440677371 -2.00585287985007 0  3.693061162502273 -3.243678395563028 0  3.694987482168253 -6.757603268814477 0  6.081763036485869 -5.83414381546261 0  0.5196640460586313 -1.350633211792632 0  0.5196640458460706 -8.649366789040087 0  3.84593363904758 -0.9906418103762418 0  3.845933620847308 -9.009358200471317 0  17.41551885287501 -3.057748733689079 0  17.30725517812527 -7.002961443761516 0  8.117698464370697 -4.451550942597151 0  0.4918476668493152 -0.4789811193757592 0  0.4918476560347713 -9.521018882514893 0  1.463770869328428 -0.6252343353791154 0  1.463770854281917 -9.374765668872765 0  0.5034132782032188 -4.464280853772128 0  3.138906271796685 -4.99999841599503 0  14.61209972381335 -2.388610981020637 0  6.208601124947327 -8.776231214192325 0  14.74910972998159 -7.542186851303819 0  2.243794246335625 -1.632184311040998 0  2.243794245689214 -8.367815689183566 0  0.4590235278399923 -5.431413993025926 0  0.4971508861448406 -2.209632053221267 0  0.4971508861368665 -7.790367946777407 0  0.4644363683211541 -3.560571347760519 0  6.478811279411406 -7.007392971062433 0  1.238895267772762 -4.173677632458826 0  1.293241773632479 -2.02256720952064 0  1.293241773542714 -7.977432790434841 0  0.4324740478030531 -0.942028985507247 0  0.4324740423701829 -9.057971014492754 0  2.117396640811705 -3.472968170680347 0  2.107095929630507 -6.531506384346077 0  8.087741545730886 -1.392783601483453 0  1.028911946384717 -1.352376108341404 0  1.028911946221715 -8.647623891551962 0  4.05691976296832 -4.991522392209158 0  11.51826881314265 -8.065248940008736 0  1.618560396201739 -4.958056164503666 0  2.701984523487646 -2.141781914603403 0  2.70198452396172 -7.858218085853512 0  2.843615645746219 -9.289121726447632 0  2.843615661334342 -0.7108782798429658 0  8.678774612240533 -8.488146490452822 0  6.487906449371135 -2.667543558824978 0  8.369190916679937 -7.129867754908394 0  11.80978191929258 -4.655775487536958 0  0.3792065166453504 -3.113833531412848 0  0.4134714637263563 -6.58827691137208 0  9.551050695080825 -3.49648183875815 0  1.083867845277057 -6.036251777836495 0  0.3756430921870901 -1.80381664325008 0  0.3756430921689482 -8.196183356748573 0  3.113073783220456 -3.503408140759125 0  3.113391383189963 -6.496678880796299 0  22.62850736315072 -3.277987336300344 0  22.59385352108348 -6.800312122582239 0  0.3777114402537816 -4.137047872695438 0  0.9196816123347897 -0.4281025456111269 0  0.9196815944880363 -9.571897460530383 0  0.4052043328723194 -5.827814332459883 0  8.865857694874787 -5.767686953139113 0  1.200388325130726 -5.182186034620629 0  5.65297436943758 -4.325500846767599 0  1.200079167961391 -3.009849046583253 0  1.20883344838 -7.021823297793294 0  1.057642414577487 -3.660996704809145 0  10.88812987788297 -6.333458225047037 0  4.493502926606794 -2.839780197438185 0  4.485862892033458 -7.147606077919463 0  0.3631651408878085 -7.003529808558233 0  1.946748828463205 -6.049056369468467 0  6.918750162798794 -4.993796052442676 0  3.351203216022585 -1.980935554775394 0  3.351203216441711 -8.019064445907297 0  2.281892243515294 -2.856654416292082 0  2.281892243715877 -7.143345583598931 0  5.811143619672087 -0.9953286820321026 0  2.695713766833098 -4.565354125099452 0  2.698172168139827 -5.435483248292925 0  19.86166219288896 -2.493475492328429 0  19.83739102036415 -7.594404063416508
[...]
<PointData  Vectors="flow"> 
<DataArray  type="Float64"  Name="flow"  NumberOfComponents="3" format="ascii">-6.6024959546540094e-13 -2.9606292220494810e-13 0.0000000000000000e+00  -4.9592185751538605e-23 -2.2237662140151261e-23 0.0000000000000000e+00  -1.8846137842224030e-23 -8.4508081188797931e-24 0.0000000000000000e+00  1.2094254179818066e-18 5.4231918640440660e-19 0.0000000000000000e+00  3.0343313820180580e-12 1.3606263783701509e-12 0.0000000000000000e+00  -1.5110170010236785e-11 -6.7755605137340894e-12 0.0000000000000000e+00  2.6286578196917230e-11 1.1787180498402934e-11 0.0000000000000000e+00  -1.5643886974562652e-10 -7.0148848619410568e-11 0.0000000000000000e+00  1.6048856273903107e-10 7.1964773914775665e-11 0.0000000000000000e+00  1.3708974281479683e-09 6.1472494857742765e-10 0.0000000000000000e+00  2.1827795154621613e-09 9.7878148856918622e-10 0.0000000000000000e+00  -1.0867468418079967e-08 -4.8730881153494728e-09 0.0000000000000000e+00  -3.8225717050958535e-08 -1.7140817004982703e-08 0.0000000000000000e+00  -5.0807615934771181e-08 -2.2782673926989745e-08 0.0000000000000000e+00  -1.6346624907201015e-07 -7.3300000052294690e-08 0.0000000000000000e+00  -3.8295187755050982e-08 -1.7171968405608016e-08 0.0000000000000000e+00  1.7444339021786639e-06 7.8222266582132418e-07 0.0000000000000000e+00  -3.3994260192940670e-06 -1.5243386864664552e-06 0.0000000000000000e+00  -6.4997653610365698e-06 -2.9145637341565490e-06 0.0000000000000000e+00  -6.2926556635784648e-06 -2.8216935489000042e-06 0.0000000000000000e+00  -1.5055329560822066e-06 -6.7509694744964431e-07 0.0000000000000000e+00  5.2596413920790542e-06 2.3584789918597169e-06 0.0000000000000000e+00  -5.8912280043669533e-06 -2.6416891283652550e-06 0.0000000000000000e+00  -1.9099341436001796e-06 -8.5643472961871209e-07 0.0000000000000000e+00  3.1043990236825898e-06 1.3920454521351048e-06 0.0000000000000000e+00  2.7064041225754021e-06 1.2135803167473237e-06 0.0000000000000000e+00  4.5852074600757816e-06 2.0560556626908307e-06 0.0000000000000000e+00  1.9519472660860264e-06 8.7527385939560689e-07 0.0000000000000000e+00  -1.3724510111400887e-06 -6.1542159167072816e-07 0.0000000000000000e+00  -7.3171390812148450e-08 -3.2810827805770660e-08 0.0000000000000000e+00  -1.6588478385877959e-08 -7.4384496705292153e-09 0.0000000000000000e+00  -4.6934779733570505e-09 -2.1046053093257339e-09 0.0000000000000000e+00  3.1292737767822817e-09 1.4031995552839819e-09 0.0000000000000000e+00  2.1535629618445629e-10 9.6568047601244138e-11 0.0000000000000000e+00  4.8512352932443833e-11 2.1753453649741362e-11 0.0000000000000000e+00  -1.4762530207464946e-11 -6.6196751385816194e-12 0.0000000000000000e+00  4.4387227479868773e-12 1.9903703639534318e-12 0.0000000000000000e+00  -8.4700534081298071e-13 -3.7980617943056514e-13 0.0000000000000000e+00  1.5858146030715889e-13 7.1109608954733597e-14 0.0000000000000000e+00  1.6406043098438177e-14 7.3566437524587245e-15 0.0000000000000000e+00  -5.8481899668000308e-15 -2.6223904157942282e-15 0.0000000000000000e+00  3.4242243620565354e-15 1.5354585264095966e-15 0.0000000000000000e+00  -8.0337606332958937e-16 -3.6024234860940653e-16 0.0000000000000000e+00  1.7834248116675984e-16 7.9970660323227720e-17 0.0000000000000000e+00  -1.7173734954576711e-17 -7.7008849240434169e-18 0.0000000000000000e+00  3.9601758991271259e-18 1.7757848807385337e-18 0.0000000000000000e+00  -5.0040072596024090e-19 -2.2438499352178839e-19 0.0000000000000000e+00  8.4157681729721165e-20 3.7737197190302652e-20 0.0000000000000000e+00  1.4960149641812937e-21 6.7082897891915718e-22 0.0000000000000000e+00  1.0090022443866200e-21 4.5244730937530354e-22 0.0000000000000000e+00  -1.0204146488674857e-21 -4.5756475260161767e-22 0.0000000000000000e+00  2.3737830253704247e-22 1.0644294884819806e-22 0.0000000000000000e+00  2.2457146593594629e-23 1.0070022746773411e-23 0.0000000000000000e+00  -1.9750524272650790e-24 -8.8563445875630803e-25 0.0000000000000000e+00  6.1461612567660829e-24 2.7560039029457660e-24 0.0000000000000000e+00  -7.9962901196523474e-24 -3.5856213103077840e-24 0.0000000000000000e+00  -1.9938038181357354e-24 -8.9404278132811451e-25 0.0000000000000000e+00  6.2523867066112723e-24 2.8036365214429141e-24 0.0000000000000000e+00  -7.0551468406100453e-25 -3.1636026808069230e-25 0.0000000000000000e+00  9.2947887449359308e-24 4.1678818677104400e-24 0.0000000000000000e+00  9.2745021372405265e-23 4.1587851376296085e-23 0.0000000000000000e+00  -3.8331347277776487e-22 -1.7188182719160641e-22 0.0000000000000000e+00  6.9404410924343994e-22 3.1121674065836114e-22 0.0000000000000000e+00  7.4119323926524649e-21 3.3235891069458409e-21 0.0000000000000000e+00  -9.6246390184067281e-20 -4.3157902292218597e-20 0.0000000000000000e+00  5.1551096757854903e-19 2.3116058614533995e-19 0.0000000000000000e+00  -2.7292760172879410e-18 -1.2238363169500723e-18 0.0000000000000000e+00  6.2649479835446321e-18 2.8092691312635899e-18 0.0000000000000000e+00  -6.1547925445681945e-17 -2.7598742639526241e-17 0.0000000000000000e+00  1.5382405281618020e-16 6.8976336971573691e-17 0.0000000000000000e+00  -1.2315603663457476e-15 -5.5224473204728585e-16 0.0000000000000000e+00  3.2717901729855074e-15 1.4671054190843265e-15 0.0000000000000000e+00  -8.1008814551709475e-15 -3.6325211746070233e-15 0.0000000000000000e+00  -5.3539716694065805e-14 -2.4007776888218996e-14 0.0000000000000000e+00  1.2331998374826227e-13 5.5297988829575163e-14 0.0000000000000000e+00  -1.0189862650634722e-12 -4.5692425015231530e-13 0.0000000000000000e+00  6.3896258014743264e-12 2.8651759873433480e-12 0.0000000000000000e+00  -2.4148218720861635e-11 -1.0828317426689269e-11 0.0000000000000000e+00  -4.6424753869906847e-11 -2.0817352085890637e-11 0.0000000000000000e+00  6.1114147961650045e-11 2.7404232214391218e-11 0.0000000000000000e+00  -2.1304585542101024e-10 -9.5532021454911418e-11 0.0000000000000000e+00  1.9979002924501229e-10 8.9587968386404228e-11 0.0000000000000000e+00  3.6047150932705590e-10 1.6163924848415771e-10 0.0000000000000000e+00  -1.7789391474082204e-10 -7.9769518379668152e-11 0.0000000000000000e+00  -2.5562445532311069e-10 -1.1462471730355554e-10 0.0000000000000000e+00  2.5934199127749872e-11 1.1629169985926794e-11 0.0000000000000000e+00  1.6448497396983426e-09 7.3756807102604202e-10 0.0000000000000000e+00  5.7816827452096570e-10 2.5925678721576735e-10 0.0000000000000000e+00  1.3418098632015259e-10 6.0168177590906886e-11 0.0000000000000000e+00  4.6312857013529399e-11 2.0767176348545225e-11 0.0000000000000000e+00  -3.6919724252945882e-11 -1.6555195981033939e-11 0.0000000000000000e+00  -5.2074128166905802e-11 -2.3350591446408607e-11 0.0000000000000000e+00  4.5602232671292137e-11 2.0448524855537329e-11 0.0000000000000000e+00  2.6432637137694698e-11 1.1852674876767916e-11 0.0000000000000000e+00  1.2971384687330916e-11 5.8165064877755875e-12 0.0000000000000000e+00  -1.0386482381879408e-11 -4.6574088746572687e-12 0.0000000000000000e+00  -9.8650278180396221e-14 -4.4235831169016651e-14 0.0000000000000000e+00  8.6531467239155758e-13 3.8801627792665126e-13 0.0000000000000000e+00  3.4225662477962904e-13 1.5347150103868466e-13 0.0000000000000000e+00  6.3572046685794838e-14 2.8506380074461034e-14 0.0000000000000000e+00  2.5681184744564061e-14 1.1515715652656096e-14 0.0000000000000000e+00  -2.3854969932744460e-15 -1.0696821559460667e-15 0.0000000000000000e+00  -4.0285899781975241e-15 -1.8064624794961077e-15 0.0000000000000000e+00  -1.8774291044813096e-16 -8.4185912528057504e-17 0.0000000000000000e+00  3.1004123540151549e-16 1.3902577871676293e-16 0.0000000000000000e+00  -4.8451811814229642e-17 -2.1726306370144237e-17 0.0000000000000000e+00  3.3858652848793308e-17 1.5182579093093837e-17 0.0000000000000000e+00  -8.3005041210278007e-18 -3.7220340954748650e-18 0.0000000000000000e+00  4.6960946344419606e-18 2.1057786479124386e-18 0.0000000000000000e+00  -1.2903039743638572e-17 -5.7858598900548837e-18 0.0000000000000000e+00  1.0201153369124386e-18 4.5743053794601867e-19 0.0000000000000000e+00  -9.3255854218618179e-17 -4.1816914243197898e-17 0.0000000000000000e+00  -8.3440407989962723e-17 -3.7415564036912856e-17 0.0000000000000000e+00  -3.8659658687253782e-15 -1.7335401037733879e-15 0.0000000000000000e+00  4.7684796053386901e-15 2.1382368366861858e-15 0.0000000000000000e+00  -5.7063447879616823e-15 -2.5587855329802312e-15 0.0000000000000000e+00  -2.0734824126870827e-14 -9.2977150831571160e-15 0.0000000000000000e+00  1.4075087386797878e-13 6.3114184857440988e-14 0.0000000000000000e+00  -4.5016191416304517e-13 -2.0185737740367678e-13 0.0000000000000000e+00  -9.5316300148911318e-13 -4.2740840054523691e-13 0.0000000000000000e+00  6.9004919226958653e-13 3.0942537751119971e-13 0.0000000000000000e+00  2.7031871065601411e-12 1.2121377726415797e-12 0.0000000000000000e+00  2.0092402656345741e-12 9.0096464812872933e-13 0.0000000000000000e+00  1.6666548268294691e-11 7.4734570339312264e-12 0.0000000000000000e+00  4.8611864045986498e-12 2.1798075488618314e-12 0.0000000000000000e+00  3.0696115664003145e-12 1.3764463872817849e-12 0.0000000000000000e+00  -3.9682798675410859e-10 -1.7794187861381955e-10 0.0000000000000000e+00  -3.4866239211287438e-10 -1.5634391506009567e-10 0.0000000000000000e+00  -1.5032590554091227e-10 -6.7407730626742793e-11 0.0000000000000000e+00  -4.0812654888000666e-10 -1.8300827372058175e-10 0.0000000000000000e+00  3.2597070961445398e-10 1.4616872392575838e-10 0.0000000000000000e+00  1.4040737907380873e-09 6.2960158148113542e-10 0.0000000000000000e+00  4.8894017057234891e-09 2.1924595891800433e-09 0.0000000000000000e+00  -1.2244070004412710e-08 -5.4903708689638375e-09 0.0000000000000000e+00  -1.2773757592668194e-07 -5.7278884021992233e-08 0.0000000000000000e+00  -1.4481457673549656e-07 -6.4936392328968339e-08 0.0000000000000000e+00  2.1503848384615778e-07 9.6425537177555729e-08 0.0000000000000000e+00  7.2492995513032371e-07 3.2506628157568170e-07 0.0000000000000000e+00  -1.4354177683096816e-07 -6.4365655350551548e-08 0.0000000000000000e+00  -1.0510780704279821e-06 -4.7131455609161986e-07 0.0000000000000000e+00  -1.9558574590959950e-07 -8.7702723141865183e-08 0.0000000000000000e+00  -1.3280872671225289e-06 -5.9552841826479363e-07 0.0000000000000000e+00  3.2058765660469379e-06 1.4375490585544191e-06 0.0000000000000000e+00  -1.1993981268488111e-05 -5.3782284269587117e-06 0.0000000000000000e+00  -1.6993397422043816e-07 -7.6200196615248116e-08 0.0000000000000000e+00  -1.0658992684014384e-05 -4.7796053847879083e-06 0.0000000000000000e+00  -1.9909060157021316e-06 -8.9274337597844518e-07 0.0000000000000000e+00  5.5352716875870502e-06 2.4820745401141537e-06 0.0000000000000000e+00  -6.8364588052135854e-06 -3.0655406460015801e-06 0.0000000000000000e+00  4.9976649555883614e-06 2.2410059788219787e-06 0.0000000000000000e+00  1.7551409053863480e-05 7.8702379963419817e-06 0.0000000000000000e+00  2.6189355043213751e-07 1.1743584604987385e-07 0.0000000000000000e+00  8.8073446821346245e-06 3.9493067793869422e-06 0.0000000000000000e+00  7.4737488898447035e-06 3.3513082800054045e-06 0.0000000000000000e+00  -1.6377897059393976e-08 -7.3440227699931739e-09 0.0000000000000000e+00  -1.5337741581229615e-06 -6.8776060201329537e-07 0.0000000000000000e+00  -1.1021244512673209e-06 -4.9420429473451688e-07 0.0000000000000000e+00  7.1879311188622982e-07 3.2231445596845908e-07 0.0000000000000000e+00  -3.1764002278603636e-07 -1.4243315558412718e-07 0.0000000000000000e+00  -1.7858759993827408e-07 -8.0080574180472166e-08 0.0000000000000000e+00  1.8462720010561994e-07 8.2788794960574996e-08 0.0000000000000000e+00  1.4997139417825875e-08 6.7248763971249602e-09 0.0000000000000000e+00  -7.2909845028304861e-10 -3.2693547901946303e-10 0.0000000000000000e+00  1.2368031823564065e-08 5.5459566635964214e-09 0.0000000000000000e+00  7.0186539017997733e-09 3.1472388599454808e-09 0.0000000000000000e+00  1.1766076909744650e-08 5.2760336950024133e-09 0.0000000000000000e+00  8.1821976045918446e-10 3.6689841985685328e-10 0.0000000000000000e+00  2.7575468807408730e-09 1.2365132720055805e-09 0.0000000000000000e+00  -1.6056411065461324e-09 -7.1998650401497550e-10 0.0000000000000000e+00  -4.9408417653790857e-10 -2.2155258575800899e-10 0.0000000000000000e+00  4.7304586241531972e-10 2.1211878254150145e-10 0.0000000000000000e+00  -8.1852218058594219e-12 -3.6703402824960953e-12 0.0000000000000000e+00  3.4031854048277513e-11 1.5260244348174446e-11 0.0000000000000000e+00  -1.1033342189268102e-12 -4.9474676738564377e-13 0.0000000000000000e+00  4.0157501831642963e-12 1.8007049792050664e-12 0.0000000000000000e+00  -1.9226249578619532e-12 -8.6212542535151669e-13 0.0000000000000000e+00  1.6374728040020778e-01 7.3426017480898442e-02 0.0000000000000000e+00  4.4418017622324007e-04 1.9917510266017683e-04 0.0000000000000000e+00  -2.2154513864150596e+02 -9.9343190207137198e+01 0.0000000000000000e+00  8.3957990115239227e+01 3.7647653352139756e+01 0.0000000000000000e+00  1.2857119247904235e-09 5.7652686526659056e-10 0.0000000000000000e+00  -5.7903734493825777e-04 -2.5964648760954669e-04 0.0000000000000000e+00  7.0723988075620636e-10 3.1713386457883941e-10 0.0000000000000000e+00  -2.3478768555849108e+00 -1.0528128871504370e+00 0.0000000000000000e+00  -1.5790165907103402e-03 -7.0804778869462638e-04 0.0000000000000000e+00  -2.3778818782350634e-05 -1.0662674575850702e-05 0.0000000000000000e+00  -3.4021578327295111e-02 -1.5255636605886226e-02 0.0000000000000000e+00  -1.8150361934324928e-04 -8.1388148213339809e-05 0.0000000000000000e+00  1.8548970860755627e-07 8.3175552921903029e-08 0.0000000000000000e+00  1.2113238382666001e-01 5.4317045819760351e-02 0.0000000000000000e+00  -1.9001340250826194e-14 -8.5204025252067262e-15 0.0000000000000000e+00  -3.9331757388009329e-06 -1.7636777224440329e-06 0.0000000000000000e+00  1.5954229484187480e-03 7.1540457352153310e-04 0.0000000000000000e+00  -3.4845208830814552e-02 -1.5624961260325750e-02 0.0000000000000000e+00  1.3864823754351409e-07 6.2171340425833979e-08 0.0000000000000000e+00  8.1348419264214453e-07 3.6477494101514879e-07 0.0000000000000000e+00  -1.9865601717140364e+03 -8.9079465343563845e+02 0.0000000000000000e+00  3.5857631825970865e-01 1.6078942470631813e-01 0.0000000000000000e+00  7.9363439972378019e-08 3.5587408331385412e-08 0.0000000000000000e+00  -1.7905155742502220e-13 -8.0288617638959430e-14 0.0000000000000000e+00  -1.4699305761098021e-05 -6.5913246261773247e-06 0.0000000000000000e+00  -4.9319845667942864e-03 -2.2115541957819247e-03 0.0000000000000000e+00  2.1077364451466208e-10 9.4513137982025411e-11 0.0000000000000000e+00  1.2367139461602972e-07 5.5455565190273373e-08 0.0000000000000000e+00  -3.0209361040640939e-18 -1.3546197936451720e-18 0.0000000000000000e+00  2.1014131086264019e-02 9.4229592864979034e-03 0.0000000000000000e+00  1.6391800369531609e-03 7.3502571617372627e-04 0.0000000000000000e+00  8.6875799001494102e-08 3.8956029807397166e-08 0.0000000000000000e+00  -5.2170599748611490e-10 -2.3393850326967845e-10 0.0000000000000000e+00  -3.4213313058975847e-02 -1.5341612493398648e-02 0.0000000000000000e+00  2.6015881245599598e-06 1.1665797114013941e-06 0.0000000000000000e+00  -1.7078474704497971e-11 -7.6581692174348854e-12 0.0000000000000000e+00  1.2541669840995077e+04 5.6238177924779302e+03 0.0000000000000000e+00  -8.4928981052752907e-03 -3.8083055988308140e-03 0.0000000000000000e+00  -2.1917847313064734e-21 -9.8281952287661426e-22 0.0000000000000000e+00  -4.4437210955567519e-01 -1.9926116760237381e-01 0.0000000000000000e+00  8.8162419965263609e-07 3.9532964295384640e-07 0.0000000000000000e+00  8.7944157932692921e-13 3.9435093284765342e-13 0.0000000000000000e+00  5.8473775555562890e-06 2.6220261219748746e-06 0.0000000000000000e+00  -3.6260313645256172e-05 -1.6259509269847167e-05 0.0000000000000000e+00  1.3161697770232642e-10 5.9018448928949421e-11 0.0000000000000000e+00  -8.4506134150952981e-05 -3.7893446952192262e-05 0.0000000000000000e+00  1.8769963041798238e-04 8.4166505303445862e-05 0.0000000000000000e+00  4.7197247194666926e-03 2.1163746286938399e-03 0.0000000000000000e+00  -8.2084890288236920e+00 -3.6807735520803613e+00 0.0000000000000000e+00  -1.7275125911607190e-04 -7.7463497046803456e-05 0.0000000000000000e+00  3.9857885504253823e-09 1.7872698652669304e-09 0.0000000000000000e+00  1.1281483331688766e-04 5.0587367942752244e-05 0.0000000000000000e+00  -2.9587446625813461e-05 -1.3267324915885279e-05 0.0000000000000000e+00  -1.9478741193159741e-08 -8.7344741717800514e-09 0.0000000000000000e+00  9.7616690653999228e+01 4.3772359558399756e+01 0.0000000000000000e+00  7.6453568183154597e-01 3.4282590954629760e-01 0.0000000000000000e+00  -7.2608643864976535e-06 -3.2558486105319885e-06 0.0000000000000000e+00  -9.1527622984114402e-10 -4.1041957025431954e-10 0.0000000000000000e+00  -2.6427370296266804e+02 -1.1850313169203638e+02 0.0000000000000000e+00  -1.1537051279641623e-04 -5.1733361730746133e-05 0.0000000000000000e+00  1.2296944825346465e-03 5.5140804995402342e-04 0.0000000000000000e+00  -2.2576185231611447e-07 -1.0123400934762640e-07 0.0000000000000000e+00  2.4875606535334744e-12 1.1154485838466000e-12 0.0000000000000000e+00  -1.7665387556932088e-04 -7.9213471661450594e-05 0.0000000000000000e+00  -4.4742464367418334e-09 -2.0062995628087159e-09 0.0000000000000000e+00  8.5665854802163769e-16 3.8413477993933193e-16 0.0000000000000000e+00  -2.6021289579670486e-16 -1.1668222268380225e-16 0.0000000000000000e+00  -1.5730807037333194e-06 -7.0538607400920602e-07 0.0000000000000000e+00  3.0563046761634323e-10 1.3704794365466759e-10 0.0000000000000000e+00  -5.3909805540632695e-16 -2.4173728652737400e-16 0.0000000000000000e+00  -9.3463895346492333e-07 -4.1910202091733182e-07 0.0000000000000000e+00  2.5329779275615930e-12 1.1358141712845894e-12 0.0000000000000000e+00  3.4191023572811071e-04 1.5331617651366186e-04 0.0000000000000000e+00  -9.9116555813155472e+01 -4.4444915005586630e+01 0.0000000000000000e+00  -2.8603438940786584e-14 -1.2826085432056699e-14 0.0000000000000000e+00  1.9521934883520903e-08 8.7538426807151291e-09 0.0000000000000000e+00  -5.0608460166906868e-15 -2.2693370368134232e-15 0.0000000000000000e+00  1.1678247298577178e-02 5.2366499657022381e-03 0.0000000000000000e+00  -2.5380261849434564e-08 -1.1380778634440113e-08 0.0000000000000000e+00  4.8954799149925297e-05 2.1951851226908825e-05 0.0000000000000000e+00  6.2490478030907991e-06 2.8021393216869171e-06 0.0000000000000000e+00  9.9464647852489699e-10 4.4601003168410734e-10 0.0000000000000000e+00  8.4330960032673687e-04 3.7814897019396165e-04 0.0000000000000000e+00  -5.1689464866693780e-06 -2.3178104342277193e-06 0.0000000000000000e+00  -1.3750203990020211e+00 -6.1657373244280322e-01 0.0000000000000000e+00  -1.3233806087034237e-03 -5.9341790270378276e-04 0.0000000000000000e+00  2.0117592725713641e-09 9.0209419755955232e-10 0.0000000000000000e+00  1.1153298076686869e-08 5.0012571662072083e-09 0.0000000000000000e+00  -5.2956503900393797e-14 -2.3746258085106156e-14 0.0000000000000000e+00  2.1439074184525055e+02 9.6135082793424985e+01 0.0000000000000000e+00  1.3928737085247204e-03 6.2457934581177960e-04 0.0000000000000000e+00  -1.6964204721532874e-07 -7.6069293449543661e-08 0.0000000000000000e+00  -7.6563557385779698e-06 -3.4331911279797284e-06 0.0000000000000000e+00  1.4024962543770256e-11 6.2889419744311913e-12 0.0000000000000000e+00  2.2394977194878603e+01 1.0042145328927194e+01 0.0000000000000000e+00  -1.0709627851802224e-11 -4.8023107311365694e-12 0.0000000000000000e+00  2.3556742275560847e+00 1.0563093114529394e+00 0.0000000000000000e+00  4.0557370531077519e-01 1.8186355158484752e-01 0.0000000000000000e+00  -6.8474865613152080e-07 -3.0704856088144790e-07 0.0000000000000000e+00  -1.5801331974325367e-10 -7.0854848699326355e-11 0.0000000000000000e+00  -1.3708168884385508e-04 -6.1468883371740111e-05 0.0000000000000000e+00  4.9858022515963624e-09 2.2356866165183190e-09 0.0000000000000000e+00  -5.4860373529750576e-04 -2.4599973422208813e-04 0.0000000000000000e+00  1.0708124429997366e-07 4.8016365808517186e-08 0.0000000000000000e+00  -4.0567898