<?xml version="1.0"?>
<VTKFile type="UnstructuredGrid"  version="0.1"  >
<UnstructuredGrid>
<Piece  NumberOfPoints="1855" NumberOfCells="3532">
<Points>
<DataArray  type="Float64"  NumberOfComponents="3"  format="ascii">0 0 0  30 0 0  30 -10 0  0 -10 0  0.1391574078963744 0 0  0.2856388821882616 0 0  0.4398299073010886 0 0  0.6021362569539473 0 0  0.7729850389704483 0 0  0.9528258543586996 0 0  1.142131984380316 0 0  1.34140159760994 0 0  1.551159074717981 0 0  1.771956417032531 0 0  2.004374674080994 0 0  2.249025475789527 0 0  2.506552636773105 0 0  2.777633857742732 0 0  3.062982518028728 0 0  3.363349525995907 0 0  3.679525322337712 0 0  4.01234195575742 0 0  4.362675247811097 0 0  4.731447135329707 0 0  5.119628065610077 0 0  5.528239565804708 0 0  5.958356943167011 0 0  6.411112081475485 0 0  6.887696441559404 0 0  7.389364184530748 0 0  7.917435485335147 0 0  8.473300005202017 0 0  9.058420557070402 0 0  9.674336929103793 0 0  10.32266995225095 0 0  11.00512576896296 0 0  11.72350030646412 0 0  12.47968402994705 0 0  13.27566689579597 0 0  14.1135435963616 0 0  14.9955190732806 0 0  15.92391430904694 0 0  16.90117245730496 0 0  17.92986524844506 0 0  19.01269976086341 0 0  20.15252556282024 0 0  21.35234220269763 0 0  22.61530708683689 0 0  23.94474379751883 0 0  25.34415086349739 0 0  26.81721093579712 0 0  28.3678004819169 0 0  30 -1.111111111111111 0  30 -2.222222222222222 0  30 -3.333333333333333 0  30 -4.444444444444445 0  30 -5.555555555555555 0  30 -6.666666666666666 0  30 -7.777777777777777 0  30 -8.888888888888889 0  28.36780047917311 -10 0  26.8172109305839 -10 0  25.34415085606858 -10 0  23.94474378810899 -10 0  22.61530707566275 -10 0  21.3523421899591 -10 0  20.15252554870171 -10 0  19.01269974553473 -10 0  17.92986523206254 -10 0  16.90117244001232 -10 0  15.92391429097614 -10 0  14.99551905455266 -10 0  14.11354357708742 -10 0  13.27566687607703 -10 0  12.47968400987599 -10 0  11.72350028612546 -10 0  11.00512574843363 -10 0  10.32266993160086 -10 0  9.674336908396342 -10 0  9.058420536362949 -10 0  8.473299984546333 -10 0  7.917435464777824 -10 0  7.389364164113587 -10 0  6.887696420787165 -10 0  6.411112061446698 -10 0  5.95835692337857 -10 0  5.528239546282652 -10 0  5.119628046377237 -10 0  4.731447115907979 -10 0  4.362675229213632 -10 0  4.012341937260036 -10 0  3.679525304434552 -10 0  3.363349508456405 -10 0  3.062982500861274 -10 0  2.777633840953978 -10 0  2.506552620368097 -10 0  2.249025459771861 -10 0  2.004374658452946 -10 0  1.771956401795187 -10 0  1.551159059871345 -10 0  1.341401583153029 -10 0  1.142131970307521 -10 0  0.9528258406748833 -10 0  0.7729850256685147 -10 0  0.6021362439621285 -10 0  0.4398298947504031 -10 0  0.2856388700059078 -10 0  0.1391573960769001 -10 0  0 -9.855072463768115 0  0 -9.710144927536232 0  0 -9.565217391304348 0  0 -9.420289855072463 0  0 -9.27536231884058 0  0 -9.130434782608695 0  0 -8.985507246376812 0  0 -8.840579710144928 0  0 -8.695652173913043 0  0 -8.55072463768116 0  0 -8.405797101449275 0  0 -8.260869565217391 0  0 -8.115942028985508 0  0 -7.971014492753623 0  0 -7.826086956521739 0  0 -7.681159420289855 0  0 -7.536231884057971 0  0 -7.391304347826087 0  0 -7.246376811594203 0  0 -7.101449275362318 0  0 -6.956521739130435 0  0 -6.811594202898551 0  0 -6.666666666666667 0  0 -6.521739130434783 0  0 -6.376811594202898 0  0 -6.231884057971015 0  0 -6.086956521739131 0  0 -5.942028985507246 0  0 -5.797101449275362 0  0 -5.652173913043478 0  0 -5.507246376811594 0  0 -5.36231884057971 0  0 -5.217391304347826 0  0 -5.072463768115941 0  0 -4.927536231884058 0  0 -4.782608695652174 0  0 -4.637681159420289 0  0 -4.492753623188406 0  0 -4.347826086956522 0  0 -4.202898550724638 0  0 -4.057971014492754 0  0 -3.913043478260869 0  0 -3.768115942028985 0  0 -3.623188405797101 0  0 -3.478260869565217 0  0 -3.333333333333334 0  0 -3.188405797101449 0  0 -3.043478260869565 0  0 -2.898550724637681 0  0 -2.753623188405797 0  0 -2.608695652173912 0  0 -2.463768115942029 0  0 -2.318840579710145 0  0 -2.173913043478261 0  0 -2.028985507246377 0  0 -1.884057971014492 0  0 -1.739130434782609 0  0 -1.594202898550725 0  0 -1.44927536231884 0  0 -1.304347826086957 0  0 -1.159420289855072 0  0 -1.014492753623188 0  0 -0.8695652173913047 0  0 -0.72463768115942 0  0 -0.579710144927537 0  0 -0.4347826086956523 0  0 -0.2898550724637676 0  0 -0.1449275362318829 0  5.15859856094262 -4.976557621770688 0  2.816777084926057 -7.160262673925935 0  2.81677708460006 -2.839737326002783 0  2.227649803257325 -5.003121586636773 0  1.518662968975629 -8.46230852045241 0  1.518662969184829 -1.537691480152612 0  9.960740911025725 -5.055901393541221 0  1.491099662214591 -3.691833922963321 0  1.503675657181264 -6.345020369042368 0  5.319208041801049 -7.493850249937013 0  5.291109955459268 -2.489368743223226 0  1.096914507335763 -2.53623188405797 0  1.096914507253562 -7.463768115942029 0  1.089580194952752 -4.71277167923441 0  15.07565076110197 -5.047572991082069 0  7.501630508673601 -5.937500100385354 0  0.8894869418764504 -5.623930488933245 0  2.955144522453978 -1.440834296472408 0  2.955144521140721 -8.559165705576945 0  8.106603955004623 -2.748811534843258 0  3.662152539483591 -4.228178367024407 0  3.662181528265114 -5.771746159989156 0  0.8436558190317136 -0.8541050638451999 0  0.8436558075840921 -9.145894948342754 0  0.7854168197005933 -1.811594202898552 0  0.7894693398152999 -3.286543351392342 0  0.7854168196772591 -8.188405797101449 0  0.7854168196772591 -6.739130434782609 0  20.00078956016804 -4.999999999785771 0  0.7379120031523989 -3.977302749614766 0  6.584332478112232 -3.934875417052907 0  7.295091310194352 -7.969791332537982 0  9.811174303464586 -7.412814499648229 0  4.013376806449688 -2.206189431585293 0  4.013376806983409 -7.793810569017377 0  12.11177433894592 -2.818343737884045 0  2.591152707837148 -3.990098461753838 0  2.58990939378082 -6.025895074707176 0  25.43156400064585 -5.044446479916348 0  2.03262751726143 -2.282125834846944 0  2.032627517335952 -7.717874165160392 0  12.51865094522923 -6.491408052923457 0  0.598175343983641 -6.156971652625402 0  2.126700074935224 -0.8767654465386991 0  2.126700059112423 -9.123234559633019 0  6.617961838548696 -1.617756429129908 0  0.5903949564549755 -4.980060355019413 0  1.676697585305984 -5.547101897225158 0  4.773518305133987 -3.729331162566817 0  4.77931803486508 -6.231222307502165 0  4.878549698409591 -8.72048903376362 0  4.852580875634024 -1.222215410052823 0  0.5487847095754042 -2.675169258708207 0  0.545113423825768 -7.32369553390529 0  1.78738026998851 -4.400451872599477 0  1.68244194111824 -3.010100184333533 0  1.683984276238402 -7.018293626028473 0  9.998503440677371 -2.00585287985007 0  3.693061162502273 -3.243678395563028 0  3.694987482168253 -6.757603268814477 0  6.081763036485869 -5.83414381546261 0  0.5196640460586313 -1.350633211792632 0  0.5196640458460706 -8.649366789040087 0  3.84593363904758 -0.9906418103762418 0  3.845933620847308 -9.009358200471317 0  17.41551885287501 -3.057748733689079 0  17.30725517812527 -7.002961443761516 0  8.117698464370697 -4.451550942597151 0  0.4918476668493152 -0.4789811193757592 0  0.4918476560347713 -9.521018882514893 0  1.463770869328428 -0.6252343353791154 0  1.463770854281917 -9.374765668872765 0  0.5034132782032188 -4.464280853772128 0  3.138906271796685 -4.99999841599503 0  14.61209972381335 -2.388610981020637 0  6.208601124947327 -8.776231214192325 0  14.74910972998159 -7.542186851303819 0  2.243794246335625 -1.632184311040998 0  2.243794245689214 -8.367815689183566 0  0.4590235278399923 -5.431413993025926 0  0.4971508861448406 -2.209632053221267 0  0.4971508861368665 -7.790367946777407 0  0.4644363683211541 -3.560571347760519 0  6.478811279411406 -7.007392971062433 0  1.238895267772762 -4.173677632458826 0  1.293241773632479 -2.02256720952064 0  1.293241773542714 -7.977432790434841 0  0.4324740478030531 -0.942028985507247 0  0.4324740423701829 -9.057971014492754 0  2.117396640811705 -3.472968170680347 0  2.107095929630507 -6.531506384346077 0  8.087741545730886 -1.392783601483453 0  1.028911946384717 -1.352376108341404 0  1.028911946221715 -8.647623891551962 0  4.05691976296832 -4.991522392209158 0  11.51826881314265 -8.065248940008736 0  1.618560396201739 -4.958056164503666 0  2.701984523487646 -2.141781914603403 0  2.70198452396172 -7.858218085853512 0  2.843615645746219 -9.289121726447632 0  2.843615661334342 -0.7108782798429658 0  8.678774612240533 -8.488146490452822 0  6.487906449371135 -2.667543558824978 0  8.369190916679937 -7.129867754908394 0  11.80978191929258 -4.655775487536958 0  0.3792065166453504 -3.113833531412848 0  0.4134714637263563 -6.58827691137208 0  9.551050695080825 -3.49648183875815 0  1.083867845277057 -6.036251777836495 0  0.3756430921870901 -1.80381664325008 0  0.3756430921689482 -8.196183356748573 0  3.113073783220456 -3.503408140759125 0  3.113391383189963 -6.496678880796299 0  22.62850736315072 -3.277987336300344 0  22.59385352108348 -6.800312122582239 0  0.3777114402537816 -4.137047872695438 0  0.9196816123347897 -0.4281025456111269 0  0.9196815944880363 -9.571897460530383 0  0.4052043328723194 -5.827814332459883 0  8.865857694874787 -5.767686953139113 0  1.200388325130726 -5.182186034620629 0  5.65297436943758 -4.325500846767599 0  1.200079167961391 -3.009849046583253 0  1.20883344838 -7.021823297793294 0  1.057642414577487 -3.660996704809145 0  10.88812987788297 -6.333458225047037 0  4.493502926606794 -2.839780197438185 0  4.485862892033458 -7.147606077919463 0  0.3631651408878085 -7.003529808558233 0  1.946748828463205 -6.049056369468467 0  6.918750162798794 -4.993796052442676 0  3.351203216022585 -1.980935554775394 0  3.351203216441711 -8.019064445907297 0  2.281892243515294 -2.856654416292082 0  2.281892243715877 -7.143345583598931 0  5.811143619672087 -0.9953286820321026 0  2.695713766833098 -4.565354125099452 0  2.698172168139827 -5.435483248292925 0  19.86166219288896 -2.493475492328429 0  19.83739102036415 -7.594404063416508
[...]
<PointData  Vectors="flow"> 
<DataArray  type="Float64"  Name="flow"  NumberOfComponents="3" format="ascii">-1.9614875869579949e-12 -8.6516073487228059e-13 0.0000000000000000e+00  -1.4732982409961321e-22 -6.4983321706514018e-23 0.0000000000000000e+00  -5.5988622626212514e-23 -2.4695113146702834e-23 0.0000000000000000e+00  3.5929941661692586e-18 1.5847755009327921e-18 0.0000000000000000e+00  9.0144748007761777e-12 3.9760484312940921e-12 0.0000000000000000e+00  -4.4889707037249647e-11 -1.9799672547904812e-11 0.0000000000000000e+00  7.8092886676453620e-11 3.4444724338061859e-11 0.0000000000000000e+00  -4.6475288017024678e-10 -2.0499030736446359e-10 0.0000000000000000e+00  4.7678381906382463e-10 2.1029683900074744e-10 0.0000000000000000e+00  4.0726996377929496e-09 1.7963610042577738e-09 0.0000000000000000e+00  6.4846611857857476e-09 2.8602139897265024e-09 0.0000000000000000e+00  -3.2285372910673689e-08 -1.4240231311554154e-08 0.0000000000000000e+00  -1.1356200747865950e-07 -5.0089223351232145e-08 0.0000000000000000e+00  -1.5094065738690152e-07 -6.6575965575943936e-08 0.0000000000000000e+00  -4.8563001120102260e-07 -2.1419866236232649e-07 0.0000000000000000e+00  -1.1376839294965330e-07 -5.0180254570057738e-08 0.0000000000000000e+00  5.1824120285605873e-06 2.2858260377746859e-06 0.0000000000000000e+00  -1.0099107951633373e-05 -4.4544516697860358e-06 0.0000000000000000e+00  -1.9309681007568131e-05 -8.5169938987815400e-06 0.0000000000000000e+00  -1.8694393844209349e-05 -8.2456068668429346e-06 0.0000000000000000e+00  -4.4726785527673429e-06 -1.9727812142624301e-06 0.0000000000000000e+00  1.5625486745117167e-05 6.8919924270885446e-06 0.0000000000000000e+00  -1.7501821556376359e-05 -7.7195945057195863e-06 0.0000000000000000e+00  -5.6740846799584470e-06 -2.5026899502604478e-06 0.0000000000000000e+00  9.2226336702648189e-06 4.0678618496885849e-06 0.0000000000000000e+00  8.0402595142548419e-06 3.5463476170678072e-06 0.0000000000000000e+00  1.3621859942566453e-05 6.0082451893132741e-06 0.0000000000000000e+00  5.7988984152660119e-06 2.5577420156820417e-06 0.0000000000000000e+00  -4.0773150647092024e-06 -1.7983967480316135e-06 0.0000000000000000e+00  -2.1737957248926946e-07 -9.5880428676434701e-08 0.0000000000000000e+00  -4.9281506060575421e-08 -2.1736779922784844e-08 0.0000000000000000e+00  -1.3943512949691860e-08 -6.1501178954516126e-09 0.0000000000000000e+00  9.2965322682628785e-09 4.1004565832852369e-09 0.0000000000000000e+00  6.3978638478574869e-10 2.8219299602142794e-10 0.0000000000000000e+00  1.4412182717664407e-10 6.3568358393058471e-11 0.0000000000000000e+00  -4.3856929186944617e-11 -1.9344141322588497e-11 0.0000000000000000e+00  1.3186679146675205e-11 5.8162983528005472e-12 0.0000000000000000e+00  -2.5163066717529727e-12 -1.1098768831232199e-12 0.0000000000000000e+00  4.7111814691064819e-13 2.0779785959543377e-13 0.0000000000000000e+00  4.8739522310500083e-14 2.1497725104073816e-14 0.0000000000000000e+00  -1.7373962975266572e-14 -7.6631994386652636e-15 0.0000000000000000e+00  1.0172779547708249e-14 4.4869462787874616e-15 0.0000000000000000e+00  -2.3866916189011911e-15 -1.0527070824467503e-15 0.0000000000000000e+00  5.2982472906978393e-16 2.3369179341400405e-16 0.0000000000000000e+00  -5.1020202309043604e-17 -2.2503673240920608e-17 0.0000000000000000e+00  1.1764999057413524e-17 5.1892325487867318e-18 0.0000000000000000e+00  -1.4866041860789309e-18 -6.5570212049463214e-19 0.0000000000000000e+00  2.5001794653679685e-19 1.1027635953205043e-19 0.0000000000000000e+00  4.4444022416652631e-21 1.9603092749775599e-21 0.0000000000000000e+00  2.9975715110920151e-21 1.3221501826532433e-21 0.0000000000000000e+00  -3.0314757949875401e-21 -1.3371044731445029e-21 0.0000000000000000e+00  7.0520996459129027e-22 3.1104962134951388e-22 0.0000000000000000e+00  6.6716306354996131e-23 2.9426813107478905e-23 0.0000000000000000e+00  -5.8675398611050326e-24 -2.5880179573294160e-24 0.0000000000000000e+00  1.8259184246968010e-23 8.0536473268099820e-24 0.0000000000000000e+00  -2.3755597760506162e-23 -1.0477971184963685e-23 0.0000000000000000e+00  -5.9232470068323464e-24 -2.6125889183977036e-24 0.0000000000000000e+00  1.8574761723609247e-23 8.1928402757816791e-24 0.0000000000000000e+00  -2.0959623522779866e-24 -9.2447402727320506e-25 0.0000000000000000e+00  2.7613213051251489e-23 1.2179464124295364e-23 0.0000000000000000e+00  2.7552945041321132e-22 1.2152881485635132e-22 0.0000000000000000e+00  -1.1387581665042427e-21 -5.0227636347296410e-22 0.0000000000000000e+00  2.0618852543525218e-21 9.0944351304536048e-22 0.0000000000000000e+00  2.2019571815582533e-20 9.7122556676930449e-21 0.0000000000000000e+00  -2.8593141280532154e-19 -1.2611684767751676e-19 0.0000000000000000e+00  1.5314941058513967e-18 6.7550188687446189e-19 0.0000000000000000e+00  -8.1082079656843862e-18 -3.5763178970548364e-18 0.0000000000000000e+00  1.8612079109262066e-17 8.2092999959499726e-18 0.0000000000000000e+00  -1.8284826313240461e-16 -8.0649573697831930e-17 0.0000000000000000e+00  4.5698471039853857e-16 2.0156397139731826e-16 0.0000000000000000e+00  -3.6587532771963891e-15 -1.6137801202834637e-15 0.0000000000000000e+00  9.7199238826016487e-15 4.2872035209847896e-15 0.0000000000000000e+00  -2.4066320565536360e-14 -1.0615022865600841e-14 0.0000000000000000e+00  -1.5905725717352770e-13 -7.0155984885141875e-14 0.0000000000000000e+00  3.6636238629661395e-13 1.6159284079360762e-13 0.0000000000000000e+00  -3.0272323132493791e-12 -1.3352327846345080e-12 0.0000000000000000e+00  1.8982475386545251e-11 8.3726720802695376e-12 0.0000000000000000e+00  -7.1740189760705343e-11 -3.1642716327104584e-11 0.0000000000000000e+00  -1.3791993068805209e-10 -6.0832864495799868e-11 0.0000000000000000e+00  1.8155958509871253e-10 8.0081171612569682e-11 0.0000000000000000e+00  -6.3292246406693680e-10 -2.7916550059771145e-10 0.0000000000000000e+00  5.9354169249559675e-10 2.6179567501276488e-10 0.0000000000000000e+00  1.0708986356873684e-09 4.7234530403625063e-10 0.0000000000000000e+00  -5.2849211564230638e-10 -2.3310401257874272e-10 0.0000000000000000e+00  -7.5941613517498303e-10 -3.3495854164481412e-10 0.0000000000000000e+00  7.7046029283700639e-11 3.3982982995804926e-11 0.0000000000000000e+00  4.8865646703731487e-09 2.1553355266333835e-09 0.0000000000000000e+00  1.7176381499278422e-09 7.5760514311532028e-10 0.0000000000000000e+00  3.9862855029428331e-10 1.7582459955738709e-10 0.0000000000000000e+00  1.3758750444150589e-10 6.0686239996280182e-11 0.0000000000000000e+00  -1.0968212829425374e-10 -4.8377910392274567e-11 0.0000000000000000e+00  -1.5470324662455320e-10 -6.8235545015300911e-11 0.0000000000000000e+00  1.3547636217672950e-10 5.9755070507694528e-11 0.0000000000000000e+00  7.8526802579268006e-11 3.4636113263410045e-11 0.0000000000000000e+00  3.8535745004011764e-11 1.6997106526800364e-11 0.0000000000000000e+00  -3.0856446416833824e-11 -1.3609969308516870e-11 0.0000000000000000e+00  -2.9307294912373787e-13 -1.2926679206178887e-13 0.0000000000000000e+00  2.5707005356243460e-12 1.1338685900054863e-12 0.0000000000000000e+00  1.0167853576436787e-12 4.4847735620425279e-13 0.0000000000000000e+00  1.8886157796704830e-13 8.3301889173061116e-14 0.0000000000000000e+00  7.6294367222338085e-14 3.3651444572770162e-14 0.0000000000000000e+00  -7.0868998226878306e-15 -3.1258456588408443e-15 0.0000000000000000e+00  -1.1968245477845083e-14 -5.2788792147304238e-15 0.0000000000000000e+00  -5.5775178192089121e-16 -2.4600968404361219e-16 0.0000000000000000e+00  9.2107899627946549e-16 4.0626379009230528e-16 0.0000000000000000e+00  -1.4394196996401872e-16 -6.3489028093299439e-17 0.0000000000000000e+00  1.0058821350312863e-16 4.4366823064539894e-17 0.0000000000000000e+00  -2.4659365050293183e-17 -1.0876599235319223e-17 0.0000000000000000e+00  1.3951286598131128e-17 6.1535466479153471e-18 0.0000000000000000e+00  -3.8332703972855368e-17 -1.6907550452679640e-17 0.0000000000000000e+00  3.0305865908311744e-18 1.3367122685103879e-18 0.0000000000000000e+00  -2.7704704662794333e-16 -1.2219818674792333e-16 0.0000000000000000e+00  -2.4788705005969242e-16 -1.0933647697845834e-16 0.0000000000000000e+00  -1.1485117318039304e-14 -5.0657840534078414e-15 0.0000000000000000e+00  1.4166329852790273e-14 6.2483965880665115e-15 0.0000000000000000e+00  -1.6952565431864627e-14 -7.4773320333616984e-15 0.0000000000000000e+00  -6.1599583584668188e-14 -2.7169960878819145e-14 0.0000000000000000e+00  4.1814655221549333e-13 1.8443347834798886e-13 0.0000000000000000e+00  -1.3373533476073696e-12 -5.8987148972698209e-13 0.0000000000000000e+00  -2.8316827584735702e-12 -1.2489810042823491e-12 0.0000000000000000e+00  2.0500170455585208e-12 9.0420875738842451e-13 0.0000000000000000e+00  8.0307023149406544e-12 3.5421321870865151e-12 0.0000000000000000e+00  5.9691060279717246e-12 2.6328161299759267e-12 0.0000000000000000e+00  4.9513438206126862e-11 2.1839079109799761e-11 0.0000000000000000e+00  1.4441745751904674e-11 6.3698753184228362e-12 0.0000000000000000e+00  9.1192861391044446e-12 4.0222779639681855e-12 0.0000000000000000e+00  -1.1789074548800774e-09 -5.1998516166612811e-10 0.0000000000000000e+00  -1.0358157867350386e-09 -4.5687117940613595e-10 0.0000000000000000e+00  -4.4659231863500915e-10 -1.9698015992943125e-10 0.0000000000000000e+00  -1.2124735327885417e-09 -5.3479027836589961e-10 0.0000000000000000e+00  9.6840271468844416e-10 4.2713704122467422e-10 0.0000000000000000e+00  4.1712608847030120e-09 1.8398337855150213e-09 0.0000000000000000e+00  1.4525568541496338e-08 6.4068473526708934e-09 0.0000000000000000e+00  -3.6375018617877923e-08 -1.6044066782620958e-08 0.0000000000000000e+00  -3.7948629016830863e-07 -1.6738145061888695e-07 0.0000000000000000e+00  -4.3021911202691268e-07 -1.8975836787963043e-07 0.0000000000000000e+00  6.3884221918407823e-07 2.8177654933514087e-07 0.0000000000000000e+00  2.1536417714877085e-06 9.4991490645199094e-07 0.0000000000000000e+00  -4.2643784319985156e-07 -1.8809054936325431e-07 0.0000000000000000e+00  -3.1225715278401704e-06 -1.3772844119330706e-06 0.0000000000000000e+00  -5.8105149237869535e-07 -2.5628657529493257e-07 0.0000000000000000e+00  -3.9455180385556529e-06 -1.7402645361536751e-06 0.0000000000000000e+00  9.5241059332843263e-06 4.2008333588389816e-06 0.0000000000000000e+00  -3.5632048149553186e-05 -1.5716361993338523e-05 0.0000000000000000e+00  -5.0484450626717770e-07 -2.2267367223858041e-07 0.0000000000000000e+00  -3.1666027488336339e-05 -1.3967054288007373e-05 0.0000000000000000e+00  -5.9146381359719907e-06 -2.6087917712276179e-06 0.0000000000000000e+00  1.6444336778410034e-05 7.2531657025475583e-06 0.0000000000000000e+00  -2.0309939115864031e-05 -8.9581815187232612e-06 0.0000000000000000e+00  1.4847199970265295e-05 6.5487105411620794e-06 0.0000000000000000e+00  5.2142206870279699e-05 2.2998560028470713e-05 0.0000000000000000e+00  7.7804053467825642e-07 3.4317327584344469e-07 0.0000000000000000e+00  2.6165100875056691e-05 1.1540739819913105e-05 0.0000000000000000e+00  2.2203217959017575e-05 9.7932571654680681e-06 0.0000000000000000e+00  -4.8655905286605101e-08 -2.1460843827681814e-08 0.0000000000000000e+00  -4.5565782895095971e-06 -2.0097871878806940e-06 0.0000000000000000e+00  -3.2742215145469637e-06 -1.4441732440699571e-06 0.0000000000000000e+00  2.1354102694480688e-06 9.4187346902087241e-07 0.0000000000000000e+00  -9.4365368202412644e-07 -4.1622089195633017e-07 0.0000000000000000e+00  -5.3055293463167630e-07 -2.3401298579026667e-07 0.0000000000000000e+00  5.4849554427475775e-07 2.4192700036142654e-07 0.0000000000000000e+00  4.4553912656634884e-08 1.9651562452775757e-08 0.0000000000000000e+00  -2.1660256510909372e-09 -9.5537711097952144e-10 0.0000000000000000e+00  3.6743287786374260e-08 1.6206500655037766e-08 0.0000000000000000e+00  2.0851209300371290e-08 9.1969216023753296e-09 0.0000000000000000e+00  3.4954983636739927e-08 1.5417726592657821e-08 0.0000000000000000e+00  2.4307896810041260e-09 1.0721575811749006e-09 0.0000000000000000e+00  8.1921958213625508e-09 3.6133627376248227e-09 0.0000000000000000e+00  -4.7700825888121081e-09 -2.1039583351829417e-09 0.0000000000000000e+00  -1.4678388080015985e-09 -6.4742520434410983e-10 0.0000000000000000e+00  1.4053376080229864e-09 6.1985756411868463e-10 0.0000000000000000e+00  -2.4316881190020582e-11 -1.0725538586143789e-11 0.0000000000000000e+00  1.0110276437172115e-10 4.4593777958652170e-11 0.0000000000000000e+00  -3.2778155254535891e-12 -1.4457584680284441e-12 0.0000000000000000e+00  1.1930100662990624e-11 5.2620545372405064e-12 0.0000000000000000e+00  -5.7117868986554895e-12 -2.5193194101923578e-12 0.0000000000000000e+00  4.8646490677019966e-01 2.1456691290287239e-01 0.0000000000000000e+00  1.3195826366551046e-03 5.8203329516032308e-04 0.0000000000000000e+00  -6.5817236751184748e+02 -2.9030257083211029e+02 0.0000000000000000e+00  2.4942469721757502e+02 1.1001469281522124e+02 0.0000000000000000e+00  3.8196282106051571e-09 1.6847378344876672e-09 0.0000000000000000e+00  -1.7202200081333136e-03 -7.5874393306088711e-04 0.0000000000000000e+00  2.1010876138850235e-09 9.2673464575881370e-10 0.0000000000000000e+00  -6.9751368869670296e+00 -3.0765499588615919e+00 0.0000000000000000e+00  -4.6909857477396566e-03 -2.0690707928893689e-03 0.0000000000000000e+00  -7.0642766302987596e-05 -3.1158671619680405e-05 0.0000000000000000e+00  -1.0107223697830439e-01 -4.4580313125992595e-02 0.0000000000000000e+00  -5.3921592496967334e-04 -2.3783400364266654e-04 0.0000000000000000e+00  5.5105790816231416e-07 2.4305719187459665e-07 0.0000000000000000e+00  3.5986340451620369e-01 1.5872631036514775e-01 0.0000000000000000e+00  -5.6449702193742792e-14 -2.4898483252193901e-14 0.0000000000000000e+00  -1.1684786241397495e-05 -5.1538527792118284e-06 0.0000000000000000e+00  4.7397262047020770e-03 2.0905689302438937e-03 0.0000000000000000e+00  -1.0351910104302912e-01 -4.5659560696278266e-02 0.0000000000000000e+00  4.1189998261719126e-07 1.8167828031358343e-07 0.0000000000000000e+00  2.4167211263936830e-06 1.0659523106820966e-06 0.0000000000000000e+00  -5.9017273835897749e+03 -2.6030971769344856e+03 0.0000000000000000e+00  1.0652683501422546e+00 4.6986193273574361e-01 0.0000000000000000e+00  2.3577508177702957e-07 1.0399420540363336e-07 0.0000000000000000e+00  -5.3193127224427350e-13 -2.3462093436447440e-13 0.0000000000000000e+00  -4.3669100269528078e-05 -1.9261294912902910e-05 0.0000000000000000e+00  -1.4652074871801040e-02 -6.4626459773576587e-03 0.0000000000000000e+00  6.2617211765497001e-10 2.7618809982227380e-10 0.0000000000000000e+00  3.6740636733012276e-07 1.6205331344923398e-07 0.0000000000000000e+00  -8.9746797420423294e-18 -3.9584958745063900e-18 0.0000000000000000e+00  6.2429356351760230e-02 2.7535951885709790e-02 0.0000000000000000e+00  4.8697209621258557e-03 2.1479062086493719e-03 0.0000000000000000e+00  2.5809300379559046e-07 1.1383805552166813e-07 0.0000000000000000e+00  -1.5498984704250050e-09 -6.8361956943601917e-10 0.0000000000000000e+00  -1.0164184777210553e-01 -4.4831553509175809e-02 0.0000000000000000e+00  7.7288692757239695e-06 3.4090015490168575e-06 0.0000000000000000e+00  -5.0737200548280238e-11 -2.2378848585929104e-11 0.0000000000000000e+00  3.7259136365690429e+04 1.6434027935318038e+04 0.0000000000000000e+00  -2.5230934369681844e-02 -1.1128703472776891e-02 0.0000000000000000e+00  -6.5114141277304483e-21 -2.8720140108261929e-21 0.0000000000000000e+00  -1.3201528374574707e+00 -5.8228479578081083e-01 0.0000000000000000e+00  2.6191533260409889e-06 1.1552398451906838e-06 0.0000000000000000e+00  2.6126691377804945e-12 1.1523798397958976e-12 0.0000000000000000e+00  1.7371549441686105e-05 7.6621348922975091e-06 0.0000000000000000e+00  -1.0772313319516581e-04 -4.7513849028436393e-05 0.0000000000000000e+00  3.9101132324672357e-10 1.7246484046741145e-10 0.0000000000000000e+00  -2.5105313853628525e-04 -1.1073295557526067e-04 0.0000000000000000e+00  5.5762320442159178e-04 2.4595297188059631e-04 0.0000000000000000e+00  1.4021487502112556e-02 6.1845104256526753e-03 0.0000000000000000e+00  -2.4386004093450914e+01 -1.0756026886108575e+01 0.0000000000000000e+00  -5.1321417341979752e-04 -2.2636531292626334e-04 0.0000000000000000e+00  1.1841089823596115e-08 5.2227941902803371e-09 0.0000000000000000e+00  3.3515339758721205e-04 1.4782737432521073e-04 0.0000000000000000e+00  -8.7899197038367088e-05 -3.8770030669597860e-05 0.0000000000000000e+00  -5.7867977992502109e-08 -2.5524047512944143e-08 0.0000000000000000e+00  2.9000233898329145e+02 1.2791242645515538e+02 0.0000000000000000e+00  2.2713035494432701e+00 1.0018124310446810e+00 0.0000000000000000e+00  -2.1570774844112448e-05 -9.5143030932147743e-06 0.0000000000000000e+00  -2.7191276992841364e-09 -1.1993359194144200e-09 0.0000000000000000e+00  -7.8511155702459257e+02 -3.4629211836386861e+02 0.0000000000000000e+00  -3.4274588020252066e-04 -1.5117621929503836e-04 0.0000000000000000e+00  3.6532100584510622e-03 1.6113351518650273e-03 0.0000000000000000e+00  -6.7069949602098467e-07 -2.9582795869531513e-07 0.0000000000000000e+00  7.3901133408066200e-12 3.2595851899513537e-12 0.0000000000000000e+00  -5.2480817329845933e-04 -2.3147912222173879e-04 0.0000000000000000e+00  -1.3292213894465063e-08 -5.8628469624168050e-09 0.0000000000000000e+00  2.5449846841957813e-15 1.1225260023349177e-15 0.0000000000000000e+00  -7.7304759984268481e-16 -3.4097102322650190e-16 0.0000000000000000e+00  -4.6733512520838052e-06 -2.0612926793177274e-06 0.0000000000000000e+00  9.0797536650219777e-10 4.0048412263839234e-10 0.0000000000000000e+00  -1.6015672725817165e-15 -7.0640932306030759e-16 0.0000000000000000e+00  -2.7766510091030111e-06 -1.2247079428348502e-06 0.0000000000000000e+00  7.5250402227789176e-12 3.3190978991509155e-12 0.0000000000000000e+00  1.0157562955594650e-03 4.4802346390591404e-04 0.0000000000000000e+00  -2.9445817948967169e+02 -1.2987778084873196e+02 0.0000000000000000e+00  -8.4975880048992886e-14 -3.7480632209160040e-14 0.0000000000000000e+00  5.7996298991197493e-08 2.5580646540268622e-08 0.0000000000000000e+00  -1.5034899997549187e-14 -6.6315001007903264e-15 0.0000000000000000e+00  3.4694057021630191e-02 1.5302638705496526e-02 0.0000000000000000e+00  -7.5400377241152230e-08 -3.3257129036830047e-08 0.0000000000000000e+00  1.4543625852116466e-04 6.4148119588350097e-05 0.0000000000000000e+00  1.8564842417555215e-05 8.1884651300136389e-06 0.0000000000000000e+00  2.9549230085674600e-09 1.3033390466406143e-09 0.0000000000000000e+00  2.5053272646648459e-03 1.1050341545900443e-03 0.0000000000000000e+00  -1.5356047835372629e-05 -6.7731499899975596e-06 0.0000000000000000e+00  -4.0849482725625270e+00 -1.8017635558359173e+00 0.0000000000000000e+00  -3.9315353687766272e-03 -1.7340971472076863e-03 0.0000000000000000e+00  5.9765895627923260e-09 2.6361169209306602e-09 0.0000000000000000e+00  3.3134523491291135e-08 1.4614769363810497e-08 0.0000000000000000e+00  -1.5732463262790208e-13 -6.9391769635900396e-14 0.0000000000000000e+00  6.3691788950170132e+02 2.8092777797751819e+02 0.0000000000000000e+00  4.1379873736167427e-03 1.8251577123679971e-03 0.0000000000000000e+00  -5.0397724152251587e-07 -2.2229114450361390e-07 0.0000000000000000e+00  -2.2745711388084132e-05 -1.0032536790215791e-05 0.0000000000000000e+00  4.1665742964620692e-11 1.8377666543470599e-11 0.0000000000000000e+00  6.6531611802045788e+01 2.9345349183761044e+01 0.0000000000000000e+00  -3.1816455832043764e-11 -1.4033404285454655e-11 0.0000000000000000e+00  6.9983015332423095e+00 3.0867672768440437e+00 0.0000000000000000e+00  1.2048894751732333e+00 5.3144514944262811e-01 0.0000000000000000e+00  -2.0342700675816280e-06 -8.9726317836509409e-07 0.0000000000000000e+00  -4.6943029935814186e-10 -2.0705339430358752e-10 0.0000000000000000e+00  -4.0724603682176769e-04 -1.7962554687229321e-04 0.0000000000000000e+00  1.4811957924245304e-08 6.5331661988803537e-09 0.0000000000000000e+00  -1.6298070068279770e-03 -7.1886512925329086e-04 0.0000000000000000e+00  3.1811989425356898e-07 1.4031434270595973e-07 0.0000000000000000e+00  -1.2052022