<?xml version="1.0"?>
<VTKFile type="UnstructuredGrid"  version="0.1"  >
<UnstructuredGrid>
<Piece  NumberOfPoints="572" NumberOfCells="1038">
<Points>
<DataArray  type="Float64"  NumberOfComponents="3"  format="ascii">0 0 0  4 0 0  4 -1 0  0 -1 0  0.09999999999999999 0 0  0.2 0 0  0.3 0 0  0.4 0 0  0.4999999999999998 0 0  0.5999999999999996 0 0  0.6999999999999995 0 0  0.7999999999999994 0 0  0.8999999999999992 0 0  0.999999999999999 0 0  1.099999999999999 0 0  1.199999999999999 0 0  1.299999999999999 0 0  1.399999999999999 0 0  1.499999999999998 0 0  1.599999999999998 0 0  1.699999999999999 0 0  1.799999999999999 0 0  1.899999999999999 0 0  2 0 0  2.1 0 0  2.200000000000001 0 0  2.300000000000001 0 0  2.400000000000002 0 0  2.500000000000002 0 0  2.600000000000002 0 0  2.700000000000003 0 0  2.800000000000003 0 0  2.900000000000004 0 0  3.000000000000004 0 0  3.100000000000005 0 0  3.200000000000005 0 0  3.300000000000005 0 0  3.400000000000004 0 0  3.500000000000004 0 0  3.600000000000003 0 0  3.700000000000002 0 0  3.800000000000002 0 0  3.900000000000001 0 0  4 -0.08333333333333325 0  4 -0.1666666666666665 0  4 -0.2499999999999997 0  4 -0.333333333333333 0  4 -0.4166666666666666 0  4 -0.5000000000000001 0  4 -0.5833333333333337 0  4 -0.6666666666666673 0  4 -0.7500000000000006 0  4 -0.8333333333333337 0  4 -0.9166666666666669 0  3.9 -1 0  3.8 -1 0  3.7 -1 0  3.6 -1 0  3.5 -1 0  3.4 -1 0  3.300000000000001 -1 0  3.200000000000001 -1 0  3.100000000000001 -1 0  3.000000000000001 -1 0  2.900000000000001 -1 0  2.800000000000001 -1 0  2.700000000000001 -1 0  2.600000000000001 -1 0  2.500000000000002 -1 0  2.400000000000002 -1 0  2.300000000000002 -1 0  2.200000000000001 -1 0  2.100000000000001 -1 0  2 -1 0  1.9 -1 0  1.799999999999999 -1 0  1.699999999999999 -1 0  1.599999999999998 -1 0  1.499999999999998 -1 0  1.399999999999998 -1 0  1.299999999999997 -1 0  1.199999999999997 -1 0  1.099999999999996 -1 0  0.9999999999999956 -1 0  0.899999999999995 -1 0  0.7999999999999949 -1 0  0.6999999999999953 -1 0  0.5999999999999956 -1 0  0.499999999999996 -1 0  0.3999999999999968 -1 0  0.2999999999999976 -1 0  0.1999999999999984 -1 0  0.0999999999999992 -1 0  0 -0.9166666666666667 0  0 -0.8333333333333335 0  0 -0.7500000000000002 0  0 -0.666666666666667 0  0 -0.5833333333333335 0  0 -0.4999999999999999 0  0 -0.4166666666666663 0  0 -0.3333333333333327 0  0 -0.2499999999999994 0  0 -0.1666666666666663 0  0 -0.08333333333333315 0  3.491090701185765 -0.499339806301727 0  0.4950203227078167 -0.4989128584675094 0  2.64262313781888 -0.4879297506908338 0  1.449999999999998 -0.5 0  2.058402291097397 -0.5120941233772698 0  0.9749999999999992 -0.4749999999999993 0  3.081769880806683 -0.5597407802610527 0  1.745473944409859 -0.3290615136625714 0  2.347280045777389 -0.6545118286598804 0  2.335768673639667 -0.3237239238763549 0  1.750327526220345 -0.682828817540943 0  3.707492972392909 -0.3028030525063309 0  0.293580296675358 -0.7109385489008262 0  3.71498825372084 -0.7080088716251347 0  0.2918697062415769 -0.2988161261649331 0  3.250413907284768 -0.3098344370860925 0  0.7481958762886598 -0.6907216494845363 0  2.897531957111618 -0.3144800466372323 0  1.202975631932859 -0.6871206495416401 0  0.7276881720430104 -0.301075268817204 0  1.222241507685503 -0.2908020883113388 0  2.821785532795642 -0.7097679058139483 0  3.313580174540806 -0.7110306688463971 0  1.50219738324048 -0.2570217529780842 0  2.109436430026117 -0.7485141141565509 0  2.001923272149049 -0.2612004201407864 0  2.591779594323503 -0.2533220405676498 0  1.508220405676497 -0.7466779594323502 0  2.584305190871683 -0.7502831919469019 0  3.478286033189422 -0.23795222571263 0  0.5261060937617643 -0.7658117832712512 0  3.785135972681774 -0.5040707172464052 0  0.2090645029521114 -0.4969048262114374 0  0.9574438986108131 -0.2423163095862805 0  0.9754244626643473 -0.7628641460288867 0  0.5097271592765806 -0.2292760602594508 0  3.047448237147327 -0.7984168297371277 0  3.522893514415914 -0.785726174019542 0  3.27411286219494 -0.5150314861460955 0  2.876192398366876 -0.5166549013936721 0  3.072152863254761 -0.2028141497170135 0  2.188888454287124 -0.1960738743988359 0  1.911111545712876 -0.8039261256011641 0  0.6968885413728847 -0.4974520678389611 0  1.252104989604988 -0.4970114345114344 0  1.649610740490046 -0.5028202775347195 0  2.446694231298332 -0.485633542353709 0  1.845992484168205 -0.4989419599210881 0  2.246214131289309 -0.4959316037735846 0  2.743080194417513 -0.1797603284198384 0  1.345217800961618 -0.8177514544794908 0  3.831771135951664 -0.1764827624326512 0  0.168177957407361 -0.823589473522286 0  3.837430960455357 -0.8286944021295046 0  0.167391597779325 -0.1752538625856722 0  3.066111254276541 -0.3870061788029396 0  1.358909159394344 -0.1720779287034414 0  1.669284305949535 -0.172759019086266 0  2.264869859182613 -0.8283162784008133 0  2.434165412425708 -0.1697954173687042 0  1.668706113475668 -0.8314479749300888 0  1.842683258862577 -0.1656794186994128 0  3.848464877921415 -0.3616620315967092 0  0.151535122078585 -0.6383379684032905 0  3.848707346075076 -0.6466646759135177 0  0.1509968549082652 -0.3452619778382686 0  2.732975255829699 -0.3508363638623346 0  1.370252652534258 -0.6495109932111033 0  1.11832587037856 -0.1733419061976365 0  2.439737645513045 -0.836456385212641 0  3.331229791744127 -0.165499768727795 0  0.6726591332606813 -0.8336090461037186 0  1.132616756253317 -0.8280723285747189 0  1.950606351728588 -0.6518091391595896 0  2.153824719141371 -0.3536025000168445 0  3.62532407618639 -0.1564302309141494 0  0.3803710983093131 -0.8404803223371928 0  1.377912260103223 -0.3517997484404782 0  0.8924624300191402 -0.6125774599817652 0  3.207249628251628 -0.8375220474312923 0  0.6546785576266954 -0.155978749966339 0  2.719684587363634 -0.8327734580127736 0  3.647699282718985 -0.5637569936419204 0  0.3570156455557587 -0.5653989322146081 0  0.8322251523939386 -0.8403847541693579 0  0.3645988133126639 -0.1519337183240305 0  1.061404500324257 -0.6180105656135877 0  3.396758647231262 -0.3766313243368538 0  0.8148021518360848 -0.1629813466347811 0  0.6093556516052328 -0.6299486913462624 0  0.415997866655875 -0.3680522660477806 0  0.5920160015096863 -0.3645412637424194 0  3.572255424430109 -0.362089200459548 0  1.08043890485706 -0.3398660584513152 0  2.923658429424994 -0.1561137197110593 0  3.653613361778262 -0.8546909554159527 0  3.456739790681186 -0.6487708965425909 0  0.8424839600900655 -0.4190496412612194 0  2.6968241495241 -0.6460539373019687 0  2.90777185621417 -0.8467190841342236 0  3.167421855912535 -0.6853653881872064 0  3.378998015397395 -0.8550267917096944 0  2.549623533286458 -0.6074164390661531 0  1.563854363100012 -0.3870450365840445 0  1.945115925347995 -0.3956210114182645 0  2.206384380497951 -0.6363666106481864 0  2.9679770331043 -0.6663940397605803 0  2.492817266347368 -0.3527603982764793 0  1.545918816851176 -0.6075709531787901 0  2.028456012399734 -0.8701972194942087 0  2.065700499244939 -0.1359115819594244 0  1.113999927383315 -0.4803729266898425 0  3.194766700972084 -0.1349664610116483 0  1.791586588241401 -0.8656156413257059 0  2.307333345265183 -0.1346440826116952 0  2.64093544674549 -0.1331489671463476 0  0.4565707965077976 -0.6534785968762363 0  1.459077473581533 -0.8718776489042938 0  1.56279060907849 -0.1324694119967317 0  0.3144726782861624 -0.406319735913186 0  3.686635179527132 -0.4155119011072678 0  3.583227123430988 -0.6879918386850498 0  3.884530589958141 -0.5337716741137969 0  0.1138901561454064 -0.4712706309748976 0  2.551320204776417 -0.8759992125181354 0  2.968455986624249 -0.4231600805006418 0  1.843995631966074 -0.2713141166917306 0  1.23826657576458 -0.1310261345083986 0  1.632298315745049 -0.7047459448475459 0  3.454977942639006 -0.1019833897113779 0  2.11213131937471 -0.6131325843633801 0  1.631670858552932 -0.3027829344070553 0  0.549999999999996 -0.8847857258099061 0  2.175907031111534 -0.8808902127996396 0  2.440789547527098 -0.7252338716820566 0  0.9499999999999957 -0.8853403742417534 0  0.1192006629558211 -0.7258150973260704 0  0.1086302422397907 -0.2553484983400458 0  3.891615894289125 -0.7428762999771643 0  3.880790852604017 -0.2741969419997524 0  2.58999033724616 -0.3943081590477266 0  0.95310975133633 -0.1100375897447476 0  0.9389274183125247 -0.357418794071099 0  0.5436861363815539 -0.1129935035840732 0  1.237622314162623 -0.8886349339205675 0  2.766143121931948 -0.4669467935657355 0  3.157965388639583 -0.4824178848815803 0  3.732166646772587 -0.1061123528525496 0  0.8463407040907105 -0.2803849511418723 0  0.2658218649297859 -0.8967607408767373 0  3.384357462435764 -0.5450459842617623 0  1.954320722194999 -0.1009956898074866 0  0.8013980381943526 -0.5278489923710374 0  3.744358883260304 -0.603637271636247 0  0.2581863795088786 -0.6001369967359219 0  0.2629966501688439 -0.1025990268626685 0  0.3980883060404261 -0.7330050441066103 0  1.076076863672032 -0.7275728344185368 0  1.749999999999999 -0.5550190100941714 0  2.351512610076122 -0.5440435521440684 0  0.8619623856291254 -0.7246873586411677 0  3.553081028189586 -0.8932001918706867 0  2.806636304103025 -0.6100531542467602 0  2.546714489935151 -0.08818853426728746 0  1.172246975380209 -0.5783812280673658 0  1.560837452008869 -0.9052833905541354 0  3.005913589025749 -0.2858329927011495 0  3.104244827324224 -0.8867193195303111 0  0.6392996137609843 -0.7340215588892431 0  3.370409685921998 -0.2678372406131186 0  1.860045411420065 -0.6863616357695403 0  2.239306624928278 -0.3159929711989559 0  0.620090528303912 -0.2611000972275821 0  1.457468991263225 -0.08750102207080079 0  1.752790718352056 -0.1005001786212033 0  0.394717592657301 -0.2605042194828123 0  3.745581301416776 -0.9074819423317642 0  3.141158115761163 -0.2920724092797614 0  3.257376892791448 -0.6242591031763242 0  2.350280737493299 -0.9013197570937703 0  3.914203942485891 -0.125 0  3.914203942485891 -0.8750000000000003 0  0.08579605751410901 -0.1249999999999997 0  0.08579605751410968 -0.875 0  3.921126745430668 -0.4525
[...]
<PointData  Vectors="flow"> 
<DataArray  type="Float64"  Name="flow"  NumberOfComponents="3" format="ascii">-8.5642695564942284e-01 3.0850634603897520e-01 0.0000000000000000e+00  8.5439282552253348e-01 3.0257787026255273e-01 0.0000000000000000e+00  1.1955491976141335e+00 -7.0712520421750691e-01 0.0000000000000000e+00  -1.1882790969433299e+00 -6.9632998015488767e-01 0.0000000000000000e+00  -2.5720222402486129e-02 -1.3543249071961788e-01 0.0000000000000000e+00  -1.5394919653800899e-02 -1.5778457407037536e-01 0.0000000000000000e+00  2.6992847892187317e-02 -4.3800389873098360e-02 0.0000000000000000e+00  -7.9454188492687466e-03 -5.3231495287866339e-02 0.0000000000000000e+00  2.6414981723835197e-03 -3.1947781226204064e-02 0.0000000000000000e+00  5.6174465682452184e-04 -2.4649787806549094e-02 0.0000000000000000e+00  3.2618985555850317e-04 -1.6598841737325003e-02 0.0000000000000000e+00  2.6665501336097148e-04 -1.3059809986047706e-02 0.0000000000000000e+00  1.1880357443327306e-04 -8.8720672052953631e-03 0.0000000000000000e+00  1.5030650401777533e-04 -6.5048539709314217e-03 0.0000000000000000e+00  1.1535219687135818e-04 -4.4167838591716163e-03 0.0000000000000000e+00  5.3251145204276102e-05 -3.4196147556538759e-03 0.0000000000000000e+00  5.2943889181271972e-05 -2.3281390047707002e-03 0.0000000000000000e+00  4.5539759865979064e-05 -1.1892562764002207e-03 0.0000000000000000e+00  8.0423003967285334e-05 -5.5870198927586911e-04 0.0000000000000000e+00  2.1579584298211680e-05 -1.7891671322605056e-04 0.0000000000000000e+00  1.7358155819220420e-05 8.8173598625556810e-05 0.0000000000000000e+00  1.2642820735485428e-05 3.1779466495421505e-04 0.0000000000000000e+00  1.9619206509366234e-05 4.4393327939739143e-04 0.0000000000000000e+00  -1.7597541173834550e-05 4.9420533424118882e-04 0.0000000000000000e+00  -4.5334151693628358e-06 4.4741769148988025e-04 0.0000000000000000e+00  -1.1843287686640117e-05 3.0231570847264404e-04 0.0000000000000000e+00  2.1973227872822836e-05 8.7795002983470942e-05 0.0000000000000000e+00  -5.2519874855974248e-05 -3.0181543532069072e-04 0.0000000000000000e+00  -4.8404393649725588e-05 -6.7581635142113382e-04 0.0000000000000000e+00  -2.2864426363767547e-05 -1.2967531682815533e-03 0.0000000000000000e+00  -1.0552661659520413e-04 -2.0348394299937052e-03 0.0000000000000000e+00  -8.8170616583239779e-05 -3.0611491790267127e-03 0.0000000000000000e+00  -1.8510673246802926e-05 -4.3267143245345353e-03 0.0000000000000000e+00  -4.4170453327593980e-04 -6.0736937434110278e-03 0.0000000000000000e+00  1.6635130885286957e-04 -8.8999372277148853e-03 0.0000000000000000e+00  -6.4936427500017003e-04 -1.3708939435805178e-02 0.0000000000000000e+00  -1.5895807326184858e-04 -1.7366876144424132e-02 0.0000000000000000e+00  -1.9369041784846932e-05 -2.3779015917695243e-02 0.0000000000000000e+00  -2.9321206324712736e-03 -3.2711061758748529e-02 0.0000000000000000e+00  8.3304810212700663e-03 -5.3152918218113861e-02 0.0000000000000000e+00  -2.6733973159279483e-02 -4.3436739147286463e-02 0.0000000000000000e+00  1.8946710394033901e-02 -1.6131685848511171e-01 0.0000000000000000e+00  2.7673791527825328e-02 -1.3839341666341465e-01 0.0000000000000000e+00  5.8843668633530455e-01 -1.7041139668052280e-01 0.0000000000000000e+00  3.5529622088226059e-01 6.8642790678675902e-02 0.0000000000000000e+00  4.5303714353777791e-01 4.1234804526318607e-02 0.0000000000000000e+00  4.2464471544105320e-01 -4.6252586339416257e-02 0.0000000000000000e+00  3.3069862584758491e-01 -2.7053472838106697e-02 0.0000000000000000e+00  4.2030502506324685e-01 8.9680502776148086e-02 0.0000000000000000e+00  4.6721903671887449e-01 -8.9105235520733045e-02 0.0000000000000000e+00  5.0595107995267163e-01 6.0293745180429827e-02 0.0000000000000000e+00  4.2514586126566495e-01 2.3907661303995086e-02 0.0000000000000000e+00  5.2260664121303169e-01 -2.1671381033483145e-01 0.0000000000000000e+00  9.9867556063040086e-01 4.1351413295968215e-01 0.0000000000000000e+00  -2.0796738501627487e-01 -1.7955377954808838e-01 0.0000000000000000e+00  5.4698248538586271e-02 1.5691661036989057e-01 0.0000000000000000e+00  -4.0786647435378999e-02 -1.8280242675405955e-02 0.0000000000000000e+00  2.9057341691121726e-02 2.6996402140325941e-02 0.0000000000000000e+00  9.8469921434231247e-03 1.8098946158819219e-02 0.0000000000000000e+00  1.4152766098249218e-02 1.9288207758844853e-02 0.0000000000000000e+00  1.0641040593096398e-02 1.6832958125038894e-02 0.0000000000000000e+00  6.9867801797166805e-03 1.4795492857183280e-02 0.0000000000000000e+00  5.1323752826972525e-03 1.2243097922355572e-02 0.0000000000000000e+00  3.9468774126227516e-03 1.0299338805134627e-02 0.0000000000000000e+00  2.3158289983639556e-03 8.2723125264273986e-03 0.0000000000000000e+00  7.5569105790268337e-04 6.5179910003163649e-03 0.0000000000000000e+00  5.9678426401252543e-04 5.3966394714269192e-03 0.0000000000000000e+00  -2.2561839008199505e-04 4.6393510454152808e-03 0.0000000000000000e+00  -2.6649596308427368e-04 3.9633561869902700e-03 0.0000000000000000e+00  -3.6121561334090613e-04 2.8504869746583689e-03 0.0000000000000000e+00  -4.3795995830450267e-04 2.3501007893313680e-03 0.0000000000000000e+00  -2.0030342559150470e-04 1.8900756394911017e-03 0.0000000000000000e+00  -1.1647971936209308e-04 1.8882897445549054e-03 0.0000000000000000e+00  -5.5577040958752259e-05 1.8212069902005877e-03 0.0000000000000000e+00  9.1980392755799302e-05 1.7186039778907928e-03 0.0000000000000000e+00  2.6908554113493755e-04 1.9700068269194863e-03 0.0000000000000000e+00  3.6385124719188957e-04 2.6075830509976940e-03 0.0000000000000000e+00  4.8552949268867150e-04 2.8015189912346280e-03 0.0000000000000000e+00  1.5742865758163041e-04 3.7507322118145101e-03 0.0000000000000000e+00  1.0809617223844406e-04 4.6141744250944357e-03 0.0000000000000000e+00  -2.3546454586809124e-04 5.3399870380810548e-03 0.0000000000000000e+00  -1.2251234824375804e-03 6.7653644727821826e-03 0.0000000000000000e+00  -2.0281571663453442e-03 8.4935434526666916e-03 0.0000000000000000e+00  -3.1131546204099594e-03 9.3607677328852307e-03 0.0000000000000000e+00  -5.5565095900333037e-03 1.1541533729587853e-02 0.0000000000000000e+00  -7.0513320899702981e-03 1.4352147676911385e-02 0.0000000000000000e+00  -1.0388856846865016e-02 1.5591326876040860e-02 0.0000000000000000e+00  -1.4341146598130530e-02 1.7538175397388667e-02 0.0000000000000000e+00  -1.0743790467103448e-02 1.7213885375737245e-02 0.0000000000000000e+00  -3.0287198624807783e-02 2.9499214081325578e-02 0.0000000000000000e+00  3.7730411910671134e-02 -1.3682620889669529e-02 0.0000000000000000e+00  -5.5422488755301071e-02 1.5417631416629793e-01 0.0000000000000000e+00  2.0609459410697453e-01 -1.7958943776542804e-01 0.0000000000000000e+00  -1.0010157116431351e+00 3.8616936114668265e-01 0.0000000000000000e+00  -4.7160860654736519e-01 -1.4839444509366459e-01 0.0000000000000000e+00  -5.9855404553799019e-01 -4.5066164875508977e-02 0.0000000000000000e+00  -5.0143129939108522e-01 6.2146697450482416e-02 0.0000000000000000e+00  -3.5242177468211916e-01 2.5802426880122811e-02 0.0000000000000000e+00  -4.2758319418875346e-01 -9.4269618502959132e-02 0.0000000000000000e+00  -3.8442926139781824e-01 1.0357365339120077e-01 0.0000000000000000e+00  -3.9093844896949226e-01 -7.2290827954749073e-02 0.0000000000000000e+00  -3.3601271030926172e-01 1.6737506688717645e-03 0.0000000000000000e+00  -3.9393331976508739e-01 1.1727340582147486e-01 0.0000000000000000e+00  -5.8074199657318926e-01 -1.8966360680052494e-01 0.0000000000000000e+00  2.5608074587300966e-02 -1.0329209155498652e-03 0.0000000000000000e+00  -2.6710028423776441e-02 -2.1649881274643117e-03 0.0000000000000000e+00  2.5624690662209323e-03 8.6001356026640431e-04 0.0000000000000000e+00  -1.7959240016882675e-03 1.0234698907673470e-03 0.0000000000000000e+00  1.1966888262409875e-04 1.0881762142256461e-03 0.0000000000000000e+00  -7.6054910589034054e-03 -7.4933156173275655e-04 0.0000000000000000e+00  8.9184636067821139e-03 1.1141987924299555e-03 0.0000000000000000e+00  -4.9725338781730932e-04 6.1278982393675051e-04 0.0000000000000000e+00  8.1251892635571710e-04 1.6290973360926981e-03 0.0000000000000000e+00  7.2071139706845404e-04 5.1253627570320198e-04 0.0000000000000000e+00  -4.6592209718015652e-04 1.5495786645950698e-03 0.0000000000000000e+00  3.6100294887914962e-02 -1.9383745661459225e-02 0.0000000000000000e+00  -2.3718645744015544e-02 1.7907620222035264e-02 0.0000000000000000e+00  2.4451885892604042e-02 1.7050483219085127e-02 0.0000000000000000e+00  -3.3872979078429455e-02 -1.8697562818665529e-02 0.0000000000000000e+00  1.1479712284351962e-02 -7.5279047433875444e-03 0.0000000000000000e+00  -1.3412503397767676e-02 5.1287580824975407e-03 0.0000000000000000e+00  4.0159679839445496e-03 -1.9214297801505070e-03 0.0000000000000000e+00  -3.8132430440904978e-03 2.9604794632897271e-03 0.0000000000000000e+00  -1.1601717076538919e-02 -8.4652920510109239e-03 0.0000000000000000e+00  -2.7882784985073872e-03 -1.3043495980577244e-03 0.0000000000000000e+00  4.1028518792288861e-03 3.2793576648486771e-03 0.0000000000000000e+00  1.5821226036947938e-02 6.5802751580516490e-03 0.0000000000000000e+00  -1.0584501707906395e-03 -7.4199996154465528e-05 0.0000000000000000e+00  1.1165423863292356e-04 1.5156760422074097e-03 0.0000000000000000e+00  -1.7020907955551787e-05 6.0378253179171426e-04 0.0000000000000000e+00  1.3907979668713402e-03 -4.5863447565007795e-04 0.0000000000000000e+00  -1.1617648033809612e-03 2.2442808677497058e-03 0.0000000000000000e+00  1.7077179411733303e-03 2.7017949587066557e-03 0.0000000000000000e+00  1.7935734078735902e-02 -1.9817721619780383e-02 0.0000000000000000e+00  -1.9445516634155731e-02 1.2570520790255810e-02 0.0000000000000000e+00  6.6772844555343672e-02 1.7497108900634696e-02 0.0000000000000000e+00  -8.2825309442295672e-02 -4.7143879711760697e-03 0.0000000000000000e+00  -5.5510869196083498e-03 -4.9889418398191337e-03 0.0000000000000000e+00  -7.3687048041472195e-03 5.7157244191923320e-03 0.0000000000000000e+00  -1.8288656353509094e-02 -2.1449162488277357e-02 0.0000000000000000e+00  7.0606551921236996e-03 6.4021349807131664e-03 0.0000000000000000e+00  1.9301198069688476e-02 1.6517314048127507e-02 0.0000000000000000e+00  1.4718546390654877e-02 -6.7887694751311779e-04 0.0000000000000000e+00  5.1284917816219267e-03 7.9834447466107605e-04 0.0000000000000000e+00  4.7812173784669678e-03 -6.3144885475418027e-03 0.0000000000000000e+00  2.8415134824175299e-04 4.0446067167892102e-04 0.0000000000000000e+00  -7.0672139064367393e-05 1.6014968654309877e-03 0.0000000000000000e+00  -1.6310099985258789e-02 -1.4961712255587188e-03 0.0000000000000000e+00  -3.2716068097070772e-03 7.2899339450154151e-04 0.0000000000000000e+00  -8.9275482909247452e-04 1.0955584802777171e-03 0.0000000000000000e+00  1.3119077269236658e-03 1.0078721816513697e-03 0.0000000000000000e+00  -3.3142613837452571e-04 1.0415030453230114e-03 0.0000000000000000e+00  5.7908711989899085e-04 1.0389833674468143e-03 0.0000000000000000e+00  1.6502248922633138e-03 -1.8146305797836931e-03 0.0000000000000000e+00  -1.7569241905892560e-03 3.4953931848743661e-03 0.0000000000000000e+00  6.3198122622034072e-02 -3.6940505486302816e-02 0.0000000000000000e+00  -1.9798263829260199e-02 1.8014412071934629e-02 0.0000000000000000e+00  -2.8294371241733948e-03 -2.1228171906364137e-03 0.0000000000000000e+00  -4.6382898144365678e-02 -2.0691266260464067e-02 0.0000000000000000e+00  7.6456073361922932e-03 -2.6881923332690979e-03 0.0000000000000000e+00  -1.0910571578726914e-03 -1.0207142479593070e-03 0.0000000000000000e+00  -4.3990896602200412e-04 1.6312831689918288e-04 0.0000000000000000e+00  2.0382820539403181e-04 1.8683998848844255e-03 0.0000000000000000e+00  5.9321873941596711e-04 -1.3667974515334060e-04 0.0000000000000000e+00  -3.1279962861684770e-04 2.0537507460449550e-03 0.0000000000000000e+00  -1.5447626805729694e-04 4.0485540048435230e-04 0.0000000000000000e+00  3.7247929085399534e-02 7.4298109673169195e-03 0.0000000000000000e+00  -3.1128992625432107e-02 -7.3883941295855961e-03 0.0000000000000000e+00  6.4094149528466588e-03 4.0683818175856409e-02 0.0000000000000000e+00  -7.8303288441362549e-03 -1.4425052358138363e-02 0.0000000000000000e+00  2.6781496931246331e-03 -5.1305891206092195e-04 0.0000000000000000e+00  -2.2751869563621299e-03 2.1027903713839277e-03 0.0000000000000000e+00  -2.3694915696622181e-03 -3.3292568264845779e-03 0.0000000000000000e+00  5.5770426147610413e-04 2.4221235709932570e-03 0.0000000000000000e+00  8.2103043643272471e-03 -1.5029362177869482e-02 0.0000000000000000e+00  -1.3530898248450511e-02 1.0593510174961837e-02 0.0000000000000000e+00  -3.8417027444715302e-03 5.0425004793592789e-03 0.0000000000000000e+00  -8.7175711880549549e-05 1.3625334227433538e-03 0.0000000000000000e+00  2.7992760352552379e-04 7.2608359214371544e-04 0.0000000000000000e+00  1.6073733399740036e-02 -3.8589666272626381e-02 0.0000000000000000e+00  -7.3319174679045583e-03 2.5426218438482237e-02 0.0000000000000000e+00  -1.9481091993119948e-03 -1.0673963977462421e-05 0.0000000000000000e+00  -9.7071268365802460e-03 2.5371233991731234e-03 0.0000000000000000e+00  1.0271639323213377e-02 8.9180584677194408e-03 0.0000000000000000e+00  -8.1406784058053547e-03 -1.5602787336707280e-02 0.0000000000000000e+00  2.1596568083005678e-03 3.9057673170676188e-03 0.0000000000000000e+00  3.9693475661798448e-02 6.0968416498813965e-03 0.0000000000000000e+00  -3.8207566736369963e-02 6.0287453722279276e-03 0.0000000000000000e+00  -9.0156968754973865e-03 8.1107348459742469e-03 0.0000000000000000e+00  -1.3687763930006664e-02 -3.7873453893477099e-02 0.0000000000000000e+00  -6.1051093894153004e-03 2.4849290974429932e-03 0.0000000000000000e+00  1.8892386224679387e-02 -8.1460578324671299e-03 0.0000000000000000e+00  -5.4658118417760665e-03 -9.0835493141348169e-03 0.0000000000000000e+00  -1.9259246295641110e-02 5.0809987719445922e-03 0.0000000000000000e+00  -3.0789401630202298e-02 -1.3771925036997016e-02 0.0000000000000000e+00  -1.9432008018542880e-02 -9.1805616423531640e-03 0.0000000000000000e+00  3.0038031855990868e-02 -1.4104759606653142e-02 0.0000000000000000e+00  -4.6788417283121879e-03 -2.0109400117800042e-03 0.0000000000000000e+00  2.3926531818481965e-03 -3.7639168918484804e-03 0.0000000000000000e+00  -7.5341596328132245e-04 2.7437882508023183e-02 0.0000000000000000e+00  2.2795879881305048e-02 7.8761880348635037e-03 0.0000000000000000e+00  -1.0223875546616228e-02 -3.0314130718948071e-03 0.0000000000000000e+00  3.0419823632086528e-03 2.2526258155702583e-03 0.0000000000000000e+00  4.1711602891498943e-03 5.3547706878128674e-03 0.0000000000000000e+00  1.1147510118076224e-02 4.5560871623635882e-03 0.0000000000000000e+00  1.4852806927214884e-02 1.2134969085103951e-02 0.0000000000000000e+00  1.8039467149091732e-03 1.7524684856992977e-03 0.0000000000000000e+00  -1.1108310978886135e-03 5.4675696405094933e-04 0.0000000000000000e+00  -1.4454042573945576e-04 8.4230029600454665e-04 0.0000000000000000e+00  3.6535785477814585e-04 1.4175253359041250e-03 0.0000000000000000e+00  6.6590074689712765e-03 3.0941218176536215e-03 0.0000000000000000e+00  1.3402916944704254e-03 2.5036711312166783e-04 0.0000000000000000e+00  -1.2366219853328785e-03 1.6126190124989080e-03 0.0000000000000000e+00  2.6818869853771921e-05 1.4930800141363897e-03 0.0000000000000000e+00  3.7669390642279830e-05 4.2489347748396532e-04 0.0000000000000000e+00  -5.1069159776398745e-03 1.7476105244128108e-04 0.0000000000000000e+00  4.2343618877399456e-03 -1.0481293206406773e-02 0.0000000000000000e+00  -1.2129465881126324e-04 1.7381512820399592e-03 0.0000000000000000e+00  3.5274112645018773e-04 1.6714967774899444e-04 0.0000000000000000e+00  9.1297801967157280e-04 -1.1750848353779166e-03 0.0000000000000000e+00  -2.6980304250215175e-02 8.7660992543211382e-03 0.0000000000000000e+00  -7.4273386579665689e-04 3.0007994387194507e-03 0.0000000000000000e+00  -4.3286952557574450e-04 -1.8332170067230519e-04 0.0000000000000000e+00  -4.0737426384360585e-02 -1.3607198751562664e-02 0.0000000000000000e+00  4.2044759650470206e-02 -8.3886660609681502e-03 0.0000000000000000e+00  2.6045710501232302e-02 1.2964148830490520e-02 0.0000000000000000e+00  -1.7900132529009783e-02 -8.9734401558568266e-03 0.0000000000000000e+00  3.3424901785810361e-02 5.3562535524935206e-03 0.0000000000000000e+00  7.4870632407287154e-04 2.9989502721275421e-03 0.0000000000000000e+00  6.0473989593522199e-03 -9.5497304960407120e-04 0.0000000000000000e+00  -2.6659172659440259e-04 5.7471563971318493e-04 0.0000000000000000e+00  -1.4254727183856744e-03 -2.1011741963895473e-03 0.0000000000000000e+00  -7.2088954851892760e-04 1.8223165032525827e-03 0.0000000000000000e+00  8.4679638049664722e-03 -2.5161923886159024e-02 0.0000000000000000e+00  2.1354767904317894e-04 1.3047164133527728e-03 0.0000000000000000e+00  -7.4980220923312295e-04 3.7292344795316181e-04 0.0000000000000000e+00  -1.5828345566913614e-02 1.5952711306884183e-02 0.0000000000000000e+00  1.6329082623100394e-05 1.7089182295077277e-03 0.0000000000000000e+00  9.8639457240232045e-04 2.0939706757958369e-03 0.0000000000000000e+00  -6.3294331029327957e-03 8.7098603719631233e-03 0.0000000000000000e+00  5.9168783844206860e-02 5.2228240378760650e-02 0.0000000000000000e+00  -5.6771763293313127e-02 -3.7203701996922731e-02 0.0000000000000000e+00  1.5417760479864840e-02 5.5479113776136534e-02 0.0000000000000000e+00  -4.8069664754872496e-03 -3.4380434391970575e-02 0.0000000000000000e+00  1.9103600782850682e-03 3.7219771595961809e-04 0.0000000000000000e+00  -2.4306348832179676e-03 -6.5874443313277201e-03 0.0000000000000000e+00  -7.2727203727752212e-03 -3.1344045992140876e-03 0.0000000000000000e+00  -9.0133067114430612e-03 -2.4136574390509896e-02 0.0000000000000000e+00  -2.0958493943623066e-03 5.0927746417674365e-03 0.0000000000000000e+00  3.5924851961465247e-03 3.9970678885661441e-04 0.0000000000000000e+00  1.1032986947981611e-02 -1.0678476971131797e-03 0.0000000000000000e+00  7.0677418041929549e-02 -5.1916267804410922e-02 0.0000000000000000e+00  -7.7084567866255189e-03 -6.4241591973900137e-03 0.0000000000000000e+00  -7.8983724722785462e-02 1.1038174144652966e-02 0.0000000000000000e+00  1.9904430439339198e-02 9.2412731444622813e-04 0.0000000000000000e+00  -2.8703220045994598e-05 4.1366545485252128e-04 0.0000000000000000e+00  -1.2422215880715279e-02 -8.1002061701431746e-05 0.0000000000000000e+00  3.9371628924630579e-02 4.2577785142599430e-03 0.0000000000000000e+00  -5.0038133796381459e-02 7.0784605205319170e-03 0.0000000000000000e+00  -7.4854601553555181e-02 -5.5547199269351658e-02 0.0000000000000000e+00  -2.9181355923064603e-02 1.6820502200090296e-02 0.0000000000000000e+00  -5.5353203174912146e-03 4.2513573122178192e-03 0.0000000000000000e+00  -5.7254143439439738e-04 1.2219854175854524e-03 0.0000000000000000e+00  8.7174919379013032e-04 1.1952051425270910e-03 0.0000000000000000e+00  -9.9817685273281137e-03 5.6851907648901153e-03 0.0000000000000000e+00  2.1147285888404171e-02 1.7189239449119570e-02 0.0000000000000000e+00  4.1358104827752228e-03 1.9983109084884222e-03 0.0000000000000000e+00  4.9741701244409707e-04 -7.4455019669104026e-04 0.0000000000000000e+00  -4.6253425363710970e-03 1.6669303270753265e-03 0.0000000000000000e+00  -2.7221442215601724e-04 2.6782949691039398e-03 0.0000000000000000e+00  5.4469355487133447e-03 -3.7761371822593679e-03 0.0000000000000000e+00  7.3133712181086968e-03 8.9466172397755263e-03 0.0000000000000000e+00  -1.6995487505445731e-02 8.4838657500589647e-03 0.0000000000000000e+00  1.4374606174171245e-02 -1.3373592774706743e-02 0.0000000000000000e+00  -2.4344622782104689e-04 1.4545310329437833e-03 0.0000000000000000e+00  4.8576546855694046e-04 5.8950322033555114e-04 0.0000000000000000e+00  -1.4673015756720215e-02 -1.3760157952684508e-02 0.0000000000000000e+00  -4.8729590748113516e-04 -7.7234006820458764e-04 0.0000000000000000e+00  -1.7854470421199182e-04 2.4049623467771913e-04 0.0000000000000000e+00  -3.3852369924889172e-02 -2.3885614573786629e-02 0.0000000000000000e+00  8.7093889977706063e-02 1.1690217