<?xml version="1.0"?>
<VTKFile type="UnstructuredGrid"  version="0.1"  >
<UnstructuredGrid>
<Piece  NumberOfPoints="572" NumberOfCells="1038">
<Points>
<DataArray  type="Float64"  NumberOfComponents="3"  format="ascii">0 0 0  4 0 0  4 -1 0  0 -1 0  0.09999999999999999 0 0  0.2 0 0  0.3 0 0  0.4 0 0  0.4999999999999998 0 0  0.5999999999999996 0 0  0.6999999999999995 0 0  0.7999999999999994 0 0  0.8999999999999992 0 0  0.999999999999999 0 0  1.099999999999999 0 0  1.199999999999999 0 0  1.299999999999999 0 0  1.399999999999999 0 0  1.499999999999998 0 0  1.599999999999998 0 0  1.699999999999999 0 0  1.799999999999999 0 0  1.899999999999999 0 0  2 0 0  2.1 0 0  2.200000000000001 0 0  2.300000000000001 0 0  2.400000000000002 0 0  2.500000000000002 0 0  2.600000000000002 0 0  2.700000000000003 0 0  2.800000000000003 0 0  2.900000000000004 0 0  3.000000000000004 0 0  3.100000000000005 0 0  3.200000000000005 0 0  3.300000000000005 0 0  3.400000000000004 0 0  3.500000000000004 0 0  3.600000000000003 0 0  3.700000000000002 0 0  3.800000000000002 0 0  3.900000000000001 0 0  4 -0.08333333333333325 0  4 -0.1666666666666665 0  4 -0.2499999999999997 0  4 -0.333333333333333 0  4 -0.4166666666666666 0  4 -0.5000000000000001 0  4 -0.5833333333333337 0  4 -0.6666666666666673 0  4 -0.7500000000000006 0  4 -0.8333333333333337 0  4 -0.9166666666666669 0  3.9 -1 0  3.8 -1 0  3.7 -1 0  3.6 -1 0  3.5 -1 0  3.4 -1 0  3.300000000000001 -1 0  3.200000000000001 -1 0  3.100000000000001 -1 0  3.000000000000001 -1 0  2.900000000000001 -1 0  2.800000000000001 -1 0  2.700000000000001 -1 0  2.600000000000001 -1 0  2.500000000000002 -1 0  2.400000000000002 -1 0  2.300000000000002 -1 0  2.200000000000001 -1 0  2.100000000000001 -1 0  2 -1 0  1.9 -1 0  1.799999999999999 -1 0  1.699999999999999 -1 0  1.599999999999998 -1 0  1.499999999999998 -1 0  1.399999999999998 -1 0  1.299999999999997 -1 0  1.199999999999997 -1 0  1.099999999999996 -1 0  0.9999999999999956 -1 0  0.899999999999995 -1 0  0.7999999999999949 -1 0  0.6999999999999953 -1 0  0.5999999999999956 -1 0  0.499999999999996 -1 0  0.3999999999999968 -1 0  0.2999999999999976 -1 0  0.1999999999999984 -1 0  0.0999999999999992 -1 0  0 -0.9166666666666667 0  0 -0.8333333333333335 0  0 -0.7500000000000002 0  0 -0.666666666666667 0  0 -0.5833333333333335 0  0 -0.4999999999999999 0  0 -0.4166666666666663 0  0 -0.3333333333333327 0  0 -0.2499999999999994 0  0 -0.1666666666666663 0  0 -0.08333333333333315 0  3.491090701185765 -0.499339806301727 0  0.4950203227078167 -0.4989128584675094 0  2.64262313781888 -0.4879297506908338 0  1.449999999999998 -0.5 0  2.058402291097397 -0.5120941233772698 0  0.9749999999999992 -0.4749999999999993 0  3.081769880806683 -0.5597407802610527 0  1.745473944409859 -0.3290615136625714 0  2.347280045777389 -0.6545118286598804 0  2.335768673639667 -0.3237239238763549 0  1.750327526220345 -0.682828817540943 0  3.707492972392909 -0.3028030525063309 0  0.293580296675358 -0.7109385489008262 0  3.71498825372084 -0.7080088716251347 0  0.2918697062415769 -0.2988161261649331 0  3.250413907284768 -0.3098344370860925 0  0.7481958762886598 -0.6907216494845363 0  2.897531957111618 -0.3144800466372323 0  1.202975631932859 -0.6871206495416401 0  0.7276881720430104 -0.301075268817204 0  1.222241507685503 -0.2908020883113388 0  2.821785532795642 -0.7097679058139483 0  3.313580174540806 -0.7110306688463971 0  1.50219738324048 -0.2570217529780842 0  2.109436430026117 -0.7485141141565509 0  2.001923272149049 -0.2612004201407864 0  2.591779594323503 -0.2533220405676498 0  1.508220405676497 -0.7466779594323502 0  2.584305190871683 -0.7502831919469019 0  3.478286033189422 -0.23795222571263 0  0.5261060937617643 -0.7658117832712512 0  3.785135972681774 -0.5040707172464052 0  0.2090645029521114 -0.4969048262114374 0  0.9574438986108131 -0.2423163095862805 0  0.9754244626643473 -0.7628641460288867 0  0.5097271592765806 -0.2292760602594508 0  3.047448237147327 -0.7984168297371277 0  3.522893514415914 -0.785726174019542 0  3.27411286219494 -0.5150314861460955 0  2.876192398366876 -0.5166549013936721 0  3.072152863254761 -0.2028141497170135 0  2.188888454287124 -0.1960738743988359 0  1.911111545712876 -0.8039261256011641 0  0.6968885413728847 -0.4974520678389611 0  1.252104989604988 -0.4970114345114344 0  1.649610740490046 -0.5028202775347195 0  2.446694231298332 -0.485633542353709 0  1.845992484168205 -0.4989419599210881 0  2.246214131289309 -0.4959316037735846 0  2.743080194417513 -0.1797603284198384 0  1.345217800961618 -0.8177514544794908 0  3.831771135951664 -0.1764827624326512 0  0.168177957407361 -0.823589473522286 0  3.837430960455357 -0.8286944021295046 0  0.167391597779325 -0.1752538625856722 0  3.066111254276541 -0.3870061788029396 0  1.358909159394344 -0.1720779287034414 0  1.669284305949535 -0.172759019086266 0  2.264869859182613 -0.8283162784008133 0  2.434165412425708 -0.1697954173687042 0  1.668706113475668 -0.8314479749300888 0  1.842683258862577 -0.1656794186994128 0  3.848464877921415 -0.3616620315967092 0  0.151535122078585 -0.6383379684032905 0  3.848707346075076 -0.6466646759135177 0  0.1509968549082652 -0.3452619778382686 0  2.732975255829699 -0.3508363638623346 0  1.370252652534258 -0.6495109932111033 0  1.11832587037856 -0.1733419061976365 0  2.439737645513045 -0.836456385212641 0  3.331229791744127 -0.165499768727795 0  0.6726591332606813 -0.8336090461037186 0  1.132616756253317 -0.8280723285747189 0  1.950606351728588 -0.6518091391595896 0  2.153824719141371 -0.3536025000168445 0  3.62532407618639 -0.1564302309141494 0  0.3803710983093131 -0.8404803223371928 0  1.377912260103223 -0.3517997484404782 0  0.8924624300191402 -0.6125774599817652 0  3.207249628251628 -0.8375220474312923 0  0.6546785576266954 -0.155978749966339 0  2.719684587363634 -0.8327734580127736 0  3.647699282718985 -0.5637569936419204 0  0.3570156455557587 -0.5653989322146081 0  0.8322251523939386 -0.8403847541693579 0  0.3645988133126639 -0.1519337183240305 0  1.061404500324257 -0.6180105656135877 0  3.396758647231262 -0.3766313243368538 0  0.8148021518360848 -0.1629813466347811 0  0.6093556516052328 -0.6299486913462624 0  0.415997866655875 -0.3680522660477806 0  0.5920160015096863 -0.3645412637424194 0  3.572255424430109 -0.362089200459548 0  1.08043890485706 -0.3398660584513152 0  2.923658429424994 -0.1561137197110593 0  3.653613361778262 -0.8546909554159527 0  3.456739790681186 -0.6487708965425909 0  0.8424839600900655 -0.4190496412612194 0  2.6968241495241 -0.6460539373019687 0  2.90777185621417 -0.8467190841342236 0  3.167421855912535 -0.6853653881872064 0  3.378998015397395 -0.8550267917096944 0  2.549623533286458 -0.6074164390661531 0  1.563854363100012 -0.3870450365840445 0  1.945115925347995 -0.3956210114182645 0  2.206384380497951 -0.6363666106481864 0  2.9679770331043 -0.6663940397605803 0  2.492817266347368 -0.3527603982764793 0  1.545918816851176 -0.6075709531787901 0  2.028456012399734 -0.8701972194942087 0  2.065700499244939 -0.1359115819594244 0  1.113999927383315 -0.4803729266898425 0  3.194766700972084 -0.1349664610116483 0  1.791586588241401 -0.8656156413257059 0  2.307333345265183 -0.1346440826116952 0  2.64093544674549 -0.1331489671463476 0  0.4565707965077976 -0.6534785968762363 0  1.459077473581533 -0.8718776489042938 0  1.56279060907849 -0.1324694119967317 0  0.3144726782861624 -0.406319735913186 0  3.686635179527132 -0.4155119011072678 0  3.583227123430988 -0.6879918386850498 0  3.884530589958141 -0.5337716741137969 0  0.1138901561454064 -0.4712706309748976 0  2.551320204776417 -0.8759992125181354 0  2.968455986624249 -0.4231600805006418 0  1.843995631966074 -0.2713141166917306 0  1.23826657576458 -0.1310261345083986 0  1.632298315745049 -0.7047459448475459 0  3.454977942639006 -0.1019833897113779 0  2.11213131937471 -0.6131325843633801 0  1.631670858552932 -0.3027829344070553 0  0.549999999999996 -0.8847857258099061 0  2.175907031111534 -0.8808902127996396 0  2.440789547527098 -0.7252338716820566 0  0.9499999999999957 -0.8853403742417534 0  0.1192006629558211 -0.7258150973260704 0  0.1086302422397907 -0.2553484983400458 0  3.891615894289125 -0.7428762999771643 0  3.880790852604017 -0.2741969419997524 0  2.58999033724616 -0.3943081590477266 0  0.95310975133633 -0.1100375897447476 0  0.9389274183125247 -0.357418794071099 0  0.5436861363815539 -0.1129935035840732 0  1.237622314162623 -0.8886349339205675 0  2.766143121931948 -0.4669467935657355 0  3.157965388639583 -0.4824178848815803 0  3.732166646772587 -0.1061123528525496 0  0.8463407040907105 -0.2803849511418723 0  0.2658218649297859 -0.8967607408767373 0  3.384357462435764 -0.5450459842617623 0  1.954320722194999 -0.1009956898074866 0  0.8013980381943526 -0.5278489923710374 0  3.744358883260304 -0.603637271636247 0  0.2581863795088786 -0.6001369967359219 0  0.2629966501688439 -0.1025990268626685 0  0.3980883060404261 -0.7330050441066103 0  1.076076863672032 -0.7275728344185368 0  1.749999999999999 -0.5550190100941714 0  2.351512610076122 -0.5440435521440684 0  0.8619623856291254 -0.7246873586411677 0  3.553081028189586 -0.8932001918706867 0  2.806636304103025 -0.6100531542467602 0  2.546714489935151 -0.08818853426728746 0  1.172246975380209 -0.5783812280673658 0  1.560837452008869 -0.9052833905541354 0  3.005913589025749 -0.2858329927011495 0  3.104244827324224 -0.8867193195303111 0  0.6392996137609843 -0.7340215588892431 0  3.370409685921998 -0.2678372406131186 0  1.860045411420065 -0.6863616357695403 0  2.239306624928278 -0.3159929711989559 0  0.620090528303912 -0.2611000972275821 0  1.457468991263225 -0.08750102207080079 0  1.752790718352056 -0.1005001786212033 0  0.394717592657301 -0.2605042194828123 0  3.745581301416776 -0.9074819423317642 0  3.141158115761163 -0.2920724092797614 0  3.257376892791448 -0.6242591031763242 0  2.350280737493299 -0.9013197570937703 0  3.914203942485891 -0.125 0  3.914203942485891 -0.8750000000000003 0  0.08579605751410901 -0.1249999999999997 0  0.08579605751410968 -0.875 0  3.921126745430668 -0.4525
[...]
<PointData  Vectors="flow"> 
<DataArray  type="Float64"  Name="flow"  NumberOfComponents="3" format="ascii">-8.3024656036368583e+01 2.5384166100400557e+02 0.0000000000000000e+00  5.0558165338845775e+01 1.4297027938015390e+02 0.0000000000000000e+00  2.8097982180074689e+02 -9.8677236609943304e+02 0.0000000000000000e+00  -2.0400343007817270e+02 -6.8819276945424269e+02 0.0000000000000000e+00  5.9755513668322322e+01 3.1754849975952789e+02 0.0000000000000000e+00  -4.2005313047169231e+01 -2.9441013660899866e+01 0.0000000000000000e+00  1.3799786213607620e+01 8.5828499266331129e+00 0.0000000000000000e+00  3.2545127737393473e+00 9.0444958508209758e+00 0.0000000000000000e+00  -4.5716474381325476e+00 -2.9848294280784491e+00 0.0000000000000000e+00  2.8893109528236387e+00 -2.2458935914541983e-01 0.0000000000000000e+00  -1.0910976943762123e+00 -2.4111701250435265e+00 0.0000000000000000e+00  7.6394111083399596e-01 -9.7965047740364401e-03 0.0000000000000000e+00  -2.8937537703344629e-01 -5.6754466984997742e-01 0.0000000000000000e+00  2.5628599229614230e-01 6.4869993438298787e-02 0.0000000000000000e+00  -3.9495514473693172e-01 1.4883618366294377e-01 0.0000000000000000e+00  2.0276405531907538e-01 -2.3606666231857747e+00 0.0000000000000000e+00  -1.5019203014012553e-01 -2.1039485455704310e+00 0.0000000000000000e+00  2.8770365194494030e-01 2.9326794903920478e-01 0.0000000000000000e+00  -1.1738326241289844e-01 -2.4713995140874453e-01 0.0000000000000000e+00  -2.3562761927018717e-02 -2.6377418620134768e-01 0.0000000000000000e+00  6.4767957712379295e-02 7.5772419856454720e-02 0.0000000000000000e+00  -3.5706263766100393e-02 -1.7099451013449017e-03 0.0000000000000000e+00  6.2825882242480438e-02 -7.2908115097678777e-02 0.0000000000000000e+00  -5.2974047604111910e-02 2.8632022753895198e-01 0.0000000000000000e+00  3.4608301125737213e-02 3.4328883768691637e-01 0.0000000000000000e+00  -5.2682839568355185e-02 -1.3536592812655007e-01 0.0000000000000000e+00  2.0802136178242475e-02 -8.7933865122941490e-02 0.0000000000000000e+00  3.4902651193852760e-02 -6.7489213564988548e-02 0.0000000000000000e+00  -1.5736254395280988e-01 3.3839885205032300e-01 0.0000000000000000e+00  6.5229507572894072e-02 -9.2299022118783391e-01 0.0000000000000000e+00  -1.0221575930187687e-01 -8.6432616805606488e-01 0.0000000000000000e+00  1.3105439414498496e-01 6.2224783885249824e-02 0.0000000000000000e+00  -1.0037637267057337e-01 -1.8181262642297416e-01 0.0000000000000000e+00  -1.3818780670657843e-01 -1.0218705605686988e-01 0.0000000000000000e+00  7.0227227225356481e-01 -1.8387674253758319e+00 0.0000000000000000e+00  -1.7730973662588303e+00 -6.5271702806991119e+00 0.0000000000000000e+00  2.0961711349133831e+00 -6.3385157559567432e-02 0.0000000000000000e+00  -2.1268709823004617e+00 1.6090425389387391e+00 0.0000000000000000e+00  2.0421239836847178e+00 -2.4919381272113323e+00 0.0000000000000000e+00  1.4135500093782485e+00 -1.1461435929471708e+00 0.0000000000000000e+00  -1.5446511102345058e+01 1.4464409920146110e+01 0.0000000000000000e+00  2.9941280575068813e+01 -3.3166904832148553e+01 0.0000000000000000e+00  -3.3525190412793116e+01 1.6766346209940892e+02 0.0000000000000000e+00  6.5147581489766367e+01 -9.4850642180418291e+01 0.0000000000000000e+00  -3.3960979544387257e+01 5.3497334702978215e+01 0.0000000000000000e+00  3.4310640822323514e+01 -2.3201456245039711e+01 0.0000000000000000e+00  5.1383315886348065e+01 2.3713642318090201e+01 0.0000000000000000e+00  -3.7733600053024510e+01 -5.3719241952517017e+01 0.0000000000000000e+00  1.1848689832159562e+02 1.2176614226253939e+02 0.0000000000000000e+00  6.2845067082877165e+01 -1.6830916773680812e+02 0.0000000000000000e+00  1.6727797108258903e+02 1.3310368748308514e+02 0.0000000000000000e+00  1.4244054451979812e+02 1.4037251099128244e+02 0.0000000000000000e+00  -1.0987487795500780e+02 -5.0806392497134090e+02 0.0000000000000000e+00  3.2885522838114719e+02 7.1498580652125167e+02 0.0000000000000000e+00  -2.0573312355260475e+02 -1.3199200069613928e+03 0.0000000000000000e+00  1.9949506100128201e+02 1.7233380737148090e+02 0.0000000000000000e+00  -7.8630844495906558e+01 -6.7923395432544609e+01 0.0000000000000000e+00  -7.4655531502731449e+00 -5.0527797585955327e+01 0.0000000000000000e+00  1.9725918075453524e+01 1.8366024558897262e+01 0.0000000000000000e+00  -1.1414757304257131e+01 -1.7319487318214986e+00 0.0000000000000000e+00  3.6386226507299004e+00 -1.0737992404266501e+00 0.0000000000000000e+00  4.7170603905450548e-01 1.9387296785086807e+00 0.0000000000000000e+00  -1.3111182985628556e+01 3.0294524846418909e+01 0.0000000000000000e+00  1.1788839231907561e+01 3.2553483873082442e+01 0.0000000000000000e+00  1.1034788997268365e+00 9.1596902926928525e+00 0.0000000000000000e+00  -3.6778613829525990e+00 -4.2059494569274669e+00 0.0000000000000000e+00  2.5228138103274902e+00 9.7981382262218764e-01 0.0000000000000000e+00  -1.3591364977875222e+00 3.2741425339086963e+00 0.0000000000000000e+00  6.0218329473240317e-01 4.7517581453507480e+00 0.0000000000000000e+00  -5.8896183002179392e-01 -4.8322573212793712e-01 0.0000000000000000e+00  1.7855966485411018e-01 3.2517801910669092e-01 0.0000000000000000e+00  -7.8910440694528364e-02 2.1051918228501629e-01 0.0000000000000000e+00  5.4231685488619019e-01 -4.9881029918964108e-04 0.0000000000000000e+00  -3.4843025800770733e-01 2.0222194626721706e+00 0.0000000000000000e+00  1.0192857969548438e-01 8.1246822192766277e-01 0.0000000000000000e+00  -2.0124886350303166e-02 4.7239259132107403e-01 0.0000000000000000e+00  -1.5143734027541417e-01 6.0848945526090370e-01 0.0000000000000000e+00  5.1747880357102560e-01 -1.3336530114299907e+00 0.0000000000000000e+00  -1.9071148058065793e-01 3.2512034724615666e+00 0.0000000000000000e+00  2.3955363537382054e-01 3.3213878848372937e+00 0.0000000000000000e+00  -2.1816804975457760e-01 -3.1682027427412918e-01 0.0000000000000000e+00  3.3073691012737279e-02 7.4737154180352516e-01 0.0000000000000000e+00  -2.2851139307333454e-01 8.5326790287238152e-01 0.0000000000000000e+00  4.1824153595530805e-01 -1.1667580212379032e+00 0.0000000000000000e+00  -4.9724938691967652e-01 1.5211498195758433e+00 0.0000000000000000e+00  1.6212207205571261e+00 6.2102078478031641e-01 0.0000000000000000e+00  -1.8174696028484738e+00 -4.1946190943718276e-01 0.0000000000000000e+00  5.7807279913429461e+00 -1.1930204337568255e+00 0.0000000000000000e+00  -1.3869213181183689e+01 2.0200929309580665e+01 0.0000000000000000e+00  -4.9541693237716835e+00 -3.0418445875478813e+01 0.0000000000000000e+00  6.9312197890754945e+01 -1.0323813984729496e+02 0.0000000000000000e+00  -1.4969979054377782e+02 1.3155527962421945e+02 0.0000000000000000e+00  1.5031811754321845e+02 -8.7010508983707143e+02 0.0000000000000000e+00  -3.1849208947248081e+02 4.5369487714403863e+02 0.0000000000000000e+00  1.6251082635037923e+02 -2.5398875889202969e+02 0.0000000000000000e+00  -1.5638302440341178e+02 9.6679331412795435e+01 0.0000000000000000e+00  -5.8842916923406875e+01 -2.9028014503350498e+01 0.0000000000000000e+00  3.6187664628964981e+01 6.0172792799586439e+01 0.0000000000000000e+00  -2.3679291517927831e+02 -1.7713821959196969e+02 0.0000000000000000e+00  -6.0754518210794906e+01 1.9245583313113426e+02 0.0000000000000000e+00  -5.1060462587939256e+01 -1.4945051292881229e+02 0.0000000000000000e+00  -8.6288483688022168e+01 2.0919735152628860e+01 0.0000000000000000e+00  4.3318466413436276e+00 1.5277967393370253e+02 0.0000000000000000e+00  -5.9643548085113054e+01 -1.9774453619111091e+02 0.0000000000000000e+00  3.7311357053511043e+00 8.1052691478420102e-01 0.0000000000000000e+00  1.6057476989875427e-01 -5.1016081139437990e+00 0.0000000000000000e+00  1.8094378226944538e-01 -3.5931246354344620e-01 0.0000000000000000e+00  6.5130710767194108e-02 -4.1244261925848430e-02 0.0000000000000000e+00  -3.8962591790189273e-02 9.2850609877644374e-02 0.0000000000000000e+00  -2.4902493604154408e-01 3.4946830240169391e-01 0.0000000000000000e+00  2.1200736612523849e-01 1.0763186243980902e-01 0.0000000000000000e+00  3.9322007800570435e-02 9.4760333225601314e-03 0.0000000000000000e+00  9.7998616088378468e-02 6.2780406672683808e-02 0.0000000000000000e+00  1.5263440603198113e-02 -9.5359681429706238e-03 0.0000000000000000e+00  8.1691758704748499e-02 -1.8826808202522690e-02 0.0000000000000000e+00  -7.6935598327727002e+00 7.1106927648251430e+00 0.0000000000000000e+00  -3.1692797367869083e+01 3.3846960007470635e+01 0.0000000000000000e+00  -2.1359905107311061e+01 -6.3391875063474563e+00 0.0000000000000000e+00  4.3916358467764638e+01 4.8158952327762854e+01 0.0000000000000000e+00  6.9388620492758268e-01 -1.1115382069582373e-01 0.0000000000000000e+00  8.8834116172808919e-01 8.2484198988685475e-01 0.0000000000000000e+00  3.2951358840203400e-02 8.7613493259355760e-02 0.0000000000000000e+00  -5.6408610706839973e-02 -1.0119434800062334e-01 0.0000000000000000e+00  1.1932343396014990e+00 -9.2548135365340689e-01 0.0000000000000000e+00  -1.0869693397224316e-01 -2.9832935763157858e-01 0.0000000000000000e+00  -1.1653868387253095e+00 1.0862034370328280e-01 0.0000000000000000e+00  -2.3071895286203795e-01 -1.0149768491502811e+00 0.0000000000000000e+00  4.0028813679045282e-02 -3.4537078290917530e-03 0.0000000000000000e+00  2.9053746128119708e-02 -1.1569331899865931e-01 0.0000000000000000e+00  -4.9691354607871337e-03 -5.1091077819535154e-02 0.0000000000000000e+00  2.6519599259827699e-02 1.3243696976430389e-01 0.0000000000000000e+00  1.4065790384670893e-01 -4.5737848500052386e-01 0.0000000000000000e+00  4.1658777255285934e-01 -1.7136356786872839e-01 0.0000000000000000e+00  9.2069622318995381e-01 -3.6722879041326473e-01 0.0000000000000000e+00  2.5935248587506223e+01 2.0667386020033680e+00 0.0000000000000000e+00  -4.1505923180794333e+01 4.7995294270141521e+01 0.0000000000000000e+00  1.8037749399671618e+01 -2.1505738557140297e+01 0.0000000000000000e+00  -8.1649607123868029e-01 -4.1636322286349042e-01 0.0000000000000000e+00  -3.6503789885113719e-01 -5.3517083190446435e-01 0.0000000000000000e+00  4.7382181197998046e+00 1.7585827735462991e+00 0.0000000000000000e+00  -4.8136057686524142e-01 6.8116829153744831e+00 0.0000000000000000e+00  6.8473485078264682e+00 2.9805104079769680e+00 0.0000000000000000e+00  8.3502818610729723e-01 -7.7510925978534728e-01 0.0000000000000000e+00  6.6184652516259643e-02 7.0059474151640888e-01 0.0000000000000000e+00  4.3154414378678868e-01 5.4307409454389544e-03 0.0000000000000000e+00  5.5822111820393608e-02 -2.0566829499352512e-02 0.0000000000000000e+00  3.6655690466663876e-01 1.8271746143126955e-01 0.0000000000000000e+00  -8.3533797476860827e-01 -8.0722518324948078e-01 0.0000000000000000e+00  6.9985554695738339e-01 -2.9692991713146000e-01 0.0000000000000000e+00  -1.9015072424004809e-01 8.5057769891802915e-02 0.0000000000000000e+00  1.2504368374376174e-01 2.4409632719156519e-03 0.0000000000000000e+00  -6.3115456734117281e-02 3.3042345729401491e-02 0.0000000000000000e+00  1.0722087509272900e-02 -3.3495300721488881e-02 0.0000000000000000e+00  8.2208571448937090e-02 -1.1383279879478515e-01 0.0000000000000000e+00  1.0296584197502786e-02 3.9406322593623255e-01 0.0000000000000000e+00  9.1144051312562571e+00 1.3033713363768726e+01 0.0000000000000000e+00  -2.5445656530771512e+01 -5.3115448591964679e+01 0.0000000000000000e+00  4.5439051802287800e+01 -6.9491290267669157e+01 0.0000000000000000e+00  -1.7139604791221384e+01 2.1431377662851542e+01 0.0000000000000000e+00  3.9661502750126906e-02 -1.2341201116467597e-01 0.0000000000000000e+00  1.5653092953677597e-01 -1.5364832036544951e-01 0.0000000000000000e+00  2.6150154297185021e-02 2.3269507603149723e-02 0.0000000000000000e+00  -3.1927911452734478e-02 7.3198333951050479e-02 0.0000000000000000e+00  6.9673486318580823e-03 -3.0782237649167165e-02 0.0000000000000000e+00  -7.6017628430259679e-02 1.4041639124469013e-01 0.0000000000000000e+00  1.4512170274277822e-02 5.9518221636491878e-03 0.0000000000000000e+00  2.0688005299253074e+01 4.1464489298816105e+01 0.0000000000000000e+00  -2.4791216850666245e+01 -7.3342948611456777e+01 0.0000000000000000e+00  7.9898872929963701e+01 -7.5894150975081786e+01 0.0000000000000000e+00  -6.6634526229957816e+00 7.6556654387703475e+01 0.0000000000000000e+00  1.1084516846084460e-02 -5.6797231033223004e-02 0.0000000000000000e+00  2.7511036363741737e-01 -1.0273508983096091e-01 0.0000000000000000e+00  -2.1995706035510187e-01 -1.2675142444568582e-01 0.0000000000000000e+00  -1.0004798008497948e-01 3.3656610741365650e-01 0.0000000000000000e+00  6.0165365985685404e-01 9.6725152419852217e-02 0.0000000000000000e+00  7.8137132364450128e+00 -1.3098549084024234e+00 0.0000000000000000e+00  -2.5564951043822159e-01 -5.4325169779634710e-02 0.0000000000000000e+00  1.3153073128845384e-02 1.3994960196961301e-01 0.0000000000000000e+00  -7.5441508286433110e-04 1.2961876920363189e-02 0.0000000000000000e+00  3.9396958403017406e+00 -2.0836230222179339e+00 0.0000000000000000e+00  -2.8042983437723872e+00 -8.1698534806812990e+00 0.0000000000000000e+00  1.5474190442587213e-01 4.3576127154840917e-02 0.0000000000000000e+00  -6.4987062244533877e-02 -5.1833936715021200e-01 0.0000000000000000e+00  5.1973744106117903e-01 -4.7008930127618914e-01 0.0000000000000000e+00  8.1344088116033109e-01 1.6945467747355858e-01 0.0000000000000000e+00  -5.8736667006473076e-01 3.1646046090669105e-01 0.0000000000000000e+00  -6.3981181375668035e+00 -5.9648348474360813e-01 0.0000000000000000e+00  1.3752925415784818e+01 -7.1219364723417866e-01 0.0000000000000000e+00  9.8345850128404744e-01 4.2620688891079173e-02 0.0000000000000000e+00  -4.3787416145327995e+00 5.3876111312559329e+00 0.0000000000000000e+00  -3.9714692848822797e-01 -2.7780732469031305e-01 0.0000000000000000e+00  1.2294428189248321e+00 -6.8971550480125432e-02 0.0000000000000000e+00  -4.3367358422720942e-01 -1.0280260527487923e+00 0.0000000000000000e+00  4.2909686754678672e-01 -4.2262125790196220e-01 0.0000000000000000e+00  2.4903915004271436e+01 -9.8923487805951424e+00 0.0000000000000000e+00  6.8482926593491840e+00 -2.6590173275851076e-01 0.0000000000000000e+00  3.0392241984135695e+00 -6.2092707448496265e+00 0.0000000000000000e+00  2.3897642684616674e-01 6.8763929785468869e-01 0.0000000000000000e+00  2.0010524604243921e-01 3.1260086891645618e-02 0.0000000000000000e+00  4.0822152619193972e+01 1.6007745895768238e+01 0.0000000000000000e+00  -9.2596706379647191e+00 3.5682334404795357e+00 0.0000000000000000e+00  -1.8088261927430443e-02 -2.0185665339437038e+00 0.0000000000000000e+00  8.2554428950426828e-01 -5.0344405156264116e-01 0.0000000000000000e+00  -2.1709319510471520e-01 -5.2688808056012748e-01 0.0000000000000000e+00  2.6563940102193379e-01 -2.3086940311336837e-01 0.0000000000000000e+00  -2.7822984024399684e+00 1.2703204618679020e+00 0.0000000000000000e+00  2.4753045469403478e-01 -2.2821168787459900e-01 0.0000000000000000e+00  1.8180064420308722e-01 -1.4179097030986876e-01 0.0000000000000000e+00  8.9698146947526664e-05 -2.8248218747729523e-02 0.0000000000000000e+00  -2.9525142118328845e-01 7.7794624687384781e-02 0.0000000000000000e+00  -1.7680072225537040e+00 3.0471447927703990e+00 0.0000000000000000e+00  4.8175385388516977e-02 -2.6656865672650094e-02 0.0000000000000000e+00  6.2175893112799349e-02 -1.9065210752454451e-01 0.0000000000000000e+00  8.5707681677118109e-03 -2.2978404377712830e-01 0.0000000000000000e+00  -1.5953744496016463e-02 -7.2971189390464333e-02 0.0000000000000000e+00  -6.6805438429874808e-01 -5.4251316041094433e-01 0.0000000000000000e+00  3.6419889124195570e-01 1.1374305373064781e+00 0.0000000000000000e+00  1.7938284990415887e-02 -2.4082119403096244e-01 0.0000000000000000e+00  2.9452391877918403e-02 4.3409423001496007e-02 0.0000000000000000e+00  -4.4920541982343541e-02 1.3087645476199816e-01 0.0000000000000000e+00  -2.8838950997643793e+00 -1.2887094853297777e+01 0.0000000000000000e+00  6.8016420772982450e-02 -1.8921829563247022e-01 0.0000000000000000e+00  3.7188090299497323e-02 6.8230604783276735e-02 0.0000000000000000e+00  -2.2719786043416153e+01 -1.3713956764907751e+01 0.0000000000000000e+00  -8.6565909353416490e+00 2.0656233771066983e+01 0.0000000000000000e+00  -2.4868872797879554e+01 -1.0148520974023130e+01 0.0000000000000000e+00  5.3665781925184334e+01 -2.7121894755936403e+01 0.0000000000000000e+00  -2.5888162297831602e+01 -6.9645630891875712e+01 0.0000000000000000e+00  1.0709441505899945e-02 -7.5564127274896065e-01 0.0000000000000000e+00  8.0355467383649737e-02 1.6278036861689613e-01 0.0000000000000000e+00  4.6948106555020595e-03 6.6436593786245203e-03 0.0000000000000000e+00  -6.2860400235665373e-02 9.0242484250519631e-02 0.0000000000000000e+00  -3.2305264372043296e-01 -1.8082946626060543e-02 0.0000000000000000e+00  2.3796299672073244e+00 1.6233640710728361e-01 0.0000000000000000e+00  5.5374961173447763e-02 -2.3395643151168356e-02 0.0000000000000000e+00  -8.5432342407540246e-03 1.5490773533718144e-01 0.0000000000000000e+00  1.5149292479906873e+00 -3.7387374080549849e+00 0.0000000000000000e+00  1.1987948974277664e-02 -1.0568041077727092e-01 0.0000000000000000e+00  2.8189078737335471e-01 -1.9454167383340679e-01 0.0000000000000000e+00  -1.9813398840976368e-01 2.1542621582425425e-01 0.0000000000000000e+00  1.2203179618196183e+00 6.6025757410215590e+01 0.0000000000000000e+00  6.0528257905892247e+01 -4.1661349177050610e+01 0.0000000000000000e+00  -1.1873337704679192e+02 1.2552592450014714e+02 0.0000000000000000e+00  -1.4935400547925344e+01 -1.8909130157034671e+01 0.0000000000000000e+00  1.1262375543475044e-02 1.3126483674520087e-01 0.0000000000000000e+00  -9.4220131666826190e-02 8.7909171024766752e-02 0.0000000000000000e+00  1.2257428040213982e+00 -7.0951993830742327e-02 0.0000000000000000e+00  -1.6562167635722074e+00 2.7975187791259132e-01 0.0000000000000000e+00  2.0516720617282536e-02 -1.2479909645874172e-01 0.0000000000000000e+00  3.7795491368061367e-02 -1.8992330222777101e-01 0.0000000000000000e+00  -1.8618914445512649e-01 3.1512831434099770e-01 0.0000000000000000e+00  -1.0602377414008407e+01 -8.0104143154804841e-01 0.0000000000000000e+00  6.5085294946885128e-02 1.2922546871632627e+00 0.0000000000000000e+00  6.3321352167121802e+01 4.2427015239581621e+01 0.0000000000000000e+00  -2.5934981557313121e+00 2.2069222393463450e+00 0.0000000000000000e+00  -3.9580829876519567e-03 -3.0457288712678731e-02 0.0000000000000000e+00  6.5116322871653060e-02 3.2599035980322810e-01 0.0000000000000000e+00  -4.5879206306632256e+01 -2.2404494971778036e+01 0.0000000000000000e+00  1.6938162318167329e+01 -3.4439966586404111e+01 0.0000000000000000e+00  2.1300060004066463e+01 3.3988739533139030e+00 0.0000000000000000e+00  4.1140465406589328e+01 2.2016591361938048e+01 0.0000000000000000e+00  7.2994041727072065e-02 -7.6415815558967884e-02 0.0000000000000000e+00  3.3268177034841209e-02 -5.1409957464109167e-02 0.0000000000000000e+00  -9.9439912232863636e-02 -1.8043155121340906e-01 0.0000000000000000e+00  -1.6193977065280341e-01 -7.7270078655291910e-02 0.0000000000000000e+00  -2.7218734024632308e+01 1.1975608248393423e+01 0.0000000000000000e+00  -6.8179139662163024e-01 -7.4446847978972197e-01 0.0000000000000000e+00  4.7394788171960862e-02 7.2868570338219196e-02 0.0000000000000000e+00  6.4053040676330927e-02 -1.3312884228501140e-01 0.0000000000000000e+00  -8.2307756217083070e-02 -3.3596310857933220e-01 0.0000000000000000e+00  -2.0393000662332073e-01 -2.3083379366882603e-01 0.0000000000000000e+00  -5.7758631424189577e+00 -7.1620515632267683e+00 0.0000000000000000e+00  -6.7592771838510153e+00 -1.2923496246067557e-02 0.0000000000000000e+00  -2.6171720438597329e-01 -1.5840977714946930e-01 0.0000000000000000e+00  2.3988617664074396e-03 -3.4972405253354620e-02 0.0000000000000000e+00  -2.1824116006859068e-03 1.8310489609711621e-02 0.0000000000000000e+00  3.1849593155699484e-02 1.0276784618848274e-01 0.0000000000000000e+00  -7.4820073350951102e-02 -1.1401277596800211e-02 0.0000000000000000e+00  -4.4778617358573348e-03 -2.1331023071603686e-02 0.0000000000000000e+00  -1.0620009831197994e+01 -2.7842419325612302e+00 0.0000000000000000e+00  -9.3202574192