<?xml version="1.0"?>
<VTKFile type="UnstructuredGrid"  version="0.1"  >
<UnstructuredGrid>
<Piece  NumberOfPoints="1121" NumberOfCells="2112">
<Points>
<DataArray  type="Float64"  NumberOfComponents="3"  format="ascii">0 0 0  0.5 0 0  0.5 -0.22 0  0 -0.22 0  0.0125 0 0  0.025 0 0  0.03750000000000001 0 0  0.05 0 0  0.0625 0 0  0.07500000000000001 0 0  0.08750000000000001 0 0  0.1 0 0  0.1125 0 0  0.125 0 0  0.1375 0 0  0.15 0 0  0.1625 0 0  0.175 0 0  0.1875 0 0  0.2 0 0  0.2125 0 0  0.225 0 0  0.2375 0 0  0.25 0 0  0.2625 0 0  0.275 0 0  0.2875 0 0  0.3 0 0  0.3124999999999999 0 0  0.325 0 0  0.3375 0 0  0.35 0 0  0.3625 0 0  0.375 0 0  0.3875 0 0  0.4 0 0  0.4125 0 0  0.425 0 0  0.4375 0 0  0.45 0 0  0.4625 0 0  0.475 0 0  0.4875 0 0  0.5 -0.00916666666666667 0  0.5 -0.01833333333333334 0  0.5 -0.02750000000000001 0  0.5 -0.03666666666666668 0  0.5 -0.04583333333333335 0  0.5 -0.05500000000000002 0  0.5 -0.06416666666666669 0  0.5 -0.07333333333333336 0  0.5 -0.08250000000000002 0  0.5 -0.09166666666666669 0  0.5 -0.1008333333333334 0  0.5 -0.11 0  0.5 -0.1191666666666667 0  0.5 -0.1283333333333334 0  0.5 -0.1375 0  0.5 -0.1466666666666667 0  0.5 -0.1558333333333333 0  0.5 -0.165 0  0.5 -0.1741666666666667 0  0.5 -0.1833333333333333 0  0.5 -0.1925 0  0.5 -0.2016666666666667 0  0.5 -0.2108333333333333 0  0.4875 -0.22 0  0.475 -0.22 0  0.4625 -0.22 0  0.45 -0.22 0  0.4375 -0.22 0  0.425 -0.22 0  0.4125 -0.22 0  0.4 -0.22 0  0.3875 -0.22 0  0.375 -0.22 0  0.3625 -0.22 0  0.35 -0.22 0  0.3375 -0.22 0  0.325 -0.22 0  0.3125 -0.22 0  0.3 -0.22 0  0.2875 -0.22 0  0.275 -0.22 0  0.2625 -0.22 0  0.25 -0.22 0  0.2375 -0.22 0  0.225 -0.22 0  0.2125 -0.22 0  0.2 -0.22 0  0.1875000000000001 -0.22 0  0.175 -0.22 0  0.1625 -0.22 0  0.15 -0.22 0  0.1375 -0.22 0  0.125 -0.22 0  0.1125 -0.22 0  0.09999999999999998 -0.22 0  0.08749999999999997 -0.22 0  0.07499999999999996 -0.22 0  0.0625 -0.22 0  0.04999999999999999 -0.22 0  0.03750000000000003 -0.22 0  0.02500000000000002 -0.22 0  0.01250000000000001 -0.22 0  0 -0.2108333333333333 0  0 -0.2016666666666667 0  0 -0.1925 0  0 -0.1833333333333333 0  0 -0.1741666666666666 0  0 -0.165 0  0 -0.1558333333333333 0  0 -0.1466666666666666 0  0 -0.1375 0  0 -0.1283333333333333 0  0 -0.1191666666666666 0  0 -0.11 0  0 -0.1008333333333333 0  0 -0.09166666666666665 0  0 -0.08249999999999999 0  0 -0.07333333333333333 0  0 -0.06416666666666668 0  0 -0.05499999999999999 0  0 -0.04583333333333331 0  0 -0.03666666666666665 0  0 -0.0275 0  0 -0.01833333333333334 0  0 -0.009166666666666684 0  0.1054583333333335 -0.1054166666666667 0  0.3942676334017064 -0.1137728325038039 0  0.2847879184121186 -0.1095588156798053 0  0.1945032948335413 -0.1282408799476467 0  0.06153506715537374 -0.1512727221728088 0  0.4399056412223469 -0.06797859302281792 0  0.05788181883779472 -0.06001948808334377 0  0.4421098014386607 -0.1599837267347342 0  0.3413511741034609 -0.06957267157055583 0  0.2288650014326337 -0.07000139022125416 0  0.3374198095657364 -0.153292781564552 0  0.1625149941501948 -0.06635759941053934 0  0.1410798075665959 -0.1547982873744018 0  0.2480541718311375 -0.1584999930406966 0  0.4521112869309225 -0.1144576824167908 0  0.04769384748510372 -0.1054790589784799 0  0.2872553124970689 -0.0549183148201307 0  0.3883603170589741 -0.1667590078701163 0  0.1113816725357426 -0.05349980002187416 0  0.388663619148569 -0.05083099728992514 0  0.2924675002385118 -0.1733355444551434 0  0.03957129721715399 -0.1820306497250263 0  0.463886478278041 -0.04123097885421483 0  0.1819898664669143 -0.1745112248447572 0  0.1501955722423063 -0.1126410264576243 0  0.2381168692527681 -0.1138631020717532 0  0.09896708868237117 -0.1743617443889283 0  0.351521105495953 -0.110482033201648 0  0.1944214316144394 -0.04364751139729321 0  0.4676096572335854 -0.17875 0  0.0323903427664145 -0.04125 0  0.03139627442974444 -0.07791666666666666 0  0.4686037255702555 -0.1420833333333333 0  0.03146427625974824 -0.1353922207127977 0  0.4687538427589449 -0.08499498352404596 0  0.1945393885069078 -0.08884182758867265 0  0.2525813348104176 -0.03744007417230172 0  0.3217010222371471 -0.03764154129720884 0  0.4222469886470394 -0.03586904090069724 0  0.09663319060065351 -0.1401271138728219 0  0.2193792666828137 -0.183158231426584 0  0.3560154827479793 -0.1838943099753877 0  0.1434582748922029 -0.03603411582704523 0  0.3765333185963097 -0.08241017292348579 0  0.07538111331820632 -0.08899587837746269 0  0.423855991190923 -0.1306886077643884 0  0.3185210010305527 -0.09753607818954631 0  0.3569762884570115 -0.03650734503769727 0  0.4254213410091923 -0.0987078979590463 0  0.2610082403268991 -0.0817800662321487 0  0.0828105113527246 -0.0341734786714956 0  0.4171399376253134 -0.185803221952863 0  0.3057870365127394 -0.1382026892003179 0  0.12895829204953 -0.08335230948371621 0  0.06875298785225953 -0.187362820013113 0  0.3717868049890677 -0.1386048615715364 0  0.321448533906611 -0.1855116827647124 0  0.26298072168791 -0.1839420817131204 0  0.07484000163200957 -0.1198633334100699 0  0.1547686158654376 -0.1863750548878711 0  0.216059367308573 -0.1515159536473182 0  0.2699691944498949 -0.1417527519042215 0  0.1656185503016955 -0.1403556565429203 0  0.4083071195762781 -0.07378364169239227 0  0.1267131755037155 -0.1278660972450704 0  0.4735015828166597 -0.0640900788079139 0  0.02554956908977171 -0.1556408100003981 0  0.4768150825846236 -0.1145833333333333 0  0.02318491741537634 -0.1054166666666667 0  0.223953700752457 -0.0304451531933032 0  0.1244872804067221 -0.1907232817427361 0  0.4438735214118281 -0.1930008132865749 0  0.05574102313663398 -0.02865323925202035 0  0.4137204188713657 -0.1553454939163003 0  0.08893893095617791 -0.06579816339826482 0  0.1717694871603352 -0.02800139159048265 0  0.3128492556460914 -0.06943040619515532 0  0.2797695783739821 -0.02590934499649085 0  0.02258333333333329 -0.1970833333333333 0  0.4762493762769904 -0.02160603458451191 0  0.4793770768812318 -0.1979934752448725 0  0.02062142143957255 -0.02200567641944876 0  0.1164030865048185 -0.02740272745133866 0  0.3830675041448486 -0.1925667518381948 0  0.4791226873505327 -0.1610342148373401 0  0.02087731264946724 -0.05896578516265992 0  0.3274724693986852 -0.1225305077389053 0  0.3972801610854721 -0.02625449066011495 0  0.2900140160514686 -0.08365001034985962 0  0.1709547781797311 -0.09465470820062212 0  0.2138438311308281 -0.1099941211103435 0  0.4450205721789285 -0.02492933314930469 0  0.05420467580227878 -0.08349945672846135 0  0.4461329107542346 -0.1367113815538408 0  0.3659666316461785 -0.05978339436610505 0  0.44602790301578 -0.09307279226297782 0  0.1051970245947556 -0.08027435556391044 0  0.05333928713341426 -0.1272409570081178 0  0.3959065276465774 -0.1392957050603055 0  0.1954280839215327 -0.1956301054107469 0  0.1114114251973984 -0.1581699686077357 0  0.1861203385256373 -0.06601416834570389 0  0.2411653975579025 -0.1955923650394697 0  0.3655092946697883 -0.1617364087021952 0  0.135090011654307 -0.05852644219278214 0  0.301466572149827 -0.195730962509487 0  0.3171403096460815 -0.1628017925003279 0  0.2583110626374412 -0.1046341192205865 0  0.4408293443687437 -0.04585722764353674 0  0.2712011044137034 -0.1640374945295207 0  0.2411933721253841 -0.08983355018053346 0  0.2501709838730871 -0.1314559421109842 0  0.4829353992284747 -0.03936718280336758 0  0.01826814268142685 -0.17875 0  0.08176459786747367 -0.1581134879103219 0  0.09090727073593149 -0.1966179220907174 0  0.1938567422944586 -0.1528508759815354 0  0.1733129361306733 -0.1172649579021292 0  0.1296640686621583 -0.1060858859555111 0  0.05006156132458137 -0.1998033571646454 0  0.162505650870633 -0.1635353305739766 0  0.30277270753554 -0.02336446206680166 0  0.04392010531002208 -0.1476919574928456 0  0.4570380569409145 -0.07105832940298668 0  0.2509935571465481 -0.06292905082461901 0  0.3948833058972995 -0.09019561948060845 0  0.4598195232581849 -0.1577532743262658 0  0.04018055885339097 -0.06224663359087233 0  0.1730418602576066 -0.1983511585214162 0  0.354008461825654 -0.08842076759065362 0  0.373211974938222 -0.1031515537153039 0  0.3385725936424656 -0.02355841481827918 0  0.05693481862827446 -0.1711111761535942 0  0.2226017506701603 -0.1306213423698554 0  0.4834446118625366 -0.09366667033152501 0  0.01655538813746335 -0.126333329668475 0  0.4825096030146118 -0.1326572162395438 0  0.01749039698538812 -0.08734278376045618 0  0.3772923679603625 -0.01999366789017346 0  0.01651090378487999 -0.1420833333333333 0  0.48348909621512 -0.07791666666666669 0  0.2083850969976113 -0.06098599897318754 0  0.3496303726904554 -0.1333395240176083 0  0.3051888980043784 -0.1167126520442686 0  0.2175622493287656 -0.08816391583608728 0  0.421331648509181 -0.05567865783938017 0  0.2036856364456695 -0.0217459550834085 0  0.3419325538888507 -0.04719577702332296 0  0.3412491916251918 -0.1996737604301947 0  0.4838834006315611 -0.1786454571355643 0  0.01611659936843887 -0.0413545428644357 0  0.172916357627664 -0.04916537131395513 0  0.4024134926805814 -0.2009331510593763 0  0.2424815730009992 -0.02045273553971888 0  0.1462759520833398 -0.1337233768065287 0  0.2346404539413744 -0.0484884977905098 0  0.09697638824467633 -0.01835062747588986 0  0.3376316573341132 -0.1736137832302001 0  0.1473441332611047 -0.09306137774954895 0  0.434705037373379 -0.114505364151485 0  0.0768089501139663 -0.1390499296181859 0  0.2037322897871967 -0.1695319781453501 0  0.2796822656650553 -0.2007669332776081 0  0.2910707535484897 -0.1516548901144321 0  0.414355300365443 -0.1140560482952263 0  0.09372496308173206 -0.1210763918452149 0  0.3897041267298961 -0.06995384811683555 0  0.4607061536274312 -0.2009522278863767 0  0.03767528917450519 -0.01920779542340162 0  0.06550910726222195 -0.1022565085744684 0  0.05021276002452402 -0.04427151993747909 0  0.4497875067624045 -0.1757266867012744 0  0.2685456651208211 -0.05149244248160013 0  0.1924991911245588 -0.1082791409797235 0  0.4653652048205058 -0.1036696603203247 0  0.03478864406010496 -0.1162949466270758 0  0.03530598512279109
[...]
<PointData  Vectors="flow"> 
<DataArray  type="Float64"  Name="flow"  NumberOfComponents="3" format="ascii">4.4719665295806918e-03 -1.9421571680133878e-05 0.0000000000000000e+00  -4.4650482791684532e-03 -1.5878911214080078e-05 0.0000000000000000e+00  -9.7633097885049848e-03 2.2777699115943185e-04 0.0000000000000000e+00  9.7197568810164312e-03 1.9447413705221504e-04 0.0000000000000000e+00  4.3969969224167188e-03 -2.6760817431468462e-05 0.0000000000000000e+00  4.2766782900698404e-03 -7.8448153748345102e-05 0.0000000000000000e+00  4.1050447200146811e-03 -8.3106679179079866e-05 0.0000000000000000e+00  3.8916445986100440e-03 -9.2663000201759416e-05 0.0000000000000000e+00  3.6765034404783624e-03 -1.0187850985470128e-04 0.0000000000000000e+00  3.4079263659048784e-03 -1.0975930507319921e-04 0.0000000000000000e+00  3.1985084938425928e-03 -1.7731181862259415e-04 0.0000000000000000e+00  2.9088217055479007e-03 -1.1847126739979160e-04 0.0000000000000000e+00  2.6828979822185583e-03 -2.3748450822719459e-04 0.0000000000000000e+00  2.4578990012783454e-03 -1.8774457016409660e-04 0.0000000000000000e+00  2.2034713213133750e-03 -1.4184655496592884e-04 0.0000000000000000e+00  1.8928097552756628e-03 -1.6013716013437562e-04 0.0000000000000000e+00  1.7293490105367820e-03 -2.0566343430002734e-04 0.0000000000000000e+00  1.3998406620877402e-03 -1.9492507776543245e-04 0.0000000000000000e+00  1.1648859896753151e-03 -1.7638565942544121e-04 0.0000000000000000e+00  9.6035959535737878e-04 -1.9949929464757718e-04 0.0000000000000000e+00  6.9913445757970624e-04 -1.8468852686962217e-04 0.0000000000000000e+00  5.0972849010424829e-04 -1.7563275500867865e-04 0.0000000000000000e+00  2.0303767939991213e-04 -1.6713590535100172e-04 0.0000000000000000e+00  3.8745788296617350e-05 -1.8397814052584926e-04 0.0000000000000000e+00  -2.9177362723166212e-04 -1.8779955310233677e-04 0.0000000000000000e+00  -4.6858039976273183e-04 -2.7490515043621496e-04 0.0000000000000000e+00  -6.7775967070481515e-04 -1.7001909890809958e-04 0.0000000000000000e+00  -9.3028614310569342e-04 -1.4228288069814560e-04 0.0000000000000000e+00  -1.2216562455093678e-03 -1.8910227930450744e-04 0.0000000000000000e+00  -1.4065769044701681e-03 -2.1872843169929389e-04 0.0000000000000000e+00  -1.6930512028741618e-03 -1.5361946283220932e-04 0.0000000000000000e+00  -1.9562895399972708e-03 -1.9238721250896518e-04 0.0000000000000000e+00  -2.1387959777686345e-03 -1.6194011038113702e-04 0.0000000000000000e+00  -2.4803605684111845e-03 -1.4408443288989041e-04 0.0000000000000000e+00  -2.6863911205958326e-03 -2.4311718923359765e-04 0.0000000000000000e+00  -2.9422580567559989e-03 -1.9893347632929967e-04 0.0000000000000000e+00  -3.1736923965300003e-03 -1.1229583456240448e-04 0.0000000000000000e+00  -3.4422482784064157e-03 -1.0298897816231303e-04 0.0000000000000000e+00  -3.6455410903684046e-03 -1.2521573095880377e-04 0.0000000000000000e+00  -3.9106025489434454e-03 -1.0212754596177575e-04 0.0000000000000000e+00  -4.1030128409299382e-03 -9.2451404433152332e-05 0.0000000000000000e+00  -4.2710246899398639e-03 -5.9631324194012001e-05 0.0000000000000000e+00  -4.4006483822157513e-03 -4.4163289857427452e-05 0.0000000000000000e+00  -4.4982764800424466e-03 1.6855482727191157e-06 0.0000000000000000e+00  -4.6002005064892078e-03 1.0978902973001745e-05 0.0000000000000000e+00  -4.7058025786040850e-03 -2.9929087742087310e-06 0.0000000000000000e+00  -4.9101152251801805e-03 1.4993623676786815e-05 0.0000000000000000e+00  -5.0721212392701521e-03 -4.5829838117386490e-06 0.0000000000000000e+00  -5.3218853677965859e-03 6.5701497083608770e-07 0.0000000000000000e+00  -5.5138642462271648e-03 -5.9306161639945362e-07 0.0000000000000000e+00  -5.7787247293195638e-03 3.0646703737245742e-05 0.0000000000000000e+00  -6.0666545456688134e-03 1.4472639736058908e-05 0.0000000000000000e+00  -6.3102159948734216e-03 -2.5721039042717115e-05 0.0000000000000000e+00  -6.5625300822270416e-03 2.8908856980251382e-05 0.0000000000000000e+00  -6.8938246369985188e-03 1.4106857550629681e-05 0.0000000000000000e+00  -7.1258801189613558e-03 -2.9185128532429109e-06 0.0000000000000000e+00  -7.3648708680071505e-03 6.5733737415230701e-05 0.0000000000000000e+00  -7.6810956434060140e-03 -1.3224769527885286e-05 0.0000000000000000e+00  -7.8813826313226549e-03 -1.5122584316168894e-05 0.0000000000000000e+00  -8.2080532855613921e-03 -2.7752085871541951e-05 0.0000000000000000e+00  -8.5216792961784107e-03 2.1982744953856063e-05 0.0000000000000000e+00  -8.8393467962557190e-03 2.4856066612439147e-05 0.0000000000000000e+00  -9.0140304670575135e-03 -1.1096545805162422e-05 0.0000000000000000e+00  -9.3613737673810121e-03 3.9404911007022184e-05 0.0000000000000000e+00  -9.5132228073418704e-03 -3.2890294900010924e-05 0.0000000000000000e+00  -9.6938843222126245e-03 5.2977863421429793e-06 0.0000000000000000e+00  -8.8107982306843118e-03 3.0187521075028663e-05 0.0000000000000000e+00  -7.7960808503616088e-03 5.3136762943962951e-05 0.0000000000000000e+00  -7.0399592452277419e-03 -5.1740259914918434e-05 0.0000000000000000e+00  -6.3142758775943386e-03 2.4355566178847268e-05 0.0000000000000000e+00  -5.7619559642190432e-03 -7.4000964798237039e-05 0.0000000000000000e+00  -5.1747830419413918e-03 -8.0343908300120894e-05 0.0000000000000000e+00  -4.6823508974674364e-03 -7.6718055828347214e-05 0.0000000000000000e+00  -4.1697681881954583e-03 -2.3417824048848146e-05 0.0000000000000000e+00  -3.7644469975493975e-03 -2.8117244933051158e-05 0.0000000000000000e+00  -3.3186076197626200e-03 -8.0221245894172431e-05 0.0000000000000000e+00  -2.9128384845884992e-03 -7.7131881214089835e-05 0.0000000000000000e+00  -2.5606426356114555e-03 -7.1926278126990841e-05 0.0000000000000000e+00  -2.1777759454915508e-03 -8.5712404530298970e-05 0.0000000000000000e+00  -1.8828568057260679e-03 -5.1301297706119802e-05 0.0000000000000000e+00  -1.5211397044982086e-03 -6.6953621565889342e-05 0.0000000000000000e+00  -1.1949389564879776e-03 -8.1904331806271959e-05 0.0000000000000000e+00  -9.0928756767868102e-04 -7.1572659097250178e-05 0.0000000000000000e+00  -5.8297832237086194e-04 -6.0385928294725098e-05 0.0000000000000000e+00  -3.1001337623806570e-04 -5.6174819874356118e-05 0.0000000000000000e+00  1.1636585084118536e-05 -6.6776460325382154e-05 0.0000000000000000e+00  2.9505507695131214e-04 -9.1268125089911663e-05 0.0000000000000000e+00  5.8743307230289961e-04 -7.7146164880099316e-05 0.0000000000000000e+00  9.1739711121581274e-04 -7.2410899109479922e-05 0.0000000000000000e+00  1.1722649053789566e-03 -6.7835058213066126e-05 0.0000000000000000e+00  1.5211316652307991e-03 -1.1294626208476821e-04 0.0000000000000000e+00  1.8943862913667231e-03 -4.2225735068467164e-05 0.0000000000000000e+00  2.1836819828397378e-03 -6.7677649650691623e-05 0.0000000000000000e+00  2.5751140416587969e-03 -1.9722654811477050e-05 0.0000000000000000e+00  2.8962553316755927e-03 -9.4645042525959817e-05 0.0000000000000000e+00  3.3262142904123726e-03 -8.7753296880767337e-05 0.0000000000000000e+00  3.7457945342012438e-03 -4.0144895230938148e-05 0.0000000000000000e+00  4.2095552186956625e-03 -7.6758239000311417e-05 0.0000000000000000e+00  4.6703947602292090e-03 2.3636530698709716e-06 0.0000000000000000e+00  5.1266385388597365e-03 -7.9391931419750287e-05 0.0000000000000000e+00  5.7673504272505198e-03 -7.2897169533742612e-05 0.0000000000000000e+00  6.3710196215703962e-03 -1.4559701037445336e-05 0.0000000000000000e+00  7.0282107062098233e-03 1.3698032387756742e-05 0.0000000000000000e+00  7.8200174090813680e-03 5.2260258108711099e-05 0.0000000000000000e+00  8.8431249652580670e-03 5.3444205199971149e-05 0.0000000000000000e+00  9.6669807853844957e-03 5.0377059443719060e-08 0.0000000000000000e+00  9.5009864334086556e-03 -1.6932077485536389e-05 0.0000000000000000e+00  9.3161247387066118e-03 2.9734866319752968e-05 0.0000000000000000e+00  9.0128709299609339e-03 -1.8219301081610963e-05 0.0000000000000000e+00  8.8147166808413644e-03 1.4491822316900565e-05 0.0000000000000000e+00  8.5071665921686492e-03 -1.6153497622289413e-05 0.0000000000000000e+00  8.2857538223599092e-03 3.4085822792065481e-05 0.0000000000000000e+00  7.9829519454646704e-03 1.7036585666057400e-05 0.0000000000000000e+00  7.6700548797312739e-03 -3.3654162137700171e-05 0.0000000000000000e+00  7.4191955087189992e-03 -1.3812196360307529e-06 0.0000000000000000e+00  7.1344826291746552e-03 6.2750262041546835e-05 0.0000000000000000e+00  6.8529230696726673e-03 -7.3827779320813379e-06 0.0000000000000000e+00  6.6167589446127746e-03 1.9818667047167968e-05 0.0000000000000000e+00  6.3322037838417647e-03 3.3245486570088302e-05 0.0000000000000000e+00  6.0600492874647296e-03 -3.3425836610590564e-05 0.0000000000000000e+00  5.8202010351988825e-03 3.3279277945206596e-05 0.0000000000000000e+00  5.5016872336591935e-03 -2.0565413767539512e-05 0.0000000000000000e+00  5.2867888498291053e-03 2.1435455026426376e-05 0.0000000000000000e+00  5.0705740342568738e-03 -9.4962557990737379e-06 0.0000000000000000e+00  4.9137558195289843e-03 1.3885735755766247e-05 0.0000000000000000e+00  4.7070839864919896e-03 -6.5356693798112881e-06 0.0000000000000000e+00  4.6139738486143528e-03 1.0259397067796502e-05 0.0000000000000000e+00  4.4928969284289281e-03 5.4920935977513613e-06 0.0000000000000000e+00  3.4738358597325328e-03 -1.8953278744442813e-03 0.0000000000000000e+00  -3.5343995404639021e-03 -1.8920467691457097e-03 0.0000000000000000e+00  -7.4627085336987308e-04 -2.3467322322266075e-03 0.0000000000000000e+00  1.2659023180775614e-03 -2.1911866838020557e-03 0.0000000000000000e+00  5.4290342160495872e-03 -1.2254725761834580e-03 0.0000000000000000e+00  -4.2729528627078704e-03 -1.2240374396208697e-03 0.0000000000000000e+00  4.2433702862381944e-03 -1.1205158161329296e-03 0.0000000000000000e+00  -5.6993792240882593e-03 -1.0882347171255180e-03 0.0000000000000000e+00  -1.9045533501828231e-03 -2.0460302451516719e-03 0.0000000000000000e+00  3.9906684785393718e-04 -2.1959893557471481e-03 0.0000000000000000e+00  -2.1100391141384263e-03 -1.7414098185423127e-03 0.0000000000000000e+00  1.7991310117479852e-03 -2.0107323809989285e-03 0.0000000000000000e+00  2.7135701516547879e-03 -1.6477831821039947e-03 0.0000000000000000e+00  3.0479334189940085e-05 -1.7390454806692072e-03 0.0000000000000000e+00  -5.3978694045783487e-03 -1.1715928173627814e-03 0.0000000000000000e+00  5.2381785898961662e-03 -1.1754092227568504e-03 0.0000000000000000e+00  -7.8241959314419003e-04 -1.9295558254095481e-03 0.0000000000000000e+00  -3.6441056556650525e-03 -1.3487669080948085e-03 0.0000000000000000e+00  2.8999350837367456e-03 -1.5201543641437877e-03 0.0000000000000000e+00  -2.9088255102778359e-03 -1.5188083131360728e-03 0.0000000000000000e+00  -1.0209903038184401e-03 -1.3605186702294525e-03 0.0000000000000000e+00  6.7728681100109791e-03 -6.8041692943436507e-04 0.0000000000000000e+00  -4.4284638357521633e-03 -6.0201437785646346e-04 0.0000000000000000e+00  1.6435697139141315e-03 -1.3070808454194883e-03 0.0000000000000000e+00  2.3369416644525996e-03 -2.1739363025213279e-03 0.0000000000000000e+00  2.7669186702782743e-04 -2.3601162931784279e-03 0.0000000000000000e+00  4.1420805974933588e-03 -1.1283073682110242e-03 0.0000000000000000e+00  -2.3253099558793707e-03 -2.1762672822394323e-03 0.0000000000000000e+00  1.0923635807802191e-03 -1.6530688396723160e-03 0.0000000000000000e+00  -7.0913830651324426e-03 -6.4058213472220063e-04 0.0000000000000000e+00  4.5044696373228990e-03 -5.7518305879139455e-04 0.0000000000000000e+00  5.1592860959197781e-03 -7.4928541005855052e-04 0.0000000000000000e+00  -6.6469444445661574e-03 -7.6670100760722968e-04 0.0000000000000000e+00  6.4152463490224337e-03 -8.0237937520041846e-04 0.0000000000000000e+00  -5.3283954419826732e-03 -7.9391579169156806e-04 0.0000000000000000e+00  1.1864435677932299e-03 -2.3165349745228356e-03 0.0000000000000000e+00  -4.1399633893842434e-05 -1.5369474219885492e-03 0.0000000000000000e+00  -1.3752635541719937e-03 -1.4593543343136095e-03 0.0000000000000000e+00  -3.5234696792514489e-03 -9.8682827650044768e-04 0.0000000000000000e+00  4.0605885214235089e-03 -1.6412211609182572e-03 0.0000000000000000e+00  7.2015499474855043e-04 -1.1170847591878991e-03 0.0000000000000000e+00  -2.7021508800231507e-03 -1.0297728378402034e-03 0.0000000000000000e+00  2.1444383536027701e-03 -1.3610295804686839e-03 0.0000000000000000e+00  -2.8465095771820609e-03 -1.9852960810836885e-03 0.0000000000000000e+00  4.1721840487555948e-03 -1.5616657443221569e-03 0.0000000000000000e+00  -4.6630661018898251e-03 -1.5185137716987784e-03 0.0000000000000000e+00  -1.4980340360928564e-03 -2.3035792842192090e-03 0.0000000000000000e+00  -2.1278951224041921e-03 -1.3589814053370551e-03 0.0000000000000000e+00  -4.2863628193934135e-03 -1.5796003421133249e-03 0.0000000000000000e+00  -2.4608532525768575e-04 -2.3399754911830641e-03 0.0000000000000000e+00  3.3994497473849340e-03 -9.9697193470226170e-04 0.0000000000000000e+00  -4.8016856466789395e-03 -8.2885892890034371e-04 0.0000000000000000e+00  -1.2668855036018492e-03 -2.0608759305623552e-03 0.0000000000000000e+00  2.7084659719710867e-03 -2.0314816601711251e-03 0.0000000000000000e+00  5.3818231972123159e-03 -7.3341304736962757e-04 0.0000000000000000e+00  -3.0254421561664159e-03 -1.8543956861232828e-03 0.0000000000000000e+00  -1.7268854100771810e-03 -1.0469400822986439e-03 0.0000000000000000e+00  -3.0480547680020631e-04 -1.0989023694617656e-03 0.0000000000000000e+00  4.5800213089370054e-03 -1.5658653693682836e-03 0.0000000000000000e+00  2.3609155139410381e-03 -1.0039555268320558e-03 0.0000000000000000e+00  8.0188295719707645e-04 -1.8583674177979155e-03 0.0000000000000000e+00  -4.5943745071225293e-04 -2.0410431534641010e-03 0.0000000000000000e+00  2.0320342134745608e-03 -1.9604615827962055e-03 0.0000000000000000e+00  -3.5365095713421561e-03 -1.6531533254841753e-03 0.0000000000000000e+00  3.0216657807763088e-03 -1.9676282038616219e-03 0.0000000000000000e+00  -5.0131909999308515e-03 -6.3151572471440505e-04 0.0000000000000000e+00  7.1109642763718325e-03 -6.3243792966505307e-04 0.0000000000000000e+00  -6.3008960505680413e-03 -6.2367533386192961e-04 0.0000000000000000e+00  6.0711164933106897e-03 -6.1835396035147909e-04 0.0000000000000000e+00  4.5441667234981793e-04 -1.2265538094503525e-03 0.0000000000000000e+00  3.3268423870794158e-03 -8.0258623223235194e-04 0.0000000000000000e+00  -5.9632961743376579e-03 -6.0713302204989526e-04 0.0000000000000000e+00  3.9005025392961240e-03 -6.6398489750659829e-04 0.0000000000000000e+00  -4.5001831463914550e-03 -1.3666456133972903e-03 0.0000000000000000e+00  3.5439490765778151e-03 -1.5584985246810425e-03 0.0000000000000000e+00  1.5228943497490087e-03 -1.1181207764578002e-03 0.0000000000000000e+00  -1.2770698585029060e-03 -2.1591332678021686e-03 0.0000000000000000e+00  -5.9468731011358238e-04 -1.1092894541483017e-03 0.0000000000000000e+00  7.8862341484390551e-03 -4.0235266321348698e-04 0.0000000000000000e+00  -4.3913688122104904e-03 -2.7422373614779206e-04 0.0000000000000000e+00  -8.1048297141263111e-03 -3.5285430038958283e-04 0.0000000000000000e+00  4.4535620395427279e-03 -2.4560970489512527e-04 0.0000000000000000e+00  2.6563734039913912e-03 -1.0228162823853926e-03 0.0000000000000000e+00  -3.5609776906316650e-03 -7.7772560845609741e-04 0.0000000000000000e+00  -7.4738257560788557e-03 -5.2558027949229746e-04 0.0000000000000000e+00  5.0232242677121664e-03 -4.9406895887784731e-04 0.0000000000000000e+00  -1.7767480995114220e-03 -2.1901252342610348e-03 0.0000000000000000e+00  -2.9507420120190924e-03 -9.0695157998659697e-04 0.0000000000000000e+00  -8.2524232506182046e-04 -2.3335342970473628e-03 0.0000000000000000e+00  1.7105023348435910e-03 -2.2695872154036597e-03 0.0000000000000000e+00  7.8890271673592762e-04 -2.3575605079010327e-03 0.0000000000000000e+00  -3.9205868649213422e-03 -5.8184295171986281e-04 0.0000000000000000e+00  4.6903785184839826e-03 -1.2409288165881533e-03 0.0000000000000000e+00  -5.5810588109887621e-03 -1.1850532109945128e-03 0.0000000000000000e+00  -2.4443018217605514e-03 -1.7813910276469204e-03 0.0000000000000000e+00  -4.8326349807057325e-03 -1.2790800677999847e-03 0.0000000000000000e+00  3.2175000115052771e-03 -1.8536079302476820e-03 0.0000000000000000e+00  5.4483091495519291e-03 -1.2383593842797479e-03 0.0000000000000000e+00  -3.7721067753298493e-03 -1.6852994987006460e-03 0.0000000000000000e+00  1.2898413118316884e-03 -7.6455970592129868e-04 0.0000000000000000e+00  3.6373299125309869e-03 -1.4755228085417730e-03 0.0000000000000000e+00  1.3206649220189428e-03 -2.0852935943830322e-03 0.0000000000000000e+00  2.2872990192859943e-04 -7.6562221435893965e-04 0.0000000000000000e+00  -2.9339821542208803e-03 -1.5077361040377591e-03 0.0000000000000000e+00  2.4007841855523608e-03 -1.7954101796047123e-03 0.0000000000000000e+00  -1.2468215756558318e-03 -7.4783816043346666e-04 0.0000000000000000e+00  -1.6109082988938919e-03 -1.6096359917893153e-03 0.0000000000000000e+00  -1.8882541267348774e-04 -2.3765434949263200e-03 0.0000000000000000e+00  -4.0288866500537744e-03 -9.8175520638317786e-04 0.0000000000000000e+00  -5.0688759997516767e-04 -1.6142284063071514e-03 0.0000000000000000e+00  1.7243205197100175e-04 -2.3818516434213240e-03 0.0000000000000000e+00  -1.3631026674691963e-07 -2.1996137944933106e-03 0.0000000000000000e+00  -4.7240317539339518e-03 -3.2494072874541077e-04 0.0000000000000000e+00  7.9609825942610710e-03 -4.2859274674021507e-04 0.0000000000000000e+00  4.6828227346764027e-03 -1.3072237362097420e-03 0.0000000000000000e+00  4.4971582064343993e-03 -6.2652626108159284e-04 0.0000000000000000e+00  1.3327741935908158e-03 -1.7995906846951530e-03 0.0000000000000000e+00  1.7456048931039551e-03 -2.2291350627152164e-03 0.0000000000000000e+00  2.8275895229820502e-03 -2.0851977342784740e-03 0.0000000000000000e+00  6.3042594509040489e-03 -4.3386367841451845e-04 0.0000000000000000e+00  2.1274171261590051e-03 -1.5266995001552998e-03 0.0000000000000000e+00  -1.0032418613251934e-03 -1.0154043943946414e-03 0.0000000000000000e+00  6.1535474203164835e-03 -9.7489314950625298e-04 0.0000000000000000e+00  -4.7602232706281796e-03 -9.3047913084122707e-04 0.0000000000000000e+00  -3.2917035409954506e-05 -2.0888003275537463e-03 0.0000000000000000e+00  -3.3536397724909339e-03 -1.8757219461045169e-03 0.0000000000000000e+00  -6.5067259927855973e-03 -8.4768294210274921e-04 0.0000000000000000e+00  4.6602395272080611e-03 -8.8334606024661143e-04 0.0000000000000000e+00  1.8745854661347491e-03 -6.5306045994138707e-04 0.0000000000000000e+00  -2.2962585139346776e-03 -2.1559420272340164e-03 0.0000000000000000e+00  -2.8816496501831504e-03 -2.0608999225390492e-03 0.0000000000000000e+00  -1.7204857685793502e-03 -1.0419436735970009e-03 0.0000000000000000e+00  5.8264133313184778e-03 -9.4776724200789774e-04 0.0000000000000000e+00  6.1635766379433340e-04 -2.1997383443731417e-03 0.0000000000000000e+00  -5.9637563125845353e-03 -4.4384967293746862e-04 0.0000000000000000e+00  6.7896065854257349e-03 -4.5985187068272145e-04 0.0000000000000000e+00  -6.9156983368219302e-03 -4.7877047865059333e-04 0.0000000000000000e+00  5.7756555632567192e-03 -4.7423836953839168e-04 0.0000000000000000e+00  -2.5138160353226596e-03 -7.9818218511252398e-04 0.0000000000000000e+00  7.2401305396786559e-03 -4.4531788823686761e-04 0.0000000000000000e+00  -5.5809445499506701e-03 -4.1816556308016108e-04 0.0000000000000000e+00  8.3379895930595852e-04 -2.0687587205853704e-03 0.0000000000000000e+00  -2.3582303024014270e-03 -2.0057105588348139e-03 0.0000000000000000e+00  -1.2217972719926881e-03 -2.2805076666138268e-03 0.0000000000000000e+00  6.7373119103540104e-04 -2.3573469202052958e-03 0.0000000000000000e+00  -3.6803702088502978e-03 -1.3314393958212202e-03 0.0000000000000000e+00  9.4151439961898792e-04 -1.0037157868721463e-03 0.0000000000000000e+00  -1.8534034091968377e-03 -1.6557225058280516e-03 0.0000000000000000e+00  -2.3007135794721545e-03 -6.2896153806046959e-04 0.0000000000000000e+00  -8.0749538243493051e-03 -3.7594476695104457e-04 0.0000000000000000e+00  4.7822607144283932e-03 -3.0868515027896202e-04 0.