<?xml version="1.0"?>
<VTKFile type="UnstructuredGrid"  version="0.1"  >
<UnstructuredGrid>
<Piece  NumberOfPoints="1855" NumberOfCells="3532">
<Points>
<DataArray  type="Float64"  NumberOfComponents="3"  format="ascii">0 0 0  30 0 0  30 -10 0  0 -10 0  0.1391574078963744 0 0  0.2856388821882616 0 0  0.4398299073010886 0 0  0.6021362569539473 0 0  0.7729850389704483 0 0  0.9528258543586996 0 0  1.142131984380316 0 0  1.34140159760994 0 0  1.551159074717981 0 0  1.771956417032531 0 0  2.004374674080994 0 0  2.249025475789527 0 0  2.506552636773105 0 0  2.777633857742732 0 0  3.062982518028728 0 0  3.363349525995907 0 0  3.679525322337712 0 0  4.01234195575742 0 0  4.362675247811097 0 0  4.731447135329707 0 0  5.119628065610077 0 0  5.528239565804708 0 0  5.958356943167011 0 0  6.411112081475485 0 0  6.887696441559404 0 0  7.389364184530748 0 0  7.917435485335147 0 0  8.473300005202017 0 0  9.058420557070402 0 0  9.674336929103793 0 0  10.32266995225095 0 0  11.00512576896296 0 0  11.72350030646412 0 0  12.47968402994705 0 0  13.27566689579597 0 0  14.1135435963616 0 0  14.9955190732806 0 0  15.92391430904694 0 0  16.90117245730496 0 0  17.92986524844506 0 0  19.01269976086341 0 0  20.15252556282024 0 0  21.35234220269763 0 0  22.61530708683689 0 0  23.94474379751883 0 0  25.34415086349739 0 0  26.81721093579712 0 0  28.3678004819169 0 0  30 -1.111111111111111 0  30 -2.222222222222222 0  30 -3.333333333333333 0  30 -4.444444444444445 0  30 -5.555555555555555 0  30 -6.666666666666666 0  30 -7.777777777777777 0  30 -8.888888888888889 0  28.36780047917311 -10 0  26.8172109305839 -10 0  25.34415085606858 -10 0  23.94474378810899 -10 0  22.61530707566275 -10 0  21.3523421899591 -10 0  20.15252554870171 -10 0  19.01269974553473 -10 0  17.92986523206254 -10 0  16.90117244001232 -10 0  15.92391429097614 -10 0  14.99551905455266 -10 0  14.11354357708742 -10 0  13.27566687607703 -10 0  12.47968400987599 -10 0  11.72350028612546 -10 0  11.00512574843363 -10 0  10.32266993160086 -10 0  9.674336908396342 -10 0  9.058420536362949 -10 0  8.473299984546333 -10 0  7.917435464777824 -10 0  7.389364164113587 -10 0  6.887696420787165 -10 0  6.411112061446698 -10 0  5.95835692337857 -10 0  5.528239546282652 -10 0  5.119628046377237 -10 0  4.731447115907979 -10 0  4.362675229213632 -10 0  4.012341937260036 -10 0  3.679525304434552 -10 0  3.363349508456405 -10 0  3.062982500861274 -10 0  2.777633840953978 -10 0  2.506552620368097 -10 0  2.249025459771861 -10 0  2.004374658452946 -10 0  1.771956401795187 -10 0  1.551159059871345 -10 0  1.341401583153029 -10 0  1.142131970307521 -10 0  0.9528258406748833 -10 0  0.7729850256685147 -10 0  0.6021362439621285 -10 0  0.4398298947504031 -10 0  0.2856388700059078 -10 0  0.1391573960769001 -10 0  0 -9.855072463768115 0  0 -9.710144927536232 0  0 -9.565217391304348 0  0 -9.420289855072463 0  0 -9.27536231884058 0  0 -9.130434782608695 0  0 -8.985507246376812 0  0 -8.840579710144928 0  0 -8.695652173913043 0  0 -8.55072463768116 0  0 -8.405797101449275 0  0 -8.260869565217391 0  0 -8.115942028985508 0  0 -7.971014492753623 0  0 -7.826086956521739 0  0 -7.681159420289855 0  0 -7.536231884057971 0  0 -7.391304347826087 0  0 -7.246376811594203 0  0 -7.101449275362318 0  0 -6.956521739130435 0  0 -6.811594202898551 0  0 -6.666666666666667 0  0 -6.521739130434783 0  0 -6.376811594202898 0  0 -6.231884057971015 0  0 -6.086956521739131 0  0 -5.942028985507246 0  0 -5.797101449275362 0  0 -5.652173913043478 0  0 -5.507246376811594 0  0 -5.36231884057971 0  0 -5.217391304347826 0  0 -5.072463768115941 0  0 -4.927536231884058 0  0 -4.782608695652174 0  0 -4.637681159420289 0  0 -4.492753623188406 0  0 -4.347826086956522 0  0 -4.202898550724638 0  0 -4.057971014492754 0  0 -3.913043478260869 0  0 -3.768115942028985 0  0 -3.623188405797101 0  0 -3.478260869565217 0  0 -3.333333333333334 0  0 -3.188405797101449 0  0 -3.043478260869565 0  0 -2.898550724637681 0  0 -2.753623188405797 0  0 -2.608695652173912 0  0 -2.463768115942029 0  0 -2.318840579710145 0  0 -2.173913043478261 0  0 -2.028985507246377 0  0 -1.884057971014492 0  0 -1.739130434782609 0  0 -1.594202898550725 0  0 -1.44927536231884 0  0 -1.304347826086957 0  0 -1.159420289855072 0  0 -1.014492753623188 0  0 -0.8695652173913047 0  0 -0.72463768115942 0  0 -0.579710144927537 0  0 -0.4347826086956523 0  0 -0.2898550724637676 0  0 -0.1449275362318829 0  5.15859856094262 -4.976557621770688 0  2.816777084926057 -7.160262673925935 0  2.81677708460006 -2.839737326002783 0  2.227649803257325 -5.003121586636773 0  1.518662968975629 -8.46230852045241 0  1.518662969184829 -1.537691480152612 0  9.960740911025725 -5.055901393541221 0  1.491099662214591 -3.691833922963321 0  1.503675657181264 -6.345020369042368 0  5.319208041801049 -7.493850249937013 0  5.291109955459268 -2.489368743223226 0  1.096914507335763 -2.53623188405797 0  1.096914507253562 -7.463768115942029 0  1.089580194952752 -4.71277167923441 0  15.07565076110197 -5.047572991082069 0  7.501630508673601 -5.937500100385354 0  0.8894869418764504 -5.623930488933245 0  2.955144522453978 -1.440834296472408 0  2.955144521140721 -8.559165705576945 0  8.106603955004623 -2.748811534843258 0  3.662152539483591 -4.228178367024407 0  3.662181528265114 -5.771746159989156 0  0.8436558190317136 -0.8541050638451999 0  0.8436558075840921 -9.145894948342754 0  0.7854168197005933 -1.811594202898552 0  0.7894693398152999 -3.286543351392342 0  0.7854168196772591 -8.188405797101449 0  0.7854168196772591 -6.739130434782609 0  20.00078956016804 -4.999999999785771 0  0.7379120031523989 -3.977302749614766 0  6.584332478112232 -3.934875417052907 0  7.295091310194352 -7.969791332537982 0  9.811174303464586 -7.412814499648229 0  4.013376806449688 -2.206189431585293 0  4.013376806983409 -7.793810569017377 0  12.11177433894592 -2.818343737884045 0  2.591152707837148 -3.990098461753838 0  2.58990939378082 -6.025895074707176 0  25.43156400064585 -5.044446479916348 0  2.03262751726143 -2.282125834846944 0  2.032627517335952 -7.717874165160392 0  12.51865094522923 -6.491408052923457 0  0.598175343983641 -6.156971652625402 0  2.126700074935224 -0.8767654465386991 0  2.126700059112423 -9.123234559633019 0  6.617961838548696 -1.617756429129908 0  0.5903949564549755 -4.980060355019413 0  1.676697585305984 -5.547101897225158 0  4.773518305133987 -3.729331162566817 0  4.77931803486508 -6.231222307502165 0  4.878549698409591 -8.72048903376362 0  4.852580875634024 -1.222215410052823 0  0.5487847095754042 -2.675169258708207 0  0.545113423825768 -7.32369553390529 0  1.78738026998851 -4.400451872599477 0  1.68244194111824 -3.010100184333533 0  1.683984276238402 -7.018293626028473 0  9.998503440677371 -2.00585287985007 0  3.693061162502273 -3.243678395563028 0  3.694987482168253 -6.757603268814477 0  6.081763036485869 -5.83414381546261 0  0.5196640460586313 -1.350633211792632 0  0.5196640458460706 -8.649366789040087 0  3.84593363904758 -0.9906418103762418 0  3.845933620847308 -9.009358200471317 0  17.41551885287501 -3.057748733689079 0  17.30725517812527 -7.002961443761516 0  8.117698464370697 -4.451550942597151 0  0.4918476668493152 -0.4789811193757592 0  0.4918476560347713 -9.521018882514893 0  1.463770869328428 -0.6252343353791154 0  1.463770854281917 -9.374765668872765 0  0.5034132782032188 -4.464280853772128 0  3.138906271796685 -4.99999841599503 0  14.61209972381335 -2.388610981020637 0  6.208601124947327 -8.776231214192325 0  14.74910972998159 -7.542186851303819 0  2.243794246335625 -1.632184311040998 0  2.243794245689214 -8.367815689183566 0  0.4590235278399923 -5.431413993025926 0  0.4971508861448406 -2.209632053221267 0  0.4971508861368665 -7.790367946777407 0  0.4644363683211541 -3.560571347760519 0  6.478811279411406 -7.007392971062433 0  1.238895267772762 -4.173677632458826 0  1.293241773632479 -2.02256720952064 0  1.293241773542714 -7.977432790434841 0  0.4324740478030531 -0.942028985507247 0  0.4324740423701829 -9.057971014492754 0  2.117396640811705 -3.472968170680347 0  2.107095929630507 -6.531506384346077 0  8.087741545730886 -1.392783601483453 0  1.028911946384717 -1.352376108341404 0  1.028911946221715 -8.647623891551962 0  4.05691976296832 -4.991522392209158 0  11.51826881314265 -8.065248940008736 0  1.618560396201739 -4.958056164503666 0  2.701984523487646 -2.141781914603403 0  2.70198452396172 -7.858218085853512 0  2.843615645746219 -9.289121726447632 0  2.843615661334342 -0.7108782798429658 0  8.678774612240533 -8.488146490452822 0  6.487906449371135 -2.667543558824978 0  8.369190916679937 -7.129867754908394 0  11.80978191929258 -4.655775487536958 0  0.3792065166453504 -3.113833531412848 0  0.4134714637263563 -6.58827691137208 0  9.551050695080825 -3.49648183875815 0  1.083867845277057 -6.036251777836495 0  0.3756430921870901 -1.80381664325008 0  0.3756430921689482 -8.196183356748573 0  3.113073783220456 -3.503408140759125 0  3.113391383189963 -6.496678880796299 0  22.62850736315072 -3.277987336300344 0  22.59385352108348 -6.800312122582239 0  0.3777114402537816 -4.137047872695438 0  0.9196816123347897 -0.4281025456111269 0  0.9196815944880363 -9.571897460530383 0  0.4052043328723194 -5.827814332459883 0  8.865857694874787 -5.767686953139113 0  1.200388325130726 -5.182186034620629 0  5.65297436943758 -4.325500846767599 0  1.200079167961391 -3.009849046583253 0  1.20883344838 -7.021823297793294 0  1.057642414577487 -3.660996704809145 0  10.88812987788297 -6.333458225047037 0  4.493502926606794 -2.839780197438185 0  4.485862892033458 -7.147606077919463 0  0.3631651408878085 -7.003529808558233 0  1.946748828463205 -6.049056369468467 0  6.918750162798794 -4.993796052442676 0  3.351203216022585 -1.980935554775394 0  3.351203216441711 -8.019064445907297 0  2.281892243515294 -2.856654416292082 0  2.281892243715877 -7.143345583598931 0  5.811143619672087 -0.9953286820321026 0  2.695713766833098 -4.565354125099452 0  2.698172168139827 -5.435483248292925 0  19.86166219288896 -2.493475492328429 0  19.83739102036415 -7.594404063416508
[...]
<PointData  Vectors="flow"> 
<DataArray  type="Float64"  Name="flow"  NumberOfComponents="3" format="ascii">-3.2621581752398943e-14 -1.5254952186920313e-14 0.0000000000000000e+00  -2.4502484407182805e-24 -1.1458188353017193e-24 0.0000000000000000e+00  -9.3114911475823589e-25 -4.3543674038692195e-25 0.0000000000000000e+00  5.9755235621632889e-20 2.7943564148575710e-20 0.0000000000000000e+00  1.4992010585420932e-13 7.0107699375914279e-14 0.0000000000000000e+00  -7.4656258734113334e-13 -3.4911785274161320e-13 0.0000000000000000e+00  1.2987660507949519e-12 6.0734682202880371e-13 0.0000000000000000e+00  -7.7293245065339463e-12 -3.6144929047070454e-12 0.0000000000000000e+00  7.9294115523477986e-12 3.7080603576981282e-12 0.0000000000000000e+00  6.7733237299387240e-11 3.1674346888206800e-11 0.0000000000000000e+00  1.0784667025947782e-10 5.0432741453620872e-11 0.0000000000000000e+00  -5.3693938152603815e-10 -2.5109096961099778e-10 0.0000000000000000e+00  -1.8886544761044998e-09 -8.8319855086329228e-10 0.0000000000000000e+00  -2.5103003595062131e-09 -1.1739011385081022e-09 0.0000000000000000e+00  -8.0765329422152437e-09 -3.7768592830579128e-09 0.0000000000000000e+00  -1.8920868814683196e-09 -8.8480365941102316e-10 0.0000000000000000e+00  8.6188910288487546e-08 4.0304842219888838e-08 0.0000000000000000e+00  -1.6795868495983780e-07 -7.8543147536122074e-08 0.0000000000000000e+00  -3.2114010906285615e-07 -1.5017594935279262e-07 0.0000000000000000e+00  -3.1090724262303357e-07 -1.4539071577768719e-07 0.0000000000000000e+00  -7.4385303292988592e-08 -3.4785077368624144e-08 0.0000000000000000e+00  2.5986812084158099e-07 1.2152310051770139e-07 0.0000000000000000e+00  -2.9107352323481965e-07 -1.3611579945840895e-07 0.0000000000000000e+00  -9.4365938631486011e-08 -4.4128696542782101e-08 0.0000000000000000e+00  1.5338200468225198e-07 7.1726600062539244e-08 0.0000000000000000e+00  1.3371789084912758e-07 6.2530997022830206e-08 0.0000000000000000e+00  2.2654572003961204e-07 1.0594042169955699e-07 0.0000000000000000e+00  9.6441721061734148e-08 4.5099402438168722e-08 0.0000000000000000e+00  -6.7809996656658635e-08 -3.1710242153309551e-08 0.0000000000000000e+00  -3.6152487236780482e-09 -1.6906122714137747e-09 0.0000000000000000e+00  -8.1960277981143934e-10 -3.8327391090933397e-10 0.0000000000000000e+00  -2.3189514459759184e-10 -1.0844199309725689e-10 0.0000000000000000e+00  1.5461101534334951e-10 7.2301326910996874e-11 0.0000000000000000e+00  1.0640314011738391e-11 4.9757698058571870e-12 0.0000000000000000e+00  2.3968961102829982e-12 1.1208694856341061e-12 0.0000000000000000e+00  -7.2938641589870049e-13 -3.4108569549990003e-13 0.0000000000000000e+00  2.1930821009836533e-13 1.0255591787800473e-13 0.0000000000000000e+00  -4.1848801059200566e-14 -1.9569911234947989e-14 0.0000000000000000e+00  7.8351855227996029e-15 3.6639970873628413e-15 0.0000000000000000e+00  8.1058902549093585e-16 3.7905877529060306e-16 0.0000000000000000e+00  -2.8894710184722033e-16 -1.3512141307815062e-16 0.0000000000000000e+00  1.6918392034249629e-16 7.9116108937014653e-17 0.0000000000000000e+00  -3.9693167716904807e-17 -1.8561864359145156e-17 0.0000000000000000e+00  8.8115371357497700e-18 4.1205720409081934e-18 0.0000000000000000e+00  -8.4851910953441138e-19 -3.9679616224261709e-19 0.0000000000000000e+00  1.9566418932251468e-19 9.1499176081122941e-20 0.0000000000000000e+00  -2.4723776134032103e-20 -1.1561671830246157e-20 0.0000000000000000e+00  4.1580588818131938e-21 1.9444486142305248e-21 0.0000000000000000e+00  7.3915038785373503e-23 3.4565165819475163e-23 0.0000000000000000e+00  4.9852736646374921e-23 2.3312821545560277e-23 0.0000000000000000e+00  -5.0416600203915749e-23 -2.3576503168221025e-23 0.0000000000000000e+00  1.1728376292301157e-23 5.4845844363787609e-24 0.0000000000000000e+00  1.1095616696473174e-24 5.1886847018583432e-25 0.0000000000000000e+00  -9.7583299806320262e-26 -4.5633243172761162e-26 0.0000000000000000e+00  3.0366925368533439e-25 1.4200598796123389e-25 0.0000000000000000e+00  -3.9508033574828461e-25 -1.8475289388410229e-25 0.0000000000000000e+00  -9.8509767667049689e-26 -4.6066490800831986e-26 0.0000000000000000e+00  3.0891763584279346e-25 1.4446030852356624e-25 0.0000000000000000e+00  -3.4858037175155033e-26 -1.6300794194253807e-26 0.0000000000000000e+00  4.5923649631390733e-25 2.1475447901119312e-25 0.0000000000000000e+00  4.5823417653066240e-24 2.1428576046512557e-24 0.0000000000000000e+00  -1.8938734495099114e-23 -8.8563911890100138e-24 0.0000000000000000e+00  3.4291299540284645e-23 1.6035768556070590e-23 0.0000000000000000e+00  3.6620841595477673e-22 1.7125141013210206e-22 0.0000000000000000e+00  -4.7553372350795661e-21 -2.2237561226927996e-21 0.0000000000000000e+00  2.5470342259381493e-20 1.1910791337479774e-20 0.0000000000000000e+00  -1.3484794437482709e-19 -6.3059448176243196e-20 0.0000000000000000e+00  3.0953826283781204e-19 1.4475053464462842e-19 0.0000000000000000e+00  -3.0409570795747442e-18 -1.4220541236624181e-18 0.0000000000000000e+00  7.6001317515253515e-18 3.5540780138684776e-18 0.0000000000000000e+00  -6.0848878135916353e-17 -2.8454988284646373e-17 0.0000000000000000e+00  1.6165245891519127e-16 7.5594143483493098e-17 0.0000000000000000e+00  -4.0024797965998948e-16 -1.8716945851884062e-16 0.0000000000000000e+00  -2.6452878686046416e-15 -1.2370258518576176e-15 0.0000000000000000e+00  6.0929881050707269e-15 2.8492867980410852e-15 0.0000000000000000e+00  -5.0346026682392202e-14 -2.3543500608606416e-14 0.0000000000000000e+00  3.1569833875188692e-13 1.4763119396551206e-13 0.0000000000000000e+00  -1.1931140838066282e-12 -5.5794039786782926e-13 0.0000000000000000e+00  -2.2937521114793746e-12 -1.0726358720080219e-12 0.0000000000000000e+00  3.0195250215244485e-12 1.4120317702613432e-12 0.0000000000000000e+00  -1.0526159860389419e-11 -4.9223874734496028e-12 0.0000000000000000e+00  9.8712166082226503e-12 4.6161139128116222e-12 0.0000000000000000e+00  1.7810159811812278e-11 8.3286315922012785e-12 0.0000000000000000e+00  -8.7893743863355727e-12 -4.1102079915738970e-12 0.0000000000000000e+00  -1.2629881372903164e-11 -5.9061586262887106e-12 0.0000000000000000e+00  1.2813557218956367e-12 5.9920516486045425e-13 0.0000000000000000e+00  8.1268660552770433e-11 3.8003967448218588e-11 0.0000000000000000e+00  2.8566111609102078e-11 1.3358477527872642e-11 0.0000000000000000e+00  6.6296080223645861e-12 3.1002283753992939e-12 0.0000000000000000e+00  2.2882235167279214e-12 1.0700505145831629e-12 0.0000000000000000e+00  -1.8241280437961570e-12 -8.5302381417738810e-13 0.0000000000000000e+00  -2.5728761378251200e-12 -1.2031636835790191e-12 0.0000000000000000e+00  2.2531130217957560e-12 1.0536316626245201e-12 0.0000000000000000e+00  1.3059825242467582e-12 6.1072148847818237e-13 0.0000000000000000e+00  6.4088958013114842e-13 2.9970158946315201e-13 0.0000000000000000e+00  -5.1317484549384445e-13 -2.3997787081440732e-13 0.0000000000000000e+00  -4.8741084230278818e-15 -2.2792975371799108e-15 0.0000000000000000e+00  4.2753427674687169e-14 1.9992945159881676e-14 0.0000000000000000e+00  1.6910199630911949e-14 7.9077798495123263e-15 0.0000000000000000e+00  3.1409647690373432e-15 1.4688210932304723e-15 0.0000000000000000e+00  1.2688547988472922e-15 5.9335931149740736e-16 0.0000000000000000e+00  -1.1786252611234192e-16 -5.5116493556943808e-17 0.0000000000000000e+00  -1.9904438900569169e-16 -9.3079871491311268e-17 0.0000000000000000e+00  -9.2759931148461540e-18 -4.3377673261589633e-18 0.0000000000000000e+00  1.5318503149003922e-17 7.1634488752544459e-18 0.0000000000000000e+00  -2.3939048974889805e-18 -1.1194706936166043e-18 0.0000000000000000e+00  1.6728867681538591e-18 7.8229829123604950e-19 0.0000000000000000e+00  -4.1011092718560018e-19 -1.9178170552964736e-19 0.0000000000000000e+00  2.3202442846854918e-19 1.0850245059698682e-19 0.0000000000000000e+00  -6.3751279628556121e-19 -2.9812249141386098e-19 0.0000000000000000e+00  5.0401811812556652e-20 2.3569587617503639e-20 0.0000000000000000e+00  -4.6075809711599587e-18 -2.1546603088073864e-18 0.0000000000000000e+00  -4.1226198537531201e-18 -1.9278761290974628e-18 0.0000000000000000e+00  -1.9100946445822963e-16 -8.9322469697388989e-17 0.0000000000000000e+00  2.3560082179308885e-16 1.1017489277289295e-16 0.0000000000000000e+00  -2.8193882175218019e-16 -1.3184410486624709e-16 0.0000000000000000e+00  -1.0244652401483807e-15 -4.7907450884033502e-16 0.0000000000000000e+00  6.9542127252185280e-15 3.2520244856943502e-15 0.0000000000000000e+00  -2.2241579223285954e-14 -1.0400912812508729e-14 0.0000000000000000e+00  -4.7093833892501901e-14 -2.2022665540307587e-14 0.0000000000000000e+00  3.4093918865534359e-14 1.5943466693494078e-14 0.0000000000000000e+00  1.3355894466928684e-13 6.2456668426744139e-14 0.0000000000000000e+00  9.9272450957594255e-14 4.6423147238258051e-14 0.0000000000000000e+00  8.2346005298381206e-13 3.8507770197817370e-13 0.0000000000000000e+00  2.4018127508201672e-13 1.1231686726227753e-13 0.0000000000000000e+00  1.5166322758721742e-13 7.0922841906246275e-14 0.0000000000000000e+00  -1.9606458982249255e-11 -9.1686416863287661e-12 0.0000000000000000e+00  -1.7226695489725829e-11 -8.0557839907648856e-12 0.0000000000000000e+00  -7.4272954512749211e-12 -3.4732539288655917e-12 0.0000000000000000e+00  -2.0164697821933430e-11 -9.4296930011577173e-12 0.0000000000000000e+00  1.6105545880842019e-11 7.5314966092479229e-12 0.0000000000000000e+00  6.9372413501711129e-11 3.2440880981561897e-11 0.0000000000000000e+00  2.4157533538683738e-10 1.1296877689244620e-10 0.0000000000000000e+00  -6.0495444961158901e-10 -2.8289711008298454e-10 0.0000000000000000e+00  -6.3112522969563720e-09 -2.9513544977806111e-09 0.0000000000000000e+00  -7.1549919702504585e-09 -3.3459156343926510e-09 0.0000000000000000e+00  1.0624611554293590e-08 4.9684268069996642e-09 0.0000000000000000e+00  3.5817305998313207e-08 1.6749380658967647e-08 0.0000000000000000e+00  -7.0921055309021000e-09 -3.3165078137435342e-09 0.0000000000000000e+00  -5.1931617131020186e-08 -2.4284976195702321e-08 0.0000000000000000e+00  -9.6634915698759629e-09 -4.5189746768280100e-09 0.0000000000000000e+00  -6.5618074825504443e-08 -3.0685225555845965e-08 0.0000000000000000e+00  1.5839580244450257e-07 7.4071221047460999e-08 0.0000000000000000e+00  -5.9259807680901552e-07 -2.7711885329158437e-07 0.0000000000000000e+00  -8.3960900099218049e-09 -3.9262949488652145e-09 0.0000000000000000e+00  -5.2663902201212216e-07 -2.4627417399742131e-07 0.0000000000000000e+00  -9.8366593177221344e-08 -4.5999537579087610e-08 0.0000000000000000e+00  2.7348644984943855e-07 1.2789149060550883e-07 0.0000000000000000e+00  -3.3777544332152427e-07 -1.5795519288106694e-07 0.0000000000000000e+00  2.4692440107427295e-07 1.1547018047017202e-07 0.0000000000000000e+00  8.6717921412252810e-07 4.0552225668693951e-07 0.0000000000000000e+00  1.2939624536726529e-08 6.0510049795469004e-09 0.0000000000000000e+00  4.3515288239940658e-07 2.0349216863205414e-07 0.0000000000000000e+00  3.6926264261489622e-07 1.7267966955930448e-07 0.0000000000000000e+00  -8.0919838728394266e-10 -3.7840846594885679e-10 0.0000000000000000e+00  -7.5780643309075702e-08 -3.5437585434955210e-08 0.0000000000000000e+00  -5.4453714375988304e-08 -2.5464393955845826e-08 0.0000000000000000e+00  3.5514097128570930e-08 1.6607589962070226e-08 0.0000000000000000e+00  -1.5693943687833062e-08 -7.3390175375082007e-09 0.0000000000000000e+00  -8.8236479527785257e-09 -4.1262354675353900e-09 0.0000000000000000e+00  9.1220522410416570e-09 4.2657793800402236e-09 0.0000000000000000e+00  7.4097797701168095e-10 3.4650630054267343e-10 0.0000000000000000e+00  -3.6023262815769098e-11 -1.6845693015207781e-11 0.0000000000000000e+00  6.1107914949083886e-10 2.8576122637649707e-10 0.0000000000000000e+00  3.4677733030334431e-10 1.6216477893186041e-10 0.0000000000000000e+00  5.8133778869746036e-10 2.7185316268048783e-10 0.0000000000000000e+00  4.0426564424372163e-11 1.8904825402278518e-11 0.0000000000000000e+00  1.3624474990060807e-10 6.3712641564348779e-11 0.0000000000000000e+00  -7.9331442202984013e-11 -3.7098058791614538e-11 0.0000000000000000e+00  -2.4411688349671587e-11 -1.1415729053323858e-11 0.0000000000000000e+00  2.3372228289724255e-11 1.0929642460862904e-11 0.0000000000000000e+00  -4.0441506384134418e-13 -1.8911812766762517e-13 0.0000000000000000e+00  1.6814442850798699e-12 7.8630007485696393e-13 0.0000000000000000e+00  -5.4513486521062542e-14 -2.5492345427425075e-14 0.0000000000000000e+00  1.9841000100115929e-13 9.2783210257942710e-14 0.0000000000000000e+00  -9.4992965800890047e-14 -4.4421915601311059e-14 0.0000000000000000e+00  8.0904181251986850e-03 3.7833524630676010e-03 0.0000000000000000e+00  2.1946033789309166e-05 1.0262705796717828e-05 0.0000000000000000e+00  -1.0946092056211153e+01 -5.1187619355352005e+00 0.0000000000000000e+00  4.1481925276770664e+00 1.9398347741737023e+00 0.0000000000000000e+00  6.3524395853693329e-11 2.9706150633846209e-11 0.0000000000000000e+00  -2.8609050600448687e-05 -1.3378557248865905e-05 0.0000000000000000e+00  3.4943275614402515e-11 1.6340654564148947e-11 0.0000000000000000e+00  -1.1600379207357248e-01 -5.4247286812009320e-02 0.0000000000000000e+00  -7.8015979344815819e-05 -3.6482903979155062e-05 0.0000000000000000e+00  -1.1748627885749006e-06 -5.4940547647061875e-07 0.0000000000000000e+00  -1.6809365827285257e-03 -7.8606265610903984e-04 0.0000000000000000e+00  -8.9677225058933524e-06 -4.1936095892379933e-06 0.0000000000000000e+00  9.1646670215751114e-09 4.2857074891192998e-09 0.0000000000000000e+00  5.9849032684056109e-03 2.7987426819411276e-03 0.0000000000000000e+00  -9.3881734824926425e-16 -4.3902266507174211e-16 0.0000000000000000e+00  -1.9433016663858096e-07 -9.0875342067979550e-08 0.0000000000000000e+00  7.8826583914541672e-05 3.6861970023454368e-05 0.0000000000000000e+00  -1.7216304808980356e-03 -8.0509249578962570e-04 0.0000000000000000e+00  6.8503257660667333e-09 3.2034434387440903e-09 0.0000000000000000e+00  4.0192589706706858e-08 1.8795410930655807e-08 0.0000000000000000e+00  -9.8151873916634798e+01 -4.5899127608819484e+01 0.0000000000000000e+00  1.7716522298416613e-02 8.2848435318737430e-03 0.0000000000000000e+00  3.9211852047945832e-09 1.8336784914116502e-09 0.0000000000000000e+00  -8.8465711430198087e-15 -4.1369551246555314e-15 0.0000000000000000e+00  -7.2626262535028919e-07 -3.3962490565164396e-07 0.0000000000000000e+00  -2.4367926743497871e-04 -1.1395264649884747e-04 0.0000000000000000e+00  1.0413894568067848e-11 4.8698884352479837e-12 0.0000000000000000e+00  6.1103505971196370e-09 2.8574060850843155e-09 0.0000000000000000e+00  -1.4925827257498844e-19 -6.9798203806176124e-20 0.0000000000000000e+00  1.0382652255969673e-03 4.8552784760840195e-04 0.0000000000000000e+00  8.0988532139388670e-05 3.7872969951384415e-05 0.0000000000000000e+00  4.2923554954010268e-09 2.0072502415304292e-09 0.0000000000000000e+00  -2.5776426013125791e-11 -1.2053926427126934e-11 0.0000000000000000e+00  -1.6904098035638961e-03 -7.9049265377120976e-04 0.0000000000000000e+00  1.2853914682307595e-07 6.0109241600136329e-08 0.0000000000000000e+00  -8.4381249546445858e-13 -3.9459519071571901e-13 0.0000000000000000e+00  6.1965824869794631e+02 2.8977310260017634e+02 0.0000000000000000e+00  -4.1961672034155500e-04 -1.9622693510783061e-04 0.0000000000000000e+00  -1.0829159955118950e-22 -5.0640805401075883e-23 0.0000000000000000e+00  -2.1955516822601519e-02 -1.0267140383015932e-02 0.0000000000000000e+00  4.3559248050109357e-08 2.0369773953519435e-08 0.0000000000000000e+00  4.3451409245090108e-14 2.0319344890117482e-14 0.0000000000000000e+00  2.8890696226972298e-07 1.3510264245751697e-07 0.0000000000000000e+00  -1.7915479147133213e-06 -8.3778824665725233e-07 0.0000000000000000e+00  6.5029256020878595e-12 3.0409874017729123e-12 0.0000000000000000e+00  -4.1752752030712427e-06 -1.9524995468805536e-06 0.0000000000000000e+00  9.2738547371001581e-06 4.3367673485821694e-06 0.0000000000000000e+00  2.3319194262646099e-04 1.0904841960583908e-04 0.0000000000000000e+00  -4.0556464972718692e-01 -1.8965571281160676e-01 0.0000000000000000e+00  -8.5352862929243333e-06 -3.9913878268841983e-06 0.0000000000000000e+00  1.9692965802399233e-10 9.2090951939253118e-11 0.0000000000000000e+00  5.5739501140261602e-06 2.6065671225612946e-06 0.0000000000000000e+00  -1.4618552068454774e-06 -6.8361281356285912e-07 0.0000000000000000e+00  -9.6240475212798579e-10 -4.5005293089743129e-10 0.0000000000000000e+00  4.8230409778947783e+00 2.2554166769651394e+00 0.0000000000000000e+00  3.7774143927969829e-02 1.7664464093027962e-02 0.0000000000000000e+00  -3.5874445483038177e-07 -1.6776101009748862e-07 0.0000000000000000e+00  -4.5221926015333770e-11 -2.1147298264089660e-11 0.0000000000000000e+00  -1.3057223003868767e+01 -6.1059979902208825e+00 0.0000000000000000e+00  -5.7002210086194242e-06 -2.6656156528944490e-06 0.0000000000000000e+00  6.0756688634094076e-05 2.8411877363382374e-05 0.0000000000000000e+00  -1.1154431252187093e-08 -5.2161883723461881e-09 0.0000000000000000e+00  1.2290528276067020e-13 5.7474656693986625e-14 0.0000000000000000e+00  -8.7281065877831859e-06 -4.0815571019692710e-06 0.0000000000000000e+00  -2.2106336288425943e-10 -1.0337668653455774e-10 0.0000000000000000e+00  4.2325746278543136e-17 1.9792946910289424e-17 0.0000000000000000e+00  -1.2856586829526528e-17 -6.0121737462038969e-18 0.0000000000000000e+00  -7.7722699313106940e-08 -3.6345756341892853e-08 0.0000000000000000e+00  1.5100576136427081e-11 7.0615388519351801e-12 0.0000000000000000e+00  -2.6635732013740204e-17 -1.2455766903557613e-17 0.0000000000000000e+00  -4.6178598576711141e-08 -2.1594670629204230e-08 0.0000000000000000e+00  1.2514925735430106e-13 5.8524014919296591e-14 0.0000000000000000e+00  1.6893085256530160e-05 7.8997765906610323e-06 0.0000000000000000e+00  -4.8971462469370115e+00 -2.2900708008705513e+00 0.0000000000000000e+00  -1.4132374002424068e-15 -6.6087748696858174e-16 0.0000000000000000e+00  9.6453886400170991e-10 4.5105091360845794e-10 0.0000000000000000e+00  -2.5004604804552188e-16 -1.1692996790942920e-16 0.0000000000000000e+00  5.7699830729427781e-04 2.6982387477458456e-04 0.0000000000000000e+00  -1.2539868142365383e-09 -5.8640654028985571e-10 0.0000000000000000e+00  2.4187564727182739e-06 1.1310921286153729e-06 0.0000000000000000e+00  3.0875266745068156e-07 1.4438316373784943e-07 0.0000000000000000e+00  4.9143447624627937e-11 2.2981134069594618e-11 0.0000000000000000e+00  4.1666202082638252e-05 1.9484521793136661e-05 0.0000000000000000e+00  -2.5538707111180134e-07 -1.1942761048616694e-07 0.0000000000000000e+00  -6.7936944854381620e-02 -3.1769607413436374e-02 0.0000000000000000e+00  -6.5385528462047409e-05 -3.0576479030839741e-05 0.0000000000000000e+00  9.9396909936876025e-11 4.6481348455862835e-11 0.0000000000000000e+00  5.5106164019843186e-10 2.5769501421109880e-10 0.0000000000000000e+00  -2.6164725176245241e-15 -1.2235508215912289e-15 0.0000000000000000e+00  1.0592607947199873e+01 4.9534608406118474e+00 0.0000000000000000e+00  6.8819040353031727e-05 3.2182105028001471e-05 0.0000000000000000e+00  -8.3816664938330424e-09 -3.9195500261336152e-09 0.0000000000000000e+00  -3.7828487342792874e-07 -1.7689876907191613e-07 0.0000000000000000e+00  6.9294470657484819e-13 3.2404432278031654e-13 0.0000000000000000e+00  1.1064900068448842e+00 5.1743205703023765e-01 0.0000000000000000e+00  -5.2914080206148793e-13 -2.4744409075145695e-13 0.0000000000000000e+00  1.1638904427055725e-01 5.4427443736634114e-02 0.0000000000000000e+00  2.0038567043865984e-02 9.3707099940392464e-03 0.0000000000000000e+00  -3.3832030218957135e-08 -1.5820998726975628e-08 0.0000000000000000e+00  -7.8071148598569590e-12 -3.6508702983464328e-12 0.0000000000000000e+00  -6.7729257997115747e-06 -3.1672486032214184e-06 0.0000000000000000e+00  2.4633828913912391e-10 1.1519609475554452e-10 0.0000000000000000e+00  -2.7105388210142190e-05 -1.2675393985861093e-05 0.0000000000000000e+00  5.2906652106585738e-09 2.4740935445187042e-09 0.0000000000000000e+00  -2.0043768