<?xml version="1.0"?>
<VTKFile type="UnstructuredGrid"  version="0.1"  >
<UnstructuredGrid>
<Piece  NumberOfPoints="1855" NumberOfCells="3532">
<Points>
<DataArray  type="Float64"  NumberOfComponents="3"  format="ascii">0 0 0  30 0 0  30 -10 0  0 -10 0  0.1391574078963744 0 0  0.2856388821882616 0 0  0.4398299073010886 0 0  0.6021362569539473 0 0  0.7729850389704483 0 0  0.9528258543586996 0 0  1.142131984380316 0 0  1.34140159760994 0 0  1.551159074717981 0 0  1.771956417032531 0 0  2.004374674080994 0 0  2.249025475789527 0 0  2.506552636773105 0 0  2.777633857742732 0 0  3.062982518028728 0 0  3.363349525995907 0 0  3.679525322337712 0 0  4.01234195575742 0 0  4.362675247811097 0 0  4.731447135329707 0 0  5.119628065610077 0 0  5.528239565804708 0 0  5.958356943167011 0 0  6.411112081475485 0 0  6.887696441559404 0 0  7.389364184530748 0 0  7.917435485335147 0 0  8.473300005202017 0 0  9.058420557070402 0 0  9.674336929103793 0 0  10.32266995225095 0 0  11.00512576896296 0 0  11.72350030646412 0 0  12.47968402994705 0 0  13.27566689579597 0 0  14.1135435963616 0 0  14.9955190732806 0 0  15.92391430904694 0 0  16.90117245730496 0 0  17.92986524844506 0 0  19.01269976086341 0 0  20.15252556282024 0 0  21.35234220269763 0 0  22.61530708683689 0 0  23.94474379751883 0 0  25.34415086349739 0 0  26.81721093579712 0 0  28.3678004819169 0 0  30 -1.111111111111111 0  30 -2.222222222222222 0  30 -3.333333333333333 0  30 -4.444444444444445 0  30 -5.555555555555555 0  30 -6.666666666666666 0  30 -7.777777777777777 0  30 -8.888888888888889 0  28.36780047917311 -10 0  26.8172109305839 -10 0  25.34415085606858 -10 0  23.94474378810899 -10 0  22.61530707566275 -10 0  21.3523421899591 -10 0  20.15252554870171 -10 0  19.01269974553473 -10 0  17.92986523206254 -10 0  16.90117244001232 -10 0  15.92391429097614 -10 0  14.99551905455266 -10 0  14.11354357708742 -10 0  13.27566687607703 -10 0  12.47968400987599 -10 0  11.72350028612546 -10 0  11.00512574843363 -10 0  10.32266993160086 -10 0  9.674336908396342 -10 0  9.058420536362949 -10 0  8.473299984546333 -10 0  7.917435464777824 -10 0  7.389364164113587 -10 0  6.887696420787165 -10 0  6.411112061446698 -10 0  5.95835692337857 -10 0  5.528239546282652 -10 0  5.119628046377237 -10 0  4.731447115907979 -10 0  4.362675229213632 -10 0  4.012341937260036 -10 0  3.679525304434552 -10 0  3.363349508456405 -10 0  3.062982500861274 -10 0  2.777633840953978 -10 0  2.506552620368097 -10 0  2.249025459771861 -10 0  2.004374658452946 -10 0  1.771956401795187 -10 0  1.551159059871345 -10 0  1.341401583153029 -10 0  1.142131970307521 -10 0  0.9528258406748833 -10 0  0.7729850256685147 -10 0  0.6021362439621285 -10 0  0.4398298947504031 -10 0  0.2856388700059078 -10 0  0.1391573960769001 -10 0  0 -9.855072463768115 0  0 -9.710144927536232 0  0 -9.565217391304348 0  0 -9.420289855072463 0  0 -9.27536231884058 0  0 -9.130434782608695 0  0 -8.985507246376812 0  0 -8.840579710144928 0  0 -8.695652173913043 0  0 -8.55072463768116 0  0 -8.405797101449275 0  0 -8.260869565217391 0  0 -8.115942028985508 0  0 -7.971014492753623 0  0 -7.826086956521739 0  0 -7.681159420289855 0  0 -7.536231884057971 0  0 -7.391304347826087 0  0 -7.246376811594203 0  0 -7.101449275362318 0  0 -6.956521739130435 0  0 -6.811594202898551 0  0 -6.666666666666667 0  0 -6.521739130434783 0  0 -6.376811594202898 0  0 -6.231884057971015 0  0 -6.086956521739131 0  0 -5.942028985507246 0  0 -5.797101449275362 0  0 -5.652173913043478 0  0 -5.507246376811594 0  0 -5.36231884057971 0  0 -5.217391304347826 0  0 -5.072463768115941 0  0 -4.927536231884058 0  0 -4.782608695652174 0  0 -4.637681159420289 0  0 -4.492753623188406 0  0 -4.347826086956522 0  0 -4.202898550724638 0  0 -4.057971014492754 0  0 -3.913043478260869 0  0 -3.768115942028985 0  0 -3.623188405797101 0  0 -3.478260869565217 0  0 -3.333333333333334 0  0 -3.188405797101449 0  0 -3.043478260869565 0  0 -2.898550724637681 0  0 -2.753623188405797 0  0 -2.608695652173912 0  0 -2.463768115942029 0  0 -2.318840579710145 0  0 -2.173913043478261 0  0 -2.028985507246377 0  0 -1.884057971014492 0  0 -1.739130434782609 0  0 -1.594202898550725 0  0 -1.44927536231884 0  0 -1.304347826086957 0  0 -1.159420289855072 0  0 -1.014492753623188 0  0 -0.8695652173913047 0  0 -0.72463768115942 0  0 -0.579710144927537 0  0 -0.4347826086956523 0  0 -0.2898550724637676 0  0 -0.1449275362318829 0  5.15859856094262 -4.976557621770688 0  2.816777084926057 -7.160262673925935 0  2.81677708460006 -2.839737326002783 0  2.227649803257325 -5.003121586636773 0  1.518662968975629 -8.46230852045241 0  1.518662969184829 -1.537691480152612 0  9.960740911025725 -5.055901393541221 0  1.491099662214591 -3.691833922963321 0  1.503675657181264 -6.345020369042368 0  5.319208041801049 -7.493850249937013 0  5.291109955459268 -2.489368743223226 0  1.096914507335763 -2.53623188405797 0  1.096914507253562 -7.463768115942029 0  1.089580194952752 -4.71277167923441 0  15.07565076110197 -5.047572991082069 0  7.501630508673601 -5.937500100385354 0  0.8894869418764504 -5.623930488933245 0  2.955144522453978 -1.440834296472408 0  2.955144521140721 -8.559165705576945 0  8.106603955004623 -2.748811534843258 0  3.662152539483591 -4.228178367024407 0  3.662181528265114 -5.771746159989156 0  0.8436558190317136 -0.8541050638451999 0  0.8436558075840921 -9.145894948342754 0  0.7854168197005933 -1.811594202898552 0  0.7894693398152999 -3.286543351392342 0  0.7854168196772591 -8.188405797101449 0  0.7854168196772591 -6.739130434782609 0  20.00078956016804 -4.999999999785771 0  0.7379120031523989 -3.977302749614766 0  6.584332478112232 -3.934875417052907 0  7.295091310194352 -7.969791332537982 0  9.811174303464586 -7.412814499648229 0  4.013376806449688 -2.206189431585293 0  4.013376806983409 -7.793810569017377 0  12.11177433894592 -2.818343737884045 0  2.591152707837148 -3.990098461753838 0  2.58990939378082 -6.025895074707176 0  25.43156400064585 -5.044446479916348 0  2.03262751726143 -2.282125834846944 0  2.032627517335952 -7.717874165160392 0  12.51865094522923 -6.491408052923457 0  0.598175343983641 -6.156971652625402 0  2.126700074935224 -0.8767654465386991 0  2.126700059112423 -9.123234559633019 0  6.617961838548696 -1.617756429129908 0  0.5903949564549755 -4.980060355019413 0  1.676697585305984 -5.547101897225158 0  4.773518305133987 -3.729331162566817 0  4.77931803486508 -6.231222307502165 0  4.878549698409591 -8.72048903376362 0  4.852580875634024 -1.222215410052823 0  0.5487847095754042 -2.675169258708207 0  0.545113423825768 -7.32369553390529 0  1.78738026998851 -4.400451872599477 0  1.68244194111824 -3.010100184333533 0  1.683984276238402 -7.018293626028473 0  9.998503440677371 -2.00585287985007 0  3.693061162502273 -3.243678395563028 0  3.694987482168253 -6.757603268814477 0  6.081763036485869 -5.83414381546261 0  0.5196640460586313 -1.350633211792632 0  0.5196640458460706 -8.649366789040087 0  3.84593363904758 -0.9906418103762418 0  3.845933620847308 -9.009358200471317 0  17.41551885287501 -3.057748733689079 0  17.30725517812527 -7.002961443761516 0  8.117698464370697 -4.451550942597151 0  0.4918476668493152 -0.4789811193757592 0  0.4918476560347713 -9.521018882514893 0  1.463770869328428 -0.6252343353791154 0  1.463770854281917 -9.374765668872765 0  0.5034132782032188 -4.464280853772128 0  3.138906271796685 -4.99999841599503 0  14.61209972381335 -2.388610981020637 0  6.208601124947327 -8.776231214192325 0  14.74910972998159 -7.542186851303819 0  2.243794246335625 -1.632184311040998 0  2.243794245689214 -8.367815689183566 0  0.4590235278399923 -5.431413993025926 0  0.4971508861448406 -2.209632053221267 0  0.4971508861368665 -7.790367946777407 0  0.4644363683211541 -3.560571347760519 0  6.478811279411406 -7.007392971062433 0  1.238895267772762 -4.173677632458826 0  1.293241773632479 -2.02256720952064 0  1.293241773542714 -7.977432790434841 0  0.4324740478030531 -0.942028985507247 0  0.4324740423701829 -9.057971014492754 0  2.117396640811705 -3.472968170680347 0  2.107095929630507 -6.531506384346077 0  8.087741545730886 -1.392783601483453 0  1.028911946384717 -1.352376108341404 0  1.028911946221715 -8.647623891551962 0  4.05691976296832 -4.991522392209158 0  11.51826881314265 -8.065248940008736 0  1.618560396201739 -4.958056164503666 0  2.701984523487646 -2.141781914603403 0  2.70198452396172 -7.858218085853512 0  2.843615645746219 -9.289121726447632 0  2.843615661334342 -0.7108782798429658 0  8.678774612240533 -8.488146490452822 0  6.487906449371135 -2.667543558824978 0  8.369190916679937 -7.129867754908394 0  11.80978191929258 -4.655775487536958 0  0.3792065166453504 -3.113833531412848 0  0.4134714637263563 -6.58827691137208 0  9.551050695080825 -3.49648183875815 0  1.083867845277057 -6.036251777836495 0  0.3756430921870901 -1.80381664325008 0  0.3756430921689482 -8.196183356748573 0  3.113073783220456 -3.503408140759125 0  3.113391383189963 -6.496678880796299 0  22.62850736315072 -3.277987336300344 0  22.59385352108348 -6.800312122582239 0  0.3777114402537816 -4.137047872695438 0  0.9196816123347897 -0.4281025456111269 0  0.9196815944880363 -9.571897460530383 0  0.4052043328723194 -5.827814332459883 0  8.865857694874787 -5.767686953139113 0  1.200388325130726 -5.182186034620629 0  5.65297436943758 -4.325500846767599 0  1.200079167961391 -3.009849046583253 0  1.20883344838 -7.021823297793294 0  1.057642414577487 -3.660996704809145 0  10.88812987788297 -6.333458225047037 0  4.493502926606794 -2.839780197438185 0  4.485862892033458 -7.147606077919463 0  0.3631651408878085 -7.003529808558233 0  1.946748828463205 -6.049056369468467 0  6.918750162798794 -4.993796052442676 0  3.351203216022585 -1.980935554775394 0  3.351203216441711 -8.019064445907297 0  2.281892243515294 -2.856654416292082 0  2.281892243715877 -7.143345583598931 0  5.811143619672087 -0.9953286820321026 0  2.695713766833098 -4.565354125099452 0  2.698172168139827 -5.435483248292925 0  19.86166219288896 -2.493475492328429 0  19.83739102036415 -7.594404063416508
[...]
<PointData  Vectors="flow"> 
<DataArray  type="Float64"  Name="flow"  NumberOfComponents="3" format="ascii">-4.9514244886874974e-15 -2.3264813434037479e-15 0.0000000000000000e+00  -3.7190778254793492e-25 -1.7474496875418996e-25 0.0000000000000000e+00  -1.4133326104257844e-25 -6.6406989699469207e-26 0.0000000000000000e+00  9.0698709593530479e-21 4.2615787885331584e-21 0.0000000000000000e+00  2.2755428878569484e-14 1.0691888943897819e-14 0.0000000000000000e+00  -1.1331603431605362e-13 -5.3242787070085955e-14 0.0000000000000000e+00  1.9713152102163694e-13 9.2624416852454492e-14 0.0000000000000000e+00  -1.1731854982737070e-12 -5.5123413076811451e-13 0.0000000000000000e+00  1.2035554510868941e-12 5.6550378766813428e-13 0.0000000000000000e+00  1.0280801599622136e-11 4.8305478900873671e-12 0.0000000000000000e+00  1.6369367009829817e-11 7.6913274227862993e-12 0.0000000000000000e+00  -8.1498647821797894e-11 -3.8293037509354175e-11 0.0000000000000000e+00  -2.8666697079964212e-10 -1.3469363429840359e-10 0.0000000000000000e+00  -3.8102268517700229e-10 -1.7902770616883010e-10 0.0000000000000000e+00  -1.2258860804882668e-09 -5.7599607989786676e-10 0.0000000000000000e+00  -2.8718795399728567e-10 -1.3493842399323094e-10 0.0000000000000000e+00  1.3082071994388323e-08 6.1467556452783003e-09 0.0000000000000000e+00  -2.5493391219042675e-08 -1.1978350712345673e-08 0.0000000000000000e+00  -4.8743835059336637e-08 -2.2902827889344683e-08 0.0000000000000000e+00  -4.7190652694846283e-08 -2.2173048044747220e-08 0.0000000000000000e+00  -1.1290476811298857e-08 -5.3049549113859499e-09 0.0000000000000000e+00  3.9443745773289584e-08 1.8533078483812967e-08 0.0000000000000000e+00  -4.4180217314184950e-08 -2.0758561816666280e-08 0.0000000000000000e+00  -1.4323211638980719e-08 -6.7299187803114656e-09 0.0000000000000000e+00  2.3280888703437360e-08 1.0938782031342937e-08 0.0000000000000000e+00  2.0296196682042323e-08 9.5363916042151115e-09 0.0000000000000000e+00  3.4385948373854910e-08 1.6156616656436876e-08 0.0000000000000000e+00  1.4638281583667321e-08 6.8779578647921601e-09 0.0000000000000000e+00  -1.0292452419138321e-08 -4.8360221559883599e-09 0.0000000000000000e+00  -5.4873583994127833e-10 -2.5782957954767688e-10 0.0000000000000000e+00  -1.2440234522522133e-10 -5.8451812383160802e-11 0.0000000000000000e+00  -3.5197903844249022e-11 -1.6538122879113277e-11 0.0000000000000000e+00  2.3467432493079618e-11 1.1026431685966973e-11 0.0000000000000000e+00  1.6150262658913461e-12 7.5883788297440653e-13 0.0000000000000000e+00  3.6380976825019546e-13 1.7094002752457981e-13 0.0000000000000000e+00  -1.1070897140452894e-13 -5.2017829840383678e-14 0.0000000000000000e+00  3.3287412311679684e-14 1.5640457385595551e-14 0.0000000000000000e+00  -6.3519660070284340e-15 -2.9845412048692443e-15 0.0000000000000000e+00  1.1892534753667112e-15 5.5878384681821767e-16 0.0000000000000000e+00  1.2303420421304437e-16 5.7808976256456502e-17 0.0000000000000000e+00  -4.3857461201016089e-17 -2.0606911301249401e-17 0.0000000000000000e+00  2.5679361982942146e-17 1.2065731124511726e-17 0.0000000000000000e+00  -6.0247759951924989e-18 -2.8308073733176375e-18 0.0000000000000000e+00  1.3374477389871602e-18 6.2841455416316906e-19 0.0000000000000000e+00  -1.2879137283890401e-19 -6.0514045359195407e-20 0.0000000000000000e+00  2.9698635275386126e-20 1.3954230959311911e-20 0.0000000000000000e+00  -3.7526663033092142e-21 -1.7632316038779062e-21 0.0000000000000000e+00  6.3112557597855891e-22 2.9654130467175405e-22 0.0000000000000000e+00  1.1219098322762107e-23 5.2714169422053974e-24 0.0000000000000000e+00  7.5668329921125723e-24 3.5553598413995500e-24 0.0000000000000000e+00  -7.6524182910805101e-24 -3.5955730369705346e-24 0.0000000000000000e+00  1.7801763883497572e-24 8.3643548738867966e-25 0.0000000000000000e+00  1.6841337935419727e-25 7.9130881616449095e-26 0.0000000000000000e+00  -1.4811554633227313e-26 -6.9593721159913765e-27 0.0000000000000000e+00  4.6092043928815646e-26 2.1656854613198432e-26 0.0000000000000000e+00  -5.9966756494849621e-26 -2.8176041163193451e-26 0.0000000000000000e+00  -1.4952177356196893e-26 -7.0254452515496124e-27 0.0000000000000000e+00  4.6888662809459653e-26 2.2031154770225099e-26 0.0000000000000000e+00  -5.2908819752110502e-27 -2.4859791830820258e-27 0.0000000000000000e+00  6.9704616140525090e-26 3.2751481794896084e-26 0.0000000000000000e+00  6.9552480331847135e-25 3.2679999109183821e-25 0.0000000000000000e+00  -2.8745912591098791e-24 -1.3506583710425045e-24 0.0000000000000000e+00  5.2048604381422253e-24 2.4455610162335221e-24 0.0000000000000000e+00  5.5584469584728114e-23 2.6116975380986063e-23 0.0000000000000000e+00  -7.2178269638960587e-22 -3.3913755142152785e-22 0.0000000000000000e+00  3.8659828746372587e-21 1.8164746432689911e-21 0.0000000000000000e+00  -2.0467720391197389e-20 -9.6169839085534492e-21 0.0000000000000000e+00  4.6982863873184811e-20 2.2075416177782897e-20 0.0000000000000000e+00  -4.6156772737565737e-19 -2.1687268157074933e-19 0.0000000000000000e+00  1.1535761434678633e-18 5.4202045938602881e-19 0.0000000000000000e+00  -9.2358680703513402e-18 -4.3395743598437591e-18 0.0000000000000000e+00  2.4536208875597107e-17 1.1528608043473445e-17 0.0000000000000000e+00  -6.0751120625548082e-17 -2.8544583290953721e-17 0.0000000000000000e+00  -4.0151158921880840e-16 -1.8865464344899188e-16 0.0000000000000000e+00  9.2481629927433689e-16 4.3453512645767325e-16 0.0000000000000000e+00  -7.6417063806226652e-15 -3.5905399278341021e-15 0.0000000000000000e+00  4.7917863008561879e-14 2.2514735821962707e-14 0.0000000000000000e+00  -1.8109527420213611e-13 -8.5089609620914572e-14 0.0000000000000000e+00  -3.4815419012974205e-13 -1.6358408167492641e-13 0.0000000000000000e+00  4.5831469023360026e-13 2.1534420623245313e-13 0.0000000000000000e+00  -1.5976995260427160e-12 -7.5069672337640425e-13 0.0000000000000000e+00  1.4982898137211886e-12 7.0398797489451595e-13 0.0000000000000000e+00  2.7032920141329485e-12 1.2701715336710620e-12 0.0000000000000000e+00  -1.3340837948038556e-12 -6.2683396792973484e-13 0.0000000000000000e+00  -1.9170101681048000e-12 -9.0072834623664184e-13 0.0000000000000000e+00  1.9448891682413031e-13 9.1382760157993901e-14 0.0000000000000000e+00  1.2335258267917285e-11 5.7958569886185422e-12 0.0000000000000000e+00  4.3358702113666373e-12 2.0372563849476095e-12 0.0000000000000000e+00  1.0062664576318746e-12 4.7280538065806093e-13 0.0000000000000000e+00  3.4731503954384777e-13 1.6318979752763790e-13 0.0000000000000000e+00  -2.7687290993759780e-13 -1.3009178690604895e-13 0.0000000000000000e+00  -3.9052066855250424e-13 -1.8349043829239360e-13 0.0000000000000000e+00  3.4198583859532785e-13 1.6068581375280465e-13 0.0000000000000000e+00  1.9822686408753853e-13 9.3139075858820981e-14 0.0000000000000000e+00  9.7276593933789160e-14 4.5706479307899667e-14 0.0000000000000000e+00  -7.7891578533581973e-14 -3.6598216266988133e-14 0.0000000000000000e+00  -7.3981022715195520e-16 -3.4760798535060115e-16 0.0000000000000000e+00  6.4892735849085150e-15 3.0490566829858497e-15 0.0000000000000000e+00  2.5666927249759892e-15 1.2059888528138758e-15 0.0000000000000000e+00  4.7674726484936564e-16 2.2400495447822530e-16 0.0000000000000000e+00  1.9259148042811025e-16 9.0491228764204863e-17 0.0000000000000000e+00  -1.7889610703757641e-17 -8.4056306701509686e-18 0.0000000000000000e+00  -3.0211694501482795e-17 -1.4195297488813087e-17 0.0000000000000000e+00  -1.4079445875541689e-18 -6.6153827509128197e-19 0.0000000000000000e+00  2.3250991382855562e-18 1.0924734445903572e-18 0.0000000000000000e+00  -3.6335575089470391e-19 -1.7072670246841781e-19 0.0000000000000000e+00  2.5391694901578992e-19 1.1930567577247346e-19 0.0000000000000000e+00  -6.2248155327286849e-20 -2.9247981537656353e-20 0.0000000000000000e+00  3.5217527028970963e-20 1.6547343048633784e-20 0.0000000000000000e+00  -9.6764053176171998e-20 -4.5465656386525302e-20 0.0000000000000000e+00  7.6501736542730905e-21 3.5945183696385656e-21 0.0000000000000000e+00  -6.9935570345341380e-19 -3.2859998172337297e-19 0.0000000000000000e+00  -6.2574650905519335e-19 -2.9401389081929178e-19 0.0000000000000000e+00  -2.8992123897242118e-17 -1.3622268805004650e-17 0.0000000000000000e+00  3.5760365252534525e-17 1.6802401568155290e-17 0.0000000000000000e+00  -4.2793718493824450e-17 -2.0107100071548371e-17 0.0000000000000000e+00  -1.5549712813992435e-16 -7.3062038691473708e-17 0.0000000000000000e+00  1.0555361615675497e-15 4.9595529383219057e-16 0.0000000000000000e+00  -3.3759092636629243e-15 -1.5862081582541888e-15 0.0000000000000000e+00  -7.1480765148479343e-15 -3.3586024973238353e-15 0.0000000000000000e+00  5.1749012683518032e-15 2.4314843702621434e-15 0.0000000000000000e+00  2.0272071242227066e-14 9.5250560005398744e-15 0.0000000000000000e+00  1.5067940250546330e-14 7.0798377227622358e-15 0.0000000000000000e+00  1.2498781643229511e-13 5.8726902479651092e-14 0.0000000000000000e+00  3.6455603415914511e-14 1.7129066878314213e-14 0.0000000000000000e+00  2.3020006350658778e-14 1.0816203583877799e-14 0.0000000000000000e+00  -2.9759409546110308e-12 -1.3982786419931738e-12 0.0000000000000000e+00  -2.6147316385330798e-12 -1.2285604655696176e-12 0.0000000000000000e+00  -1.1273424097363234e-12 -5.2969425058819869e-13 0.0000000000000000e+00  -3.0606725130721876e-12 -1.4380906981818079e-12 0.0000000000000000e+00  2.4445593988469655e-12 1.1486031640497251e-12 0.0000000000000000e+00  1.0529601834112997e-11 4.9474494211719826e-12 0.0000000000000000e+00  3.6667199051723513e-11 1.7228487418843553e-11 0.0000000000000000e+00  -9.1822226741871930e-11 -4.3143684794712474e-11 0.0000000000000000e+00  -9.5794524663528851e-10 -4.5010112734043912e-10 0.0000000000000000e+00  -1.0860111789415382e-09 -5.1027431647354774e-10 0.0000000000000000e+00  1.6126428887481149e-09 7.5771802696716943e-10 0.0000000000000000e+00  5.4364833497327190e-09 2.5543915929193406e-09 0.0000000000000000e+00  -1.0764660422844833e-09 -5.0578942886118231e-10 0.0000000000000000e+00  -7.8823731709688496e-09 -3.7036198705852180e-09 0.0000000000000000e+00  -1.4667605381149368e-09 -6.8917359740848462e-10 0.0000000000000000e+00  -9.9597544060731590e-09 -4.6797003293802832e-09 0.0000000000000000e+00  2.4041901495820052e-08 1.1296352275545362e-08 0.0000000000000000e+00  -8.9946730717479567e-08 -4.2262462326239914e-08 0.0000000000000000e+00  -1.2743896356679406e-09 -5.9878600963870257e-10 0.0000000000000000e+00  -7.9935221108568516e-08 -3.7558444244644781e-08 0.0000000000000000e+00  -1.4930445801900360e-08 -7.0152344413575919e-09 0.0000000000000000e+00  4.1510786184030837e-08 1.9504300192361265e-08 0.0000000000000000e+00  -5.1268807700180862e-08 -2.4089214101019714e-08 0.0000000000000000e+00  3.7479100051417315e-08 1.7609968047861299e-08 0.0000000000000000e+00  1.3162367261885775e-07 6.1844832612852155e-08 0.0000000000000000e+00  1.9640241326084024e-09 9.2281837538824872e-10 0.0000000000000000e+00  6.6049116029664082e-08 3.1033904796971905e-08 0.0000000000000000e+00  5.6048051418181092e-08 2.6334794412485720e-08 0.0000000000000000e+00  -1.2282312799593983e-10 -5.7709799770518353e-11 0.0000000000000000e+00  -1.1502266686423223e-08 -5.4044667173974122e-09 0.0000000000000000e+00  -8.2651864311096902e-09 -3.8834888981266819e-09 0.0000000000000000e+00  5.3904611845837650e-09 2.5327675716206804e-09 0.0000000000000000e+00  -2.3820848936702684e-09 -1.1192488295417386e-09 0.0000000000000000e+00  -1.3392859636468127e-09 -6.2927826427031797e-10 0.0000000000000000e+00  1.3845788716256466e-09 6.5055963605373287e-10 0.0000000000000000e+00  1.1246838147828134e-10 5.2844508046086600e-11 0.0000000000000000e+00  -5.4677442382240435e-12 -2.5690798657627195e-12 0.0000000000000000e+00  9.2751856371672064e-11 4.3580481517543754e-11 0.0000000000000000e+00  5.2635147443743898e-11 2.4731203881821793e-11 0.0000000000000000e+00  8.8237602486714891e-11 4.1459409598394992e-11 0.0000000000000000e+00  6.1360936635029477e-12 2.8831112061049925e-12 0.0000000000000000e+00  2.0679732706810453e-11 9.7166002306790418e-12 0.0000000000000000e+00  -1.2041220092519466e-11 -5.6576999126347654e-12 0.0000000000000000e+00  -3.7052964636174519e-12 -1.7409743628486424e-12 0.0000000000000000e+00  3.5475233661968339e-12 1.6668429349174077e-12 0.0000000000000000e+00  -6.1383616094915358e-14 -2.8841768255125944e-14 0.0000000000000000e+00  2.5521584062660818e-13 1.1991597430506280e-13 0.0000000000000000e+00  -8.2742588686483916e-15 -3.8877516828508137e-15 0.0000000000000000e+00  3.0115404740771259e-14 1.4150054683966127e-14 0.0000000000000000e+00  -1.4418384144876499e-14 -6.7746366306750052e-15 0.0000000000000000e+00  1.2279936249836845e-03 5.7698633289681388e-04 0.0000000000000000e+00  3.3310502831751181e-06 1.5651306720827966e-06 0.0000000000000000e+00  -1.6614383898955458e+00 -7.8064513073718445e-01 0.0000000000000000e+00  6.2962802420885899e-01 2.9583766347497348e-01 0.0000000000000000e+00  9.6419680580303393e-12 4.5303849128573880e-12 0.0000000000000000e+00  -4.3423876504928902e-06 -2.0403186755204804e-06 0.0000000000000000e+00  5.3038197811909058e-12 2.4920581537510629e-12 0.0000000000000000e+00  -1.7607485167743592e-02 -8.2730708790172969e-03 0.0000000000000000e+00  -1.1841554268239974e-05 -5.5638847254774392e-06 0.0000000000000000e+00  -1.7832502502027348e-07 -8.3787977524351807e-08 0.0000000000000000e+00  -2.5513877968350333e-04 -1.1987976637200258e-04 0.0000000000000000e+00  -1.3611541328822931e-06 -6.3955326449641431e-07 0.0000000000000000e+00  1.3910471008339949e-09 6.5359880480455671e-10 0.0000000000000000e+00  9.0841078248543735e-04 4.2682681366294675e-04 0.0000000000000000e+00  -1.4249717392027527e-16 -6.6953866987307405e-17 0.0000000000000000e+00  -2.9496152372017741e-08 -1.3859092136510295e-08 0.0000000000000000e+00  1.1964590831814572e-05 5.6216948103059156e-06 0.0000000000000000e+00  -2.6131545025288335e-04 -1.2278194308434960e-04 0.0000000000000000e+00  1.0397678141739846e-09 4.8854636209724122e-10 0.0000000000000000e+00  6.1005801143570485e-09 2.8664247738035804e-09 0.0000000000000000e+00  -1.4897854917340240e+01 -6.9999212552093804e+00 0.0000000000000000e+00  2.6890793655738980e-03 1.2634935641718753e-03 0.0000000000000000e+00  5.9517201204601975e-10 2.7964812657542403e-10 0.0000000000000000e+00  -1.3427653303550560e-15 -6.3091308304864859e-16 0.0000000000000000e+00  -1.1023483090648882e-07 -5.1795049704008338e-08 0.0000000000000000e+00  -3.6986541649662772e-05 -1.7378534056524717e-05 0.0000000000000000e+00  1.5806594842124395e-12 7.4269027200073852e-13 0.0000000000000000e+00  9.2745164261752940e-10 4.3577337155974702e-10 0.0000000000000000e+00  -2.2654973372425274e-20 -1.0644688817667343e-20 0.0000000000000000e+00  1.5759174103798372e-04 7.4046215636940855e-05 0.0000000000000000e+00  1.2292739339910580e-05 5.7758790018845900e-06 0.0000000000000000e+00  6.5150961334111441e-10 3.0611896918740572e-10 0.0000000000000000e+00  -3.9124414003268477e-12 -1.8383036933748359e-12 0.0000000000000000e+00  -2.5657666022488920e-04 -1.2055537038479097e-04 0.0000000000000000e+00  1.9510147734880155e-08 9.1670578468785989e-09 0.0000000000000000e+00  -1.2807698552495806e-13 -6.0178382609686262e-14 0.0000000000000000e+00  9.4054023821042577e+01 4.4192319238965055e+01 0.0000000000000000e+00  -6.3690979816119090e-05 -2.9925908518617710e-05 0.0000000000000000e+00  -1.6436900025470693e-23 -7.7230585541629957e-24 0.0000000000000000e+00  -3.3324896530875650e-03 -1.5658069758929857e-03 0.0000000000000000e+00  6.6115839857539692e-09 3.1065255722562620e-09 0.0000000000000000e+00  6.5952158125594244e-15 3.0988348057607390e-15 0.0000000000000000e+00  4.3851368667291072e-08 2.0604048657160324e-08 0.0000000000000000e+00  -2.7192777728861140e-07 -1.2776826185284315e-07 0.0000000000000000e+00  9.8703813072837592e-13 4.6377073943348730e-13 0.0000000000000000e+00  -6.3373873297778811e-07 -2.9776912527569927e-07 0.0000000000000000e+00  1.4076200166606421e-06 6.6138577188132029e-07 0.0000000000000000e+00  3.5394736651612919e-05 1.6630606942062762e-05 0.0000000000000000e+00  -6.1558104498028718e-02 -2.8923753553580834e-02 0.0000000000000000e+00  -1.2955173629995643e-06 -6.0871310507919948e-07 0.0000000000000000e+00  2.9890712801415698e-11 1.4044480700939930e-11 0.0000000000000000e+00  8.4603479079557498e-07 3.9751876680202675e-07 0.0000000000000000e+00  -2.2188579710907874e-07 -1.0425548617775156e-07 0.0000000000000000e+00  -1.4607735743424810e-10 -6.8636055652458081e-11 0.0000000000000000e+00  7.3205902120718958e-01 3.4396599584625626e-01 0.0000000000000000e+00  5.7334994576221402e-03 2.6939478832907001e-03 0.0000000000000000e+00  -5.4451561923338551e-08 -2.5584666235598836e-08 0.0000000000000000e+00  -6.8639514048539791e-12 -3.2251031843274088e-12 0.0000000000000000e+00  -1.9818736634637637e+00 -9.3120517410008885e-01 0.0000000000000000e+00  -8.6520065480681395e-07 -4.0652405914854589e-07 0.0000000000000000e+00  9.2218752063514482e-06 4.3329996585409526e-06 0.0000000000000000e+00  -1.6930608846212322e-09 -7.9550330825342804e-10 0.0000000000000000e+00  1.8655018983115130e-14 8.7652661823314126e-15 0.0000000000000000e+00  -1.3247843414412676e-06 -6.2246451731984515e-07 0.0000000000000000e+00  -3.3553815901530897e-11 -1.5765630047123677e-11 0.0000000000000000e+00  6.4243585187324911e-18 3.0185556240058756e-18 0.0000000000000000e+00  -1.9514203618889042e-18 -9.1689635486618329e-19 0.0000000000000000e+00  -1.1797039138898045e-08 -5.5429688015549891e-09 0.0000000000000000e+00  2.2920213692488008e-12 1.0769314904070214e-12 0.0000000000000000e+00  -4.0428700474419010e-18 -1.8995870300897173e-18 0.0000000000000000e+00  -7.0091587091475855e-09 -3.2933304359267837e-09 0.0000000000000000e+00  1.8995617757240449e-14 8.9253002685623657e-15 0.0000000000000000e+00  2.5640950418511807e-06 1.2047683027802964e-06 0.0000000000000000e+00  -7.4330699338283435e-01 -3.4925097948632744e-01 0.0000000000000000e+00  -2.1450640637236205e-16 -1.0078819814500840e-16 0.0000000000000000e+00  1.4640128083788200e-10 6.8788254632159460e-11 0.0000000000000000e+00  -3.7952915189377090e-17 -1.7832595310218632e-17 0.0000000000000000e+00  8.7578939928565082e-05 4.1149929739288740e-05 0.0000000000000000e+00  -1.9033476266200425e-10 -8.9430885060656736e-11 0.0000000000000000e+00  3.6712781501798049e-07 1.7249904835170367e-07 0.0000000000000000e+00  4.6863623295963149e-08 2.2019389678960847e-08 0.0000000000000000e+00  7.4591744776207814e-12 3.5047753023449973e-12 0.0000000000000000e+00  6.3242504581313090e-06 2.9715187488914387e-06 0.0000000000000000e+00  -3.8763595450246883e-08 -1.8213502361651702e-08 0.0000000000000000e+00  -1.0311721086726882e-02 -4.8450757517282238e-03 0.0000000000000000e+00  -9.9244576578187230e-06 -4.6631157633661207e-06 0.0000000000000000e+00  1.5086831095341421e-11 7.0887137943002972e-12 0.0000000000000000e+00  8.3642176543268455e-11 3.9300198093332579e-11 0.0000000000000000e+00  -3.9713788853267949e-16 -1.8659961199871781e-16 0.0000000000000000e+00  1.6077852627417204e+00 7.5543561787400215e-01 0.0000000000000000e+00  1.0445608808252114e-05 4.9079843726616385e-06 0.0000000000000000e+00  -1.2722003809801330e-09 -5.9775736420570401e-10 0.0000000000000000e+00  -5.7417479023786374e-08 -2.6978235059285726e-08 0.0000000000000000e+00  1.0517771380563918e-13 4.9418907522417001e-14 0.0000000000000000e+00  1.6794715099849070e-01 7.8911819087313373e-02 0.0000000000000000e+00  -8.0314950549518467e-14 -3.7736864305766471e-14 0.0000000000000000e+00  1.7665960172939539e-02 8.3005460043988274e-03 0.0000000000000000e+00  3.0415279164661513e-03 1.4290953985599123e-03 0.0000000000000000e+00  -5.1351508396995775e-09 -2.4128071934490852e-09 0.0000000000000000e+00  -1.1849928061887803e-12 -5.5678192446728001e-13 0.0000000000000000e+00  -1.0280197606386476e-06 -4.8302640972116984e-07 0.0000000000000000e+00  3.7390137811301609e-11 1.7568168159289976e-11 0.0000000000000000e+00  -4.1141562042499640e-06 -1.9330816161903126e-06 0.0000000000000000e+00  8.0303675904910501e-10 3.7731566789790244e-10 0.0000000000000000e+00  -3.0423174