<?xml version="1.0"?>
<VTKFile type="UnstructuredGrid"  version="0.1"  >
<UnstructuredGrid>
<Piece  NumberOfPoints="1855" NumberOfCells="3532">
<Points>
<DataArray  type="Float64"  NumberOfComponents="3"  format="ascii">0 0 0  30 0 0  30 -10 0  0 -10 0  0.1391574078963744 0 0  0.2856388821882616 0 0  0.4398299073010886 0 0  0.6021362569539473 0 0  0.7729850389704483 0 0  0.9528258543586996 0 0  1.142131984380316 0 0  1.34140159760994 0 0  1.551159074717981 0 0  1.771956417032531 0 0  2.004374674080994 0 0  2.249025475789527 0 0  2.506552636773105 0 0  2.777633857742732 0 0  3.062982518028728 0 0  3.363349525995907 0 0  3.679525322337712 0 0  4.01234195575742 0 0  4.362675247811097 0 0  4.731447135329707 0 0  5.119628065610077 0 0  5.528239565804708 0 0  5.958356943167011 0 0  6.411112081475485 0 0  6.887696441559404 0 0  7.389364184530748 0 0  7.917435485335147 0 0  8.473300005202017 0 0  9.058420557070402 0 0  9.674336929103793 0 0  10.32266995225095 0 0  11.00512576896296 0 0  11.72350030646412 0 0  12.47968402994705 0 0  13.27566689579597 0 0  14.1135435963616 0 0  14.9955190732806 0 0  15.92391430904694 0 0  16.90117245730496 0 0  17.92986524844506 0 0  19.01269976086341 0 0  20.15252556282024 0 0  21.35234220269763 0 0  22.61530708683689 0 0  23.94474379751883 0 0  25.34415086349739 0 0  26.81721093579712 0 0  28.3678004819169 0 0  30 -1.111111111111111 0  30 -2.222222222222222 0  30 -3.333333333333333 0  30 -4.444444444444445 0  30 -5.555555555555555 0  30 -6.666666666666666 0  30 -7.777777777777777 0  30 -8.888888888888889 0  28.36780047917311 -10 0  26.8172109305839 -10 0  25.34415085606858 -10 0  23.94474378810899 -10 0  22.61530707566275 -10 0  21.3523421899591 -10 0  20.15252554870171 -10 0  19.01269974553473 -10 0  17.92986523206254 -10 0  16.90117244001232 -10 0  15.92391429097614 -10 0  14.99551905455266 -10 0  14.11354357708742 -10 0  13.27566687607703 -10 0  12.47968400987599 -10 0  11.72350028612546 -10 0  11.00512574843363 -10 0  10.32266993160086 -10 0  9.674336908396342 -10 0  9.058420536362949 -10 0  8.473299984546333 -10 0  7.917435464777824 -10 0  7.389364164113587 -10 0  6.887696420787165 -10 0  6.411112061446698 -10 0  5.95835692337857 -10 0  5.528239546282652 -10 0  5.119628046377237 -10 0  4.731447115907979 -10 0  4.362675229213632 -10 0  4.012341937260036 -10 0  3.679525304434552 -10 0  3.363349508456405 -10 0  3.062982500861274 -10 0  2.777633840953978 -10 0  2.506552620368097 -10 0  2.249025459771861 -10 0  2.004374658452946 -10 0  1.771956401795187 -10 0  1.551159059871345 -10 0  1.341401583153029 -10 0  1.142131970307521 -10 0  0.9528258406748833 -10 0  0.7729850256685147 -10 0  0.6021362439621285 -10 0  0.4398298947504031 -10 0  0.2856388700059078 -10 0  0.1391573960769001 -10 0  0 -9.855072463768115 0  0 -9.710144927536232 0  0 -9.565217391304348 0  0 -9.420289855072463 0  0 -9.27536231884058 0  0 -9.130434782608695 0  0 -8.985507246376812 0  0 -8.840579710144928 0  0 -8.695652173913043 0  0 -8.55072463768116 0  0 -8.405797101449275 0  0 -8.260869565217391 0  0 -8.115942028985508 0  0 -7.971014492753623 0  0 -7.826086956521739 0  0 -7.681159420289855 0  0 -7.536231884057971 0  0 -7.391304347826087 0  0 -7.246376811594203 0  0 -7.101449275362318 0  0 -6.956521739130435 0  0 -6.811594202898551 0  0 -6.666666666666667 0  0 -6.521739130434783 0  0 -6.376811594202898 0  0 -6.231884057971015 0  0 -6.086956521739131 0  0 -5.942028985507246 0  0 -5.797101449275362 0  0 -5.652173913043478 0  0 -5.507246376811594 0  0 -5.36231884057971 0  0 -5.217391304347826 0  0 -5.072463768115941 0  0 -4.927536231884058 0  0 -4.782608695652174 0  0 -4.637681159420289 0  0 -4.492753623188406 0  0 -4.347826086956522 0  0 -4.202898550724638 0  0 -4.057971014492754 0  0 -3.913043478260869 0  0 -3.768115942028985 0  0 -3.623188405797101 0  0 -3.478260869565217 0  0 -3.333333333333334 0  0 -3.188405797101449 0  0 -3.043478260869565 0  0 -2.898550724637681 0  0 -2.753623188405797 0  0 -2.608695652173912 0  0 -2.463768115942029 0  0 -2.318840579710145 0  0 -2.173913043478261 0  0 -2.028985507246377 0  0 -1.884057971014492 0  0 -1.739130434782609 0  0 -1.594202898550725 0  0 -1.44927536231884 0  0 -1.304347826086957 0  0 -1.159420289855072 0  0 -1.014492753623188 0  0 -0.8695652173913047 0  0 -0.72463768115942 0  0 -0.579710144927537 0  0 -0.4347826086956523 0  0 -0.2898550724637676 0  0 -0.1449275362318829 0  5.15859856094262 -4.976557621770688 0  2.816777084926057 -7.160262673925935 0  2.81677708460006 -2.839737326002783 0  2.227649803257325 -5.003121586636773 0  1.518662968975629 -8.46230852045241 0  1.518662969184829 -1.537691480152612 0  9.960740911025725 -5.055901393541221 0  1.491099662214591 -3.691833922963321 0  1.503675657181264 -6.345020369042368 0  5.319208041801049 -7.493850249937013 0  5.291109955459268 -2.489368743223226 0  1.096914507335763 -2.53623188405797 0  1.096914507253562 -7.463768115942029 0  1.089580194952752 -4.71277167923441 0  15.07565076110197 -5.047572991082069 0  7.501630508673601 -5.937500100385354 0  0.8894869418764504 -5.623930488933245 0  2.955144522453978 -1.440834296472408 0  2.955144521140721 -8.559165705576945 0  8.106603955004623 -2.748811534843258 0  3.662152539483591 -4.228178367024407 0  3.662181528265114 -5.771746159989156 0  0.8436558190317136 -0.8541050638451999 0  0.8436558075840921 -9.145894948342754 0  0.7854168197005933 -1.811594202898552 0  0.7894693398152999 -3.286543351392342 0  0.7854168196772591 -8.188405797101449 0  0.7854168196772591 -6.739130434782609 0  20.00078956016804 -4.999999999785771 0  0.7379120031523989 -3.977302749614766 0  6.584332478112232 -3.934875417052907 0  7.295091310194352 -7.969791332537982 0  9.811174303464586 -7.412814499648229 0  4.013376806449688 -2.206189431585293 0  4.013376806983409 -7.793810569017377 0  12.11177433894592 -2.818343737884045 0  2.591152707837148 -3.990098461753838 0  2.58990939378082 -6.025895074707176 0  25.43156400064585 -5.044446479916348 0  2.03262751726143 -2.282125834846944 0  2.032627517335952 -7.717874165160392 0  12.51865094522923 -6.491408052923457 0  0.598175343983641 -6.156971652625402 0  2.126700074935224 -0.8767654465386991 0  2.126700059112423 -9.123234559633019 0  6.617961838548696 -1.617756429129908 0  0.5903949564549755 -4.980060355019413 0  1.676697585305984 -5.547101897225158 0  4.773518305133987 -3.729331162566817 0  4.77931803486508 -6.231222307502165 0  4.878549698409591 -8.72048903376362 0  4.852580875634024 -1.222215410052823 0  0.5487847095754042 -2.675169258708207 0  0.545113423825768 -7.32369553390529 0  1.78738026998851 -4.400451872599477 0  1.68244194111824 -3.010100184333533 0  1.683984276238402 -7.018293626028473 0  9.998503440677371 -2.00585287985007 0  3.693061162502273 -3.243678395563028 0  3.694987482168253 -6.757603268814477 0  6.081763036485869 -5.83414381546261 0  0.5196640460586313 -1.350633211792632 0  0.5196640458460706 -8.649366789040087 0  3.84593363904758 -0.9906418103762418 0  3.845933620847308 -9.009358200471317 0  17.41551885287501 -3.057748733689079 0  17.30725517812527 -7.002961443761516 0  8.117698464370697 -4.451550942597151 0  0.4918476668493152 -0.4789811193757592 0  0.4918476560347713 -9.521018882514893 0  1.463770869328428 -0.6252343353791154 0  1.463770854281917 -9.374765668872765 0  0.5034132782032188 -4.464280853772128 0  3.138906271796685 -4.99999841599503 0  14.61209972381335 -2.388610981020637 0  6.208601124947327 -8.776231214192325 0  14.74910972998159 -7.542186851303819 0  2.243794246335625 -1.632184311040998 0  2.243794245689214 -8.367815689183566 0  0.4590235278399923 -5.431413993025926 0  0.4971508861448406 -2.209632053221267 0  0.4971508861368665 -7.790367946777407 0  0.4644363683211541 -3.560571347760519 0  6.478811279411406 -7.007392971062433 0  1.238895267772762 -4.173677632458826 0  1.293241773632479 -2.02256720952064 0  1.293241773542714 -7.977432790434841 0  0.4324740478030531 -0.942028985507247 0  0.4324740423701829 -9.057971014492754 0  2.117396640811705 -3.472968170680347 0  2.107095929630507 -6.531506384346077 0  8.087741545730886 -1.392783601483453 0  1.028911946384717 -1.352376108341404 0  1.028911946221715 -8.647623891551962 0  4.05691976296832 -4.991522392209158 0  11.51826881314265 -8.065248940008736 0  1.618560396201739 -4.958056164503666 0  2.701984523487646 -2.141781914603403 0  2.70198452396172 -7.858218085853512 0  2.843615645746219 -9.289121726447632 0  2.843615661334342 -0.7108782798429658 0  8.678774612240533 -8.488146490452822 0  6.487906449371135 -2.667543558824978 0  8.369190916679937 -7.129867754908394 0  11.80978191929258 -4.655775487536958 0  0.3792065166453504 -3.113833531412848 0  0.4134714637263563 -6.58827691137208 0  9.551050695080825 -3.49648183875815 0  1.083867845277057 -6.036251777836495 0  0.3756430921870901 -1.80381664325008 0  0.3756430921689482 -8.196183356748573 0  3.113073783220456 -3.503408140759125 0  3.113391383189963 -6.496678880796299 0  22.62850736315072 -3.277987336300344 0  22.59385352108348 -6.800312122582239 0  0.3777114402537816 -4.137047872695438 0  0.9196816123347897 -0.4281025456111269 0  0.9196815944880363 -9.571897460530383 0  0.4052043328723194 -5.827814332459883 0  8.865857694874787 -5.767686953139113 0  1.200388325130726 -5.182186034620629 0  5.65297436943758 -4.325500846767599 0  1.200079167961391 -3.009849046583253 0  1.20883344838 -7.021823297793294 0  1.057642414577487 -3.660996704809145 0  10.88812987788297 -6.333458225047037 0  4.493502926606794 -2.839780197438185 0  4.485862892033458 -7.147606077919463 0  0.3631651408878085 -7.003529808558233 0  1.946748828463205 -6.049056369468467 0  6.918750162798794 -4.993796052442676 0  3.351203216022585 -1.980935554775394 0  3.351203216441711 -8.019064445907297 0  2.281892243515294 -2.856654416292082 0  2.281892243715877 -7.143345583598931 0  5.811143619672087 -0.9953286820321026 0  2.695713766833098 -4.565354125099452 0  2.698172168139827 -5.435483248292925 0  19.86166219288896 -2.493475492328429 0  19.83739102036415 -7.594404063416508
[...]
<PointData  Vectors="flow"> 
<DataArray  type="Float64"  Name="flow"  NumberOfComponents="3" format="ascii">-6.8923387303437208e-13 -3.0891913816058926e-13 0.0000000000000000e+00  -5.1769231655007146e-23 -2.3203308850293763e-23 0.0000000000000000e+00  -1.9673463892968684e-23 -8.8177754289598949e-24 0.0000000000000000e+00  1.2625179488284866e-18 5.6586881742667981e-19 0.0000000000000000e+00  3.1675354060972543e-12 1.4197101245717762e-12 0.0000000000000000e+00  -1.5773490919024844e-11 -7.0697819871166334e-12 0.0000000000000000e+00  2.7440531919919344e-11 1.2299026213046964e-11 0.0000000000000000e+00  -1.6330637508667461e-10 -7.3194987393473039e-11 0.0000000000000000e+00  1.6753384543366805e-10 7.5089767303872886e-11 0.0000000000000000e+00  1.4310784140189583e-09 6.4141872243257102e-10 0.0000000000000000e+00  2.2786012892012696e-09 1.0212840285587052e-09 0.0000000000000000e+00  -1.1344539094480221e-08 -5.0846967582528685e-09 0.0000000000000000e+00  -3.9903786679304121e-08 -1.7885138662794489e-08 0.0000000000000000e+00  -5.3038017972099622e-08 -2.3771987191450382e-08 0.0000000000000000e+00  -1.7064224913138556e-07 -7.6482974209283030e-08 0.0000000000000000e+00  -3.9976307075791531e-08 -1.7917642779696515e-08 0.0000000000000000e+00  1.8210127547349206e-06 8.1618984902109984e-07 0.0000000000000000e+00  -3.5486573221151685e-06 -1.5905314646664384e-06 0.0000000000000000e+00  -6.7850983694190771e-06 -3.0411255491374123e-06 0.0000000000000000e+00  -6.5688967694447418e-06 -2.9442225753486006e-06 0.0000000000000000e+00  -1.5716243030334517e-06 -7.0441231082836948e-07 0.0000000000000000e+00  5.4905342348286461e-06 2.4608934212667393e-06 0.0000000000000000e+00  -6.1498468492301786e-06 -2.7564016552463618e-06 0.0000000000000000e+00  -1.9937782863861260e-06 -8.9362449236876301e-07 0.0000000000000000e+00  3.2406789451020606e-06 1.4524935380333103e-06 0.0000000000000000e+00  2.8252124775388649e-06 1.2662787448903066e-06 0.0000000000000000e+00  4.7864933474839831e-06 2.1453376822679857e-06 0.0000000000000000e+00  2.0376357417000924e-06 9.1328169122038291e-07 0.0000000000000000e+00  -1.4327001977051499e-06 -6.4214561650760466e-07 0.0000000000000000e+00  -7.6383539544950333e-08 -3.4235602934019752e-08 0.0000000000000000e+00  -1.7316695510561329e-08 -7.7614563970293801e-09 0.0000000000000000e+00  -4.8995168248428236e-09 -2.1959955454166626e-09 0.0000000000000000e+00  3.2666456742563431e-09 1.4641319961895760e-09 0.0000000000000000e+00  2.2481021589558853e-10 1.0076141185344444e-10 0.0000000000000000e+00  5.0641995286751659e-11 2.2698074123724616e-11 0.0000000000000000e+00  -1.5410590086777476e-11 -6.9071274561632295e-12 0.0000000000000000e+00  4.6335781073281864e-12 2.0768000696393719e-12 0.0000000000000000e+00  -8.8418800335323071e-13 -3.9629885682387299e-13 0.0000000000000000e+00  1.6554302316824049e-13 7.4197467719467308e-14 0.0000000000000000e+00  1.7126251501804903e-14 7.6760981444033638e-15 0.0000000000000000e+00  -6.1049194861181598e-15 -2.7362649167089929e-15 0.0000000000000000e+00  3.5745442865970906e-15 1.6021341717738868e-15 0.0000000000000000e+00  -8.3864344550102620e-16 -3.7588548755972713e-16 0.0000000000000000e+00  1.8617153250125305e-16 8.3443300772675591e-17 0.0000000000000000e+00  -1.7927644240153157e-17 -8.0352876209286003e-18 0.0000000000000000e+00  4.1340235444276229e-18 1.8528964411713961e-18 0.0000000000000000e+00  -5.2236780270903422e-19 -2.3412867203592605e-19 0.0000000000000000e+00  8.7852117324333403e-20 3.9375894643620643e-20 0.0000000000000000e+00  1.5616884810860654e-21 6.9995901032619281e-22 0.0000000000000000e+00  1.0532964042314354e-21 4.7209435019540141e-22 0.0000000000000000e+00  -1.0652098015208920e-21 -4.7743401292413794e-22 0.0000000000000000e+00  2.4779896565723068e-22 1.1106512013245116e-22 0.0000000000000000e+00  2.3442992211291777e-23 1.0507302721403685e-23 0.0000000000000000e+00  -2.0617551956700692e-24 -9.2409218853460077e-25 0.0000000000000000e+00  6.4159714089771020e-24 2.8756804267299056e-24 0.0000000000000000e+00  -8.3473190243905332e-24 -3.7413230832861529e-24 0.0000000000000000e+00  -2.0813297532969535e-24 -9.3286563352701153e-25 0.0000000000000000e+00  6.5268600467202377e-24 2.9253814407740907e-24 0.0000000000000000e+00  -7.3648605242268484e-25 -3.3009787458656201e-25 0.0000000000000000e+00  9.7028204026278869e-24 4.3488676830561166e-24 0.0000000000000000e+00  9.6816432337380232e-23 4.3393759371943887e-23 0.0000000000000000e+00  -4.0014053964341946e-22 -1.7934561182484662e-22 0.0000000000000000e+00  7.2451193117863178e-22 3.2473099498347671e-22 0.0000000000000000e+00  7.7373085947229585e-21 3.4679124115612540e-21 0.0000000000000000e+00  -1.0047150763550683e-19 -4.5031988070771932e-20 0.0000000000000000e+00  5.3814136837964988e-19 2.4119848752719511e-19 0.0000000000000000e+00  -2.8490884248845790e-18 -1.2769801009399332e-18 0.0000000000000000e+00  6.5399727507801685e-18 2.9312586406559191e-18 0.0000000000000000e+00  -6.4249816014285174e-17 -2.8797188540267204e-17 0.0000000000000000e+00  1.6057677038576184e-16 7.1971560680545044e-17 0.0000000000000000e+00  -1.2856245986395200e-15 -5.7622536928037460e-16 0.0000000000000000e+00  3.4154183935441364e-15 1.5308129038209071e-15 0.0000000000000000e+00  -8.4565018118703179e-15 -3.7902595240645698e-15 0.0000000000000000e+00  -5.5890055142256920e-14 -2.5050288939343475e-14 0.0000000000000000e+00  1.2873360408716048e-13 5.7699244890317272e-14 0.0000000000000000e+00  -1.0637187131382822e-12 -4.7676569734056217e-13 0.0000000000000000e+00  6.6701237965715521e-12 2.9895931922059826e-12 0.0000000000000000e+00  -2.5208300664127869e-11 -1.1298525537306315e-11 0.0000000000000000e+00  -4.8462752774378913e-11 -2.1721323349997674e-11 0.0000000000000000e+00  6.3796996145242084e-11 2.8594231707819401e-11 0.0000000000000000e+00  -2.2239834916103157e-10 -9.9680397379043859e-11 0.0000000000000000e+00  2.0856060586167648e-10 9.3478230159222480e-11 0.0000000000000000e+00  3.7629583751112330e-10 1.6865826008460855e-10 0.0000000000000000e+00  -1.8570327447097767e-10 -8.3233424455203597e-11 0.0000000000000000e+00  -2.6684610576771256e-10 -1.1960217313805788e-10 0.0000000000000000e+00  2.7072683772359765e-11 1.2134154262953110e-11 0.0000000000000000e+00  1.7170569500353108e-09 7.6959617617502943e-10 0.0000000000000000e+00  6.0354926659635930e-10 2.7051473609902652e-10 0.0000000000000000e+00  1.4007139349145947e-10 6.2780916393203019e-11 0.0000000000000000e+00  4.8345943761195191e-11 2.1668968784887310e-11 0.0000000000000000e+00  -3.8540462141869578e-11 -1.7274087671810379e-11 0.0000000000000000e+00  -5.4360128787455848e-11 -2.4364565922142410e-11 0.0000000000000000e+00  4.7604123741862016e-11 2.1336480191380094e-11 0.0000000000000000e+00  2.7593002697841446e-11 1.2367364614790051e-11 0.0000000000000000e+00  1.3540815122144747e-11 6.0690820651471664e-12 0.0000000000000000e+00  -1.0842438266425508e-11 -4.8596518770581725e-12 0.0000000000000000e+00  -1.0298092384027150e-13 -4.6156724856921702e-14 0.0000000000000000e+00  9.0330109574017295e-13 4.0486547007194769e-13 0.0000000000000000e+00  3.5728133828276967e-13 1.6013583693625426e-13 0.0000000000000000e+00  6.6362794093174844e-14 2.9744239160703337e-14 0.0000000000000000e+00  2.6808562318210007e-14 1.2015773296523505e-14 0.0000000000000000e+00  -2.4902178556087498e-15 -1.1161319602590139e-15 0.0000000000000000e+00  -4.2054409311426049e-15 -1.8849061818658619e-15 0.0000000000000000e+00  -1.9598463095111681e-16 -8.7841595799109438e-17 0.0000000000000000e+00  3.2365172647401715e-16 1.4506282456253282e-16 0.0000000000000000e+00  -5.0578796475770162e-17 -2.2669748002526811e-17 0.0000000000000000e+00  3.5345012854192712e-17 1.5841866362606411e-17 0.0000000000000000e+00  -8.6648877072633729e-18 -3.8836594478469489e-18 0.0000000000000000e+00  4.9022483546557272e-18 2.1972198349773934e-18 0.0000000000000000e+00  -1.3469469905779732e-17 -6.0371046716764571e-18 0.0000000000000000e+00  1.0648973500791247e-18 4.7729397014057271e-19 0.0000000000000000e+00  -9.7349690219681887e-17 -4.3632769049011508e-17 0.0000000000000000e+00  -8.7103356005773027e-17 -3.9040294914316275e-17 0.0000000000000000e+00  -4.0356777906726031e-15 -1.8088172299190492e-15 0.0000000000000000e+00  4.9778109512605273e-15 2.2310874859063351e-15 0.0000000000000000e+00  -5.9568474499466062e-15 -2.6698980598416356e-15 0.0000000000000000e+00  -2.1645061561266261e-14 -9.7014584229608947e-15 0.0000000000000000e+00  1.4692969233948329e-13 6.5854850876503758e-14 0.0000000000000000e+00  -4.6992355879061176e-13 -2.1062281826609119e-13 0.0000000000000000e+00  -9.9500587605257527e-13 -4.4596815351173966e-13 0.0000000000000000e+00  7.2034164146206041e-13 3.2286184380631377e-13 0.0000000000000000e+00  2.8218542378321826e-12 1.2647735598486059e-12 0.0000000000000000e+00  2.0974438449504547e-12 9.4008807499513808e-13 0.0000000000000000e+00  1.7398192580449712e-11 7.7979839177701798e-12 0.0000000000000000e+00  5.0745874835740746e-12 2.2744633618261478e-12 0.0000000000000000e+00  3.2043643542559428e-12 1.4362171004614713e-12 0.0000000000000000e+00  -4.1424832687125721e-10 -1.8566881450290107e-10 0.0000000000000000e+00  -3.6396831220774072e-10 -1.6313298246642079e-10 0.0000000000000000e+00  -1.5692505804616089e-10 -7.0334839281764328e-11 0.0000000000000000e+00  -4.2604288424355433e-10 -1.9095521240205618e-10 0.0000000000000000e+00  3.4028048820683626e-10 1.5251594453263058e-10 0.0000000000000000e+00  1.4657111847744823e-09 6.5694135721952147e-10 0.0000000000000000e+00  5.1040414073729955e-09 2.2876648034723010e-09 0.0000000000000000e+00  -1.2781572073356320e-08 -5.7287843556722276e-09 0.0000000000000000e+00  -1.3334512401466964e-07 -5.9766158339223631e-08 0.0000000000000000e+00  -1.5117178757964142e-07 -6.7756185759851046e-08 0.0000000000000000e+00  2.2447845192279809e-07 1.0061271306692702e-07 0.0000000000000000e+00  7.5675363390554391e-07 3.3918193741231921e-07 0.0000000000000000e+00  -1.4984311306954610e-07 -6.7160665138167608e-08 0.0000000000000000e+00  -1.0972193157224523e-06 -4.9178088693448223e-07 0.0000000000000000e+00  -2.0417175881579824e-07 -9.1511120154946906e-08 0.0000000000000000e+00  -1.3863889309939979e-06 -6.2138860330895023e-07 0.0000000000000000e+00  3.3466112471135288e-06 1.4999730899257322e-06 0.0000000000000000e+00  -1.2520504699370142e-05 -5.6117722479843158e-06 0.0000000000000000e+00  -1.7739390075584163e-07 -7.9509108708165623e-08 0.0000000000000000e+00  -1.1126911490297561e-05 -4.9871546400338653e-06 0.0000000000000000e+00  -2.0783047403195583e-06 -9.3150980288887720e-07 0.0000000000000000e+00  5.7782644165710128e-06 2.5898559741014052e-06 0.0000000000000000e+00  -7.1365723091976075e-06 -3.1986584720105715e-06 0.0000000000000000e+00  5.2170573024589317e-06 2.3383192681965719e-06 0.0000000000000000e+00  1.8321897843614529e-05 8.2119946693819817e-06 0.0000000000000000e+00  2.7339040769851476e-07 1.2253537214556555e-07 0.0000000000000000e+00  9.1939780472526463e-06 4.1208012051419081e-06 0.0000000000000000e+00  7.8018387725069679e-06 3.4968352600838162e-06 0.0000000000000000e+00  -1.7096869880624886e-08 -7.6629291092640848e-09 0.0000000000000000e+00  -1.6011052647718281e-06 -7.1762587105615061e-07 0.0000000000000000e+00  -1.1505065801326417e-06 -5.1566458801269371e-07 0.0000000000000000e+00  7.5034738956040282e-07 3.3631061671933805e-07 0.0000000000000000e+00  -3.3158409280239958e-07 -1.4861816312845355e-07 0.0000000000000000e+00  -1.8642741173450667e-07 -8.3557987521691462e-08 0.0000000000000000e+00  1.9273214413193380e-07 8.6383809894541037e-08 0.0000000000000000e+00  1.5655498399962675e-08 7.0168969669164344e-09 0.0000000000000000e+00  -7.6110512170438161e-10 -3.4113230275726399e-10 0.0000000000000000e+00  1.2910975688760033e-08 5.7867839040249332e-09 0.0000000000000000e+00  7.3267655829692799e-09 3.2839043435734675e-09 0.0000000000000000e+00  1.2282595573886406e-08 5.5051398190216851e-09 0.0000000000000000e+00  8.5413876565425932e-10 3.8283059158687870e-10 0.0000000000000000e+00  2.8786003501405939e-09 1.2902075392192108e-09 0.0000000000000000e+00  -1.6761270982497419e-09 -7.5125114840822411e-10 0.0000000000000000e+00  -5.1577396326942075e-10 -2.3117326999236900e-10 0.0000000000000000e+00  4.9381208881404280e-10 2.2132981395432229e-10 0.0000000000000000e+00  -8.5445446171327378e-12 -3.8297208862915171e-12 0.0000000000000000e+00  3.5525817408038084e-11 1.5922904148377914e-11 0.0000000000000000e+00  -1.1517694553470297e-12 -5.1623061695888575e-13 0.0000000000000000e+00  4.1920374823249143e-12 1.8788986682784778e-12 0.0000000000000000e+00  -2.0070262143298564e-12 -8.9956230048137728e-13 0.0000000000000000e+00  1.7093561744559249e-01 7.6614463810032660e-02 0.0000000000000000e+00  4.6367922871294972e-04 2.0782406860875183e-04 0.0000000000000000e+00  -2.3127074216560291e+02 -1.0365706206084126e+02 0.0000000000000000e+00  8.7643659453541289e+01 3.9282462459992779e+01 0.0000000000000000e+00  1.3421533547553987e-09 6.0156192818124072e-10 0.0000000000000000e+00  -6.0445648831033570e-04 -2.7092135881588193e-04 0.0000000000000000e+00  7.3828698347686131e-10 3.3090506368580407e-10 0.0000000000000000e+00  -2.4509462326014479e+00 -1.0985301614963190e+00 0.0000000000000000e+00  -1.6483337935764774e-03 -7.3879400713555211e-04 0.0000000000000000e+00  -2.4822684448582674e-05 -1.1125689822714229e-05 0.0000000000000000e+00  -3.5515090593482533e-02 -1.5918096319805727e-02 0.0000000000000000e+00  -1.8947144138956395e-04 -8.4922341559364747e-05 0.0000000000000000e+00  1.9363251586922443e-07 8.6787362406961120e-08 0.0000000000000000e+00  1.2644997078095174e-01 5.6675705478763161e-02 0.0000000000000000e+00  -1.9835479527540599e-14 -8.8903918979969569e-15 0.0000000000000000e+00  -4.1058381048575233e-06 -1.8402635424684565e-06 0.0000000000000000e+00  1.6654603734993076e-03 7.4647025248041066e-04 0.0000000000000000e+00  -3.6374877628247489e-02 -1.6303458502618787e-02 0.0000000000000000e+00  1.4473475244486332e-07 6.4871064433195168e-08 0.0000000000000000e+00  8.4919531128492568e-07 3.8061490294611501e-07 0.0000000000000000e+00  -2.0737681182540705e+03 -9.2947645915250303e+02 0.0000000000000000e+00  3.7431744950685997e-01 1.6777153361753369e-01 0.0000000000000000e+00  8.2847413289115086e-08 3.7132753501265068e-08 0.0000000000000000e+00  -1.8691173647731744e-13 -8.3775065045000358e-14 0.0000000000000000e+00  -1.5344590152299426e-05 -6.8775458530596726e-06 0.0000000000000000e+00  -5.1484936122092820e-03 -2.3075885729569646e-03 0.0000000000000000e+00  2.2002639053494671e-10 9.8617269980361510e-11 0.0000000000000000e+00  1.2910044153027536e-07 5.7863663836056350e-08 0.0000000000000000e+00  -3.1535520892304446e-18 -1.4134427103251383e-18 0.0000000000000000e+00  2.1936629808653563e-02 9.8321412219669023e-03 0.0000000000000000e+00  1.7111383531761065e-03 7.6694342228059782e-04 0.0000000000000000e+00  9.0689557146261554e-08 4.0647653764386976e-08 0.0000000000000000e+00  -5.4460835372289006e-10 -2.4409703273353493e-10 0.0000000000000000e+00  -3.5715242282509219e-02 -1.6007805618339421e-02 0.0000000000000000e+00  2.7157951651098945e-06 1.2172371884929168e-06 0.0000000000000000e+00  -1.7828202163158433e-11 -7.9907170304164602e-12 0.0000000000000000e+00  1.3092236236410405e+04 5.8680260692077773e+03 0.0000000000000000e+00  -8.8657275893657302e-03 -3.9736771990264994e-03 0.0000000000000000e+00  -2.2880018247510312e-21 -1.0254974101899594e-21 0.0000000000000000e+00  -4.6387958772109966e-01 -2.0791387082907503e-01 0.0000000000000000e+00  9.2032659445871410e-07 4.1249641015870022e-07 0.0000000000000000e+00  9.1804815934753356e-13 4.1147520061222032e-13 0.0000000000000000e+00  6.1040714108571160e-06 2.7358848038198965e-06 0.0000000000000000e+00  -3.7852104087310605e-05 -1.6965561081229337e-05 0.0000000000000000e+00  1.3739482753474386e-10 6.1581261992965295e-11 0.0000000000000000e+00  -8.8215866448154213e-05 -3.9538929384415828e-05 0.0000000000000000e+00  1.9593945097219769e-04 8.7821345836512312e-05 0.0000000000000000e+00  4.9269157760878828e-03 2.2082759348989764e-03 0.0000000000000000e+00  -8.5688332472333837e+00 -3.8406072094560706e+00 0.0000000000000000e+00  -1.8033486155822264e-04 -8.0827266610703394e-05 0.0000000000000000e+00  4.1607605647518784e-09 1.8648801488774401e-09 0.0000000000000000e+00  1.1776728836602549e-04 5.2784070326340219e-05 0.0000000000000000e+00  -3.0886305074875039e-05 -1.3843444319834808e-05 0.0000000000000000e+00  -2.0333837879797968e-08 -9.1137593770163904e-09 0.0000000000000000e+00  1.0190196288545837e+02 4.5673127486986260e+01 0.0000000000000000e+00  7.9809801123815316e-01 3.5771275824552423e-01 0.0000000000000000e+00  -7.5796088586098146e-06 -3.3972303564937252e-06 0.0000000000000000e+00  -9.5545591413053767e-10 -4.2824160142361977e-10 0.0000000000000000e+00  -2.7587504647496638e+02 -1.2364900352599051e+02 0.0000000000000000e+00  -1.2043515954384552e-04 -5.3979827669703491e-05 0.0000000000000000e+00  1.2836768044498837e-03 5.7535235516148421e-04 0.0000000000000000e+00  -2.3567256522977143e-07 -1.0562998800154089e-07 0.0000000000000000e+00  2.5967620054871190e-12 1.1638857463745669e-12 0.0000000000000000e+00  -1.8440879885636474e-04 -8.2653232002566528e-05 0.0000000000000000e+00  -4.6706612494508030e-09 -2.0934209769293321e-09 0.0000000000000000e+00  8.9426497642117587e-16 4.0081542218319317e-16 0.0000000000000000e+00  -2.7163597405468061e-16 -1.2174902349031713e-16 0.0000000000000000e+00  -1.6421373272716679e-06 -7.3601671033483676e-07 0.0000000000000000e+00  3.1904733052359395e-10 1.4299910412683674e-10 0.0000000000000000e+00  -5.6276390508212395e-16 -2.5223446981861755e-16 0.0000000000000000e+00  -9.7566864138908701e-07 -4.3730107822660527e-07 0.0000000000000000e+00  2.6441730510917711e-12 1.1851356876796875e-12 0.0000000000000000e+00  3.5691974310846845e-04 1.5997376760974771e-04 0.0000000000000000e+00  -1.0346767058111543e+02 -4.6374887935619363e+01 0.0000000000000000e+00  -2.9859100465429527e-14 -1.3383044483031280e-14 0.0000000000000000e+00  2.0378927728701723e-08 9.1339689427503229e-09 0.0000000000000000e+00  -5.2830119471040343e-15 -2.3678805721002018e-15 0.0000000000000000e+00  1.2190910333201944e-02 5.4640458933711668e-03 0.0000000000000000e+00  -2.6494429217759359e-08 -1.1874976782516288e-08 0.0000000000000000e+00  5.1103864437719304e-05 2.2905086903627186e-05 0.0000000000000000e+00  6.5233745687723240e-06 2.9238192267189302e-06 0.0000000000000000e+00  1.0383104350264448e-09 4.6537754060082300e-10 0.0000000000000000e+00  8.8033002366409577e-04 3.9456968504744601e-04 0.0000000000000000e+00  -5.3958579164343336e-06 -2.4184588749873595e-06 0.0000000000000000e+00  -1.4353823790492504e+00 -6.4334778776126345e-01 0.0000000000000000e+00  -1.3814756551154071e-03 -6.1918644086548591e-04 0.0000000000000000e+00  2.1000734336986595e-09 9.4126667390269919e-10 0.0000000000000000e+00  1.1642916380862146e-08 5.2184314131530967e-09 0.0000000000000000e+00  -5.5281239907311686e-14 -2.4777413961724776e-14 0.0000000000000000e+00  2.2380227471484730e+02 1.0030964601161182e+02 0.0000000000000000e+00  1.4540194304814992e-03 6.5170103633414378e-04 0.0000000000000000e+00  -1.7708915845572532e-07 -7.9372521212402169e-08 0.0000000000000000e+00  -7.9924618739210986e-06 -3.5822737832125429e-06 0.0000000000000000e+00  1.4640643961911129e-11 6.5620325578572811e-12 0.0000000000000000e+00  2.3378093639970306e+01 1.0478214756483712e+01 0.0000000000000000e+00  -1.1179769489826598e-11 -5.0108459417795448e-12 0.0000000000000000e+00  2.4590859011754129e+00 1.1021784142870759e+00 0.0000000000000000e+00  4.2337797346957340e-01 1.8976078193109217e-01 0.0000000000000000e+00  -7.1480841724399309e-07 -3.2038181645482888e-07 0.0000000000000000e+00  -1.6494994181843154e-10 -7.3931644772264572e-11 0.0000000000000000e+00  -1.4309943386992086e-04 -6.4138103932334732e-05 0.0000000000000000e+00  5.2046738379733501e-09 2.3327689182703754e-09 0.0000000000000000e+00  -5.7268687453522092e-04 -2.5668200974864042e-04 0.0000000000000000e+00  1.1178200069352144e-07 5.0101425172391308e-08 0.0000000000000000e+00  -4.2348787