<?xml version="1.0"?>
<VTKFile type="UnstructuredGrid"  version="0.1"  >
<UnstructuredGrid>
<Piece  NumberOfPoints="572" NumberOfCells="1038">
<Points>
<DataArray  type="Float64"  NumberOfComponents="3"  format="ascii">0 0 0  4 0 0  4 -1 0  0 -1 0  0.09999999999999999 0 0  0.2 0 0  0.3 0 0  0.4 0 0  0.4999999999999998 0 0  0.5999999999999996 0 0  0.6999999999999995 0 0  0.7999999999999994 0 0  0.8999999999999992 0 0  0.999999999999999 0 0  1.099999999999999 0 0  1.199999999999999 0 0  1.299999999999999 0 0  1.399999999999999 0 0  1.499999999999998 0 0  1.599999999999998 0 0  1.699999999999999 0 0  1.799999999999999 0 0  1.899999999999999 0 0  2 0 0  2.1 0 0  2.200000000000001 0 0  2.300000000000001 0 0  2.400000000000002 0 0  2.500000000000002 0 0  2.600000000000002 0 0  2.700000000000003 0 0  2.800000000000003 0 0  2.900000000000004 0 0  3.000000000000004 0 0  3.100000000000005 0 0  3.200000000000005 0 0  3.300000000000005 0 0  3.400000000000004 0 0  3.500000000000004 0 0  3.600000000000003 0 0  3.700000000000002 0 0  3.800000000000002 0 0  3.900000000000001 0 0  4 -0.08333333333333325 0  4 -0.1666666666666665 0  4 -0.2499999999999997 0  4 -0.333333333333333 0  4 -0.4166666666666666 0  4 -0.5000000000000001 0  4 -0.5833333333333337 0  4 -0.6666666666666673 0  4 -0.7500000000000006 0  4 -0.8333333333333337 0  4 -0.9166666666666669 0  3.9 -1 0  3.8 -1 0  3.7 -1 0  3.6 -1 0  3.5 -1 0  3.4 -1 0  3.300000000000001 -1 0  3.200000000000001 -1 0  3.100000000000001 -1 0  3.000000000000001 -1 0  2.900000000000001 -1 0  2.800000000000001 -1 0  2.700000000000001 -1 0  2.600000000000001 -1 0  2.500000000000002 -1 0  2.400000000000002 -1 0  2.300000000000002 -1 0  2.200000000000001 -1 0  2.100000000000001 -1 0  2 -1 0  1.9 -1 0  1.799999999999999 -1 0  1.699999999999999 -1 0  1.599999999999998 -1 0  1.499999999999998 -1 0  1.399999999999998 -1 0  1.299999999999997 -1 0  1.199999999999997 -1 0  1.099999999999996 -1 0  0.9999999999999956 -1 0  0.899999999999995 -1 0  0.7999999999999949 -1 0  0.6999999999999953 -1 0  0.5999999999999956 -1 0  0.499999999999996 -1 0  0.3999999999999968 -1 0  0.2999999999999976 -1 0  0.1999999999999984 -1 0  0.0999999999999992 -1 0  0 -0.9166666666666667 0  0 -0.8333333333333335 0  0 -0.7500000000000002 0  0 -0.666666666666667 0  0 -0.5833333333333335 0  0 -0.4999999999999999 0  0 -0.4166666666666663 0  0 -0.3333333333333327 0  0 -0.2499999999999994 0  0 -0.1666666666666663 0  0 -0.08333333333333315 0  3.491090701185765 -0.499339806301727 0  0.4950203227078167 -0.4989128584675094 0  2.64262313781888 -0.4879297506908338 0  1.449999999999998 -0.5 0  2.058402291097397 -0.5120941233772698 0  0.9749999999999992 -0.4749999999999993 0  3.081769880806683 -0.5597407802610527 0  1.745473944409859 -0.3290615136625714 0  2.347280045777389 -0.6545118286598804 0  2.335768673639667 -0.3237239238763549 0  1.750327526220345 -0.682828817540943 0  3.707492972392909 -0.3028030525063309 0  0.293580296675358 -0.7109385489008262 0  3.71498825372084 -0.7080088716251347 0  0.2918697062415769 -0.2988161261649331 0  3.250413907284768 -0.3098344370860925 0  0.7481958762886598 -0.6907216494845363 0  2.897531957111618 -0.3144800466372323 0  1.202975631932859 -0.6871206495416401 0  0.7276881720430104 -0.301075268817204 0  1.222241507685503 -0.2908020883113388 0  2.821785532795642 -0.7097679058139483 0  3.313580174540806 -0.7110306688463971 0  1.50219738324048 -0.2570217529780842 0  2.109436430026117 -0.7485141141565509 0  2.001923272149049 -0.2612004201407864 0  2.591779594323503 -0.2533220405676498 0  1.508220405676497 -0.7466779594323502 0  2.584305190871683 -0.7502831919469019 0  3.478286033189422 -0.23795222571263 0  0.5261060937617643 -0.7658117832712512 0  3.785135972681774 -0.5040707172464052 0  0.2090645029521114 -0.4969048262114374 0  0.9574438986108131 -0.2423163095862805 0  0.9754244626643473 -0.7628641460288867 0  0.5097271592765806 -0.2292760602594508 0  3.047448237147327 -0.7984168297371277 0  3.522893514415914 -0.785726174019542 0  3.27411286219494 -0.5150314861460955 0  2.876192398366876 -0.5166549013936721 0  3.072152863254761 -0.2028141497170135 0  2.188888454287124 -0.1960738743988359 0  1.911111545712876 -0.8039261256011641 0  0.6968885413728847 -0.4974520678389611 0  1.252104989604988 -0.4970114345114344 0  1.649610740490046 -0.5028202775347195 0  2.446694231298332 -0.485633542353709 0  1.845992484168205 -0.4989419599210881 0  2.246214131289309 -0.4959316037735846 0  2.743080194417513 -0.1797603284198384 0  1.345217800961618 -0.8177514544794908 0  3.831771135951664 -0.1764827624326512 0  0.168177957407361 -0.823589473522286 0  3.837430960455357 -0.8286944021295046 0  0.167391597779325 -0.1752538625856722 0  3.066111254276541 -0.3870061788029396 0  1.358909159394344 -0.1720779287034414 0  1.669284305949535 -0.172759019086266 0  2.264869859182613 -0.8283162784008133 0  2.434165412425708 -0.1697954173687042 0  1.668706113475668 -0.8314479749300888 0  1.842683258862577 -0.1656794186994128 0  3.848464877921415 -0.3616620315967092 0  0.151535122078585 -0.6383379684032905 0  3.848707346075076 -0.6466646759135177 0  0.1509968549082652 -0.3452619778382686 0  2.732975255829699 -0.3508363638623346 0  1.370252652534258 -0.6495109932111033 0  1.11832587037856 -0.1733419061976365 0  2.439737645513045 -0.836456385212641 0  3.331229791744127 -0.165499768727795 0  0.6726591332606813 -0.8336090461037186 0  1.132616756253317 -0.8280723285747189 0  1.950606351728588 -0.6518091391595896 0  2.153824719141371 -0.3536025000168445 0  3.62532407618639 -0.1564302309141494 0  0.3803710983093131 -0.8404803223371928 0  1.377912260103223 -0.3517997484404782 0  0.8924624300191402 -0.6125774599817652 0  3.207249628251628 -0.8375220474312923 0  0.6546785576266954 -0.155978749966339 0  2.719684587363634 -0.8327734580127736 0  3.647699282718985 -0.5637569936419204 0  0.3570156455557587 -0.5653989322146081 0  0.8322251523939386 -0.8403847541693579 0  0.3645988133126639 -0.1519337183240305 0  1.061404500324257 -0.6180105656135877 0  3.396758647231262 -0.3766313243368538 0  0.8148021518360848 -0.1629813466347811 0  0.6093556516052328 -0.6299486913462624 0  0.415997866655875 -0.3680522660477806 0  0.5920160015096863 -0.3645412637424194 0  3.572255424430109 -0.362089200459548 0  1.08043890485706 -0.3398660584513152 0  2.923658429424994 -0.1561137197110593 0  3.653613361778262 -0.8546909554159527 0  3.456739790681186 -0.6487708965425909 0  0.8424839600900655 -0.4190496412612194 0  2.6968241495241 -0.6460539373019687 0  2.90777185621417 -0.8467190841342236 0  3.167421855912535 -0.6853653881872064 0  3.378998015397395 -0.8550267917096944 0  2.549623533286458 -0.6074164390661531 0  1.563854363100012 -0.3870450365840445 0  1.945115925347995 -0.3956210114182645 0  2.206384380497951 -0.6363666106481864 0  2.9679770331043 -0.6663940397605803 0  2.492817266347368 -0.3527603982764793 0  1.545918816851176 -0.6075709531787901 0  2.028456012399734 -0.8701972194942087 0  2.065700499244939 -0.1359115819594244 0  1.113999927383315 -0.4803729266898425 0  3.194766700972084 -0.1349664610116483 0  1.791586588241401 -0.8656156413257059 0  2.307333345265183 -0.1346440826116952 0  2.64093544674549 -0.1331489671463476 0  0.4565707965077976 -0.6534785968762363 0  1.459077473581533 -0.8718776489042938 0  1.56279060907849 -0.1324694119967317 0  0.3144726782861624 -0.406319735913186 0  3.686635179527132 -0.4155119011072678 0  3.583227123430988 -0.6879918386850498 0  3.884530589958141 -0.5337716741137969 0  0.1138901561454064 -0.4712706309748976 0  2.551320204776417 -0.8759992125181354 0  2.968455986624249 -0.4231600805006418 0  1.843995631966074 -0.2713141166917306 0  1.23826657576458 -0.1310261345083986 0  1.632298315745049 -0.7047459448475459 0  3.454977942639006 -0.1019833897113779 0  2.11213131937471 -0.6131325843633801 0  1.631670858552932 -0.3027829344070553 0  0.549999999999996 -0.8847857258099061 0  2.175907031111534 -0.8808902127996396 0  2.440789547527098 -0.7252338716820566 0  0.9499999999999957 -0.8853403742417534 0  0.1192006629558211 -0.7258150973260704 0  0.1086302422397907 -0.2553484983400458 0  3.891615894289125 -0.7428762999771643 0  3.880790852604017 -0.2741969419997524 0  2.58999033724616 -0.3943081590477266 0  0.95310975133633 -0.1100375897447476 0  0.9389274183125247 -0.357418794071099 0  0.5436861363815539 -0.1129935035840732 0  1.237622314162623 -0.8886349339205675 0  2.766143121931948 -0.4669467935657355 0  3.157965388639583 -0.4824178848815803 0  3.732166646772587 -0.1061123528525496 0  0.8463407040907105 -0.2803849511418723 0  0.2658218649297859 -0.8967607408767373 0  3.384357462435764 -0.5450459842617623 0  1.954320722194999 -0.1009956898074866 0  0.8013980381943526 -0.5278489923710374 0  3.744358883260304 -0.603637271636247 0  0.2581863795088786 -0.6001369967359219 0  0.2629966501688439 -0.1025990268626685 0  0.3980883060404261 -0.7330050441066103 0  1.076076863672032 -0.7275728344185368 0  1.749999999999999 -0.5550190100941714 0  2.351512610076122 -0.5440435521440684 0  0.8619623856291254 -0.7246873586411677 0  3.553081028189586 -0.8932001918706867 0  2.806636304103025 -0.6100531542467602 0  2.546714489935151 -0.08818853426728746 0  1.172246975380209 -0.5783812280673658 0  1.560837452008869 -0.9052833905541354 0  3.005913589025749 -0.2858329927011495 0  3.104244827324224 -0.8867193195303111 0  0.6392996137609843 -0.7340215588892431 0  3.370409685921998 -0.2678372406131186 0  1.860045411420065 -0.6863616357695403 0  2.239306624928278 -0.3159929711989559 0  0.620090528303912 -0.2611000972275821 0  1.457468991263225 -0.08750102207080079 0  1.752790718352056 -0.1005001786212033 0  0.394717592657301 -0.2605042194828123 0  3.745581301416776 -0.9074819423317642 0  3.141158115761163 -0.2920724092797614 0  3.257376892791448 -0.6242591031763242 0  2.350280737493299 -0.9013197570937703 0  3.914203942485891 -0.125 0  3.914203942485891 -0.8750000000000003 0  0.08579605751410901 -0.1249999999999997 0  0.08579605751410968 -0.875 0  3.921126745430668 -0.4525
[...]
<PointData  Vectors="flow"> 
<DataArray  type="Float64"  Name="flow"  NumberOfComponents="3" format="ascii">-9.5869087752130984e+00 2.1488729767111106e+01 0.0000000000000000e+00  7.4659757272494760e+00 1.4596642459925789e+01 0.0000000000000000e+00  2.6451783025402399e+01 -7.8259832178624393e+01 0.0000000000000000e+00  -2.1724881690575309e+01 -6.1836619689394063e+01 0.0000000000000000e+00  5.7393956132155619e+00 2.2570071899281665e+01 0.0000000000000000e+00  -3.8517249187014451e+00 -3.8942607855689562e+00 0.0000000000000000e+00  1.9690958147933819e+00 1.0752858451541534e+00 0.0000000000000000e+00  -2.4259470262216018e-01 -5.5705993378848895e-01 0.0000000000000000e+00  -1.0744410278985043e-01 -1.5306931469167992e-01 0.0000000000000000e+00  1.6595486525600314e-01 -1.4005715416904860e-01 0.0000000000000000e+00  -1.0683931811019745e-01 -3.2865832317986937e-01 0.0000000000000000e+00  9.3127717175517072e-02 -2.9476424104309444e-02 0.0000000000000000e+00  -2.8945402645606241e-02 -7.3859055090457773e-02 0.0000000000000000e+00  2.7396843417609819e-02 -7.3229577759177386e-03 0.0000000000000000e+00  -3.4083848516760960e-02 -1.1196003183277382e-02 0.0000000000000000e+00  1.9944475331963734e-02 -2.0979078194622433e-01 0.0000000000000000e+00  -1.1584225556238979e-02 -1.8455112622510725e-01 0.0000000000000000e+00  2.5492587686919501e-02 1.3971066218814401e-02 0.0000000000000000e+00  -8.5928290801326745e-03 -1.5829307261767938e-02 0.0000000000000000e+00  -1.5867911334086283e-03 -1.8538905982981680e-02 0.0000000000000000e+00  5.1189995082450744e-03 3.4668807531285832e-03 0.0000000000000000e+00  -2.7029140827482252e-03 3.2918722169591416e-03 0.0000000000000000e+00  5.4742285074598045e-03 -2.0290846568459800e-03 0.0000000000000000e+00  -4.9865929262553127e-03 2.2105726451797415e-02 0.0000000000000000e+00  3.5091014458121868e-03 2.6376294169597529e-02 0.0000000000000000e+00  -4.9127943665972958e-03 -6.7455415611942619e-03 0.0000000000000000e+00  2.1862046545225809e-03 -4.7302092955702740e-03 0.0000000000000000e+00  2.3631118309618403e-03 -8.7985703325571055e-03 0.0000000000000000e+00  -1.4558164080486017e-02 2.3264479901629189e-02 0.0000000000000000e+00  5.7554153763061033e-03 -8.1817989038433167e-02 0.0000000000000000e+00  -7.3889239403419080e-03 -8.3397917292156315e-02 0.0000000000000000e+00  3.8722805858084118e-03 9.7401639723697624e-04 0.0000000000000000e+00  -3.2640194215804758e-03 -5.0211045836541283e-02 0.0000000000000000e+00  -1.9306420816334702e-02 -4.0016693876965527e-02 0.0000000000000000e+00  5.8942283747147835e-02 -1.5520844627281585e-01 0.0000000000000000e+00  -1.5368386272542262e-01 -5.0665225282131943e-01 0.0000000000000000e+00  1.6711921640313721e-01 -8.9249590132925008e-02 0.0000000000000000e+00  -1.3775156903441041e-01 3.2612955269472173e-02 0.0000000000000000e+00  -3.7462138662465332e-02 -1.8663857220836563e-01 0.0000000000000000e+00  5.1197151900401849e-01 -1.0030288809829515e+00 0.0000000000000000e+00  -2.1608206484857826e+00 1.6396615659915226e+00 0.0000000000000000e+00  3.3272491067520025e+00 -4.6645431792772909e+00 0.0000000000000000e+00  -3.9567418307612292e+00 1.3513992930011277e+01 0.0000000000000000e+00  7.7284465260211981e+00 -9.3984321673936062e+00 0.0000000000000000e+00  -3.1326328173649536e+00 4.4834371826798636e+00 0.0000000000000000e+00  6.6924303705905981e+00 -4.6197662022714150e-02 0.0000000000000000e+00  6.5460333612233921e+00 -2.9613804797041560e-01 0.0000000000000000e+00  -2.7460615161322028e+00 -3.5325358740270874e+00 0.0000000000000000e+00  1.1322204568525159e+01 9.9756923258614787e+00 0.0000000000000000e+00  5.8079383018721380e+00 -1.3684976825138776e+01 0.0000000000000000e+00  1.3721433594439700e+01 1.0977469094743228e+01 0.0000000000000000e+00  1.0899471218681695e+01 9.6170971153236451e+00 0.0000000000000000e+00  -7.4945969794067615e+00 -3.8247329810349555e+01 0.0000000000000000e+00  2.9705775230377157e+01 5.5795838612466625e+01 0.0000000000000000e+00  -1.8089396462217586e+01 -9.7393693776255134e+01 0.0000000000000000e+00  1.6788940035027785e+01 1.5954440904557526e+01 0.0000000000000000e+00  -7.6322380497466211e+00 -6.0460624189716228e+00 0.0000000000000000e+00  1.8060110444115041e-01 -2.3405237039444278e+00 0.0000000000000000e+00  9.6937110046263764e-01 8.6205755852997257e-01 0.0000000000000000e+00  -6.0974940592991833e-01 3.5349703153661804e-01 0.0000000000000000e+00  2.8182286481274876e-01 2.5616645456325110e-01 0.0000000000000000e+00  -8.7551968986961798e-02 1.3111618407922071e-01 0.0000000000000000e+00  -5.6360990112639986e-01 1.4690559409924031e+00 0.0000000000000000e+00  5.5067502628690401e-01 1.5725570523271539e+00 0.0000000000000000e+00  6.2409369730380845e-02 4.7927705940969240e-01 0.0000000000000000e+00  -1.8970284736382187e-01 -1.6260423852370134e-01 0.0000000000000000e+00  1.4471929910699829e-01 7.0119607708243187e-02 0.0000000000000000e+00  -8.6419996097954935e-02 2.6596028759573193e-01 0.0000000000000000e+00  4.1526322203924708e-02 3.8201411051998557e-01 0.0000000000000000e+00  -4.2185217109588925e-02 -1.8906678820746869e-02 0.0000000000000000e+00  5.6722423044715765e-03 3.1420494695077905e-02 0.0000000000000000e+00  2.5147933470238532e-03 2.3609688256272049e-02 0.0000000000000000e+00  3.1744512495224683e-02 7.1541385218171646e-02 0.0000000000000000e+00  -2.9989286872635374e-02 1.2555313224829431e-01 0.0000000000000000e+00  1.4712649957876491e-03 6.0046459454063339e-02 0.0000000000000000e+00  5.0241893561387132e-03 4.4362766333652562e-02 0.0000000000000000e+00  -1.3336466639934000e-02 7.8439468283742347e-02 0.0000000000000000e+00  4.3344045574007249e-02 -7.5778544669275402e-02 0.0000000000000000e+00  -1.9648247695154091e-02 2.5233027417001885e-01 0.0000000000000000e+00  1.7229236345069579e-02 2.8480387351227476e-01 0.0000000000000000e+00  -1.2713910922760311e-02 -1.7314790207802511e-02 0.0000000000000000e+00  6.2439788217931642e-04 9.2690097820044823e-02 0.0000000000000000e+00  -2.0324927745442402e-02 1.2694088205399132e-01 0.0000000000000000e+00  3.5334140433069199e-02 -7.9223895809076433e-02 0.0000000000000000e+00  -4.3392477782280954e-02 1.8456732066162396e-01 0.0000000000000000e+00  1.1106489006112470e-01 1.7759191591029935e-01 0.0000000000000000e+00  -1.5742883628571414e-01 8.0788776764142783e-02 0.0000000000000000e+00  3.1756686956692992e-01 -1.5671894937947000e-02 0.0000000000000000e+00  -6.9451991175571270e-01 1.0621352816862859e+00 0.0000000000000000e+00  -1.1266670613203664e+00 -8.4647468851942365e-01 0.0000000000000000e+00  7.2836201898704243e+00 -8.0066876689192128e+00 0.0000000000000000e+00  -1.4203866117975272e+01 1.3702675125736988e+01 0.0000000000000000e+00  1.4769933776968980e+01 -7.3196795086378870e+01 0.0000000000000000e+00  -3.1112617303524988e+01 4.0089778288022892e+01 0.0000000000000000e+00  1.3857448615771377e+01 -2.0989455313199873e+01 0.0000000000000000e+00  -1.6818701276098551e+01 5.6774896700924744e+00 0.0000000000000000e+00  -7.7075835911464985e+00 2.3113111296731098e-01 0.0000000000000000e+00  2.6836977368849633e+00 3.7672517894978639e+00 0.0000000000000000e+00  -1.8473287662723699e+01 -1.3224889762100354e+01 0.0000000000000000e+00  -5.5102286636267088e+00 1.4894939364835995e+01 0.0000000000000000e+00  -5.5257543837446557e+00 -1.1602701712394508e+01 0.0000000000000000e+00  -6.5542152529566788e+00 1.1992979228418821e+00 0.0000000000000000e+00  -7.2070544981992246e-01 1.2570961358272406e+01 0.0000000000000000e+00  -6.2897807449152596e+00 -1.6586008308807273e+01 0.0000000000000000e+00  3.1844792544725464e-01 3.9015332152968575e-02 0.0000000000000000e+00  -9.4155879849534746e-02 -2.8138376689607220e-01 0.0000000000000000e+00  1.1029024180952651e-02 -1.5542247939778117e-02 0.0000000000000000e+00  9.4428533344942161e-04 -6.8694702645179131e-04 0.0000000000000000e+00  -1.8423864558342934e-03 5.6088168737294143e-03 0.0000000000000000e+00  -2.1248970947372259e-02 1.7720157749779992e-02 0.0000000000000000e+00  1.5081750340530602e-02 -3.2753831674558445e-03 0.0000000000000000e+00  1.4013963596265001e-03 6.5921118219903921e-04 0.0000000000000000e+00  5.3735836312572092e-03 5.1005643190095316e-03 0.0000000000000000e+00  1.9463076690834596e-03 1.2020387436892049e-04 0.0000000000000000e+00  4.4488772528689510e-03 -1.5239450062351303e-03 0.0000000000000000e+00  -3.8141109835541614e-01 4.7232408100906287e-01 0.0000000000000000e+00  -2.1522058268117576e+00 1.8342714790831531e+00 0.0000000000000000e+00  -1.5865756151979857e+00 -6.1378005124765567e-01 0.0000000000000000e+00  3.0334471721295944e+00 2.8048342949030163e+00 0.0000000000000000e+00  6.1482882758722303e-02 -2.3241320157215964e-03 0.0000000000000000e+00  3.3310088892020411e-02 1.1007732891354278e-02 0.0000000000000000e+00  8.6282361113373552e-03 3.5241801867926426e-03 0.0000000000000000e+00  -9.2683130948067443e-03 -6.7476014361207192e-03 0.0000000000000000e+00  2.7271553859708284e-02 -5.0914214861044638e-02 0.0000000000000000e+00  -1.0859342943853004e-02 -1.3810636571787402e-02 0.0000000000000000e+00  -4.2545907971247604e-02 -3.6664871923342188e-03 0.0000000000000000e+00  2.4070995878519616e-02 -6.9929674565964162e-02 0.0000000000000000e+00  8.0360218154168061e-04 -6.0584737544173246e-04 0.0000000000000000e+00  2.5855822522001569e-03 -6.6046069690476267e-03 0.0000000000000000e+00  -1.0495082606990040e-03 -3.4847546338434583e-03 0.0000000000000000e+00  3.9877483152029871e-03 1.0499081074292881e-02 0.0000000000000000e+00  5.8908809317359074e-03 -3.4251415285265166e-02 0.0000000000000000e+00  1.5171634224535883e-02 -2.0402707349580541e-02 0.0000000000000000e+00  1.6506711978140071e-01 -3.2697131654674326e-02 0.0000000000000000e+00  1.3387451208268975e+00 2.1949698369831894e-01 0.0000000000000000e+00  -2.4610237844492051e+00 3.5264727570632939e+00 0.0000000000000000e+00  5.8238139734702232e-01 -1.8813885686808780e+00 0.0000000000000000e+00  -5.1391652529535786e-02 -2.7179524336125725e-02 0.0000000000000000e+00  -4.7029246839456203e-02 -3.8173811289263927e-02 0.0000000000000000e+00  3.1534866225157443e-01 9.3111215073547873e-02 0.0000000000000000e+00  -1.3128354075347294e-02 3.2875864273736649e-01 0.0000000000000000e+00  3.5607118287285899e-01 1.4429848812921384e-01 0.0000000000000000e+00  5.9727019433380421e-02 -3.6382361144591112e-02 0.0000000000000000e+00  9.6931816474186278e-03 2.8738750125900422e-02 0.0000000000000000e+00  3.0820027361573892e-02 -3.4811961039185229e-03 0.0000000000000000e+00  5.2904483323194433e-03 -9.0029054923883398e-04 0.0000000000000000e+00  2.5887200114613953e-02 1.4674520640841146e-02 0.0000000000000000e+00  -6.0948046674098921e-02 -4.3525955018618459e-02 0.0000000000000000e+00  3.1663393536765068e-02 -1.6904688393559700e-02 0.0000000000000000e+00  -1.0861446347476203e-02 4.5896887642451261e-03 0.0000000000000000e+00  7.8163543678228895e-03 5.9802290787614668e-04 0.0000000000000000e+00  -3.1812062179701044e-03 2.6927309801583767e-03 0.0000000000000000e+00  1.1356573450195977e-03 -6.8840312655112155e-04 0.0000000000000000e+00  9.3128339888686306e-03 -9.6840588876076945e-03 0.0000000000000000e+00  -4.7795925131141415e-03 2.9828158362115706e-02 0.0000000000000000e+00  1.2495665230036017e+00 1.1962664740421984e+00 0.0000000000000000e+00  -2.9620717020402170e+00 -4.8102636329532551e+00 0.0000000000000000e+00  3.7205260821794468e+00 -5.9852417542343259e+00 0.0000000000000000e+00  -1.3167817439432279e+00 1.9547206097071244e+00 0.0000000000000000e+00  9.7458704517413841e-03 -8.0700789496308892e-03 0.0000000000000000e+00  1.0692290601016929e-02 -1.2787402216928275e-02 0.0000000000000000e+00  7.4671153588728165e-04 1.0851858979225610e-03 0.0000000000000000e+00  -1.0725133072774814e-03 5.3797160421234546e-03 0.0000000000000000e+00  1.2224944199838099e-03 -1.7618735810788308e-03 0.0000000000000000e+00  -3.9687134019107248e-03 5.7134465915881748e-03 0.0000000000000000e+00  7.7363333668720375e-04 1.7667169332990284e-04 0.0000000000000000e+00  1.9116943044291141e+00 3.2497864690916027e+00 0.0000000000000000e+00  -2.2998295518804666e+00 -5.8858196438756796e+00 0.0000000000000000e+00  5.4531569977068237e+00 -4.9244051802557900e+00 0.0000000000000000e+00  7.1051646219384493e-02 5.1199602769564390e+00 0.0000000000000000e+00  4.3376090269569697e-03 -4.3886540021618086e-03 0.0000000000000000e+00  1.1616187657860962e-02 -2.1150333133530702e-03 0.0000000000000000e+00  -1.6263509756034279e-02 -1.1172994116630310e-02 0.0000000000000000e+00  -1.1342898273364883e-02 2.4221296700406313e-02 0.0000000000000000e+00  6.1034780881906836e-02 1.9751931856087326e-02 0.0000000000000000e+00  3.0595389849084992e-01 -7.8735144781867245e-02 0.0000000000000000e+00  -2.3343208341225722e-02 -1.1519613560261441e-02 0.0000000000000000e+00  8.9697617334992953e-04 9.7533097606469030e-03 0.0000000000000000e+00  1.4072013144439947e-04 1.5259956544380114e-03 0.0000000000000000e+00  4.8394130389885448e-01 -2.3051406460757687e-01 0.0000000000000000e+00  -6.4085126668358028e-01 -1.5202848230453084e-01 0.0000000000000000e+00  4.8171270518030333e-03 1.7580478641038455e-03 0.0000000000000000e+00  -7.5304880307817288e-03 -2.6682349940989235e-02 0.0000000000000000e+00  2.0208756013556102e-02 -1.1956158946844774e-02 0.0000000000000000e+00  5.2403182356236630e-02 3.6627172755983914e-02 0.0000000000000000e+00  -2.6199728387005985e-02 1.1836937071857439e-02 0.0000000000000000e+00  -3.0603598526273906e-02 1.4060367746136024e-01 0.0000000000000000e+00  6.0163642433821296e-01 6.9468143788899511e-02 0.0000000000000000e+00  3.8249098681381204e-02 -1.2234027133803558e-02 0.0000000000000000e+00  -4.7075254949409268e-01 1.5124649554335182e-01 0.0000000000000000e+00  -3.0344112795607652e-02 -1.8295621932946312e-02 0.0000000000000000e+00  8.3610236648480746e-02 -1.8386742427818948e-02 0.0000000000000000e+00  -4.6326302908128669e-02 -6.6420810927043036e-02 0.0000000000000000e+00  -3.7585233145809617e-02 -2.8719713887974428e-02 0.0000000000000000e+00  1.3180007356646828e+00 -4.2647670610572441e-01 0.0000000000000000e+00  3.2392539608473675e-01 -5.2417588242840161e-03 0.0000000000000000e+00  1.9754529596727427e-01 -3.4926093555787996e-01 0.0000000000000000e+00  7.4431224267741897e-03 3.4851042896815225e-02 0.0000000000000000e+00  1.7578436128726834e-02 7.9934318552155898e-03 0.0000000000000000e+00  2.7749537522723298e+00 1.1959808640127829e+00 0.0000000000000000e+00  -4.8040335597141154e-01 2.3196045714920704e-01 0.0000000000000000e+00  -1.8228131292918361e-02 -1.0571475987258723e-01 0.0000000000000000e+00  3.4378231101980586e-02 -2.1255980269570839e-02 0.0000000000000000e+00  -1.1861346914250632e-02 -4.0555269494986126e-02 0.0000000000000000e+00  3.4266753632267576e-02 -1.4676339450230013e-02 0.0000000000000000e+00  -2.2840874895445318e-01 1.7494720931917420e-02 0.0000000000000000e+00  1.3272434077497798e-02 -9.0203319162639583e-03 0.0000000000000000e+00  8.2585186340908313e-03 -7.1762713185008200e-03 0.0000000000000000e+00  -5.3671922461943564e-04 -1.2674254952364373e-03 0.0000000000000000e+00  -1.4930012603799914e-02 6.6404559524710647e-03 0.0000000000000000e+00  -6.5604832542709463e-02 1.3315972150115429e-01 0.0000000000000000e+00  4.5286190641224055e-03 -2.7617356203118800e-03 0.0000000000000000e+00  2.2785567727499042e-03 -1.1011314518203931e-02 0.0000000000000000e+00  5.5360565793796807e-03 -1.7200163816462829e-02 0.0000000000000000e+00  -9.7765154579756010e-04 -6.4375909434412027e-03 0.0000000000000000e+00  -4.0737259905302692e-02 -3.3384848747034901e-02 0.0000000000000000e+00  3.0873456176086705e-02 8.6599278184843129e-02 0.0000000000000000e+00  -1.9348941982241317e-03 -1.6875953743304074e-02 0.0000000000000000e+00  2.1298671133822594e-03 2.9140505689404660e-03 0.0000000000000000e+00  -2.8963658486052426e-03 1.3841532271764555e-02 0.0000000000000000e+00  -3.6758890827117835e-01 -7.1046833526725639e-01 0.0000000000000000e+00  4.0685234173371138e-03 -2.8095628457421990e-02 0.0000000000000000e+00  2.5267994067638333e-03 4.1684676050530089e-03 0.0000000000000000e+00  -1.6763882192829522e+00 -7.8520793169611991e-01 0.0000000000000000e+00  -1.5867102237404879e-01 1.3238927973635366e+00 0.0000000000000000e+00  -1.6528957606572434e+00 -4.1965098181181626e-01 0.0000000000000000e+00  2.9015243542901024e+00 -1.9123417521640029e+00 0.0000000000000000e+00  -3.1875868317913719e-01 -4.1642121397570442e+00 0.0000000000000000e+00  4.9927775591237329e-03 -6.2497677250619249e-02 0.0000000000000000e+00  9.1643941227426227e-03 4.7817141183549511e-03 0.0000000000000000e+00  2.2750523540051852e-04 9.1575867969066608e-04 0.0000000000000000e+00  -5.9777903633222119e-03 1.4654400892748777e-02 0.0000000000000000e+00  -1.8371338148474959e-02 -3.8245786321376169e-03 0.0000000000000000e+00  3.2216106771478598e-01 -2.5187877280626687e-04 0.0000000000000000e+00  2.8729325961132971e-03 8.8897728415032653e-04 0.0000000000000000e+00  -1.3487573865047773e-03 8.3675619947321291e-03 0.0000000000000000e+00  -1.7698557150394573e-01 -2.4849957340201767e-01 0.0000000000000000e+00  -2.5170166201475383e-03 -1.1875196459579849e-02 0.0000000000000000e+00  1.7368017740261057e-02 -1.2674679892257240e-02 0.0000000000000000e+00  -1.9245588284219468e-02 1.8043935504114338e-02 0.0000000000000000e+00  1.0692118876318590e+00 5.5123640421502706e+00 0.0000000000000000e+00  4.4014829957679602e+00 -3.0837637903578941e+00 0.0000000000000000e+00  -8.8926144708661390e+00 8.9088502714704063e+00 0.0000000000000000e+00  -1.4173667694160901e+00 -1.6244423447904119e+00 0.0000000000000000e+00  2.5837791556875345e-03 7.6583853763550818e-03 0.0000000000000000e+00  -1.2115990803891523e-02 -4.0398079057530926e-03 0.0000000000000000e+00  5.8272753477302784e-02 -8.4811876756628480e-03 0.0000000000000000e+00  -2.4613485375275140e-01 -5.1844116003524525e-03 0.0000000000000000e+00  -2.5030265405667825e-03 -7.5361387101541590e-03 0.0000000000000000e+00  5.3141469248162709e-03 -5.3041752824426521e-03 0.0000000000000000e+00  7.4776110451818699e-03 2.0685624635923487e-02 0.0000000000000000e+00  -7.2170650890435406e-01 -1.7824538257071212e-02 0.0000000000000000e+00  -6.9642894095597423e-03 6.1419784232041315e-02 0.0000000000000000e+00  4.7186499648890372e+00 2.5063272839499917e+00 0.0000000000000000e+00  -1.5018869772357751e-01 1.1152491910594672e-01 0.0000000000000000e+00  -1.7527367197749463e-04 -2.1389764686659345e-03 0.0000000000000000e+00  -1.4743094229122206e-02 9.5458370148782494e-03 0.0000000000000000e+00  -3.2553672557542810e+00 -1.6374349154662620e+00 0.0000000000000000e+00  1.1454760330736529e+00 -2.3357231609599336e+00 0.0000000000000000e+00  1.3085960680621120e+00 1.5937620368449537e-01 0.0000000000000000e+00  2.7231592074057422e+00 1.4097119638038409e+00 0.0000000000000000e+00  2.5439745279099146e-03 5.1645297575111434e-03 0.0000000000000000e+00  1.0146510220382017e-03 -1.7636044119022569e-03 0.0000000000000000e+00  -4.2611361631513470e-03 -8.9972897150272495e-03 0.0000000000000000e+00  -2.0623662179601088e-02 -4.0570821295109393e-03 0.0000000000000000e+00  -2.0018536183295090e+00 8.4365471315498863e-01 0.0000000000000000e+00  -1.8695364852808649e-02 -2.4959955317998203e-02 0.0000000000000000e+00  4.8557971416164167e-03 5.8006838725512249e-03 0.0000000000000000e+00  2.7545868867819169e-04 -1.8353215553776458e-03 0.0000000000000000e+00  -7.8105546906058086e-03 -2.3663437273904037e-02 0.0000000000000000e+00  -9.3842045968039259e-03 -2.0456562947407202e-02 0.0000000000000000e+00  -2.6045621587975398e-01 -3.3730911124018720e-01 0.0000000000000000e+00  -3.6468692528605262e-01 -4.6617577173910119e-03 0.0000000000000000e+00  -3.1731419769867292e-02 -3.8799873422825190e-02 0.0000000000000000e+00  -4.4422772837705935e-04 -6.3382828802866368e-05 0.0000000000000000e+00  1.5769023749337909e-04 1.5410440496576164e-03 0.0000000000000000e+00  -6.0644797268528117e-02 -1.3421665585084810e-02 0.0000000000000000e+00  -7.3972450221542032e-03 -1.0745540992410411e-03 0.0000000000000000e+00  -3.6253989066417305e-04 -1.1368842719294435e-03 0.0000000000000000e+00  -9.5808907704609514e-01 -2.7478938457396684e-01 0.0000000000000000e+00  -6.3