<?xml version="1.0"?>
<VTKFile type="UnstructuredGrid"  version="0.1"  >
<UnstructuredGrid>
<Piece  NumberOfPoints="1855" NumberOfCells="3532">
<Points>
<DataArray  type="Float64"  NumberOfComponents="3"  format="ascii">0 0 0  30 0 0  30 -10 0  0 -10 0  0.1391574078963744 0 0  0.2856388821882616 0 0  0.4398299073010886 0 0  0.6021362569539473 0 0  0.7729850389704483 0 0  0.9528258543586996 0 0  1.142131984380316 0 0  1.34140159760994 0 0  1.551159074717981 0 0  1.771956417032531 0 0  2.004374674080994 0 0  2.249025475789527 0 0  2.506552636773105 0 0  2.777633857742732 0 0  3.062982518028728 0 0  3.363349525995907 0 0  3.679525322337712 0 0  4.01234195575742 0 0  4.362675247811097 0 0  4.731447135329707 0 0  5.119628065610077 0 0  5.528239565804708 0 0  5.958356943167011 0 0  6.411112081475485 0 0  6.887696441559404 0 0  7.389364184530748 0 0  7.917435485335147 0 0  8.473300005202017 0 0  9.058420557070402 0 0  9.674336929103793 0 0  10.32266995225095 0 0  11.00512576896296 0 0  11.72350030646412 0 0  12.47968402994705 0 0  13.27566689579597 0 0  14.1135435963616 0 0  14.9955190732806 0 0  15.92391430904694 0 0  16.90117245730496 0 0  17.92986524844506 0 0  19.01269976086341 0 0  20.15252556282024 0 0  21.35234220269763 0 0  22.61530708683689 0 0  23.94474379751883 0 0  25.34415086349739 0 0  26.81721093579712 0 0  28.3678004819169 0 0  30 -1.111111111111111 0  30 -2.222222222222222 0  30 -3.333333333333333 0  30 -4.444444444444445 0  30 -5.555555555555555 0  30 -6.666666666666666 0  30 -7.777777777777777 0  30 -8.888888888888889 0  28.36780047917311 -10 0  26.8172109305839 -10 0  25.34415085606858 -10 0  23.94474378810899 -10 0  22.61530707566275 -10 0  21.3523421899591 -10 0  20.15252554870171 -10 0  19.01269974553473 -10 0  17.92986523206254 -10 0  16.90117244001232 -10 0  15.92391429097614 -10 0  14.99551905455266 -10 0  14.11354357708742 -10 0  13.27566687607703 -10 0  12.47968400987599 -10 0  11.72350028612546 -10 0  11.00512574843363 -10 0  10.32266993160086 -10 0  9.674336908396342 -10 0  9.058420536362949 -10 0  8.473299984546333 -10 0  7.917435464777824 -10 0  7.389364164113587 -10 0  6.887696420787165 -10 0  6.411112061446698 -10 0  5.95835692337857 -10 0  5.528239546282652 -10 0  5.119628046377237 -10 0  4.731447115907979 -10 0  4.362675229213632 -10 0  4.012341937260036 -10 0  3.679525304434552 -10 0  3.363349508456405 -10 0  3.062982500861274 -10 0  2.777633840953978 -10 0  2.506552620368097 -10 0  2.249025459771861 -10 0  2.004374658452946 -10 0  1.771956401795187 -10 0  1.551159059871345 -10 0  1.341401583153029 -10 0  1.142131970307521 -10 0  0.9528258406748833 -10 0  0.7729850256685147 -10 0  0.6021362439621285 -10 0  0.4398298947504031 -10 0  0.2856388700059078 -10 0  0.1391573960769001 -10 0  0 -9.855072463768115 0  0 -9.710144927536232 0  0 -9.565217391304348 0  0 -9.420289855072463 0  0 -9.27536231884058 0  0 -9.130434782608695 0  0 -8.985507246376812 0  0 -8.840579710144928 0  0 -8.695652173913043 0  0 -8.55072463768116 0  0 -8.405797101449275 0  0 -8.260869565217391 0  0 -8.115942028985508 0  0 -7.971014492753623 0  0 -7.826086956521739 0  0 -7.681159420289855 0  0 -7.536231884057971 0  0 -7.391304347826087 0  0 -7.246376811594203 0  0 -7.101449275362318 0  0 -6.956521739130435 0  0 -6.811594202898551 0  0 -6.666666666666667 0  0 -6.521739130434783 0  0 -6.376811594202898 0  0 -6.231884057971015 0  0 -6.086956521739131 0  0 -5.942028985507246 0  0 -5.797101449275362 0  0 -5.652173913043478 0  0 -5.507246376811594 0  0 -5.36231884057971 0  0 -5.217391304347826 0  0 -5.072463768115941 0  0 -4.927536231884058 0  0 -4.782608695652174 0  0 -4.637681159420289 0  0 -4.492753623188406 0  0 -4.347826086956522 0  0 -4.202898550724638 0  0 -4.057971014492754 0  0 -3.913043478260869 0  0 -3.768115942028985 0  0 -3.623188405797101 0  0 -3.478260869565217 0  0 -3.333333333333334 0  0 -3.188405797101449 0  0 -3.043478260869565 0  0 -2.898550724637681 0  0 -2.753623188405797 0  0 -2.608695652173912 0  0 -2.463768115942029 0  0 -2.318840579710145 0  0 -2.173913043478261 0  0 -2.028985507246377 0  0 -1.884057971014492 0  0 -1.739130434782609 0  0 -1.594202898550725 0  0 -1.44927536231884 0  0 -1.304347826086957 0  0 -1.159420289855072 0  0 -1.014492753623188 0  0 -0.8695652173913047 0  0 -0.72463768115942 0  0 -0.579710144927537 0  0 -0.4347826086956523 0  0 -0.2898550724637676 0  0 -0.1449275362318829 0  5.15859856094262 -4.976557621770688 0  2.816777084926057 -7.160262673925935 0  2.81677708460006 -2.839737326002783 0  2.227649803257325 -5.003121586636773 0  1.518662968975629 -8.46230852045241 0  1.518662969184829 -1.537691480152612 0  9.960740911025725 -5.055901393541221 0  1.491099662214591 -3.691833922963321 0  1.503675657181264 -6.345020369042368 0  5.319208041801049 -7.493850249937013 0  5.291109955459268 -2.489368743223226 0  1.096914507335763 -2.53623188405797 0  1.096914507253562 -7.463768115942029 0  1.089580194952752 -4.71277167923441 0  15.07565076110197 -5.047572991082069 0  7.501630508673601 -5.937500100385354 0  0.8894869418764504 -5.623930488933245 0  2.955144522453978 -1.440834296472408 0  2.955144521140721 -8.559165705576945 0  8.106603955004623 -2.748811534843258 0  3.662152539483591 -4.228178367024407 0  3.662181528265114 -5.771746159989156 0  0.8436558190317136 -0.8541050638451999 0  0.8436558075840921 -9.145894948342754 0  0.7854168197005933 -1.811594202898552 0  0.7894693398152999 -3.286543351392342 0  0.7854168196772591 -8.188405797101449 0  0.7854168196772591 -6.739130434782609 0  20.00078956016804 -4.999999999785771 0  0.7379120031523989 -3.977302749614766 0  6.584332478112232 -3.934875417052907 0  7.295091310194352 -7.969791332537982 0  9.811174303464586 -7.412814499648229 0  4.013376806449688 -2.206189431585293 0  4.013376806983409 -7.793810569017377 0  12.11177433894592 -2.818343737884045 0  2.591152707837148 -3.990098461753838 0  2.58990939378082 -6.025895074707176 0  25.43156400064585 -5.044446479916348 0  2.03262751726143 -2.282125834846944 0  2.032627517335952 -7.717874165160392 0  12.51865094522923 -6.491408052923457 0  0.598175343983641 -6.156971652625402 0  2.126700074935224 -0.8767654465386991 0  2.126700059112423 -9.123234559633019 0  6.617961838548696 -1.617756429129908 0  0.5903949564549755 -4.980060355019413 0  1.676697585305984 -5.547101897225158 0  4.773518305133987 -3.729331162566817 0  4.77931803486508 -6.231222307502165 0  4.878549698409591 -8.72048903376362 0  4.852580875634024 -1.222215410052823 0  0.5487847095754042 -2.675169258708207 0  0.545113423825768 -7.32369553390529 0  1.78738026998851 -4.400451872599477 0  1.68244194111824 -3.010100184333533 0  1.683984276238402 -7.018293626028473 0  9.998503440677371 -2.00585287985007 0  3.693061162502273 -3.243678395563028 0  3.694987482168253 -6.757603268814477 0  6.081763036485869 -5.83414381546261 0  0.5196640460586313 -1.350633211792632 0  0.5196640458460706 -8.649366789040087 0  3.84593363904758 -0.9906418103762418 0  3.845933620847308 -9.009358200471317 0  17.41551885287501 -3.057748733689079 0  17.30725517812527 -7.002961443761516 0  8.117698464370697 -4.451550942597151 0  0.4918476668493152 -0.4789811193757592 0  0.4918476560347713 -9.521018882514893 0  1.463770869328428 -0.6252343353791154 0  1.463770854281917 -9.374765668872765 0  0.5034132782032188 -4.464280853772128 0  3.138906271796685 -4.99999841599503 0  14.61209972381335 -2.388610981020637 0  6.208601124947327 -8.776231214192325 0  14.74910972998159 -7.542186851303819 0  2.243794246335625 -1.632184311040998 0  2.243794245689214 -8.367815689183566 0  0.4590235278399923 -5.431413993025926 0  0.4971508861448406 -2.209632053221267 0  0.4971508861368665 -7.790367946777407 0  0.4644363683211541 -3.560571347760519 0  6.478811279411406 -7.007392971062433 0  1.238895267772762 -4.173677632458826 0  1.293241773632479 -2.02256720952064 0  1.293241773542714 -7.977432790434841 0  0.4324740478030531 -0.942028985507247 0  0.4324740423701829 -9.057971014492754 0  2.117396640811705 -3.472968170680347 0  2.107095929630507 -6.531506384346077 0  8.087741545730886 -1.392783601483453 0  1.028911946384717 -1.352376108341404 0  1.028911946221715 -8.647623891551962 0  4.05691976296832 -4.991522392209158 0  11.51826881314265 -8.065248940008736 0  1.618560396201739 -4.958056164503666 0  2.701984523487646 -2.141781914603403 0  2.70198452396172 -7.858218085853512 0  2.843615645746219 -9.289121726447632 0  2.843615661334342 -0.7108782798429658 0  8.678774612240533 -8.488146490452822 0  6.487906449371135 -2.667543558824978 0  8.369190916679937 -7.129867754908394 0  11.80978191929258 -4.655775487536958 0  0.3792065166453504 -3.113833531412848 0  0.4134714637263563 -6.58827691137208 0  9.551050695080825 -3.49648183875815 0  1.083867845277057 -6.036251777836495 0  0.3756430921870901 -1.80381664325008 0  0.3756430921689482 -8.196183356748573 0  3.113073783220456 -3.503408140759125 0  3.113391383189963 -6.496678880796299 0  22.62850736315072 -3.277987336300344 0  22.59385352108348 -6.800312122582239 0  0.3777114402537816 -4.137047872695438 0  0.9196816123347897 -0.4281025456111269 0  0.9196815944880363 -9.571897460530383 0  0.4052043328723194 -5.827814332459883 0  8.865857694874787 -5.767686953139113 0  1.200388325130726 -5.182186034620629 0  5.65297436943758 -4.325500846767599 0  1.200079167961391 -3.009849046583253 0  1.20883344838 -7.021823297793294 0  1.057642414577487 -3.660996704809145 0  10.88812987788297 -6.333458225047037 0  4.493502926606794 -2.839780197438185 0  4.485862892033458 -7.147606077919463 0  0.3631651408878085 -7.003529808558233 0  1.946748828463205 -6.049056369468467 0  6.918750162798794 -4.993796052442676 0  3.351203216022585 -1.980935554775394 0  3.351203216441711 -8.019064445907297 0  2.281892243515294 -2.856654416292082 0  2.281892243715877 -7.143345583598931 0  5.811143619672087 -0.9953286820321026 0  2.695713766833098 -4.565354125099452 0  2.698172168139827 -5.435483248292925 0  19.86166219288896 -2.493475492328429 0  19.83739102036415 -7.594404063416508
[...]
<PointData  Vectors="flow"> 
<DataArray  type="Float64"  Name="flow"  NumberOfComponents="3" format="ascii">-9.8898598995577051e-13 -4.4180895792123120e-13 0.0000000000000000e+00  -7.4283993896254150e-23 -3.3184832006567557e-23 0.0000000000000000e+00  -2.8229576237145334e-23 -1.2610977088208193e-23 0.0000000000000000e+00  1.8115948915308191e-18 8.0929240588984532e-19 0.0000000000000000e+00  4.5451163413189089e-12 2.0304363608615655e-12 0.0000000000000000e+00  -2.2633480654297699e-11 -1.0111037571374319e-11 0.0000000000000000e+00  3.9374590668704635e-11 1.7589780895372881e-11 0.0000000000000000e+00  -2.3432933776185561e-10 -1.0468176655522470e-10 0.0000000000000000e+00  2.4039536137111796e-10 1.0739163666132575e-10 0.0000000000000000e+00  2.0534633560041115e-09 9.1734212077785272e-10 0.0000000000000000e+00  3.2695792239491807e-09 1.4606166360743913e-09 0.0000000000000000e+00  -1.6278350014272923e-08 -7.2720149016515665e-09 0.0000000000000000e+00  -5.7258192778995050e-08 -2.5578908843058686e-08 0.0000000000000000e+00  -7.6104583308564271e-08 -3.3998142527873557e-08 0.0000000000000000e+00  -2.4485562925469562e-07 -1.0938416873529491e-07 0.0000000000000000e+00  -5.7362252748939063e-08 -2.5625395474162932e-08 0.0000000000000000e+00  2.6129825773577236e-06 1.1672957163128050e-06 0.0000000000000000e+00  -5.0919905594234181e-06 -2.2747410637275255e-06 0.0000000000000000e+00  -9.7359800357527744e-06 -4.3493469448745353e-06 0.0000000000000000e+00  -9.4257510093712351e-06 -4.2107585682397171e-06 0.0000000000000000e+00  -2.2551335301197024e-06 -1.0074340840358861e-06 0.0000000000000000e+00  7.8784018720845464e-06 3.5195124668510348e-06 0.0000000000000000e+00  -8.8244536611144955e-06 -3.9421414618983118e-06 0.0000000000000000e+00  -2.8608849179639242e-06 -1.2780409400892982e-06 0.0000000000000000e+00  4.6500704623534274e-06 2.0773224354012880e-06 0.0000000000000000e+00  4.0539150326914209e-06 1.8110023744367813e-06 0.0000000000000000e+00  6.8681692047977494e-06 3.0682119969506247e-06 0.0000000000000000e+00  2.9238162545647683e-06 1.3061542081502982e-06 0.0000000000000000e+00  -2.0557904635464634e-06 -9.1838170775754635e-07 0.0000000000000000e+00  -1.0960321804935602e-07 -4.8962962107648320e-08 0.0000000000000000e+00  -2.4847834562856830e-08 -1.1100254206134817e-08 0.0000000000000000e+00  -7.0303472985003495e-09 -3.1406616932093202e-09 0.0000000000000000e+00  4.6873302842270921e-09 2.0939674872437963e-09 0.0000000000000000e+00  3.2258158314366600e-10 1.4410662490745531e-10 0.0000000000000000e+00  7.2666515389770895e-11 3.2462257065499548e-11 0.0000000000000000e+00  -2.2112751983119894e-11 -9.8784128487702447e-12 0.0000000000000000e+00  6.6487501714600386e-12 2.9701910993327012e-12 0.0000000000000000e+00  -1.2687268893989797e-12 -5.6677739683357629e-13 0.0000000000000000e+00  2.3753871806609317e-13 1.0611549057375354e-13 0.0000000000000000e+00  2.4574565265017709e-14 1.0978176820877235e-14 0.0000000000000000e+00  -8.7599871071306947e-15 -3.9133423673452876e-15 0.0000000000000000e+00  5.1291359264704496e-15 2.2913349852525254e-15 0.0000000000000000e+00  -1.2033747188269552e-15 -5.3758267145672027e-16 0.0000000000000000e+00  2.6713869497118077e-16 1.1933866570843279e-16 0.0000000000000000e+00  -2.5724488711451539e-17 -1.1491881246134925e-17 0.0000000000000000e+00  5.9319362085129557e-18 2.6499693437068215e-18 0.0000000000000000e+00  -7.4954882325908408e-19 -3.3484537483689929e-19 0.0000000000000000e+00  1.2605955194744672e-19 5.6314487614136614e-20 0.0000000000000000e+00  2.2408765571398441e-21 1.0010650773570080e-21 0.0000000000000000e+00  1.5113815902134749e-21 6.7517834648336114e-22 0.0000000000000000e+00  -1.5284761984052886e-21 -6.8281500777887255e-22 0.0000000000000000e+00  3.5556828378385704e-22 1.5884274855644017e-22 0.0000000000000000e+00  3.3638495968774906e-23 1.5027299679610864e-23 0.0000000000000000e+00  -2.9584254097368419e-24 -1.3216151296763834e-24 0.0000000000000000e+00  9.2063174543348366e-24 4.1127311833544018e-24 0.0000000000000000e+00  -1.1977620212525185e-23 -5.3507531534483030e-24 0.0000000000000000e+00  -2.9865130647549255e-24 -1.3341627064065123e-24 0.0000000000000000e+00  9.3654322533368515e-24 4.1838124163050010e-24 0.0000000000000000e+00  -1.0567884373372130e-24 -4.7209829359062926e-25 0.0000000000000000e+00  1.3922637607768066e-23 6.2196492927852717e-24 0.0000000000000000e+00  1.3892250355837466e-22 6.2060744188781600e-23 0.0000000000000000e+00  -5.7416415995118763e-22 -2.5649591779869170e-22 0.0000000000000000e+00  1.0396066959636127e-21 4.6442270735519530e-22 0.0000000000000000e+00  1.1102312436353161e-20 4.9597275773749725e-21 0.0000000000000000e+00  -1.4416719393635354e-19 -6.4403700726131614e-20 0.0000000000000000e+00  7.7218241117490658e-19 3.4495646032513204e-19 0.0000000000000000e+00  -4.0881747786871787e-18 -1.8263072046677013e-18 0.0000000000000000e+00  9.3842477543055095e-18 4.1922178507197953e-18 0.0000000000000000e+00  -9.2192462357686745e-17 -4.1185068480356839e-17 0.0000000000000000e+00  2.3041261092509236e-16 1.0293205015904999e-16 0.0000000000000000e+00  -1.8447507676883844e-15 -8.2410410518883671e-16 0.0000000000000000e+00  4.9008051884936087e-15 2.1893329686097536e-15 0.0000000000000000e+00  -1.2134287276328129e-14 -5.4207409115180110e-15 0.0000000000000000e+00  -8.0196989260263774e-14 -3.5826339921237798e-14 0.0000000000000000e+00  1.8472065268383174e-13 8.2520116460318415e-14 0.0000000000000000e+00  -1.5263366263704773e-12 -6.8185919839360609e-13 0.0000000000000000e+00  9.5710023029452598e-12 4.2756465679711623e-12 0.0000000000000000e+00  -3.6171548095361670e-11 -1.6158888126538730e-11 0.0000000000000000e+00  -6.9539506695371992e-11 -3.1065330853486366e-11 0.0000000000000000e+00  9.1542708298900112e-11 4.0894804344632874e-11 0.0000000000000000e+00  -3.1912078049968801e-10 -1.4256058317861777e-10 0.0000000000000000e+00  2.9926491619717399e-10 1.3369038804419385e-10 0.0000000000000000e+00  5.3994924790734167e-10 2.4121111620495652e-10 0.0000000000000000e+00  -2.6646678859840214e-10 -1.1903850548635394e-10 0.0000000000000000e+00  -3.8289914411296238e-10 -1.7105224297165720e-10 0.0000000000000000e+00  3.8846763063879733e-11 1.7353984871548829e-11 0.0000000000000000e+00  2.4638157437982148e-09 1.1006585303863565e-09 0.0000000000000000e+00  8.6603661291921410e-10 3.8688387637582496e-10 0.0000000000000000e+00  2.0098931752549963e-10 8.9787804712189835e-11 0.0000000000000000e+00  6.9371896712666476e-11 3.0990454573591488e-11 0.0000000000000000e+00  -5.5301949883750079e-11 -2.4704997944656853e-11 0.0000000000000000e+00  -7.8001688376543427e-11 -3.4845634829749669e-11 0.0000000000000000e+00  6.8307454532889084e-11 3.0514937129470587e-11 0.0000000000000000e+00  3.9593371940406739e-11 1.7687516886221113e-11 0.0000000000000000e+00  1.9429800206169697e-11 8.6798598452233479e-12 0.0000000000000000e+00  -1.5557882399550028e-11 -6.9501609529510695e-12 0.0000000000000000e+00  -1.4776797092451026e-13 -6.6012273087116297e-14 0.0000000000000000e+00  1.2961523850615744e-12 5.7902916761923161e-13 0.0000000000000000e+00  5.1266522418390519e-13 2.2902254507091118e-13 0.0000000000000000e+00  9.5224387802536846e-14 4.2539518224729823e-14 0.0000000000000000e+00  3.8467773539394343e-14 1.7184679169974656e-14 0.0000000000000000e+00  -3.5732291570236768e-15 -1.5962659393678330e-15 0.0000000000000000e+00  -6.0344134628437839e-15 -2.6957489294707744e-15 0.0000000000000000e+00  -2.8121957123781909e-16 -1.2562900483675393e-16 0.0000000000000000e+00  4.6440988412047700e-16 2.0746547376344875e-16 0.0000000000000000e+00  -7.2575831021100236e-17 -3.2421745706563150e-17 0.0000000000000000e+00  5.0716779739378792e-17 2.2656668378869171e-17 0.0000000000000000e+00  -1.2433301499382477e-17 -5.5543193076054729e-18 0.0000000000000000e+00  7.0342667876923349e-18 3.1424126436303325e-18 0.0000000000000000e+00  -1.9327426509524859e-17 -8.6341265217055659e-18 0.0000000000000000e+00  1.5280278598796324e-18 6.8261472185084487e-19 0.0000000000000000e+00  -1.3968767862486963e-16 -6.2402570263355883e-17 0.0000000000000000e+00  -1.2498514965404685e-16 -5.5834520696044245e-17 0.0000000000000000e+00  -5.7908192720989733e-15 -2.5869282822000817e-15 0.0000000000000000e+00  7.1426920295885614e-15 3.1908493693484339e-15 0.0000000000000000e+00  -8.5475176174447148e-15 -3.8184260340689879e-15 0.0000000000000000e+00  -3.1058634047655096e-14 -1.3874799928829134e-14 0.0000000000000000e+00  2.1083033338527475e-13 9.4184074230717437e-14 0.0000000000000000e+00  -6.7429625004935742e-13 -3.0122785013144966e-13 0.0000000000000000e+00  -1.4277401471976002e-12 -6.3781326835973267e-13 0.0000000000000000e+00  1.0336227211981415e-12 4.6174949086657949e-13 0.0000000000000000e+00  4.0490962735578947e-12 1.8088496938398058e-12 0.0000000000000000e+00  3.0096352755308074e-12 1.3444920740128032e-12 0.0000000000000000e+00  2.4964775217539464e-11 1.1152495015720235e-11 0.0000000000000000e+00  7.2815572803535254e-12 3.2528845370404155e-12 0.0000000000000000e+00  4.5979624290966513e-12 2.0540442533983698e-12 0.0000000000000000e+00  -5.9440751197360433e-10 -2.6553921502705461e-10 0.0000000000000000e+00  -5.2226040484135137e-10 -2.3330899281677058e-10 0.0000000000000000e+00  -2.2517274607730983e-10 -1.0059124932712873e-10 0.0000000000000000e+00  -6.1133159602591248e-10 -2.7309969820362187e-10 0.0000000000000000e+00  4.8827059820823466e-10 2.1812475239169385e-10 0.0000000000000000e+00  2.1031581351068453e-09 9.3954223159083257e-10 0.0000000000000000e+00  7.3238208996067368e-09 3.2717649314746059e-09 0.0000000000000000e+00  -1.8340357612587838e-08 -8.1931739852882307e-09 0.0000000000000000e+00  -1.9133775143527579e-07 -8.5476167944898089e-08 0.0000000000000000e+00  -2.1691734234509873e-07 -9.6903319106489058e-08 0.0000000000000000e+00  3.2210553294663159e-07 1.4389395936557043e-07 0.0000000000000000e+00  1.0858705166154499e-06 4.8509010871298176e-07 0.0000000000000000e+00  -2.1501081899053536e-07 -9.6051619380621401e-08 0.0000000000000000e+00  -1.5744068502916531e-06 -7.0333357290785407e-07 0.0000000000000000e+00  -2.9296733215458623e-07 -1.3087707312210699e-07 0.0000000000000000e+00  -1.9893381376432206e-06 -8.8869551082763121e-07 0.0000000000000000e+00  4.8020733842525930e-06 2.1452265849112805e-06 0.0000000000000000e+00  -1.7965750406807038e-05 -8.0258259936112283e-06 0.0000000000000000e+00  -2.5454361634717084e-07 -1.1371207582917404e-07 0.0000000000000000e+00  -1.5966074805544838e-05 -7.1325124355357647e-06 0.0000000000000000e+00  -2.9821724547368655e-06 -1.3322236289996552e-06 0.0000000000000000e+00  8.2912677072731491e-06 3.7039517068994329e-06 0.0000000000000000e+00  -1.0240312187545026e-05 -4.5746468628637298e-06 0.0000000000000000e+00  7.4859881134585959e-06 3.3442097673858536e-06 0.0000000000000000e+00  2.6290205669900348e-05 1.1744603552041170e-05 0.0000000000000000e+00  3.9228960383471853e-07 1.7524723588986350e-07 0.0000000000000000e+00  1.3192496533379668e-05 5.8934739268172877e-06 0.0000000000000000e+00  1.1194907191565647e-05 5.0010923618358834e-06 0.0000000000000000e+00  -2.4532405393238332e-08 -1.0959342773476337e-08 0.0000000000000000e+00  -2.2974359462811806e-06 -1.0263318101833350e-06 0.0000000000000000e+00  -1.6508690788712388e-06 -7.3749148603520911e-07 0.0000000000000000e+00  1.0766781565857775e-06 4.8098361271931487e-07 0.0000000000000000e+00  -4.7579208611735414e-07 -2.1255023619098773e-07 0.0000000000000000e+00  -2.6750585768141524e-07 -1.1950268802628504e-07 0.0000000000000000e+00  2.7655255758318370e-07 1.2354411338197202e-07 0.0000000000000000e+00  2.2464172451614287e-08 1.0035402646961964e-08 0.0000000000000000e+00  -1.0921144936409864e-09 -4.8787947581323560e-10 0.0000000000000000e+00  1.8526039668695258e-08 8.2761235887675909e-09 0.0000000000000000e+00  1.0513221704188236e-08 4.6965635233417875e-09 0.0000000000000000e+00  1.7624373116468406e-08 7.8733227767464466e-09 0.0000000000000000e+00  1.2256090505117404e-09 5.4751539751299460e-10 0.0000000000000000e+00  4.1305216245935226e-09 1.8452247788812388e-09 0.0000000000000000e+00  -2.4050852437885719e-09 -1.0744218988556979e-09 0.0000000000000000e+00  -7.4008728185647553e-10 -3.3061862765355205e-10 0.0000000000000000e+00  7.0857405100797687e-10 3.1654074604217657e-10 0.0000000000000000e+00  -1.2260620447588997e-11 -5.4771776328796354e-12 0.0000000000000000e+00  5.0976217323149895e-11 2.2772566733037672e-11 0.0000000000000000e+00  -1.6526811864053475e-12 -7.3830100745353160e-13 0.0000000000000000e+00  6.0151807704059930e-12 2.6871571234287700e-12 0.0000000000000000e+00  -2.8798944525281724e-12 -1.2865330549844396e-12 0.0000000000000000e+00  2.4527658528137872e-01 1.0957222210042650e-01 0.0000000000000000e+00  6.6533622181354300e-04 2.9722514354307123e-04 0.0000000000000000e+00  -3.3185183264643183e+02 -1.4824791640610385e+02 0.0000000000000000e+00  1.2576043444644263e+02 5.6180863080769157e+01 0.0000000000000000e+00  1.9258642329655635e-09 8.6033986174297393e-10 0.0000000000000000e+00  -8.6733839102387511e-04 -3.8746541871687511e-04 0.0000000000000000e+00  1.0593726045569781e-09 4.7325271664420209e-10 0.0000000000000000e+00  -3.5168780598466456e+00 -1.5710922566520618e+00 0.0000000000000000e+00  -2.3652044572923768e-03 -1.0566059854839084e-03 0.0000000000000000e+00  -3.5618224978790260e-05 -1.5911702512173180e-05 0.0000000000000000e+00  -5.0960825349935401e-02 -2.2765690688568551e-02 0.0000000000000000e+00  -2.7187375484903468e-04 -1.2145395540068531e-04 0.0000000000000000e+00  2.7784450661350696e-07 1.2412126478813095e-07 0.0000000000000000e+00  1.8144385298724464e-01 8.1056274228002642e-02 0.0000000000000000e+00  -2.8462053483279455e-14 -1.2714831471281436e-14 0.0000000000000000e+00  -5.8914927452036831e-06 -2.6319020661509441e-06 0.0000000000000000e+00  2.3897794938107721e-03 1.0675843728274489e-03 0.0000000000000000e+00  -5.2194539137077917e-02 -2.3316826708902758e-02 0.0000000000000000e+00  2.0768080041903001e-07 9.2777085767900788e-08 0.0000000000000000e+00  1.2185156569561669e-06 5.4434657121339532e-07 0.0000000000000000e+00  -2.9756628273955075e+03 -1.3293155881362372e+03 0.0000000000000000e+00  5.3711044660133755e-01 2.3994294066001581e-01 0.0000000000000000e+00  1.1887827086369013e-07 5.3106399386015285e-08 0.0000000000000000e+00  -2.6820081828037677e-13 -1.1981314724526470e-13 0.0000000000000000e+00  -2.2018048264845789e-05 -9.8361059288473371e-06 0.0000000000000000e+00  -7.3876056460124521e-03 -3.3002594426476519e-03 0.0000000000000000e+00  3.1571724224985561e-10 1.4104012312895519e-10 0.0000000000000000e+00  1.8524703002253435e-07 8.2755264607863024e-08 0.0000000000000000e+00  -4.5250515925950837e-18 -2.0214728509487295e-18 0.0000000000000000e+00  3.1477007147213430e-02 1.4061699424894217e-02 0.0000000000000000e+00  2.4553231121923740e-03 1.0968646235384402e-03 0.0000000000000000e+00  1.3013101207298465e-07 5.8133327894535412e-08 0.0000000000000000e+00  -7.8146192884219160e-10 -3.4910189218385640e-10 0.0000000000000000e+00  -5.1248024258836317e-02 -2.2893990838364606e-02 0.0000000000000000e+00  3.8969114475738551e-06 1.7408642824565344e-06 0.0000000000000000e+00  -2.5581798653972373e-11 -1.1428137425453068e-11 0.0000000000000000e+00  1.8786131560825692e+04 8.3923142416109877e+03 0.0000000000000000e+00  -1.2721487900827192e-02 -5.6830605991934841e-03 0.0000000000000000e+00  -3.2830681111332497e-21 -1.4666425163708093e-21 0.0000000000000000e+00  -6.6562371820594957e-01 -2.9735357658744793e-01 0.0000000000000000e+00  1.3205823795284971e-06 5.8994276043760523e-07 0.0000000000000000e+00  1.3173130387544320e-12 5.8848225032406600e-13 0.0000000000000000e+00  8.7587701986408096e-06 3.9127987387425907e-06 0.0000000000000000e+00  -5.4314220611195675e-05 -2.4263750399143097e-05 0.0000000000000000e+00  1.9714869631410959e-10 8.8072086924063781e-11 0.0000000000000000e+00  -1.2658149783750249e-04 -5.6547656104002710e-05 0.0000000000000000e+00  2.8115474220383456e-04 1.2560004381178692e-04 0.0000000000000000e+00  7.0696622247990630e-03 3.1582248202864185e-03 0.0000000000000000e+00  -1.2295472354647901e+01 -5.4927469987711737e+00 0.0000000000000000e+00  -2.5876361937423768e-04 -1.1559727456682613e-04 0.0000000000000000e+00  5.9703013259984148e-09 2.6671081634159482e-09 0.0000000000000000e+00  1.6898501775067647e-04 7.5490548253435730e-05 0.0000000000000000e+00  -4.4318952093969336e-05 -1.9798571708455834e-05 0.0000000000000000e+00  -2.9177150996102119e-08 -1.3034286438450746e-08 0.0000000000000000e+00  1.4621976311034467e+02 6.5320643389659864e+01 0.0000000000000000e+00  1.1451958219220260e+00 5.1159245716083745e-01 0.0000000000000000e+00  -1.0876028099878311e-05 -4.8586397481162918e-06 0.0000000000000000e+00  -1.3709896597730927e-09 -6.1246116634293506e-10 0.0000000000000000e+00  -3.9585482753621494e+02 -1.7683992555818250e+02 0.0000000000000000e+00  -1.7281316276951186e-04 -7.7200692561565692e-05 0.0000000000000000e+00  1.8419558656381009e-03 8.2285554072496344e-04 0.0000000000000000e+00  -3.3816803605872362e-07 -1.5106954914503493e-07 0.0000000000000000e+00  3.7261100232491549e-12 1.6645622922779582e-12 0.0000000000000000e+00  -2.6460933745260125e-04 -1.1820872775092577e-04 0.0000000000000000e+00  -6.7019610037445120e-09 -2.9939619339051610e-09 0.0000000000000000e+00  1.2831864010034874e-15 5.7323688343795492e-16 0.0000000000000000e+00  -3.8977215603950876e-16 -1.7412261835400549e-16 0.0000000000000000e+00  -2.3563131090832271e-06 -1.0526339602715249e-06 0.0000000000000000e+00  4.5780300760825537e-10 2.0451398885201056e-10 0.0000000000000000e+00  -8.0751344290251416e-16 -3.6073986521497647e-16 0.0000000000000000e+00  -1.3999930283822078e-06 -6.2541781910802817e-07 0.0000000000000000e+00  3.7941404287568311e-12 1.6949534635074409e-12 0.0000000000000000e+00  5.1214636900947011e-04 2.2879075729408032e-04 0.0000000000000000e+00  -1.4846640686357992e+02 -6.6324284842135313e+01 0.0000000000000000e+00  -4.2845009783085583e-14 -1.9140118582707697e-14 0.0000000000000000e+00  2.9241850701963461e-08 1.3063189688764447e-08 0.0000000000000000e+00  -7.5806268450684124e-15 -3.3864876558657488e-15 0.0000000000000000e+00  1.7492813391866605e-02 7.8145512011922168e-03 0.0000000000000000e+00  -3.8017021991216145e-08 -1.6983315274222333e-08 0.0000000000000000e+00  7.3329254319720355e-05 3.2758321922826694e-05 0.0000000000000000e+00  9.3604309192561565e-06 4.1815781741409384e-06 0.0000000000000000e+00  1.4898781293861720e-09 6.6557212180849521e-10 0.0000000000000000e+00  1.2631910502428321e-03 5.6430437562433910e-04 0.0000000000000000e+00  -7.7425502313920058e-06 -3.4588235668910490e-06 0.0000000000000000e+00  -2.0596391423122911e+00 -9.2010102509082725e-01 0.0000000000000000e+00  -1.9822880473925465e-03 -8.8554602938043740e-04 0.0000000000000000e+00  3.0134084888522339e-09 1.3461776787255970e-09 0.0000000000000000e+00  1.6706493446419691e-08 7.4632790909511934e-09 0.0000000000000000e+00  -7.9323396476465023e-14 -3.5436080482400962e-14 0.0000000000000000e+00  3.2113528204696723e+02 1.4346051992026329e+02 0.0000000000000000e+00  2.0863815638352406e-03 9.3204764668642129e-04 0.0000000000000000e+00  -2.5410633971704955e-07 -1.1351673157330460e-07 0.0000000000000000e+00  -1.1468433470578157e-05 -5.1232845480972970e-06 0.0000000000000000e+00  2.1007951478813291e-11 9.3848661610761152e-12 0.0000000000000000e+00  3.3545372603374211e+01 1.4985698749523234e+01 0.0000000000000000e+00  -1.6041921079264900e-11 -7.1663951836179411e-12 0.0000000000000000e+00  3.5285577211306891e+00 1.5763099028403667e+00 0.0000000000000000e+00  6.0750769890903633e-01 2.7139145155749883e-01 0.0000000000000000e+00  -1.0256830632024246e-06 -4.5820261349828155e-07 0.0000000000000000e+00  -2.3668770193236415e-10 -1.0573531678460397e-10 0.0000000000000000e+00  -2.0533427158025942e-04 -9.1728822727252916e-05 0.0000000000000000e+00  7.4682190029106018e-09 3.3362717861665874e-09 0.0000000000000000e+00  -8.2175197375803657e-04 -3.6710063325769637e-04 0.0000000000000000e+00  1.6039669108022166e-07 7.1653891622201514e-08 0.0000000000000000e+00  -6.0766540