<?xml version="1.0"?>
<VTKFile type="UnstructuredGrid"  version="0.1"  >
<UnstructuredGrid>
<Piece  NumberOfPoints="572" NumberOfCells="1038">
<Points>
<DataArray  type="Float64"  NumberOfComponents="3"  format="ascii">0 0 0  4 0 0  4 -1 0  0 -1 0  0.09999999999999999 0 0  0.2 0 0  0.3 0 0  0.4 0 0  0.4999999999999998 0 0  0.5999999999999996 0 0  0.6999999999999995 0 0  0.7999999999999994 0 0  0.8999999999999992 0 0  0.999999999999999 0 0  1.099999999999999 0 0  1.199999999999999 0 0  1.299999999999999 0 0  1.399999999999999 0 0  1.499999999999998 0 0  1.599999999999998 0 0  1.699999999999999 0 0  1.799999999999999 0 0  1.899999999999999 0 0  2 0 0  2.1 0 0  2.200000000000001 0 0  2.300000000000001 0 0  2.400000000000002 0 0  2.500000000000002 0 0  2.600000000000002 0 0  2.700000000000003 0 0  2.800000000000003 0 0  2.900000000000004 0 0  3.000000000000004 0 0  3.100000000000005 0 0  3.200000000000005 0 0  3.300000000000005 0 0  3.400000000000004 0 0  3.500000000000004 0 0  3.600000000000003 0 0  3.700000000000002 0 0  3.800000000000002 0 0  3.900000000000001 0 0  4 -0.08333333333333325 0  4 -0.1666666666666665 0  4 -0.2499999999999997 0  4 -0.333333333333333 0  4 -0.4166666666666666 0  4 -0.5000000000000001 0  4 -0.5833333333333337 0  4 -0.6666666666666673 0  4 -0.7500000000000006 0  4 -0.8333333333333337 0  4 -0.9166666666666669 0  3.9 -1 0  3.8 -1 0  3.7 -1 0  3.6 -1 0  3.5 -1 0  3.4 -1 0  3.300000000000001 -1 0  3.200000000000001 -1 0  3.100000000000001 -1 0  3.000000000000001 -1 0  2.900000000000001 -1 0  2.800000000000001 -1 0  2.700000000000001 -1 0  2.600000000000001 -1 0  2.500000000000002 -1 0  2.400000000000002 -1 0  2.300000000000002 -1 0  2.200000000000001 -1 0  2.100000000000001 -1 0  2 -1 0  1.9 -1 0  1.799999999999999 -1 0  1.699999999999999 -1 0  1.599999999999998 -1 0  1.499999999999998 -1 0  1.399999999999998 -1 0  1.299999999999997 -1 0  1.199999999999997 -1 0  1.099999999999996 -1 0  0.9999999999999956 -1 0  0.899999999999995 -1 0  0.7999999999999949 -1 0  0.6999999999999953 -1 0  0.5999999999999956 -1 0  0.499999999999996 -1 0  0.3999999999999968 -1 0  0.2999999999999976 -1 0  0.1999999999999984 -1 0  0.0999999999999992 -1 0  0 -0.9166666666666667 0  0 -0.8333333333333335 0  0 -0.7500000000000002 0  0 -0.666666666666667 0  0 -0.5833333333333335 0  0 -0.4999999999999999 0  0 -0.4166666666666663 0  0 -0.3333333333333327 0  0 -0.2499999999999994 0  0 -0.1666666666666663 0  0 -0.08333333333333315 0  3.491090701185765 -0.499339806301727 0  0.4950203227078167 -0.4989128584675094 0  2.64262313781888 -0.4879297506908338 0  1.449999999999998 -0.5 0  2.058402291097397 -0.5120941233772698 0  0.9749999999999992 -0.4749999999999993 0  3.081769880806683 -0.5597407802610527 0  1.745473944409859 -0.3290615136625714 0  2.347280045777389 -0.6545118286598804 0  2.335768673639667 -0.3237239238763549 0  1.750327526220345 -0.682828817540943 0  3.707492972392909 -0.3028030525063309 0  0.293580296675358 -0.7109385489008262 0  3.71498825372084 -0.7080088716251347 0  0.2918697062415769 -0.2988161261649331 0  3.250413907284768 -0.3098344370860925 0  0.7481958762886598 -0.6907216494845363 0  2.897531957111618 -0.3144800466372323 0  1.202975631932859 -0.6871206495416401 0  0.7276881720430104 -0.301075268817204 0  1.222241507685503 -0.2908020883113388 0  2.821785532795642 -0.7097679058139483 0  3.313580174540806 -0.7110306688463971 0  1.50219738324048 -0.2570217529780842 0  2.109436430026117 -0.7485141141565509 0  2.001923272149049 -0.2612004201407864 0  2.591779594323503 -0.2533220405676498 0  1.508220405676497 -0.7466779594323502 0  2.584305190871683 -0.7502831919469019 0  3.478286033189422 -0.23795222571263 0  0.5261060937617643 -0.7658117832712512 0  3.785135972681774 -0.5040707172464052 0  0.2090645029521114 -0.4969048262114374 0  0.9574438986108131 -0.2423163095862805 0  0.9754244626643473 -0.7628641460288867 0  0.5097271592765806 -0.2292760602594508 0  3.047448237147327 -0.7984168297371277 0  3.522893514415914 -0.785726174019542 0  3.27411286219494 -0.5150314861460955 0  2.876192398366876 -0.5166549013936721 0  3.072152863254761 -0.2028141497170135 0  2.188888454287124 -0.1960738743988359 0  1.911111545712876 -0.8039261256011641 0  0.6968885413728847 -0.4974520678389611 0  1.252104989604988 -0.4970114345114344 0  1.649610740490046 -0.5028202775347195 0  2.446694231298332 -0.485633542353709 0  1.845992484168205 -0.4989419599210881 0  2.246214131289309 -0.4959316037735846 0  2.743080194417513 -0.1797603284198384 0  1.345217800961618 -0.8177514544794908 0  3.831771135951664 -0.1764827624326512 0  0.168177957407361 -0.823589473522286 0  3.837430960455357 -0.8286944021295046 0  0.167391597779325 -0.1752538625856722 0  3.066111254276541 -0.3870061788029396 0  1.358909159394344 -0.1720779287034414 0  1.669284305949535 -0.172759019086266 0  2.264869859182613 -0.8283162784008133 0  2.434165412425708 -0.1697954173687042 0  1.668706113475668 -0.8314479749300888 0  1.842683258862577 -0.1656794186994128 0  3.848464877921415 -0.3616620315967092 0  0.151535122078585 -0.6383379684032905 0  3.848707346075076 -0.6466646759135177 0  0.1509968549082652 -0.3452619778382686 0  2.732975255829699 -0.3508363638623346 0  1.370252652534258 -0.6495109932111033 0  1.11832587037856 -0.1733419061976365 0  2.439737645513045 -0.836456385212641 0  3.331229791744127 -0.165499768727795 0  0.6726591332606813 -0.8336090461037186 0  1.132616756253317 -0.8280723285747189 0  1.950606351728588 -0.6518091391595896 0  2.153824719141371 -0.3536025000168445 0  3.62532407618639 -0.1564302309141494 0  0.3803710983093131 -0.8404803223371928 0  1.377912260103223 -0.3517997484404782 0  0.8924624300191402 -0.6125774599817652 0  3.207249628251628 -0.8375220474312923 0  0.6546785576266954 -0.155978749966339 0  2.719684587363634 -0.8327734580127736 0  3.647699282718985 -0.5637569936419204 0  0.3570156455557587 -0.5653989322146081 0  0.8322251523939386 -0.8403847541693579 0  0.3645988133126639 -0.1519337183240305 0  1.061404500324257 -0.6180105656135877 0  3.396758647231262 -0.3766313243368538 0  0.8148021518360848 -0.1629813466347811 0  0.6093556516052328 -0.6299486913462624 0  0.415997866655875 -0.3680522660477806 0  0.5920160015096863 -0.3645412637424194 0  3.572255424430109 -0.362089200459548 0  1.08043890485706 -0.3398660584513152 0  2.923658429424994 -0.1561137197110593 0  3.653613361778262 -0.8546909554159527 0  3.456739790681186 -0.6487708965425909 0  0.8424839600900655 -0.4190496412612194 0  2.6968241495241 -0.6460539373019687 0  2.90777185621417 -0.8467190841342236 0  3.167421855912535 -0.6853653881872064 0  3.378998015397395 -0.8550267917096944 0  2.549623533286458 -0.6074164390661531 0  1.563854363100012 -0.3870450365840445 0  1.945115925347995 -0.3956210114182645 0  2.206384380497951 -0.6363666106481864 0  2.9679770331043 -0.6663940397605803 0  2.492817266347368 -0.3527603982764793 0  1.545918816851176 -0.6075709531787901 0  2.028456012399734 -0.8701972194942087 0  2.065700499244939 -0.1359115819594244 0  1.113999927383315 -0.4803729266898425 0  3.194766700972084 -0.1349664610116483 0  1.791586588241401 -0.8656156413257059 0  2.307333345265183 -0.1346440826116952 0  2.64093544674549 -0.1331489671463476 0  0.4565707965077976 -0.6534785968762363 0  1.459077473581533 -0.8718776489042938 0  1.56279060907849 -0.1324694119967317 0  0.3144726782861624 -0.406319735913186 0  3.686635179527132 -0.4155119011072678 0  3.583227123430988 -0.6879918386850498 0  3.884530589958141 -0.5337716741137969 0  0.1138901561454064 -0.4712706309748976 0  2.551320204776417 -0.8759992125181354 0  2.968455986624249 -0.4231600805006418 0  1.843995631966074 -0.2713141166917306 0  1.23826657576458 -0.1310261345083986 0  1.632298315745049 -0.7047459448475459 0  3.454977942639006 -0.1019833897113779 0  2.11213131937471 -0.6131325843633801 0  1.631670858552932 -0.3027829344070553 0  0.549999999999996 -0.8847857258099061 0  2.175907031111534 -0.8808902127996396 0  2.440789547527098 -0.7252338716820566 0  0.9499999999999957 -0.8853403742417534 0  0.1192006629558211 -0.7258150973260704 0  0.1086302422397907 -0.2553484983400458 0  3.891615894289125 -0.7428762999771643 0  3.880790852604017 -0.2741969419997524 0  2.58999033724616 -0.3943081590477266 0  0.95310975133633 -0.1100375897447476 0  0.9389274183125247 -0.357418794071099 0  0.5436861363815539 -0.1129935035840732 0  1.237622314162623 -0.8886349339205675 0  2.766143121931948 -0.4669467935657355 0  3.157965388639583 -0.4824178848815803 0  3.732166646772587 -0.1061123528525496 0  0.8463407040907105 -0.2803849511418723 0  0.2658218649297859 -0.8967607408767373 0  3.384357462435764 -0.5450459842617623 0  1.954320722194999 -0.1009956898074866 0  0.8013980381943526 -0.5278489923710374 0  3.744358883260304 -0.603637271636247 0  0.2581863795088786 -0.6001369967359219 0  0.2629966501688439 -0.1025990268626685 0  0.3980883060404261 -0.7330050441066103 0  1.076076863672032 -0.7275728344185368 0  1.749999999999999 -0.5550190100941714 0  2.351512610076122 -0.5440435521440684 0  0.8619623856291254 -0.7246873586411677 0  3.553081028189586 -0.8932001918706867 0  2.806636304103025 -0.6100531542467602 0  2.546714489935151 -0.08818853426728746 0  1.172246975380209 -0.5783812280673658 0  1.560837452008869 -0.9052833905541354 0  3.005913589025749 -0.2858329927011495 0  3.104244827324224 -0.8867193195303111 0  0.6392996137609843 -0.7340215588892431 0  3.370409685921998 -0.2678372406131186 0  1.860045411420065 -0.6863616357695403 0  2.239306624928278 -0.3159929711989559 0  0.620090528303912 -0.2611000972275821 0  1.457468991263225 -0.08750102207080079 0  1.752790718352056 -0.1005001786212033 0  0.394717592657301 -0.2605042194828123 0  3.745581301416776 -0.9074819423317642 0  3.141158115761163 -0.2920724092797614 0  3.257376892791448 -0.6242591031763242 0  2.350280737493299 -0.9013197570937703 0  3.914203942485891 -0.125 0  3.914203942485891 -0.8750000000000003 0  0.08579605751410901 -0.1249999999999997 0  0.08579605751410968 -0.875 0  3.921126745430668 -0.4525
[...]
<PointData  Vectors="flow"> 
<DataArray  type="Float64"  Name="flow"  NumberOfComponents="3" format="ascii">-9.9134761933221838e-01 4.4406671030625056e-01 0.0000000000000000e+00  9.8391687624560176e-01 4.2503999198516834e-01 0.0000000000000000e+00  1.4596588598644724e+00 -1.1151275670340199e+00 0.0000000000000000e+00  -1.4362359441480699e+00 -1.0782239033733845e+00 0.0000000000000000e+00  4.1703104445799700e-02 -1.0965009091481290e-01 0.0000000000000000e+00  -4.1160669908339463e-02 -2.1486225910758738e-01 0.0000000000000000e+00  5.1926391117138052e-02 -3.5313410426807891e-02 0.0000000000000000e+00  -1.5553963655665361e-02 -7.2942478516387771e-02 0.0000000000000000e+00  6.0843919334623714e-03 -3.5653333580908560e-02 0.0000000000000000e+00  1.0401447407147255e-03 -2.8169816321255228e-02 0.0000000000000000e+00  -6.5590661902652114e-05 -2.0600614692422997e-02 0.0000000000000000e+00  1.1654816550455485e-03 -1.5084999518432750e-02 0.0000000000000000e+00  9.2738551837742730e-05 -1.0275640537129540e-02 0.0000000000000000e+00  4.8345674347799580e-04 -7.1714308522840718e-03 0.0000000000000000e+00  4.8004474300423999e-05 -5.2089708911225475e-03 0.0000000000000000e+00  2.4653121820171996e-04 -4.8652791703433724e-03 0.0000000000000000e+00  8.1557464724773710e-05 -3.4779521781745991e-03 0.0000000000000000e+00  1.9517079754521917e-04 -1.4157041868877169e-03 0.0000000000000000e+00  1.1112296195671663e-04 -6.5992651367494722e-04 0.0000000000000000e+00  3.3413369066307714e-05 -2.7016303022169453e-04 0.0000000000000000e+00  6.0210294218956247e-05 8.6910956569708758e-05 0.0000000000000000e+00  5.2723670201950919e-06 3.9953440939501480e-04 0.0000000000000000e+00  6.1462781511004391e-05 5.1615028988937221e-04 0.0000000000000000e+00  -5.8027420869790223e-05 6.3087726997869615e-04 0.0000000000000000e+00  1.9371523254216440e-05 6.0031591459011558e-04 0.0000000000000000e+00  -5.1364907812283962e-05 3.2510108049915113e-04 0.0000000000000000e+00  2.1669397677073538e-05 7.5300795599631681e-05 0.0000000000000000e+00  -7.5234878634165890e-05 -4.1504695526466096e-04 0.0000000000000000e+00  -1.5604682173597464e-04 -7.2450394397721555e-04 0.0000000000000000e+00  -2.7622638074290813e-05 -1.8184354481205998e-03 0.0000000000000000e+00  -1.9446272356041260e-04 -2.7096503185073746e-03 0.0000000000000000e+00  -2.3409313210623147e-04 -3.4341303875641761e-03 0.0000000000000000e+00  -2.1000803528962459e-05 -5.2778380968971795e-03 0.0000000000000000e+00  -7.6296803080709715e-04 -7.0437745961001389e-03 0.0000000000000000e+00  3.2290110130643834e-04 -1.0380365953996242e-02 0.0000000000000000e+00  -1.6736080432211389e-03 -1.7050392313047544e-02 0.0000000000000000e+00  6.2423667164825184e-05 -2.0050170273141800e-02 0.0000000000000000e+00  -3.8197306665531237e-04 -2.7045722927578682e-02 0.0000000000000000e+00  -6.9375476039459042e-03 -3.7122621100323688e-02 0.0000000000000000e+00  1.6471787057451167e-02 -7.2819562732673107e-02 0.0000000000000000e+00  -5.2009398536060146e-02 -3.3448722508610536e-02 0.0000000000000000e+00  4.6061411201849228e-02 -2.2327534731177268e-01 0.0000000000000000e+00  -3.4804633199083800e-02 -1.2511486482760478e-01 0.0000000000000000e+00  6.7176005578832598e-01 -2.4602779777978717e-01 0.0000000000000000e+00  3.4730184261292446e-01 9.6483676607255750e-02 0.0000000000000000e+00  5.3906798843825365e-01 6.0355672944475719e-02 0.0000000000000000e+00  5.0509493051330256e-01 -7.0113191556301885e-02 0.0000000000000000e+00  3.4162720920437900e-01 -4.1128804640590169e-02 0.0000000000000000e+00  5.1410864571552162e-01 1.4703856478199823e-01 0.0000000000000000e+00  5.4477031498991491e-01 -1.5972665463268379e-01 0.0000000000000000e+00  6.0815394508018861e-01 1.1438391191678711e-01 0.0000000000000000e+00  4.8560397617300777e-01 4.7290206257104540e-02 0.0000000000000000e+00  5.2981735166078425e-01 -3.7351229482127024e-01 0.0000000000000000e+00  1.2419559236746218e+00 6.8303414739581281e-01 0.0000000000000000e+00  -3.7420197409873962e-01 -4.9215343106911869e-01 0.0000000000000000e+00  1.5702408946231944e-01 2.6503520136304393e-01 0.0000000000000000e+00  -9.5464201889062267e-02 -5.6215739676804231e-02 0.0000000000000000e+00  4.2061057822947036e-02 3.5189189683865175e-02 0.0000000000000000e+00  5.8617996047225802e-03 1.9312878466305378e-02 0.0000000000000000e+00  1.4825454757764122e-02 2.6530376944193357e-02 0.0000000000000000e+00  1.1312739830983307e-02 2.1369300005920189e-02 0.0000000000000000e+00  5.8855402564720145e-03 1.7649034631445851e-02 0.0000000000000000e+00  4.2952853161074131e-03 1.6033293867587201e-02 0.0000000000000000e+00  4.7553261161598298e-03 1.4265375734459828e-02 0.0000000000000000e+00  2.5800250344659948e-03 1.0619317974269829e-02 0.0000000000000000e+00  1.0853803333725904e-04 7.4040363156955983e-03 0.0000000000000000e+00  9.5885971797793248e-04 6.6947727979896916e-03 0.0000000000000000e+00  -6.4307720159847265e-04 6.2437158771204227e-03 0.0000000000000000e+00  -1.8133843668375420e-04 5.9946083871953047e-03 0.0000000000000000e+00  -4.8422935507899645e-04 3.3332867957873804e-03 0.0000000000000000e+00  -5.6048790873698521e-04 2.7638654192365746e-03 0.0000000000000000e+00  -1.5246872509087694e-04 2.2224973244133368e-03 0.0000000000000000e+00  2.7357598552324027e-05 2.7104098626662375e-03 0.0000000000000000e+00  -2.3213644936212967e-04 2.5009296989230603e-03 0.0000000000000000e+00  4.2219770010642322e-05 2.0914900105627396e-03 0.0000000000000000e+00  3.5601949139253968e-04 2.3380774878379949e-03 0.0000000000000000e+00  3.6239688715562833e-04 3.5756781126946410e-03 0.0000000000000000e+00  7.3173011237884190e-04 3.1275100060964289e-03 0.0000000000000000e+00  2.3834660199740853e-05 5.1190340034244549e-03 0.0000000000000000e+00  2.0885625854687916e-04 6.5161710815476491e-03 0.0000000000000000e+00  -8.3123259807055288e-05 5.8767634678646777e-03 0.0000000000000000e+00  -1.2354278200851800e-03 8.1328623225683308e-03 0.0000000000000000e+00  -1.9978581667511618e-03 1.0587998004159497e-02 0.0000000000000000e+00  -2.7066001520537042e-03 1.0067742908070963e-02 0.0000000000000000e+00  -5.8479506425230436e-03 1.3992062642469584e-02 0.0000000000000000e+00  -6.2845781709384907e-03 1.7575011114195804e-02 0.0000000000000000e+00  -1.0746923963643053e-02 1.8133420409909496e-02 0.0000000000000000e+00  -1.5080510865142057e-02 2.0345076212856819e-02 0.0000000000000000e+00  -7.4162422726571069e-03 1.8224219791830799e-02 0.0000000000000000e+00  -4.5409988927147774e-02 4.3130139784088833e-02 0.0000000000000000e+00  9.0074954617821446e-02 -5.1150167830004895e-02 0.0000000000000000e+00  -1.5262581594727384e-01 2.5786150982576578e-01 0.0000000000000000e+00  3.6092490656652865e-01 -4.7224617018032666e-01 0.0000000000000000e+00  -1.2547981792337974e+00 6.1945950214337875e-01 0.0000000000000000e+00  -4.3047430422810384e-01 -2.4694305698339766e-01 0.0000000000000000e+00  -7.3796314163094801e-01 -5.0910382528595498e-02 0.0000000000000000e+00  -6.0397084313925076e-01 9.4036637810602203e-02 0.0000000000000000e+00  -3.6415643835148126e-01 3.8177639259149528e-02 0.0000000000000000e+00  -5.3685890550826809e-01 -1.5809318097066896e-01 0.0000000000000000e+00  -4.4696452064140707e-01 1.7859766458574966e-01 0.0000000000000000e+00  -4.5240880100113862e-01 -1.2719789639014645e-01 0.0000000000000000e+00  -3.7559960886660410e-01 7.8745598827660232e-03 0.0000000000000000e+00  -4.1782372929846934e-01 1.8171550023838717e-01 0.0000000000000000e+00  -6.5309313999483998e-01 -2.8749339301757232e-01 0.0000000000000000e+00  2.5999797580302537e-02 -9.5463333079706908e-04 0.0000000000000000e+00  -2.6347541838496018e-02 -2.5977203331580367e-03 0.0000000000000000e+00  2.5894468140828168e-03 8.2469192341550911e-04 0.0000000000000000e+00  -1.7971785662200227e-03 1.0090067132582064e-03 0.0000000000000000e+00  1.1555439049889041e-04 1.0882862673763677e-03 0.0000000000000000e+00  -7.6356088152643659e-03 -7.4830577601305503e-04 0.0000000000000000e+00  8.9081487041987647e-03 1.0696386453499086e-03 0.0000000000000000e+00  -4.9514521881017040e-04 6.0576946626994565e-04 0.0000000000000000e+00  8.2783059323735572e-04 1.6227096469135481e-03 0.0000000000000000e+00  7.3146110744060457e-04 5.1068429489070882e-04 0.0000000000000000e+00  -4.6260930847487932e-04 1.5289810027670524e-03 0.0000000000000000e+00  3.1171619556970804e-02 -1.5195426700099971e-02 0.0000000000000000e+00  -2.1597874123528881e-02 1.6574375565201058e-02 0.0000000000000000e+00  1.3299156222071210e-02 1.1181285974319633e-02 0.0000000000000000e+00  -2.2092195201532720e-02 -1.0563438041669456e-02 0.0000000000000000e+00  1.1685083252368961e-02 -7.5243623068784763e-03 0.0000000000000000e+00  -1.3405910949495668e-02 4.9006758415440690e-03 0.0000000000000000e+00  4.0512840358447183e-03 -1.8878213024464260e-03 0.0000000000000000e+00  -3.8623304159992040e-03 2.9128244541709409e-03 0.0000000000000000e+00  -1.1732613194177665e-02 -8.4702856274499264e-03 0.0000000000000000e+00  -2.8271706889267858e-03 -1.3163986031909511e-03 0.0000000000000000e+00  4.0608057401703337e-03 3.2133963947527837e-03 0.0000000000000000e+00  1.5896607130908867e-02 6.3573833929800091e-03 0.0000000000000000e+00  -1.0620783280214049e-03 -8.2135154440096954e-05 0.0000000000000000e+00  1.1500415174522194e-04 1.5136858641676143e-03 0.0000000000000000e+00  -2.7730304280027688e-05 5.8635134768077624e-04 0.0000000000000000e+00  1.4034846624825968e-03 -4.1588347583431442e-04 0.0000000000000000e+00  -1.1668651653028756e-03 2.1317746497946130e-03 0.0000000000000000e+00  1.7409407823994970e-03 2.6375793371761209e-03 0.0000000000000000e+00  1.8666980710212725e-02 -2.0362354851605601e-02 0.0000000000000000e+00  -1.8018066120444140e-02 1.3090597113020500e-02 0.0000000000000000e+00  6.7300067400376321e-02 3.3312418759092438e-02 0.0000000000000000e+00  -9.4767471548981796e-02 -1.2974091445312178e-02 0.0000000000000000e+00  -5.6886185971995740e-03 -5.0281808709209267e-03 0.0000000000000000e+00  -7.6118468630269505e-03 5.4784349652129017e-03 0.0000000000000000e+00  -1.6460231545952077e-02 -2.1570639609372208e-02 0.0000000000000000e+00  7.0771002241524026e-03 6.7607208608547022e-03 0.0000000000000000e+00  1.7380976305815973e-02 1.7565740023721733e-02 0.0000000000000000e+00  1.4723927352879557e-02 -6.7782183921904788e-04 0.0000000000000000e+00  5.1693212791953311e-03 8.0898978609075453e-04 0.0000000000000000e+00  4.7990860194241118e-03 -6.1714044310957920e-03 0.0000000000000000e+00  3.1082788648276757e-04 3.8775865776120101e-04 0.0000000000000000e+00  -3.0046625191917368e-06 1.6535692767735992e-03 0.0000000000000000e+00  -1.6379762203675499e-02 -1.5771744307044604e-03 0.0000000000000000e+00  -3.2227364595189979e-03 6.7661121188730623e-04 0.0000000000000000e+00  -9.2053908860399041e-04 1.0987590828478021e-03 0.0000000000000000e+00  1.3346113022684877e-03 9.9898755915605415e-04 0.0000000000000000e+00  -3.3297614826757852e-04 1.0395989824867492e-03 0.0000000000000000e+00  5.8082747605987719e-04 1.0264305157062451e-03 0.0000000000000000e+00  1.7027765079300817e-03 -1.7655291240395773e-03 0.0000000000000000e+00  -1.8243616979546661e-03 3.4506544245553271e-03 0.0000000000000000e+00  7.5077630634034359e-02 -1.9751545296468668e-02 0.0000000000000000e+00  -4.2603081036302157e-02 -1.8341044360243728e-02 0.0000000000000000e+00  1.4368572074045969e-02 -4.7265455004681156e-02 0.0000000000000000e+00  -5.1597526186443171e-02 3.6518927972533279e-03 0.0000000000000000e+00  7.6707898174292041e-03 -2.6442179765028013e-03 0.0000000000000000e+00  -1.0520925190463939e-03 -1.0289792774549190e-03 0.0000000000000000e+00  -4.4591256066991996e-04 1.6111352269935299e-04 0.0000000000000000e+00  2.1757545100273385e-04 1.8079445928339617e-03 0.0000000000000000e+00  6.0083330581184151e-04 -1.2211172361111298e-04 0.0000000000000000e+00  -3.2870440780720828e-04 1.9114294954238309e-03 0.0000000000000000e+00  -1.5402290164268529e-04 3.8161698427646799e-04 0.0000000000000000e+00  4.5198406648022917e-02 2.4341822443615126e-02 0.0000000000000000e+00  -4.4482904758649834e-02 -3.5046646831998263e-02 0.0000000000000000e+00  1.4190224931552562e-02 3.4998034113807107e-02 0.0000000000000000e+00  2.9618634020606056e-03 -5.6989269530028838e-04 0.0000000000000000e+00  2.6914181347889158e-03 -5.2533061632414511e-04 0.0000000000000000e+00  -2.2664799308604647e-03 2.0787164900293881e-03 0.0000000000000000e+00  -2.4172533456766360e-03 -3.2456539463369583e-03 0.0000000000000000e+00  4.9508074089283087e-04 2.3778313888734299e-03 0.0000000000000000e+00  8.1388091080247891e-03 -1.4323488449117166e-02 0.0000000000000000e+00  -1.3174040581784421e-02 9.8888385806072607e-03 0.0000000000000000e+00  -3.8837093578471451e-03 4.6172943386074512e-03 0.0000000000000000e+00  -8.4339025228380074e-05 1.3771063738028547e-03 0.0000000000000000e+00  2.7790642695734358e-04 7.2111832996968447e-04 0.0000000000000000e+00  1.6195043194491651e-02 -3.7639925798837709e-02 0.0000000000000000e+00  -5.7177028271470720e-03 2.5876285806391380e-02 0.0000000000000000e+00  -1.9441198980221053e-03 -2.4255663155638588e-06 0.0000000000000000e+00  -9.7016073374908418e-03 2.4068731359219728e-03 0.0000000000000000e+00  1.0400706091381693e-02 8.2552361851205205e-03 0.0000000000000000e+00  -7.9129298377368356e-03 -1.4561730192902314e-02 0.0000000000000000e+00  2.1634125282752152e-03 3.6073674160865626e-03 0.0000000000000000e+00  4.2858824192930280e-02 8.0849853741997921e-03 0.0000000000000000e+00  -3.9540319971321090e-02 7.8576386314298235e-03 0.0000000000000000e+00  -8.9693759396438730e-03 7.3458962833529012e-03 0.0000000000000000e+00  -1.1940027390656281e-02 -3.5971189813891094e-02 0.0000000000000000e+00  -6.1813289904567234e-03 2.3527426192629449e-03 0.0000000000000000e+00  1.8593103355692982e-02 -8.1049668680360717e-03 0.0000000000000000e+00  -5.7443643617757440e-03 -8.7744250977019773e-03 0.0000000000000000e+00  -1.9076702281994030e-02 4.9599435851810326e-03 0.0000000000000000e+00  -2.7673891695102391e-02 -1.3936555916663259e-02 0.0000000000000000e+00  -1.9026974086887308e-02 -9.0614270126840868e-03 0.0000000000000000e+00  2.8620791320981571e-02 -1.4800101553757114e-02 0.0000000000000000e+00  -4.7083928399175969e-03 -1.8939014695935267e-03 0.0000000000000000e+00  2.4861913896328650e-03 -3.4506934386949115e-03 0.0000000000000000e+00  -3.4102446923716446e-03 2.9126210966698804e-02 0.0000000000000000e+00  2.2052110588886790e-02 8.3714264666480583e-03 0.0000000000000000e+00  -1.0317663282493316e-02 -3.3469580674463321e-03 0.0000000000000000e+00  3.1080758632133416e-03 2.1645835254301637e-03 0.0000000000000000e+00  4.1123716637480644e-03 4.7654764095160099e-03 0.0000000000000000e+00  1.1226758648986620e-02 4.3911105940216454e-03 0.0000000000000000e+00  1.4273697163680840e-02 1.0761013799955388e-02 0.0000000000000000e+00  1.8380150979330472e-03 1.7684405217781936e-03 0.0000000000000000e+00  -1.0923236386634870e-03 5.2058583332284677e-04 0.0000000000000000e+00  -1.5200252125180489e-04 8.3388662698868877e-04 0.0000000000000000e+00  3.3474413137735452e-04 1.4267653860508256e-03 0.0000000000000000e+00  6.6059227086126297e-03 3.1329143284569388e-03 0.0000000000000000e+00  1.3542925169865762e-03 2.2899887654469897e-04 0.0000000000000000e+00  -1.2243507911499649e-03 1.5941295681507716e-03 0.0000000000000000e+00  6.4122631054441199e-05 1.2996769879787251e-03 0.0000000000000000e+00  3.1658803846254487e-05 3.6483263829918634e-04 0.0000000000000000e+00  -5.1789842046958533e-03 7.0018662140036708e-05 0.0000000000000000e+00  4.5201701555010144e-03 -9.6324488889231522e-03 0.0000000000000000e+00  -1.3537596919591330e-04 1.6610777490159870e-03 0.0000000000000000e+00  3.5979087617751500e-04 1.7147391659228268e-04 0.0000000000000000e+00  8.9718165518370009e-04 -1.0162146147076139e-03 0.0000000000000000e+00  -2.7371148232601634e-02 7.8170268174297865e-03 0.0000000000000000e+00  -7.1614137936120792e-04 2.6375097367530749e-03 0.0000000000000000e+00  -4.2229271664119062e-04 -1.6407198803744443e-04 0.0000000000000000e+00  -4.3258952771176695e-02 -1.6376566756124752e-02 0.0000000000000000e+00  4.2963944354098102e-02 -5.8480194167052375e-03 0.0000000000000000e+00  2.0911045444970865e-02 1.3351414428932619e-02 0.0000000000000000e+00  -3.6089239999400592e-02 -1.8204576576223055e-02 0.0000000000000000e+00  6.4945969342782781e-02 1.4043813001783716e-03 0.0000000000000000e+00  8.0691500007136756e-04 2.5512027515320807e-03 0.0000000000000000e+00  6.0461689012674593e-03 -9.5094041772062008e-04 0.0000000000000000e+00  -2.6545543975002296e-04 5.7726756252346446e-04 0.0000000000000000e+00  -1.4483551133472885e-03 -1.9025404696405227e-03 0.0000000000000000e+00  -7.5260864436663653e-04 1.7893234072327983e-03 0.0000000000000000e+00  1.0298823729444614e-02 -2.5320864272722596e-02 0.0000000000000000e+00  2.1141283826049963e-04 1.3142337596662443e-03 0.0000000000000000e+00  -7.5568313879285096e-04 3.8586324055787702e-04 0.0000000000000000e+00  -1.6816401204103472e-02 1.5783260026812511e-02 0.0000000000000000e+00  -1.9035094068166027e-05 1.6061551730396795e-03 0.0000000000000000e+00  1.0378390727131411e-03 2.0806889080307190e-03 0.0000000000000000e+00  -6.3863825618313275e-03 8.7690586662073060e-03 0.0000000000000000e+00  1.0001032718541696e-01 7.9578235466907371e-02 0.0000000000000000e+00  -2.5969464164688500e-02 -5.2102701553401319e-02 0.0000000000000000e+00  -3.7561632458479738e-02 8.4025395811293702e-02 0.0000000000000000e+00  -3.3203643973369112e-02 -4.6786024363537293e-02 0.0000000000000000e+00  1.9219110559679415e-03 3.8628347905704898e-04 0.0000000000000000e+00  -2.5150529383364171e-03 -6.7177545525848575e-03 0.0000000000000000e+00  -7.1637823962309869e-03 -3.1462647486648000e-03 0.0000000000000000e+00  -1.0160028823455309e-02 -2.4103077370444391e-02 0.0000000000000000e+00  -2.1370246181647255e-03 5.0669492444726056e-03 0.0000000000000000e+00  3.5968336893476959e-03 4.0939749061669591e-04 0.0000000000000000e+00  1.1129675073981656e-02 -1.0425889647412640e-03 0.0000000000000000e+00  8.0271653655373656e-02 -4.7208328779193863e-02 0.0000000000000000e+00  -7.7087779964050964e-03 -6.4359895205825766e-03 0.0000000000000000e+00  -8.4598233710558760e-02 8.2106188744849908e-03 0.0000000000000000e+00  1.9608327307466346e-02 1.0878210585955090e-03 0.0000000000000000e+00  -2.6588392613256915e-05 4.0301016317823327e-04 0.0000000000000000e+00  -1.2447992010707119e-02 -4.3523978053391988e-05 0.0000000000000000e+00  2.5860204408772638e-02 -2.1658547895838415e-03 0.0000000000000000e+00  -4.5627122695931173e-02 9.3177381509427387e-04 0.0000000000000000e+00  -8.5783150274823028e-02 -5.1233975395740185e-02 0.0000000000000000e+00  -2.4180710830817721e-02 2.0301879647243389e-02 0.0000000000000000e+00  -5.4571991270170846e-03 4.4365540559898218e-03 0.0000000000000000e+00  -5.6637712997781363e-04 1.2083088493502743e-03 0.0000000000000000e+00  8.5874320498990485e-04 1.1706196551162938e-03 0.0000000000000000e+00  -1.0000022977608797e-02 5.8144349657350183e-03 0.0000000000000000e+00  1.8463145491679673e-02 1.8031284024135317e-02 0.0000000000000000e+00  4.1459452756103356e-03 1.9744471066666198e-03 0.0000000000000000e+00  5.2016729314817098e-04 -7.4095173856510046e-04 0.0000000000000000e+00  -4.6030034609180542e-03 1.6768011918903906e-03 0.0000000000000000e+00  -3.1483999035357375e-04 2.6311477181748763e-03 0.0000000000000000e+00  5.4388618139758586e-03 -3.8875264087594530e-03 0.0000000000000000e+00  6.8668777247492480e-03 8.2494456686432495e-03 0.0000000000000000e+00  -1.7188491913834068e-02 8.7964657638810676e-03 0.0000000000000000e+00  1.4145260772664585e-02 -1.3777571203868742e-02 0.0000000000000000e+00  -2.4441766131297452e-04 1.4535341328787560e-03 0.0000000000000000e+00  4.8870678358978496e-04 5.8638216199617579e-04 0.0000000000000000e+00  -1.5001490848563330e-02 -1.4036515045796075e-02 0.0000000000000000e+00  -5.3479574563788750e-04 -7.8115401338573246e-04 0.0000000000000000e+00  -1.8276259355068039e-04 2.3508859435531621e-04 0.0000000000000000e+00  -3.8809691433626607e-02 -2.4056043917529600e-02 0.0000000000000000e+00  9.6105295392629450e-02 6.30869481