<?xml version="1.0"?>
<VTKFile type="UnstructuredGrid"  version="0.1"  >
<UnstructuredGrid>
<Piece  NumberOfPoints="1855" NumberOfCells="3532">
<Points>
<DataArray  type="Float64"  NumberOfComponents="3"  format="ascii">0 0 0  30 0 0  30 -10 0  0 -10 0  0.1391574078963744 0 0  0.2856388821882616 0 0  0.4398299073010886 0 0  0.6021362569539473 0 0  0.7729850389704483 0 0  0.9528258543586996 0 0  1.142131984380316 0 0  1.34140159760994 0 0  1.551159074717981 0 0  1.771956417032531 0 0  2.004374674080994 0 0  2.249025475789527 0 0  2.506552636773105 0 0  2.777633857742732 0 0  3.062982518028728 0 0  3.363349525995907 0 0  3.679525322337712 0 0  4.01234195575742 0 0  4.362675247811097 0 0  4.731447135329707 0 0  5.119628065610077 0 0  5.528239565804708 0 0  5.958356943167011 0 0  6.411112081475485 0 0  6.887696441559404 0 0  7.389364184530748 0 0  7.917435485335147 0 0  8.473300005202017 0 0  9.058420557070402 0 0  9.674336929103793 0 0  10.32266995225095 0 0  11.00512576896296 0 0  11.72350030646412 0 0  12.47968402994705 0 0  13.27566689579597 0 0  14.1135435963616 0 0  14.9955190732806 0 0  15.92391430904694 0 0  16.90117245730496 0 0  17.92986524844506 0 0  19.01269976086341 0 0  20.15252556282024 0 0  21.35234220269763 0 0  22.61530708683689 0 0  23.94474379751883 0 0  25.34415086349739 0 0  26.81721093579712 0 0  28.3678004819169 0 0  30 -1.111111111111111 0  30 -2.222222222222222 0  30 -3.333333333333333 0  30 -4.444444444444445 0  30 -5.555555555555555 0  30 -6.666666666666666 0  30 -7.777777777777777 0  30 -8.888888888888889 0  28.36780047917311 -10 0  26.8172109305839 -10 0  25.34415085606858 -10 0  23.94474378810899 -10 0  22.61530707566275 -10 0  21.3523421899591 -10 0  20.15252554870171 -10 0  19.01269974553473 -10 0  17.92986523206254 -10 0  16.90117244001232 -10 0  15.92391429097614 -10 0  14.99551905455266 -10 0  14.11354357708742 -10 0  13.27566687607703 -10 0  12.47968400987599 -10 0  11.72350028612546 -10 0  11.00512574843363 -10 0  10.32266993160086 -10 0  9.674336908396342 -10 0  9.058420536362949 -10 0  8.473299984546333 -10 0  7.917435464777824 -10 0  7.389364164113587 -10 0  6.887696420787165 -10 0  6.411112061446698 -10 0  5.95835692337857 -10 0  5.528239546282652 -10 0  5.119628046377237 -10 0  4.731447115907979 -10 0  4.362675229213632 -10 0  4.012341937260036 -10 0  3.679525304434552 -10 0  3.363349508456405 -10 0  3.062982500861274 -10 0  2.777633840953978 -10 0  2.506552620368097 -10 0  2.249025459771861 -10 0  2.004374658452946 -10 0  1.771956401795187 -10 0  1.551159059871345 -10 0  1.341401583153029 -10 0  1.142131970307521 -10 0  0.9528258406748833 -10 0  0.7729850256685147 -10 0  0.6021362439621285 -10 0  0.4398298947504031 -10 0  0.2856388700059078 -10 0  0.1391573960769001 -10 0  0 -9.855072463768115 0  0 -9.710144927536232 0  0 -9.565217391304348 0  0 -9.420289855072463 0  0 -9.27536231884058 0  0 -9.130434782608695 0  0 -8.985507246376812 0  0 -8.840579710144928 0  0 -8.695652173913043 0  0 -8.55072463768116 0  0 -8.405797101449275 0  0 -8.260869565217391 0  0 -8.115942028985508 0  0 -7.971014492753623 0  0 -7.826086956521739 0  0 -7.681159420289855 0  0 -7.536231884057971 0  0 -7.391304347826087 0  0 -7.246376811594203 0  0 -7.101449275362318 0  0 -6.956521739130435 0  0 -6.811594202898551 0  0 -6.666666666666667 0  0 -6.521739130434783 0  0 -6.376811594202898 0  0 -6.231884057971015 0  0 -6.086956521739131 0  0 -5.942028985507246 0  0 -5.797101449275362 0  0 -5.652173913043478 0  0 -5.507246376811594 0  0 -5.36231884057971 0  0 -5.217391304347826 0  0 -5.072463768115941 0  0 -4.927536231884058 0  0 -4.782608695652174 0  0 -4.637681159420289 0  0 -4.492753623188406 0  0 -4.347826086956522 0  0 -4.202898550724638 0  0 -4.057971014492754 0  0 -3.913043478260869 0  0 -3.768115942028985 0  0 -3.623188405797101 0  0 -3.478260869565217 0  0 -3.333333333333334 0  0 -3.188405797101449 0  0 -3.043478260869565 0  0 -2.898550724637681 0  0 -2.753623188405797 0  0 -2.608695652173912 0  0 -2.463768115942029 0  0 -2.318840579710145 0  0 -2.173913043478261 0  0 -2.028985507246377 0  0 -1.884057971014492 0  0 -1.739130434782609 0  0 -1.594202898550725 0  0 -1.44927536231884 0  0 -1.304347826086957 0  0 -1.159420289855072 0  0 -1.014492753623188 0  0 -0.8695652173913047 0  0 -0.72463768115942 0  0 -0.579710144927537 0  0 -0.4347826086956523 0  0 -0.2898550724637676 0  0 -0.1449275362318829 0  5.15859856094262 -4.976557621770688 0  2.816777084926057 -7.160262673925935 0  2.81677708460006 -2.839737326002783 0  2.227649803257325 -5.003121586636773 0  1.518662968975629 -8.46230852045241 0  1.518662969184829 -1.537691480152612 0  9.960740911025725 -5.055901393541221 0  1.491099662214591 -3.691833922963321 0  1.503675657181264 -6.345020369042368 0  5.319208041801049 -7.493850249937013 0  5.291109955459268 -2.489368743223226 0  1.096914507335763 -2.53623188405797 0  1.096914507253562 -7.463768115942029 0  1.089580194952752 -4.71277167923441 0  15.07565076110197 -5.047572991082069 0  7.501630508673601 -5.937500100385354 0  0.8894869418764504 -5.623930488933245 0  2.955144522453978 -1.440834296472408 0  2.955144521140721 -8.559165705576945 0  8.106603955004623 -2.748811534843258 0  3.662152539483591 -4.228178367024407 0  3.662181528265114 -5.771746159989156 0  0.8436558190317136 -0.8541050638451999 0  0.8436558075840921 -9.145894948342754 0  0.7854168197005933 -1.811594202898552 0  0.7894693398152999 -3.286543351392342 0  0.7854168196772591 -8.188405797101449 0  0.7854168196772591 -6.739130434782609 0  20.00078956016804 -4.999999999785771 0  0.7379120031523989 -3.977302749614766 0  6.584332478112232 -3.934875417052907 0  7.295091310194352 -7.969791332537982 0  9.811174303464586 -7.412814499648229 0  4.013376806449688 -2.206189431585293 0  4.013376806983409 -7.793810569017377 0  12.11177433894592 -2.818343737884045 0  2.591152707837148 -3.990098461753838 0  2.58990939378082 -6.025895074707176 0  25.43156400064585 -5.044446479916348 0  2.03262751726143 -2.282125834846944 0  2.032627517335952 -7.717874165160392 0  12.51865094522923 -6.491408052923457 0  0.598175343983641 -6.156971652625402 0  2.126700074935224 -0.8767654465386991 0  2.126700059112423 -9.123234559633019 0  6.617961838548696 -1.617756429129908 0  0.5903949564549755 -4.980060355019413 0  1.676697585305984 -5.547101897225158 0  4.773518305133987 -3.729331162566817 0  4.77931803486508 -6.231222307502165 0  4.878549698409591 -8.72048903376362 0  4.852580875634024 -1.222215410052823 0  0.5487847095754042 -2.675169258708207 0  0.545113423825768 -7.32369553390529 0  1.78738026998851 -4.400451872599477 0  1.68244194111824 -3.010100184333533 0  1.683984276238402 -7.018293626028473 0  9.998503440677371 -2.00585287985007 0  3.693061162502273 -3.243678395563028 0  3.694987482168253 -6.757603268814477 0  6.081763036485869 -5.83414381546261 0  0.5196640460586313 -1.350633211792632 0  0.5196640458460706 -8.649366789040087 0  3.84593363904758 -0.9906418103762418 0  3.845933620847308 -9.009358200471317 0  17.41551885287501 -3.057748733689079 0  17.30725517812527 -7.002961443761516 0  8.117698464370697 -4.451550942597151 0  0.4918476668493152 -0.4789811193757592 0  0.4918476560347713 -9.521018882514893 0  1.463770869328428 -0.6252343353791154 0  1.463770854281917 -9.374765668872765 0  0.5034132782032188 -4.464280853772128 0  3.138906271796685 -4.99999841599503 0  14.61209972381335 -2.388610981020637 0  6.208601124947327 -8.776231214192325 0  14.74910972998159 -7.542186851303819 0  2.243794246335625 -1.632184311040998 0  2.243794245689214 -8.367815689183566 0  0.4590235278399923 -5.431413993025926 0  0.4971508861448406 -2.209632053221267 0  0.4971508861368665 -7.790367946777407 0  0.4644363683211541 -3.560571347760519 0  6.478811279411406 -7.007392971062433 0  1.238895267772762 -4.173677632458826 0  1.293241773632479 -2.02256720952064 0  1.293241773542714 -7.977432790434841 0  0.4324740478030531 -0.942028985507247 0  0.4324740423701829 -9.057971014492754 0  2.117396640811705 -3.472968170680347 0  2.107095929630507 -6.531506384346077 0  8.087741545730886 -1.392783601483453 0  1.028911946384717 -1.352376108341404 0  1.028911946221715 -8.647623891551962 0  4.05691976296832 -4.991522392209158 0  11.51826881314265 -8.065248940008736 0  1.618560396201739 -4.958056164503666 0  2.701984523487646 -2.141781914603403 0  2.70198452396172 -7.858218085853512 0  2.843615645746219 -9.289121726447632 0  2.843615661334342 -0.7108782798429658 0  8.678774612240533 -8.488146490452822 0  6.487906449371135 -2.667543558824978 0  8.369190916679937 -7.129867754908394 0  11.80978191929258 -4.655775487536958 0  0.3792065166453504 -3.113833531412848 0  0.4134714637263563 -6.58827691137208 0  9.551050695080825 -3.49648183875815 0  1.083867845277057 -6.036251777836495 0  0.3756430921870901 -1.80381664325008 0  0.3756430921689482 -8.196183356748573 0  3.113073783220456 -3.503408140759125 0  3.113391383189963 -6.496678880796299 0  22.62850736315072 -3.277987336300344 0  22.59385352108348 -6.800312122582239 0  0.3777114402537816 -4.137047872695438 0  0.9196816123347897 -0.4281025456111269 0  0.9196815944880363 -9.571897460530383 0  0.4052043328723194 -5.827814332459883 0  8.865857694874787 -5.767686953139113 0  1.200388325130726 -5.182186034620629 0  5.65297436943758 -4.325500846767599 0  1.200079167961391 -3.009849046583253 0  1.20883344838 -7.021823297793294 0  1.057642414577487 -3.660996704809145 0  10.88812987788297 -6.333458225047037 0  4.493502926606794 -2.839780197438185 0  4.485862892033458 -7.147606077919463 0  0.3631651408878085 -7.003529808558233 0  1.946748828463205 -6.049056369468467 0  6.918750162798794 -4.993796052442676 0  3.351203216022585 -1.980935554775394 0  3.351203216441711 -8.019064445907297 0  2.281892243515294 -2.856654416292082 0  2.281892243715877 -7.143345583598931 0  5.811143619672087 -0.9953286820321026 0  2.695713766833098 -4.565354125099452 0  2.698172168139827 -5.435483248292925 0  19.86166219288896 -2.493475492328429 0  19.83739102036415 -7.594404063416508
[...]
<PointData  Vectors="flow"> 
<DataArray  type="Float64"  Name="flow"  NumberOfComponents="3" format="ascii">-1.2675134103352042e-13 -5.7711945379526053e-14 0.0000000000000000e+00  -9.5204542221039174e-24 -4.3348175220413429e-24 0.0000000000000000e+00  -3.6179851698669534e-24 -1.6473274428873953e-24 0.0000000000000000e+00  2.3217930713181766e-19 1.0571501162977123e-19 0.0000000000000000e+00  5.8251542212575105e-13 2.6522873801834074e-13 0.0000000000000000e+00  -2.9007731700190950e-12 -1.3207691641089951e-12 0.0000000000000000e+00  5.0463628611437129e-12 2.2976910179638731e-12 0.0000000000000000e+00  -3.0032334235735988e-11 -1.3674209826104358e-11 0.0000000000000000e+00  3.0809773587783273e-11 1.4028190597080010e-11 0.0000000000000000e+00  2.6317787792762810e-10 1.1982916466376604e-10 0.0000000000000000e+00  4.1903884934652073e-10 1.9079519781167707e-10 0.0000000000000000e+00  -2.0862810141672426e-09 -9.4991764942447962e-10 0.0000000000000000e+00  -7.3383776854291214e-09 -3.3412826144680993e-09 0.0000000000000000e+00  -9.7537862933621673e-09 -4.4410574059111741e-09 0.0000000000000000e+00  -3.1381414583059141e-08 -1.4288468031835810e-08 0.0000000000000000e+00  -7.3517143159498738e-09 -3.3473549990747331e-09 0.0000000000000000e+00  3.3488750006673792e-07 1.5247972096032060e-07 0.0000000000000000e+00  -6.5260442361353144e-07 -2.9714139939601100e-07 0.0000000000000000e+00  -1.2477917163037201e-06 -5.6813984601000200e-07 0.0000000000000000e+00  -1.2080318556780481e-06 -5.5003653533875992e-07 0.0000000000000000e+00  -2.8902451809768504e-07 -1.3159755996101325e-07 0.0000000000000000e+00  1.0097190583380997e-06 4.5974149597410661e-07 0.0000000000000000e+00  -1.1309678264344712e-06 -5.1494803047429916e-07 0.0000000000000000e+00  -3.6665939009987258e-07 -1.6694597881010331e-07 0.0000000000000000e+00  5.9596664966914229e-07 2.7135330051165995e-07 0.0000000000000000e+00  5.1956162377241007e-07 2.3656485058033034e-07 0.0000000000000000e+00  8.8024468091016574e-07 4.0078970787276525e-07 0.0000000000000000e+00  3.7472485451311894e-07 1.7061831582746572e-07 0.0000000000000000e+00  -2.6347612684593239e-07 -1.1996496224304467e-07 0.0000000000000000e+00  -1.4047069433174188e-08 -6.3958589886269295e-09 0.0000000000000000e+00  -3.1845712523814524e-09 -1.4499870429461087e-09 0.0000000000000000e+00  -9.0102990038934482e-10 -4.1025355607746900e-10 0.0000000000000000e+00  6.0074197756773731e-10 2.7352758490664836e-10 0.0000000000000000e+00  4.1343000478706852e-11 1.8824139973571174e-11 0.0000000000000000e+00  9.3131534394115220e-12 4.2404301068840208e-12 0.0000000000000000e+00  -2.8340350584010077e-12 -1.2903822173435406e-12 0.0000000000000000e+00  8.5212329495900837e-13 3.8798558385501189e-13 0.0000000000000000e+00  -1.6260375401657550e-13 -7.4036131640049365e-14 0.0000000000000000e+00  3.0443657815220552e-14 1.3861492136168787e-14 0.0000000000000000e+00  3.1495482588141220e-15 1.4340405048242809e-15 0.0000000000000000e+00  -1.1227056040650478e-15 -5.1118610636202371e-16 0.0000000000000000e+00  6.5736508264632933e-16 2.9930900481802242e-16 0.0000000000000000e+00  -1.5422802843139715e-16 -7.0222527669122890e-17 0.0000000000000000e+00  3.4237277548346265e-17 1.5588788849904932e-17 0.0000000000000000e+00  -3.2969258156265311e-18 -1.5011439014398232e-18 0.0000000000000000e+00  7.6025431804947996e-19 3.4615614572643655e-19 0.0000000000000000e+00  -9.6064372481591025e-20 -4.3739669910946917e-20 0.0000000000000000e+00  1.6156161383174092e-20 7.3561628278313255e-21 0.0000000000000000e+00  2.8719730268449472e-22 1.3076559908972882e-22 0.0000000000000000e+00  1.9370309116461737e-22 8.8196165231746529e-23 0.0000000000000000e+00  -1.9589398621749070e-22 -8.9193715353052544e-23 0.0000000000000000e+00  4.5570672644823519e-23 2.0749067813734710e-23 0.0000000000000000e+00  4.3112081644185511e-24 1.9629631377145907e-24 0.0000000000000000e+00  -3.7916046520391639e-25 -1.7263792145707823e-25 0.0000000000000000e+00  1.1799086085834552e-24 5.3723156391215666e-25 0.0000000000000000e+00  -1.5350868867168287e-24 -6.9895000586699598e-25 0.0000000000000000e+00  -3.8276026133468730e-25 -1.7427696713487855e-25 0.0000000000000000e+00  1.2003012272419738e-24 5.4651665458314674e-25 0.0000000000000000e+00  -1.3544110127101033e-25 -6.1668534430955257e-26 0.0000000000000000e+00  1.7843660126947258e-24 8.1245084290261850e-25 0.0000000000000000e+00  1.7804714934885442e-23 8.1067760501910584e-24 0.0000000000000000e+00  -7.3586560362146624e-23 -3.3505156771195826e-23 0.0000000000000000e+00  1.3323903897436207e-22 6.0665899682082179e-23 0.0000000000000000e+00  1.4229048785047276e-21 6.4787171448394644e-22 0.0000000000000000e+00  -1.8476889814475158e-20 -8.4128281962280215e-21 0.0000000000000000e+00  9.8965159398561096e-20 4.5060445334266049e-20 0.0000000000000000e+00  -5.2395245315981580e-19 -2.3856406655477731e-19 0.0000000000000000e+00  1.2027126769533093e-18 5.4761462682463312e-19 0.0000000000000000e+00  -1.1815655990780748e-17 -5.3798601861172765e-18 0.0000000000000000e+00  2.9530355052953083e-17 1.3445650546634754e-17 0.0000000000000000e+00  -2.3642866132772594e-16 -1.0764981165044828e-16 0.0000000000000000e+00  6.2810154652785220e-16 2.8598484126826719e-16 0.0000000000000000e+00  -1.5551657964632586e-15 -7.0809225977230055e-16 0.0000000000000000e+00  -1.0278281026047562e-14 -4.6798683811464030e-15 0.0000000000000000e+00  2.3674339861285546e-14 1.0779311665109122e-14 0.0000000000000000e+00  -1.9561977239909086e-13 -8.9068861345348968e-14 0.0000000000000000e+00  1.2266476868772199e-12 5.5851262580534505e-13 0.0000000000000000e+00  -4.6358515438126825e-12 -2.1107785440578136e-12 0.0000000000000000e+00  -8.9123868466954243e-12 -4.0579545644544257e-12 0.0000000000000000e+00  1.1732381607594744e-11 5.3419440061797876e-12 0.0000000000000000e+00  -4.0899453875790634e-11 -1.8622185997289411e-11 0.0000000000000000e+00  3.8354668152551184e-11 1.7463503702769511e-11 0.0000000000000000e+00  6.9201477025328784e-11 3.1508557066959376e-11 0.0000000000000000e+00  -3.4151164059718944e-11 -1.5549579979122343e-11 0.0000000000000000e+00  -4.9073475751740100e-11 -2.2343950991563436e-11 0.0000000000000000e+00  4.9787149293980401e-12 2.2668898153090381e-12 0.0000000000000000e+00  3.1576984179512069e-10 1.4377514047257457e-10 0.0000000000000000e+00  1.1099378877606492e-10 5.0537275764339913e-11 0.0000000000000000e+00  2.5759379595365576e-11 1.1728664139538130e-11 0.0000000000000000e+00  8.8909054604125870e-12 4.0481737401908002e-12 0.0000000000000000e+00  -7.0876598664934705e-12 -3.2271267171489525e-12 0.0000000000000000e+00  -9.9969248351514001e-12 -4.5517623351764680e-12 0.0000000000000000e+00  8.7544834330940427e-12 3.9860585741895642e-12 0.0000000000000000e+00  5.0744025096957581e-12 2.3104579256155123e-12 0.0000000000000000e+00  2.4901801007873890e-12 1.1338194672340290e-12 0.0000000000000000e+00  -1.9939437745452373e-12 -9.0787500367328343e-13 0.0000000000000000e+00  -1.8938375939300692e-14 -8.6229503283661454e-15 0.0000000000000000e+00  1.6611868586500151e-13 7.5636537230988777e-14 0.0000000000000000e+00  6.5704676634970694e-14 2.9916407023528417e-14 0.0000000000000000e+00  1.2204236435753065e-14 5.5567871774448360e-15 0.0000000000000000e+00  4.9301425219482178e-15 2.2447740088580904e-15 0.0000000000000000e+00  -4.5795551410498817e-16 -2.0851458770199673e-16 0.0000000000000000e+00  -7.7338810310182946e-16 -3.5213617149489919e-16 0.0000000000000000e+00  -3.6041923891014114e-17 -1.6410473656615141e-17 0.0000000000000000e+00  5.9520130921293153e-17 2.7100482856457467e-17 0.0000000000000000e+00  -9.3015310651246058e-18 -4.2351382509986472e-18 0.0000000000000000e+00  6.5000110316582139e-18 2.9595606529020528e-18 0.0000000000000000e+00  -1.5934883350483930e-18 -7.2554113436089396e-19 0.0000000000000000e+00  9.0153223360366382e-19 4.1048227655325023e-19 0.0000000000000000e+00  -2.4770595879913806e-18 -1.1278454845395614e-18 0.0000000000000000e+00  1.9583652583894048e-19 8.9167552708924037e-20 0.0000000000000000e+00  -1.7902782012466587e-17 -8.1514275842793423e-18 0.0000000000000000e+00  -1.6018462838522379e-17 -7.2934664427438445e-18 0.0000000000000000e+00  -7.4216835817272302e-16 -3.3792131428376369e-16 0.0000000000000000e+00  9.1542833016297459e-16 4.1680939513898159e-16 0.0000000000000000e+00  -1.0954748919822561e-15 -4.9878752063066887e-16 0.0000000000000000e+00  -3.9805655046596711e-15 -1.8124161615283552e-15 0.0000000000000000e+00  2.7020633010506934e-14 1.2302933315791858e-14 0.0000000000000000e+00  -8.6419782297879079e-14 -3.9348331268280267e-14 0.0000000000000000e+00  -1.8298335885707024e-13 -8.3315296908209319e-14 0.0000000000000000e+00  1.3247211524244154e-13 6.0316706843837040e-14 0.0000000000000000e+00  5.1894403748858529e-13 2.3628365350905169e-13 0.0000000000000000e+00  3.8572367158849076e-13 1.7562625598113506e-13 0.0000000000000000e+00  3.1995587091835714e-12 1.4568110755858302e-12 0.0000000000000000e+00  9.3322570741216998e-13 4.2491283022163600e-13 0.0000000000000000e+00  5.8928833151195650e-13 2.6831255372686988e-13 0.0000000000000000e+00  -7.6181007646450161e-11 -3.4686450781506838e-11 0.0000000000000000e+00  -6.6934423090574761e-11 -3.0476330569092483e-11 0.0000000000000000e+00  -2.8858798627446440e-11 -1.3139879992792177e-11 0.0000000000000000e+00  -7.8350047826169941e-11 -3.5674050023907578e-11 0.0000000000000000e+00  6.2578189922488789e-11 2.8492866815517253e-11 0.0000000000000000e+00  2.6954690636443900e-10 1.2272908681266574e-10 0.0000000000000000e+00  9.3864233663814697e-10 4.2737910953262180e-10 0.0000000000000000e+00  -2.3505539472139535e-09 -1.0702454104794551e-09 0.0000000000000000e+00  -2.4522406617553977e-08 -1.1165450240976439e-08 0.0000000000000000e+00  -2.7800761906544376e-08 -1.2658138679853461e-08 0.0000000000000000e+00  4.1281988491190027e-08 1.8796360224163035e-08 0.0000000000000000e+00  1.3916834572745061e-07 6.3365609402567269e-08 0.0000000000000000e+00  -2.7556416289562060e-08 -1.2546884149636876e-08 0.0000000000000000e+00  -2.0178059308580534e-07 -9.1873983122093735e-08 0.0000000000000000e+00  -3.7547551337170258e-08 -1.7096010300456426e-08 0.0000000000000000e+00  -2.5495940213134924e-07 -1.1608715907715562e-07 0.0000000000000000e+00  6.1544778932875678e-07 2.8022337998221388e-07 0.0000000000000000e+00  -2.3025431905644519e-06 -1.0483853327651451e-06 0.0000000000000000e+00  -3.2623055383188899e-08 -1.4853807265754622e-08 0.0000000000000000e+00  -2.0462589088191361e-06 -9.3169493446943514e-07 0.0000000000000000e+00  -3.8220395604191259e-07 -1.7402367229468821e-07 0.0000000000000000e+00  1.0626331529851006e-06 4.8383414316170071e-07 0.0000000000000000e+00  -1.3124284019749160e-06 -5.9756997939204798e-07 0.0000000000000000e+00  9.5942616172378945e-07 4.3684232284728758e-07 0.0000000000000000e+00  3.3694297579038004e-06 1.5341561246035952e-06 0.0000000000000000e+00  5.0276984572636044e-08 2.2891928115663084e-08 0.0000000000000000e+00  1.6907889941501794e-06 7.6984370566062658e-07 0.0000000000000000e+00  1.4347720935260175e-06 6.5327505033452812e-07 0.0000000000000000e+00  -3.1441449261690719e-09 -1.4315802796626689e-09 0.0000000000000000e+00  -2.9444611964905260e-07 -1.3406610325255349e-07 0.0000000000000000e+00  -2.1158021624457950e-07 -9.6335910797711318e-08 0.0000000000000000e+00  1.3799022594329065e-07 6.2829192319484901e-08 0.0000000000000000e+00  -6.0978907265620440e-08 -2.7764687432269425e-08 0.0000000000000000e+00  -3.4284334196642886e-08 -1.5610214506581158e-08 0.0000000000000000e+00  3.5443785752198553e-08 1.6138131641806880e-08 0.0000000000000000e+00  2.8790741348901082e-09 1.3108892407887241e-09 0.0000000000000000e+00  -1.3996859211053490e-10 -6.3729974585406092e-11 0.0000000000000000e+00  2.3743515033537813e-09 1.0810808245185433e-09 0.0000000000000000e+00  1.3474052849304564e-09 6.1349552260300711e-10 0.0000000000000000e+00  2.2587912772024261e-09 1.0284643756091080e-09 0.0000000000000000e+00  1.5707764550044589e-10 7.1520004629134166e-11 0.0000000000000000e+00  5.2937974895741298e-10 2.4103520252916221e-10 0.0000000000000000e+00  -3.0824276890288993e-10 -1.4034794186400745e-10 0.0000000000000000e+00  -9.4851753624291831e-11 -4.3187544839227754e-11 0.0000000000000000e+00  9.0812925662204502e-11 4.1348600834022693e-11 0.0000000000000000e+00  -1.5713570256990247e-12 -7.1546438956329942e-13 0.0000000000000000e+00  6.5332613122400067e-12 2.9747000459936253e-12 0.0000000000000000e+00  -2.1181246125348604e-13 -9.6441655724427102e-14 0.0000000000000000e+00  7.7092318490993073e-13 3.5101385418530715e-13 0.0000000000000000e+00  -3.6909570772510815e-13 -1.6805527381691131e-13 0.0000000000000000e+00  3.1435365540342708e-02 1.4313032779431644e-02 0.0000000000000000e+00  8.5271438836877553e-05 3.8825471829020233e-05 0.0000000000000000e+00  -4.2531102805862517e+01 -1.9365102270703570e+01 0.0000000000000000e+00  1.6117825608184404e+01 7.3387079264926243e+00 0.0000000000000000e+00  2.4682440060429363e-10 1.1238316068184358e-10 0.0000000000000000e+00  -1.1116062847063031e-04 -5.0613240588549196e-05 0.0000000000000000e+00  1.3577229571045421e-10 6.1819332641399390e-11 0.0000000000000000e+00  -4.5073339244862554e-01 -2.0522623834681405e-01 0.0000000000000000e+00  -3.0313153050193957e-04 -1.3802071195849179e-04 0.0000000000000000e+00  -4.5649360326097286e-06 -2.0784895593754037e-06 0.0000000000000000e+00  -6.5312886318725375e-03 -2.9738018525647396e-03 0.0000000000000000e+00  -3.4844136690426129e-05 -1.5865101679222721e-05 0.0000000000000000e+00  3.5609365723809504e-08 1.6213522893683458e-08 0.0000000000000000e+00  2.3254375615018245e-02 1.0588095119041003e-02 0.0000000000000000e+00  -3.6477801346152444e-15 -1.6608935745284304e-15 0.0000000000000000e+00  -7.5507096534018379e-07 -3.4379608100441841e-07 0.0000000000000000e+00  3.0628113915796655e-04 1.3945477996314885e-04 0.0000000000000000e+00  -6.6894050041568934e-03 -3.0457948063786970e-03 0.0000000000000000e+00  2.6616979641141515e-08 1.2119143377041501e-08 0.0000000000000000e+00  1.5616853540710157e-07 7.1106072029894769e-08 0.0000000000000000e+00  -3.8136966313632496e+02 -1.7364380517687201e+02 0.0000000000000000e+00  6.8837647935616558e-02 3.1342899769910282e-02 0.0000000000000000e+00  1.5235787366808567e-08 6.9371015813930979e-09 0.0000000000000000e+00  -3.4373402382419524e-14 -1.5650768698991920e-14 0.0000000000000000e+00  -2.8218975524969700e-06 -1.2848558136616069e-06 0.0000000000000000e+00  -9.4681717655147090e-04 -4.3110124699260609e-04 0.0000000000000000e+00  4.0463246445345203e-11 1.8423573665500708e-11 0.0000000000000000e+00  2.3741801922677507e-08 1.0810028237971367e-08 0.0000000000000000e+00  -5.7994386516329080e-19 -2.6405786634355139e-19 0.0000000000000000e+00  4.0341854264380741e-03 1.8368301832791135e-03 0.0000000000000000e+00  3.1468140125513630e-04 1.4327955580672238e-04 0.0000000000000000e+00  1.6677971637432080e-08 7.5937515164137005e-09 0.0000000000000000e+00  -1.0015444956082638e-10 -4.5601948472026994e-11 0.0000000000000000e+00  -6.5680968851907816e-03 -2.9905612484630328e-03 0.0000000000000000e+00  4.9943958446868647e-07 2.2740295908670118e-07 0.0000000000000000e+00  -3.2786382399466690e-12 -1.4928172710455857e-12 0.0000000000000000e+00  2.4076856420112549e+03 1.0962583995547311e+03 0.0000000000000000e+00  -1.6304231483033058e-03 -7.4235815505503124e-04 0.0000000000000000e+00  -4.2076762463453711e-22 -1.9158233729424204e-22 0.0000000000000000e+00  -8.5308285216553301e-02 -3.8842248584468650e-02 0.0000000000000000e+00  1.6924970550691025e-07 7.7062141355431820e-08 0.0000000000000000e+00  1.6883069721799939e-13 7.6871360072282933e-14 0.0000000000000000e+00  1.1225496415088798e-06 5.1111509407568608e-07 0.0000000000000000e+00  -6.9610695900428346e-06 -3.1694881070914301e-06 0.0000000000000000e+00  2.5267154332430100e-11 1.1504545978283783e-11 0.0000000000000000e+00  -1.6223055497128557e-05 -7.3866208049956832e-06 0.0000000000000000e+00  3.6033615212146111e-05 1.6406690580104272e-05 0.0000000000000000e+00  9.0606861649009573e-04 4.1254776540118019e-04 0.0000000000000000e+00  -1.5758237481826154e+00 -7.1749816089775653e-01 0.0000000000000000e+00  -3.3163903330762908e-05 -1.5100064125481085e-05 0.0000000000000000e+00  7.6517130387087983e-10 3.4839492927573370e-10 0.0000000000000000e+00  2.1657614801428604e-05 9.8610639720200074e-06 0.0000000000000000e+00  -5.6800467025444533e-06 -2.5862175688043595e-06 0.0000000000000000e+00  -3.7394291262496543e-09 -1.7026228497863123e-09 0.0000000000000000e+00  1.8739953091417089e+01 8.5326051812006511e+00 0.0000000000000000e+00  1.4677165060861216e-01 6.6827517674523287e-02 0.0000000000000000e+00  -1.3939036151962806e-06 -6.3466696800673377e-07 0.0000000000000000e+00  -1.7571005017684899e-10 -8.0003641269233819e-11 0.0000000000000000e+00  -5.0733914084113628e+01 -2.3099975547695539e+01 0.0000000000000000e+00  -2.2148241078985824e-05 -1.0084454089246743e-05 0.0000000000000000e+00  2.3607045849520012e-04 1.0748671607972721e-04 0.0000000000000000e+00  -4.3340605934197317e-08 -1.9733682200084043e-08 0.0000000000000000e+00  4.7754917368080641e-13 2.1743589931893479e-13 0.0000000000000000e+00  -3.3913107680735143e-05 -1.5441189041171456e-05 0.0000000000000000e+00  -8.5894295106947385e-10 -3.9109068410677356e-10 0.0000000000000000e+00  1.6445692737309910e-16 7.4879911584769789e-17 0.0000000000000000e+00  -4.9954341090052964e-17 -2.2745023294837842e-17 0.0000000000000000e+00  -3.0199198927430636e-07 -1.3750186031912729e-07 0.0000000000000000e+00  5.8673374277142611e-11 2.6714940795927767e-11 0.0000000000000000e+00  -1.0349328790296209e-16 -4.7122175827897334e-17 0.0000000000000000e+00  -1.7942720684340533e-07 -8.1696123106177316e-08 0.0000000000000000e+00  4.8626814969940199e-13 2.2140579079028075e-13 0.0000000000000000e+00  6.5638178636182192e-05 2.9886129404036431e-05 0.0000000000000000e+00  -1.9027889534844238e+01 -8.6637073230821020e+00 0.0000000000000000e+00  -5.4911419390716203e-15 -2.5002061601472065e-15 0.0000000000000000e+00  3.7477212300465652e-09 1.7063983793981215e-09 0.0000000000000000e+00  -9.7155533874660396e-16 -4.4236493425424926e-16 0.0000000000000000e+00  2.2419301975828525e-03 1.0207872520527788e-03 0.0000000000000000e+00  -4.8723728833640805e-09 -2.2184705536095935e-09 0.0000000000000000e+00  9.3980920017161079e-06 4.2791040146183914e-06 0.0000000000000000e+00  1.1996602416181865e-06 5.4622480341212476e-07 0.0000000000000000e+00  1.9094714464524979e-10 8.6941337995223377e-11 0.0000000000000000e+00  1.6189426465685336e-04 7.3713089604819106e-05 0.0000000000000000e+00  -9.9230791418210078e-07 -4.5181391909537236e-07 0.0000000000000000e+00  -2.6396938478864340e-01 -1.2018955060018277e-01 0.0000000000000000e+00  -2.5405584191638588e-04 -1.1567575342773291e-04 0.0000000000000000e+00  3.8620725765882306e-10 1.7584644057760405e-10 0.0000000000000000e+00  2.1411531303857163e-09 9.7490181565292337e-10 0.0000000000000000e+00  -1.0166318816280929e-14 -4.6288901675674663e-15 0.0000000000000000e+00  4.1157638294199927e+01 1.8739741558686916e+01 0.0000000000000000e+00  2.6739677185473235e-04 1.2175009562905393e-04 0.0000000000000000e+00  -3.2567012729569323e-08 -1.4828290134825413e-08 0.0000000000000000e+00  -1.4698280225531819e-06 -6.6923658450645585e-07 0.0000000000000000e+00  2.6924405900085546e-12 1.2259119548652335e-12 0.0000000000000000e+00  4.2992732011673391e+00 1.9575289549939581e+00 0.0000000000000000e+00  -2.0559795893990949e-12 -9.3612091830603987e-13 0.0000000000000000e+00  4.5223029204640081e-01 2.0590780105945328e-01 0.0000000000000000e+00  7.7859965972169223e-02 3.5450907791573325e-02 0.0000000000000000e+00  -1.3145454541989064e-07 -5.9853390767336119e-08 0.0000000000000000e+00  -3.0334589095049779e-11 -1.3811831375424236e-11 0.0000000000000000e+00  -2.6316241632606803e-05 -1.1982212474531298e-05 0.0000000000000000e+00  9.5714882047345612e-10 4.3580541236746044e-10 0.0000000000000000e+00  -1.0531813971948323e-04 -4.7953060515207577e-05 0.0000000000000000e+00  2.0556909701690125e-08 9.3598950528029921e-09 0.0000000000000000e+00  -7.7880177