<?xml version="1.0"?>
<VTKFile type="UnstructuredGrid"  version="0.1"  >
<UnstructuredGrid>
<Piece  NumberOfPoints="572" NumberOfCells="1038">
<Points>
<DataArray  type="Float64"  NumberOfComponents="3"  format="ascii">0 0 0  4 0 0  4 -1 0  0 -1 0  0.09999999999999999 0 0  0.2 0 0  0.3 0 0  0.4 0 0  0.4999999999999998 0 0  0.5999999999999996 0 0  0.6999999999999995 0 0  0.7999999999999994 0 0  0.8999999999999992 0 0  0.999999999999999 0 0  1.099999999999999 0 0  1.199999999999999 0 0  1.299999999999999 0 0  1.399999999999999 0 0  1.499999999999998 0 0  1.599999999999998 0 0  1.699999999999999 0 0  1.799999999999999 0 0  1.899999999999999 0 0  2 0 0  2.1 0 0  2.200000000000001 0 0  2.300000000000001 0 0  2.400000000000002 0 0  2.500000000000002 0 0  2.600000000000002 0 0  2.700000000000003 0 0  2.800000000000003 0 0  2.900000000000004 0 0  3.000000000000004 0 0  3.100000000000005 0 0  3.200000000000005 0 0  3.300000000000005 0 0  3.400000000000004 0 0  3.500000000000004 0 0  3.600000000000003 0 0  3.700000000000002 0 0  3.800000000000002 0 0  3.900000000000001 0 0  4 -0.08333333333333325 0  4 -0.1666666666666665 0  4 -0.2499999999999997 0  4 -0.333333333333333 0  4 -0.4166666666666666 0  4 -0.5000000000000001 0  4 -0.5833333333333337 0  4 -0.6666666666666673 0  4 -0.7500000000000006 0  4 -0.8333333333333337 0  4 -0.9166666666666669 0  3.9 -1 0  3.8 -1 0  3.7 -1 0  3.6 -1 0  3.5 -1 0  3.4 -1 0  3.300000000000001 -1 0  3.200000000000001 -1 0  3.100000000000001 -1 0  3.000000000000001 -1 0  2.900000000000001 -1 0  2.800000000000001 -1 0  2.700000000000001 -1 0  2.600000000000001 -1 0  2.500000000000002 -1 0  2.400000000000002 -1 0  2.300000000000002 -1 0  2.200000000000001 -1 0  2.100000000000001 -1 0  2 -1 0  1.9 -1 0  1.799999999999999 -1 0  1.699999999999999 -1 0  1.599999999999998 -1 0  1.499999999999998 -1 0  1.399999999999998 -1 0  1.299999999999997 -1 0  1.199999999999997 -1 0  1.099999999999996 -1 0  0.9999999999999956 -1 0  0.899999999999995 -1 0  0.7999999999999949 -1 0  0.6999999999999953 -1 0  0.5999999999999956 -1 0  0.499999999999996 -1 0  0.3999999999999968 -1 0  0.2999999999999976 -1 0  0.1999999999999984 -1 0  0.0999999999999992 -1 0  0 -0.9166666666666667 0  0 -0.8333333333333335 0  0 -0.7500000000000002 0  0 -0.666666666666667 0  0 -0.5833333333333335 0  0 -0.4999999999999999 0  0 -0.4166666666666663 0  0 -0.3333333333333327 0  0 -0.2499999999999994 0  0 -0.1666666666666663 0  0 -0.08333333333333315 0  3.491090701185765 -0.499339806301727 0  0.4950203227078167 -0.4989128584675094 0  2.64262313781888 -0.4879297506908338 0  1.449999999999998 -0.5 0  2.058402291097397 -0.5120941233772698 0  0.9749999999999992 -0.4749999999999993 0  3.081769880806683 -0.5597407802610527 0  1.745473944409859 -0.3290615136625714 0  2.347280045777389 -0.6545118286598804 0  2.335768673639667 -0.3237239238763549 0  1.750327526220345 -0.682828817540943 0  3.707492972392909 -0.3028030525063309 0  0.293580296675358 -0.7109385489008262 0  3.71498825372084 -0.7080088716251347 0  0.2918697062415769 -0.2988161261649331 0  3.250413907284768 -0.3098344370860925 0  0.7481958762886598 -0.6907216494845363 0  2.897531957111618 -0.3144800466372323 0  1.202975631932859 -0.6871206495416401 0  0.7276881720430104 -0.301075268817204 0  1.222241507685503 -0.2908020883113388 0  2.821785532795642 -0.7097679058139483 0  3.313580174540806 -0.7110306688463971 0  1.50219738324048 -0.2570217529780842 0  2.109436430026117 -0.7485141141565509 0  2.001923272149049 -0.2612004201407864 0  2.591779594323503 -0.2533220405676498 0  1.508220405676497 -0.7466779594323502 0  2.584305190871683 -0.7502831919469019 0  3.478286033189422 -0.23795222571263 0  0.5261060937617643 -0.7658117832712512 0  3.785135972681774 -0.5040707172464052 0  0.2090645029521114 -0.4969048262114374 0  0.9574438986108131 -0.2423163095862805 0  0.9754244626643473 -0.7628641460288867 0  0.5097271592765806 -0.2292760602594508 0  3.047448237147327 -0.7984168297371277 0  3.522893514415914 -0.785726174019542 0  3.27411286219494 -0.5150314861460955 0  2.876192398366876 -0.5166549013936721 0  3.072152863254761 -0.2028141497170135 0  2.188888454287124 -0.1960738743988359 0  1.911111545712876 -0.8039261256011641 0  0.6968885413728847 -0.4974520678389611 0  1.252104989604988 -0.4970114345114344 0  1.649610740490046 -0.5028202775347195 0  2.446694231298332 -0.485633542353709 0  1.845992484168205 -0.4989419599210881 0  2.246214131289309 -0.4959316037735846 0  2.743080194417513 -0.1797603284198384 0  1.345217800961618 -0.8177514544794908 0  3.831771135951664 -0.1764827624326512 0  0.168177957407361 -0.823589473522286 0  3.837430960455357 -0.8286944021295046 0  0.167391597779325 -0.1752538625856722 0  3.066111254276541 -0.3870061788029396 0  1.358909159394344 -0.1720779287034414 0  1.669284305949535 -0.172759019086266 0  2.264869859182613 -0.8283162784008133 0  2.434165412425708 -0.1697954173687042 0  1.668706113475668 -0.8314479749300888 0  1.842683258862577 -0.1656794186994128 0  3.848464877921415 -0.3616620315967092 0  0.151535122078585 -0.6383379684032905 0  3.848707346075076 -0.6466646759135177 0  0.1509968549082652 -0.3452619778382686 0  2.732975255829699 -0.3508363638623346 0  1.370252652534258 -0.6495109932111033 0  1.11832587037856 -0.1733419061976365 0  2.439737645513045 -0.836456385212641 0  3.331229791744127 -0.165499768727795 0  0.6726591332606813 -0.8336090461037186 0  1.132616756253317 -0.8280723285747189 0  1.950606351728588 -0.6518091391595896 0  2.153824719141371 -0.3536025000168445 0  3.62532407618639 -0.1564302309141494 0  0.3803710983093131 -0.8404803223371928 0  1.377912260103223 -0.3517997484404782 0  0.8924624300191402 -0.6125774599817652 0  3.207249628251628 -0.8375220474312923 0  0.6546785576266954 -0.155978749966339 0  2.719684587363634 -0.8327734580127736 0  3.647699282718985 -0.5637569936419204 0  0.3570156455557587 -0.5653989322146081 0  0.8322251523939386 -0.8403847541693579 0  0.3645988133126639 -0.1519337183240305 0  1.061404500324257 -0.6180105656135877 0  3.396758647231262 -0.3766313243368538 0  0.8148021518360848 -0.1629813466347811 0  0.6093556516052328 -0.6299486913462624 0  0.415997866655875 -0.3680522660477806 0  0.5920160015096863 -0.3645412637424194 0  3.572255424430109 -0.362089200459548 0  1.08043890485706 -0.3398660584513152 0  2.923658429424994 -0.1561137197110593 0  3.653613361778262 -0.8546909554159527 0  3.456739790681186 -0.6487708965425909 0  0.8424839600900655 -0.4190496412612194 0  2.6968241495241 -0.6460539373019687 0  2.90777185621417 -0.8467190841342236 0  3.167421855912535 -0.6853653881872064 0  3.378998015397395 -0.8550267917096944 0  2.549623533286458 -0.6074164390661531 0  1.563854363100012 -0.3870450365840445 0  1.945115925347995 -0.3956210114182645 0  2.206384380497951 -0.6363666106481864 0  2.9679770331043 -0.6663940397605803 0  2.492817266347368 -0.3527603982764793 0  1.545918816851176 -0.6075709531787901 0  2.028456012399734 -0.8701972194942087 0  2.065700499244939 -0.1359115819594244 0  1.113999927383315 -0.4803729266898425 0  3.194766700972084 -0.1349664610116483 0  1.791586588241401 -0.8656156413257059 0  2.307333345265183 -0.1346440826116952 0  2.64093544674549 -0.1331489671463476 0  0.4565707965077976 -0.6534785968762363 0  1.459077473581533 -0.8718776489042938 0  1.56279060907849 -0.1324694119967317 0  0.3144726782861624 -0.406319735913186 0  3.686635179527132 -0.4155119011072678 0  3.583227123430988 -0.6879918386850498 0  3.884530589958141 -0.5337716741137969 0  0.1138901561454064 -0.4712706309748976 0  2.551320204776417 -0.8759992125181354 0  2.968455986624249 -0.4231600805006418 0  1.843995631966074 -0.2713141166917306 0  1.23826657576458 -0.1310261345083986 0  1.632298315745049 -0.7047459448475459 0  3.454977942639006 -0.1019833897113779 0  2.11213131937471 -0.6131325843633801 0  1.631670858552932 -0.3027829344070553 0  0.549999999999996 -0.8847857258099061 0  2.175907031111534 -0.8808902127996396 0  2.440789547527098 -0.7252338716820566 0  0.9499999999999957 -0.8853403742417534 0  0.1192006629558211 -0.7258150973260704 0  0.1086302422397907 -0.2553484983400458 0  3.891615894289125 -0.7428762999771643 0  3.880790852604017 -0.2741969419997524 0  2.58999033724616 -0.3943081590477266 0  0.95310975133633 -0.1100375897447476 0  0.9389274183125247 -0.357418794071099 0  0.5436861363815539 -0.1129935035840732 0  1.237622314162623 -0.8886349339205675 0  2.766143121931948 -0.4669467935657355 0  3.157965388639583 -0.4824178848815803 0  3.732166646772587 -0.1061123528525496 0  0.8463407040907105 -0.2803849511418723 0  0.2658218649297859 -0.8967607408767373 0  3.384357462435764 -0.5450459842617623 0  1.954320722194999 -0.1009956898074866 0  0.8013980381943526 -0.5278489923710374 0  3.744358883260304 -0.603637271636247 0  0.2581863795088786 -0.6001369967359219 0  0.2629966501688439 -0.1025990268626685 0  0.3980883060404261 -0.7330050441066103 0  1.076076863672032 -0.7275728344185368 0  1.749999999999999 -0.5550190100941714 0  2.351512610076122 -0.5440435521440684 0  0.8619623856291254 -0.7246873586411677 0  3.553081028189586 -0.8932001918706867 0  2.806636304103025 -0.6100531542467602 0  2.546714489935151 -0.08818853426728746 0  1.172246975380209 -0.5783812280673658 0  1.560837452008869 -0.9052833905541354 0  3.005913589025749 -0.2858329927011495 0  3.104244827324224 -0.8867193195303111 0  0.6392996137609843 -0.7340215588892431 0  3.370409685921998 -0.2678372406131186 0  1.860045411420065 -0.6863616357695403 0  2.239306624928278 -0.3159929711989559 0  0.620090528303912 -0.2611000972275821 0  1.457468991263225 -0.08750102207080079 0  1.752790718352056 -0.1005001786212033 0  0.394717592657301 -0.2605042194828123 0  3.745581301416776 -0.9074819423317642 0  3.141158115761163 -0.2920724092797614 0  3.257376892791448 -0.6242591031763242 0  2.350280737493299 -0.9013197570937703 0  3.914203942485891 -0.125 0  3.914203942485891 -0.8750000000000003 0  0.08579605751410901 -0.1249999999999997 0  0.08579605751410968 -0.875 0  3.921126745430668 -0.4525
[...]
<PointData  Vectors="flow"> 
<DataArray  type="Float64"  Name="flow"  NumberOfComponents="3" format="ascii">-8.9933608342717553e-01 3.4879288083019133e-01 0.0000000000000000e+00  8.9586053293660750e-01 3.3949620417380183e-01 0.0000000000000000e+00  1.2776231654823353e+00 -8.2587837269068398e-01 0.0000000000000000e+00  -1.2658291827086319e+00 -8.0837465369258121e-01 0.0000000000000000e+00  -4.7071441141838021e-03 -1.3121539182846148e-01 0.0000000000000000e+00  -2.2783723476165404e-02 -1.7545768641138529e-01 0.0000000000000000e+00  3.4496493346767174e-02 -4.1534793636984924e-02 0.0000000000000000e+00  -1.0196112278534371e-02 -5.9299828424842431e-02 0.0000000000000000e+00  3.7120075803460748e-03 -3.3213608443465222e-02 0.0000000000000000e+00  7.2688840763034427e-04 -2.5786351581186952e-02 0.0000000000000000e+00  2.2428794039153221e-04 -1.7845225855740405e-02 0.0000000000000000e+00  5.4062166076044552e-04 -1.3732269827141914e-02 0.0000000000000000e+00  1.2015894727998667e-04 -9.3257182708709405e-03 0.0000000000000000e+00  2.5541379060643548e-04 -6.7316767843705050e-03 0.0000000000000000e+00  1.0346072744839185e-04 -4.6758310129936202e-03 0.0000000000000000e+00  1.1278670508510428e-04 -3.8500593365455248e-03 0.0000000000000000e+00  6.5756415907690502e-05 -2.6662195320283121e-03 0.0000000000000000e+00  8.9491568280144094e-05 -1.2660905886766097e-03 0.0000000000000000e+00  9.2535216449255106e-05 -5.9097525940684744e-04 0.0000000000000000e+00  2.6253367958960506e-05 -2.0573294268012735e-04 0.0000000000000000e+00  3.0575233050961597e-05 8.7796479178096058e-05 0.0000000000000000e+00  1.0940595965506668e-05 3.4339664561926290e-04 0.0000000000000000e+00  3.2184740860439005e-05 4.6781914433901287e-04 0.0000000000000000e+00  -2.9613412387462631e-05 5.3527021793803526e-04 0.0000000000000000e+00  2.3348295728240591e-06 4.9276217925843426e-04 0.0000000000000000e+00  -2.3775485050326359e-05 3.1095642870101250e-04 0.0000000000000000e+00  2.1167624792182061e-05 8.4275198996889146e-05 0.0000000000000000e+00  -6.0853992659653418e-05 -3.3680188416640021e-04 0.0000000000000000e+00  -8.0869172477399267e-05 -6.9683718168369691e-04 0.0000000000000000e+00  -2.6516323659743061e-05 -1.4514734827402388e-03 0.0000000000000000e+00  -1.3474737447431332e-04 -2.2389471012651640e-03 0.0000000000000000e+00  -1.3665678599950114e-04 -3.1889640944621628e-03 0.0000000000000000e+00  -2.1685643028123451e-05 -4.6265030608226747e-03 0.0000000000000000e+00  -5.4409962284825131e-04 -6.3866603756264784e-03 0.0000000000000000e+00  2.0149702334835054e-04 -9.3677483618960049e-03 0.0000000000000000e+00  -9.5742815050521872e-04 -1.4725779385366880e-02 0.0000000000000000e+00  -1.2218489247909010e-04 -1.8246582002024749e-02 0.0000000000000000e+00  -1.4346209819124869e-04 -2.4871308991888972e-02 0.0000000000000000e+00  -4.1650036451047374e-03 -3.4203351409578052e-02 0.0000000000000000e+00  1.0722265468672191e-02 -5.9186582205507307e-02 0.0000000000000000e+00  -3.4294292371380215e-02 -4.0782552843925658e-02 0.0000000000000000e+00  2.6779802987502078e-02 -1.8033843949285464e-01 0.0000000000000000e+00  7.9910141220391421e-03 -1.3715573725819122e-01 0.0000000000000000e+00  6.1431236522673494e-01 -1.9313757594011002e-01 0.0000000000000000e+00  3.5382625755637809e-01 7.6951733020986027e-02 0.0000000000000000e+00  4.7947183661305182e-01 4.7106360667634267e-02 0.0000000000000000e+00  4.4956557508375472e-01 -5.3548668638563432e-02 0.0000000000000000e+00  3.3527347693574316e-01 -3.1126046177335366e-02 0.0000000000000000e+00  4.4872524434740629e-01 1.0639680989639583e-01 0.0000000000000000e+00  4.9177039222415286e-01 -1.0940008353084284e-01 0.0000000000000000e+00  5.3723491362892306e-01 7.5713324643826366e-02 0.0000000000000000e+00  4.4343182643865642e-01 3.0075561038480227e-02 0.0000000000000000e+00  5.2704359320753102e-01 -2.6114721548976866e-01 0.0000000000000000e+00  1.0728801821451039e+00 4.9125373528171201e-01 0.0000000000000000e+00  -2.5903914205777667e-01 -2.6394802029003422e-01 0.0000000000000000e+00  8.4352143207922045e-02 1.8848225868594254e-01 0.0000000000000000e+00  -5.6586466619185483e-02 -2.9198459177480818e-02 0.0000000000000000e+00  3.3000716934833474e-02 2.9699120595989437e-02 0.0000000000000000e+00  8.5571032424976278e-03 1.8514631669547185e-02 0.0000000000000000e+00  1.4403188648752781e-02 2.1494463200914343e-02 0.0000000000000000e+00  1.0818516061484753e-02 1.8247349754606172e-02 0.0000000000000000e+00  6.6590222422531131e-03 1.5721370413846060e-02 0.0000000000000000e+00  4.9068066795901043e-03 1.3329775448815110e-02 0.0000000000000000e+00  4.1531718151719037e-03 1.1426872715330024e-02 0.0000000000000000e+00  2.3913642527485738e-03 8.9849147848140003e-03 0.0000000000000000e+00  5.6849023563687693e-04 6.8292963328377568e-03 0.0000000000000000e+00  6.9205039388935889e-04 5.8114002623837384e-03 0.0000000000000000e+00  -3.4781144172995720e-04 5.1200687816817751e-03 0.0000000000000000e+00  -2.4712415505458038e-04 4.5549973348202183e-03 0.0000000000000000e+00  -3.9458404778427113e-04 3.0125033527975214e-03 0.0000000000000000e+00  -4.7803622455232068e-04 2.4824606506617291e-03 0.0000000000000000e+00  -1.8697847722978349e-04 1.9956420010216005e-03 0.0000000000000000e+00  -7.4977102277004422e-05 2.1342904148565502e-03 0.0000000000000000e+00  -1.0654567359702110e-04 2.0239258237911765e-03 0.0000000000000000e+00  7.6611156919141108e-05 1.8311084079272474e-03 0.0000000000000000e+00  2.9497305205171919e-04 2.0828997618524340e-03 0.0000000000000000e+00  3.6731928961413103e-04 2.9035255078852062e-03 0.0000000000000000e+00  5.5799936484770651e-04 2.9216193115460583e-03 0.0000000000000000e+00  1.1972726710178524e-04 4.1550106955339375e-03 0.0000000000000000e+00  1.3914479941958113e-04 5.1790296085882171e-03 0.0000000000000000e+00  -1.8200595982758615e-04 5.5287394493950710e-03 0.0000000000000000e+00  -1.2284540616787178e-03 7.1993105582357775e-03 0.0000000000000000e+00  -2.0117898408065393e-03 9.1524138646352244e-03 0.0000000000000000e+00  -2.9868912469337588e-03 9.6247356843444497e-03 0.0000000000000000e+00  -5.6430449209961386e-03 1.2310430251934004e-02 0.0000000000000000e+00  -6.8181005177602293e-03 1.5370742163317547e-02 0.0000000000000000e+00  -1.0484551916687186e-02 1.6421336346440416e-02 0.0000000000000000e+00  -1.4583024125892727e-02 1.8448261799044675e-02 0.0000000000000000e+00  -9.6804124931583503e-03 1.7539998076047510e-02 0.0000000000000000e+00  -3.4754426056855761e-02 3.3703540023092352e-02 0.0000000000000000e+00  5.2785564654972278e-02 -2.4286821481679075e-02 0.0000000000000000e+00  -8.3685853544678362e-02 1.8459824766101998e-01 0.0000000000000000e+00  2.5395755767706019e-01 -2.5982761484081229e-01 0.0000000000000000e+00  -1.0779708140940782e+00 4.5416730815755152e-01 0.0000000000000000e+00  -4.6194117504797028e-01 -1.7655995128679908e-01 0.0000000000000000e+00  -6.4059391699650958e-01 -4.7638220946074387e-02 0.0000000000000000e+00  -5.3327385883924927e-01 7.1967799580400865e-02 0.0000000000000000e+00  -3.5731271109753371e-01 2.9352723362812326e-02 0.0000000000000000e+00  -4.6001852048850239e-01 -1.1267022144119099e-01 0.0000000000000000e+00  -4.0398511974835083e-01 1.2518394102865302e-01 0.0000000000000000e+00  -4.1010999570360579e-01 -8.7986363665764511e-02 0.0000000000000000e+00  -3.4811369399447228e-01 3.4816595443155633e-03 0.0000000000000000e+00  -4.0180303146100926e-01 1.3595884756465251e-01 0.0000000000000000e+00  -6.0354741264405576e-01 -2.1847364890793364e-01 0.0000000000000000e+00  2.5685309643851295e-02 -1.0052087581339042e-03 0.0000000000000000e+00  -2.6576553303427227e-02 -2.2660327333743472e-03 0.0000000000000000e+00  2.5702425585712560e-03 8.5035523119493214e-04 0.0000000000000000e+00  -1.7964559052666320e-03 1.0188467448350160e-03 0.0000000000000000e+00  1.1856432727439428e-04 1.0878209983723203e-03 0.0000000000000000e+00  -7.6139975621319893e-03 -7.5078963116541613e-04 0.0000000000000000e+00  8.9152711348215712e-03 1.1016932480411735e-03 0.0000000000000000e+00  -4.9677222250775770e-04 6.1055062326332568e-04 0.0000000000000000e+00  8.1697633765760865e-04 1.6268964885223856e-03 0.0000000000000000e+00  7.2398195315553817e-04 5.1189059689983162e-04 0.0000000000000000e+00  -4.6543999898799340e-04 1.5440825114875236e-03 0.0000000000000000e+00  3.4515856917821934e-02 -1.8176741496120252e-02 0.0000000000000000e+00  -2.2718395218043197e-02 1.7352507732653209e-02 0.0000000000000000e+00  2.1139302082975153e-02 1.5363413170591476e-02 0.0000000000000000e+00  -3.0534609550379069e-02 -1.6490671734621411e-02 0.0000000000000000e+00  1.1538803091045014e-02 -7.5314821961089875e-03 0.0000000000000000e+00  -1.3415298587439542e-02 5.0639540463882395e-03 0.0000000000000000e+00  4.0264487082095572e-03 -1.9125258186798795e-03 0.0000000000000000e+00  -3.8285716804946439e-03 2.9477273500517526e-03 0.0000000000000000e+00  -1.1646015977024037e-02 -8.4667295782596790e-03 0.0000000000000000e+00  -2.7993631456848431e-03 -1.3083159332809122e-03 0.0000000000000000e+00  4.0930639329210946e-03 3.2623970549257864e-03 0.0000000000000000e+00  1.5842080249749521e-02 6.5226971099848702e-03 0.0000000000000000e+00  -1.0597863068707095e-03 -7.6877598375282296e-05 0.0000000000000000e+00  1.1221155713349277e-04 1.5164530685187157e-03 0.0000000000000000e+00  -2.0191606587595593e-05 5.9886947338515836e-04 0.0000000000000000e+00  1.3942035410771064e-03 -4.4725300102375139e-04 0.0000000000000000e+00  -1.1639870978095654e-03 2.2151434159738462e-03 0.0000000000000000e+00  1.7177426372342755e-03 2.6867652305029811e-03 0.0000000000000000e+00  1.8130887411700391e-02 -1.9998641981203952e-02 0.0000000000000000e+00  -1.9106302410603467e-02 1.2694849753961920e-02 0.0000000000000000e+00  6.7363067159099552e-02 2.1978090586065851e-02 0.0000000000000000e+00  -8.6749343476494600e-02 -7.0036374602936444e-03 0.0000000000000000e+00  -5.5896477858976444e-03 -4.9973786578606941e-03 0.0000000000000000e+00  -7.4386161624316171e-03 5.6442693536939668e-03 0.0000000000000000e+00  -1.7760346127074774e-02 -2.1494701602688744e-02 0.0000000000000000e+00  7.0667539243934466e-03 6.4804718621515652e-03 0.0000000000000000e+00  1.8682875929677295e-02 1.6828977856096876e-02 0.0000000000000000e+00  1.4715877294112494e-02 -6.7530977184183125e-04 0.0000000000000000e+00  5.1411328653501436e-03 7.9984358658516960e-04 0.0000000000000000e+00  4.7834159084433536e-03 -6.2666764167886519e-03 0.0000000000000000e+00  2.9176447126573105e-04 3.9907949331016788e-04 0.0000000000000000e+00  -5.3174551399693391e-05 1.6152986806377923e-03 0.0000000000000000e+00  -1.6327420018723646e-02 -1.5176836060149792e-03 0.0000000000000000e+00  -3.2596914026560447e-03 7.1430845317626114e-04 0.0000000000000000e+00  -9.0062178153174654e-04 1.0963328754126547e-03 0.0000000000000000e+00  1.3186172549961212e-03 1.0051090172590945e-03 0.0000000000000000e+00  -3.3166901132813899e-04 1.0406961726425602e-03 0.0000000000000000e+00  5.7960442191494032e-04 1.0351539402915504e-03 0.0000000000000000e+00  1.6658243090967692e-03 -1.7966795117451823e-03 0.0000000000000000e+00  -1.7778753821017235e-03 3.4750162605239323e-03 0.0000000000000000e+00  6.6659824241361076e-02 -3.1594101701882912e-02 0.0000000000000000e+00  -2.6303308389026753e-02 7.2092294710607565e-03 0.0000000000000000e+00  1.7854312879871195e-03 -1.5583039012710465e-02 0.0000000000000000e+00  -4.7740399555007501e-02 -1.3162614352550162e-02 0.0000000000000000e+00  7.6535691626571541e-03 -2.6739231678291828e-03 0.0000000000000000e+00  -1.0808663331474267e-03 -1.0210708531162159e-03 0.0000000000000000e+00  -4.4201714292037172e-04 1.6224908177234183e-04 0.0000000000000000e+00  2.0830130534998364e-04 1.8477875258721542e-03 0.0000000000000000e+00  5.9569847340921859e-04 -1.3186203874166060e-04 0.0000000000000000e+00  -3.1776927054162786e-04 2.0079132890689858e-03 0.0000000000000000e+00  -1.5449021409080009e-04 3.9733880248303115e-04 0.0000000000000000e+00  3.9189760583591075e-02 1.2286226867398898e-02 0.0000000000000000e+00  -3.4651167731807923e-02 -1.5204355912128520e-02 0.0000000000000000e+00  7.7363969772660602e-03 3.9655998882662649e-02 0.0000000000000000e+00  -4.2083029681748221e-03 -1.0791648881131580e-02 0.0000000000000000e+00  2.6821176584011326e-03 -5.1672010729637776e-04 0.0000000000000000e+00  -2.2737953038218469e-03 2.0953228401675026e-03 0.0000000000000000e+00  -2.3833444419787096e-03 -3.3005466395491282e-03 0.0000000000000000e+00  5.4027611171095084e-04 2.4040310926792996e-03 0.0000000000000000e+00  8.1809013450434599e-03 -1.4808622630449082e-02 0.0000000000000000e+00  -1.3431736533734202e-02 1.0373552323001370e-02 0.0000000000000000e+00  -3.8528185910000055e-03 4.9083937066823858e-03 0.0000000000000000e+00  -8.6390115286341161e-05 1.3661335089528491e-03 0.0000000000000000e+00  2.7931454633781225e-04 7.2432460099986276e-04 0.0000000000000000e+00  1.5949437694438736e-02 -3.8233335765906928e-02 0.0000000000000000e+00  -6.5525699536419625e-03 2.5569273517072937e-02 0.0000000000000000e+00  -1.9474530357492547e-03 -8.1934529175923121e-06 0.0000000000000000e+00  -9.7059684553789660e-03 2.4988502877894819e-03 0.0000000000000000e+00  1.0313969945355130e-02 8.7022055571266202e-03 0.0000000000000000e+00  -8.0882919287731305e-03 -1.5281422850968890e-02 0.0000000000000000e+00  2.1640481706015364e-03 3.8087862437953522e-03 0.0000000000000000e+00  4.0604514401482099e-02 6.6884744176428359e-03 0.0000000000000000e+00  -3.8616869981465511e-02 6.5770925998794739e-03 0.0000000000000000e+00  -9.0061418187021829e-03 7.8693083038709130e-03 0.0000000000000000e+00  -1.2970819483932125e-02 -3.7242941898296994e-02 0.0000000000000000e+00  -6.1266504028034624e-03 2.4454476191642575e-03 0.0000000000000000e+00  1.8797868948778485e-02 -8.1304988957190596e-03 0.0000000000000000e+00  -5.5480922221996356e-03 -8.9744557560226725e-03 0.0000000000000000e+00  -1.9200791292994967e-02 5.0461005770713321e-03 0.0000000000000000e+00  -2.9963376844993988e-02 -1.3791813650131123e-02 0.0000000000000000e+00  -1.9335780103839247e-02 -9.1446752629443535e-03 0.0000000000000000e+00  2.9606950207660760e-02 -1.4279074194458143e-02 0.0000000000000000e+00  -4.6895348013219129e-03 -1.9784680659740033e-03 0.0000000000000000e+00  2.4209197817895078e-03 -3.6654615641561047e-03 0.0000000000000000e+00  -2.1340815839314634e-03 2.7818655011590827e-02 0.0000000000000000e+00  2.2608032415463074e-02 7.9998312140786045e-03 0.0000000000000000e+00  -1.0252725426050956e-02 -3.1217687794918261e-03 0.0000000000000000e+00  3.0610847072781778e-03 2.2271047571705686e-03 0.0000000000000000e+00  4.1560497088916895e-03 5.1723614045996787e-03 0.0000000000000000e+00  1.1170109283302357e-02 4.5086353123182325e-03 0.0000000000000000e+00  1.4716268589981391e-02 1.1705896950065664e-02 0.0000000000000000e+00  1.8137513524849704e-03 1.7579514401621435e-03 0.0000000000000000e+00  -1.1059647861268570e-03 5.3922028882541452e-04 0.0000000000000000e+00  -1.4684847021215197e-04 8.3988195525702507e-04 0.0000000000000000e+00  3.5725959278485404e-04 1.4196191407158118e-03 0.0000000000000000e+00  6.6472588982579919e-03 3.0970886496269712e-03 0.0000000000000000e+00  1.3444239558235190e-03 2.4405346488437889e-04 0.0000000000000000e+00  -1.2332952879567573e-03 1.6079390480632590e-03 0.0000000000000000e+00  3.6945140751347155e-05 1.4349694105121862e-03 0.0000000000000000e+00  3.5928063057188525e-05 4.0688881280571482e-04 0.0000000000000000e+00  -5.1261730952969937e-03 1.4561137885286349e-04 0.0000000000000000e+00  4.3230137337533338e-03 -1.0225142887485784e-02 0.0000000000000000e+00  -1.2550116035064010e-04 1.7173119351109509e-03 0.0000000000000000e+00  3.5485568905129411e-04 1.6812427867581871e-04 0.0000000000000000e+00  9.0862184180428966e-04 -1.1276923179999335e-03 0.0000000000000000e+00  -2.7049646266921811e-02 8.5420741044744501e-03 0.0000000000000000e+00  -7.3461582658954669e-04 2.8923708957543088e-03 0.0000000000000000e+00  -4.3009455201011720e-04 -1.7778677189261272e-04 0.0000000000000000e+00  -4.1256219600673674e-02 -1.4388040691182867e-02 0.0000000000000000e+00  4.2262158559822897e-02 -7.7348610459361125e-03 0.0000000000000000e+00  2.4686283165745539e-02 1.3103625893263268e-02 0.0000000000000000e+00  -2.4468331465776219e-02 -1.1688302223433526e-02 0.0000000000000000e+00  4.3715033205504232e-02 4.5829964168085961e-03 0.0000000000000000e+00  7.6674338629929882e-04 2.8676830650165826e-03 0.0000000000000000e+00  6.0468048066600810e-03 -9.5437258772056513e-04 0.0000000000000000e+00  -2.6633513313461957e-04 5.7540580767211330e-04 0.0000000000000000e+00  -1.4320754690477389e-03 -2.0423247011548250e-03 0.0000000000000000e+00  -7.2946006548847274e-04 1.8140027185763606e-03 0.0000000000000000e+00  8.9679035160936463e-03 -2.5246870682033611e-02 0.0000000000000000e+00  2.1263997398785083e-04 1.3074570693749883e-03 0.0000000000000000e+00  -7.5164825087919431e-04 3.7600760266558587e-04 0.0000000000000000e+00  -1.6057547675416492e-02 1.5954386389818342e-02 0.0000000000000000e+00  5.9827734809546418e-06 1.6799525351612757e-03 0.0000000000000000e+00  1.0008943576546034e-03 2.0922935800617437e-03 0.0000000000000000e+00  -6.3452812819762535e-03 8.7363876465689962e-03 0.0000000000000000e+00  7.2464477769181829e-02 5.9943053053059608e-02 0.0000000000000000e+00  -4.7360428520820251e-02 -4.1473507094153317e-02 0.0000000000000000e+00  -4.9079918988369870e-04 6.3234531703149618e-02 0.0000000000000000e+00  -1.4034901888771201e-02 -3.8054594179446649e-02 0.0000000000000000e+00  1.9141538763160050e-03 3.7577613061562685e-04 0.0000000000000000e+00  -2.4558564092005872e-03 -6.6347530670252345e-03 0.0000000000000000e+00  -7.2446897607236693e-03 -3.1385925085709050e-03 0.0000000000000000e+00  -9.3159251989884829e-03 -2.4153073830165770e-02 0.0000000000000000e+00  -2.1087253000693284e-03 5.0910813921003816e-03 0.0000000000000000e+00  3.5938024979756135e-03 4.0281495367478349e-04 0.0000000000000000e+00  1.1063248247516708e-02 -1.0629862501943463e-03 0.0000000000000000e+00  7.4102237634985996e-02 -5.0433807952243788e-02 0.0000000000000000e+00  -7.7081526017017364e-03 -6.4353497955419257e-03 0.0000000000000000e+00  -8.1983008058738732e-02 9.7426477131506845e-03 0.0000000000000000e+00  1.9835410646488413e-02 9.6424021332000706e-04 0.0000000000000000e+00  -2.8033409733001160e-05 4.1097696546511971e-04 0.0000000000000000e+00  -1.2429995231067364e-02 -6.8744908938598017e-05 0.0000000000000000e+00  3.5669523453189432e-02 2.4475912942130964e-03 0.0000000000000000e+00  -4.8928705371004598e-02 5.4311721297650344e-03 0.0000000000000000e+00  -7.8774932653184263e-02 -5.4213224736082997e-02 0.0000000000000000e+00  -2.8030227994247283e-02 1.7721374067029175e-02 0.0000000000000000e+00  -5.5118641427698949e-03 4.3097146316234533e-03 0.0000000000000000e+00  -5.7082353107170878e-04 1.2178434741030536e-03 0.0000000000000000e+00  8.6818578756494755e-04 1.1884552647549768e-03 0.0000000000000000e+00  -9.9869781230588033e-03 5.7284840863603883e-03 0.0000000000000000e+00  2.0646163990307932e-02 1.7348213158874550e-02 0.0000000000000000e+00  4.1399649740275933e-03 1.9915004669802117e-03 0.0000000000000000e+00  5.0375641015038073e-04 -7.4570200787843889e-04 0.0000000000000000e+00  -4.6192315344534577e-03 1.6692904606355906e-03 0.0000000000000000e+00  -2.8459884647198907e-04 2.6707280580050142e-03 0.0000000000000000e+00  5.4470020312523716e-03 -3.8106661570102237e-03 0.0000000000000000e+00  7.1956037457526472e-03 8.7648159959818634e-03 0.0000000000000000e+00  -1.7030847489259857e-02 8.5856527701453408e-03 0.0000000000000000e+00  1.4315095148078803e-02 -1.3497042391107128e-02 0.0000000000000000e+00  -2.4384349614317685e-04 1.4543987366216244e-03 0.0000000000000000e+00  4.8687023778157322e-04 5.8835559067982953e-04 0.0000000000000000e+00  -1.4763157250506328e-02 -1.3850889926996426e-02 0.0000000000000000e+00  -5.0100826996301998e-04 -7.7598786494053088e-04 0.0000000000000000e+00  -1.7986323883243936e-04 2.3903977343192083e-04 0.0000000000000000e+00  -3.5251576312301372e-02 -2.3911646401970181e-02 0.0000000000000000e+00  9.1360478010147655e-02 9.73093100