<?xml version="1.0"?>
<VTKFile type="UnstructuredGrid"  version="0.1"  >
<UnstructuredGrid>
<Piece  NumberOfPoints="1855" NumberOfCells="3532">
<Points>
<DataArray  type="Float64"  NumberOfComponents="3"  format="ascii">0 0 0  30 0 0  30 -10 0  0 -10 0  0.1391574078963744 0 0  0.2856388821882616 0 0  0.4398299073010886 0 0  0.6021362569539473 0 0  0.7729850389704483 0 0  0.9528258543586996 0 0  1.142131984380316 0 0  1.34140159760994 0 0  1.551159074717981 0 0  1.771956417032531 0 0  2.004374674080994 0 0  2.249025475789527 0 0  2.506552636773105 0 0  2.777633857742732 0 0  3.062982518028728 0 0  3.363349525995907 0 0  3.679525322337712 0 0  4.01234195575742 0 0  4.362675247811097 0 0  4.731447135329707 0 0  5.119628065610077 0 0  5.528239565804708 0 0  5.958356943167011 0 0  6.411112081475485 0 0  6.887696441559404 0 0  7.389364184530748 0 0  7.917435485335147 0 0  8.473300005202017 0 0  9.058420557070402 0 0  9.674336929103793 0 0  10.32266995225095 0 0  11.00512576896296 0 0  11.72350030646412 0 0  12.47968402994705 0 0  13.27566689579597 0 0  14.1135435963616 0 0  14.9955190732806 0 0  15.92391430904694 0 0  16.90117245730496 0 0  17.92986524844506 0 0  19.01269976086341 0 0  20.15252556282024 0 0  21.35234220269763 0 0  22.61530708683689 0 0  23.94474379751883 0 0  25.34415086349739 0 0  26.81721093579712 0 0  28.3678004819169 0 0  30 -1.111111111111111 0  30 -2.222222222222222 0  30 -3.333333333333333 0  30 -4.444444444444445 0  30 -5.555555555555555 0  30 -6.666666666666666 0  30 -7.777777777777777 0  30 -8.888888888888889 0  28.36780047917311 -10 0  26.8172109305839 -10 0  25.34415085606858 -10 0  23.94474378810899 -10 0  22.61530707566275 -10 0  21.3523421899591 -10 0  20.15252554870171 -10 0  19.01269974553473 -10 0  17.92986523206254 -10 0  16.90117244001232 -10 0  15.92391429097614 -10 0  14.99551905455266 -10 0  14.11354357708742 -10 0  13.27566687607703 -10 0  12.47968400987599 -10 0  11.72350028612546 -10 0  11.00512574843363 -10 0  10.32266993160086 -10 0  9.674336908396342 -10 0  9.058420536362949 -10 0  8.473299984546333 -10 0  7.917435464777824 -10 0  7.389364164113587 -10 0  6.887696420787165 -10 0  6.411112061446698 -10 0  5.95835692337857 -10 0  5.528239546282652 -10 0  5.119628046377237 -10 0  4.731447115907979 -10 0  4.362675229213632 -10 0  4.012341937260036 -10 0  3.679525304434552 -10 0  3.363349508456405 -10 0  3.062982500861274 -10 0  2.777633840953978 -10 0  2.506552620368097 -10 0  2.249025459771861 -10 0  2.004374658452946 -10 0  1.771956401795187 -10 0  1.551159059871345 -10 0  1.341401583153029 -10 0  1.142131970307521 -10 0  0.9528258406748833 -10 0  0.7729850256685147 -10 0  0.6021362439621285 -10 0  0.4398298947504031 -10 0  0.2856388700059078 -10 0  0.1391573960769001 -10 0  0 -9.855072463768115 0  0 -9.710144927536232 0  0 -9.565217391304348 0  0 -9.420289855072463 0  0 -9.27536231884058 0  0 -9.130434782608695 0  0 -8.985507246376812 0  0 -8.840579710144928 0  0 -8.695652173913043 0  0 -8.55072463768116 0  0 -8.405797101449275 0  0 -8.260869565217391 0  0 -8.115942028985508 0  0 -7.971014492753623 0  0 -7.826086956521739 0  0 -7.681159420289855 0  0 -7.536231884057971 0  0 -7.391304347826087 0  0 -7.246376811594203 0  0 -7.101449275362318 0  0 -6.956521739130435 0  0 -6.811594202898551 0  0 -6.666666666666667 0  0 -6.521739130434783 0  0 -6.376811594202898 0  0 -6.231884057971015 0  0 -6.086956521739131 0  0 -5.942028985507246 0  0 -5.797101449275362 0  0 -5.652173913043478 0  0 -5.507246376811594 0  0 -5.36231884057971 0  0 -5.217391304347826 0  0 -5.072463768115941 0  0 -4.927536231884058 0  0 -4.782608695652174 0  0 -4.637681159420289 0  0 -4.492753623188406 0  0 -4.347826086956522 0  0 -4.202898550724638 0  0 -4.057971014492754 0  0 -3.913043478260869 0  0 -3.768115942028985 0  0 -3.623188405797101 0  0 -3.478260869565217 0  0 -3.333333333333334 0  0 -3.188405797101449 0  0 -3.043478260869565 0  0 -2.898550724637681 0  0 -2.753623188405797 0  0 -2.608695652173912 0  0 -2.463768115942029 0  0 -2.318840579710145 0  0 -2.173913043478261 0  0 -2.028985507246377 0  0 -1.884057971014492 0  0 -1.739130434782609 0  0 -1.594202898550725 0  0 -1.44927536231884 0  0 -1.304347826086957 0  0 -1.159420289855072 0  0 -1.014492753623188 0  0 -0.8695652173913047 0  0 -0.72463768115942 0  0 -0.579710144927537 0  0 -0.4347826086956523 0  0 -0.2898550724637676 0  0 -0.1449275362318829 0  5.15859856094262 -4.976557621770688 0  2.816777084926057 -7.160262673925935 0  2.81677708460006 -2.839737326002783 0  2.227649803257325 -5.003121586636773 0  1.518662968975629 -8.46230852045241 0  1.518662969184829 -1.537691480152612 0  9.960740911025725 -5.055901393541221 0  1.491099662214591 -3.691833922963321 0  1.503675657181264 -6.345020369042368 0  5.319208041801049 -7.493850249937013 0  5.291109955459268 -2.489368743223226 0  1.096914507335763 -2.53623188405797 0  1.096914507253562 -7.463768115942029 0  1.089580194952752 -4.71277167923441 0  15.07565076110197 -5.047572991082069 0  7.501630508673601 -5.937500100385354 0  0.8894869418764504 -5.623930488933245 0  2.955144522453978 -1.440834296472408 0  2.955144521140721 -8.559165705576945 0  8.106603955004623 -2.748811534843258 0  3.662152539483591 -4.228178367024407 0  3.662181528265114 -5.771746159989156 0  0.8436558190317136 -0.8541050638451999 0  0.8436558075840921 -9.145894948342754 0  0.7854168197005933 -1.811594202898552 0  0.7894693398152999 -3.286543351392342 0  0.7854168196772591 -8.188405797101449 0  0.7854168196772591 -6.739130434782609 0  20.00078956016804 -4.999999999785771 0  0.7379120031523989 -3.977302749614766 0  6.584332478112232 -3.934875417052907 0  7.295091310194352 -7.969791332537982 0  9.811174303464586 -7.412814499648229 0  4.013376806449688 -2.206189431585293 0  4.013376806983409 -7.793810569017377 0  12.11177433894592 -2.818343737884045 0  2.591152707837148 -3.990098461753838 0  2.58990939378082 -6.025895074707176 0  25.43156400064585 -5.044446479916348 0  2.03262751726143 -2.282125834846944 0  2.032627517335952 -7.717874165160392 0  12.51865094522923 -6.491408052923457 0  0.598175343983641 -6.156971652625402 0  2.126700074935224 -0.8767654465386991 0  2.126700059112423 -9.123234559633019 0  6.617961838548696 -1.617756429129908 0  0.5903949564549755 -4.980060355019413 0  1.676697585305984 -5.547101897225158 0  4.773518305133987 -3.729331162566817 0  4.77931803486508 -6.231222307502165 0  4.878549698409591 -8.72048903376362 0  4.852580875634024 -1.222215410052823 0  0.5487847095754042 -2.675169258708207 0  0.545113423825768 -7.32369553390529 0  1.78738026998851 -4.400451872599477 0  1.68244194111824 -3.010100184333533 0  1.683984276238402 -7.018293626028473 0  9.998503440677371 -2.00585287985007 0  3.693061162502273 -3.243678395563028 0  3.694987482168253 -6.757603268814477 0  6.081763036485869 -5.83414381546261 0  0.5196640460586313 -1.350633211792632 0  0.5196640458460706 -8.649366789040087 0  3.84593363904758 -0.9906418103762418 0  3.845933620847308 -9.009358200471317 0  17.41551885287501 -3.057748733689079 0  17.30725517812527 -7.002961443761516 0  8.117698464370697 -4.451550942597151 0  0.4918476668493152 -0.4789811193757592 0  0.4918476560347713 -9.521018882514893 0  1.463770869328428 -0.6252343353791154 0  1.463770854281917 -9.374765668872765 0  0.5034132782032188 -4.464280853772128 0  3.138906271796685 -4.99999841599503 0  14.61209972381335 -2.388610981020637 0  6.208601124947327 -8.776231214192325 0  14.74910972998159 -7.542186851303819 0  2.243794246335625 -1.632184311040998 0  2.243794245689214 -8.367815689183566 0  0.4590235278399923 -5.431413993025926 0  0.4971508861448406 -2.209632053221267 0  0.4971508861368665 -7.790367946777407 0  0.4644363683211541 -3.560571347760519 0  6.478811279411406 -7.007392971062433 0  1.238895267772762 -4.173677632458826 0  1.293241773632479 -2.02256720952064 0  1.293241773542714 -7.977432790434841 0  0.4324740478030531 -0.942028985507247 0  0.4324740423701829 -9.057971014492754 0  2.117396640811705 -3.472968170680347 0  2.107095929630507 -6.531506384346077 0  8.087741545730886 -1.392783601483453 0  1.028911946384717 -1.352376108341404 0  1.028911946221715 -8.647623891551962 0  4.05691976296832 -4.991522392209158 0  11.51826881314265 -8.065248940008736 0  1.618560396201739 -4.958056164503666 0  2.701984523487646 -2.141781914603403 0  2.70198452396172 -7.858218085853512 0  2.843615645746219 -9.289121726447632 0  2.843615661334342 -0.7108782798429658 0  8.678774612240533 -8.488146490452822 0  6.487906449371135 -2.667543558824978 0  8.369190916679937 -7.129867754908394 0  11.80978191929258 -4.655775487536958 0  0.3792065166453504 -3.113833531412848 0  0.4134714637263563 -6.58827691137208 0  9.551050695080825 -3.49648183875815 0  1.083867845277057 -6.036251777836495 0  0.3756430921870901 -1.80381664325008 0  0.3756430921689482 -8.196183356748573 0  3.113073783220456 -3.503408140759125 0  3.113391383189963 -6.496678880796299 0  22.62850736315072 -3.277987336300344 0  22.59385352108348 -6.800312122582239 0  0.3777114402537816 -4.137047872695438 0  0.9196816123347897 -0.4281025456111269 0  0.9196815944880363 -9.571897460530383 0  0.4052043328723194 -5.827814332459883 0  8.865857694874787 -5.767686953139113 0  1.200388325130726 -5.182186034620629 0  5.65297436943758 -4.325500846767599 0  1.200079167961391 -3.009849046583253 0  1.20883344838 -7.021823297793294 0  1.057642414577487 -3.660996704809145 0  10.88812987788297 -6.333458225047037 0  4.493502926606794 -2.839780197438185 0  4.485862892033458 -7.147606077919463 0  0.3631651408878085 -7.003529808558233 0  1.946748828463205 -6.049056369468467 0  6.918750162798794 -4.993796052442676 0  3.351203216022585 -1.980935554775394 0  3.351203216441711 -8.019064445907297 0  2.281892243515294 -2.856654416292082 0  2.281892243715877 -7.143345583598931 0  5.811143619672087 -0.9953286820321026 0  2.695713766833098 -4.565354125099452 0  2.698172168139827 -5.435483248292925 0  19.86166219288896 -2.493475492328429 0  19.83739102036415 -7.594404063416508
[...]
<PointData  Vectors="flow"> 
<DataArray  type="Float64"  Name="flow"  NumberOfComponents="3" format="ascii">-1.0096432469166055e-14 -4.7439200230363335e-15 0.0000000000000000e+00  -7.5835586705026101e-25 -3.5632185856475799e-25 0.0000000000000000e+00  -2.8819216147263960e-25 -1.3541026193830424e-25 0.0000000000000000e+00  1.8494342356300822e-20 8.6897704991227613e-21 0.0000000000000000e+00  4.6400515953397624e-14 2.1801793592219331e-14 0.0000000000000000e+00  -2.3106233181171037e-13 -1.0856718210106312e-13 0.0000000000000000e+00  4.0197019950243326e-13 1.8887012654292621e-13 0.0000000000000000e+00  -2.3922384728248646e-12 -1.1240196005638313e-12 0.0000000000000000e+00  2.4541657380736144e-12 1.1531168083629818e-12 0.0000000000000000e+00  2.0963546817007780e-11 9.8499534169891984e-12 0.0000000000000000e+00  3.3378719387791986e-11 1.5683359021182682e-11 0.0000000000000000e+00  -1.6618360957358484e-10 -7.8083199720712614e-11 0.0000000000000000e+00  -5.8454162401781777e-10 -2.7465332165048850e-10 0.0000000000000000e+00  -7.7694203332779905e-10 -3.6505477354485196e-10 0.0000000000000000e+00  -2.4997000468891983e-09 -1.1745116049889254e-09 0.0000000000000000e+00  -5.8560395904576650e-10 -2.7515247146658845e-10 0.0000000000000000e+00  2.6675607544834442e-08 1.2533828076904053e-08 0.0000000000000000e+00  -5.1983485447704686e-08 -2.4425013313930792e-08 0.0000000000000000e+00  -9.9393384689426015e-08 -4.6701076764045106e-08 0.0000000000000000e+00  -9.6226295927150911e-08 -4.5212985218840995e-08 0.0000000000000000e+00  -2.3022372032614900e-08 -1.0817315125600470e-08 0.0000000000000000e+00  8.0429604943149964e-08 3.7790735935683067e-08 0.0000000000000000e+00  -9.0087727603413349e-08 -4.2328711266364292e-08 0.0000000000000000e+00  -2.9206411081283676e-08 -1.3722953999114485e-08 0.0000000000000000e+00  4.7471979256364196e-08 2.2305232428899005e-08 0.0000000000000000e+00  4.1385904127050806e-08 1.9445622982114102e-08 0.0000000000000000e+00  7.0116267841314422e-08 3.2944900881456058e-08 0.0000000000000000e+00  2.9848869110656834e-08 1.4024819981857582e-08 0.0000000000000000e+00  -2.0987303962597770e-08 -9.8611159735653660e-09 0.0000000000000000e+00  -1.1189253444207982e-09 -5.2573939972275005e-10 0.0000000000000000e+00  -2.5366838986274600e-10 -1.1918888751609366e-10 0.0000000000000000e+00  -7.1771923419529172e-11 -3.3722828894418116e-11 0.0000000000000000e+00  4.7852360049602170e-11 2.2483958535068775e-11 0.0000000000000000e+00  3.2931944467204641e-12 1.5473436902846650e-12 0.0000000000000000e+00  7.4184323423555367e-13 3.4856321612526446e-13 0.0000000000000000e+00  -2.2574627888810963e-13 -1.0606937607058562e-13 0.0000000000000000e+00  6.7876246774238609e-14 3.1892402305887171e-14 0.0000000000000000e+00  -1.2952271812470028e-14 -6.0857675998560762e-15 0.0000000000000000e+00  2.4250026290805539e-15 1.1394142003270587e-15 0.0000000000000000e+00  2.5087861827897046e-16 1.1787808260392429e-16 0.0000000000000000e+00  -8.9429596734596186e-17 -4.2019481227348590e-17 0.0000000000000000e+00  5.2362697786141639e-17 2.4603190408740039e-17 0.0000000000000000e+00  -1.2285099796288676e-17 -5.7722894781494275e-18 0.0000000000000000e+00  2.7271850370684087e-18 1.2813979337141584e-18 0.0000000000000000e+00  -2.6261804081836327e-19 -1.2339397961146487e-19 0.0000000000000000e+00  6.0558383990181979e-20 2.8454023859526342e-20 0.0000000000000000e+00  -7.6520488189288170e-21 -3.5953994364076939e-21 0.0000000000000000e+00  1.2869259688781251e-21 6.0467634390374368e-22 0.0000000000000000e+00  2.2876824404672864e-23 1.0748927969185681e-23 0.0000000000000000e+00  1.5429502860210871e-23 7.2497218980653151e-24 0.0000000000000000e+00  -1.5604019545935854e-23 -7.3317204854171362e-24 0.0000000000000000e+00  3.6299514875448492e-24 1.7055726958016196e-24 0.0000000000000000e+00  3.4341113662109346e-25 1.6135550573192059e-25 0.0000000000000000e+00  -3.0202189583907601e-26 -1.4190831498571201e-26 0.0000000000000000e+00  9.3986126609895567e-26 4.4160416986292134e-26 0.0000000000000000e+00  -1.2227800479002396e-25 -5.7453667626842546e-26 0.0000000000000000e+00  -3.0488932889664700e-26 -1.4325560999690245e-26 0.0000000000000000e+00  9.5610509401244063e-26 4.4923651135828290e-26 0.0000000000000000e+00  -1.0788619050354617e-26 -5.0691515136847110e-27 0.0000000000000000e+00  1.4213444055540964e-25 6.6783432719732645e-26 0.0000000000000000e+00  1.4182422095659155e-24 6.6637672623692212e-25 0.0000000000000000e+00  -5.8615690475270113e-24 -2.7541227909852189e-24 0.0000000000000000e+00  1.0613212833034002e-23 4.9867349701131463e-24 0.0000000000000000e+00  1.1334209877961450e-22 5.3255033745398511e-23 0.0000000000000000e+00  -1.4717845880836505e-21 -6.9153420263336000e-22 0.0000000000000000e+00  7.8831122457598210e-21 3.7039671330156339e-21 0.0000000000000000e+00  -4.1735657526360723e-20 -1.9609958469839929e-20 0.0000000000000000e+00  9.5802594462946693e-20 4.5013904418175297e-20 0.0000000000000000e+00  -9.4118114898891868e-19 -4.4222433137926640e-19 0.0000000000000000e+00  2.3522531055808608e-18 1.1052320352652393e-18 0.0000000000000000e+00  -1.8832826488513680e-17 -8.8488109975551116e-18 0.0000000000000000e+00  5.0031698257299948e-17 2.3507944600645822e-17 0.0000000000000000e+00  -1.2387739896334270e-16 -5.8205160598910271e-17 0.0000000000000000e+00  -8.1872088636250395e-16 -3.8468502790015137e-16 0.0000000000000000e+00  1.8857897022039629e-15 8.8605906639219377e-16 0.0000000000000000e+00  -1.5582176926544167e-14 -7.3214574900666210e-15 0.0000000000000000e+00  9.7709147950863378e-14 4.5909719578029009e-14 0.0000000000000000e+00  -3.6927074433718058e-13 -1.7350592729982149e-13 0.0000000000000000e+00  -7.0991999929174151e-13 -3.3356373250443861e-13 0.0000000000000000e+00  9.3454789225653801e-13 4.3910762262825147e-13 0.0000000000000000e+00  -3.2578635517038564e-12 -1.5307430800381262e-12 0.0000000000000000e+00  3.0551575527480728e-12 1.4354994333171029e-12 0.0000000000000000e+00  5.5122733523427114e-12 2.5900023605851066e-12 0.0000000000000000e+00  -2.7203256301736192e-12 -1.2781749658179511e-12 0.0000000000000000e+00  -3.9089687723593464e-12 -1.8366720408670218e-12 0.0000000000000000e+00  3.9658167446609381e-13 1.8633826869189034e-13 0.0000000000000000e+00  2.5152782270292120e-11 1.1818311845448121e-11 0.0000000000000000e+00  8.8412578812720972e-12 4.1541624152772548e-12 0.0000000000000000e+00  2.0518744370794687e-12 9.6409580874675875e-13 0.0000000000000000e+00  7.0820889024800136e-13 3.3275974906979733e-13 0.0000000000000000e+00  -5.6457058854742383e-13 -2.6526971062371246e-13 0.0000000000000000e+00  -7.9630933822421974e-13 -3.7415471511044673e-13 0.0000000000000000e+00  6.9734213511233544e-13 3.2765388445564112e-13 0.0000000000000000e+00  4.0420370974190196e-13 1.8991956593441751e-13 0.0000000000000000e+00  1.9835636466372394e-13 9.3199923131131583e-14 0.0000000000000000e+00  -1.5882844712219713e-13 -7.4627295614744341e-14 0.0000000000000000e+00  -1.5085444634172623e-15 -7.0880623502419403e-16 0.0000000000000000e+00  1.3232255217394877e-14 6.2173208870985961e-15 0.0000000000000000e+00  5.2337342164919363e-15 2.4591276790778443e-15 0.0000000000000000e+00  9.7213369110414673e-16 4.5676772428094090e-16 0.0000000000000000e+00  3.9271261850436976e-16 1.8452035012479905e-16 0.0000000000000000e+00  -3.6478643021381691e-17 -1.7139892290749114e-17 0.0000000000000000e+00  -6.1604561275285134e-17 -2.8945581782149292e-17 0.0000000000000000e+00  -2.8709349160117371e-18 -1.3489403979569420e-18 0.0000000000000000e+00  4.7411015733856032e-18 2.2276588046243593e-18 0.0000000000000000e+00  -7.4091744902363581e-19 -3.4812822574452847e-19 0.0000000000000000e+00  5.1776116840149272e-19 2.4327578889193582e-19 0.0000000000000000e+00  -1.2692999722160901e-19 -5.9639457519520530e-20 0.0000000000000000e+00  7.1811936987307023e-20 3.3741629710048256e-20 0.0000000000000000e+00  -1.9731124458589601e-19 -9.2708861948993470e-20 0.0000000000000000e+00  1.5599442514822043e-20 7.3295699169254393e-21 0.0000000000000000e+00  -1.4260537847190747e-18 -6.7004708087889056e-19 0.0000000000000000e+00  -1.2759575322064272e-18 -5.9952270309970636e-19 0.0000000000000000e+00  -5.9117739094066762e-17 -2.7777120984214875e-17 0.0000000000000000e+00  7.2918836522665640e-17 3.4261718650900741e-17 0.0000000000000000e+00  -8.7260522676764147e-17 -4.1000317885660968e-17 0.0000000000000000e+00  -3.1707365365278312e-16 -1.4898054921224698e-16 0.0000000000000000e+00  2.1523401191672955e-15 1.0113007162564120e-15 0.0000000000000000e+00  -6.8838048485800167e-15 -3.2344315435757681e-15 0.0000000000000000e+00  -1.4575617982558500e-14 -6.8485146814733165e-15 0.0000000000000000e+00  1.0552123194019542e-14 4.9580313302278873e-15 0.0000000000000000e+00  4.1336710026557011e-14 1.9422508592050024e-14 0.0000000000000000e+00  3.0724984605267924e-14 1.4436472498731316e-14 0.0000000000000000e+00  2.5486222216663494e-13 1.1974982277593519e-13 0.0000000000000000e+00  7.4336494245728735e-14 3.4927820749715447e-14 0.0000000000000000e+00  4.6940014957352668e-14 2.2055283142621681e-14 0.0000000000000000e+00  -6.0682308594431096e-12 -2.8512251200048794e-12 0.0000000000000000e+00  -5.3316901981956638e-12 -2.5051533762138993e-12 0.0000000000000000e+00  -2.2987599902885375e-12 -1.0800977057379711e-12 0.0000000000000000e+00  -6.2410066858673563e-12 -2.9324057454360665e-12 0.0000000000000000e+00  4.9846925755836233e-12 2.3421127205285863e-12 0.0000000000000000e+00  2.1470874510601549e-11 1.0088326922802282e-11 0.0000000000000000e+00  7.4767958171432964e-11 3.5130548828432019e-11 0.0000000000000000e+00  -1.8723438347607885e-10 -8.7974137744755229e-11 0.0000000000000000e+00  -1.9533428236478193e-09 -9.1779964470188974e-10 0.0000000000000000e+00  -2.2144816211968834e-09 -1.0404985855671836e-09 0.0000000000000000e+00  3.2883345106697028e-09 1.5450601957917026e-09 0.0000000000000000e+00  1.1085514307191176e-08 5.2086510208574469e-09 0.0000000000000000e+00  -2.1950181662079034e-09 -1.0313534668213624e-09 0.0000000000000000e+00  -1.6072919742445466e-08 -7.5520384083885339e-09 0.0000000000000000e+00  -2.9908663164205109e-09 -1.4052914876638716e-09 0.0000000000000000e+00  -2.0308900600249717e-08 -9.5423606801321122e-09 0.0000000000000000e+00  4.9023757796866496e-08 2.3034352671330077e-08 0.0000000000000000e+00  -1.8341006604990599e-07 -8.6177240071455992e-08 0.0000000000000000e+00  -2.5986034777109529e-09 -1.2209824715306552e-09 0.0000000000000000e+00  -1.6299563159539388e-07 -7.6585293147284416e-08 0.0000000000000000e+00  -3.0444620152813681e-08 -1.4304740172109319e-08 0.0000000000000000e+00  8.4644499861928469e-08 3.9771150746682103e-08 0.0000000000000000e+00  -1.0454204762733805e-07 -4.9120232765694028e-08 0.0000000000000000e+00  7.6423502678631736e-08 3.5908424653453741e-08 0.0000000000000000e+00  2.6839337345770213e-07 1.2610758327603928e-07 0.0000000000000000e+00  4.0048347840097257e-09 1.8817157425493624e-09 0.0000000000000000e+00  1.3468052298185883e-07 6.3281127431679813e-08 0.0000000000000000e+00  1.1428738688530697e-07 5.3699187775629327e-08 0.0000000000000000e+00  -2.5044821349813217e-10 -1.1767585217608709e-10 0.0000000000000000e+00  -2.3454232031031913e-08 -1.1020229303444546e-08 0.0000000000000000e+00  -1.6853512930959913e-08 -7.9188087174208157e-09 0.0000000000000000e+00  1.0991670670158466e-08 5.1645575541687337e-09 0.0000000000000000e+00  -4.8573010291706270e-09 -2.2822563990368413e-09 0.0000000000000000e+00  -2.7309333545842569e-09 -1.2831591219923412e-09 0.0000000000000000e+00  2.8232899658554675e-09 1.3265538932451870e-09 0.0000000000000000e+00  2.2933388585571843e-10 1.0775505272720757e-10 0.0000000000000000e+00  -1.1149258276286092e-11 -5.2386018269718445e-12 0.0000000000000000e+00  1.8912998802383181e-10 8.8864808424454148e-11 0.0000000000000000e+00  1.0732814625054102e-10 5.0429311896874725e-11 0.0000000000000000e+00  1.7992498861360769e-10 8.4539738044638030e-11 0.0000000000000000e+00  1.2512087266922442e-11 5.8789420418353905e-12 0.0000000000000000e+00  4.2167971102405276e-11 1.9813085766129111e-11 0.0000000000000000e+00  -2.4553210048592360e-11 -1.1536596231892101e-11 0.0000000000000000e+00  -7.5554571434189290e-12 -3.5500147735666903e-12 0.0000000000000000e+00  7.2337425687146577e-12 3.3988536364716722e-12 0.0000000000000000e+00  -1.2516711827706967e-13 -5.8811149426664349e-14 0.0000000000000000e+00  5.2040973377159098e-13 2.4452024650900998e-13 0.0000000000000000e+00  -1.6872012506819373e-14 -7.9275009469390013e-15 0.0000000000000000e+00  6.1408217158815774e-14 2.8853327336000225e-14 0.0000000000000000e+00  -2.9400477007340631e-14 -1.3814138012400601e-14 0.0000000000000000e+00  2.5039975335462866e-03 1.1765308264380429e-03 0.0000000000000000e+00  6.7923330573479045e-06 3.1914525147659208e-06 0.0000000000000000e+00  -3.3878332474998309e+00 -1.5918107734196665e+00 0.0000000000000000e+00  1.2838723162683792e+00 6.0324155158447501e-01 0.0000000000000000e+00  1.9660903562232130e-11 9.2378921331569370e-12 0.0000000000000000e+00  -8.8545475687469724e-06 -4.1604067213432264e-06 0.0000000000000000e+00  1.0815000485570491e-11 5.0815471216521487e-12 0.0000000000000000e+00  -3.5903361821254129e-02 -1.6869590081280906e-02 0.0000000000000000e+00  -2.4146072160123267e-05 -1.1345298009758324e-05 0.0000000000000000e+00  -3.6362193885679014e-07 -1.7085177381476634e-07 0.0000000000000000e+00  -5.2025259907028450e-04 -2.4444641503852628e-04 0.0000000000000000e+00  -2.7755246624826587e-06 -1.3041108392487126e-06 0.0000000000000000e+00  2.8364793095577468e-09 1.3327510516841704e-09 0.0000000000000000e+00  1.8523372699272862e-03 8.7034107255810997e-04 0.0000000000000000e+00  -2.9056549217706715e-16 -1.3652539751558906e-16 0.0000000000000000e+00  -6.0145501805531831e-08 -2.8260026616549801e-08 0.0000000000000000e+00  2.4396955589368199e-05 1.1463178352847602e-05 0.0000000000000000e+00  -5.3284742656498052e-04 -2.5036423348788890e-04 0.0000000000000000e+00  2.1201869367905424e-09 9.9619318930100239e-10 0.0000000000000000e+00  1.2439671712265195e-08 5.8449167957132841e-09 0.0000000000000000e+00  -3.0378164193357321e+01 -1.4273515107446315e+01 0.0000000000000000e+00  5.4832923900535128e-03 2.5763853361846110e-03 0.0000000000000000e+00  1.2136131815984116e-09 5.7022952314968285e-10 0.0000000000000000e+00  -2.7380281191485836e-15 -1.2864926752823947e-15 0.0000000000000000e+00  -2.2477946064614765e-07 -1.0561510586864192e-07 0.0000000000000000e+00  -7.5419128553206617e-05 -3.5436508405930085e-05 0.0000000000000000e+00  3.2231172616202180e-12 1.5144171528596507e-12 0.0000000000000000e+00  1.8911634216575006e-09 8.8858396767705190e-10 0.0000000000000000e+00  -4.6195677479891831e-20 -2.1705547978838609e-20 0.0000000000000000e+00  3.2134477153463999e-04 1.5098738100182942e-04 0.0000000000000000e+00  2.5066082071942724e-05 1.1777574802120482e-05 0.0000000000000000e+00  1.3284909886315774e-09 6.2420612633615018e-10 0.0000000000000000e+00  -7.9778456640546305e-12 -3.7484786732326210e-12 0.0000000000000000e+00  -5.2318457628572140e-04 -2.4582403683334259e-04 0.0000000000000000e+00  3.9783074450335644e-08 1.8692515800928429e-08 0.0000000000000000e+00  -2.6116133612892222e-13 -1.2270953086533645e-13 0.0000000000000000e+00  1.9178523314493879e+02 9.0112404596127178e+01 0.0000000000000000e+00  -1.2987205562311281e-04 -6.1021816070668118e-05 0.0000000000000000e+00  -3.3516425725314565e-23 -1.5748061860910248e-23 0.0000000000000000e+00  -6.7952680715347002e-03 -3.1928315635151865e-03 0.0000000000000000e+00  1.3481657930742146e-08 6.3345054995110425e-09 0.0000000000000000e+00  1.3448281645658948e-14 6.3188232842746879e-15 0.0000000000000000e+00  8.9417173470248835e-08 4.2013644019734022e-08 0.0000000000000000e+00  -5.5448698574673351e-07 -2.6053181876174721e-07 0.0000000000000000e+00  2.0126660225071041e-12 9.4567330322024041e-13 0.0000000000000000e+00  -1.2922544482347902e-06 -6.0717998863069155e-07 0.0000000000000000e+00  2.8702730846306021e-06 1.3486294291914437e-06 0.0000000000000000e+00  7.2173284513048309e-05 3.3911412825804670e-05 0.0000000000000000e+00  -1.2552291697352791e-01 -5.8978325363853133e-02 0.0000000000000000e+00  -2.6416849530961437e-06 -1.2412247773476959e-06 0.0000000000000000e+00  6.0950048606057007e-11 2.8638051794070541e-11 0.0000000000000000e+00  1.7251466020229809e-06 8.1057913604664561e-07 0.0000000000000000e+00  -4.5244655785364151e-07 -2.1258699958729600e-07 0.0000000000000000e+00  -2.9786583193962155e-10 -1.3995554257725458e-10 0.0000000000000000e+00  1.4927390063099624e+00 7.0137986688144538e-01 0.0000000000000000e+00  1.1691158820686498e-02 5.4932197676090385e-03 0.0000000000000000e+00  -1.1103199070401869e-07 -5.2169604016762461e-08 0.0000000000000000e+00  -1.3996259458076864e-11 -6.5762966962395362e-12 0.0000000000000000e+00  -4.0412317003514948e+00 -1.8988172346593373e+00 0.0000000000000000e+00  -1.7642276487288093e-06 -8.2894179637791721e-07 0.0000000000000000e+00  1.8804293688155343e-05 8.8354045469750166e-06 0.0000000000000000e+00  -3.4523145666098970e-09 -1.6221080315623037e-09 0.0000000000000000e+00  3.8039384384100627e-14 1.7873223813937485e-14 0.0000000000000000e+00  -2.7013631471366445e-06 -1.2692652342627403e-06 0.0000000000000000e+00  -6.8419469408577635e-11 -3.2147641445046261e-11 0.0000000000000000e+00  1.3099887131528818e-17 6.1551262837207557e-18 0.0000000000000000e+00  -3.9791344789324441e-18 -1.8696401710812461e-18 0.0000000000000000e+00  -2.4055301514567889e-08 -1.1302648421968851e-08 0.0000000000000000e+00  4.6736528094847732e-12 2.1959672598559103e-12 0.0000000000000000e+00  -8.2438022651601194e-18 -3.8734413121742602e-18 0.0000000000000000e+00  -1.4292351167680696e-08 -6.7154186478927197e-09 0.0000000000000000e+00  3.8733898160872071e-14 1.8199548763068041e-14 0.0000000000000000e+00  5.2284372898588379e-06 2.4566388597456617e-06 0.0000000000000000e+00  -1.5156747072877141e+00 -7.1215645865710708e-01 0.0000000000000000e+00  -4.3739926784506482e-16 -2.0551686460822000e-16 0.0000000000000000e+00  2.9852634302636950e-10 1.4026589098788698e-10 0.0000000000000000e+00  -7.7389657479984108e-17 -3.6362383130518264e-17 0.0000000000000000e+00  1.7858191208007217e-04 8.3908678739347262e-05 0.0000000000000000e+00  -3.8811095314937759e-10 -1.8235820696348614e-10 0.0000000000000000e+00  7.4860905186985427e-07 3.5174221007640573e-07 0.0000000000000000e+00  9.5559451416283153e-08 4.4899660979114046e-08 0.0000000000000000e+00  1.5209976757413554e-11 7.1465751402555786e-12 0.0000000000000000e+00  1.2895757133022706e-05 6.0592135551235242e-06 0.0000000000000000e+00  -7.9042712782889196e-08 -3.7139089375480201e-08 0.0000000000000000e+00  -2.1026594635720874e-02 -9.8795771291781548e-03 0.0000000000000000e+00  -2.0236927123536848e-05 -9.5085431492023954e-06 0.0000000000000000e+00  3.0763504861245783e-11 1.4454571665361093e-11 0.0000000000000000e+00  1.7055447154098237e-10 8.0136897367717047e-11 0.0000000000000000e+00  -8.0980248849160211e-16 -3.8049462041093313e-16 0.0000000000000000e+00  3.2784293423598405e+00 1.5404061433409770e+00 0.0000000000000000e+00  2.1299604623436201e-05 1.0007853879522076e-05 0.0000000000000000e+00  -2.5941393760844827e-09 -1.2188849642026712e-09 0.0000000000000000e+00  -1.1707978195726961e-07 -5.5011225362625073e-08 0.0000000000000000e+00  2.1446751073879341e-13 1.0076992260302399e-13 0.0000000000000000e+00  3.4246045200107150e-01 1.6090881608998137e-01 0.0000000000000000e+00  -1.6376993657891205e-13 -7.6949108873925139e-14 0.0000000000000000e+00  3.6022598001154350e-02 1.6925614513972963e-02 0.0000000000000000e+00  6.2019690054536045e-03 2.9140634612348643e-03 0.0000000000000000e+00  -1.0471068233083681e-08 -4.9199467638897819e-09 0.0000000000000000e+00  -2.4163147133652520e-12 -1.1353320874177516e-12 0.0000000000000000e+00  -2.0962315216499748e-06 -9.8493747359225726e-07 0.0000000000000000e+00  7.6242100083947197e-11 3.5823190645918520e-11 0.0000000000000000e+00  -8.3891616197950064e-06 -3.9417400063015187e-06 0.0000000000000000e+00  1.6374694649027036e-09 7.6938306727506400e-10 0.0000000000000000e+00  -6.2035789