<?xml version="1.0"?>
<VTKFile type="UnstructuredGrid"  version="0.1"  >
<UnstructuredGrid>
<Piece  NumberOfPoints="572" NumberOfCells="1038">
<Points>
<DataArray  type="Float64"  NumberOfComponents="3"  format="ascii">0 0 0  4 0 0  4 -1 0  0 -1 0  0.09999999999999999 0 0  0.2 0 0  0.3 0 0  0.4 0 0  0.4999999999999998 0 0  0.5999999999999996 0 0  0.6999999999999995 0 0  0.7999999999999994 0 0  0.8999999999999992 0 0  0.999999999999999 0 0  1.099999999999999 0 0  1.199999999999999 0 0  1.299999999999999 0 0  1.399999999999999 0 0  1.499999999999998 0 0  1.599999999999998 0 0  1.699999999999999 0 0  1.799999999999999 0 0  1.899999999999999 0 0  2 0 0  2.1 0 0  2.200000000000001 0 0  2.300000000000001 0 0  2.400000000000002 0 0  2.500000000000002 0 0  2.600000000000002 0 0  2.700000000000003 0 0  2.800000000000003 0 0  2.900000000000004 0 0  3.000000000000004 0 0  3.100000000000005 0 0  3.200000000000005 0 0  3.300000000000005 0 0  3.400000000000004 0 0  3.500000000000004 0 0  3.600000000000003 0 0  3.700000000000002 0 0  3.800000000000002 0 0  3.900000000000001 0 0  4 -0.08333333333333325 0  4 -0.1666666666666665 0  4 -0.2499999999999997 0  4 -0.333333333333333 0  4 -0.4166666666666666 0  4 -0.5000000000000001 0  4 -0.5833333333333337 0  4 -0.6666666666666673 0  4 -0.7500000000000006 0  4 -0.8333333333333337 0  4 -0.9166666666666669 0  3.9 -1 0  3.8 -1 0  3.7 -1 0  3.6 -1 0  3.5 -1 0  3.4 -1 0  3.300000000000001 -1 0  3.200000000000001 -1 0  3.100000000000001 -1 0  3.000000000000001 -1 0  2.900000000000001 -1 0  2.800000000000001 -1 0  2.700000000000001 -1 0  2.600000000000001 -1 0  2.500000000000002 -1 0  2.400000000000002 -1 0  2.300000000000002 -1 0  2.200000000000001 -1 0  2.100000000000001 -1 0  2 -1 0  1.9 -1 0  1.799999999999999 -1 0  1.699999999999999 -1 0  1.599999999999998 -1 0  1.499999999999998 -1 0  1.399999999999998 -1 0  1.299999999999997 -1 0  1.199999999999997 -1 0  1.099999999999996 -1 0  0.9999999999999956 -1 0  0.899999999999995 -1 0  0.7999999999999949 -1 0  0.6999999999999953 -1 0  0.5999999999999956 -1 0  0.499999999999996 -1 0  0.3999999999999968 -1 0  0.2999999999999976 -1 0  0.1999999999999984 -1 0  0.0999999999999992 -1 0  0 -0.9166666666666667 0  0 -0.8333333333333335 0  0 -0.7500000000000002 0  0 -0.666666666666667 0  0 -0.5833333333333335 0  0 -0.4999999999999999 0  0 -0.4166666666666663 0  0 -0.3333333333333327 0  0 -0.2499999999999994 0  0 -0.1666666666666663 0  0 -0.08333333333333315 0  3.491090701185765 -0.499339806301727 0  0.4950203227078167 -0.4989128584675094 0  2.64262313781888 -0.4879297506908338 0  1.449999999999998 -0.5 0  2.058402291097397 -0.5120941233772698 0  0.9749999999999992 -0.4749999999999993 0  3.081769880806683 -0.5597407802610527 0  1.745473944409859 -0.3290615136625714 0  2.347280045777389 -0.6545118286598804 0  2.335768673639667 -0.3237239238763549 0  1.750327526220345 -0.682828817540943 0  3.707492972392909 -0.3028030525063309 0  0.293580296675358 -0.7109385489008262 0  3.71498825372084 -0.7080088716251347 0  0.2918697062415769 -0.2988161261649331 0  3.250413907284768 -0.3098344370860925 0  0.7481958762886598 -0.6907216494845363 0  2.897531957111618 -0.3144800466372323 0  1.202975631932859 -0.6871206495416401 0  0.7276881720430104 -0.301075268817204 0  1.222241507685503 -0.2908020883113388 0  2.821785532795642 -0.7097679058139483 0  3.313580174540806 -0.7110306688463971 0  1.50219738324048 -0.2570217529780842 0  2.109436430026117 -0.7485141141565509 0  2.001923272149049 -0.2612004201407864 0  2.591779594323503 -0.2533220405676498 0  1.508220405676497 -0.7466779594323502 0  2.584305190871683 -0.7502831919469019 0  3.478286033189422 -0.23795222571263 0  0.5261060937617643 -0.7658117832712512 0  3.785135972681774 -0.5040707172464052 0  0.2090645029521114 -0.4969048262114374 0  0.9574438986108131 -0.2423163095862805 0  0.9754244626643473 -0.7628641460288867 0  0.5097271592765806 -0.2292760602594508 0  3.047448237147327 -0.7984168297371277 0  3.522893514415914 -0.785726174019542 0  3.27411286219494 -0.5150314861460955 0  2.876192398366876 -0.5166549013936721 0  3.072152863254761 -0.2028141497170135 0  2.188888454287124 -0.1960738743988359 0  1.911111545712876 -0.8039261256011641 0  0.6968885413728847 -0.4974520678389611 0  1.252104989604988 -0.4970114345114344 0  1.649610740490046 -0.5028202775347195 0  2.446694231298332 -0.485633542353709 0  1.845992484168205 -0.4989419599210881 0  2.246214131289309 -0.4959316037735846 0  2.743080194417513 -0.1797603284198384 0  1.345217800961618 -0.8177514544794908 0  3.831771135951664 -0.1764827624326512 0  0.168177957407361 -0.823589473522286 0  3.837430960455357 -0.8286944021295046 0  0.167391597779325 -0.1752538625856722 0  3.066111254276541 -0.3870061788029396 0  1.358909159394344 -0.1720779287034414 0  1.669284305949535 -0.172759019086266 0  2.264869859182613 -0.8283162784008133 0  2.434165412425708 -0.1697954173687042 0  1.668706113475668 -0.8314479749300888 0  1.842683258862577 -0.1656794186994128 0  3.848464877921415 -0.3616620315967092 0  0.151535122078585 -0.6383379684032905 0  3.848707346075076 -0.6466646759135177 0  0.1509968549082652 -0.3452619778382686 0  2.732975255829699 -0.3508363638623346 0  1.370252652534258 -0.6495109932111033 0  1.11832587037856 -0.1733419061976365 0  2.439737645513045 -0.836456385212641 0  3.331229791744127 -0.165499768727795 0  0.6726591332606813 -0.8336090461037186 0  1.132616756253317 -0.8280723285747189 0  1.950606351728588 -0.6518091391595896 0  2.153824719141371 -0.3536025000168445 0  3.62532407618639 -0.1564302309141494 0  0.3803710983093131 -0.8404803223371928 0  1.377912260103223 -0.3517997484404782 0  0.8924624300191402 -0.6125774599817652 0  3.207249628251628 -0.8375220474312923 0  0.6546785576266954 -0.155978749966339 0  2.719684587363634 -0.8327734580127736 0  3.647699282718985 -0.5637569936419204 0  0.3570156455557587 -0.5653989322146081 0  0.8322251523939386 -0.8403847541693579 0  0.3645988133126639 -0.1519337183240305 0  1.061404500324257 -0.6180105656135877 0  3.396758647231262 -0.3766313243368538 0  0.8148021518360848 -0.1629813466347811 0  0.6093556516052328 -0.6299486913462624 0  0.415997866655875 -0.3680522660477806 0  0.5920160015096863 -0.3645412637424194 0  3.572255424430109 -0.362089200459548 0  1.08043890485706 -0.3398660584513152 0  2.923658429424994 -0.1561137197110593 0  3.653613361778262 -0.8546909554159527 0  3.456739790681186 -0.6487708965425909 0  0.8424839600900655 -0.4190496412612194 0  2.6968241495241 -0.6460539373019687 0  2.90777185621417 -0.8467190841342236 0  3.167421855912535 -0.6853653881872064 0  3.378998015397395 -0.8550267917096944 0  2.549623533286458 -0.6074164390661531 0  1.563854363100012 -0.3870450365840445 0  1.945115925347995 -0.3956210114182645 0  2.206384380497951 -0.6363666106481864 0  2.9679770331043 -0.6663940397605803 0  2.492817266347368 -0.3527603982764793 0  1.545918816851176 -0.6075709531787901 0  2.028456012399734 -0.8701972194942087 0  2.065700499244939 -0.1359115819594244 0  1.113999927383315 -0.4803729266898425 0  3.194766700972084 -0.1349664610116483 0  1.791586588241401 -0.8656156413257059 0  2.307333345265183 -0.1346440826116952 0  2.64093544674549 -0.1331489671463476 0  0.4565707965077976 -0.6534785968762363 0  1.459077473581533 -0.8718776489042938 0  1.56279060907849 -0.1324694119967317 0  0.3144726782861624 -0.406319735913186 0  3.686635179527132 -0.4155119011072678 0  3.583227123430988 -0.6879918386850498 0  3.884530589958141 -0.5337716741137969 0  0.1138901561454064 -0.4712706309748976 0  2.551320204776417 -0.8759992125181354 0  2.968455986624249 -0.4231600805006418 0  1.843995631966074 -0.2713141166917306 0  1.23826657576458 -0.1310261345083986 0  1.632298315745049 -0.7047459448475459 0  3.454977942639006 -0.1019833897113779 0  2.11213131937471 -0.6131325843633801 0  1.631670858552932 -0.3027829344070553 0  0.549999999999996 -0.8847857258099061 0  2.175907031111534 -0.8808902127996396 0  2.440789547527098 -0.7252338716820566 0  0.9499999999999957 -0.8853403742417534 0  0.1192006629558211 -0.7258150973260704 0  0.1086302422397907 -0.2553484983400458 0  3.891615894289125 -0.7428762999771643 0  3.880790852604017 -0.2741969419997524 0  2.58999033724616 -0.3943081590477266 0  0.95310975133633 -0.1100375897447476 0  0.9389274183125247 -0.357418794071099 0  0.5436861363815539 -0.1129935035840732 0  1.237622314162623 -0.8886349339205675 0  2.766143121931948 -0.4669467935657355 0  3.157965388639583 -0.4824178848815803 0  3.732166646772587 -0.1061123528525496 0  0.8463407040907105 -0.2803849511418723 0  0.2658218649297859 -0.8967607408767373 0  3.384357462435764 -0.5450459842617623 0  1.954320722194999 -0.1009956898074866 0  0.8013980381943526 -0.5278489923710374 0  3.744358883260304 -0.603637271636247 0  0.2581863795088786 -0.6001369967359219 0  0.2629966501688439 -0.1025990268626685 0  0.3980883060404261 -0.7330050441066103 0  1.076076863672032 -0.7275728344185368 0  1.749999999999999 -0.5550190100941714 0  2.351512610076122 -0.5440435521440684 0  0.8619623856291254 -0.7246873586411677 0  3.553081028189586 -0.8932001918706867 0  2.806636304103025 -0.6100531542467602 0  2.546714489935151 -0.08818853426728746 0  1.172246975380209 -0.5783812280673658 0  1.560837452008869 -0.9052833905541354 0  3.005913589025749 -0.2858329927011495 0  3.104244827324224 -0.8867193195303111 0  0.6392996137609843 -0.7340215588892431 0  3.370409685921998 -0.2678372406131186 0  1.860045411420065 -0.6863616357695403 0  2.239306624928278 -0.3159929711989559 0  0.620090528303912 -0.2611000972275821 0  1.457468991263225 -0.08750102207080079 0  1.752790718352056 -0.1005001786212033 0  0.394717592657301 -0.2605042194828123 0  3.745581301416776 -0.9074819423317642 0  3.141158115761163 -0.2920724092797614 0  3.257376892791448 -0.6242591031763242 0  2.350280737493299 -0.9013197570937703 0  3.914203942485891 -0.125 0  3.914203942485891 -0.8750000000000003 0  0.08579605751410901 -0.1249999999999997 0  0.08579605751410968 -0.875 0  3.921126745430668 -0.4525
[...]
<PointData  Vectors="flow"> 
<DataArray  type="Float64"  Name="flow"  NumberOfComponents="3" format="ascii">-3.3959897360201512e+00 5.0604666890019399e+00 0.0000000000000000e+00  3.0156615305336625e+00 3.8948919074988693e+00 0.0000000000000000e+00  7.6005990110031290e+00 -1.7258368367492729e+01 0.0000000000000000e+00  -6.7308455476214784e+00 -1.4686685031255223e+01 0.0000000000000000e+00  1.5028558889234536e+00 3.9325713004466016e+00 0.0000000000000000e+00  -9.3469755439256497e-01 -1.3283945175641763e+00 0.0000000000000000e+00  6.2464562105513088e-01 2.7705144875857873e-01 0.0000000000000000e+00  -1.5251751986342441e-01 -3.7990945758858530e-01 0.0000000000000000e+00  3.0235843461825743e-02 -6.4070538095272508e-02 0.0000000000000000e+00  2.4412106720312340e-02 -7.3958247375521952e-02 0.0000000000000000e+00  -2.2759529054848300e-02 -1.0568590207457967e-01 0.0000000000000000e+00  2.4865840873248717e-02 -2.9212570408814833e-02 0.0000000000000000e+00  -6.0449679207523425e-03 -3.0366657976921497e-02 0.0000000000000000e+00  7.4906022498334134e-03 -1.0464975684837062e-02 0.0000000000000000e+00  -7.0085430766479587e-03 -1.1908623870697166e-02 0.0000000000000000e+00  5.1173821191875324e-03 -5.1508899393869212e-02 0.0000000000000000e+00  -1.9536431531387995e-03 -4.3902221965544948e-02 0.0000000000000000e+00  5.7676392222179946e-03 -4.9261621191379866e-04 0.0000000000000000e+00  -1.2633124207324853e-03 -3.4555380027179415e-03 0.0000000000000000e+00  -2.3211449405551225e-04 -3.8805622905454633e-03 0.0000000000000000e+00  1.2009347170920542e-03 4.5879471090589258e-04 0.0000000000000000e+00  -5.3657494677576559e-04 1.6534687727777499e-03 0.0000000000000000e+00  1.3147216439162383e-03 7.0060497939523935e-04 0.0000000000000000e+00  -1.2565828729308197e-03 5.1752937915715731e-03 0.0000000000000000e+00  8.5911984120123918e-04 6.0320790837031357e-03 0.0000000000000000e+00  -1.2037091428922625e-03 -6.0285790853916333e-04 0.0000000000000000e+00  4.5727773886471829e-04 -7.0302902050780084e-04 0.0000000000000000e+00  2.5960656143685849e-04 -2.8096773653126048e-03 0.0000000000000000e+00  -3.4770802331232364e-03 3.1541028064563758e-03 0.0000000000000000e+00  1.1218552210449319e-03 -1.9639297087582518e-02 0.0000000000000000e+00  -1.7740905671453267e-03 -2.1953901630077700e-02 0.0000000000000000e+00  -7.5286752055812281e-04 -4.2855391857666240e-03 0.0000000000000000e+00  -6.6740661871270833e-06 -2.1080850823282871e-02 0.0000000000000000e+00  -6.3514293594534076e-03 -1.9936651137580266e-02 0.0000000000000000e+00  1.2497737698525980e-02 -4.3795296369550894e-02 0.0000000000000000e+00  -3.5376290261434809e-02 -1.2094568092392066e-01 0.0000000000000000e+00  3.1526141150465641e-02 -4.9985393994221215e-02 0.0000000000000000e+00  -2.0909331467707390e-02 -3.8862744093487091e-02 0.0000000000000000e+00  -5.6933672214795471e-02 -7.7086608014265645e-02 0.0000000000000000e+00  1.9733165378949388e-01 -4.3328939838169872e-01 0.0000000000000000e+00  -6.6763207471143904e-01 3.9038167715492816e-01 0.0000000000000000e+00  8.9033942091736806e-01 -1.5388010892927420e+00 0.0000000000000000e+00  -1.1742725553317810e+00 2.4661252682183967e+00 0.0000000000000000e+00  2.5447462599688935e+00 -2.4518457996467338e+00 0.0000000000000000e+00  -4.1936098326945886e-01 1.0467631469533036e+00 0.0000000000000000e+00  2.4085767551119024e+00 3.0296579435800669e-01 0.0000000000000000e+00  2.2111476462376007e+00 -4.2647051537089453e-01 0.0000000000000000e+00  -1.9943419568518397e-01 -6.9219178255684044e-01 0.0000000000000000e+00  3.1157476948957625e+00 2.2809811125497630e+00 0.0000000000000000e+00  1.9606553918086056e+00 -3.0380677764873694e+00 0.0000000000000000e+00  3.5153476978384934e+00 2.4180359100579540e+00 0.0000000000000000e+00  2.5987732068689970e+00 1.7593504301999672e+00 0.0000000000000000e+00  -8.8761949857823930e-01 -7.8834523540790178e+00 0.0000000000000000e+00  7.9139347726859075e+00 1.2027261582728539e+01 0.0000000000000000e+00  -4.5909844156142183e+00 -1.9141368911576464e+01 0.0000000000000000e+00  3.8544314299842641e+00 3.9352196935379289e+00 0.0000000000000000e+00  -1.9223438385899054e+00 -1.4345597703316872e+00 0.0000000000000000e+00  2.2193131597196586e-01 -1.9249626697537722e-01 0.0000000000000000e+00  9.4148780669061141e-02 1.2095994421941321e-01 0.0000000000000000e+00  -6.5183570735871804e-02 1.6647544076983975e-01 0.0000000000000000e+00  6.1476148271819339e-02 1.0800047872159425e-01 0.0000000000000000e+00  -2.5049578185634597e-02 5.2660044563724064e-02 0.0000000000000000e+00  -7.4467993031537769e-02 2.4333822094999022e-01 0.0000000000000000e+00  8.4822086713984959e-02 2.5782491177472860e-01 0.0000000000000000e+00  1.3706736233096721e-02 9.3942372726580570e-02 0.0000000000000000e+00  -3.2058542521295107e-02 -9.2552928685978482e-03 0.0000000000000000e+00  2.5836511963559738e-02 2.5643354345327333e-02 0.0000000000000000e+00  -1.7350574690411805e-02 6.1107821991535471e-02 0.0000000000000000e+00  7.5307972585307963e-03 8.5259955204115792e-02 0.0000000000000000e+00  -8.2444589972173465e-03 3.2421422507963285e-03 0.0000000000000000e+00  -7.5625373321800814e-04 1.0211229512928273e-02 0.0000000000000000e+00  1.2260743992741823e-03 8.1955119254380308e-03 0.0000000000000000e+00  6.0568960955100903e-03 2.4168851205624443e-02 0.0000000000000000e+00  -6.8655659264161605e-03 2.6678055474597135e-02 0.0000000000000000e+00  -4.4907907668386598e-04 1.4275045842693103e-02 0.0000000000000000e+00  2.2721630466153034e-03 1.2236693115402592e-02 0.0000000000000000e+00  -2.3411229674845679e-03 2.5129917794656668e-02 0.0000000000000000e+00  9.8900975262108878e-03 -7.2913108692024145e-03 0.0000000000000000e+00  -4.8213483790685869e-03 5.6435362330600515e-02 0.0000000000000000e+00  3.6016576919634317e-03 6.9086670233960867e-02 0.0000000000000000e+00  -1.3350338975984413e-03 3.9974210314334463e-03 0.0000000000000000e+00  -1.0042545081600715e-03 3.2477973742524882e-02 0.0000000000000000e+00  -5.4982596209368758e-03 4.7195812837774069e-02 0.0000000000000000e+00  6.7952939276288375e-03 -3.3195246039892283e-03 0.0000000000000000e+00  -1.4461209818004521e-02 6.2102053479797421e-02 0.0000000000000000e+00  1.7967204563042988e-02 7.1691725699744954e-02 0.0000000000000000e+00  -3.7678017054280401e-02 4.7808536790075920e-02 0.0000000000000000e+00  2.2774945833300697e-02 3.8390690668641814e-02 0.0000000000000000e+00  -6.5504682419751228e-02 1.5330050408647780e-01 0.0000000000000000e+00  -4.0278436532416179e-01 1.0615401110737274e-01 0.0000000000000000e+00  1.8676807385565231e+00 -1.7049982617382433e+00 0.0000000000000000e+00  -3.4574541621535544e+00 3.5606905496033896e+00 0.0000000000000000e+00  3.9912378486931548e+00 -1.5576721646671425e+01 0.0000000000000000e+00  -8.4023360883337013e+00 9.3335363160318217e+00 0.0000000000000000e+00  2.5657319808804457e+00 -4.5732581922998046e+00 0.0000000000000000e+00  -4.7023033603703235e+00 7.6986785951795356e-01 0.0000000000000000e+00  -2.6746629930150414e+00 5.1765811804526951e-01 0.0000000000000000e+00  1.7568562516843406e-01 6.9692781606039411e-01 0.0000000000000000e+00  -4.3565092121384525e+00 -2.8291604304209614e+00 0.0000000000000000e+00  -1.7447656085435643e+00 3.2531538696762290e+00 0.0000000000000000e+00  -1.7800687770242889e+00 -2.5002116485025456e+00 0.0000000000000000e+00  -1.6428821753180407e+00 2.4026886838623399e-01 0.0000000000000000e+00  -6.4041047376987248e-01 2.7913988428012710e+00 0.0000000000000000e+00  -2.1223022802178915e+00 -3.8200848625168491e+00 0.0000000000000000e+00  7.9853721180075707e-02 3.0961762038717753e-03 0.0000000000000000e+00  -4.0195256965404123e-02 -4.8956570873398129e-02 0.0000000000000000e+00  3.9777317403819753e-03 -1.6766748633517165e-03 0.0000000000000000e+00  -1.4913218723233259e-03 7.1364980869648338e-04 0.0000000000000000e+00  -1.9273959804690116e-04 1.7024418126015814e-03 0.0000000000000000e+00  -9.7992776385519356e-03 1.8622278988219942e-03 0.0000000000000000e+00  9.3655978028852702e-03 -6.8388997027312175e-04 0.0000000000000000e+00  -2.2018065475400313e-04 5.3333790563194416e-04 0.0000000000000000e+00  1.5661336379114196e-03 2.0515663867722821e-03 0.0000000000000000e+00  1.0200091620990340e-03 4.5806325083003142e-04 0.0000000000000000e+00  3.0908175820910933e-04 6.9789829262707607e-04 0.0000000000000000e+00  -5.1277392645551041e-02 1.0663116864321374e-01 0.0000000000000000e+00  -3.5364010734828660e-01 2.5791881044991216e-01 0.0000000000000000e+00  -3.4056205722323674e-01 -1.6139769999001777e-01 0.0000000000000000e+00  5.5885932558236739e-01 4.8609496578303407e-01 0.0000000000000000e+00  2.1243567269897030e-02 -5.3782698607311059e-03 0.0000000000000000e+00  -6.6305589306521725e-03 2.8622102124751831e-04 0.0000000000000000e+00  5.1912944016768185e-03 -6.3597024720043289e-04 0.0000000000000000e+00  -5.1241044624664280e-03 6.9802644325779302e-04 0.0000000000000000e+00  -8.4460618451381239e-03 -1.3449040644100504e-02 0.0000000000000000e+00  -4.4978858334720345e-03 -2.7894018365018794e-03 0.0000000000000000e+00  -2.0692396104033278e-03 5.0646502179326099e-04 0.0000000000000000e+00  1.9373065227468428e-02 -8.4584437408655906e-03 0.0000000000000000e+00  -8.4109960848349926e-04 -2.0806769230717045e-04 0.0000000000000000e+00  5.9374055505397277e-04 1.0840516741556067e-04 0.0000000000000000e+00  -3.2198290543947807e-04 -2.5196687754628667e-04 0.0000000000000000e+00  2.0030965217416202e-03 1.8875283145824979e-03 0.0000000000000000e+00  -2.2205861221295028e-04 -5.1318250099597383e-03 0.0000000000000000e+00  3.4074283961691982e-03 -2.4353943610234013e-03 0.0000000000000000e+00  5.4264046015463162e-02 -2.3332619544175676e-02 0.0000000000000000e+00  1.8139845561095344e-01 5.5136962045448469e-02 0.0000000000000000e+00  -3.3816708701319409e-01 7.4383254414765254e-01 0.0000000000000000e+00  -9.6300775192211668e-02 -4.1174874945327866e-01 0.0000000000000000e+00  -1.3540027004730261e-02 -8.7830483011147858e-03 0.0000000000000000e+00  -1.6814955563606584e-02 -3.4778188909729618e-03 0.0000000000000000e+00  5.2235992679303671e-02 -5.2517334031732749e-03 0.0000000000000000e+00  4.7718378091075779e-03 5.4499686551562683e-02 0.0000000000000000e+00  4.5701569999864945e-02 4.2517040764618756e-02 0.0000000000000000e+00  2.1236087060196616e-02 -5.4861669348755570e-03 0.0000000000000000e+00  6.2119270999987982e-03 4.2854892391408642e-03 0.0000000000000000e+00  8.9636467875568449e-03 -4.9649927388400088e-03 0.0000000000000000e+00  1.4105389570236561e-03 9.3865645512084889e-05 0.0000000000000000e+00  4.8345104294882325e-03 4.3554673824746379e-03 0.0000000000000000e+00  -2.3547906640185974e-02 -8.2520288157333799e-03 0.0000000000000000e+00  2.0404604945527668e-03 -2.3923129406741715e-03 0.0000000000000000e+00  -2.5574693803330603e-03 1.5518892799570832e-03 0.0000000000000000e+00  2.4177686084235913e-03 8.3492251718662544e-04 0.0000000000000000e+00  -7.2271750215690135e-04 1.2631142016970619e-03 0.0000000000000000e+00  6.7250848163530081e-04 6.8579761394591248e-04 0.0000000000000000e+00  3.4588316884836177e-03 -2.8977777361448849e-03 0.0000000000000000e+00  -3.0162353496212147e-03 7.7772771424702413e-03 0.0000000000000000e+00  4.0432406268995064e-01 3.1437874018360085e-01 0.0000000000000000e+00  -7.9233134295258723e-01 -1.1389331944635959e+00 0.0000000000000000e+00  8.1789900013152173e-01 -1.4199973410534561e+00 0.0000000000000000e+00  -3.1638849646474032e-01 5.1875268510331940e-01 0.0000000000000000e+00  8.1423974281472911e-03 -3.0199078412767423e-03 0.0000000000000000e+00  1.2883058865311226e-03 -3.1795708140245895e-03 0.0000000000000000e+00  -3.2644051082984094e-04 2.8842640442462155e-04 0.0000000000000000e+00  1.6749899834088146e-04 2.0254004133477090e-03 0.0000000000000000e+00  7.4708045842544573e-04 -2.5597950541497467e-04 0.0000000000000000e+00  -9.0422378077086680e-04 1.2018773512958033e-03 0.0000000000000000e+00  -3.0575016628061695e-07 1.6623724486469649e-04 0.0000000000000000e+00  4.7962849265691321e-01 7.0909886746817208e-01 0.0000000000000000e+00  -6.0546487099963164e-01 -1.2639119914283741e+00 0.0000000000000000e+00  1.0139327658814905e+00 -8.1485679755370310e-01 0.0000000000000000e+00  9.5810417316740851e-02 9.4062455349648000e-01 0.0000000000000000e+00  3.1145706805431046e-03 -1.2250469470446669e-03 0.0000000000000000e+00  -2.6340447273049289e-04 1.4339896111141071e-03 0.0000000000000000e+00  -4.9037768675919005e-03 -4.0661835061769304e-03 0.0000000000000000e+00  -2.2192368258411865e-03 5.6882260622764299e-03 0.0000000000000000e+00  1.6704194407631753e-02 -2.1991057071192822e-03 0.0000000000000000e+00  2.5753910636888405e-02 -8.5914219690525120e-03 0.0000000000000000e+00  -7.4136914451919033e-03 -1.6051394731046679e-03 0.0000000000000000e+00  9.3418291673742022e-05 2.7921202654236179e-03 0.0000000000000000e+00  2.3675076345466272e-04 8.1998270334102824e-04 0.0000000000000000e+00  1.1876137690113620e-01 -6.9384532773866622e-02 0.0000000000000000e+00  -1.4492665719300674e-01 1.9747470259023188e-02 0.0000000000000000e+00  -1.0403957706991459e-03 2.6732323333325205e-04 0.0000000000000000e+00  -9.0469900088370522e-03 -2.8627024479715209e-03 0.0000000000000000e+00  1.1432761096587722e-02 1.8165813839508028e-03 0.0000000000000000e+00  6.1540098417306203e-03 4.0668254143058670e-03 0.0000000000000000e+00  -1.7767665117169359e-03 2.2748477614915382e-03 0.0000000000000000e+00  9.1258345195854629e-02 5.5120493702095257e-02 0.0000000000000000e+00  2.1694176959468129e-02 4.0208904633496328e-02 0.0000000000000000e+00  -1.9548904111742738e-03 -2.5263529216949425e-03 0.0000000000000000e+00  -9.6946418561096689e-02 -8.8669603198874847e-03 0.0000000000000000e+00  -1.0472277276146757e-02 -2.0049641304458183e-03 0.0000000000000000e+00  2.4201345071784092e-02 -1.0057599374340509e-02 0.0000000000000000e+00  -1.4747857864622186e-02 -1.5707738047464975e-02 0.0000000000000000e+00  -2.2157144699801751e-02 -1.4150344635485256e-03 0.0000000000000000e+00  1.9608700295672826e-01 -6.7424225145083491e-02 0.0000000000000000e+00  3.2132620721709394e-02 -6.7343538799718317e-03 0.0000000000000000e+00  3.4035094796224567e-02 -7.1862057172964094e-02 0.0000000000000000e+00  -3.2380404309678428e-03 4.4310394726274679e-03 0.0000000000000000e+00  5.6329396459133887e-03 1.1248329293279493e-03 0.0000000000000000e+00  4.5225234672691084e-01 2.3287388910369530e-01 0.0000000000000000e+00  -5.5481344439858436e-02 4.8450717507355960e-02 0.0000000000000000e+00  -1.2586934934290576e-02 -2.0216073710366156e-02 0.0000000000000000e+00  7.3728660573381764e-03 -1.7625010400309955e-03 0.0000000000000000e+00  8.2853496107840254e-04 -7.2656193569306639e-03 0.0000000000000000e+00  1.5634601979959445e-02 -5.4978422953669867e-04 0.0000000000000000e+00  -3.4906563706357668e-02 -3.5884543273340002e-03 0.0000000000000000e+00  3.6756259390745625e-03 5.4085288911596421e-04 0.0000000000000000e+00  3.8489434452650888e-04 -8.1008611773081697e-04 0.0000000000000000e+00  -2.9289060808811098e-04 4.2483190487718867e-04 0.0000000000000000e+00  -2.0865501058610989e-03 2.3764208928060229e-03 0.0000000000000000e+00  -2.7484649989223653e-03 1.9941368786979888e-02 0.0000000000000000e+00  1.9576039375346914e-03 -4.8856577329030608e-04 0.0000000000000000e+00  -5.7713704705894043e-04 -4.4285852474596220e-04 0.0000000000000000e+00  1.6003867533715660e-03 -3.4459634213353479e-03 0.0000000000000000e+00  -1.8001474952948342e-04 -1.3012895346376609e-03 0.0000000000000000e+00  -1.0876521824340934e-02 -5.9157234060716758e-03 0.0000000000000000e+00  1.0583347791413339e-02 1.3152383408643895e-02 0.0000000000000000e+00  -6.5504569624456454e-04 -2.1654323502804788e-03 0.0000000000000000e+00  6.7190118702428715e-04 6.3865891004754064e-04 0.0000000000000000e+00  1.0513035175838713e-04 3.0226944442321413e-03 0.0000000000000000e+00  -9.3118778303621988e-02 -1.0512581372747151e-01 0.0000000000000000e+00  2.0439077605115440e-04 -6.3516664752815005e-03 0.0000000000000000e+00  1.8708423243907343e-04 6.5182538851189548e-04 0.0000000000000000e+00  -3.4244864395894270e-01 -1.5428260136924685e-01 0.0000000000000000e+00  5.4567736966042418e-02 2.1926616434138355e-01 0.0000000000000000e+00  -2.9674445372773128e-01 -3.4714161944036516e-02 0.0000000000000000e+00  3.2202218224703033e-01 -3.9016132686729976e-01 0.0000000000000000e+00  2.8309366959770976e-01 -6.5842403905020064e-01 0.0000000000000000e+00  2.0493129557931965e-03 -1.2222374757851939e-02 0.0000000000000000e+00  6.4555875410954007e-03 -1.9138459873070858e-04 0.0000000000000000e+00  -1.6361398576357033e-04 6.5470103446080481e-04 0.0000000000000000e+00  -2.3869726852111302e-03 3.0338534956187374e-03 0.0000000000000000e+00  -3.4990782946147246e-03 1.8594394707097410e-04 0.0000000000000000e+00  8.9387569354974300e-02 -1.7598496957005362e-02 0.0000000000000000e+00  5.5481011413132633e-04 1.4368576424934035e-03 0.0000000000000000e+00  -8.9142267786552858e-04 1.6577739460830214e-03 0.0000000000000000e+00  -7.5115247879178892e-02 -3.1847587976174041e-02 0.0000000000000000e+00  -9.2992989642806743e-04 -1.8879270446403348e-03 0.0000000000000000e+00  3.9011123431960735e-03 -5.5899331464237816e-04 0.0000000000000000e+00  -9.0601007604310235e-03 9.3178274695353801e-03 0.0000000000000000e+00  5.5669743104701730e-01 1.2519567254791892e+00 0.0000000000000000e+00  9.0753047796143693e-01 -6.7023925197701328e-01 0.0000000000000000e+00  -1.8736286404814673e+00 1.7583698385759077e+00 0.0000000000000000e+00  -4.3733130893600053e-01 -4.1738168072828585e-01 0.0000000000000000e+00  2.0902570610554015e-03 1.5805690237138573e-03 0.0000000000000000e+00  -4.8970469613301469e-03 -6.7665930021048436e-03 0.0000000000000000e+00  3.0224838758145063e-03 -3.9678397327172089e-03 0.0000000000000000e+00  -6.8626017127421710e-02 -1.7173051957150146e-02 0.0000000000000000e+00  -2.6391743605957375e-03 2.0534997227450516e-03 0.0000000000000000e+00  3.8686027166440129e-03 -1.7992103502258101e-05 0.0000000000000000e+00  1.1949314702583211e-02 2.7087545105776247e-03 0.0000000000000000e+00  -2.1409106982123578e-02 -2.4423711880698952e-03 0.0000000000000000e+00  -7.8625806531945740e-03 3.3273607616182720e-03 0.0000000000000000e+00  7.6180898367716265e-01 3.7984490055856573e-01 0.0000000000000000e+00  -1.0473890388928550e-02 1.8026597811760324e-02 0.0000000000000000e+00  -2.4287237816234949e-05 -1.5811042982099026e-04 0.0000000000000000e+00  -1.3313331372822597e-02 8.9921204056088433e-04 0.0000000000000000e+00  -6.4148350276681021e-01 -3.1958698582270806e-01 0.0000000000000000e+00  2.0489954534815832e-01 -4.1800442256241377e-01 0.0000000000000000e+00  9.2531139910576862e-02 1.4155612337486261e-02 0.0000000000000000e+00  4.7028313605631594e-01 2.7065116766418279e-01 0.0000000000000000e+00  -3.4416401366732840e-03 6.2413321118477789e-03 0.0000000000000000e+00  -2.9020859262685462e-04 6.7644574836981958e-04 0.0000000000000000e+00  2.6954023759540843e-05 -5.1928284231046956e-04 0.0000000000000000e+00  -1.1795336351769862e-02 4.8048465785469324e-03 0.0000000000000000e+00  -3.5160914380923125e-01 1.5880496352017762e-01 0.0000000000000000e+00  1.8689650350681335e-03 -1.1713684741351731e-03 0.0000000000000000e+00  1.4973594203689237e-03 6.0844509357188298e-04 0.0000000000000000e+00  -3.5732032385267002e-03 1.6191073902290887e-03 0.0000000000000000e+00  -1.9689984712927696e-03 -2.6683295367727314e-03 0.0000000000000000e+00  2.8517760563755044e-03 -7.2022819162521510e-03 0.0000000000000000e+00  -3.2439987065003298e-02 -4.5910388280618004e-02 0.0000000000000000e+00  -6.6075904388516349e-02 8.2714473736104667e-03 0.0000000000000000e+00  2.4567635710411651e-03 -2.1853328157619433e-02 0.0000000000000000e+00  -2.8128084300489258e-04 1.2578114291185156e-03 0.0000000000000000e+00  4.3145134755485579e-04 7.0818082449072373e-04 0.0000000000000000e+00  -2.8198339480976262e-02 -1.5623750263991385e-02 0.0000000000000000e+00  -2.1621877907829095e-03 -7.7063827046866627e-04 0.0000000000000000e+00  -2.3751656473935349e-04 -3.4506229505616224e-05 0.0000000000000000e+00  -2.4209979929208914e-01 -6.6660939482584017e-02 0.0000000000000000e+00  -9.5766340