<?xml version="1.0"?>
<VTKFile type="UnstructuredGrid"  version="0.1"  >
<UnstructuredGrid>
<Piece  NumberOfPoints="572" NumberOfCells="1038">
<Points>
<DataArray  type="Float64"  NumberOfComponents="3"  format="ascii">0 0 0  4 0 0  4 -1 0  0 -1 0  0.09999999999999999 0 0  0.2 0 0  0.3 0 0  0.4 0 0  0.4999999999999998 0 0  0.5999999999999996 0 0  0.6999999999999995 0 0  0.7999999999999994 0 0  0.8999999999999992 0 0  0.999999999999999 0 0  1.099999999999999 0 0  1.199999999999999 0 0  1.299999999999999 0 0  1.399999999999999 0 0  1.499999999999998 0 0  1.599999999999998 0 0  1.699999999999999 0 0  1.799999999999999 0 0  1.899999999999999 0 0  2 0 0  2.1 0 0  2.200000000000001 0 0  2.300000000000001 0 0  2.400000000000002 0 0  2.500000000000002 0 0  2.600000000000002 0 0  2.700000000000003 0 0  2.800000000000003 0 0  2.900000000000004 0 0  3.000000000000004 0 0  3.100000000000005 0 0  3.200000000000005 0 0  3.300000000000005 0 0  3.400000000000004 0 0  3.500000000000004 0 0  3.600000000000003 0 0  3.700000000000002 0 0  3.800000000000002 0 0  3.900000000000001 0 0  4 -0.08333333333333325 0  4 -0.1666666666666665 0  4 -0.2499999999999997 0  4 -0.333333333333333 0  4 -0.4166666666666666 0  4 -0.5000000000000001 0  4 -0.5833333333333337 0  4 -0.6666666666666673 0  4 -0.7500000000000006 0  4 -0.8333333333333337 0  4 -0.9166666666666669 0  3.9 -1 0  3.8 -1 0  3.7 -1 0  3.6 -1 0  3.5 -1 0  3.4 -1 0  3.300000000000001 -1 0  3.200000000000001 -1 0  3.100000000000001 -1 0  3.000000000000001 -1 0  2.900000000000001 -1 0  2.800000000000001 -1 0  2.700000000000001 -1 0  2.600000000000001 -1 0  2.500000000000002 -1 0  2.400000000000002 -1 0  2.300000000000002 -1 0  2.200000000000001 -1 0  2.100000000000001 -1 0  2 -1 0  1.9 -1 0  1.799999999999999 -1 0  1.699999999999999 -1 0  1.599999999999998 -1 0  1.499999999999998 -1 0  1.399999999999998 -1 0  1.299999999999997 -1 0  1.199999999999997 -1 0  1.099999999999996 -1 0  0.9999999999999956 -1 0  0.899999999999995 -1 0  0.7999999999999949 -1 0  0.6999999999999953 -1 0  0.5999999999999956 -1 0  0.499999999999996 -1 0  0.3999999999999968 -1 0  0.2999999999999976 -1 0  0.1999999999999984 -1 0  0.0999999999999992 -1 0  0 -0.9166666666666667 0  0 -0.8333333333333335 0  0 -0.7500000000000002 0  0 -0.666666666666667 0  0 -0.5833333333333335 0  0 -0.4999999999999999 0  0 -0.4166666666666663 0  0 -0.3333333333333327 0  0 -0.2499999999999994 0  0 -0.1666666666666663 0  0 -0.08333333333333315 0  3.491090701185765 -0.499339806301727 0  0.4950203227078167 -0.4989128584675094 0  2.64262313781888 -0.4879297506908338 0  1.449999999999998 -0.5 0  2.058402291097397 -0.5120941233772698 0  0.9749999999999992 -0.4749999999999993 0  3.081769880806683 -0.5597407802610527 0  1.745473944409859 -0.3290615136625714 0  2.347280045777389 -0.6545118286598804 0  2.335768673639667 -0.3237239238763549 0  1.750327526220345 -0.682828817540943 0  3.707492972392909 -0.3028030525063309 0  0.293580296675358 -0.7109385489008262 0  3.71498825372084 -0.7080088716251347 0  0.2918697062415769 -0.2988161261649331 0  3.250413907284768 -0.3098344370860925 0  0.7481958762886598 -0.6907216494845363 0  2.897531957111618 -0.3144800466372323 0  1.202975631932859 -0.6871206495416401 0  0.7276881720430104 -0.301075268817204 0  1.222241507685503 -0.2908020883113388 0  2.821785532795642 -0.7097679058139483 0  3.313580174540806 -0.7110306688463971 0  1.50219738324048 -0.2570217529780842 0  2.109436430026117 -0.7485141141565509 0  2.001923272149049 -0.2612004201407864 0  2.591779594323503 -0.2533220405676498 0  1.508220405676497 -0.7466779594323502 0  2.584305190871683 -0.7502831919469019 0  3.478286033189422 -0.23795222571263 0  0.5261060937617643 -0.7658117832712512 0  3.785135972681774 -0.5040707172464052 0  0.2090645029521114 -0.4969048262114374 0  0.9574438986108131 -0.2423163095862805 0  0.9754244626643473 -0.7628641460288867 0  0.5097271592765806 -0.2292760602594508 0  3.047448237147327 -0.7984168297371277 0  3.522893514415914 -0.785726174019542 0  3.27411286219494 -0.5150314861460955 0  2.876192398366876 -0.5166549013936721 0  3.072152863254761 -0.2028141497170135 0  2.188888454287124 -0.1960738743988359 0  1.911111545712876 -0.8039261256011641 0  0.6968885413728847 -0.4974520678389611 0  1.252104989604988 -0.4970114345114344 0  1.649610740490046 -0.5028202775347195 0  2.446694231298332 -0.485633542353709 0  1.845992484168205 -0.4989419599210881 0  2.246214131289309 -0.4959316037735846 0  2.743080194417513 -0.1797603284198384 0  1.345217800961618 -0.8177514544794908 0  3.831771135951664 -0.1764827624326512 0  0.168177957407361 -0.823589473522286 0  3.837430960455357 -0.8286944021295046 0  0.167391597779325 -0.1752538625856722 0  3.066111254276541 -0.3870061788029396 0  1.358909159394344 -0.1720779287034414 0  1.669284305949535 -0.172759019086266 0  2.264869859182613 -0.8283162784008133 0  2.434165412425708 -0.1697954173687042 0  1.668706113475668 -0.8314479749300888 0  1.842683258862577 -0.1656794186994128 0  3.848464877921415 -0.3616620315967092 0  0.151535122078585 -0.6383379684032905 0  3.848707346075076 -0.6466646759135177 0  0.1509968549082652 -0.3452619778382686 0  2.732975255829699 -0.3508363638623346 0  1.370252652534258 -0.6495109932111033 0  1.11832587037856 -0.1733419061976365 0  2.439737645513045 -0.836456385212641 0  3.331229791744127 -0.165499768727795 0  0.6726591332606813 -0.8336090461037186 0  1.132616756253317 -0.8280723285747189 0  1.950606351728588 -0.6518091391595896 0  2.153824719141371 -0.3536025000168445 0  3.62532407618639 -0.1564302309141494 0  0.3803710983093131 -0.8404803223371928 0  1.377912260103223 -0.3517997484404782 0  0.8924624300191402 -0.6125774599817652 0  3.207249628251628 -0.8375220474312923 0  0.6546785576266954 -0.155978749966339 0  2.719684587363634 -0.8327734580127736 0  3.647699282718985 -0.5637569936419204 0  0.3570156455557587 -0.5653989322146081 0  0.8322251523939386 -0.8403847541693579 0  0.3645988133126639 -0.1519337183240305 0  1.061404500324257 -0.6180105656135877 0  3.396758647231262 -0.3766313243368538 0  0.8148021518360848 -0.1629813466347811 0  0.6093556516052328 -0.6299486913462624 0  0.415997866655875 -0.3680522660477806 0  0.5920160015096863 -0.3645412637424194 0  3.572255424430109 -0.362089200459548 0  1.08043890485706 -0.3398660584513152 0  2.923658429424994 -0.1561137197110593 0  3.653613361778262 -0.8546909554159527 0  3.456739790681186 -0.6487708965425909 0  0.8424839600900655 -0.4190496412612194 0  2.6968241495241 -0.6460539373019687 0  2.90777185621417 -0.8467190841342236 0  3.167421855912535 -0.6853653881872064 0  3.378998015397395 -0.8550267917096944 0  2.549623533286458 -0.6074164390661531 0  1.563854363100012 -0.3870450365840445 0  1.945115925347995 -0.3956210114182645 0  2.206384380497951 -0.6363666106481864 0  2.9679770331043 -0.6663940397605803 0  2.492817266347368 -0.3527603982764793 0  1.545918816851176 -0.6075709531787901 0  2.028456012399734 -0.8701972194942087 0  2.065700499244939 -0.1359115819594244 0  1.113999927383315 -0.4803729266898425 0  3.194766700972084 -0.1349664610116483 0  1.791586588241401 -0.8656156413257059 0  2.307333345265183 -0.1346440826116952 0  2.64093544674549 -0.1331489671463476 0  0.4565707965077976 -0.6534785968762363 0  1.459077473581533 -0.8718776489042938 0  1.56279060907849 -0.1324694119967317 0  0.3144726782861624 -0.406319735913186 0  3.686635179527132 -0.4155119011072678 0  3.583227123430988 -0.6879918386850498 0  3.884530589958141 -0.5337716741137969 0  0.1138901561454064 -0.4712706309748976 0  2.551320204776417 -0.8759992125181354 0  2.968455986624249 -0.4231600805006418 0  1.843995631966074 -0.2713141166917306 0  1.23826657576458 -0.1310261345083986 0  1.632298315745049 -0.7047459448475459 0  3.454977942639006 -0.1019833897113779 0  2.11213131937471 -0.6131325843633801 0  1.631670858552932 -0.3027829344070553 0  0.549999999999996 -0.8847857258099061 0  2.175907031111534 -0.8808902127996396 0  2.440789547527098 -0.7252338716820566 0  0.9499999999999957 -0.8853403742417534 0  0.1192006629558211 -0.7258150973260704 0  0.1086302422397907 -0.2553484983400458 0  3.891615894289125 -0.7428762999771643 0  3.880790852604017 -0.2741969419997524 0  2.58999033724616 -0.3943081590477266 0  0.95310975133633 -0.1100375897447476 0  0.9389274183125247 -0.357418794071099 0  0.5436861363815539 -0.1129935035840732 0  1.237622314162623 -0.8886349339205675 0  2.766143121931948 -0.4669467935657355 0  3.157965388639583 -0.4824178848815803 0  3.732166646772587 -0.1061123528525496 0  0.8463407040907105 -0.2803849511418723 0  0.2658218649297859 -0.8967607408767373 0  3.384357462435764 -0.5450459842617623 0  1.954320722194999 -0.1009956898074866 0  0.8013980381943526 -0.5278489923710374 0  3.744358883260304 -0.603637271636247 0  0.2581863795088786 -0.6001369967359219 0  0.2629966501688439 -0.1025990268626685 0  0.3980883060404261 -0.7330050441066103 0  1.076076863672032 -0.7275728344185368 0  1.749999999999999 -0.5550190100941714 0  2.351512610076122 -0.5440435521440684 0  0.8619623856291254 -0.7246873586411677 0  3.553081028189586 -0.8932001918706867 0  2.806636304103025 -0.6100531542467602 0  2.546714489935151 -0.08818853426728746 0  1.172246975380209 -0.5783812280673658 0  1.560837452008869 -0.9052833905541354 0  3.005913589025749 -0.2858329927011495 0  3.104244827324224 -0.8867193195303111 0  0.6392996137609843 -0.7340215588892431 0  3.370409685921998 -0.2678372406131186 0  1.860045411420065 -0.6863616357695403 0  2.239306624928278 -0.3159929711989559 0  0.620090528303912 -0.2611000972275821 0  1.457468991263225 -0.08750102207080079 0  1.752790718352056 -0.1005001786212033 0  0.394717592657301 -0.2605042194828123 0  3.745581301416776 -0.9074819423317642 0  3.141158115761163 -0.2920724092797614 0  3.257376892791448 -0.6242591031763242 0  2.350280737493299 -0.9013197570937703 0  3.914203942485891 -0.125 0  3.914203942485891 -0.8750000000000003 0  0.08579605751410901 -0.1249999999999997 0  0.08579605751410968 -0.875 0  3.921126745430668 -0.4525
[...]
<PointData  Vectors="flow"> 
<DataArray  type="Float64"  Name="flow"  NumberOfComponents="3" format="ascii">-9.3881882653966864e-01 3.8822453294529868e-01 0.0000000000000000e+00  9.3379040498208177e-01 3.7517838580670743e-01 0.0000000000000000e+00  1.3547569819844836e+00 -9.4433040866160167e-01 0.0000000000000000e+00  -1.3382884913464137e+00 -9.1936058915341845e-01 0.0000000000000000e+00  1.4995777180881261e-02 -1.2404570303064986e-01 0.0000000000000000e+00  -3.0273070555432761e-02 -1.9214109085991180e-01 0.0000000000000000e+00  4.1771895054378096e-02 -3.9074996099016948e-02 0.0000000000000000e+00  -1.2417771657335637e-02 -6.5063408494273584e-02 0.0000000000000000e+00  4.7212268678933104e-03 -3.4303717350539768e-02 0.0000000000000000e+00  8.6626494979186793e-04 -2.6817921361696365e-02 0.0000000000000000e+00  1.1136537079088374e-04 -1.9014456085682387e-02 0.0000000000000000e+00  8.0267771859772713e-04 -1.4327449591259277e-02 0.0000000000000000e+00  1.1321112787640818e-04 -9.7370132792430290e-03 0.0000000000000000e+00  3.5277759930903000e-04 -6.9277767346323264e-03 0.0000000000000000e+00  8.4436390280867780e-05 -4.9084144225483408e-03 0.0000000000000000e+00  1.6917659249194350e-04 -4.2707596710485534e-03 0.0000000000000000e+00  7.4418461260750330e-05 -3.0004509995246818e-03 0.0000000000000000e+00  1.3294996571047092e-04 -1.3328662013980485e-03 0.0000000000000000e+00  1.0172909720781831e-04 -6.2054729947491323e-04 0.0000000000000000e+00  2.9773112440647587e-05 -2.3223963439558337e-04 0.0000000000000000e+00  4.3076614753259676e-05 8.7405502178755699e-05 0.0000000000000000e+00  8.8289371841345314e-06 3.6731744176487992e-04 0.0000000000000000e+00  4.4372385492895324e-05 4.8905661548879966e-04 0.0000000000000000e+00  -4.1386545072783296e-05 5.7505037435994953e-04 0.0000000000000000e+00  9.2795091781911252e-06 5.3722259845255668e-04 0.0000000000000000e+00  -3.5288545126921866e-05 3.1775494893439971e-04 0.0000000000000000e+00  2.1027522833190669e-05 8.0664792868619147e-05 0.0000000000000000e+00  -6.7585894182322002e-05 -3.6988084816733780e-04 0.0000000000000000e+00  -1.1220961641459330e-04 -7.1159493358543538e-04 0.0000000000000000e+00  -2.8055281214291841e-05 -1.6031923949212622e-03 0.0000000000000000e+00  -1.6079945476649916e-04 -2.4355881586123874e-03 0.0000000000000000e+00  -1.7955095034433456e-04 -3.2988267647829101e-03 0.0000000000000000e+00  -2.2472773859776364e-05 -4.9047960624142364e-03 0.0000000000000000e+00  -6.3809830387645213e-04 -6.6709442615243671e-03 0.0000000000000000e+00  2.4622253534362212e-04 -9.8003883784711938e-03 0.0000000000000000e+00  -1.2554762076960177e-03 -1.5699237748035798e-02 0.0000000000000000e+00  -6.0368019089027060e-05 -1.9033794274088363e-02 0.0000000000000000e+00  -2.4876609757966601e-04 -2.5832136981677589e-02 0.0000000000000000e+00  -5.3373713082018092e-03 -3.5500294004096315e-02 0.0000000000000000e+00  1.3096726040598462e-02 -6.4933576432677470e-02 0.0000000000000000e+00  -4.1664954294403998e-02 -3.7892595581265232e-02 0.0000000000000000e+00  3.4668200209986309e-02 -1.9843441470448525e-01 0.0000000000000000e+00  -1.0287599449516033e-02 -1.3353484227446175e-01 0.0000000000000000e+00  6.3864498313497875e-01 -2.1516425680944828e-01 0.0000000000000000e+00  3.5156342042094135e-01 8.5051026324920884e-02 0.0000000000000000e+00  5.0458973685404629e-01 5.2698750193709246e-02 0.0000000000000000e+00  4.7306711608520796e-01 -6.0522917846695889e-02 0.0000000000000000e+00  3.3855809967459016e-01 -3.5207055750636713e-02 0.0000000000000000e+00  4.7606640746407120e-01 1.2305862994775402e-01 0.0000000000000000e+00  5.1446198668603860e-01 -1.2988782142287553e-01 0.0000000000000000e+00  5.6703318998886043e-01 9.1393775377837702e-02 0.0000000000000000e+00  4.6102396234276299e-01 3.6791493678641235e-02 0.0000000000000000e+00  5.2932572303112635e-01 -3.0654271673503164e-01 0.0000000000000000e+00  1.1438142026260274e+00 5.6943302800511397e-01 0.0000000000000000e+00  -3.0755258653646367e-01 -3.5405964274731416e-01 0.0000000000000000e+00  1.1408698699436126e-01 2.1991238651389364e-01 0.0000000000000000e+00  -7.2480636499639817e-02 -4.0215938343251309e-02 0.0000000000000000e+00  3.6804252142844926e-02 3.2122638106202278e-02 0.0000000000000000e+00  7.3796744965233443e-03 1.8866789431777449e-02 0.0000000000000000e+00  1.4607182795843202e-02 2.3609175456011398e-02 0.0000000000000000e+00  1.1011246046450884e-02 1.9573096578671824e-02 0.0000000000000000e+00  6.3385198525882334e-03 1.6558373925138630e-02 0.0000000000000000e+00  4.6665904716844051e-03 1.4425921522189926e-02 0.0000000000000000e+00  4.3843887213908979e-03 1.2573319776126954e-02 0.0000000000000000e+00  2.4680695285691349e-03 9.6683812939950091e-03 0.0000000000000000e+00  3.8091529506522096e-04 7.0915321001423712e-03 0.0000000000000000e+00  7.9624145367964696e-04 6.1917476150420677e-03 0.0000000000000000e+00  -4.6905503511573987e-04 5.5869061402230502e-03 0.0000000000000000e+00  -2.2285699460592473e-04 5.1447960861725397e-03 0.0000000000000000e+00  -4.3001596269155799e-04 3.1546634026153788e-03 0.0000000000000000e+00  -5.1406114436978166e-04 2.6035705276196020e-03 0.0000000000000000e+00  -1.7308755981967563e-04 2.0929132897436211e-03 0.0000000000000000e+00  -3.3223773498702206e-05 2.3738113083047433e-03 0.0000000000000000e+00  -1.5781379659353948e-04 2.2216771492326376e-03 0.0000000000000000e+00  6.2042031404027016e-05 1.9396644550108823e-03 0.0000000000000000e+00  3.2031947158533644e-04 2.1902410530889194e-03 0.0000000000000000e+00  3.6721125832431598e-04 3.1861513581195842e-03 0.0000000000000000e+00  6.2952851022027095e-04 3.0186390630970606e-03 0.0000000000000000e+00  8.0946418071747788e-05 4.5526375290852036e-03 0.0000000000000000e+00  1.6847981559023486e-04 5.7324068157855214e-03 0.0000000000000000e+00  -1.3699043224309304e-04 5.6871947474759054e-03 0.0000000000000000e+00  -1.2315249943058600e-03 7.5994575052865249e-03 0.0000000000000000e+00  -2.0024397040554532e-03 9.7651725694102316e-03 0.0000000000000000e+00  -2.8681838088982460e-03 9.8346598494992721e-03 0.0000000000000000e+00  -5.7279653783389858e-03 1.3026856760545663e-02 0.0000000000000000e+00  -6.5946924755596898e-03 1.6313822969709051e-02 0.0000000000000000e+00  -1.0587369026726485e-02 1.7166880320896104e-02 0.0000000000000000e+00  -1.4802976789029337e-02 1.9272215511451554e-02 0.0000000000000000e+00  -8.6985528564416242e-03 1.7828968542052109e-02 0.0000000000000000e+00  -3.9163180278762685e-02 3.7698160362294883e-02 0.0000000000000000e+00  6.7995343453934751e-02 -3.5143680912268251e-02 0.0000000000000000e+00  -1.1194508746734652e-01 2.1475782355194328e-01 0.0000000000000000e+00  2.9916843305871743e-01 -3.4436721433511036e-01 0.0000000000000000e+00  -1.1519321999261503e+00 5.2192438235351302e-01 0.0000000000000000e+00  -4.5016791357414043e-01 -2.0512048229609922e-01 0.0000000000000000e+00  -6.8120935972526020e-01 -4.9432746202629774e-02 0.0000000000000000e+00  -5.6323903126615671e-01 8.1296541826675409e-02 0.0000000000000000e+00  -3.6083565262650258e-01 3.2934528365822086e-02 0.0000000000000000e+00  -4.9179784923089753e-01 -1.3118547243296319e-01 0.0000000000000000e+00  -4.2226474410848669e-01 1.4695082140877963e-01 0.0000000000000000e+00  -4.2807053302731790e-01 -1.0390375317700247e-01 0.0000000000000000e+00  -3.5964545399712894e-01 5.2839317370882866e-03 0.0000000000000000e+00  -4.0881443610813006e-01 1.5465957798258606e-01 0.0000000000000000e+00  -6.2469969192833863e-01 -2.4690816190332646e-01 0.0000000000000000e+00  2.5794901169338989e-02 -9.8214952486577614e-04 0.0000000000000000e+00  -2.6467963172511350e-02 -2.3888224434978123e-03 0.0000000000000000e+00  2.5780580074062356e-03 8.4017571384415585e-04 0.0000000000000000e+00  -1.7968426674102034e-03 1.0146115977304473e-03 0.0000000000000000e+00  1.1738052530203343e-04 1.0878043504033747e-03 0.0000000000000000e+00  -7.6226749264732994e-03 -7.5070505354203198e-04 0.0000000000000000e+00  8.9122246785747049e-03 1.0888145326996262e-03 0.0000000000000000e+00  -4.9617477854487695e-04 6.0849397228808944e-04 0.0000000000000000e+00  8.2141810271780722e-04 1.6249840989472316e-03 0.0000000000000000e+00  7.2711669303861964e-04 5.1134898181413543e-04 0.0000000000000000e+00  -4.6453653655114231e-04 1.5381219580194463e-03 0.0000000000000000e+00  3.3070182486726156e-02 -1.6957712857643803e-02 0.0000000000000000e+00  -2.2060604603095568e-02 1.6940753125483321e-02 0.0000000000000000e+00  1.7892091613053208e-02 1.3656228348329543e-02 0.0000000000000000e+00  -2.7123323924822609e-02 -1.4144337649023973e-02 0.0000000000000000e+00  1.1598330203555426e-02 -7.5307933365026392e-03 0.0000000000000000e+00  -1.3413948808990103e-02 4.9976546668041907e-03 0.0000000000000000e+00  4.0367215576728680e-03 -1.9027736840013234e-03 0.0000000000000000e+00  -3.8428997607523152e-03 2.9339519900321532e-03 0.0000000000000000e+00  -1.1684729182684530e-02 -8.4679120757448195e-03 0.0000000000000000e+00  -2.8106376365082562e-03 -1.3117810511368488e-03 0.0000000000000000e+00  4.0811618831083744e-03 3.2433648353087860e-03 0.0000000000000000e+00  1.5863789869522370e-02 6.4586419289215363e-03 0.0000000000000000e+00  -1.0608713653877911e-03 -7.9204586864967507e-05 0.0000000000000000e+00  1.1314384770389800e-04 1.5160195896522916e-03 0.0000000000000000e+00  -2.3310574603706950e-05 5.9382738239137595e-04 0.0000000000000000e+00  1.3978694252910681e-03 -4.3492092758646477e-04 0.0000000000000000e+00  -1.1655697134015078e-03 2.1828055670052261e-03 0.0000000000000000e+00  1.7274121909132932e-03 2.6684544841787390e-03 0.0000000000000000e+00  1.8341926632845739e-02 -2.0159166149088418e-02 0.0000000000000000e+00  -1.8702676968331292e-02 1.2843407392437502e-02 0.0000000000000000e+00  6.7559832540560957e-02 2.6560220856676652e-02 0.0000000000000000e+00  -9.0263686445607921e-02 -9.3920404185260844e-03 0.0000000000000000e+00  -5.6293968819989201e-03 -5.0085598047602681e-03 0.0000000000000000e+00  -7.5091878663716728e-03 5.5753079929452606e-03 0.0000000000000000e+00  -1.7229051399806350e-02 -2.1531945309455403e-02 0.0000000000000000e+00  7.0717409309406778e-03 6.5818145265531917e-03 0.0000000000000000e+00  1.8116175659528135e-02 1.7135370680693759e-02 0.0000000000000000e+00  1.4716894997811125e-02 -6.7459534574259325e-04 0.0000000000000000e+00  5.1530470982252439e-03 8.0272752674303812e-04 0.0000000000000000e+00  4.7882765189734200e-03 -6.2246275518776295e-03 0.0000000000000000e+00  2.9949885104005292e-04 3.9418743074765548e-04 0.0000000000000000e+00  -3.3749912689601594e-05 1.6303321850812849e-03 0.0000000000000000e+00  -1.6347256678524401e-02 -1.5409226140702804e-03 0.0000000000000000e+00  -3.2457638605972606e-03 6.9917961496667055e-04 0.0000000000000000e+00  -9.0865310527097297e-04 1.0972426036534499e-03 0.0000000000000000e+00  1.3252053073776540e-03 1.0025136933498125e-03 0.0000000000000000e+00  -3.3209328869380155e-04 1.0401168359571889e-03 0.0000000000000000e+00  5.8010841531828353e-04 1.0314912905325989e-03 0.0000000000000000e+00  1.6811083495605046e-03 -1.7820798794709605e-03 0.0000000000000000e+00  -1.7975917048264976e-03 3.4613573974319831e-03 0.0000000000000000e+00  7.0119811409764463e-02 -2.6566924648397758e-02 0.0000000000000000e+00  -3.2932840723664938e-02 -3.3762337584094131e-03 0.0000000000000000e+00  6.7619765212088316e-03 -2.8729947798625862e-02 0.0000000000000000e+00  -4.9247594251209087e-02 -6.0481128811045934e-03 0.0000000000000000e+00  7.6609385713341692e-03 -2.6609517895139607e-03 0.0000000000000000e+00  -1.0696448052101932e-03 -1.0232659228706865e-03 0.0000000000000000e+00  -4.4379376166435311e-04 1.6164241975399809e-04 0.0000000000000000e+00  2.1234877357140529e-04 1.8299481138697583e-03 0.0000000000000000e+00  5.9792738050280824e-04 -1.2756022650458406e-04 0.0000000000000000e+00  -3.2240784301674195e-04 1.9661001571885605e-03 0.0000000000000000e+00  -1.5437211104094625e-04 3.9051873322458306e-04 0.0000000000000000e+00  4.1479302575958464e-02 1.7193022900227041e-02 0.0000000000000000e+00  -3.8515722541032880e-02 -2.3216624113055331e-02 0.0000000000000000e+00  9.9204643571100502e-03 3.8067504985405606e-02 0.0000000000000000e+00  -1.0401064216618923e-03 -6.8077186595639416e-03 0.0000000000000000e+00  2.6859760850829967e-03 -5.2026299708519410e-04 0.0000000000000000e+00  -2.2714029224421999e-03 2.0882770342526306e-03 0.0000000000000000e+00  -2.3971687756447319e-03 -3.2758215786106914e-03 0.0000000000000000e+00  5.2213727954030257e-04 2.3906417690826819e-03 0.0000000000000000e+00  8.1589747937030315e-03 -1.4602100778775665e-02 0.0000000000000000e+00  -1.3329070764098725e-02 1.0167753177420299e-02 0.0000000000000000e+00  -3.8648298931930544e-03 4.7838481124927506e-03 0.0000000000000000e+00  -8.5571903469838355e-05 1.3702860663093307e-03 0.0000000000000000e+00  2.7872376239336467e-04 7.2285280164062103e-04 0.0000000000000000e+00  1.5971821384088238e-02 -3.7949624167056453e-02 0.0000000000000000e+00  -6.0580423709017594e-03 2.5701084810611615e-02 0.0000000000000000e+00  -1.9463502610597057e-03 -5.7839297778109567e-06 0.0000000000000000e+00  -9.7044134254814993e-03 2.4609922680899491e-03 0.0000000000000000e+00  1.0351978260660706e-02 8.5074905791612358e-03 0.0000000000000000e+00  -8.0230243590228220e-03 -1.4977009774259524e-02 0.0000000000000000e+00  2.1654945827342693e-03 3.7210824139254370e-03 0.0000000000000000e+00  4.1527362008153719e-02 7.2682111679338345e-03 0.0000000000000000e+00  -3.9011396637476735e-02 7.1114615266201810e-03 0.0000000000000000e+00  -8.9931540001962091e-03 7.6451780954684195e-03 0.0000000000000000e+00  -1.2444904257570001e-02 -3.6683628107757993e-02 0.0000000000000000e+00  -6.1486811359591532e-03 2.4069616831165655e-03 0.0000000000000000e+00  1.8709603534059704e-02 -8.1181478187810352e-03 0.0000000000000000e+00  -5.6291964286671464e-03 -8.8827142166009489e-03 0.0000000000000000e+00  -1.9146793584772493e-02 5.0110725285038805e-03 0.0000000000000000e+00  -2.9067298574510816e-02 -1.3836056028115820e-02 0.0000000000000000e+00  -1.9221024542382784e-02 -9.1098695597658617e-03 0.0000000000000000e+00  2.9190952823164643e-02 -1.4478059996143022e-02 0.0000000000000000e+00  -4.6983543022610774e-03 -1.9446024313766815e-03 0.0000000000000000e+00  2.4481481606305655e-03 -3.5737211380965955e-03 0.0000000000000000e+00  -2.9654951199621186e-03 2.8295519047364940e-02 0.0000000000000000e+00  2.2395857585709777e-02 8.1415020501385167e-03 0.0000000000000000e+00  -1.0280093239812514e-02 -3.2131476300301205e-03 0.0000000000000000e+00  3.0802137912032943e-03 2.2015390492719045e-03 0.0000000000000000e+00  4.1390970865902554e-03 5.0000728270125968e-03 0.0000000000000000e+00  1.1193014840442423e-02 4.4606464830945847e-03 0.0000000000000000e+00  1.4551322832858758e-02 1.1303269078249870e-02 0.0000000000000000e+00  1.8236165297772246e-03 1.7627317413269749e-03 0.0000000000000000e+00  -1.1006484439657523e-03 5.3164045622807680e-04 0.0000000000000000e+00  -1.4902908815373503e-04 8.3744636094920796e-04 0.0000000000000000e+00  3.4846471024965313e-04 1.4222386628187464e-03 0.0000000000000000e+00  6.6323388263131592e-03 3.1072171118089217e-03 0.0000000000000000e+00  1.3484871852601213e-03 2.3784244252292956e-04 0.0000000000000000e+00  -1.2297478593059003e-03 1.6026766649593145e-03 0.0000000000000000e+00  4.7739253422344997e-05 1.3785343405919520e-03 0.0000000000000000e+00  3.4180486895432495e-05 3.8938258526839638e-04 0.0000000000000000e+00  -5.1468738779880136e-03 1.1535281466722972e-04 0.0000000000000000e+00  4.4066237013130564e-03 -9.9775303806011826e-03 0.0000000000000000e+00  -1.2958823608809239e-04 1.6950229426232653e-03 0.0000000000000000e+00  3.5690309859909817e-04 1.6935202326172450e-04 0.0000000000000000e+00  9.0405675889770670e-04 -1.0813596923091799e-03 0.0000000000000000e+00  -2.7157636596959193e-02 8.2729577886098728e-03 0.0000000000000000e+00  -7.2686963465917222e-04 2.7864263242364101e-03 0.0000000000000000e+00  -4.2704803184226816e-04 -1.7219540575200750e-04 0.0000000000000000e+00  -4.1966708780868653e-02 -1.5189992937541969e-02 0.0000000000000000e+00  4.2527339820203944e-02 -7.0080833520781939e-03 0.0000000000000000e+00  2.3207681964228403e-02 1.3220513100510946e-02 0.0000000000000000e+00  -2.9862012634554791e-02 -1.4369542306739567e-02 0.0000000000000000e+00  5.2969305095464853e-02 3.4804455011221351e-03 0.0000000000000000e+00  7.8375026481619680e-04 2.7374025724233755e-03 0.0000000000000000e+00  6.0464086742143559e-03 -9.5325246257863168e-04 0.0000000000000000e+00  -2.6601197726358161e-04 5.7614961945159850e-04 0.0000000000000000e+00  -1.4387144982825461e-03 -1.9844013333857055e-03 0.0000000000000000e+00  -7.3855851121081050e-04 1.8045009574244374e-03 0.0000000000000000e+00  9.4973087063795949e-03 -2.5294916438925365e-02 0.0000000000000000e+00  2.1198394949087040e-04 1.3102329132862770e-03 0.0000000000000000e+00  -7.5336649710726973e-04 3.7969916574618782e-04 0.0000000000000000e+00  -1.6339737944622314e-02 1.5909654080926868e-02 0.0000000000000000e+00  -4.3148101244098416e-06 1.6500935318616125e-03 0.0000000000000000e+00  1.0157687322629337e-03 2.0886650712615023e-03 0.0000000000000000e+00  -6.3617503361538636e-03 8.7538841146132997e-03 0.0000000000000000e+00  8.4443674813980699e-02 6.7868740488103804e-02 0.0000000000000000e+00  -3.8383075179101736e-02 -4.5797011217486382e-02 0.0000000000000000e+00  -1.5905686431660203e-02 7.1468623383118768e-02 0.0000000000000000e+00  -2.2358712110974659e-02 -4.1667930811512252e-02 0.0000000000000000e+00  1.9175401255963587e-03 3.7981233009260450e-04 0.0000000000000000e+00  -2.4804545637908551e-03 -6.6731485765130398e-03 0.0000000000000000e+00  -7.2135209844291963e-03 -3.1420193997498992e-03 0.0000000000000000e+00  -9.6463764758381483e-03 -2.4144297160652688e-02 0.0000000000000000e+00  -2.1207826794702339e-03 5.0838413103572013e-03 0.0000000000000000e+00  3.5950575086034641e-03 4.0567368862243035e-04 0.0000000000000000e+00  1.1091558348656317e-02 -1.0559254129637245e-03 0.0000000000000000e+00  7.6942514789613461e-02 -4.9052337984061785e-02 0.0000000000000000e+00  -7.7082115589044891e-03 -6.4397275067505392e-03 0.0000000000000000e+00  -8.3733614825918276e-02 8.8738970038817495e-03 0.0000000000000000e+00  1.9751314082876299e-02 1.0109197735184534e-03 0.0000000000000000e+00  -2.7412241112482361e-05 4.0790246677042074e-04 0.0000000000000000e+00  -1.2437483997124606e-02 -5.7720535321521882e-05 0.0000000000000000e+00  3.1762687983983844e-02 5.8831146888754684e-04 0.0000000000000000e+00  -4.7658497326960349e-02 3.6622904606267029e-03 0.0000000000000000e+00  -8.2014710355246725e-02 -5.2949504544403038e-02 0.0000000000000000e+00  -2.6609495723985875e-02 1.8720996477817723e-02 0.0000000000000000e+00  -5.4890726325387074e-03 4.3640448578685974e-03 0.0000000000000000e+00  -5.6903498839629488e-04 1.2138654804102538e-03 0.0000000000000000e+00  8.6443182905428522e-04 1.1813734695018429e-03 0.0000000000000000e+00  -9.9921873753888082e-03 5.7666819854218336e-03 0.0000000000000000e+00  1.9895675980597133e-02 1.7581920957083830e-02 0.0000000000000000e+00  4.1430637840663333e-03 1.9846698449775390e-03 0.0000000000000000e+00  5.1034682977572313e-04 -7.4480242743772977e-04 0.0000000000000000e+00  -4.6127666061144719e-03 1.6721605284449373e-03 0.0000000000000000e+00  -2.9697231431690454e-04 2.6574443826603783e-03 0.0000000000000000e+00  5.4448973453649690e-03 -3.8431652319989898e-03 0.0000000000000000e+00  7.0674593261806475e-03 8.5644030351056232e-03 0.0000000000000000e+00  -1.7083746554026089e-02 8.6777940662062115e-03 0.0000000000000000e+00  1.4249044088453065e-02 -1.3615079200991666e-02 0.0000000000000000e+00  -2.4412738584000807e-04 1.4541197357949033e-03 0.0000000000000000e+00  4.8774463048768921e-04 5.8742593156204661e-04 0.0000000000000000e+00  -1.4858235426896143e-02 -1.3932191801709983e-02 0.0000000000000000e+00  -5.1481465240007151e-04 -7.7859323382828286e-04 0.0000000000000000e+00  -1.8110010993780155e-04 2.3747548637069040e-04 0.0000000000000000e+00  -3.6688990311548451e-02 -2.3957826964061752e-02 0.0000000000000000e+00  9.4129102883643359e-02 8.130512