<?xml version="1.0"?>
<VTKFile type="UnstructuredGrid"  version="0.1"  >
<UnstructuredGrid>
<Piece  NumberOfPoints="1855" NumberOfCells="3532">
<Points>
<DataArray  type="Float64"  NumberOfComponents="3"  format="ascii">0 0 0  30 0 0  30 -10 0  0 -10 0  0.1391574078963744 0 0  0.2856388821882616 0 0  0.4398299073010886 0 0  0.6021362569539473 0 0  0.7729850389704483 0 0  0.9528258543586996 0 0  1.142131984380316 0 0  1.34140159760994 0 0  1.551159074717981 0 0  1.771956417032531 0 0  2.004374674080994 0 0  2.249025475789527 0 0  2.506552636773105 0 0  2.777633857742732 0 0  3.062982518028728 0 0  3.363349525995907 0 0  3.679525322337712 0 0  4.01234195575742 0 0  4.362675247811097 0 0  4.731447135329707 0 0  5.119628065610077 0 0  5.528239565804708 0 0  5.958356943167011 0 0  6.411112081475485 0 0  6.887696441559404 0 0  7.389364184530748 0 0  7.917435485335147 0 0  8.473300005202017 0 0  9.058420557070402 0 0  9.674336929103793 0 0  10.32266995225095 0 0  11.00512576896296 0 0  11.72350030646412 0 0  12.47968402994705 0 0  13.27566689579597 0 0  14.1135435963616 0 0  14.9955190732806 0 0  15.92391430904694 0 0  16.90117245730496 0 0  17.92986524844506 0 0  19.01269976086341 0 0  20.15252556282024 0 0  21.35234220269763 0 0  22.61530708683689 0 0  23.94474379751883 0 0  25.34415086349739 0 0  26.81721093579712 0 0  28.3678004819169 0 0  30 -1.111111111111111 0  30 -2.222222222222222 0  30 -3.333333333333333 0  30 -4.444444444444445 0  30 -5.555555555555555 0  30 -6.666666666666666 0  30 -7.777777777777777 0  30 -8.888888888888889 0  28.36780047917311 -10 0  26.8172109305839 -10 0  25.34415085606858 -10 0  23.94474378810899 -10 0  22.61530707566275 -10 0  21.3523421899591 -10 0  20.15252554870171 -10 0  19.01269974553473 -10 0  17.92986523206254 -10 0  16.90117244001232 -10 0  15.92391429097614 -10 0  14.99551905455266 -10 0  14.11354357708742 -10 0  13.27566687607703 -10 0  12.47968400987599 -10 0  11.72350028612546 -10 0  11.00512574843363 -10 0  10.32266993160086 -10 0  9.674336908396342 -10 0  9.058420536362949 -10 0  8.473299984546333 -10 0  7.917435464777824 -10 0  7.389364164113587 -10 0  6.887696420787165 -10 0  6.411112061446698 -10 0  5.95835692337857 -10 0  5.528239546282652 -10 0  5.119628046377237 -10 0  4.731447115907979 -10 0  4.362675229213632 -10 0  4.012341937260036 -10 0  3.679525304434552 -10 0  3.363349508456405 -10 0  3.062982500861274 -10 0  2.777633840953978 -10 0  2.506552620368097 -10 0  2.249025459771861 -10 0  2.004374658452946 -10 0  1.771956401795187 -10 0  1.551159059871345 -10 0  1.341401583153029 -10 0  1.142131970307521 -10 0  0.9528258406748833 -10 0  0.7729850256685147 -10 0  0.6021362439621285 -10 0  0.4398298947504031 -10 0  0.2856388700059078 -10 0  0.1391573960769001 -10 0  0 -9.855072463768115 0  0 -9.710144927536232 0  0 -9.565217391304348 0  0 -9.420289855072463 0  0 -9.27536231884058 0  0 -9.130434782608695 0  0 -8.985507246376812 0  0 -8.840579710144928 0  0 -8.695652173913043 0  0 -8.55072463768116 0  0 -8.405797101449275 0  0 -8.260869565217391 0  0 -8.115942028985508 0  0 -7.971014492753623 0  0 -7.826086956521739 0  0 -7.681159420289855 0  0 -7.536231884057971 0  0 -7.391304347826087 0  0 -7.246376811594203 0  0 -7.101449275362318 0  0 -6.956521739130435 0  0 -6.811594202898551 0  0 -6.666666666666667 0  0 -6.521739130434783 0  0 -6.376811594202898 0  0 -6.231884057971015 0  0 -6.086956521739131 0  0 -5.942028985507246 0  0 -5.797101449275362 0  0 -5.652173913043478 0  0 -5.507246376811594 0  0 -5.36231884057971 0  0 -5.217391304347826 0  0 -5.072463768115941 0  0 -4.927536231884058 0  0 -4.782608695652174 0  0 -4.637681159420289 0  0 -4.492753623188406 0  0 -4.347826086956522 0  0 -4.202898550724638 0  0 -4.057971014492754 0  0 -3.913043478260869 0  0 -3.768115942028985 0  0 -3.623188405797101 0  0 -3.478260869565217 0  0 -3.333333333333334 0  0 -3.188405797101449 0  0 -3.043478260869565 0  0 -2.898550724637681 0  0 -2.753623188405797 0  0 -2.608695652173912 0  0 -2.463768115942029 0  0 -2.318840579710145 0  0 -2.173913043478261 0  0 -2.028985507246377 0  0 -1.884057971014492 0  0 -1.739130434782609 0  0 -1.594202898550725 0  0 -1.44927536231884 0  0 -1.304347826086957 0  0 -1.159420289855072 0  0 -1.014492753623188 0  0 -0.8695652173913047 0  0 -0.72463768115942 0  0 -0.579710144927537 0  0 -0.4347826086956523 0  0 -0.2898550724637676 0  0 -0.1449275362318829 0  5.15859856094262 -4.976557621770688 0  2.816777084926057 -7.160262673925935 0  2.81677708460006 -2.839737326002783 0  2.227649803257325 -5.003121586636773 0  1.518662968975629 -8.46230852045241 0  1.518662969184829 -1.537691480152612 0  9.960740911025725 -5.055901393541221 0  1.491099662214591 -3.691833922963321 0  1.503675657181264 -6.345020369042368 0  5.319208041801049 -7.493850249937013 0  5.291109955459268 -2.489368743223226 0  1.096914507335763 -2.53623188405797 0  1.096914507253562 -7.463768115942029 0  1.089580194952752 -4.71277167923441 0  15.07565076110197 -5.047572991082069 0  7.501630508673601 -5.937500100385354 0  0.8894869418764504 -5.623930488933245 0  2.955144522453978 -1.440834296472408 0  2.955144521140721 -8.559165705576945 0  8.106603955004623 -2.748811534843258 0  3.662152539483591 -4.228178367024407 0  3.662181528265114 -5.771746159989156 0  0.8436558190317136 -0.8541050638451999 0  0.8436558075840921 -9.145894948342754 0  0.7854168197005933 -1.811594202898552 0  0.7894693398152999 -3.286543351392342 0  0.7854168196772591 -8.188405797101449 0  0.7854168196772591 -6.739130434782609 0  20.00078956016804 -4.999999999785771 0  0.7379120031523989 -3.977302749614766 0  6.584332478112232 -3.934875417052907 0  7.295091310194352 -7.969791332537982 0  9.811174303464586 -7.412814499648229 0  4.013376806449688 -2.206189431585293 0  4.013376806983409 -7.793810569017377 0  12.11177433894592 -2.818343737884045 0  2.591152707837148 -3.990098461753838 0  2.58990939378082 -6.025895074707176 0  25.43156400064585 -5.044446479916348 0  2.03262751726143 -2.282125834846944 0  2.032627517335952 -7.717874165160392 0  12.51865094522923 -6.491408052923457 0  0.598175343983641 -6.156971652625402 0  2.126700074935224 -0.8767654465386991 0  2.126700059112423 -9.123234559633019 0  6.617961838548696 -1.617756429129908 0  0.5903949564549755 -4.980060355019413 0  1.676697585305984 -5.547101897225158 0  4.773518305133987 -3.729331162566817 0  4.77931803486508 -6.231222307502165 0  4.878549698409591 -8.72048903376362 0  4.852580875634024 -1.222215410052823 0  0.5487847095754042 -2.675169258708207 0  0.545113423825768 -7.32369553390529 0  1.78738026998851 -4.400451872599477 0  1.68244194111824 -3.010100184333533 0  1.683984276238402 -7.018293626028473 0  9.998503440677371 -2.00585287985007 0  3.693061162502273 -3.243678395563028 0  3.694987482168253 -6.757603268814477 0  6.081763036485869 -5.83414381546261 0  0.5196640460586313 -1.350633211792632 0  0.5196640458460706 -8.649366789040087 0  3.84593363904758 -0.9906418103762418 0  3.845933620847308 -9.009358200471317 0  17.41551885287501 -3.057748733689079 0  17.30725517812527 -7.002961443761516 0  8.117698464370697 -4.451550942597151 0  0.4918476668493152 -0.4789811193757592 0  0.4918476560347713 -9.521018882514893 0  1.463770869328428 -0.6252343353791154 0  1.463770854281917 -9.374765668872765 0  0.5034132782032188 -4.464280853772128 0  3.138906271796685 -4.99999841599503 0  14.61209972381335 -2.388610981020637 0  6.208601124947327 -8.776231214192325 0  14.74910972998159 -7.542186851303819 0  2.243794246335625 -1.632184311040998 0  2.243794245689214 -8.367815689183566 0  0.4590235278399923 -5.431413993025926 0  0.4971508861448406 -2.209632053221267 0  0.4971508861368665 -7.790367946777407 0  0.4644363683211541 -3.560571347760519 0  6.478811279411406 -7.007392971062433 0  1.238895267772762 -4.173677632458826 0  1.293241773632479 -2.02256720952064 0  1.293241773542714 -7.977432790434841 0  0.4324740478030531 -0.942028985507247 0  0.4324740423701829 -9.057971014492754 0  2.117396640811705 -3.472968170680347 0  2.107095929630507 -6.531506384346077 0  8.087741545730886 -1.392783601483453 0  1.028911946384717 -1.352376108341404 0  1.028911946221715 -8.647623891551962 0  4.05691976296832 -4.991522392209158 0  11.51826881314265 -8.065248940008736 0  1.618560396201739 -4.958056164503666 0  2.701984523487646 -2.141781914603403 0  2.70198452396172 -7.858218085853512 0  2.843615645746219 -9.289121726447632 0  2.843615661334342 -0.7108782798429658 0  8.678774612240533 -8.488146490452822 0  6.487906449371135 -2.667543558824978 0  8.369190916679937 -7.129867754908394 0  11.80978191929258 -4.655775487536958 0  0.3792065166453504 -3.113833531412848 0  0.4134714637263563 -6.58827691137208 0  9.551050695080825 -3.49648183875815 0  1.083867845277057 -6.036251777836495 0  0.3756430921870901 -1.80381664325008 0  0.3756430921689482 -8.196183356748573 0  3.113073783220456 -3.503408140759125 0  3.113391383189963 -6.496678880796299 0  22.62850736315072 -3.277987336300344 0  22.59385352108348 -6.800312122582239 0  0.3777114402537816 -4.137047872695438 0  0.9196816123347897 -0.4281025456111269 0  0.9196815944880363 -9.571897460530383 0  0.4052043328723194 -5.827814332459883 0  8.865857694874787 -5.767686953139113 0  1.200388325130726 -5.182186034620629 0  5.65297436943758 -4.325500846767599 0  1.200079167961391 -3.009849046583253 0  1.20883344838 -7.021823297793294 0  1.057642414577487 -3.660996704809145 0  10.88812987788297 -6.333458225047037 0  4.493502926606794 -2.839780197438185 0  4.485862892033458 -7.147606077919463 0  0.3631651408878085 -7.003529808558233 0  1.946748828463205 -6.049056369468467 0  6.918750162798794 -4.993796052442676 0  3.351203216022585 -1.980935554775394 0  3.351203216441711 -8.019064445907297 0  2.281892243515294 -2.856654416292082 0  2.281892243715877 -7.143345583598931 0  5.811143619672087 -0.9953286820321026 0  2.695713766833098 -4.565354125099452 0  2.698172168139827 -5.435483248292925 0  19.86166219288896 -2.493475492328429 0  19.83739102036415 -7.594404063416508
[...]
<PointData  Vectors="flow"> 
<DataArray  type="Float64"  Name="flow"  NumberOfComponents="3" format="ascii">-1.8599978326102160e-12 -8.2129375408851009e-13 0.0000000000000000e+00  -1.3970679974024883e-22 -6.1688417060863412e-23 0.0000000000000000e+00  -5.3091703168558809e-23 -2.3442975815228406e-23 0.0000000000000000e+00  3.4070882763119306e-18 1.5044212804465045e-18 0.0000000000000000e+00  8.5480549064122965e-12 3.7744474650220075e-12 0.0000000000000000e+00  -4.2567058976539901e-11 -1.8795752905952834e-11 0.0000000000000000e+00  7.4052265701944280e-11 3.2698244175779514e-11 0.0000000000000000e+00  -4.4070600067199242e-10 -1.9459650941275266e-10 0.0000000000000000e+00  4.5211444414882619e-10 1.9963397946090092e-10 0.0000000000000000e+00  3.8619732031623212e-09 1.7052785839880619e-09 0.0000000000000000e+00  6.1491369259587308e-09 2.7151901264517450e-09 0.0000000000000000e+00  -3.0614888433730226e-08 -1.3518196748355194e-08 0.0000000000000000e+00  -1.0768617103754087e-07 -4.7549506845782019e-08 0.0000000000000000e+00  -1.4313080411984846e-07 -6.3200307753225079e-08 0.0000000000000000e+00  -4.6050292354142848e-07 -2.0333796535306596e-07 0.0000000000000000e+00  -1.0788187787315038e-07 -4.7635922431273276e-08 0.0000000000000000e+00  4.9142677246125420e-06 2.1699258554936390e-06 0.0000000000000000e+00  -9.5765678183396779e-06 -4.2285938171066910e-06 0.0000000000000000e+00  -1.8310574617590248e-05 -8.0851495112198546e-06 0.0000000000000000e+00  -1.7727123160701318e-05 -7.8275228468466807e-06 0.0000000000000000e+00  -4.2412567224100468e-06 -1.8727536099937054e-06 0.0000000000000000e+00  1.4817005048944004e-05 6.5425418716312517e-06 0.0000000000000000e+00  -1.6596256014077910e-05 -7.3281813379792751e-06 0.0000000000000000e+00  -5.3805006347947845e-06 -2.3757939325256460e-06 0.0000000000000000e+00  8.7454433827207092e-06 3.8616055895525427e-06 0.0000000000000000e+00  7.6242467041714367e-06 3.3665341367514017e-06 0.0000000000000000e+00  1.2917048335027829e-05 5.7036040219090510e-06 0.0000000000000000e+00  5.4988563555730417e-06 2.4280546462381095e-06 0.0000000000000000e+00  -3.8663498222742034e-06 -1.7072111077134085e-06 0.0000000000000000e+00  -2.0613208891667312e-07 -9.1018921730087086e-08 0.0000000000000000e+00  -4.6731620974770170e-08 -2.0634641477592219e-08 0.0000000000000000e+00  -1.3222058624200068e-08 -5.8382832355285290e-09 0.0000000000000000e+00  8.8155183773437708e-09 3.8925476446413547e-09 0.0000000000000000e+00  6.0668305879037098e-10 2.6788472446584023e-10 0.0000000000000000e+00  1.3666478848133688e-10 6.0345197836082889e-11 0.0000000000000000e+00  -4.1587718308820278e-11 -1.8363318867901103e-11 0.0000000000000000e+00  1.2504384323013046e-11 5.5213896291485878e-12 0.0000000000000000e+00  -2.3861099028935062e-12 -1.0536018512801447e-12 0.0000000000000000e+00  4.4674192076644164e-13 1.9726170793440548e-13 0.0000000000000000e+00  4.6217680123370694e-14 2.0407707658732396e-14 0.0000000000000000e+00  -1.6475012991523915e-14 -7.2746457179884409e-15 0.0000000000000000e+00  9.6464275563952619e-15 4.2594408243028318e-15 0.0000000000000000e+00  -2.2632012905826479e-15 -9.9933077964511363e-16 0.0000000000000000e+00  5.0241095293466950e-16 2.2184271959706765e-16 0.0000000000000000e+00  -4.8380354963820602e-17 -2.1362650351376968e-17 0.0000000000000000e+00  1.1156263691368938e-17 4.9261184760777558e-18 0.0000000000000000e+00  -1.4096854766969750e-18 -6.2245549803451677e-19 0.0000000000000000e+00  2.3708171377892930e-19 1.0468492345605857e-19 0.0000000000000000e+00  4.2144434620490049e-21 1.8609140460570348e-21 0.0000000000000000e+00  2.8424735138763169e-21 1.2551120771106129e-21 0.0000000000000000e+00  -2.8746235488707660e-21 -1.2693081274885928e-21 0.0000000000000000e+00  6.6872154297401363e-22 2.9527820776987163e-22 0.0000000000000000e+00  6.3264323488532589e-23 2.7934760367355506e-23 0.0000000000000000e+00  -5.5639462094863106e-24 -2.4567954810585973e-24 0.0000000000000000e+00  1.7314431837553271e-23 7.6452963946833848e-24 0.0000000000000000e+00  -2.2526454228255950e-23 -9.9466976977410534e-24 0.0000000000000000e+00  -5.6167709997132104e-24 -2.4801205997838683e-24 0.0000000000000000e+00  1.7613680951580855e-23 7.7774317251436708e-24 0.0000000000000000e+00  -1.9875147099532271e-24 -8.7759963416349513e-25 0.0000000000000000e+00  2.6184471810186255e-23 1.1561918393008860e-23 0.0000000000000000e+00  2.6127322140419527e-22 1.1536683596492039e-22 0.0000000000000000e+00  -1.0798374334093772e-21 -4.7680901769950753e-22 0.0000000000000000e+00  1.9552008025370082e-21 8.6333122488589542e-22 0.0000000000000000e+00  2.0880252377995574e-20 9.2198069057821862e-21 0.0000000000000000e+00  -2.7113697360576961e-19 -1.1972223785464276e-19 0.0000000000000000e+00  1.4522527374015540e-18 6.4125134001475442e-19 0.0000000000000000e+00  -7.6886794200491673e-18 -3.3949848081347583e-18 0.0000000000000000e+00  1.7649067490294890e-17 7.7930568741170079e-18 0.0000000000000000e+00  -1.7338747152117365e-16 -7.6560329749255959e-17 0.0000000000000000e+00  4.3333976545602885e-16 1.9134390187313701e-16 0.0000000000000000e+00  -3.4694449309235133e-15 -1.5319552539062872e-15 0.0000000000000000e+00  9.2170031944038514e-15 4.0698257934820353e-15 0.0000000000000000e+00  -2.2821099857288519e-14 -1.0076800330416867e-14 0.0000000000000000e+00  -1.5082744115781282e-13 -6.6598806297653983e-14 0.0000000000000000e+00  3.4740635066593547e-13 1.5339946151023733e-13 0.0000000000000000e+00  -2.8705996300409090e-12 -1.2675313407934765e-12 0.0000000000000000e+00  1.8000299013519605e-11 7.9481453646549985e-12 0.0000000000000000e+00  -6.8028265054126560e-11 -3.0038308760836223e-11 0.0000000000000000e+00  -1.3078378566309108e-10 -5.7748404013144130e-11 0.0000000000000000e+00  1.7216547125691657e-10 7.6020747838496079e-11 0.0000000000000000e+00  -6.0017428568108032e-10 -2.6501073471825982e-10 0.0000000000000000e+00  5.6283112314656303e-10 2.4852162617748725e-10 0.0000000000000000e+00  1.0154890372836191e-09 4.4839557823354027e-10 0.0000000000000000e+00  -5.0114729054735947e-10 -2.2128474151355617e-10 0.0000000000000000e+00  -7.2012302033749445e-10 -3.1797485373870291e-10 0.0000000000000000e+00  7.3059573984431948e-11 3.2259914897630521e-11 0.0000000000000000e+00  4.6337278687037370e-09 2.0460517157547505e-09 0.0000000000000000e+00  1.6287654621506530e-09 7.1919164500432384e-10 0.0000000000000000e+00  3.7800302407919285e-10 1.6690961530161547e-10 0.0000000000000000e+00  1.3046855955501443e-10 5.7609213940365597e-11 0.0000000000000000e+00  -1.0400704152289735e-10 -4.5924964043697655e-11 0.0000000000000000e+00  -1.4669871241229259e-10 -6.4775740124365588e-11 0.0000000000000000e+00  1.2846665035970460e-10 5.6725258330560886e-11 0.0000000000000000e+00  7.4463730267989020e-11 3.2879928945619885e-11 0.0000000000000000e+00  3.6541858669950772e-11 1.6135287774125573e-11 0.0000000000000000e+00  -2.9259896335297702e-11 -1.2919891455859178e-11 0.0000000000000000e+00  -2.7790899814575288e-13 -1.2271246792895473e-13 0.0000000000000000e+00  2.4376893620655859e-12 1.0763770862371905e-12 0.0000000000000000e+00  9.6417564608709739e-13 4.2573782726634666e-13 0.0000000000000000e+00  1.7908965012969898e-13 7.9078162616462491e-14 0.0000000000000000e+00  7.2346803832695158e-14 3.1945186749317568e-14 0.0000000000000000e+00  -6.7202150030263634e-15 -2.9673532470583580e-15 0.0000000000000000e+00  -1.1348993894711585e-14 -5.0112197108503655e-15 0.0000000000000000e+00  -5.2889302609161137e-16 -2.3353604573852174e-16 0.0000000000000000e+00  8.7342124830856090e-16 3.8566465151055744e-16 0.0000000000000000e+00  -1.3649423729973018e-16 -6.0269889888003740e-17 0.0000000000000000e+00  9.5383656947893574e-17 4.2117254289211200e-17 0.0000000000000000e+00  -2.3383459498829669e-17 -1.0325113770922887e-17 0.0000000000000000e+00  1.3229430054610666e-17 5.8415381370390568e-18 0.0000000000000000e+00  -3.6349323228792291e-17 -1.6050272537821634e-17 0.0000000000000000e+00  2.8737803532194239e-18 1.2689358091397328e-18 0.0000000000000000e+00  -2.6271229534427415e-16 -1.1600226812399950e-16 0.0000000000000000e+00  -2.3506107247827336e-16 -1.0379269656719503e-16 0.0000000000000000e+00  -1.0890863373730144e-14 -4.8089292947850046e-15 0.0000000000000000e+00  1.3433346709624394e-14 5.9315788199802669e-15 0.0000000000000000e+00  -1.6075419069744146e-14 -7.0982025058644113e-15 0.0000000000000000e+00  -5.8412346180005873e-14 -2.5792339237283389e-14 0.0000000000000000e+00  3.9651114083288204e-13 1.7508199078681373e-13 0.0000000000000000e+00  -1.2681570582057385e-12 -5.5996273374469860e-13 0.0000000000000000e+00  -2.6851680471599873e-12 -1.1856528578400152e-12 0.0000000000000000e+00  1.9439466693064004e-12 8.5836189149854965e-13 0.0000000000000000e+00  7.6151840059782788e-12 3.3625324453027669e-12 0.0000000000000000e+00  5.6602572193008390e-12 2.4993222138449484e-12 0.0000000000000000e+00  4.6951552668912173e-11 2.0731753701895911e-11 0.0000000000000000e+00  1.3694512255012153e-11 6.0468981109221862e-12 0.0000000000000000e+00  8.6474431785682637e-12 3.8183329823707852e-12 0.0000000000000000e+00  -1.1179093487538480e-09 -4.9361991163195819e-10 0.0000000000000000e+00  -9.8222141762239719e-10 -4.3370605130930162e-10 0.0000000000000000e+00  -4.2348508868706667e-10 -1.8699250729782635e-10 0.0000000000000000e+00  -1.1497386769505107e-09 -5.0767435190411084e-10 0.0000000000000000e+00  9.1829637994692398e-10 4.0547954843265026e-10 0.0000000000000000e+00  3.9554347712349416e-09 1.7465471278323471e-09 0.0000000000000000e+00  1.3773997951480723e-08 6.0819955206634561e-09 0.0000000000000000e+00  -3.4492930896053636e-08 -1.5230570814902706e-08 0.0000000000000000e+00  -3.5985120778307568e-07 -1.5889456652683182e-07 0.0000000000000000e+00  -4.0795905171062666e-07 -1.8013688791433340e-07 0.0000000000000000e+00  6.0578774546572338e-07 2.6748939323018130e-07 0.0000000000000000e+00  2.0422097258328173e-06 9.0175056280121568e-07 0.0000000000000000e+00  -4.0437343033345576e-07 -1.7855363421910534e-07 0.0000000000000000e+00  -2.9610058776667930e-06 -1.3074507886573075e-06 0.0000000000000000e+00  -5.5098718118089424e-07 -2.4329185902956724e-07 0.0000000000000000e+00  -3.7413721346150821e-06 -1.6520264228308376e-06 0.0000000000000000e+00  9.0313171040415576e-06 3.9878349311477191e-06 0.0000000000000000e+00  -3.3788402623753662e-05 -1.4919481920349153e-05 0.0000000000000000e+00  -4.7872323725402844e-07 -2.1138325959337098e-07 0.0000000000000000e+00  -3.0027588697120009e-05 -1.3258870851841212e-05 0.0000000000000000e+00  -5.6086075623058273e-06 -2.4765159825972057e-06 0.0000000000000000e+00  1.5593486785195813e-05 6.8854022712331175e-06 0.0000000000000000e+00  -1.9259078154319980e-05 -8.5039672199232058e-06 0.0000000000000000e+00  1.4078987778786911e-05 6.2166656992171575e-06 0.0000000000000000e+00  4.9444305643883022e-05 2.1832444473108381e-05 0.0000000000000000e+00  7.3778377074960166e-07 3.2577306928051450e-07 0.0000000000000000e+00  2.4811286719947681e-05 1.0955579870432334e-05 0.0000000000000000e+00  2.1054396446521752e-05 9.2967013157027435e-06 0.0000000000000000e+00  -4.6138389546029209e-08 -2.0372696405072191e-08 0.0000000000000000e+00  -4.3208153846900186e-06 -1.9078832382484398e-06 0.0000000000000000e+00  -3.1048093095444615e-06 -1.3709480994320619e-06 0.0000000000000000e+00  2.0249215438915041e-06 8.9411685721349423e-07 0.0000000000000000e+00  -8.9482789234552068e-07 -3.9511688996767421e-07 0.0000000000000000e+00  -5.0310148025476080e-07 -2.2214762628301912e-07 0.0000000000000000e+00  5.2011571744361842e-07 2.2966036984045594e-07 0.0000000000000000e+00  4.2248639005748572e-08 1.8655152562983224e-08 0.0000000000000000e+00  -2.0539528484377652e-09 -9.0693581252553805e-10 0.0000000000000000e+00  3.4842145369688197e-08 1.5384768664494251e-08 0.0000000000000000e+00  1.9772342360901981e-08 8.7306022620034746e-09 0.0000000000000000e+00  3.3146370252637413e-08 1.4635988484455990e-08 0.0000000000000000e+00  2.3050176652969734e-09 1.0177950631885596e-09 0.0000000000000000e+00  7.7683216418841088e-09 3.4301513326370784e-09 0.0000000000000000e+00  -4.5232727117697787e-09 -1.9972795457520419e-09 0.0000000000000000e+00  -1.3918910421137431e-09 -6.1459825340523611e-10 0.0000000000000000e+00  1.3326237302690403e-09 5.8842839869558747e-10 0.0000000000000000e+00  -2.3058696170197438e-11 -1.0181712478358825e-11 0.0000000000000000e+00  9.5871584328476172e-11 4.2332701696243298e-11 0.0000000000000000e+00  -3.1082173619538354e-12 -1.3724529464315309e-12 0.0000000000000000e+00  1.1312822738989612e-11 4.9952481092969655e-12 0.0000000000000000e+00  -5.4162520948230446e-12 -2.3915802148029568e-12 0.0000000000000000e+00  4.6129462059801429e-01 2.0368754417316137e-01 0.0000000000000000e+00  1.2513058254602809e-03 5.5252196582557050e-04 0.0000000000000000e+00  -6.2411772839946480e+02 -2.7558311260559805e+02 0.0000000000000000e+00  2.3651915990130811e+02 1.0443652424938797e+02 0.0000000000000000e+00  3.6219959995365337e-09 1.5993151387592577e-09 0.0000000000000000e+00  -1.6312137318711523e-03 -7.2027269391444369e-04 0.0000000000000000e+00  1.9923747842886486e-09 8.7974563058678420e-10 0.0000000000000000e+00  -6.6142348175849444e+00 -2.9205570288939482e+00 0.0000000000000000e+00  -4.4482684374938242e-03 -1.9641609361962797e-03 0.0000000000000000e+00  -6.6987623621377846e-05 -2.9578806984018143e-05 0.0000000000000000e+00  -9.5842636459538361e-02 -4.2319919582449413e-02 0.0000000000000000e+00  -5.1131623693218442e-04 -2.2577490381647810e-04 0.0000000000000000e+00  5.2254550150593041e-07 2.3073325629181241e-07 0.0000000000000000e+00  3.4124363411034214e-01 1.5067827521281901e-01 0.0000000000000000e+00  -5.3528925918256167e-14 -2.3636034273241773e-14 0.0000000000000000e+00  -1.1080201184050846e-05 -4.8925325970592692e-06 0.0000000000000000e+00  4.4944870039090876e-03 1.9845690352027789e-03 0.0000000000000000e+00  -9.8162896800384189e-02 -4.3344445144999008e-02 0.0000000000000000e+00  3.9058777634597774e-07 1.7246649190235723e-07 0.0000000000000000e+00  2.2916770348197101e-06 1.0119044238047430e-06 0.0000000000000000e+00  -5.5963648279607578e+03 -2.4711101261632443e+03 0.0000000000000000e+00  1.0101500695631380e+00 4.4603812342083565e-01 0.0000000000000000e+00  2.2357579217153767e-07 9.8721298733015520e-08 0.0000000000000000e+00  -5.0440850100221990e-13 -2.2272474952345059e-13 0.0000000000000000e+00  -4.1409607888127791e-05 -1.8284673090208213e-05 0.0000000000000000e+00  -1.3893958690331581e-02 -6.1349649402115299e-03 0.0000000000000000e+00  5.9377321040580978e-10 2.6218429962739059e-10 0.0000000000000000e+00  3.4839631485052917e-07 1.5383658642905322e-07 0.0000000000000000e+00  -8.5103188924371193e-18 -3.7577848904541183e-18 0.0000000000000000e+00  5.9199185494520024e-02 2.6139773090781512e-02 0.0000000000000000e+00  4.6177556744153867e-03 2.0389990928010430e-03 0.0000000000000000e+00  2.4473895774999784e-07 1.0806602774376870e-07 0.0000000000000000e+00  -1.4697048377590036e-09 -6.4895742481119851e-10 0.0000000000000000e+00  -9.6382774897805890e-02 -4.2558421110738258e-02 0.0000000000000000e+00  7.3289681754596745e-06 3.2361520432372762e-06 0.0000000000000000e+00  -4.8111996058495561e-11 -2.1244154787063222e-11 0.0000000000000000e+00  3.5331303315862780e+04 1.5600759435511503e+04 0.0000000000000000e+00  -2.3925455126188083e-02 -1.0564435352748704e-02 0.0000000000000000e+00  -6.1745056381361194e-21 -2.7263918410426469e-21 0.0000000000000000e+00  -1.2518465233793543e+00 -5.5276071439613117e-01 0.0000000000000000e+00  2.4836351461521653e-06 1.0966647364889383e-06 0.0000000000000000e+00  2.4774864576817696e-12 1.0939497443808618e-12 0.0000000000000000e+00  1.6472724337107557e-05 7.2736351482208301e-06 0.0000000000000000e+00  -1.0214940721380213e-04 -4.5104713918298665e-05 0.0000000000000000e+00  3.7077992162717334e-10 1.6372020893512540e-10 0.0000000000000000e+00  -2.3806334368481666e-04 -1.0511836832163647e-04 0.0000000000000000e+00  5.2877110134856684e-04 2.3348220910055715e-04 0.0000000000000000e+00  1.3295998678404886e-02 5.8709319320114977e-03 0.0000000000000000e+00  -2.3124242570500602e+01 -1.0210654904112314e+01 0.0000000000000000e+00  -4.8665984764453818e-04 -2.1488771988258042e-04 0.0000000000000000e+00  1.1228417428727649e-08 4.9579784131097276e-09 0.0000000000000000e+00  3.1781215300523749e-04 1.4033195719928806e-04 0.0000000000000000e+00  -8.3351185634111133e-05 -3.6804240820593165e-05 0.0000000000000000e+00  -5.4873818401530642e-08 -2.4229880017074524e-08 0.0000000000000000e+00  2.7499726511007822e+02 1.2142677387391323e+02 0.0000000000000000e+00  2.1537835402344703e+00 9.5101668305218279e-01 0.0000000000000000e+00  -2.0454676707893610e-05 -9.0318912890976874e-06 0.0000000000000000e+00  -2.5784367236820116e-09 -1.1385249699461660e-09 0.0000000000000000e+00  -7.4448892979624407e+02 -3.2873377447522523e+02 0.0000000000000000e+00  -3.2501179133202795e-04 -1.4351100283355043e-04 0.0000000000000000e+00  3.4641885250606629e-03 1.5296342548016509e-03 0.0000000000000000e+00  -6.3599668803742052e-07 -2.8082834202719958e-07 0.0000000000000000e+00  7.0077398847890397e-12 3.0943116689428328e-12 0.0000000000000000e+00  -4.9765395986274183e-04 -2.1974223935471252e-04 0.0000000000000000e+00  -1.2604458574545064e-08 -5.5655780450098050e-09 0.0000000000000000e+00  2.4133040800791540e-15 1.0656096114390959e-15 0.0000000000000000e+00  -7.3304917643749232e-16 -3.2368247935157992e-16 0.0000000000000000e+00  -4.4315463720996118e-06 -1.9567772029343660e-06 0.0000000000000000e+00  8.6099561627953388e-10 3.8017803545266607e-10 0.0000000000000000e+00  -1.5187002332252031e-15 -6.7059165016887946e-16 0.0000000000000000e+00  -2.6329837074605808e-06 -1.1626105340776238e-06 0.0000000000000000e+00  7.1356854857186594e-12 3.1508068546168627e-12 0.0000000000000000e+00  9.6319982892721070e-04 4.2530694905536389e-04 0.0000000000000000e+00  -2.7922255500710850e+02 -1.2329247723162864e+02 0.0000000000000000e+00  -8.0579124622651512e-14 -3.5580219827262645e-14 0.0000000000000000e+00  5.4995499915621633e-08 2.4283609255764476e-08 0.0000000000000000e+00  -1.4256975978279099e-14 -6.2952575093695748e-15 0.0000000000000000e+00  3.2898944298070311e-02 1.4526735996349552e-02 0.0000000000000000e+00  -7.1499069980879290e-08 -3.1570864529463879e-08 0.0000000000000000e+00  1.3791120954878528e-04 6.0895562906252764e-05 0.0000000000000000e+00  1.7604274882491158e-05 7.7732784161137076e-06 0.0000000000000000e+00  2.8020316967640498e-09 1.2372547381309786e-09 0.0000000000000000e+00  2.3756985836870755e-03 1.0490046677317851e-03 0.0000000000000000e+00  -1.4561507236223754e-05 -6.4297252037343789e-06 0.0000000000000000e+00  -3.8735880786656520e+00 -1.7104072053972679e+00 0.0000000000000000e+00  -3.7281129451835439e-03 -1.6461717442535413e-03 0.0000000000000000e+00  5.6673535469243950e-09 2.5024556419877250e-09 0.0000000000000000e+00  3.1420102930120479e-08 1.3873744279106262e-08 0.0000000000000000e+00  -1.4918446471431212e-13 -6.5873339704357948e-14 0.0000000000000000e+00  6.0396298294250028e+02 2.6668365784880461e+02 0.0000000000000000e+00  3.9238828720971168e-03 1.7326151881079054e-03 0.0000000000000000e+00  -4.7790084584248185e-07 -2.1102012748758843e-07 0.0000000000000000e+00  -2.1568820605500991e-05 -9.5238485420675012e-06 0.0000000000000000e+00  3.9509906727718908e-11 1.7445848081746275e-11 0.0000000000000000e+00  6.3089185256475190e+01 2.7857426978268101e+01 0.0000000000000000e+00  -3.0170233695293510e-11 -1.3321856648920051e-11 0.0000000000000000e+00  6.6362008968768418e+00 2.9302562895102544e+00 0.0000000000000000e+00  1.1425470277039620e+00 5.0449883389853512e-01 0.0000000000000000e+00  -1.9290144591298363e-06 -8.5176848007745455e-07 0.0000000000000000e+00  -4.4514140449995332e-10 -1.9655498989961177e-10 0.0000000000000000e+00  -3.8617463136860034e-04 -1.7051783995112246e-04 0.0000000000000000e+00  1.4045569199108035e-08 6.2019095149466276e-09 0.0000000000000000e+00  -1.5454788092614628e-03 -6.8241589902356763e-04 0.0000000000000000e+00  3.0165998385923044e-07 1.3319986521400752e-07 0.0000000000000000e+00  -1.1428436