<?xml version="1.0"?>
<VTKFile type="UnstructuredGrid"  version="0.1"  >
<UnstructuredGrid>
<Piece  NumberOfPoints="1121" NumberOfCells="2112">
<Points>
<DataArray  type="Float64"  NumberOfComponents="3"  format="ascii">0 0 0  0.5 0 0  0.5 -0.22 0  0 -0.22 0  0.0125 0 0  0.025 0 0  0.03750000000000001 0 0  0.05 0 0  0.0625 0 0  0.07500000000000001 0 0  0.08750000000000001 0 0  0.1 0 0  0.1125 0 0  0.125 0 0  0.1375 0 0  0.15 0 0  0.1625 0 0  0.175 0 0  0.1875 0 0  0.2 0 0  0.2125 0 0  0.225 0 0  0.2375 0 0  0.25 0 0  0.2625 0 0  0.275 0 0  0.2875 0 0  0.3 0 0  0.3124999999999999 0 0  0.325 0 0  0.3375 0 0  0.35 0 0  0.3625 0 0  0.375 0 0  0.3875 0 0  0.4 0 0  0.4125 0 0  0.425 0 0  0.4375 0 0  0.45 0 0  0.4625 0 0  0.475 0 0  0.4875 0 0  0.5 -0.00916666666666667 0  0.5 -0.01833333333333334 0  0.5 -0.02750000000000001 0  0.5 -0.03666666666666668 0  0.5 -0.04583333333333335 0  0.5 -0.05500000000000002 0  0.5 -0.06416666666666669 0  0.5 -0.07333333333333336 0  0.5 -0.08250000000000002 0  0.5 -0.09166666666666669 0  0.5 -0.1008333333333334 0  0.5 -0.11 0  0.5 -0.1191666666666667 0  0.5 -0.1283333333333334 0  0.5 -0.1375 0  0.5 -0.1466666666666667 0  0.5 -0.1558333333333333 0  0.5 -0.165 0  0.5 -0.1741666666666667 0  0.5 -0.1833333333333333 0  0.5 -0.1925 0  0.5 -0.2016666666666667 0  0.5 -0.2108333333333333 0  0.4875 -0.22 0  0.475 -0.22 0  0.4625 -0.22 0  0.45 -0.22 0  0.4375 -0.22 0  0.425 -0.22 0  0.4125 -0.22 0  0.4 -0.22 0  0.3875 -0.22 0  0.375 -0.22 0  0.3625 -0.22 0  0.35 -0.22 0  0.3375 -0.22 0  0.325 -0.22 0  0.3125 -0.22 0  0.3 -0.22 0  0.2875 -0.22 0  0.275 -0.22 0  0.2625 -0.22 0  0.25 -0.22 0  0.2375 -0.22 0  0.225 -0.22 0  0.2125 -0.22 0  0.2 -0.22 0  0.1875000000000001 -0.22 0  0.175 -0.22 0  0.1625 -0.22 0  0.15 -0.22 0  0.1375 -0.22 0  0.125 -0.22 0  0.1125 -0.22 0  0.09999999999999998 -0.22 0  0.08749999999999997 -0.22 0  0.07499999999999996 -0.22 0  0.0625 -0.22 0  0.04999999999999999 -0.22 0  0.03750000000000003 -0.22 0  0.02500000000000002 -0.22 0  0.01250000000000001 -0.22 0  0 -0.2108333333333333 0  0 -0.2016666666666667 0  0 -0.1925 0  0 -0.1833333333333333 0  0 -0.1741666666666666 0  0 -0.165 0  0 -0.1558333333333333 0  0 -0.1466666666666666 0  0 -0.1375 0  0 -0.1283333333333333 0  0 -0.1191666666666666 0  0 -0.11 0  0 -0.1008333333333333 0  0 -0.09166666666666665 0  0 -0.08249999999999999 0  0 -0.07333333333333333 0  0 -0.06416666666666668 0  0 -0.05499999999999999 0  0 -0.04583333333333331 0  0 -0.03666666666666665 0  0 -0.0275 0  0 -0.01833333333333334 0  0 -0.009166666666666684 0  0.1054583333333335 -0.1054166666666667 0  0.3942676334017064 -0.1137728325038039 0  0.2847879184121186 -0.1095588156798053 0  0.1945032948335413 -0.1282408799476467 0  0.06153506715537374 -0.1512727221728088 0  0.4399056412223469 -0.06797859302281792 0  0.05788181883779472 -0.06001948808334377 0  0.4421098014386607 -0.1599837267347342 0  0.3413511741034609 -0.06957267157055583 0  0.2288650014326337 -0.07000139022125416 0  0.3374198095657364 -0.153292781564552 0  0.1625149941501948 -0.06635759941053934 0  0.1410798075665959 -0.1547982873744018 0  0.2480541718311375 -0.1584999930406966 0  0.4521112869309225 -0.1144576824167908 0  0.04769384748510372 -0.1054790589784799 0  0.2872553124970689 -0.0549183148201307 0  0.3883603170589741 -0.1667590078701163 0  0.1113816725357426 -0.05349980002187416 0  0.388663619148569 -0.05083099728992514 0  0.2924675002385118 -0.1733355444551434 0  0.03957129721715399 -0.1820306497250263 0  0.463886478278041 -0.04123097885421483 0  0.1819898664669143 -0.1745112248447572 0  0.1501955722423063 -0.1126410264576243 0  0.2381168692527681 -0.1138631020717532 0  0.09896708868237117 -0.1743617443889283 0  0.351521105495953 -0.110482033201648 0  0.1944214316144394 -0.04364751139729321 0  0.4676096572335854 -0.17875 0  0.0323903427664145 -0.04125 0  0.03139627442974444 -0.07791666666666666 0  0.4686037255702555 -0.1420833333333333 0  0.03146427625974824 -0.1353922207127977 0  0.4687538427589449 -0.08499498352404596 0  0.1945393885069078 -0.08884182758867265 0  0.2525813348104176 -0.03744007417230172 0  0.3217010222371471 -0.03764154129720884 0  0.4222469886470394 -0.03586904090069724 0  0.09663319060065351 -0.1401271138728219 0  0.2193792666828137 -0.183158231426584 0  0.3560154827479793 -0.1838943099753877 0  0.1434582748922029 -0.03603411582704523 0  0.3765333185963097 -0.08241017292348579 0  0.07538111331820632 -0.08899587837746269 0  0.423855991190923 -0.1306886077643884 0  0.3185210010305527 -0.09753607818954631 0  0.3569762884570115 -0.03650734503769727 0  0.4254213410091923 -0.0987078979590463 0  0.2610082403268991 -0.0817800662321487 0  0.0828105113527246 -0.0341734786714956 0  0.4171399376253134 -0.185803221952863 0  0.3057870365127394 -0.1382026892003179 0  0.12895829204953 -0.08335230948371621 0  0.06875298785225953 -0.187362820013113 0  0.3717868049890677 -0.1386048615715364 0  0.321448533906611 -0.1855116827647124 0  0.26298072168791 -0.1839420817131204 0  0.07484000163200957 -0.1198633334100699 0  0.1547686158654376 -0.1863750548878711 0  0.216059367308573 -0.1515159536473182 0  0.2699691944498949 -0.1417527519042215 0  0.1656185503016955 -0.1403556565429203 0  0.4083071195762781 -0.07378364169239227 0  0.1267131755037155 -0.1278660972450704 0  0.4735015828166597 -0.0640900788079139 0  0.02554956908977171 -0.1556408100003981 0  0.4768150825846236 -0.1145833333333333 0  0.02318491741537634 -0.1054166666666667 0  0.223953700752457 -0.0304451531933032 0  0.1244872804067221 -0.1907232817427361 0  0.4438735214118281 -0.1930008132865749 0  0.05574102313663398 -0.02865323925202035 0  0.4137204188713657 -0.1553454939163003 0  0.08893893095617791 -0.06579816339826482 0  0.1717694871603352 -0.02800139159048265 0  0.3128492556460914 -0.06943040619515532 0  0.2797695783739821 -0.02590934499649085 0  0.02258333333333329 -0.1970833333333333 0  0.4762493762769904 -0.02160603458451191 0  0.4793770768812318 -0.1979934752448725 0  0.02062142143957255 -0.02200567641944876 0  0.1164030865048185 -0.02740272745133866 0  0.3830675041448486 -0.1925667518381948 0  0.4791226873505327 -0.1610342148373401 0  0.02087731264946724 -0.05896578516265992 0  0.3274724693986852 -0.1225305077389053 0  0.3972801610854721 -0.02625449066011495 0  0.2900140160514686 -0.08365001034985962 0  0.1709547781797311 -0.09465470820062212 0  0.2138438311308281 -0.1099941211103435 0  0.4450205721789285 -0.02492933314930469 0  0.05420467580227878 -0.08349945672846135 0  0.4461329107542346 -0.1367113815538408 0  0.3659666316461785 -0.05978339436610505 0  0.44602790301578 -0.09307279226297782 0  0.1051970245947556 -0.08027435556391044 0  0.05333928713341426 -0.1272409570081178 0  0.3959065276465774 -0.1392957050603055 0  0.1954280839215327 -0.1956301054107469 0  0.1114114251973984 -0.1581699686077357 0  0.1861203385256373 -0.06601416834570389 0  0.2411653975579025 -0.1955923650394697 0  0.3655092946697883 -0.1617364087021952 0  0.135090011654307 -0.05852644219278214 0  0.301466572149827 -0.195730962509487 0  0.3171403096460815 -0.1628017925003279 0  0.2583110626374412 -0.1046341192205865 0  0.4408293443687437 -0.04585722764353674 0  0.2712011044137034 -0.1640374945295207 0  0.2411933721253841 -0.08983355018053346 0  0.2501709838730871 -0.1314559421109842 0  0.4829353992284747 -0.03936718280336758 0  0.01826814268142685 -0.17875 0  0.08176459786747367 -0.1581134879103219 0  0.09090727073593149 -0.1966179220907174 0  0.1938567422944586 -0.1528508759815354 0  0.1733129361306733 -0.1172649579021292 0  0.1296640686621583 -0.1060858859555111 0  0.05006156132458137 -0.1998033571646454 0  0.162505650870633 -0.1635353305739766 0  0.30277270753554 -0.02336446206680166 0  0.04392010531002208 -0.1476919574928456 0  0.4570380569409145 -0.07105832940298668 0  0.2509935571465481 -0.06292905082461901 0  0.3948833058972995 -0.09019561948060845 0  0.4598195232581849 -0.1577532743262658 0  0.04018055885339097 -0.06224663359087233 0  0.1730418602576066 -0.1983511585214162 0  0.354008461825654 -0.08842076759065362 0  0.373211974938222 -0.1031515537153039 0  0.3385725936424656 -0.02355841481827918 0  0.05693481862827446 -0.1711111761535942 0  0.2226017506701603 -0.1306213423698554 0  0.4834446118625366 -0.09366667033152501 0  0.01655538813746335 -0.126333329668475 0  0.4825096030146118 -0.1326572162395438 0  0.01749039698538812 -0.08734278376045618 0  0.3772923679603625 -0.01999366789017346 0  0.01651090378487999 -0.1420833333333333 0  0.48348909621512 -0.07791666666666669 0  0.2083850969976113 -0.06098599897318754 0  0.3496303726904554 -0.1333395240176083 0  0.3051888980043784 -0.1167126520442686 0  0.2175622493287656 -0.08816391583608728 0  0.421331648509181 -0.05567865783938017 0  0.2036856364456695 -0.0217459550834085 0  0.3419325538888507 -0.04719577702332296 0  0.3412491916251918 -0.1996737604301947 0  0.4838834006315611 -0.1786454571355643 0  0.01611659936843887 -0.0413545428644357 0  0.172916357627664 -0.04916537131395513 0  0.4024134926805814 -0.2009331510593763 0  0.2424815730009992 -0.02045273553971888 0  0.1462759520833398 -0.1337233768065287 0  0.2346404539413744 -0.0484884977905098 0  0.09697638824467633 -0.01835062747588986 0  0.3376316573341132 -0.1736137832302001 0  0.1473441332611047 -0.09306137774954895 0  0.434705037373379 -0.114505364151485 0  0.0768089501139663 -0.1390499296181859 0  0.2037322897871967 -0.1695319781453501 0  0.2796822656650553 -0.2007669332776081 0  0.2910707535484897 -0.1516548901144321 0  0.414355300365443 -0.1140560482952263 0  0.09372496308173206 -0.1210763918452149 0  0.3897041267298961 -0.06995384811683555 0  0.4607061536274312 -0.2009522278863767 0  0.03767528917450519 -0.01920779542340162 0  0.06550910726222195 -0.1022565085744684 0  0.05021276002452402 -0.04427151993747909 0  0.4497875067624045 -0.1757266867012744 0  0.2685456651208211 -0.05149244248160013 0  0.1924991911245588 -0.1082791409797235 0  0.4653652048205058 -0.1036696603203247 0  0.03478864406010496 -0.1162949466270758 0  0.03530598512279109
[...]
<PointData  Vectors="flow"> 
<DataArray  type="Float64"  Name="flow"  NumberOfComponents="3" format="ascii">5.3896953031603148e-02 -1.4879655487880450e-04 0.0000000000000000e+00  -5.3847965891317205e-02 -1.2081369395172150e-04 0.0000000000000000e+00  -8.5701192126784995e-02 1.3255650113716854e-03 0.0000000000000000e+00  8.5446486646504255e-02 1.1279524932412757e-03 0.0000000000000000e+00  5.3309613745058756e-02 -1.8565480624111193e-04 0.0000000000000000e+00  5.2207678065380646e-02 -5.0600524274429723e-04 0.0000000000000000e+00  5.0685537790105380e-02 -5.6045411225930770e-04 0.0000000000000000e+00  4.8719238327908837e-02 -6.5704158560726009e-04 0.0000000000000000e+00  4.6576710068390377e-02 -7.1652326883994265e-04 0.0000000000000000e+00  4.3950665591374345e-02 -7.5753852887763449e-04 0.0000000000000000e+00  4.1636711279532980e-02 -1.2142762480527934e-03 0.0000000000000000e+00  3.8591748502283849e-02 -8.7546738984262888e-04 0.0000000000000000e+00  3.5829612356891742e-02 -1.6454319229895899e-03 0.0000000000000000e+00  3.3117932315670458e-02 -1.3891940720221366e-03 0.0000000000000000e+00  3.0056038347799952e-02 -1.0390990127521862e-03 0.0000000000000000e+00  2.6427565956215864e-02 -1.2030288823531639e-03 0.0000000000000000e+00  2.3831147595622590e-02 -1.5583124966121883e-03 0.0000000000000000e+00  1.9974218590163677e-02 -1.4338951092003689e-03 0.0000000000000000e+00  1.6734209685615151e-02 -1.2817997958159578e-03 0.0000000000000000e+00  1.3683384714255396e-02 -1.3579647338600260e-03 0.0000000000000000e+00  1.0092422201017770e-02 -1.4846788091077232e-03 0.0000000000000000e+00  7.0855495850763303e-03 -1.4037920735218616e-03 0.0000000000000000e+00  3.1271392936184097e-03 -1.3183530858705977e-03 0.0000000000000000e+00  2.9046299581590663e-04 -1.4238998089143621e-03 0.0000000000000000e+00  -3.8183924963432841e-03 -1.3463783310524279e-03 0.0000000000000000e+00  -6.7103580410093717e-03 -2.0951390159236745e-03 0.0000000000000000e+00  -9.9678458112765263e-03 -1.1673333577015804e-03 0.0000000000000000e+00  -1.3467468128327904e-02 -1.0480424168557291e-03 0.0000000000000000e+00  -1.7103233437049729e-02 -1.4840513137919524e-03 0.0000000000000000e+00  -1.9996136771003741e-02 -1.6730802402433113e-03 0.0000000000000000e+00  -2.3585176038390995e-02 -1.0433026395479537e-03 0.0000000000000000e+00  -2.6916785030425001e-02 -1.5026156409001551e-03 0.0000000000000000e+00  -2.9555545192769431e-02 -1.2334148379207735e-03 0.0000000000000000e+00  -3.3267392003642919e-02 -1.0104067213373615e-03 0.0000000000000000e+00  -3.5883810641661767e-02 -1.7548477002567978e-03 0.0000000000000000e+00  -3.8923311087826498e-02 -1.3865129217434796e-03 0.0000000000000000e+00  -4.1434357013105251e-02 -7.6931059172657881e-04 0.0000000000000000e+00  -4.4140048596899066e-02 -7.6725681148596004e-04 0.0000000000000000e+00  -4.6366508908886862e-02 -9.0069603661586668e-04 0.0000000000000000e+00  -4.8841861198838030e-02 -6.9089519120660206e-04 0.0000000000000000e+00  -5.0688090833434438e-02 -6.3590396036974830e-04 0.0000000000000000e+00  -5.2183111067933406e-02 -3.8079489220470828e-04 0.0000000000000000e+00  -5.3337485647383033e-02 -3.0794505408784597e-04 0.0000000000000000e+00  -5.4059284646107035e-02 9.6142058275000191e-06 0.0000000000000000e+00  -5.4725533851495096e-02 7.1799549275110809e-05 0.0000000000000000e+00  -5.5409588603822599e-02 -2.1658039757458886e-05 0.0000000000000000e+00  -5.6717577624051128e-02 9.9746650668922215e-05 0.0000000000000000e+00  -5.7750058524169763e-02 -3.1668041782452046e-05 0.0000000000000000e+00  -5.9324909932309031e-02 7.6257978764342808e-06 0.0000000000000000e+00  -6.0523160624468837e-02 -1.0470475224076074e-05 0.0000000000000000e+00  -6.2161904952720927e-02 1.9242326663512920e-04 0.0000000000000000e+00  -6.3932286370144933e-02 1.0059011654340195e-04 0.0000000000000000e+00  -6.5414734004047334e-02 -1.6175325152893569e-04 0.0000000000000000e+00  -6.6929484650240595e-02 1.6696304919465031e-04 0.0000000000000000e+00  -6.8925199069490295e-02 8.8895953085921039e-05 0.0000000000000000e+00  -7.0303007297482858e-02 -1.9995790877145031e-05 0.0000000000000000e+00  -7.1706079439299159e-02 3.9439131680492806e-04 0.0000000000000000e+00  -7.3575403973628009e-02 -7.4915354245179384e-05 0.0000000000000000e+00  -7.4732661327603409e-02 -9.3612700184601933e-05 0.0000000000000000e+00  -7.6633241861588611e-02 -1.5946612698433839e-04 0.0000000000000000e+00  -7.8449094488792143e-02 1.2950174727942103e-04 0.0000000000000000e+00  -8.0296538823620991e-02 1.4310043046455548e-04 0.0000000000000000e+00  -8.1305108645981408e-02 -6.1137667139403977e-05 0.0000000000000000e+00  -8.3330964233204005e-02 2.2399631255199735e-04 0.0000000000000000e+00  -8.4216047277910197e-02 -1.8688340913436795e-04 0.0000000000000000e+00  -8.5276937484138324e-02 2.8474008383199315e-05 0.0000000000000000e+00  -8.0130161328269264e-02 1.7809804145274791e-04 0.0000000000000000e+00  -7.4023121929838370e-02 3.5780719540488685e-04 0.0000000000000000e+00  -6.9148943083503792e-02 -2.8514506684711513e-04 0.0000000000000000e+00  -6.4243482920065612e-02 2.5231028949924413e-04 0.0000000000000000e+00  -6.0204881414117985e-02 -4.1674296379396602e-04 0.0000000000000000e+00  -5.5694801565553190e-02 -4.5564303453540079e-04 0.0000000000000000e+00  -5.1684599520042347e-02 -3.8073799141938775e-04 0.0000000000000000e+00  -4.7312511036574745e-02 -4.0331115728656934e-05 0.0000000000000000e+00  -4.3506367752776248e-02 -8.3932998088567017e-05 0.0000000000000000e+00  -3.9282564503077821e-02 -3.3946523446032019e-04 0.0000000000000000e+00  -3.5263595794187336e-02 -3.9421024012022197e-04 0.0000000000000000e+00  -3.1362238179925568e-02 -2.8190403168615449e-04 0.0000000000000000e+00  -2.7300596296408706e-02 -4.2993878840303062e-04 0.0000000000000000e+00  -2.3614779304971797e-02 -3.7727899453666576e-05 0.0000000000000000e+00  -1.9496075391708410e-02 -2.2646588448850844e-04 0.0000000000000000e+00  -1.5537991845918779e-02 -4.2871009876318264e-04 0.0000000000000000e+00  -1.1715706385553604e-02 -1.8885022741128591e-04 0.0000000000000000e+00  -7.7582872022405359e-03 -1.5689320222435127e-04 0.0000000000000000e+00  -3.9179869648764262e-03 -1.3906237889180770e-04 0.0000000000000000e+00  4.8261245141660014e-05 -8.2819380498706837e-05 0.0000000000000000e+00  3.8799839719752443e-03 -4.8149672191762842e-04 0.0000000000000000e+00  7.7970645593071312e-03 -2.3093688915796657e-04 0.0000000000000000e+00  1.1774666168780944e-02 -1.9292180213403983e-04 0.0000000000000000e+00  1.5438504449348573e-02 -2.8440152088831733e-04 0.0000000000000000e+00  1.9462224615994360e-02 -5.9002957025539428e-04 0.0000000000000000e+00  2.3671878360333569e-02 -1.1886763888253962e-04 0.0000000000000000e+00  2.7343293387895894e-02 -2.4263161243258489e-04 0.0000000000000000e+00  3.1501827271753859e-02 1.4190047180885526e-04 0.0000000000000000e+00  3.5051868877328099e-02 -5.8360273947295109e-04 0.0000000000000000e+00  3.9388861114290054e-02 -4.2805595308181594e-04 0.0000000000000000e+00  4.3337424971652029e-02 -1.3584031782120485e-04 0.0000000000000000e+00  4.7615070299643188e-02 -4.2943119537509959e-04 0.0000000000000000e+00  5.1569485171896474e-02 1.2854468626846005e-04 0.0000000000000000e+00  5.5368283555094079e-02 -4.5802702120911379e-04 0.0000000000000000e+00  6.0249066245028474e-02 -3.7359826620177725e-04 0.0000000000000000e+00  6.4595940237531832e-02 -3.9472122392327871e-05 0.0000000000000000e+00  6.9096665612693106e-02 1.3446759501561551e-04 0.0000000000000000e+00  7.4163309935588853e-02 3.5332267578065419e-04 0.0000000000000000e+00  8.0315814909203531e-02 3.1309055831807415e-04 0.0000000000000000e+00  8.5117104605827248e-02 -8.7944415174491536e-07 0.0000000000000000e+00  8.4140964621213093e-02 -9.4466220551560210e-05 0.0000000000000000e+00  8.3063616879142696e-02 1.7045507674643903e-04 0.0000000000000000e+00  8.1304100275507524e-02 -1.0405141159211424e-04 0.0000000000000000e+00  8.0157869317514771e-02 8.3405075445460865e-05 0.0000000000000000e+00  7.8376635869672653e-02 -9.3636306641784578e-05 0.0000000000000000e+00  7.7091758129646137e-02 2.0000231904548552e-04 0.0000000000000000e+00  7.5328604078419001e-02 9.9227274938739558e-05 0.0000000000000000e+00  7.3505238653470265e-02 -2.0564103266686743e-04 0.0000000000000000e+00  7.2039694994755724e-02 -3.0691164059454502e-06 0.0000000000000000e+00  7.0348503730422951e-02 3.8040600013038937e-04 0.0000000000000000e+00  6.8681260384846329e-02 -4.7375145293897234e-05 0.0000000000000000e+00  6.7265471286006254e-02 1.2393768709863134e-04 0.0000000000000000e+00  6.5537475279547175e-02 1.9500584498135373e-04 0.0000000000000000e+00  6.3889588284477994e-02 -2.0995192358091077e-04 0.0000000000000000e+00  6.2403411269090686e-02 2.1691686559840084e-04 0.0000000000000000e+00  6.0426260383914208e-02 -1.2729456975934744e-04 0.0000000000000000e+00  5.9094907392120873e-02 1.3444213047721760e-04 0.0000000000000000e+00  5.7743840382587876e-02 -6.5024907703092370e-05 0.0000000000000000e+00  5.6741592366118331e-02 9.0960175013176392e-05 0.0000000000000000e+00  5.5425145993469170e-02 -4.5595477922309508e-05 0.0000000000000000e+00  5.4819185971138294e-02 6.9500716181163590e-05 0.0000000000000000e+00  5.4025703057292970e-02 3.6442589619420346e-05 0.0000000000000000e+00  4.2015311510148763e-02 -1.1946337628808409e-02 0.0000000000000000e+00  -4.2400036497376281e-02 -1.1972066337454432e-02 0.0000000000000000e+00  -1.0114105742173944e-02 -1.5202294688510016e-02 0.0000000000000000e+00  1.6754119852641743e-02 -1.4224748562318926e-02 0.0000000000000000e+00  5.7997405264020412e-02 -7.5415036130111321e-03 0.0000000000000000e+00  -5.0519208886373436e-02 -7.6560428412102916e-03 0.0000000000000000e+00  5.0527959870940650e-02 -7.0245756089973802e-03 0.0000000000000000e+00  -5.9943341198432074e-02 -6.6473377622878879e-03 0.0000000000000000e+00  -2.5624525976801541e-02 -1.3293827328247878e-02 0.0000000000000000e+00  5.6509180195445591e-03 -1.4451795948515036e-02 0.0000000000000000e+00  -2.6707064299683489e-02 -1.1182583375882686e-02 0.0000000000000000e+00  2.4368896634051129e-02 -1.3041656345713666e-02 0.0000000000000000e+00  3.3433142433778179e-02 -1.0462726239328576e-02 0.0000000000000000e+00  3.3567336888513260e-04 -1.1263745174400989e-02 0.0000000000000000e+00  -5.8359976967780176e-02 -7.1797860591352666e-03 0.0000000000000000e+00  5.7349353462371980e-02 -7.2247483898323804e-03 0.0000000000000000e+00  -1.0859778109173466e-02 -1.2735044914538600e-02 0.0000000000000000e+00  -4.2665737675726637e-02 -8.6110025061248482e-03 0.0000000000000000e+00  3.7493838073345186e-02 -9.6015845173768235e-03 0.0000000000000000e+00  -3.7613690309227399e-02 -9.7035376521495409e-03 0.0000000000000000e+00  -1.3334608593700021e-02 -8.6779376468496816e-03 0.0000000000000000e+00  6.7409992269152466e-02 -4.0752632390472950e-03 0.0000000000000000e+00  -5.2759593728940860e-02 -3.7755181321610185e-03 0.0000000000000000e+00  2.1075367260817553e-02 -8.3338016419197743e-03 0.0000000000000000e+00  2.9886901715810182e-02 -1.3977123456515942e-02 0.0000000000000000e+00  3.7776827809194854e-03 -1.5458095402442251e-02 0.0000000000000000e+00  4.7151019100784487e-02 -7.0295540716898515e-03 0.0000000000000000e+00  -2.9780478489297012e-02 -1.3991151452785937e-02 0.0000000000000000e+00  1.5364166101198616e-02 -1.0958221297696673e-02 0.0000000000000000e+00  -6.9535560644057845e-02 -3.8107253793466761e-03 0.0000000000000000e+00  5.3368177242191214e-02 -3.6198606727864311e-03 0.0000000000000000e+00  5.7568462983938556e-02 -4.6418923105946532e-03 0.0000000000000000e+00  -6.6834475195617041e-02 -4.5825444716013691e-03 0.0000000000000000e+00  6.5369254657694054e-02 -4.8093949534662988e-03 0.0000000000000000e+00  -5.8588788895923782e-02 -4.8923337892901432e-03 0.0000000000000000e+00  1.6133126649616879e-02 -1.5079050731280696e-02 0.0000000000000000e+00  -6.2317006885570492e-04 -1.0275389449444245e-02 0.0000000000000000e+00  -1.9368483816885933e-02 -9.5456426965364934e-03 0.0000000000000000e+00  -4.4530953305683893e-02 -6.2611321129044948e-03 0.0000000000000000e+00  4.6801938323653779e-02 -1.0302546333530791e-02 0.0000000000000000e+00  9.4935330335593898e-03 -7.0937797877349230e-03 0.0000000000000000e+00  -3.2993263490101551e-02 -6.4587453527167283e-03 0.0000000000000000e+00  2.9085479014124643e-02 -8.9486061278254460e-03 0.0000000000000000e+00  -3.6132344151631988e-02 -1.2646536779376705e-02 0.0000000000000000e+00  4.8964595018271530e-02 -9.8141491655876264e-03 0.0000000000000000e+00  -5.2178240406776752e-02 -9.4051000752810535e-03 0.0000000000000000e+00  -2.0047400310064852e-02 -1.4893885550432823e-02 0.0000000000000000e+00  -2.8933757264034070e-02 -8.8709269203806427e-03 0.0000000000000000e+00  -4.9745130936727638e-02 -9.9074173416725028e-03 0.0000000000000000e+00  -3.4194120413962754e-03 -1.5407783826428172e-02 0.0000000000000000e+00  4.3311503899589605e-02 -6.3475995313889604e-03 0.0000000000000000e+00  -5.2737292117446086e-02 -5.0983046230029718e-03 0.0000000000000000e+00  -1.6660873050014124e-02 -1.3282261463292762e-02 0.0000000000000000e+00  3.4595804662823922e-02 -1.3002306754176591e-02 0.0000000000000000e+00  5.7373016335976169e-02 -4.4467384079689681e-03 0.0000000000000000e+00  -3.6895054616497898e-02 -1.1841268374904309e-02 0.0000000000000000e+00  -2.1961779620610630e-02 -6.6637444982568230e-03 0.0000000000000000e+00  -4.0039360176591455e-03 -7.0071763303746898e-03 0.0000000000000000e+00  5.1703094469182087e-02 -9.7276958956088941e-03 0.0000000000000000e+00  2.9267557056198788e-02 -6.4287883487609797e-03 0.0000000000000000e+00  1.0655435593850904e-02 -1.1974452633749440e-02 0.0000000000000000e+00  -6.1604229218661325e-03 -1.3232225591672041e-02 0.0000000000000000e+00  2.6019521784649311e-02 -1.2608543349664438e-02 0.0000000000000000e+00  -4.3465512910666887e-02 -1.0458631399553529e-02 0.0000000000000000e+00  3.7044404481464767e-02 -1.2544017786012203e-02 0.0000000000000000e+00  -5.6789608728374734e-02 -3.9356380663955210e-03 0.0000000000000000e+00  6.9807834326690424e-02 -3.7492198994954484e-03 0.0000000000000000e+00  -6.4913867247763796e-02 -3.7615974347959750e-03 0.0000000000000000e+00  6.3497839600883094e-02 -3.7480105481772518e-03 0.0000000000000000e+00  6.6469439661051401e-03 -8.0534267777918247e-03 0.0000000000000000e+00  3.9325175476461798e-02 -5.0720967939065229e-03 0.0000000000000000e+00  -6.1693937191477997e-02 -3.6998783798531457e-03 0.0000000000000000e+00  4.8389764391391039e-02 -4.2006896793105744e-03 0.0000000000000000e+00  -5.0466576298825998e-02 -8.4689573354044083e-03 0.0000000000000000e+00  4.3801872411861335e-02 -9.8967908124147509e-03 0.0000000000000000e+00  2.1287198003171207e-02 -7.2691518436793631e-03 0.0000000000000000e+00  -1.7530297079547359e-02 -1.4173461676548173e-02 0.0000000000000000e+00  -8.4531239315505918e-03 -7.3427111301495717e-03 0.0000000000000000e+00  7.4563251691228308e-02 -2.3855435003842531e-03 0.0000000000000000e+00  -5.2991556256381793e-02 -1.7399668046303722e-03 0.0000000000000000e+00  -7.5911999640790373e-02 -2.0847138185208680e-03 0.0000000000000000e+00  5.3486289671779458e-02 -1.5627467907995494e-03 0.0000000000000000e+00  3.5333687061451617e-02 -6.6314111226297868e-03 0.0000000000000000e+00  -4.1690409099515838e-02 -4.8622125908622032e-03 0.0000000000000000e+00  -7.2101076774060399e-02 -3.0995089599731942e-03 0.0000000000000000e+00  5.7045558289299844e-02 -3.0916726360381182e-03 0.0000000000000000e+00  -2.3159687108887998e-02 -1.4085647050690257e-02 0.0000000000000000e+00  -3.8613725899391348e-02 -5.7973424431702033e-03 0.0000000000000000e+00  -1.1366209319193315e-02 -1.5343710752122257e-02 0.0000000000000000e+00  2.2743269338555219e-02 -1.4656407842483378e-02 0.0000000000000000e+00  1.0707100248809661e-02 -1.5366459832562886e-02 0.0000000000000000e+00  -4.8612292755987552e-02 -3.6430265119601658e-03 0.0000000000000000e+00  5.3581470621856697e-02 -7.7414701983430333e-03 0.0000000000000000e+00  -5.9330492860359178e-02 -7.2188011511646975e-03 0.0000000000000000e+00  -3.2224645819551895e-02 -1.1491467709990322e-02 0.0000000000000000e+00  -5.4450977975731507e-02 -7.9515607925853115e-03 0.0000000000000000e+00  4.0165001224935284e-02 -1.1840549280317374e-02 0.0000000000000000e+00  5.8504137483736625e-02 -7.5875406338504507e-03 0.0000000000000000e+00  -4.4168045857309983e-02 -1.0559551099505493e-02 0.0000000000000000e+00  1.6726448652395972e-02 -4.8421404232778060e-03 0.0000000000000000e+00  4.2668251176925610e-02 -9.2568410297249794e-03 0.0000000000000000e+00  1.8168872374063099e-02 -1.3668790006572853e-02 0.0000000000000000e+00  3.0353210140089074e-03 -4.8952830127039562e-03 0.0000000000000000e+00  -3.5639140005183888e-02 -9.5795696068502988e-03 0.0000000000000000e+00  3.1758934611299014e-02 -1.1624316075555313e-02 0.0000000000000000e+00  -1.6065130650537506e-02 -4.6875802545347190e-03 0.0000000000000000e+00  -2.0744311017841393e-02 -1.0294333610698030e-02 0.0000000000000000e+00  -2.5959181973565829e-03 -1.5403419436987116e-02 0.0000000000000000e+00  -4.9070304535273779e-02 -6.1968943571345369e-03 0.0000000000000000e+00  -6.7206186814665328e-03 -1.0418381736920291e-02 0.0000000000000000e+00  2.3866549783559086e-03 -1.5623209785493194e-02 0.0000000000000000e+00  4.9059807649337921e-09 -1.4392447158771882e-02 0.0000000000000000e+00  -5.5266395931406212e-02 -2.0524363811791390e-03 0.0000000000000000e+00  7.5064080758993332e-02 -2.5181937931730773e-03 0.0000000000000000e+00  5.1952692723043280e-02 -8.1065908891247342e-03 0.0000000000000000e+00  5.0142057944877472e-02 -3.9073598312204414e-03 0.0000000000000000e+00  1.7389793933044753e-02 -1.1484155723672809e-02 0.0000000000000000e+00  2.2836283551231407e-02 -1.4418624119463456e-02 0.0000000000000000e+00  3.5391793850793163e-02 -1.3293937352235030e-02 0.0000000000000000e+00  6.4139980195101517e-02 -2.5952039453715865e-03 0.0000000000000000e+00  2.6877363988384965e-02 -9.7695188219813264e-03 0.0000000000000000e+00  -1.4302035676668127e-02 -6.7576727374458242e-03 0.0000000000000000e+00  6.3368851037930829e-02 -5.8672295704305395e-03 0.0000000000000000e+00  -5.4572215142047777e-02 -5.7991910908509504e-03 0.0000000000000000e+00  -4.0715554600553600e-04 -1.3754916297040129e-02 0.0000000000000000e+00  -4.1207829842872433e-02 -1.1844901501635682e-02 0.0000000000000000e+00  -6.5719112423520756e-02 -5.0603721895544612e-03 0.0000000000000000e+00  5.4073374257209844e-02 -5.5572220135084180e-03 0.0000000000000000e+00  2.3805067968373266e-02 -4.1447735276480139e-03 0.0000000000000000e+00  -2.9907225809083712e-02 -1.3945450520146636e-02 0.0000000000000000e+00  -3.6035267562290960e-02 -1.3112986874132626e-02 0.0000000000000000e+00  -2.3890726939455459e-02 -6.8892447941040144e-03 0.0000000000000000e+00  6.0799006243509666e-02 -5.7554472735020972e-03 0.0000000000000000e+00  8.2617301216558556e-03 -1.4340777141051692e-02 0.0000000000000000e+00  -6.2994210166290046e-02 -2.6988539476628399e-03 0.0000000000000000e+00  6.8040494746881036e-02 -2.7419381662355585e-03 0.0000000000000000e+00  -6.8785781041349844e-02 -2.8399733757004646e-03 0.0000000000000000e+00  6.1806680943058960e-02 -2.9084728145735541e-03 0.0000000000000000e+00  -3.3695514660687431e-02 -5.1665522328244850e-03 0.0000000000000000e+00  7.0769993503052686e-02 -2.6308379462742452e-03 0.0000000000000000e+00  -6.0648242968062975e-02 -2.5750752983703840e-03 0.0000000000000000e+00  1.1698205293460450e-02 -1.3643776996436067e-02 0.0000000000000000e+00  -2.9798328548109522e-02 -1.2775724526239223e-02 0.0000000000000000e+00  -1.6275636167925111e-02 -1.4755682183995178e-02 0.0000000000000000e+00  9.3066487365152367e-03 -1.5433737566906259e-02 0.0000000000000000e+00  -4.5487581008942006e-02 -8.4417469091070309e-03 0.0000000000000000e+00  1.3124259575050241e-02 -6.6682779513858089e-03 0.0000000000000000e+00  -2.5291159770017824e-02 -1.0778360641831297e-02 0.0000000000000000e+00  -2.8579663325615828e-02 -3.8574821396736912e-03 0.0000000000000000e+00  -7.5760623957092196e-02 -2.2028775102677541e-03 0.0000000000000000e+00  5.5658398582516963e-02 -1.9516781697689212e-03 0.0