<?xml version="1.0"?>
<VTKFile type="UnstructuredGrid"  version="0.1"  >
<UnstructuredGrid>
<Piece  NumberOfPoints="1855" NumberOfCells="3532">
<Points>
<DataArray  type="Float64"  NumberOfComponents="3"  format="ascii">0 0 0  30 0 0  30 -10 0  0 -10 0  0.1391574078963744 0 0  0.2856388821882616 0 0  0.4398299073010886 0 0  0.6021362569539473 0 0  0.7729850389704483 0 0  0.9528258543586996 0 0  1.142131984380316 0 0  1.34140159760994 0 0  1.551159074717981 0 0  1.771956417032531 0 0  2.004374674080994 0 0  2.249025475789527 0 0  2.506552636773105 0 0  2.777633857742732 0 0  3.062982518028728 0 0  3.363349525995907 0 0  3.679525322337712 0 0  4.01234195575742 0 0  4.362675247811097 0 0  4.731447135329707 0 0  5.119628065610077 0 0  5.528239565804708 0 0  5.958356943167011 0 0  6.411112081475485 0 0  6.887696441559404 0 0  7.389364184530748 0 0  7.917435485335147 0 0  8.473300005202017 0 0  9.058420557070402 0 0  9.674336929103793 0 0  10.32266995225095 0 0  11.00512576896296 0 0  11.72350030646412 0 0  12.47968402994705 0 0  13.27566689579597 0 0  14.1135435963616 0 0  14.9955190732806 0 0  15.92391430904694 0 0  16.90117245730496 0 0  17.92986524844506 0 0  19.01269976086341 0 0  20.15252556282024 0 0  21.35234220269763 0 0  22.61530708683689 0 0  23.94474379751883 0 0  25.34415086349739 0 0  26.81721093579712 0 0  28.3678004819169 0 0  30 -1.111111111111111 0  30 -2.222222222222222 0  30 -3.333333333333333 0  30 -4.444444444444445 0  30 -5.555555555555555 0  30 -6.666666666666666 0  30 -7.777777777777777 0  30 -8.888888888888889 0  28.36780047917311 -10 0  26.8172109305839 -10 0  25.34415085606858 -10 0  23.94474378810899 -10 0  22.61530707566275 -10 0  21.3523421899591 -10 0  20.15252554870171 -10 0  19.01269974553473 -10 0  17.92986523206254 -10 0  16.90117244001232 -10 0  15.92391429097614 -10 0  14.99551905455266 -10 0  14.11354357708742 -10 0  13.27566687607703 -10 0  12.47968400987599 -10 0  11.72350028612546 -10 0  11.00512574843363 -10 0  10.32266993160086 -10 0  9.674336908396342 -10 0  9.058420536362949 -10 0  8.473299984546333 -10 0  7.917435464777824 -10 0  7.389364164113587 -10 0  6.887696420787165 -10 0  6.411112061446698 -10 0  5.95835692337857 -10 0  5.528239546282652 -10 0  5.119628046377237 -10 0  4.731447115907979 -10 0  4.362675229213632 -10 0  4.012341937260036 -10 0  3.679525304434552 -10 0  3.363349508456405 -10 0  3.062982500861274 -10 0  2.777633840953978 -10 0  2.506552620368097 -10 0  2.249025459771861 -10 0  2.004374658452946 -10 0  1.771956401795187 -10 0  1.551159059871345 -10 0  1.341401583153029 -10 0  1.142131970307521 -10 0  0.9528258406748833 -10 0  0.7729850256685147 -10 0  0.6021362439621285 -10 0  0.4398298947504031 -10 0  0.2856388700059078 -10 0  0.1391573960769001 -10 0  0 -9.855072463768115 0  0 -9.710144927536232 0  0 -9.565217391304348 0  0 -9.420289855072463 0  0 -9.27536231884058 0  0 -9.130434782608695 0  0 -8.985507246376812 0  0 -8.840579710144928 0  0 -8.695652173913043 0  0 -8.55072463768116 0  0 -8.405797101449275 0  0 -8.260869565217391 0  0 -8.115942028985508 0  0 -7.971014492753623 0  0 -7.826086956521739 0  0 -7.681159420289855 0  0 -7.536231884057971 0  0 -7.391304347826087 0  0 -7.246376811594203 0  0 -7.101449275362318 0  0 -6.956521739130435 0  0 -6.811594202898551 0  0 -6.666666666666667 0  0 -6.521739130434783 0  0 -6.376811594202898 0  0 -6.231884057971015 0  0 -6.086956521739131 0  0 -5.942028985507246 0  0 -5.797101449275362 0  0 -5.652173913043478 0  0 -5.507246376811594 0  0 -5.36231884057971 0  0 -5.217391304347826 0  0 -5.072463768115941 0  0 -4.927536231884058 0  0 -4.782608695652174 0  0 -4.637681159420289 0  0 -4.492753623188406 0  0 -4.347826086956522 0  0 -4.202898550724638 0  0 -4.057971014492754 0  0 -3.913043478260869 0  0 -3.768115942028985 0  0 -3.623188405797101 0  0 -3.478260869565217 0  0 -3.333333333333334 0  0 -3.188405797101449 0  0 -3.043478260869565 0  0 -2.898550724637681 0  0 -2.753623188405797 0  0 -2.608695652173912 0  0 -2.463768115942029 0  0 -2.318840579710145 0  0 -2.173913043478261 0  0 -2.028985507246377 0  0 -1.884057971014492 0  0 -1.739130434782609 0  0 -1.594202898550725 0  0 -1.44927536231884 0  0 -1.304347826086957 0  0 -1.159420289855072 0  0 -1.014492753623188 0  0 -0.8695652173913047 0  0 -0.72463768115942 0  0 -0.579710144927537 0  0 -0.4347826086956523 0  0 -0.2898550724637676 0  0 -0.1449275362318829 0  5.15859856094262 -4.976557621770688 0  2.816777084926057 -7.160262673925935 0  2.81677708460006 -2.839737326002783 0  2.227649803257325 -5.003121586636773 0  1.518662968975629 -8.46230852045241 0  1.518662969184829 -1.537691480152612 0  9.960740911025725 -5.055901393541221 0  1.491099662214591 -3.691833922963321 0  1.503675657181264 -6.345020369042368 0  5.319208041801049 -7.493850249937013 0  5.291109955459268 -2.489368743223226 0  1.096914507335763 -2.53623188405797 0  1.096914507253562 -7.463768115942029 0  1.089580194952752 -4.71277167923441 0  15.07565076110197 -5.047572991082069 0  7.501630508673601 -5.937500100385354 0  0.8894869418764504 -5.623930488933245 0  2.955144522453978 -1.440834296472408 0  2.955144521140721 -8.559165705576945 0  8.106603955004623 -2.748811534843258 0  3.662152539483591 -4.228178367024407 0  3.662181528265114 -5.771746159989156 0  0.8436558190317136 -0.8541050638451999 0  0.8436558075840921 -9.145894948342754 0  0.7854168197005933 -1.811594202898552 0  0.7894693398152999 -3.286543351392342 0  0.7854168196772591 -8.188405797101449 0  0.7854168196772591 -6.739130434782609 0  20.00078956016804 -4.999999999785771 0  0.7379120031523989 -3.977302749614766 0  6.584332478112232 -3.934875417052907 0  7.295091310194352 -7.969791332537982 0  9.811174303464586 -7.412814499648229 0  4.013376806449688 -2.206189431585293 0  4.013376806983409 -7.793810569017377 0  12.11177433894592 -2.818343737884045 0  2.591152707837148 -3.990098461753838 0  2.58990939378082 -6.025895074707176 0  25.43156400064585 -5.044446479916348 0  2.03262751726143 -2.282125834846944 0  2.032627517335952 -7.717874165160392 0  12.51865094522923 -6.491408052923457 0  0.598175343983641 -6.156971652625402 0  2.126700074935224 -0.8767654465386991 0  2.126700059112423 -9.123234559633019 0  6.617961838548696 -1.617756429129908 0  0.5903949564549755 -4.980060355019413 0  1.676697585305984 -5.547101897225158 0  4.773518305133987 -3.729331162566817 0  4.77931803486508 -6.231222307502165 0  4.878549698409591 -8.72048903376362 0  4.852580875634024 -1.222215410052823 0  0.5487847095754042 -2.675169258708207 0  0.545113423825768 -7.32369553390529 0  1.78738026998851 -4.400451872599477 0  1.68244194111824 -3.010100184333533 0  1.683984276238402 -7.018293626028473 0  9.998503440677371 -2.00585287985007 0  3.693061162502273 -3.243678395563028 0  3.694987482168253 -6.757603268814477 0  6.081763036485869 -5.83414381546261 0  0.5196640460586313 -1.350633211792632 0  0.5196640458460706 -8.649366789040087 0  3.84593363904758 -0.9906418103762418 0  3.845933620847308 -9.009358200471317 0  17.41551885287501 -3.057748733689079 0  17.30725517812527 -7.002961443761516 0  8.117698464370697 -4.451550942597151 0  0.4918476668493152 -0.4789811193757592 0  0.4918476560347713 -9.521018882514893 0  1.463770869328428 -0.6252343353791154 0  1.463770854281917 -9.374765668872765 0  0.5034132782032188 -4.464280853772128 0  3.138906271796685 -4.99999841599503 0  14.61209972381335 -2.388610981020637 0  6.208601124947327 -8.776231214192325 0  14.74910972998159 -7.542186851303819 0  2.243794246335625 -1.632184311040998 0  2.243794245689214 -8.367815689183566 0  0.4590235278399923 -5.431413993025926 0  0.4971508861448406 -2.209632053221267 0  0.4971508861368665 -7.790367946777407 0  0.4644363683211541 -3.560571347760519 0  6.478811279411406 -7.007392971062433 0  1.238895267772762 -4.173677632458826 0  1.293241773632479 -2.02256720952064 0  1.293241773542714 -7.977432790434841 0  0.4324740478030531 -0.942028985507247 0  0.4324740423701829 -9.057971014492754 0  2.117396640811705 -3.472968170680347 0  2.107095929630507 -6.531506384346077 0  8.087741545730886 -1.392783601483453 0  1.028911946384717 -1.352376108341404 0  1.028911946221715 -8.647623891551962 0  4.05691976296832 -4.991522392209158 0  11.51826881314265 -8.065248940008736 0  1.618560396201739 -4.958056164503666 0  2.701984523487646 -2.141781914603403 0  2.70198452396172 -7.858218085853512 0  2.843615645746219 -9.289121726447632 0  2.843615661334342 -0.7108782798429658 0  8.678774612240533 -8.488146490452822 0  6.487906449371135 -2.667543558824978 0  8.369190916679937 -7.129867754908394 0  11.80978191929258 -4.655775487536958 0  0.3792065166453504 -3.113833531412848 0  0.4134714637263563 -6.58827691137208 0  9.551050695080825 -3.49648183875815 0  1.083867845277057 -6.036251777836495 0  0.3756430921870901 -1.80381664325008 0  0.3756430921689482 -8.196183356748573 0  3.113073783220456 -3.503408140759125 0  3.113391383189963 -6.496678880796299 0  22.62850736315072 -3.277987336300344 0  22.59385352108348 -6.800312122582239 0  0.3777114402537816 -4.137047872695438 0  0.9196816123347897 -0.4281025456111269 0  0.9196815944880363 -9.571897460530383 0  0.4052043328723194 -5.827814332459883 0  8.865857694874787 -5.767686953139113 0  1.200388325130726 -5.182186034620629 0  5.65297436943758 -4.325500846767599 0  1.200079167961391 -3.009849046583253 0  1.20883344838 -7.021823297793294 0  1.057642414577487 -3.660996704809145 0  10.88812987788297 -6.333458225047037 0  4.493502926606794 -2.839780197438185 0  4.485862892033458 -7.147606077919463 0  0.3631651408878085 -7.003529808558233 0  1.946748828463205 -6.049056369468467 0  6.918750162798794 -4.993796052442676 0  3.351203216022585 -1.980935554775394 0  3.351203216441711 -8.019064445907297 0  2.281892243515294 -2.856654416292082 0  2.281892243715877 -7.143345583598931 0  5.811143619672087 -0.9953286820321026 0  2.695713766833098 -4.565354125099452 0  2.698172168139827 -5.435483248292925 0  19.86166219288896 -2.493475492328429 0  19.83739102036415 -7.594404063416508
[...]
<PointData  Vectors="flow"> 
<DataArray  type="Float64"  Name="flow"  NumberOfComponents="3" format="ascii">-4.5259119889006900e-14 -2.0962543090148758e-14 0.0000000000000000e+00  -3.3994699821128649e-24 -1.5745232377136186e-24 0.0000000000000000e+00  -1.2918744939854581e-24 -5.9835398508957821e-25 0.0000000000000000e+00  8.2904299169872596e-20 3.8398558079985020e-20 0.0000000000000000e+00  2.0799886701169209e-13 9.6338267803872397e-14 0.0000000000000000e+00  -1.0357795002578247e-12 -4.7973916548300408e-13 0.0000000000000000e+00  1.8019055252088792e-12 8.3458366643455088e-13 0.0000000000000000e+00  -1.0723649979864443e-11 -4.9668437065914376e-12 0.0000000000000000e+00  1.1001250363054339e-11 5.0954191187676158e-12 0.0000000000000000e+00  9.3972963379621718e-11 4.3525201086218359e-11 0.0000000000000000e+00  1.4962626324963406e-10 6.9301988162395632e-11 0.0000000000000000e+00  -7.4494866699187919e-10 -3.4503584183834678e-10 0.0000000000000000e+00  -2.6203155938824796e-09 -1.2136444252839282e-09 0.0000000000000000e+00  -3.4827858989380284e-09 -1.6131124436201042e-09 0.0000000000000000e+00  -1.1205366296879598e-08 -5.1899589390003505e-09 0.0000000000000000e+00  -2.6250777064939513e-09 -1.2158500799909284e-09 0.0000000000000000e+00  1.1957832864933542e-07 5.5384768265644357e-08 0.0000000000000000e+00  -2.3302555702830775e-07 -1.0792981154497215e-07 0.0000000000000000e+00  -4.4554917071658286e-07 -2.0636379392333235e-07 0.0000000000000000e+00  -4.3135211146533893e-07 -1.9978818072012722e-07 0.0000000000000000e+00  -1.0320202696700650e-07 -4.7799801290701745e-08 0.0000000000000000e+00  3.6054053190217304e-07 1.6699057459091621e-07 0.0000000000000000e+00  -4.0383484726737986e-07 -1.8704308452984886e-07 0.0000000000000000e+00  -1.3092312207230734e-07 -6.0639305286274067e-08 0.0000000000000000e+00  2.1280189879878471e-07 9.8562874933821214e-08 0.0000000000000000e+00  1.8551994502230880e-07 8.5926766829524059e-08 0.0000000000000000e+00  3.1430909700938054e-07 1.4557768701298198e-07 0.0000000000000000e+00  1.3380305863047862e-07 6.1973197645329900e-08 0.0000000000000000e+00  -9.4079459164520138e-08 -4.3574526448384626e-08 0.0000000000000000e+00  -5.0157891378609018e-09 -2.3231493716926598e-09 0.0000000000000000e+00  -1.1371153230520902e-09 -5.2667460207810302e-10 0.0000000000000000e+00  -3.2173087837008959e-10 -1.4901521323888042e-10 0.0000000000000000e+00  2.1450702583025886e-10 9.9352633969328460e-11 0.0000000000000000e+00  1.4762351230210804e-11 6.8374379469621017e-12 0.0000000000000000e+00  3.3254490613047890e-12 1.5402391697552305e-12 0.0000000000000000e+00  -1.0119493129772824e-12 -4.6870180265006044e-13 0.0000000000000000e+00  3.0426778961309907e-13 1.4092688205936872e-13 0.0000000000000000e+00  -5.8060946238766399e-14 -2.6891930076629171e-14 0.0000000000000000e+00  1.0870521350575554e-14 5.0348697186922238e-15 0.0000000000000000e+00  1.1246096576144649e-15 5.2088238713335408e-16 0.0000000000000000e+00  -4.0088465431700765e-16 -1.8567665170927911e-16 0.0000000000000000e+00  2.3472544624572502e-16 1.0871714459643153e-16 0.0000000000000000e+00  -5.5070224678536454e-17 -2.5506725730395596e-17 0.0000000000000000e+00  1.2225109703762549e-17 5.6622707108620462e-18 0.0000000000000000e+00  -1.1772337833896484e-18 -5.4525615990774885e-19 0.0000000000000000e+00  2.7146412058580877e-19 1.2573329616583076e-19 0.0000000000000000e+00  -3.4301719538073596e-20 -1.5887433861870480e-20 0.0000000000000000e+00  5.7688829090482218e-21 2.6719577592210070e-21 0.0000000000000000e+00  1.0254958289206210e-22 4.7497610548405225e-23 0.0000000000000000e+00  6.9165591104651079e-23 3.2035238145207898e-23 0.0000000000000000e+00  -6.9947894321750795e-23 -3.2397575392114908e-23 0.0000000000000000e+00  1.6271926749156163e-23 7.5366239218845288e-24 0.0000000000000000e+00  1.5394037300819032e-24 7.1300142610187226e-25 0.0000000000000000e+00  -1.3538688278885708e-25 -6.2706773160024635e-26 0.0000000000000000e+00  4.2131013951029902e-25 1.9513706796464617e-25 0.0000000000000000e+00  -5.4813369925282021e-25 -2.5387759015041649e-25 0.0000000000000000e+00  -1.3667226251999105e-25 -6.3302118983522600e-26 0.0000000000000000e+00  4.2859173483852951e-25 1.9850966460831466e-25 0.0000000000000000e+00  -4.8361973848487022e-26 -2.2399683493840953e-26 0.0000000000000000e+00  6.3714383324009550e-25 2.9510417108579596e-25 0.0000000000000000e+00  6.3575321669730091e-24 2.9446008301533203e-24 0.0000000000000000e+00  -2.6275563875645838e-23 -1.2169981239404685e-23 0.0000000000000000e+00  4.7575683142018648e-23 2.2035499372361126e-23 0.0000000000000000e+00  5.0807685316613153e-22 2.3532457002525929e-22 0.0000000000000000e+00  -6.5975457495802634e-21 -3.0557672664420574e-21 0.0000000000000000e+00  3.5337503946957241e-20 1.6367175300868333e-20 0.0000000000000000e+00  -1.8708777911413266e-19 -8.6652936268714755e-20 0.0000000000000000e+00  4.2945279153979774e-19 1.9890847789164138e-19 0.0000000000000000e+00  -4.2190180134866196e-18 -1.9541110636424181e-18 0.0000000000000000e+00  1.0544408199618902e-17 4.8838247802144558e-18 0.0000000000000000e+00  -8.4421616694367842e-17 -3.9101329898497431e-17 0.0000000000000000e+00  2.2427631112208028e-16 1.0387744718690709e-16 0.0000000000000000e+00  -5.5530327849391028e-16 -2.5719830460858929e-16 0.0000000000000000e+00  -3.6700673098817085e-15 -1.6998550638150661e-15 0.0000000000000000e+00  8.4533999982821131e-15 3.9153382159623896e-15 0.0000000000000000e+00  -6.9849980753491933e-14 -3.2352225031816981e-14 0.0000000000000000e+00  4.3799926903548236e-13 2.0286692655815631e-13 0.0000000000000000e+00  -1.6553241890637563e-12 -7.6669198885245784e-13 0.0000000000000000e+00  -3.1823472754037580e-12 -1.4739591059673290e-12 0.0000000000000000e+00  4.1892832172977420e-12 1.9403388792094316e-12 0.0000000000000000e+00  -1.4603973979808104e-11 -6.7640827879531265e-12 0.0000000000000000e+00  1.3695306969259722e-11 6.3432179675604569e-12 0.0000000000000000e+00  2.4709781526945959e-11 1.1444762100479552e-11 0.0000000000000000e+00  -1.2194361147778333e-11 -5.6480289860702405e-12 0.0000000000000000e+00  -1.7522673167070554e-11 -8.1159287281794656e-12 0.0000000000000000e+00  1.7777504683222527e-12 8.2339583463243374e-13 0.0000000000000000e+00  1.1275198361300665e-10 5.2223028657733418e-11 0.0000000000000000e+00  3.9632568398803231e-11 1.8356508585907695e-11 0.0000000000000000e+00  9.1979054412116460e-12 4.2601687709209088e-12 0.0000000000000000e+00  3.1746769136606271e-12 1.4704064454438401e-12 0.0000000000000000e+00  -2.5307917455902817e-12 -1.1721799086953677e-12 0.0000000000000000e+00  -3.5696034136305774e-12 -1.6533234750582971e-12 0.0000000000000000e+00  3.1259646804047989e-12 1.4478445332558237e-12 0.0000000000000000e+00  1.8119176466200997e-12 8.3922095339508323e-13 0.0000000000000000e+00  8.8916897294956825e-13 4.1183396750951806e-13 0.0000000000000000e+00  -7.1197779532932993e-13 -3.2976481315637160e-13 0.0000000000000000e+00  -6.7623286676960148e-15 -3.1320893210907952e-15 0.0000000000000000e+00  5.9316023468186281e-14 2.7473240773074460e-14 0.0000000000000000e+00  2.3461178499911409e-14 1.0866450042691185e-14 0.0000000000000000e+00  4.3577684898297095e-15 2.0183757432529281e-15 0.0000000000000000e+00  1.7604067116870648e-15 8.1536277418621424e-16 0.0000000000000000e+00  -1.6352224242919829e-16 -7.5738150930160215e-17 0.0000000000000000e+00  -2.7615380313617857e-16 -1.2790540363902816e-16 0.0000000000000000e+00  -1.2869495037393478e-17 -5.9607289079287626e-18 0.0000000000000000e+00  2.1252861857010156e-17 9.8436300475822222e-18 0.0000000000000000e+00  -3.3212990584175747e-18 -1.5383170242393474e-18 0.0000000000000000e+00  2.3209598901512789e-18 1.0749926606420950e-18 0.0000000000000000e+00  -5.6898711295383132e-19 -2.6353620888529686e-19 0.0000000000000000e+00  3.2191024656442751e-19 1.4909829071612762e-19 0.0000000000000000e+00  -8.8448402952571216e-19 -4.0966405504461896e-19 0.0000000000000000e+00  6.9927376935974711e-20 3.2388072410517192e-20 0.0000000000000000e+00  -6.3925489927140172e-18 -2.9608194778043652e-18 0.0000000000000000e+00  -5.7197148695614742e-18 -2.6491847325044671e-18 0.0000000000000000e+00  -2.6500616424629033e-16 -1.2274218214564107e-16 0.0000000000000000e+00  3.2687212779612757e-16 1.5139647170998669e-16 0.0000000000000000e+00  -3.9116137996922459e-16 -1.8117314925513135e-16 0.0000000000000000e+00  -1.4213411071823970e-15 -6.5831868313346453e-16 0.0000000000000000e+00  9.6482613827018652e-15 4.4687589037503874e-15 0.0000000000000000e+00  -3.0857924309985892e-14 -1.4292380620899887e-14 0.0000000000000000e+00  -6.5337894721091408e-14 -3.0262374453356441e-14 0.0000000000000000e+00  4.7301837572846014e-14 2.1908663067150023e-14 0.0000000000000000e+00  1.8529942339757844e-13 8.5824628430190319e-14 0.0000000000000000e+00  1.3773040785292070e-13 6.3792217270709254e-14 0.0000000000000000e+00  1.1424668964453742e-12 5.2915327572734520e-13 0.0000000000000000e+00  3.3322703989459911e-13 1.5433985901015897e-13 0.0000000000000000e+00  2.1041727075722847e-13 9.7458393269183942e-14 0.0000000000000000e+00  -2.7201963547069830e-11 -1.2599059247959645e-11 0.0000000000000000e+00  -2.3900284246749617e-11 -1.1069829453554698e-11 0.0000000000000000e+00  -1.0304615448501559e-11 -4.7727606258444689e-12 0.0000000000000000e+00  -2.7976463041414814e-11 -1.2957782065887182e-11 0.0000000000000000e+00  2.2344803432020295e-11 1.0349381648015638e-11 0.0000000000000000e+00  9.6247153295465472e-11 4.4578531425450908e-11 0.0000000000000000e+00  3.3516115648487516e-10 1.5523567851492409e-10 0.0000000000000000e+00  -8.3931264186310133e-10 -3.8874214665043246e-10 0.0000000000000000e+00  -8.7562193190314303e-09 -4.0555942146496050e-09 0.0000000000000000e+00  -9.9268221217578922e-09 -4.5977791213331881e-09 0.0000000000000000e+00  1.4740565670900976e-08 6.8273475888885511e-09 0.0000000000000000e+00  4.9692861571916083e-08 2.3016107129982129e-08 0.0000000000000000e+00  -9.8395735965495671e-09 -4.5573684599302014e-09 0.0000000000000000e+00  -7.2049825897544235e-08 -3.3371121305914674e-08 0.0000000000000000e+00  -1.3407109649894922e-08 -6.2097344013650593e-09 0.0000000000000000e+00  -9.1038391024522821e-08 -4.2166003214147875e-08 0.0000000000000000e+00  2.1975803218751047e-07 1.0178472825884349e-07 0.0000000000000000e+00  -8.2216943396136272e-07 -3.8080197381399954e-07 0.0000000000000000e+00  -1.1648719159058464e-08 -5.3953054746895830e-09 0.0000000000000000e+00  -7.3065796797922540e-07 -3.3841685776230203e-07 0.0000000000000000e+00  -1.3647362250770193e-07 -6.3210115430929231e-08 0.0000000000000000e+00  3.7943457542013197e-07 1.7574167718335916e-07 0.0000000000000000e+00  -4.6862900152679198e-07 -2.1705361619691678e-07 0.0000000000000000e+00  3.4258243994928078e-07 1.5867297413154913e-07 0.0000000000000000e+00  1.2031227766673230e-06 5.5724709429787214e-07 0.0000000000000000e+00  1.7952410237844419e-08 8.3149688749083301e-09 0.0000000000000000e+00  6.0373027353627165e-07 2.7962810379141631e-07 0.0000000000000000e+00  5.1231428137018683e-07 2.3728720808664378e-07 0.0000000000000000e+00  -1.1226802888363907e-09 -5.1998876665973724e-10 0.0000000000000000e+00  -1.0513791902623806e-07 -4.8696443134578190e-08 0.0000000000000000e+00  -7.5548978772721764e-08 -3.4991814397269755e-08 0.0000000000000000e+00  4.9272190168204419e-08 2.2821265903534814e-08 0.0000000000000000e+00  -2.1773747339726283e-08 -1.0084887155613632e-08 0.0000000000000000e+00  -1.2241912228055160e-08 -5.6700530902006395e-09 0.0000000000000000e+00  1.2655917764647559e-08 5.8618069051590770e-09 0.0000000000000000e+00  1.0280314226093341e-09 4.7615050949564218e-10 0.0000000000000000e+00  -4.9978605665013567e-11 -2.3148454442060679e-11 0.0000000000000000e+00  8.4781003871599169e-10 3.9267786276951827e-10 0.0000000000000000e+00  4.8111820224151815e-10 2.2283820522087622e-10 0.0000000000000000e+00  8.0654693185543378e-10 3.7356614213246025e-10 0.0000000000000000e+00  5.6087737862336050e-11 2.5978004535915903e-11 0.0000000000000000e+00  1.8902570441869894e-10 8.7550519845286491e-11 0.0000000000000000e+00  -1.1006429059402190e-10 -5.0978177214273327e-11 0.0000000000000000e+00  -3.3868729545268353e-11 -1.5686887068118358e-11 0.0000000000000000e+00  3.2426584653887305e-11 1.5018932753011247e-11 0.0000000000000000e+00  -5.6108468308621539e-13 -2.5987606200168542e-13 0.0000000000000000e+00  2.3328325727037775e-12 1.0804916986307426e-12 0.0000000000000000e+00  -7.5631906532034085e-14 -3.5030223821319800e-14 0.0000000000000000e+00  2.7527365443673153e-13 1.2749774756698916e-13 0.0000000000000000e+00  -1.3179305836323077e-13 -6.1042231304916696e-14 0.0000000000000000e+00  1.1224630573090921e-02 5.1988815212593428e-03 0.0000000000000000e+00  3.0447885142341304e-05 1.4102463898226607e-05 0.0000000000000000e+00  -1.5186587102010625e+01 -7.0339301183697911e+00 0.0000000000000000e+00  5.7551943482634051e+00 2.6656176658652937e+00 0.0000000000000000e+00  8.8133624838949204e-11 4.0820610584303987e-11 0.0000000000000000e+00  -3.9692141872953549e-05 -1.8384101069410879e-05 0.0000000000000000e+00  4.8480233495439171e-11 2.2454457491902476e-11 0.0000000000000000e+00  -1.6094343839262623e-01 -7.4543733299630377e-02 0.0000000000000000e+00  -1.0823921995032151e-04 -5.0132864223102479e-05 0.0000000000000000e+00  -1.6300023771022103e-06 -7.5496375428523039e-07 0.0000000000000000e+00  -2.3321281874363223e-03 -1.0801654504280090e-03 0.0000000000000000e+00  -1.2441800986420044e-05 -5.7626350211073932e-06 0.0000000000000000e+00  1.2715041429338199e-08 5.8891910516419183e-09 0.0000000000000000e+00  8.3034433034185895e-03 3.8458831826908169e-03 0.0000000000000000e+00  -1.3025133864077074e-15 -6.0328157186943146e-16 0.0000000000000000e+00  -2.6961330007547651e-07 -1.2487605667917871e-07 0.0000000000000000e+00  1.0936385117397778e-04 5.0653756598920611e-05 0.0000000000000000e+00  -2.3885868236233751e-03 -1.1063152429291576e-03 0.0000000000000000e+00  9.5041288150402909e-09 4.4020014155864774e-09 0.0000000000000000e+00  5.5763121788284830e-08 2.5827652994464375e-08 0.0000000000000000e+00  -1.3617572141783069e+02 -6.3072137395820697e+01 0.0000000000000000e+00  2.4579869020647207e-02 1.1384590879344115e-02 0.0000000000000000e+00  5.4402448243561103e-09 2.5197433540731214e-09 0.0000000000000000e+00  -1.2273715818182794e-14 -5.6847834722784964e-15 0.0000000000000000e+00  -1.0076153719681744e-06 -4.6669446301605016e-07 0.0000000000000000e+00  -3.3808014776886278e-04 -1.5658765974479373e-04 0.0000000000000000e+00  1.4448217328793383e-11 6.6919414048135315e-12 0.0000000000000000e+00  8.4774886864143648e-09 3.9264953079296244e-09 0.0000000000000000e+00  -2.0708064079083800e-19 -9.5912975470120121e-20 0.0000000000000000e+00  1.4404871804974415e-03 6.6718651767947693e-04 0.0000000000000000e+00  1.1236333399013458e-04 5.2043018872160673e-05 0.0000000000000000e+00  5.9552057728870416e-09 2.7582564117683842e-09 0.0000000000000000e+00  -3.5762163959213440e-11 -1.6563863920254086e-11 0.0000000000000000e+00  -2.3452713158344501e-03 -1.0862529173531353e-03 0.0000000000000000e+00  1.7833496550388568e-07 8.2598919466911594e-08 0.0000000000000000e+00  -1.1707038360658163e-12 -5.4223170201974844e-13 0.0000000000000000e+00  8.5971266448384313e+02 3.9819076947553486e+02 0.0000000000000000e+00  -5.8217543212703727e-04 -2.6964460669844542e-04 0.0000000000000000e+00  -1.5024355729467938e-22 -6.9587898561234030e-23 0.0000000000000000e+00  -3.0461041884523456e-02 -1.4108557670610951e-02 0.0000000000000000e+00  6.0434017109851285e-08 2.7991058838149280e-08 0.0000000000000000e+00  6.0284401758820797e-14 2.7921761904169617e-14 0.0000000000000000e+00  4.0082896474425638e-07 1.8565085812179176e-07 0.0000000000000000e+00  -2.4855901370554414e-06 -1.1512440029822413e-06 0.0000000000000000e+00  9.0221464945532094e-12 4.1787629790751549e-12 0.0000000000000000e+00  -5.7927688001058539e-06 -2.6830209222204283e-06 0.0000000000000000e+00  1.2866528256214489e-05 5.9593547919835612e-06 0.0000000000000000e+00  3.2353005346545335e-04 1.4984853225957022e-04 0.0000000000000000e+00  -5.6267961633699792e-01 -2.6061478288440248e-01 0.0000000000000000e+00  -1.1841839814834688e-05 -5.4847526419845784e-06 0.0000000000000000e+00  2.7321982943250900e-10 1.2654648304270352e-10 0.0000000000000000e+00  7.7332876860731639e-06 3.5818057608142239e-06 0.0000000000000000e+00  -2.0281751071780247e-06 -9.3938433144196080e-07 0.0000000000000000e+00  -1.3352385052606251e-09 -6.1843877589299277e-10 0.0000000000000000e+00  6.6914777923691711e+00 3.0992735144499055e+00 0.0000000000000000e+00  5.2407774758342712e-02 2.4273566064138361e-02 0.0000000000000000e+00  -4.9772136783314078e-07 -2.3052824813379183e-07 0.0000000000000000e+00  -6.2740813326419369e-11 -2.9059491348736927e-11 0.0000000000000000e+00  -1.8115566125365376e+01 -8.3905373422351612e+00 0.0000000000000000e+00  -7.9084756827884888e-06 -3.6629471073324854e-06 0.0000000000000000e+00  8.4293713156545849e-05 3.9042089165810860e-05 0.0000000000000000e+00  -1.5475636502491068e-08 -7.1678083406510130e-09 0.0000000000000000e+00  1.7051855332086726e-13 7.8978613159614757e-14 0.0000000000000000e+00  -1.2109358321702385e-05 -5.6086584590080633e-06 0.0000000000000000e+00  -3.0670288521831040e-10 -1.4205473864778775e-10 0.0000000000000000e+00  5.8722659120335310e-17 2.7198413826803953e-17 0.0000000000000000e+00  -1.7837203882309534e-17 -8.2616090615032611e-18 0.0000000000000000e+00  -1.0783232379743378e-07 -4.9944403241999841e-08 0.0000000000000000e+00  2.0950510338186489e-11 9.7035907194367244e-12 0.0000000000000000e+00  -3.6954363454576384e-17 -1.7116051708149432e-17 0.0000000000000000e+00  -6.4068099001238485e-08 -2.9674246633850038e-08 0.0000000000000000e+00  1.7363183936358194e-13 8.0420585362839604e-14 0.0000000000000000e+00  2.3437434049754166e-05 1.0855452390487723e-05 0.0000000000000000e+00  -6.7942913003543657e+00 -3.1468933664636931e+00 0.0000000000000000e+00  -1.9607228556443593e-15 -9.0814265611178202e-16 0.0000000000000000e+00  1.3381993679766820e-09 6.1981015059982744e-10 0.0000000000000000e+00  -3.4691340696354888e-16 -1.6067893630848191e-16 0.0000000000000000e+00  8.0052634368857215e-04 3.7077760273564024e-04 0.0000000000000000e+00  -1.7397788983850145e-09 -8.0580864617267358e-10 0.0000000000000000e+00  3.3557780861750381e-06 1.5542865814654851e-06 0.0000000000000000e+00  4.2836285800805618e-07 1.9840365635113026e-07 0.0000000000000000e+00  6.8181524877732274e-11 3.1579450875461369e-11 0.0000000000000000e+00  5.7807608769278549e-05 2.6774592452002057e-05 0.0000000000000000e+00  -3.5432353211080405e-07 -1.6411106375779376e-07 0.0000000000000000e+00  -9.4255586850297196e-02 -4.3656103028121999e-02 0.0000000000000000e+00  -9.0715756646357482e-05 -4.2016569529373653e-05 0.0000000000000000e+00  1.3790308200181237e-10 6.3872194285188993e-11 0.0000000000000000e+00  7.6454186155886006e-10 3.5411076831485013e-10 0.0000000000000000e+00  -3.6300889472581041e-15 -1.6813383946613987e-15 0.0000000000000000e+00  1.4696163927866893e+01 6.8067821546973271e+00 0.0000000000000000e+00  9.5479404451478410e-05 4.4222935287833629e-05 0.0000000000000000e+00  -1.1628708000529907e-08 -5.3860369609855132e-09 0.0000000000000000e+00  -5.2483170707727552e-07 -2.4308487000331557e-07 0.0000000000000000e+00  9.6139015543038306e-13 4.4528445557663782e-13 0.0000000000000000e+00  1.5351421110074763e+00 7.1102758362105312e-01 0.0000000000000000e+00  -7.3412893281623348e-13 -3.4002449507691642e-13 0.0000000000000000e+00  1.6147793655102913e-01 7.4791295353523732e-02 0.0000000000000000e+00  2.7801469442098398e-02 1.2876730757881915e-02 0.0000000000000000e+00  -4.6938493767417728e-08 -2.1740374108007509e-08 0.0000000000000000e+00  -1.0831576166705341e-11 -5.0168315841232010e-12 0.0000000000000000e+00  -9.3967442503290388e-06 -4.3522643996989241e-06 0.0000000000000000e+00  3.4176926937580429e-10 1.5829634013539726e-10 0.0000000000000000e+00  -3.7605963559712600e-05 -1.7417851551251987e-05 0.0000000000000000e+00  7.3402587550551717e-09 3.3997676230345719e-09 0.0000000000000000e+00  -2.7808686