<?xml version="1.0"?>
<VTKFile type="UnstructuredGrid"  version="0.1"  >
<UnstructuredGrid>
<Piece  NumberOfPoints="1855" NumberOfCells="3532">
<Points>
<DataArray  type="Float64"  NumberOfComponents="3"  format="ascii">0 0 0  30 0 0  30 -10 0  0 -10 0  0.1391574078963744 0 0  0.2856388821882616 0 0  0.4398299073010886 0 0  0.6021362569539473 0 0  0.7729850389704483 0 0  0.9528258543586996 0 0  1.142131984380316 0 0  1.34140159760994 0 0  1.551159074717981 0 0  1.771956417032531 0 0  2.004374674080994 0 0  2.249025475789527 0 0  2.506552636773105 0 0  2.777633857742732 0 0  3.062982518028728 0 0  3.363349525995907 0 0  3.679525322337712 0 0  4.01234195575742 0 0  4.362675247811097 0 0  4.731447135329707 0 0  5.119628065610077 0 0  5.528239565804708 0 0  5.958356943167011 0 0  6.411112081475485 0 0  6.887696441559404 0 0  7.389364184530748 0 0  7.917435485335147 0 0  8.473300005202017 0 0  9.058420557070402 0 0  9.674336929103793 0 0  10.32266995225095 0 0  11.00512576896296 0 0  11.72350030646412 0 0  12.47968402994705 0 0  13.27566689579597 0 0  14.1135435963616 0 0  14.9955190732806 0 0  15.92391430904694 0 0  16.90117245730496 0 0  17.92986524844506 0 0  19.01269976086341 0 0  20.15252556282024 0 0  21.35234220269763 0 0  22.61530708683689 0 0  23.94474379751883 0 0  25.34415086349739 0 0  26.81721093579712 0 0  28.3678004819169 0 0  30 -1.111111111111111 0  30 -2.222222222222222 0  30 -3.333333333333333 0  30 -4.444444444444445 0  30 -5.555555555555555 0  30 -6.666666666666666 0  30 -7.777777777777777 0  30 -8.888888888888889 0  28.36780047917311 -10 0  26.8172109305839 -10 0  25.34415085606858 -10 0  23.94474378810899 -10 0  22.61530707566275 -10 0  21.3523421899591 -10 0  20.15252554870171 -10 0  19.01269974553473 -10 0  17.92986523206254 -10 0  16.90117244001232 -10 0  15.92391429097614 -10 0  14.99551905455266 -10 0  14.11354357708742 -10 0  13.27566687607703 -10 0  12.47968400987599 -10 0  11.72350028612546 -10 0  11.00512574843363 -10 0  10.32266993160086 -10 0  9.674336908396342 -10 0  9.058420536362949 -10 0  8.473299984546333 -10 0  7.917435464777824 -10 0  7.389364164113587 -10 0  6.887696420787165 -10 0  6.411112061446698 -10 0  5.95835692337857 -10 0  5.528239546282652 -10 0  5.119628046377237 -10 0  4.731447115907979 -10 0  4.362675229213632 -10 0  4.012341937260036 -10 0  3.679525304434552 -10 0  3.363349508456405 -10 0  3.062982500861274 -10 0  2.777633840953978 -10 0  2.506552620368097 -10 0  2.249025459771861 -10 0  2.004374658452946 -10 0  1.771956401795187 -10 0  1.551159059871345 -10 0  1.341401583153029 -10 0  1.142131970307521 -10 0  0.9528258406748833 -10 0  0.7729850256685147 -10 0  0.6021362439621285 -10 0  0.4398298947504031 -10 0  0.2856388700059078 -10 0  0.1391573960769001 -10 0  0 -9.855072463768115 0  0 -9.710144927536232 0  0 -9.565217391304348 0  0 -9.420289855072463 0  0 -9.27536231884058 0  0 -9.130434782608695 0  0 -8.985507246376812 0  0 -8.840579710144928 0  0 -8.695652173913043 0  0 -8.55072463768116 0  0 -8.405797101449275 0  0 -8.260869565217391 0  0 -8.115942028985508 0  0 -7.971014492753623 0  0 -7.826086956521739 0  0 -7.681159420289855 0  0 -7.536231884057971 0  0 -7.391304347826087 0  0 -7.246376811594203 0  0 -7.101449275362318 0  0 -6.956521739130435 0  0 -6.811594202898551 0  0 -6.666666666666667 0  0 -6.521739130434783 0  0 -6.376811594202898 0  0 -6.231884057971015 0  0 -6.086956521739131 0  0 -5.942028985507246 0  0 -5.797101449275362 0  0 -5.652173913043478 0  0 -5.507246376811594 0  0 -5.36231884057971 0  0 -5.217391304347826 0  0 -5.072463768115941 0  0 -4.927536231884058 0  0 -4.782608695652174 0  0 -4.637681159420289 0  0 -4.492753623188406 0  0 -4.347826086956522 0  0 -4.202898550724638 0  0 -4.057971014492754 0  0 -3.913043478260869 0  0 -3.768115942028985 0  0 -3.623188405797101 0  0 -3.478260869565217 0  0 -3.333333333333334 0  0 -3.188405797101449 0  0 -3.043478260869565 0  0 -2.898550724637681 0  0 -2.753623188405797 0  0 -2.608695652173912 0  0 -2.463768115942029 0  0 -2.318840579710145 0  0 -2.173913043478261 0  0 -2.028985507246377 0  0 -1.884057971014492 0  0 -1.739130434782609 0  0 -1.594202898550725 0  0 -1.44927536231884 0  0 -1.304347826086957 0  0 -1.159420289855072 0  0 -1.014492753623188 0  0 -0.8695652173913047 0  0 -0.72463768115942 0  0 -0.579710144927537 0  0 -0.4347826086956523 0  0 -0.2898550724637676 0  0 -0.1449275362318829 0  5.15859856094262 -4.976557621770688 0  2.816777084926057 -7.160262673925935 0  2.81677708460006 -2.839737326002783 0  2.227649803257325 -5.003121586636773 0  1.518662968975629 -8.46230852045241 0  1.518662969184829 -1.537691480152612 0  9.960740911025725 -5.055901393541221 0  1.491099662214591 -3.691833922963321 0  1.503675657181264 -6.345020369042368 0  5.319208041801049 -7.493850249937013 0  5.291109955459268 -2.489368743223226 0  1.096914507335763 -2.53623188405797 0  1.096914507253562 -7.463768115942029 0  1.089580194952752 -4.71277167923441 0  15.07565076110197 -5.047572991082069 0  7.501630508673601 -5.937500100385354 0  0.8894869418764504 -5.623930488933245 0  2.955144522453978 -1.440834296472408 0  2.955144521140721 -8.559165705576945 0  8.106603955004623 -2.748811534843258 0  3.662152539483591 -4.228178367024407 0  3.662181528265114 -5.771746159989156 0  0.8436558190317136 -0.8541050638451999 0  0.8436558075840921 -9.145894948342754 0  0.7854168197005933 -1.811594202898552 0  0.7894693398152999 -3.286543351392342 0  0.7854168196772591 -8.188405797101449 0  0.7854168196772591 -6.739130434782609 0  20.00078956016804 -4.999999999785771 0  0.7379120031523989 -3.977302749614766 0  6.584332478112232 -3.934875417052907 0  7.295091310194352 -7.969791332537982 0  9.811174303464586 -7.412814499648229 0  4.013376806449688 -2.206189431585293 0  4.013376806983409 -7.793810569017377 0  12.11177433894592 -2.818343737884045 0  2.591152707837148 -3.990098461753838 0  2.58990939378082 -6.025895074707176 0  25.43156400064585 -5.044446479916348 0  2.03262751726143 -2.282125834846944 0  2.032627517335952 -7.717874165160392 0  12.51865094522923 -6.491408052923457 0  0.598175343983641 -6.156971652625402 0  2.126700074935224 -0.8767654465386991 0  2.126700059112423 -9.123234559633019 0  6.617961838548696 -1.617756429129908 0  0.5903949564549755 -4.980060355019413 0  1.676697585305984 -5.547101897225158 0  4.773518305133987 -3.729331162566817 0  4.77931803486508 -6.231222307502165 0  4.878549698409591 -8.72048903376362 0  4.852580875634024 -1.222215410052823 0  0.5487847095754042 -2.675169258708207 0  0.545113423825768 -7.32369553390529 0  1.78738026998851 -4.400451872599477 0  1.68244194111824 -3.010100184333533 0  1.683984276238402 -7.018293626028473 0  9.998503440677371 -2.00585287985007 0  3.693061162502273 -3.243678395563028 0  3.694987482168253 -6.757603268814477 0  6.081763036485869 -5.83414381546261 0  0.5196640460586313 -1.350633211792632 0  0.5196640458460706 -8.649366789040087 0  3.84593363904758 -0.9906418103762418 0  3.845933620847308 -9.009358200471317 0  17.41551885287501 -3.057748733689079 0  17.30725517812527 -7.002961443761516 0  8.117698464370697 -4.451550942597151 0  0.4918476668493152 -0.4789811193757592 0  0.4918476560347713 -9.521018882514893 0  1.463770869328428 -0.6252343353791154 0  1.463770854281917 -9.374765668872765 0  0.5034132782032188 -4.464280853772128 0  3.138906271796685 -4.99999841599503 0  14.61209972381335 -2.388610981020637 0  6.208601124947327 -8.776231214192325 0  14.74910972998159 -7.542186851303819 0  2.243794246335625 -1.632184311040998 0  2.243794245689214 -8.367815689183566 0  0.4590235278399923 -5.431413993025926 0  0.4971508861448406 -2.209632053221267 0  0.4971508861368665 -7.790367946777407 0  0.4644363683211541 -3.560571347760519 0  6.478811279411406 -7.007392971062433 0  1.238895267772762 -4.173677632458826 0  1.293241773632479 -2.02256720952064 0  1.293241773542714 -7.977432790434841 0  0.4324740478030531 -0.942028985507247 0  0.4324740423701829 -9.057971014492754 0  2.117396640811705 -3.472968170680347 0  2.107095929630507 -6.531506384346077 0  8.087741545730886 -1.392783601483453 0  1.028911946384717 -1.352376108341404 0  1.028911946221715 -8.647623891551962 0  4.05691976296832 -4.991522392209158 0  11.51826881314265 -8.065248940008736 0  1.618560396201739 -4.958056164503666 0  2.701984523487646 -2.141781914603403 0  2.70198452396172 -7.858218085853512 0  2.843615645746219 -9.289121726447632 0  2.843615661334342 -0.7108782798429658 0  8.678774612240533 -8.488146490452822 0  6.487906449371135 -2.667543558824978 0  8.369190916679937 -7.129867754908394 0  11.80978191929258 -4.655775487536958 0  0.3792065166453504 -3.113833531412848 0  0.4134714637263563 -6.58827691137208 0  9.551050695080825 -3.49648183875815 0  1.083867845277057 -6.036251777836495 0  0.3756430921870901 -1.80381664325008 0  0.3756430921689482 -8.196183356748573 0  3.113073783220456 -3.503408140759125 0  3.113391383189963 -6.496678880796299 0  22.62850736315072 -3.277987336300344 0  22.59385352108348 -6.800312122582239 0  0.3777114402537816 -4.137047872695438 0  0.9196816123347897 -0.4281025456111269 0  0.9196815944880363 -9.571897460530383 0  0.4052043328723194 -5.827814332459883 0  8.865857694874787 -5.767686953139113 0  1.200388325130726 -5.182186034620629 0  5.65297436943758 -4.325500846767599 0  1.200079167961391 -3.009849046583253 0  1.20883344838 -7.021823297793294 0  1.057642414577487 -3.660996704809145 0  10.88812987788297 -6.333458225047037 0  4.493502926606794 -2.839780197438185 0  4.485862892033458 -7.147606077919463 0  0.3631651408878085 -7.003529808558233 0  1.946748828463205 -6.049056369468467 0  6.918750162798794 -4.993796052442676 0  3.351203216022585 -1.980935554775394 0  3.351203216441711 -8.019064445907297 0  2.281892243515294 -2.856654416292082 0  2.281892243715877 -7.143345583598931 0  5.811143619672087 -0.9953286820321026 0  2.695713766833098 -4.565354125099452 0  2.698172168139827 -5.435483248292925 0  19.86166219288896 -2.493475492328429 0  19.83739102036415 -7.594404063416508
[...]
<PointData  Vectors="flow"> 
<DataArray  type="Float64"  Name="flow"  NumberOfComponents="3" format="ascii">-1.9999461415806338e-12 -8.8177911479272635e-13 0.0000000000000000e+00  -1.5021849498662414e-22 -6.6231549330680164e-23 0.0000000000000000e+00  -5.7086382059325140e-23 -2.5169467513363832e-23 0.0000000000000000e+00  3.6634413937312454e-18 1.6152165511348719e-18 0.0000000000000000e+00  9.1912200801371940e-12 4.0524220815882115e-12 0.0000000000000000e+00  -4.5769851913804160e-11 -2.0179993183642036e-11 0.0000000000000000e+00  7.9624040667870807e-11 3.5106353434520396e-11 0.0000000000000000e+00  -4.7386521111075333e-10 -2.0892784945402061e-10 0.0000000000000000e+00  4.8613203858383468e-10 2.1433631123488590e-10 0.0000000000000000e+00  4.1525523692214329e-09 1.8308662799132133e-09 0.0000000000000000e+00  6.6118048384303378e-09 2.9151542116056926e-09 0.0000000000000000e+00  -3.2918386744588952e-08 -1.4513763806212926e-08 0.0000000000000000e+00  -1.1578859850921907e-07 -5.1051358721018380e-08 0.0000000000000000e+00  -1.5390012527009850e-07 -6.7854785389322080e-08 0.0000000000000000e+00  -4.9515167651073405e-07 -2.1831308249965958e-07 0.0000000000000000e+00  -1.1599903054515855e-07 -5.1144138506691789e-08 0.0000000000000000e+00  5.2840227027257583e-06 2.3297331685500953e-06 0.0000000000000000e+00  -1.0297119449325376e-05 -4.5400146954782460e-06 0.0000000000000000e+00  -1.9688282649869125e-05 -8.6805919848770324e-06 0.0000000000000000e+00  -1.9060931655396660e-05 -8.4039920339738301e-06 0.0000000000000000e+00  -4.5603736029806856e-06 -2.0106752452754885e-06 0.0000000000000000e+00  1.5931853015027808e-05 7.0243767852148973e-06 0.0000000000000000e+00  -1.7844976804870921e-05 -7.8678758009251200e-06 0.0000000000000000e+00  -5.7853354964554195e-06 -2.5507626964451823e-06 0.0000000000000000e+00  9.4034602852946096e-06 4.1459990916566843e-06 0.0000000000000000e+00  8.1979035196337980e-06 3.6144673890996497e-06 0.0000000000000000e+00  1.3888941441397433e-05 6.1236541499683610e-06 0.0000000000000000e+00  5.9125964335137357e-06 2.6068722256439720e-06 0.0000000000000000e+00  -4.1572582900308634e-06 -1.8329411271300203e-06 0.0000000000000000e+00  -2.2164169691871290e-07 -9.7722141235102242e-08 0.0000000000000000e+00  -5.0247760196119538e-08 -2.2154309351067675e-08 0.0000000000000000e+00  -1.4216901044509627e-08 -6.2682520081344283e-09 0.0000000000000000e+00  9.4788078005768890e-09 4.1792199189310577e-09 0.0000000000000000e+00  6.5233056798104570e-10 2.8761348059700923e-10 0.0000000000000000e+00  1.4694759941177861e-10 6.4789406792637973e-11 0.0000000000000000e+00  -4.4716824563255917e-11 -1.9715711918405044e-11 0.0000000000000000e+00  1.3445228129409332e-11 5.9280203159705184e-12 0.0000000000000000e+00  -2.5656434701229289e-12 -1.1311958761903126e-12 0.0000000000000000e+00  4.8035528055714666e-13 2.1178933035713259e-13 0.0000000000000000e+00  4.9695149862529194e-14 2.1910662664465497e-14 0.0000000000000000e+00  -1.7714611322234853e-14 -7.8103974731399801e-15 0.0000000000000000e+00  1.0372235511896315e-14 4.5731334749210599e-15 0.0000000000000000e+00  -2.4334870769011380e-15 -1.0729279333660046e-15 0.0000000000000000e+00  5.4021291272123251e-16 2.3818064600602306e-16 0.0000000000000000e+00  -5.2020546767202304e-17 -2.2935933486270766e-17 0.0000000000000000e+00  1.1995673399628742e-17 5.2889095619882343e-18 0.0000000000000000e+00  -1.5157517823587675e-18 -6.6829712916042747e-19 0.0000000000000000e+00  2.5492000603360860e-19 1.1239459532926086e-19 0.0000000000000000e+00  4.5315428830399754e-21 1.9979637396106118e-21 0.0000000000000000e+00  3.0563443875869393e-21 1.3475466126593555e-21 0.0000000000000000e+00  -3.0909134270296327e-21 -1.3627881516014602e-21 0.0000000000000000e+00  7.1903689682578168e-22 3.1702439640961934e-22 0.0000000000000000e+00  6.8024401664512548e-23 2.9992056004384382e-23 0.0000000000000000e+00  -5.9825837205458115e-24 -2.6377297206148716e-24 0.0000000000000000e+00  1.8617188977355267e-23 8.2083452524410775e-24 0.0000000000000000e+00  -2.4221369738947668e-23 -1.0679236567139082e-23 0.0000000000000000e+00  -6.0393831068363900e-24 -2.6627726512832357e-24 0.0000000000000000e+00  1.8938953928086952e-23 8.3502118795109830e-24 0.0000000000000000e+00  -2.1370575308292368e-24 -9.4223172245348662e-25 0.0000000000000000e+00  2.8154620638788191e-23 1.2413412515486353e-23 0.0000000000000000e+00  2.8093170964203252e-22 1.2386319266056653e-22 0.0000000000000000e+00  -1.1610856048422028e-21 -5.1192430413509534e-22 0.0000000000000000e+00  2.1023122890211981e-21 9.2691249563644397e-22 0.0000000000000000e+00  2.2451305827598386e-20 9.8988128565072816e-21 0.0000000000000000e+00  -2.9153762154751166e-19 -1.2853935439169789e-19 0.0000000000000000e+00  1.5615218511788488e-18 6.8847721797835781e-19 0.0000000000000000e+00  -8.2671842248324657e-18 -3.6450133511294146e-18 0.0000000000000000e+00  1.8977002989394548e-17 8.3669877650715663e-18 0.0000000000000000e+00  -1.8643333803274486e-16 -8.2198725435896438e-17 0.0000000000000000e+00  4.6594473215112554e-16 2.0543569895029031e-16 0.0000000000000000e+00  -3.7304898325013537e-15 -1.6447783037029786e-15 0.0000000000000000e+00  9.9105007825282300e-15 4.3695539722203234e-15 0.0000000000000000e+00  -2.4538184833344978e-14 -1.0818920795470274e-14 0.0000000000000000e+00  -1.6217586585288307e-13 -7.1503571250912930e-14 0.0000000000000000e+00  3.7354559150206685e-13 1.6469678565898442e-13 0.0000000000000000e+00  -3.0865867440643452e-12 -1.3608805108926441e-12 0.0000000000000000e+00  1.9354661563699973e-11 8.5334979707322771e-12 0.0000000000000000e+00  -7.3146787500551042e-11 -3.2250523247186735e-11 0.0000000000000000e+00  -1.4062410339002817e-10 -6.2001368350738959e-11 0.0000000000000000e+00  1.8511939310729190e-10 8.1619405238635219e-11 0.0000000000000000e+00  -6.4533206753221418e-10 -2.8452783173759984e-10 0.0000000000000000e+00  6.0517916384817165e-10 2.6682435906363568e-10 0.0000000000000000e+00  1.0918955637075769e-09 4.8141831602086425e-10 0.0000000000000000e+00  -5.3885417096817522e-10 -2.3758157482338836e-10 0.0000000000000000e+00  -7.7430587860753495e-10 -3.4139256954076801e-10 0.0000000000000000e+00  7.8556657719670411e-11 3.4635742765743111e-11 0.0000000000000000e+00  4.9823747155358861e-09 2.1967361394835694e-09 0.0000000000000000e+00  1.7513155899739315e-09 7.7215754891750130e-10 0.0000000000000000e+00  4.0644439270775082e-10 1.7920191417307665e-10 0.0000000000000000e+00  1.4028515931841622e-10 6.1851927424697771e-11 0.0000000000000000e+00  -1.1183264719132949e-10 -4.9307174125879498e-11 0.0000000000000000e+00  -1.5773648695713021e-10 -6.9546242745139880e-11 0.0000000000000000e+00  1.3813262424511751e-10 6.0902871631628434e-11 0.0000000000000000e+00  8.0066464286237866e-11 3.5301418640755817e-11 0.0000000000000000e+00  3.9291308824050664e-11 1.7323594267662012e-11 0.0000000000000000e+00  -3.1461443531203944e-11 -1.3871395459240091e-11 0.0000000000000000e+00  -2.9881918075794630e-13 -1.3174980426402180e-13 0.0000000000000000e+00  2.6211038252628403e-12 1.1556484261088359e-12 0.0000000000000000e+00  1.0367212957941137e-12 4.5709190236973443e-13 0.0000000000000000e+00  1.9256455491202488e-13 8.4901987728820435e-14 0.0000000000000000e+00  7.7790257947688305e-14 3.4297836009922780e-14 0.0000000000000000e+00  -7.2258514661997259e-15 -3.1858882481973338e-15 0.0000000000000000e+00  -1.2202904838173071e-14 -5.3802781996918483e-15 0.0000000000000000e+00  -5.6868752656363377e-16 -2.5073514398274142e-16 0.0000000000000000e+00  9.3913843602596744e-16 4.1406747990339102e-16 0.0000000000000000e+00  -1.4676421576927341e-16 -6.4708552682322848e-17 0.0000000000000000e+00  1.0256042955441815e-16 4.5219040105640997e-17 0.0000000000000000e+00  -2.5142857040786512e-17 -1.1085521636729002e-17 0.0000000000000000e+00  1.4224827109556148e-17 6.2717466215518536e-18 0.0000000000000000e+00  -3.9084286801814197e-17 -1.7232317961908114e-17 0.0000000000000000e+00  3.0900067883981997e-18 1.3623884133318831e-18 0.0000000000000000e+00  -2.8247906110849722e-16 -1.2454542213565331e-16 0.0000000000000000e+00  -2.5274732943048734e-16 -1.1143665910688008e-16 0.0000000000000000e+00  -1.1710304066433790e-14 -5.1630898147550588e-15 0.0000000000000000e+00  1.4444086680857065e-14 6.3684184801943743e-15 0.0000000000000000e+00  -1.7284951508631083e-14 -7.6209598466836626e-15 0.0000000000000000e+00  -6.2807356178170378e-14 -2.7691853186350268e-14 0.0000000000000000e+00  4.2634508078410201e-13 1.8797615601434021e-13 0.0000000000000000e+00  -1.3635746079970354e-12 -6.0120199529132591e-13 0.0000000000000000e+00  -2.8872030823159584e-12 -1.2729719692047782e-12 0.0000000000000000e+00  2.0902113822691693e-12 9.2157718853884453e-13 0.0000000000000000e+00  8.1881589339326967e-12 3.6101709873241800e-12 0.0000000000000000e+00  6.0861412780296085e-12 2.6833883958509778e-12 0.0000000000000000e+00  5.0484239795933465e-11 2.2258573544915219e-11 0.0000000000000000e+00  1.4724902612819239e-11 6.4922306263102703e-12 0.0000000000000000e+00  9.2980864366095162e-12 4.0995396110316457e-12 0.0000000000000000e+00  -1.2020220935094512e-09 -5.2997326054909224e-10 0.0000000000000000e+00  -1.0561248512827877e-09 -4.6564695774193175e-10 0.0000000000000000e+00  -4.5534857852391927e-10 -2.0076383965800862e-10 0.0000000000000000e+00  -1.2362462958176305e-09 -5.4506276030529165e-10 0.0000000000000000e+00  9.8739002255987101e-10 4.3534167343121581e-10 0.0000000000000000e+00  4.2530460897923968e-09 1.8751741050715679e-09 0.0000000000000000e+00  1.4810368901637462e-08 6.5299128353117629e-09 0.0000000000000000e+00  -3.7088217441932049e-08 -1.6352248125712063e-08 0.0000000000000000e+00  -3.8692681353232031e-07 -1.7059658559427475e-07 0.0000000000000000e+00  -4.3865434522930528e-07 -1.9340332831692188e-07 0.0000000000000000e+00  6.5136789028447031e-07 2.8718903462345533e-07 0.0000000000000000e+00  2.1958678606340595e-06 9.6816128099399363e-07 0.0000000000000000e+00  -4.3479893770532001e-07 -1.9170347362434579e-07 0.0000000000000000e+00  -3.1837952584745145e-06 -1.4037398839551452e-06 0.0000000000000000e+00  -5.9244407049481020e-07 -2.6120943818628808e-07 0.0000000000000000e+00  -4.0228771419266397e-06 -1.7736922866954852e-06 0.0000000000000000e+00  9.7108434638720450e-06 4.2815247748103427e-06 0.0000000000000000e+00  -3.6330679677576901e-05 -1.6018248641732374e-05 0.0000000000000000e+00  -5.1474290692457301e-07 -2.2695088401482682e-07 0.0000000000000000e+00  -3.2286897921541986e-05 -1.4235339480771997e-05 0.0000000000000000e+00  -6.0306054433043744e-06 -2.6589025668753131e-06 0.0000000000000000e+00  1.6766758102118911e-05 7.3924876324646331e-06 0.0000000000000000e+00  -2.0708152649339037e-05 -9.1302541265912513e-06 0.0000000000000000e+00  1.5138306503310044e-05 6.6745009930116271e-06 0.0000000000000000e+00  5.3164550281677756e-05 2.3440326272326833e-05 0.0000000000000000e+00  7.9329544355481651e-07 3.4976509589103015e-07 0.0000000000000000e+00  2.6678115572626516e-05 1.1762419319640574e-05 0.0000000000000000e+00  2.2638552689837631e-05 9.9813702659295838e-06 0.0000000000000000e+00  -4.9609893373821972e-08 -2.1873072956632800e-08 0.0000000000000000e+00  -4.6459183476392528e-06 -2.0483920455692231e-06 0.0000000000000000e+00  -3.3384186207642413e-06 -1.4719135455810302e-06 0.0000000000000000e+00  2.1772788966243836e-06 9.5996538017017793e-07 0.0000000000000000e+00  -9.6215573980735341e-07 -4.2421584206739669e-07 0.0000000000000000e+00  -5.4095539608613634e-07 -2.3850800798374937e-07 0.0000000000000000e+00  5.5924980343500987e-07 2.4657403835444607e-07 0.0000000000000000e+00  4.5427473669689489e-08 2.0029038126031884e-08 0.0000000000000000e+00  -2.2084945488656218e-09 -9.7372840589799568e-10 0.0000000000000000e+00  3.7463707201589116e-08 1.6517802097891785e-08 0.0000000000000000e+00  2.1260035426602540e-08 9.3735800325678910e-09 0.0000000000000000e+00  3.5640340075631290e-08 1.5713876923687511e-08 0.0000000000000000e+00  2.4784497622325746e-09 1.0927520456488222e-09 0.0000000000000000e+00  8.3528188161600095e-09 3.6827697649480106e-09 0.0000000000000000e+00  -4.8636087895467424e-09 -2.1443720728175112e-09 0.0000000000000000e+00  -1.4966184746944201e-09 -6.5986122644057103e-10 0.0000000000000000e+00  1.4328918242825052e-09 6.3176405511149078e-10 0.0000000000000000e+00  -2.4793658157520486e-11 -1.0931559349559819e-11 0.0000000000000000e+00  1.0308506913466887e-10 4.5450354447082694e-11 0.0000000000000000e+00  -3.3420830988334839e-12 -1.4735292192038780e-12 0.0000000000000000e+00  1.2164012124399756e-11 5.3631303465522585e-12 0.0000000000000000e+00  -5.8237769361634469e-12 -2.5677115822038512e-12 0.0000000000000000e+00  4.9600294173581150e-01 2.1868840655515162e-01 0.0000000000000000e+00  1.3454554697274726e-03 5.9321324130842343e-04 0.0000000000000000e+00  -6.7107704155381919e+02 -2.9587882761251336e+02 0.0000000000000000e+00  2.5431512497554701e+02 1.1212790240546499e+02 0.0000000000000000e+00  3.8945190134593031e-09 1.7170990042349256e-09 0.0000000000000000e+00  -1.7539480702355860e-03 -7.7331821323068772e-04 0.0000000000000000e+00  2.1422832825717867e-09 9.4453576387235552e-10 0.0000000000000000e+00  -7.1118972135433633e+00 -3.1356456551869054e+00 0.0000000000000000e+00  -4.7829611101192094e-03 -2.1088143955895187e-03 0.0000000000000000e+00  -7.2027847047123747e-05 -3.1757180800600085e-05 0.0000000000000000e+00  -1.0305394319582403e-01 -4.5436630976119698e-02 0.0000000000000000e+00  -5.4978824020723372e-04 -2.4240242159232389e-04 0.0000000000000000e+00  5.6186240715695857e-07 2.4772593907284419e-07 0.0000000000000000e+00  3.6691918528754069e-01 1.6177519367977017e-01 0.0000000000000000e+00  -5.7556501935777668e-14 -2.5376744039409261e-14 0.0000000000000000e+00  -1.1913887864526084e-05 -5.2528502025653341e-06 0.0000000000000000e+00  4.8326572129592212e-03 2.1307254784231201e-03 0.0000000000000000e+00  -1.0554878250949416e-01 -4.6536609198442928e-02 0.0000000000000000e+00  4.1997603575455262e-07 1.8516803494974363e-07 0.0000000000000000e+00  2.4641053678566857e-06 1.0864275816484894e-06 0.0000000000000000e+00  -6.0174415519887225e+03 -2.6530985883629914e+03 0.0000000000000000e+00  1.0861548861081782e+00 4.7888724305511560e-01 0.0000000000000000e+00  2.4039788383882695e-07 1.0599177087934539e-07 0.0000000000000000e+00  -5.4236075853066009e-13 -2.3912763429594358e-13 0.0000000000000000e+00  -4.4525312916094869e-05 -1.9631274159209785e-05 0.0000000000000000e+00  -1.4939355620116175e-02 -6.5867832640075542e-03 0.0000000000000000e+00  6.3844936822240974e-10 2.8149323976604405e-10 0.0000000000000000e+00  3.7461004169473476e-07 1.6516610327165216e-07 0.0000000000000000e+00  -9.1506447664324847e-18 -4.0345323677318722e-18 0.0000000000000000e+00  6.3653398159250751e-02 2.8064874306091482e-02 0.0000000000000000e+00  4.9652007555561952e-03 2.1891641159607700e-03 0.0000000000000000e+00  2.6315338957125922e-07 1.1602470590905914e-07 0.0000000000000000e+00  -1.5802870670089003e-09 -6.9675082848190828e-10 0.0000000000000000e+00  -1.0363472225190176e-01 -4.5692697292763693e-02 0.0000000000000000e+00  7.8804079054803068e-06 3.4744831186344517e-06 0.0000000000000000e+00  -5.1731996238887706e-11 -2.2808711145558593e-11 0.0000000000000000e+00  3.7989669936557693e+04 1.6749699820141446e+04 0.0000000000000000e+00  -2.5725633022932789e-02 -1.1342468400931961e-02 0.0000000000000000e+00  -6.6390823207728008e-21 -2.9271808925915800e-21 0.0000000000000000e+00  -1.3460368503603162e+00 -5.9346957286112212e-01 0.0000000000000000e+00  2.6705066213278753e-06 1.1774301895657660e-06 0.0000000000000000e+00  2.6638952986872988e-12 1.1745152479558847e-12 0.0000000000000000e+00  1.7712150466910567e-05 7.8093124785072072e-06 0.0000000000000000e+00  -1.0983524240740575e-04 -4.8426515499313429e-05 0.0000000000000000e+00  3.9867781598067788e-10 1.7577761938383974e-10 0.0000000000000000e+00  -2.5597549486715358e-04 -1.1285996186587240e-04 0.0000000000000000e+00  5.6855642806709805e-04 2.5067734246807802e-04 0.0000000000000000e+00  1.4296404430762286e-02 6.3033051648648418e-03 0.0000000000000000e+00  -2.4864136342001274e+01 -1.0962633281918107e+01 0.0000000000000000e+00  -5.2327667672227558e-04 -2.3071343532640739e-04 0.0000000000000000e+00  1.2073256064565742e-08 5.3231158699427286e-09 0.0000000000000000e+00  3.4172469344132965e-04 1.5066690618346226e-04 0.0000000000000000e+00  -8.9622621694766959e-05 -3.9514742112483500e-05 0.0000000000000000e+00  -5.9002585627708958e-08 -2.6014324407838408e-08 0.0000000000000000e+00  2.9568836568498392e+02 1.3036942341964618e+02 0.0000000000000000e+00  2.3158366131249615e+00 1.0210556755853446e+00 0.0000000000000000e+00  -2.1993709369984957e-05 -9.6970579237430629e-06 0.0000000000000000e+00  -2.7724411751603832e-09 -1.2223732801702893e-09 0.0000000000000000e+00  -8.0050510623767821e+02 -3.5294384648150731e+02 0.0000000000000000e+00  -3.4946604057625459e-04 -1.5408007720943523e-04 0.0000000000000000e+00  3.7248379288057254e-03 1.6422863712783960e-03 0.0000000000000000e+00  -6.8384978734814197e-07 -3.0151034950494254e-07 0.0000000000000000e+00  7.5350100403700722e-12 3.3221967058076143e-12 0.0000000000000000e+00  -5.3509799819126413e-04 -2.3592547287275384e-04 0.0000000000000000e+00  -1.3552832079109765e-08 -5.9754630513233989e-09 0.0000000000000000e+00  2.5948837674944525e-15 1.1440879651303464e-15 0.0000000000000000e+00  -7.8820461309228537e-16 -3.4752054145755963e-16 0.0000000000000000e+00  -4.7649808578962884e-06 -2.1008868766632568e-06 0.0000000000000000e+00  9.2577788560087379e-10 4.0817679410838659e-10 0.0000000000000000e+00  -1.6329689306110368e-15 -7.1997833750673127e-16 0.0000000000000000e+00  -2.8310923347640121e-06 -1.2482326603413863e-06 0.0000000000000000e+00  7.6725824108455372e-12 3.3828525607507434e-12 0.0000000000000000e+00  1.0356720570640513e-03 4.5662929151269008e-04 0.0000000000000000e+00  -3.0023157110085623e+02 -1.3237252918666604e+02 0.0000000000000000e+00  -8.6641987724718385e-14 -3.8200576331222292e-14 0.0000000000000000e+00  5.9133422594473947e-08 2.6072010613650423e-08 0.0000000000000000e+00  -1.5329686733211580e-14 -6.7588808101491023e-15 0.0000000000000000e+00  3.5374297516609123e-02 1.5596578378834576e-02 0.0000000000000000e+00  -7.6878739656482975e-08 -3.3895946291382071e-08 0.0000000000000000e+00  1.4828780258885999e-04 6.5380304290605192e-05 0.0000000000000000e+00  1.8928840135880541e-05 8.3457526940591656e-06 0.0000000000000000e+00  3.0128596831027889e-09 1.3283741442464050e-09 0.0000000000000000e+00  2.5544487916611637e-03 1.1262601264422671e-03 0.0000000000000000e+00  -1.5657131262252945e-05 -6.9032515714205385e-06 0.0000000000000000e+00  -4.1650411608966511e+00 -1.8363726060283250e+00 0.0000000000000000e+00  -4.0086203163114875e-03 -1.7674064318870392e-03 0.0000000000000000e+00  6.0937715412489112e-09 2.6867525898196401e-09 0.0000000000000000e+00  3.3784186476699693e-08 1.4895496146647380e-08 0.0000000000000000e+00  -1.6040927003149131e-13 -7.0724676626104554e-14 0.0000000000000000e+00  6.4940583059620769e+02 2.8632395970012777e+02 0.0000000000000000e+00  4.2191201906144902e-03 1.8602161275922402e-03 0.0000000000000000e+00  -5.1385863786707306e-07 -2.2656100852241635e-07 0.0000000000000000e+00  -2.3191682695608997e-05 -1.0225246076739597e-05 0.0000000000000000e+00  4.2482676124102384e-11 1.8730672675580527e-11 0.0000000000000000e+00  6.7836085836770280e+01 2.9909027286542592e+01 0.0000000000000000e+00  -3.2440275688285165e-11 -1.4302963957539551e-11 0.0000000000000000e+00  7.1355160451114799e+00 3.1460592318125813e+00 0.0000000000000000e+00  1.2285135388702446e+00 5.4165337670529923e-01 0.0000000000000000e+00  -2.0741556559643815e-06 -9.1449819584297058e-07 0.0000000000000000e+00  -4.7863433966378916e-10 -2.1103056505540412e-10 0.0000000000000000e+00  -4.1523084083281607e-04 -1.8307587172063742e-04 0.0000000000000000e+00  1.5102373472467674e-08 6.6586580683101876e-09 0.0000000000000000e+00  -1.6617623565397025e-03 -7.3267340018835087e-04 0.0000000000000000e+00  3.2435721709519479e-07 1.4300956101787205e-07 0.0000000000000000e+00  -1.2288324