<?xml version="1.0"?>
<VTKFile type="UnstructuredGrid"  version="0.1"  >
<UnstructuredGrid>
<Piece  NumberOfPoints="1855" NumberOfCells="3532">
<Points>
<DataArray  type="Float64"  NumberOfComponents="3"  format="ascii">0 0 0  30 0 0  30 -10 0  0 -10 0  0.1391574078963744 0 0  0.2856388821882616 0 0  0.4398299073010886 0 0  0.6021362569539473 0 0  0.7729850389704483 0 0  0.9528258543586996 0 0  1.142131984380316 0 0  1.34140159760994 0 0  1.551159074717981 0 0  1.771956417032531 0 0  2.004374674080994 0 0  2.249025475789527 0 0  2.506552636773105 0 0  2.777633857742732 0 0  3.062982518028728 0 0  3.363349525995907 0 0  3.679525322337712 0 0  4.01234195575742 0 0  4.362675247811097 0 0  4.731447135329707 0 0  5.119628065610077 0 0  5.528239565804708 0 0  5.958356943167011 0 0  6.411112081475485 0 0  6.887696441559404 0 0  7.389364184530748 0 0  7.917435485335147 0 0  8.473300005202017 0 0  9.058420557070402 0 0  9.674336929103793 0 0  10.32266995225095 0 0  11.00512576896296 0 0  11.72350030646412 0 0  12.47968402994705 0 0  13.27566689579597 0 0  14.1135435963616 0 0  14.9955190732806 0 0  15.92391430904694 0 0  16.90117245730496 0 0  17.92986524844506 0 0  19.01269976086341 0 0  20.15252556282024 0 0  21.35234220269763 0 0  22.61530708683689 0 0  23.94474379751883 0 0  25.34415086349739 0 0  26.81721093579712 0 0  28.3678004819169 0 0  30 -1.111111111111111 0  30 -2.222222222222222 0  30 -3.333333333333333 0  30 -4.444444444444445 0  30 -5.555555555555555 0  30 -6.666666666666666 0  30 -7.777777777777777 0  30 -8.888888888888889 0  28.36780047917311 -10 0  26.8172109305839 -10 0  25.34415085606858 -10 0  23.94474378810899 -10 0  22.61530707566275 -10 0  21.3523421899591 -10 0  20.15252554870171 -10 0  19.01269974553473 -10 0  17.92986523206254 -10 0  16.90117244001232 -10 0  15.92391429097614 -10 0  14.99551905455266 -10 0  14.11354357708742 -10 0  13.27566687607703 -10 0  12.47968400987599 -10 0  11.72350028612546 -10 0  11.00512574843363 -10 0  10.32266993160086 -10 0  9.674336908396342 -10 0  9.058420536362949 -10 0  8.473299984546333 -10 0  7.917435464777824 -10 0  7.389364164113587 -10 0  6.887696420787165 -10 0  6.411112061446698 -10 0  5.95835692337857 -10 0  5.528239546282652 -10 0  5.119628046377237 -10 0  4.731447115907979 -10 0  4.362675229213632 -10 0  4.012341937260036 -10 0  3.679525304434552 -10 0  3.363349508456405 -10 0  3.062982500861274 -10 0  2.777633840953978 -10 0  2.506552620368097 -10 0  2.249025459771861 -10 0  2.004374658452946 -10 0  1.771956401795187 -10 0  1.551159059871345 -10 0  1.341401583153029 -10 0  1.142131970307521 -10 0  0.9528258406748833 -10 0  0.7729850256685147 -10 0  0.6021362439621285 -10 0  0.4398298947504031 -10 0  0.2856388700059078 -10 0  0.1391573960769001 -10 0  0 -9.855072463768115 0  0 -9.710144927536232 0  0 -9.565217391304348 0  0 -9.420289855072463 0  0 -9.27536231884058 0  0 -9.130434782608695 0  0 -8.985507246376812 0  0 -8.840579710144928 0  0 -8.695652173913043 0  0 -8.55072463768116 0  0 -8.405797101449275 0  0 -8.260869565217391 0  0 -8.115942028985508 0  0 -7.971014492753623 0  0 -7.826086956521739 0  0 -7.681159420289855 0  0 -7.536231884057971 0  0 -7.391304347826087 0  0 -7.246376811594203 0  0 -7.101449275362318 0  0 -6.956521739130435 0  0 -6.811594202898551 0  0 -6.666666666666667 0  0 -6.521739130434783 0  0 -6.376811594202898 0  0 -6.231884057971015 0  0 -6.086956521739131 0  0 -5.942028985507246 0  0 -5.797101449275362 0  0 -5.652173913043478 0  0 -5.507246376811594 0  0 -5.36231884057971 0  0 -5.217391304347826 0  0 -5.072463768115941 0  0 -4.927536231884058 0  0 -4.782608695652174 0  0 -4.637681159420289 0  0 -4.492753623188406 0  0 -4.347826086956522 0  0 -4.202898550724638 0  0 -4.057971014492754 0  0 -3.913043478260869 0  0 -3.768115942028985 0  0 -3.623188405797101 0  0 -3.478260869565217 0  0 -3.333333333333334 0  0 -3.188405797101449 0  0 -3.043478260869565 0  0 -2.898550724637681 0  0 -2.753623188405797 0  0 -2.608695652173912 0  0 -2.463768115942029 0  0 -2.318840579710145 0  0 -2.173913043478261 0  0 -2.028985507246377 0  0 -1.884057971014492 0  0 -1.739130434782609 0  0 -1.594202898550725 0  0 -1.44927536231884 0  0 -1.304347826086957 0  0 -1.159420289855072 0  0 -1.014492753623188 0  0 -0.8695652173913047 0  0 -0.72463768115942 0  0 -0.579710144927537 0  0 -0.4347826086956523 0  0 -0.2898550724637676 0  0 -0.1449275362318829 0  5.15859856094262 -4.976557621770688 0  2.816777084926057 -7.160262673925935 0  2.81677708460006 -2.839737326002783 0  2.227649803257325 -5.003121586636773 0  1.518662968975629 -8.46230852045241 0  1.518662969184829 -1.537691480152612 0  9.960740911025725 -5.055901393541221 0  1.491099662214591 -3.691833922963321 0  1.503675657181264 -6.345020369042368 0  5.319208041801049 -7.493850249937013 0  5.291109955459268 -2.489368743223226 0  1.096914507335763 -2.53623188405797 0  1.096914507253562 -7.463768115942029 0  1.089580194952752 -4.71277167923441 0  15.07565076110197 -5.047572991082069 0  7.501630508673601 -5.937500100385354 0  0.8894869418764504 -5.623930488933245 0  2.955144522453978 -1.440834296472408 0  2.955144521140721 -8.559165705576945 0  8.106603955004623 -2.748811534843258 0  3.662152539483591 -4.228178367024407 0  3.662181528265114 -5.771746159989156 0  0.8436558190317136 -0.8541050638451999 0  0.8436558075840921 -9.145894948342754 0  0.7854168197005933 -1.811594202898552 0  0.7894693398152999 -3.286543351392342 0  0.7854168196772591 -8.188405797101449 0  0.7854168196772591 -6.739130434782609 0  20.00078956016804 -4.999999999785771 0  0.7379120031523989 -3.977302749614766 0  6.584332478112232 -3.934875417052907 0  7.295091310194352 -7.969791332537982 0  9.811174303464586 -7.412814499648229 0  4.013376806449688 -2.206189431585293 0  4.013376806983409 -7.793810569017377 0  12.11177433894592 -2.818343737884045 0  2.591152707837148 -3.990098461753838 0  2.58990939378082 -6.025895074707176 0  25.43156400064585 -5.044446479916348 0  2.03262751726143 -2.282125834846944 0  2.032627517335952 -7.717874165160392 0  12.51865094522923 -6.491408052923457 0  0.598175343983641 -6.156971652625402 0  2.126700074935224 -0.8767654465386991 0  2.126700059112423 -9.123234559633019 0  6.617961838548696 -1.617756429129908 0  0.5903949564549755 -4.980060355019413 0  1.676697585305984 -5.547101897225158 0  4.773518305133987 -3.729331162566817 0  4.77931803486508 -6.231222307502165 0  4.878549698409591 -8.72048903376362 0  4.852580875634024 -1.222215410052823 0  0.5487847095754042 -2.675169258708207 0  0.545113423825768 -7.32369553390529 0  1.78738026998851 -4.400451872599477 0  1.68244194111824 -3.010100184333533 0  1.683984276238402 -7.018293626028473 0  9.998503440677371 -2.00585287985007 0  3.693061162502273 -3.243678395563028 0  3.694987482168253 -6.757603268814477 0  6.081763036485869 -5.83414381546261 0  0.5196640460586313 -1.350633211792632 0  0.5196640458460706 -8.649366789040087 0  3.84593363904758 -0.9906418103762418 0  3.845933620847308 -9.009358200471317 0  17.41551885287501 -3.057748733689079 0  17.30725517812527 -7.002961443761516 0  8.117698464370697 -4.451550942597151 0  0.4918476668493152 -0.4789811193757592 0  0.4918476560347713 -9.521018882514893 0  1.463770869328428 -0.6252343353791154 0  1.463770854281917 -9.374765668872765 0  0.5034132782032188 -4.464280853772128 0  3.138906271796685 -4.99999841599503 0  14.61209972381335 -2.388610981020637 0  6.208601124947327 -8.776231214192325 0  14.74910972998159 -7.542186851303819 0  2.243794246335625 -1.632184311040998 0  2.243794245689214 -8.367815689183566 0  0.4590235278399923 -5.431413993025926 0  0.4971508861448406 -2.209632053221267 0  0.4971508861368665 -7.790367946777407 0  0.4644363683211541 -3.560571347760519 0  6.478811279411406 -7.007392971062433 0  1.238895267772762 -4.173677632458826 0  1.293241773632479 -2.02256720952064 0  1.293241773542714 -7.977432790434841 0  0.4324740478030531 -0.942028985507247 0  0.4324740423701829 -9.057971014492754 0  2.117396640811705 -3.472968170680347 0  2.107095929630507 -6.531506384346077 0  8.087741545730886 -1.392783601483453 0  1.028911946384717 -1.352376108341404 0  1.028911946221715 -8.647623891551962 0  4.05691976296832 -4.991522392209158 0  11.51826881314265 -8.065248940008736 0  1.618560396201739 -4.958056164503666 0  2.701984523487646 -2.141781914603403 0  2.70198452396172 -7.858218085853512 0  2.843615645746219 -9.289121726447632 0  2.843615661334342 -0.7108782798429658 0  8.678774612240533 -8.488146490452822 0  6.487906449371135 -2.667543558824978 0  8.369190916679937 -7.129867754908394 0  11.80978191929258 -4.655775487536958 0  0.3792065166453504 -3.113833531412848 0  0.4134714637263563 -6.58827691137208 0  9.551050695080825 -3.49648183875815 0  1.083867845277057 -6.036251777836495 0  0.3756430921870901 -1.80381664325008 0  0.3756430921689482 -8.196183356748573 0  3.113073783220456 -3.503408140759125 0  3.113391383189963 -6.496678880796299 0  22.62850736315072 -3.277987336300344 0  22.59385352108348 -6.800312122582239 0  0.3777114402537816 -4.137047872695438 0  0.9196816123347897 -0.4281025456111269 0  0.9196815944880363 -9.571897460530383 0  0.4052043328723194 -5.827814332459883 0  8.865857694874787 -5.767686953139113 0  1.200388325130726 -5.182186034620629 0  5.65297436943758 -4.325500846767599 0  1.200079167961391 -3.009849046583253 0  1.20883344838 -7.021823297793294 0  1.057642414577487 -3.660996704809145 0  10.88812987788297 -6.333458225047037 0  4.493502926606794 -2.839780197438185 0  4.485862892033458 -7.147606077919463 0  0.3631651408878085 -7.003529808558233 0  1.946748828463205 -6.049056369468467 0  6.918750162798794 -4.993796052442676 0  3.351203216022585 -1.980935554775394 0  3.351203216441711 -8.019064445907297 0  2.281892243515294 -2.856654416292082 0  2.281892243715877 -7.143345583598931 0  5.811143619672087 -0.9953286820321026 0  2.695713766833098 -4.565354125099452 0  2.698172168139827 -5.435483248292925 0  19.86166219288896 -2.493475492328429 0  19.83739102036415 -7.594404063416508
[...]
<PointData  Vectors="flow"> 
<DataArray  type="Float64"  Name="flow"  NumberOfComponents="3" format="ascii">-7.7326506273458767e-13 -3.4618409246650996e-13 0.0000000000000000e+00  -5.8080921048165222e-23 -2.6002326901428081e-23 0.0000000000000000e+00  -2.2072046784973383e-23 -9.8814647827390680e-24 0.0000000000000000e+00  1.4164437632851472e-18 6.3412964370668855e-19 0.0000000000000000e+00  3.5537203848187410e-12 1.5909699346140961e-12 0.0000000000000000e+00  -1.7696590260930069e-11 -7.9226106731974707e-12 0.0000000000000000e+00  3.0786073445738318e-11 1.3782659284683510e-11 0.0000000000000000e+00  -1.8321663997796271e-10 -8.2024507885085494e-11 0.0000000000000000e+00  1.8795952225779731e-10 8.4147855333260080e-11 0.0000000000000000e+00  1.6055550704764876e-09 7.1879314321056070e-10 0.0000000000000000e+00  2.5564076836273845e-09 1.1444816487651381e-09 0.0000000000000000e+00  -1.2727661941465192e-08 -5.6980643646886140e-09 0.0000000000000000e+00  -4.4768844534692339e-08 -2.0042625178497558e-08 0.0000000000000000e+00  -5.9504397417316932e-08 -2.6639604982064033e-08 0.0000000000000000e+00  -1.9144690161386107e-07 -8.5709124962067436e-08 0.0000000000000000e+00  -4.4850206596444650e-08 -2.0079050271090340e-08 0.0000000000000000e+00  2.0430300905428069e-06 9.1464693267681140e-07 0.0000000000000000e+00  -3.9813085719774144e-06 -1.7823974743473005e-06 0.0000000000000000e+00  -7.6123355533739698e-06 -3.4079769048092005e-06 0.0000000000000000e+00  -7.3697747183537067e-06 -3.2993845131622133e-06 0.0000000000000000e+00  -1.7632362726603117e-06 -7.8938565605989896e-07 0.0000000000000000e+00  6.1599385428485266e-06 2.7577513027217079e-06 0.0000000000000000e+00  -6.8996343559582062e-06 -3.0889067319571580e-06 0.0000000000000000e+00  -2.2368591446525395e-06 -1.0014225267445545e-06 0.0000000000000000e+00  3.6357815624393054e-06 1.6277080153452373e-06 0.0000000000000000e+00  3.1696615461812680e-06 1.4190301083955519e-06 0.0000000000000000e+00  5.3700611990036482e-06 2.4041300354271648e-06 0.0000000000000000e+00  2.2860636879310545e-06 1.0234509759542702e-06 0.0000000000000000e+00  -1.6073745815494481e-06 -7.1960772260885662e-07 0.0000000000000000e+00  -8.5696198067111445e-08 -3.8365448001464729e-08 0.0000000000000000e+00  -1.9427941899283572e-08 -8.6977218537598033e-09 0.0000000000000000e+00  -5.4968644652528839e-09 -2.4608987629486705e-09 0.0000000000000000e+00  3.6649141475226532e-09 1.6407504221657509e-09 0.0000000000000000e+00  2.5221901084540621e-10 1.1291627357834842e-10 0.0000000000000000e+00  5.6816252355696263e-11 2.5436145646549104e-11 0.0000000000000000e+00  -1.7289444666679567e-11 -7.7403351058145386e-12 0.0000000000000000e+00  5.1985025780502491e-12 2.3273247220078217e-12 0.0000000000000000e+00  -9.9198794289091570e-13 -4.4410443753008641e-13 0.0000000000000000e+00  1.8572597953130320e-13 8.3147917538291918e-14 0.0000000000000000e+00  1.9214279013375068e-14 8.6020668244346332e-15 0.0000000000000000e+00  -6.8492294620397328e-15 -3.0663408961293647e-15 0.0000000000000000e+00  4.0103516675031707e-15 1.7953998174655133e-15 0.0000000000000000e+00  -9.4089060603230307e-16 -4.2122860097632009e-16 0.0000000000000000e+00  2.0886951061355695e-16 9.3509076590075566e-17 0.0000000000000000e+00  -2.0113377317069347e-17 -9.0045853724753815e-18 0.0000000000000000e+00  4.6380424707719904e-18 2.0764115708101410e-18 0.0000000000000000e+00  -5.8605473052858234e-19 -2.6237164305117262e-19 0.0000000000000000e+00  9.8563021453211713e-20 4.4125813743441686e-20 0.0000000000000000e+00  1.7520890782433641e-21 7.8439515336069240e-22 0.0000000000000000e+00  1.1817139899267811e-21 5.2904315075488518e-22 0.0000000000000000e+00  -1.1950798650859006e-21 -5.3502693766699161e-22 0.0000000000000000e+00  2.7801054217042031e-22 1.2446291947684061e-22 0.0000000000000000e+00  2.6301154879610743e-23 1.1774799963960506e-23 0.0000000000000000e+00  -2.3131237785866509e-24 -1.0355655449127341e-24 0.0000000000000000e+00  7.1982047432230293e-24 3.2225741165757243e-24 0.0000000000000000e+00  -9.3650216879852446e-24 -4.1926393551510091e-24 0.0000000000000000e+00  -2.3350848604828663e-24 -1.0453973316728098e-24 0.0000000000000000e+00  7.3226128908427924e-24 3.2782705701654943e-24 0.0000000000000000e+00  -8.2627821384132031e-25 -3.6991762251864086e-25 0.0000000000000000e+00  1.0885785392857958e-23 4.8734721360419138e-24 0.0000000000000000e+00  1.0862026309808157e-22 4.8628353996887351e-23 0.0000000000000000e+00  -4.4892555574468967e-22 -2.0098009542924524e-22 0.0000000000000000e+00  8.1284421128104178e-22 3.6390333555722465e-22 0.0000000000000000e+00  8.6806389673725919e-21 3.8862471198711768e-21 0.0000000000000000e+00  -1.1272096409419251e-19 -5.0464202428723760e-20 0.0000000000000000e+00  6.0375140465479450e-19 2.7029429127013290e-19 0.0000000000000000e+00  -3.1964484419570760e-18 -1.4310223703650100e-18 0.0000000000000000e+00  7.3373242918987010e-18 3.2848567374047572e-18 0.0000000000000000e+00  -7.2083134556699745e-17 -3.2270996998628769e-17 0.0000000000000000e+00  1.8015424268022208e-16 8.0653499054631889e-17 0.0000000000000000e+00  -1.4423675689986585e-15 -6.4573550770689863e-16 0.0000000000000000e+00  3.8318251926905267e-15 1.7154750560315758e-15 0.0000000000000000e+00  -9.4875160085826930e-15 -4.2474790049062545e-15 0.0000000000000000e+00  -6.2704154114697091e-14 -2.8072108429819522e-14 0.0000000000000000e+00  1.4442876697608741e-13 6.4659512024061607e-14 0.0000000000000000e+00  -1.1934069836492321e-12 -5.3427800309091139e-13 0.0000000000000000e+00  7.4833433146518427e-12 3.3502281932104576e-12 0.0000000000000000e+00  -2.8281689216262685e-11 -1.2661468087188467e-11 0.0000000000000000e+00  -5.4371317241545430e-11 -2.4341569304720582e-11 0.0000000000000000e+00  7.1575107023314628e-11 3.2043557458077202e-11 0.0000000000000000e+00  -2.4951309003278976e-10 -1.1170485619258296e-10 0.0000000000000000e+00  2.3398825316809394e-10 1.0475452076466509e-10 0.0000000000000000e+00  4.2217371458946189e-10 1.8900352711076997e-10 0.0000000000000000e+00  -2.0834416270289384e-10 -9.3273882866155240e-11 0.0000000000000000e+00  -2.9937990396281673e-10 -1.3402979825515751e-10 0.0000000000000000e+00  3.0373377360957416e-11 1.3597898810611414e-11 0.0000000000000000e+00  1.9264000249182459e-09 8.6243265924285589e-10 0.0000000000000000e+00  6.7713381445310018e-10 3.0314696257690768e-10 0.0000000000000000e+00  1.5714885630714370e-10 7.0354186196449561e-11 0.0000000000000000e+00  5.4240266908064927e-11 2.4282899201867417e-11 0.0000000000000000e+00  -4.3239303873370025e-11 -1.9357863029981416e-11 0.0000000000000000e+00  -6.0987699591769828e-11 -2.7303666559216638e-11 0.0000000000000000e+00  5.3408004411646604e-11 2.3910302467705403e-11 0.0000000000000000e+00  3.0957133415754167e-11 1.3859241356383267e-11 0.0000000000000000e+00  1.5191707292047926e-11 6.8011961943760895e-12 0.0000000000000000e+00  -1.2164345129139202e-11 -5.4458722913049268e-12 0.0000000000000000e+00  -1.1553632757953816e-13 -5.1724616354177741e-14 0.0000000000000000e+00  1.0134312978417892e-12 4.5370444240662048e-13 0.0000000000000000e+00  4.0084097324587773e-13 1.7945304299121759e-13 0.0000000000000000e+00  7.4453726297259588e-14 3.3332290453957164e-14 0.0000000000000000e+00  3.0077054297331290e-14 1.3465237533383032e-14 0.0000000000000000e+00  -2.7938244791460700e-15 -1.2507710983392437e-15 0.0000000000000000e+00  -4.7181670441267109e-15 -2.1122826505314674e-15 0.0000000000000000e+00  -2.1987901912051280e-16 -9.8437938496113947e-17 0.0000000000000000e+00  3.6311124912400726e-16 1.6256177124805763e-16 0.0000000000000000e+00  -5.6745348364394568e-17 -2.5404402541805375e-17 0.0000000000000000e+00  3.9654266354795256e-17 1.7752872684966823e-17 0.0000000000000000e+00  -9.7213082506335634e-18 -4.3521457731860308e-18 0.0000000000000000e+00  5.4999290223716885e-18 2.4622707387123692e-18 0.0000000000000000e+00  -1.5111663688030859e-17 -6.7653613639281673e-18 0.0000000000000000e+00  1.1947293196568748e-18 5.3487000150491246e-19 0.0000000000000000e+00  -1.0921853562348180e-16 -4.8896195441218111e-17 0.0000000000000000e+00  -9.7722971376419973e-17 -4.3749730576782117e-17 0.0000000000000000e+00  -4.5277064318418997e-15 -2.0270150787867170e-15 0.0000000000000000e+00  5.5847041883784903e-15 2.5002238486123238e-15 0.0000000000000000e+00  -6.6831045270661143e-15 -2.9919681970104884e-15 0.0000000000000000e+00  -2.4284021057148262e-14 -1.0871746566923308e-14 0.0000000000000000e+00  1.6484331691979689e-13 7.3798929781257014e-14 0.0000000000000000e+00  -5.2721649992173414e-13 -2.3603027519868775e-13 0.0000000000000000e+00  -1.1163166978137000e-12 -4.9976534769487032e-13 0.0000000000000000e+00  8.0816548107715782e-13 3.6180870843958516e-13 0.0000000000000000e+00  3.1658938708840044e-12 1.4173433526938556e-12 0.0000000000000000e+00  2.3531635774189593e-12 1.0534910171593212e-12 0.0000000000000000e+00  1.9519375067799341e-11 8.7386556938999709e-12 0.0000000000000000e+00  5.6932796868536694e-12 2.5488321618740208e-12 0.0000000000000000e+00  3.5950395074308980e-12 1.6094681490716686e-12 0.0000000000000000e+00  -4.6475336021366204e-10 -2.0806606683787371e-10 0.0000000000000000e+00  -4.0834322105159361e-10 -1.8281173456186229e-10 0.0000000000000000e+00  -1.7605731465354413e-10 -7.8819339748636251e-11 0.0000000000000000e+00  -4.7798590652811328e-10 -2.1399016357734014e-10 0.0000000000000000e+00  3.8176738456308351e-10 1.7091396201310893e-10 0.0000000000000000e+00  1.6444102583868576e-09 7.3618827537493986e-10 0.0000000000000000e+00  5.7263246243200641e-09 2.5636260950784612e-09 0.0000000000000000e+00  -1.4339897555582908e-08 -6.4198483296097094e-09 0.0000000000000000e+00  -1.4960252204756747e-07 -6.6975757501039797e-08 0.0000000000000000e+00  -1.6960260715544033e-07 -7.5929622929586099e-08 0.0000000000000000e+00  2.5184679830729847e-07 1.1274963723860008e-07 0.0000000000000000e+00  8.4901681285680945e-07 3.8009749698018562e-07 0.0000000000000000e+00  -1.6811194104252890e-07 -7.5262264580763740e-08 0.0000000000000000e+00  -1.2309919697800633e-06 -5.5110447688510426e-07 0.0000000000000000e+00  -2.2906431919003484e-07 -1.0255011803433700e-07 0.0000000000000000e+00  -1.5554170589148460e-06 -6.9634678830974492e-07 0.0000000000000000e+00  3.7546290993426894e-06 1.6809150315257852e-06 0.0000000000000000e+00  -1.4047000924669183e-05 -6.2887210367241531e-06 0.0000000000000000e+00  -1.9902171260502728e-07 -8.9100302444352631e-08 0.0000000000000000e+00  -1.2483501244225785e-05 -5.5887557285388088e-06 0.0000000000000000e+00  -2.3316910388190503e-06 -1.0438779470150764e-06 0.0000000000000000e+00  6.4827487031444716e-06 2.9022706244479711e-06 0.0000000000000000e+00  -8.0066610918096885e-06 -3.5845130438880629e-06 0.0000000000000000e+00  5.8531193838679136e-06 2.6203910142231967e-06 0.0000000000000000e+00  2.0555698203115941e-05 9.2026086143033715e-06 0.0000000000000000e+00  3.0672208524707319e-07 1.3731682942611247e-07 0.0000000000000000e+00  1.0314905128196885e-05 4.6178939703482070e-06 0.0000000000000000e+00  8.7530366453229751e-06 3.9186589352314942e-06 0.0000000000000000e+00  -1.9181315193639341e-08 -8.5873092069382970e-09 0.0000000000000000e+00  -1.7963115445237611e-06 -8.0419316971199309e-07 0.0000000000000000e+00  -1.2907760016873942e-06 -5.7786927181407281e-07 0.0000000000000000e+00  8.4182952109816527e-07 3.7687980851258645e-07 0.0000000000000000e+00  -3.7201072720616586e-07 -1.6654599075023260e-07 0.0000000000000000e+00  -2.0915658656715664e-07 -9.3637598015981386e-08 0.0000000000000000e+00  2.1622999007148203e-07 9.6804299695396153e-08 0.0000000000000000e+00  1.7564212128884539e-08 7.8633461263904895e-09 0.0000000000000000e+00  -8.5389883275945299e-10 -3.8228313514084425e-10 0.0000000000000000e+00  1.4485078021456850e-08 6.4848443707404064e-09 0.0000000000000000e+00  8.2200426731983858e-09 3.6800421356084366e-09 0.0000000000000000e+00  1.3780085989057563e-08 6.1692255245078309e-09 0.0000000000000000e+00  9.5827511103005251e-10 4.2901149377163306e-10 0.0000000000000000e+00  3.2295584524010531e-09 1.4458454361796892e-09 0.0000000000000000e+00  -1.8804800177233791e-09 -8.4187466848016350e-10 0.0000000000000000e+00  -5.7865697213709917e-10 -2.5905973048915260e-10 0.0000000000000000e+00  5.5401751245160512e-10 2.4802885711706092e-10 0.0000000000000000e+00  -9.5862929665908650e-12 -4.2917005961983004e-12 0.0000000000000000e+00  3.9857114546304469e-11 1.7843686068980044e-11 0.0000000000000000e+00  -1.2921928462739494e-12 -5.7850358090289722e-13 0.0000000000000000e+00  4.7031294507982746e-12 2.1055504498280360e-12 0.0000000000000000e+00  -2.2517222560481153e-12 -1.0080766133930652e-12 0.0000000000000000e+00  1.9177603730606216e-01 8.5856476169814927e-02 0.0000000000000000e+00  5.2021086297011291e-04 2.3289391201984394e-04 0.0000000000000000e+00  -2.5946720256513146e+02 -1.1616122643273312e+02 0.0000000000000000e+00  9.8329148460542470e+01 4.4021110823807248e+01 0.0000000000000000e+00  1.5057882943205453e-09 6.7412841887953353e-10 0.0000000000000000e+00  -6.7815164436979287e-04 -3.0360263624299762e-04 0.0000000000000000e+00  8.2829871387631193e-10 3.7082218293996819e-10 0.0000000000000000e+00  -2.7497648714910805e+00 -1.2310459923884618e+00 0.0000000000000000e+00  -1.8492981615746726e-03 -8.2791482069642121e-04 0.0000000000000000e+00  -2.7849058785909250e-05 -1.2467783178710052e-05 0.0000000000000000e+00  -3.9845079921694844e-02 -1.7838298271445344e-02 0.0000000000000000e+00  -2.1257174341633839e-04 -9.5166534252006651e-05 0.0000000000000000e+00  2.1724013486435942e-07 9.7256532797904962e-08 0.0000000000000000e+00  1.4186671377342938e-01 6.3512502925167982e-02 0.0000000000000000e+00  -2.2253815317735228e-14 -9.9628409855259807e-15 0.0000000000000000e+00  -4.6064206707559535e-06 -2.0622547639553224e-06 0.0000000000000000e+00  1.8685128090500677e-03 8.3651705247811978e-04 0.0000000000000000e+00  -4.0809691937132964e-02 -1.8270146742609700e-02 0.0000000000000000e+00  1.6238077060320405e-07 7.2696469056144545e-08 0.0000000000000000e+00  9.5272895216789304e-07 4.2652852633278235e-07 0.0000000000000000e+00  -2.3266013131347513e+03 -1.0415993207692557e+03 0.0000000000000000e+00  4.1995412210557170e-01 1.8800983471897423e-01 0.0000000000000000e+00  9.2948145384042928e-08 4.1612082204293867e-08 0.0000000000000000e+00  -2.0969996003918933e-13 -9.3880861628100156e-14 0.0000000000000000e+00  -1.7215398039734203e-05 -7.7071850702256537e-06 0.0000000000000000e+00  -5.7761964288065293e-03 -2.5859532713700594e-03 0.0000000000000000e+00  2.4685194291341117e-10 1.1051348360271843e-10 0.0000000000000000e+00  1.4484032913163606e-07 6.4843764847806856e-08 0.0000000000000000e+00  -3.5380322261003573e-18 -1.5839464814023476e-18 0.0000000000000000e+00  2.4611137218916088e-02 1.1018193648331894e-02 0.0000000000000000e+00  1.9197598344826187e-03 8.5945990331407537e-04 0.0000000000000000e+00  1.0174640109798922e-07 4.5550985326141176e-08 0.0000000000000000e+00  -6.1100684293603956e-10 -2.7354248834754532e-10 0.0000000000000000e+00  -4.0069634045377167e-02 -1.7938829213890142e-02 0.0000000000000000e+00  3.0469041074222935e-06 1.3640726629110684e-06 0.0000000000000000e+00  -2.0001811291494817e-11 -8.9546382260505469e-12 0.0000000000000000e+00  1.4688437801400769e+04 6.5758867884789161e+03 0.0000000000000000e+00  -9.9466344716878496e-03 -4.4530223769585434e-03 0.0000000000000000e+00  -2.5669543296876322e-21 -1.1492032911499871e-21 0.0000000000000000e+00  -5.2043564968920519e-01 -2.3299454709324613e-01 0.0000000000000000e+00  1.0325325403223993e-06 4.6225590375125700e-07 0.0000000000000000e+00  1.0299763190771708e-12 4.6111150556935264e-13 0.0000000000000000e+00  6.8482779896939883e-06 3.0659149301748728e-06 0.0000000000000000e+00  -4.2467021408639766e-05 -1.9012118838158136e-05 0.0000000000000000e+00  1.5414596422158608e-10 6.9009817335741774e-11 0.0000000000000000e+00  -9.8971118762493178e-05 -4.4308515385427237e-05 0.0000000000000000e+00  2.1982833081194382e-04 9.8415245777994038e-05 0.0000000000000000e+00  5.5276038885201505e-03 2.4746605373512868e-03 0.0000000000000000e+00  -9.6135428592809493e+00 -4.3039001378889070e+00 0.0000000000000000e+00  -2.0232123447754373e-04 -9.0577469899675767e-05 0.0000000000000000e+00  4.6680392606967747e-09 2.0898408746768736e-09 0.0000000000000000e+00  1.3212544128964407e-04 5.9151419337165689e-05 0.0000000000000000e+00  -3.4651954243362947e-05 -1.5513380741018990e-05 0.0000000000000000e+00  -2.2812933372722954e-08 -1.0213153311500038e-08 0.0000000000000000e+00  1.1432582002462314e+02 5.1182682572971977e+01 0.0000000000000000e+00  8.9540188443066326e-01 4.0086369305013392e-01 0.0000000000000000e+00  -8.5037125261316259e-06 -3.8070386796531022e-06 0.0000000000000000e+00  -1.0719448162459035e-09 -4.7990043940940086e-10 0.0000000000000000e+00  -3.0950965044739428e+02 -1.3856479829935699e+02 0.0000000000000000e+00  -1.3511857853143336e-04 -6.0491421038538866e-05 0.0000000000000000e+00  1.4401823003182138e-03 6.4475718178556483e-04 0.0000000000000000e+00  -2.6440569459378865e-07 -1.1837214667662453e-07 0.0000000000000000e+00  2.9133584602271136e-12 1.3042854296515977e-12 0.0000000000000000e+00  -2.0689186500467399e-04 -9.2623701725329520e-05 0.0000000000000000e+00  -5.2401068858791702e-09 -2.3459506114247261e-09 0.0000000000000000e+00  1.0032934975312509e-15 4.4916583673407219e-16 0.0000000000000000e+00  -3.0475375157292690e-16 -1.3643562343414628e-16 0.0000000000000000e+00  -1.8423462239329183e-06 -8.2480249823498026e-07 0.0000000000000000e+00  3.5794548658278967e-10 1.6024910395787349e-10 0.0000000000000000e+00  -6.3137591374065936e-16 -2.8266154548682225e-16 0.0000000000000000e+00  -1.0946218732263004e-06 -4.9005276203317027e-07 0.0000000000000000e+00  2.9665498464722407e-12 1.3280987540363599e-12 0.0000000000000000e+00  4.0043529249500384e-04 1.7927142322156744e-04 0.0000000000000000e+00  -1.1608241833888783e+02 -5.1969096472368093e+01 0.0000000000000000e+00  -3.3499513152115880e-14 -1.4997442814270307e-14 0.0000000000000000e+00  2.2863520562652744e-08 1.0235800759678220e-08 0.0000000000000000e+00  -5.9271151992572488e-15 -2.6535183019171234e-15 0.0000000000000000e+00  1.3677222510979246e-02 6.1231744334620634e-03 0.0000000000000000e+00  -2.9724622182296719e-08 -1.3307456718266616e-08 0.0000000000000000e+00  5.7334432456778250e-05 2.5668130404004559e-05 0.0000000000000000e+00  7.3187024644556143e-06 3.2765199060333052e-06 0.0000000000000000e+00  1.1649009357940561e-09 5.2151609157812116e-10 0.0000000000000000e+00  9.8765959946052950e-04 4.4216667554581652e-04 0.0000000000000000e+00  -6.0537193157516732e-06 -2.7101978718128004e-06 0.0000000000000000e+00  -1.6103837736487565e+00 -7.2095491193132788e-01 0.0000000000000000e+00  -1.5499047578960866e-03 -6.9387897873506531e-04 0.0000000000000000e+00  2.3561137648486509e-09 1.0548117906006329e-09 0.0000000000000000e+00  1.3062417298245487e-08 5.8479314477499737e-09 0.0000000000000000e+00  -6.2021112306593377e-14 -2.7766316509492971e-14 0.0000000000000000e+00  2.5108818177438795e+02 1.1241001116646517e+02 0.0000000000000000e+00  1.6312930488727106e-03 7.3031581392519129e-04 0.0000000000000000e+00  -1.9867981621392680e-07 -8.8947238381877961e-08 0.0000000000000000e+00  -8.9669004588130299e-06 -4.0144039181001905e-06 0.0000000000000000e+00  1.6425626938270598e-11 7.3536113667279344e-12 0.0000000000000000e+00  2.6228343893691910e+01 1.1742203114191090e+01 0.0000000000000000e+00  -1.2542803675404777e-11 -5.6153049149796776e-12 0.0000000000000000e+00  2.7588969260472167e+00 1.2351343343700460e+00 0.0000000000000000e+00  4.7499609062171838e-01 2.1265164880914819e-01 0.0000000000000000e+00  -8.0195764780095277e-07 -3.5902951507824779e-07 0.0000000000000000e+00  -1.8506058987895289e-10 -8.2850028335693086e-11 0.0000000000000000e+00  -1.6054607447186489e-04 -7.1875091438315374e-05 0.0000000000000000e+00  5.8392261310593188e-09 2.6141711248906242e-09 0.0000000000000000e+00  -6.4250868869102681e-04 -2.8764559271533358e-04 0.0000000000000000e+00  1.2541042911650819e-07 5.6145166362488985e-08 0.0000000000000000e+00  -4.7511939