<?xml version="1.0"?>
<VTKFile type="UnstructuredGrid"  version="0.1"  >
<UnstructuredGrid>
<Piece  NumberOfPoints="1855" NumberOfCells="3532">
<Points>
<DataArray  type="Float64"  NumberOfComponents="3"  format="ascii">0 0 0  30 0 0  30 -10 0  0 -10 0  0.1391574078963744 0 0  0.2856388821882616 0 0  0.4398299073010886 0 0  0.6021362569539473 0 0  0.7729850389704483 0 0  0.9528258543586996 0 0  1.142131984380316 0 0  1.34140159760994 0 0  1.551159074717981 0 0  1.771956417032531 0 0  2.004374674080994 0 0  2.249025475789527 0 0  2.506552636773105 0 0  2.777633857742732 0 0  3.062982518028728 0 0  3.363349525995907 0 0  3.679525322337712 0 0  4.01234195575742 0 0  4.362675247811097 0 0  4.731447135329707 0 0  5.119628065610077 0 0  5.528239565804708 0 0  5.958356943167011 0 0  6.411112081475485 0 0  6.887696441559404 0 0  7.389364184530748 0 0  7.917435485335147 0 0  8.473300005202017 0 0  9.058420557070402 0 0  9.674336929103793 0 0  10.32266995225095 0 0  11.00512576896296 0 0  11.72350030646412 0 0  12.47968402994705 0 0  13.27566689579597 0 0  14.1135435963616 0 0  14.9955190732806 0 0  15.92391430904694 0 0  16.90117245730496 0 0  17.92986524844506 0 0  19.01269976086341 0 0  20.15252556282024 0 0  21.35234220269763 0 0  22.61530708683689 0 0  23.94474379751883 0 0  25.34415086349739 0 0  26.81721093579712 0 0  28.3678004819169 0 0  30 -1.111111111111111 0  30 -2.222222222222222 0  30 -3.333333333333333 0  30 -4.444444444444445 0  30 -5.555555555555555 0  30 -6.666666666666666 0  30 -7.777777777777777 0  30 -8.888888888888889 0  28.36780047917311 -10 0  26.8172109305839 -10 0  25.34415085606858 -10 0  23.94474378810899 -10 0  22.61530707566275 -10 0  21.3523421899591 -10 0  20.15252554870171 -10 0  19.01269974553473 -10 0  17.92986523206254 -10 0  16.90117244001232 -10 0  15.92391429097614 -10 0  14.99551905455266 -10 0  14.11354357708742 -10 0  13.27566687607703 -10 0  12.47968400987599 -10 0  11.72350028612546 -10 0  11.00512574843363 -10 0  10.32266993160086 -10 0  9.674336908396342 -10 0  9.058420536362949 -10 0  8.473299984546333 -10 0  7.917435464777824 -10 0  7.389364164113587 -10 0  6.887696420787165 -10 0  6.411112061446698 -10 0  5.95835692337857 -10 0  5.528239546282652 -10 0  5.119628046377237 -10 0  4.731447115907979 -10 0  4.362675229213632 -10 0  4.012341937260036 -10 0  3.679525304434552 -10 0  3.363349508456405 -10 0  3.062982500861274 -10 0  2.777633840953978 -10 0  2.506552620368097 -10 0  2.249025459771861 -10 0  2.004374658452946 -10 0  1.771956401795187 -10 0  1.551159059871345 -10 0  1.341401583153029 -10 0  1.142131970307521 -10 0  0.9528258406748833 -10 0  0.7729850256685147 -10 0  0.6021362439621285 -10 0  0.4398298947504031 -10 0  0.2856388700059078 -10 0  0.1391573960769001 -10 0  0 -9.855072463768115 0  0 -9.710144927536232 0  0 -9.565217391304348 0  0 -9.420289855072463 0  0 -9.27536231884058 0  0 -9.130434782608695 0  0 -8.985507246376812 0  0 -8.840579710144928 0  0 -8.695652173913043 0  0 -8.55072463768116 0  0 -8.405797101449275 0  0 -8.260869565217391 0  0 -8.115942028985508 0  0 -7.971014492753623 0  0 -7.826086956521739 0  0 -7.681159420289855 0  0 -7.536231884057971 0  0 -7.391304347826087 0  0 -7.246376811594203 0  0 -7.101449275362318 0  0 -6.956521739130435 0  0 -6.811594202898551 0  0 -6.666666666666667 0  0 -6.521739130434783 0  0 -6.376811594202898 0  0 -6.231884057971015 0  0 -6.086956521739131 0  0 -5.942028985507246 0  0 -5.797101449275362 0  0 -5.652173913043478 0  0 -5.507246376811594 0  0 -5.36231884057971 0  0 -5.217391304347826 0  0 -5.072463768115941 0  0 -4.927536231884058 0  0 -4.782608695652174 0  0 -4.637681159420289 0  0 -4.492753623188406 0  0 -4.347826086956522 0  0 -4.202898550724638 0  0 -4.057971014492754 0  0 -3.913043478260869 0  0 -3.768115942028985 0  0 -3.623188405797101 0  0 -3.478260869565217 0  0 -3.333333333333334 0  0 -3.188405797101449 0  0 -3.043478260869565 0  0 -2.898550724637681 0  0 -2.753623188405797 0  0 -2.608695652173912 0  0 -2.463768115942029 0  0 -2.318840579710145 0  0 -2.173913043478261 0  0 -2.028985507246377 0  0 -1.884057971014492 0  0 -1.739130434782609 0  0 -1.594202898550725 0  0 -1.44927536231884 0  0 -1.304347826086957 0  0 -1.159420289855072 0  0 -1.014492753623188 0  0 -0.8695652173913047 0  0 -0.72463768115942 0  0 -0.579710144927537 0  0 -0.4347826086956523 0  0 -0.2898550724637676 0  0 -0.1449275362318829 0  5.15859856094262 -4.976557621770688 0  2.816777084926057 -7.160262673925935 0  2.81677708460006 -2.839737326002783 0  2.227649803257325 -5.003121586636773 0  1.518662968975629 -8.46230852045241 0  1.518662969184829 -1.537691480152612 0  9.960740911025725 -5.055901393541221 0  1.491099662214591 -3.691833922963321 0  1.503675657181264 -6.345020369042368 0  5.319208041801049 -7.493850249937013 0  5.291109955459268 -2.489368743223226 0  1.096914507335763 -2.53623188405797 0  1.096914507253562 -7.463768115942029 0  1.089580194952752 -4.71277167923441 0  15.07565076110197 -5.047572991082069 0  7.501630508673601 -5.937500100385354 0  0.8894869418764504 -5.623930488933245 0  2.955144522453978 -1.440834296472408 0  2.955144521140721 -8.559165705576945 0  8.106603955004623 -2.748811534843258 0  3.662152539483591 -4.228178367024407 0  3.662181528265114 -5.771746159989156 0  0.8436558190317136 -0.8541050638451999 0  0.8436558075840921 -9.145894948342754 0  0.7854168197005933 -1.811594202898552 0  0.7894693398152999 -3.286543351392342 0  0.7854168196772591 -8.188405797101449 0  0.7854168196772591 -6.739130434782609 0  20.00078956016804 -4.999999999785771 0  0.7379120031523989 -3.977302749614766 0  6.584332478112232 -3.934875417052907 0  7.295091310194352 -7.969791332537982 0  9.811174303464586 -7.412814499648229 0  4.013376806449688 -2.206189431585293 0  4.013376806983409 -7.793810569017377 0  12.11177433894592 -2.818343737884045 0  2.591152707837148 -3.990098461753838 0  2.58990939378082 -6.025895074707176 0  25.43156400064585 -5.044446479916348 0  2.03262751726143 -2.282125834846944 0  2.032627517335952 -7.717874165160392 0  12.51865094522923 -6.491408052923457 0  0.598175343983641 -6.156971652625402 0  2.126700074935224 -0.8767654465386991 0  2.126700059112423 -9.123234559633019 0  6.617961838548696 -1.617756429129908 0  0.5903949564549755 -4.980060355019413 0  1.676697585305984 -5.547101897225158 0  4.773518305133987 -3.729331162566817 0  4.77931803486508 -6.231222307502165 0  4.878549698409591 -8.72048903376362 0  4.852580875634024 -1.222215410052823 0  0.5487847095754042 -2.675169258708207 0  0.545113423825768 -7.32369553390529 0  1.78738026998851 -4.400451872599477 0  1.68244194111824 -3.010100184333533 0  1.683984276238402 -7.018293626028473 0  9.998503440677371 -2.00585287985007 0  3.693061162502273 -3.243678395563028 0  3.694987482168253 -6.757603268814477 0  6.081763036485869 -5.83414381546261 0  0.5196640460586313 -1.350633211792632 0  0.5196640458460706 -8.649366789040087 0  3.84593363904758 -0.9906418103762418 0  3.845933620847308 -9.009358200471317 0  17.41551885287501 -3.057748733689079 0  17.30725517812527 -7.002961443761516 0  8.117698464370697 -4.451550942597151 0  0.4918476668493152 -0.4789811193757592 0  0.4918476560347713 -9.521018882514893 0  1.463770869328428 -0.6252343353791154 0  1.463770854281917 -9.374765668872765 0  0.5034132782032188 -4.464280853772128 0  3.138906271796685 -4.99999841599503 0  14.61209972381335 -2.388610981020637 0  6.208601124947327 -8.776231214192325 0  14.74910972998159 -7.542186851303819 0  2.243794246335625 -1.632184311040998 0  2.243794245689214 -8.367815689183566 0  0.4590235278399923 -5.431413993025926 0  0.4971508861448406 -2.209632053221267 0  0.4971508861368665 -7.790367946777407 0  0.4644363683211541 -3.560571347760519 0  6.478811279411406 -7.007392971062433 0  1.238895267772762 -4.173677632458826 0  1.293241773632479 -2.02256720952064 0  1.293241773542714 -7.977432790434841 0  0.4324740478030531 -0.942028985507247 0  0.4324740423701829 -9.057971014492754 0  2.117396640811705 -3.472968170680347 0  2.107095929630507 -6.531506384346077 0  8.087741545730886 -1.392783601483453 0  1.028911946384717 -1.352376108341404 0  1.028911946221715 -8.647623891551962 0  4.05691976296832 -4.991522392209158 0  11.51826881314265 -8.065248940008736 0  1.618560396201739 -4.958056164503666 0  2.701984523487646 -2.141781914603403 0  2.70198452396172 -7.858218085853512 0  2.843615645746219 -9.289121726447632 0  2.843615661334342 -0.7108782798429658 0  8.678774612240533 -8.488146490452822 0  6.487906449371135 -2.667543558824978 0  8.369190916679937 -7.129867754908394 0  11.80978191929258 -4.655775487536958 0  0.3792065166453504 -3.113833531412848 0  0.4134714637263563 -6.58827691137208 0  9.551050695080825 -3.49648183875815 0  1.083867845277057 -6.036251777836495 0  0.3756430921870901 -1.80381664325008 0  0.3756430921689482 -8.196183356748573 0  3.113073783220456 -3.503408140759125 0  3.113391383189963 -6.496678880796299 0  22.62850736315072 -3.277987336300344 0  22.59385352108348 -6.800312122582239 0  0.3777114402537816 -4.137047872695438 0  0.9196816123347897 -0.4281025456111269 0  0.9196815944880363 -9.571897460530383 0  0.4052043328723194 -5.827814332459883 0  8.865857694874787 -5.767686953139113 0  1.200388325130726 -5.182186034620629 0  5.65297436943758 -4.325500846767599 0  1.200079167961391 -3.009849046583253 0  1.20883344838 -7.021823297793294 0  1.057642414577487 -3.660996704809145 0  10.88812987788297 -6.333458225047037 0  4.493502926606794 -2.839780197438185 0  4.485862892033458 -7.147606077919463 0  0.3631651408878085 -7.003529808558233 0  1.946748828463205 -6.049056369468467 0  6.918750162798794 -4.993796052442676 0  3.351203216022585 -1.980935554775394 0  3.351203216441711 -8.019064445907297 0  2.281892243515294 -2.856654416292082 0  2.281892243715877 -7.143345583598931 0  5.811143619672087 -0.9953286820321026 0  2.695713766833098 -4.565354125099452 0  2.698172168139827 -5.435483248292925 0  19.86166219288896 -2.493475492328429 0  19.83739102036415 -7.594404063416508
[...]
<PointData  Vectors="flow"> 
<DataArray  type="Float64"  Name="flow"  NumberOfComponents="3" format="ascii">-2.2708341518381141e-14 -1.0669764428959003e-14 0.0000000000000000e+00  -1.7056523751371945e-24 -8.0141955878535977e-25 0.0000000000000000e+00  -6.4818598506227583e-25 -3.0455732582536292e-25 0.0000000000000000e+00  4.1596459310486520e-20 1.9544554654615258e-20 0.0000000000000000e+00  1.0436149264769728e-13 4.9035397019379006e-14 0.0000000000000000e+00  -5.1969270916613339e-13 -2.4418334459880210e-13 0.0000000000000000e+00  9.0408930069008920e-13 4.2479631783313154e-13 0.0000000000000000e+00  -5.3804914161729209e-12 -2.5280831660970055e-12 0.0000000000000000e+00  5.5197748207678257e-12 2.5935270081621777e-12 0.0000000000000000e+00  4.7150058400430788e-11 2.2153974368275245e-11 0.0000000000000000e+00  7.5073582834234168e-11 3.5274149943131659e-11 0.0000000000000000e+00  -3.7377104957410576e-10 -1.7562044529286136e-10 0.0000000000000000e+00  -1.3147189237826044e-09 -6.1773516994626053e-10 0.0000000000000000e+00  -1.7474553597693096e-09 -8.2106115163753080e-10 0.0000000000000000e+00  -5.6221880878842544e-09 -2.6416470099530633e-09 0.0000000000000000e+00  -1.3171082693950571e-09 -6.1885783030450578e-10 0.0000000000000000e+00  5.9997311742376211e-08 2.8190397882813201e-08 0.0000000000000000e+00  -1.1691840107556106e-07 -5.4935398777449657e-08 0.0000000000000000e+00  -2.2355014319050369e-07 -1.0503749751922750e-07 0.0000000000000000e+00  -2.1642690105003399e-07 -1.0169056372629839e-07 0.0000000000000000e+00  -5.1780655026064863e-08 -2.4329711205818095e-08 0.0000000000000000e+00  1.8089785107911311e-07 8.4996848191520894e-08 0.0000000000000000e+00  -2.0262037024273554e-07 -9.5203413126779840e-08 0.0000000000000000e+00  -6.5689456091098261e-08 -3.0864914612594197e-08 0.0000000000000000e+00  1.0677136907508726e-07 5.0167704007202819e-08 0.0000000000000000e+00  9.3082903078306415e-08 4.3736027459567500e-08 0.0000000000000000e+00  1.5770165957108298e-07 7.4097862070523403e-08 0.0000000000000000e+00  6.7134437413638264e-08 3.1543855005633091e-08 0.0000000000000000e+00  -4.7203491667795948e-08 -2.2179080577594617e-08 0.0000000000000000e+00  -2.5166254449061271e-09 -1.1824641897048050e-09 0.0000000000000000e+00  -5.7053701364447247e-10 -2.6807310118446199e-10 0.0000000000000000e+00  -1.6142546918618509e-10 -7.5847535041544662e-11 0.0000000000000000e+00  1.0762690066867334e-10 5.0569684951416999e-11 0.0000000000000000e+00  7.4068721215090457e-12 3.4802004641314303e-12 0.0000000000000000e+00  1.6685130681127410e-12 7.8396924623457612e-13 0.0000000000000000e+00  -5.0773613483281388e-13 -2.3856541642863711e-13 0.0000000000000000e+00  1.5266352718572081e-13 7.1730640066652548e-14 0.0000000000000000e+00  -2.9131538556288206e-14 -1.3687774318399017e-14 0.0000000000000000e+00  5.4541827573558669e-15 2.5627078545728064e-15 0.0000000000000000e+00  5.6426241258353868e-16 2.6512491075181162e-16 0.0000000000000000e+00  -2.0114013843030722e-16 -9.4507909902729963e-17 0.0000000000000000e+00  1.1777130464476810e-16 5.5336144915457636e-17 0.0000000000000000e+00  -2.7630971891654754e-17 -1.2982716540021517e-17 0.0000000000000000e+00  6.1338348366810432e-18 2.8820498714339669e-18 0.0000000000000000e+00  -5.9066607715191666e-19 -2.7753096342535372e-19 0.0000000000000000e+00  1.3620459203288308e-19 6.3997228065157764e-20 0.0000000000000000e+00  -1.7210568032444174e-20 -8.0865749903449024e-21 0.0000000000000000e+00  2.8944832245851542e-21 1.3600048301589428e-21 0.0000000000000000e+00  5.1453297293262124e-23 2.4175898568722950e-23 0.0000000000000000e+00  3.4703190605052173e-23 1.6305676413640880e-23 0.0000000000000000e+00  -3.5095703951939950e-23 -1.6490103133801200e-23 0.0000000000000000e+00  8.1642875665301844e-24 3.8360804550453195e-24 0.0000000000000000e+00  7.7238147191325294e-25 3.6291194352244042e-25 0.0000000000000000e+00  -6.7929106421381003e-26 -3.1917238993395639e-26 0.0000000000000000e+00  2.1138843522850835e-25 9.9323185053772962e-26 0.0000000000000000e+00  -2.7502097413498192e-25 -1.2922163446713365e-25 0.0000000000000000e+00  -6.8574033719724060e-26 -3.2220265189366675e-26 0.0000000000000000e+00  2.1504190780856807e-25 1.0103980939401112e-25 0.0000000000000000e+00  -2.4265169569088555e-26 -1.1401257239387209e-26 0.0000000000000000e+00  3.1968097914915114e-25 1.5020562982018953e-25 0.0000000000000000e+00  3.1898325026152958e-24 1.4987779421580709e-24 0.0000000000000000e+00  -1.3183519245170545e-23 -6.1944217536431097e-24 0.0000000000000000e+00  2.3870655536579680e-23 1.1215890475047263e-23 0.0000000000000000e+00  2.5492282500356972e-22 1.1977829768638827e-22 0.0000000000000000e+00  -3.3102570803857439e-21 -1.5553607566814235e-21 0.0000000000000000e+00  1.7730263204467576e-20 8.3307594921443245e-21 0.0000000000000000e+00  -9.3869549219208117e-20 -4.4105641814960858e-20 0.0000000000000000e+00  2.1547393498203213e-19 1.0124280212089260e-19 0.0000000000000000e+00  -2.1168529604069222e-18 -9.9462668376745962e-19 0.0000000000000000e+00  5.2905585237490185e-18 2.4858272058455204e-18 0.0000000000000000e+00  -4.2357759234624719e-17 -1.9902259810835713e-17 0.0000000000000000e+00  1.1252854849879510e-16 5.2872778183425296e-17 0.0000000000000000e+00  -2.7861824368748455e-16 -1.3091185119571373e-16 0.0000000000000000e+00  -1.8414220619540391e-15 -8.6521244184362657e-16 0.0000000000000000e+00  4.2414146502017847e-15 1.9928753989610952e-15 0.0000000000000000e+00  -3.5046576731774125e-14 -1.6467020168196045e-14 0.0000000000000000e+00  2.1976205039892750e-13 1.0325762038956391e-13 0.0000000000000000e+00  -8.3054348164705124e-13 -3.9024000453791048e-13 0.0000000000000000e+00  -1.5967130809698121e-12 -7.5023323129058504e-13 0.0000000000000000e+00  2.1019338035940572e-12 9.8761675358197471e-13 0.0000000000000000e+00  -7.3274078124436820e-12 -3.4428632830981564e-12 0.0000000000000000e+00  6.8714926101016453e-12 3.2286465026858506e-12 0.0000000000000000e+00  1.2397902547255805e-11 5.8252910933779401e-12 0.0000000000000000e+00  -6.1184070353407136e-12 -2.8748009490137676e-12 0.0000000000000000e+00  -8.7918379228019677e-12 -4.1309419033509705e-12 0.0000000000000000e+00  8.9196972606023969e-13 4.1910180217793907e-13 0.0000000000000000e+00  5.6572256752632480e-11 2.6581098063748187e-11 0.0000000000000000e+00  1.9885271756449370e-11 9.3433140009544877e-12 0.0000000000000000e+00  4.6149633162341431e-12 2.1683913548969757e-12 0.0000000000000000e+00  1.5928645484649817e-12 7.4842495589581573e-13 0.0000000000000000e+00  -1.2698011674045584e-12 -5.9663006727537001e-13 0.0000000000000000e+00  -1.7910152384909962e-12 -8.4152824053251606e-13 0.0000000000000000e+00  1.5684236395032313e-12 7.3694112556675214e-13 0.0000000000000000e+00  9.0911278927950586e-13 4.2715665928815453e-13 0.0000000000000000e+00  4.4613224372910048e-13 2.0962014953401033e-13 0.0000000000000000e+00  -3.5722822205761771e-13 -1.6784761554010488e-13 0.0000000000000000e+00  -3.3929353735153499e-15 -1.5942080635341356e-15 0.0000000000000000e+00  2.9761261856862897e-14 1.3983656748523647e-14 0.0000000000000000e+00  1.1771427617378260e-14 5.5309349460110688e-15 0.0000000000000000e+00  2.1864697185401780e-15 1.0273368845097021e-15 0.0000000000000000e+00  8.8326765783949830e-16 4.1501303955805853e-16 0.0000000000000000e+00  -8.2045760855276790e-17 -3.8550104595349465e-17 0.0000000000000000e+00  -1.3855759653734031e-16 -6.5102813153461805e-17 0.0000000000000000e+00  -6.4571491711491936e-18 -3.0339626732776685e-18 0.0000000000000000e+00  1.0663425326774575e-17 5.0103278634586509e-18 0.0000000000000000e+00  -1.6664308428486114e-18 -7.8299088975538036e-19 0.0000000000000000e+00  1.1645199898997881e-18 5.4716254619418100e-19 0.0000000000000000e+00  -2.8548398007296770e-19 -1.3413779307284890e-19 0.0000000000000000e+00  1.6151546550570158e-19 7.5889820803714309e-20 0.0000000000000000e+00  -4.4378161703719586e-19 -2.0851568168712929e-19 0.0000000000000000e+00  3.5085409544881451e-20 1.6485266193236315e-20 0.0000000000000000e+00  -3.2074018685191610e-18 -1.5070331022810023e-18 0.0000000000000000e+00  -2.8698136190958534e-18 -1.3484135442469798e-18 0.0000000000000000e+00  -1.3296437263780409e-16 -6.2474775286488320e-17 0.0000000000000000e+00  1.6400504316119753e-16 7.7059576291592806e-17 0.0000000000000000e+00  -1.9626157616246274e-16 -9.2215663676480236e-17 0.0000000000000000e+00  -7.1314465140210228e-16 -3.3507887082257378e-16 0.0000000000000000e+00  4.8409252118536784e-15 2.2745620408640729e-15 0.0000000000000000e+00  -1.5482675878319867e-14 -7.2747058263978404e-15 0.0000000000000000e+00  -3.2782679624730313e-14 -1.5403303172218765e-14 0.0000000000000000e+00  2.3733256074917212e-14 1.1151331824323360e-14 0.0000000000000000e+00  9.2972258408705090e-14 4.3684039842637788e-14 0.0000000000000000e+00  6.9104948276948827e-14 3.2469721242901467e-14 0.0000000000000000e+00  5.7322211570950184e-13 2.6933472597015465e-13 0.0000000000000000e+00  1.6719356106886503e-13 7.8557736556832451e-14 0.0000000000000000e+00  1.0557490418370778e-13 4.9605531797126488e-14 0.0000000000000000e+00  -1.3648331644810737e-11 -6.4128189802219758e-12 0.0000000000000000e+00  -1.1991744832700582e-11 -5.6344534167558669e-12 0.0000000000000000e+00  -5.1702447461201504e-12 -2.4292964519893150e-12 0.0000000000000000e+00  -1.4036929546549258e-11 -6.5954059853443631e-12 0.0000000000000000e+00  1.1211296833429113e-11 5.2677513264892038e-12 0.0000000000000000e+00  4.8291111991691143e-11 2.2690110968551001e-11 0.0000000000000000e+00  1.6816398603903895e-10 7.9013701419759475e-11 0.0000000000000000e+00  -4.2111729434560717e-10 -1.9786659998887195e-10 0.0000000000000000e+00  -4.3933514216371022e-09 -2.0642645648321121e-09 0.0000000000000000e+00  -4.9806904660523950e-09 -2.3402322852738928e-09 0.0000000000000000e+00  7.3959414202008954e-09 3.4750645537036896e-09 0.0000000000000000e+00  2.4932930078359709e-08 1.1715011871054930e-08 0.0000000000000000e+00  -4.9369143318221070e-09 -2.3196635863458067e-09 0.0000000000000000e+00  -3.6150328526797968e-08 -1.6985630108574680e-08 0.0000000000000000e+00  -6.7268922915610588e-09 -3.1607044500294826e-09 0.0000000000000000e+00  -4.5677664076073345e-08 -2.1462153674337137e-08 0.0000000000000000e+00  1.1026154416081561e-07 5.1807601220762043e-08 0.0000000000000000e+00  -4.1251584958247409e-07 -1.9382511640905881e-07 0.0000000000000000e+00  -5.8446362537389972e-09 -2.7461667312810678e-09 0.0000000000000000e+00  -3.6660082455621756e-07 -1.7225143607739008e-07 0.0000000000000000e+00  -6.8474367945194341e-08 -3.2173436127235479e-08 0.0000000000000000e+00  1.9037776129215309e-07 8.9451088440591387e-08 0.0000000000000000e+00  -2.3513023315933173e-07 -1.1047853036319520e-07 0.0000000000000000e+00  1.7188754583931113e-07 8.0763257012530978e-08 0.0000000000000000e+00  6.0365563820299976e-07 2.8363425178476371e-07 0.0000000000000000e+00  9.0074544922399326e-09 4.2322517238421745e-09 0.0000000000000000e+00  3.0291603703450017e-07 1.4232843707655987e-07 0.0000000000000000e+00  2.5704891510548305e-07 1.2077726454285376e-07 0.0000000000000000e+00  -5.6329436978380958e-10 -2.6467006517792992e-10 0.0000000000000000e+00  -5.2751970821235968e-08 -2.4786094632684263e-08 0.0000000000000000e+00  -3.7905995864329529e-08 -1.7810549748431101e-08 0.0000000000000000e+00  2.4721862122864128e-08 1.1615839266934255e-08 0.0000000000000000e+00  -1.0924774762258329e-08 -5.1331257748779424e-09 0.0000000000000000e+00  -6.1422653466190100e-09 -2.8860110394030748e-09 0.0000000000000000e+00  6.3499887654238144e-09 2.9836121761144977e-09 0.0000000000000000e+00  5.1580518343022963e-10 2.4235674780484213e-10 0.0000000000000000e+00  -2.5076299513488823e-11 -1.1782375579580528e-11 0.0000000000000000e+00  4.2538078400748823e-10 1.9986984757526027e-10 0.0000000000000000e+00  2.4139657319902185e-10 1.1342283926400743e-10 0.0000000000000000e+00  4.0467740477702748e-10 1.9014213676495706e-10 0.0000000000000000e+00  2.8141499646808754e-11 1.3222593630011951e-11 0.0000000000000000e+00  9.4841885176273366e-11 4.4562504576131500e-11 0.0000000000000000e+00  -5.5223731833867876e-11 -2.5947478774635767e-11 0.0000000000000000e+00  -1.6993319339699471e-11 -7.9844982987376109e-12 0.0000000000000000e+00  1.6269736583499591e-11 7.6445149693843631e-12 0.0000000000000000e+00  -2.8151900954992394e-13 -1.3227480799248108e-13 0.0000000000000000e+00  1.1704769976984955e-12 5.4996151193380777e-13 0.0000000000000000e+00  -3.7947604094547738e-14 -1.7830099833776496e-14 0.0000000000000000e+00  1.3811599013175800e-13 6.4895319518840062e-14 0.0000000000000000e+00  -6.6125938515899195e-14 -3.1070000688397690e-14 0.0000000000000000e+00  5.6318537589000297e-03 2.6461885319617314e-03 0.0000000000000000e+00  1.5276942548161889e-05 7.1780397547609335e-06 0.0000000000000000e+00  -7.6197285156414125e+00 -3.5802133858479697e+00 0.0000000000000000e+00  2.8876151168102169e+00 1.3567777740583500e+00 0.0000000000000000e+00  4.4220224719435062e-11 2.0777359736733345e-11 0.0000000000000000e+00  -1.9915162191786150e-05 -9.3573583512855862e-06 0.0000000000000000e+00  2.4324505244581664e-11 1.1429136760189277e-11 0.0000000000000000e+00  -8.0751869968421611e-02 -3.7942155708005736e-02 0.0000000000000000e+00  -5.4308019650909835e-05 -2.5517221317525514e-05 0.0000000000000000e+00  -8.1783849853431889e-07 -3.8427042825788845e-07 0.0000000000000000e+00  -1.1701235789565243e-03 -5.4979545424445352e-04 0.0000000000000000e+00  -6.2425576678521219e-06 -2.9331344914053072e-06 0.0000000000000000e+00  6.3796535130571265e-09 2.9975504845918391e-09 0.0000000000000000e+00  4.1661752763854200e-03 1.9575233502985719e-03 0.0000000000000000e+00  -6.5352395016398732e-16 -3.0706542753411899e-16 0.0000000000000000e+00  -1.3527596009437187e-07 -6.3560900118570243e-08 0.0000000000000000e+00  5.4872292884053882e-05 2.5782351312436859e-05 0.0000000000000000e+00  -1.1984511733804067e-03 -5.6310548655558710e-04 0.0000000000000000e+00  4.7686080395709105e-09 2.2405830207845514e-09 0.0000000000000000e+00  2.7978626557584050e-08 1.3146065914747597e-08 0.0000000000000000e+00  -6.8324898850256432e+01 -3.2103206426351974e+01 0.0000000000000000e+00  1.2332720158208575e-02 5.7946644298020071e-03 0.0000000000000000e+00  2.7295921290128899e-09 1.2825289323808108e-09 0.0000000000000000e+00  -6.1582225015062649e-15 -2.8935086844189158e-15 0.0000000000000000e+00  -5.0556162033061589e-07 -2.3754369683423003e-07 0.0000000000000000e+00  -1.6962856270620572e-04 -7.9701848901343441e-05 0.0000000000000000e+00  7.2492583646931276e-12 3.4061439041388209e-12 0.0000000000000000e+00  4.2535009249278017e-09 1.9985542682896197e-09 0.0000000000000000e+00  -1.0390078120069079e-19 -4.8818926670573267e-20 0.0000000000000000e+00  7.2275101521651738e-04 3.3959252668932746e-04 0.0000000000000000e+00  5.6377255427179806e-05 2.6489474542751286e-05 0.0000000000000000e+00  2.9879689846951946e-09 1.4039301444329469e-09 0.0000000000000000e+00  -1.7943332407120276e-11 -8.4308724042885403e-12 0.0000000000000000e+00  -1.1767180211157344e-03 -5.5289392554066401e-04 0.0000000000000000e+00  8.9477906580206748e-08 4.2042180140475138e-08 0.0000000000000000e+00  -5.8738973695152577e-13 -2.7599153888838343e-13 0.0000000000000000e+00  4.3135281553538181e+02 2.0267587237955345e+02 0.0000000000000000e+00  -2.9210109628232067e-04 -1.3724691802130464e-04 0.0000000000000000e+00  -7.5383304367187395e-23 -3.5419676017438418e-23 0.0000000000000000e+00  -1.5283543820910328e-02 -7.1811414354847388e-03 0.0000000000000000e+00  3.0322204745115419e-08 1.4247221944198978e-08 0.0000000000000000e+00  3.0247136637385395e-14 1.4211950366793893e-14 0.0000000000000000e+00  2.0111219670629456e-07 9.4494781175882288e-08 0.0000000000000000e+00  -1.2471216816720396e-06 -5.8597386105528714e-07 0.0000000000000000e+00  4.5267779030971102e-12 2.1269564670395390e-12 0.0000000000000000e+00  -2.9064677477693893e-06 -1.3656358904046118e-06 0.0000000000000000e+00  6.4556606163476674e-06 3.0332632594054900e-06 0.0000000000000000e+00  1.6232818851914823e-04 7.6271687664945781e-05 0.0000000000000000e+00  -2.8231925244122524e-01 -1.3265081093083836e-01 0.0000000000000000e+00  -5.9415327425880206e-06 -2.7916946140273901e-06 0.0000000000000000e+00  1.3708550258075251e-10 6.4411133590630236e-11 0.0000000000000000e+00  3.8801050101262516e-06 1.8231100842023103e-06 0.0000000000000000e+00  -1.0176179542559896e-06 -4.7813900639999867e-07 0.0000000000000000e+00  -6.6994347349904514e-10 -3.1478032145884975e-10 0.0000000000000000e+00  3.3573866072612297e+00 1.5775050840865190e+00 0.0000000000000000e+00  2.6295112462403510e-02 1.2355048270686335e-02 0.0000000000000000e+00  -2.4972705676709402e-07 -1.1733700874127575e-07 0.0000000000000000e+00  -3.1479618243822520e-11 -1.4791045427217542e-11 0.0000000000000000e+00  -9.0893164379348264e+00 -4.2707154608595639e+00 0.0000000000000000e+00  -3.9680039544515479e-06 -1.8644103715326557e-06 0.0000000000000000e+00  4.2293584826784002e-05 1.9872106758334078e-05 0.0000000000000000e+00  -7.7647563579390591e-09 -3.6483563152514052e-09 0.0000000000000000e+00  8.5556094628589146e-14 4.0199473590348314e-14 0.0000000000000000e+00  -6.0757576597166959e-06 -2.8547616700297739e-06 0.0000000000000000e+00  -1.5388531370672807e-10 -7.2304709923364589e-11 0.0000000000000000e+00  2.9463546826414178e-17 1.3843772061688333e-17 0.0000000000000000e+00  -8.9496507772539040e-18 -4.2050920115612420e-18 0.0000000000000000e+00  -5.4103863299108303e-08 -2.5421296206542209e-08 0.0000000000000000e+00  1.0511723270594793e-11 4.9390489811361880e-12 0.0000000000000000e+00  -1.8541507390750938e-17 -8.7119315101448266e-18 0.0000000000000000e+00  -3.2145571458780303e-08 -1.5103950881742122e-08 0.0000000000000000e+00  8.7118156879816192e-14 4.0933425747553154e-14 0.0000000000000000e+00  1.1759514060847335e-05 5.5253372302292580e-06 0.0000000000000000e+00  -3.4089723265097724e+00 -1.6017432025697582e+00 0.0000000000000000e+00  -9.8377441580966751e-16 -4.6223724702349892e-16 0.0000000000000000e+00  6.7142905876694727e-10 3.1547834006293002e-10 0.0000000000000000e+00  -1.7406056816732008e-16 -8.1784275492455987e-17 0.0000000000000000e+00  4.0165663078562194e-04 1.8872279282672460e-04 0.0000000000000000e+00  -8.7291784479874224e-10 -4.1015006588209698e-10 0.0000000000000000e+00  1.6837303736273404e-06 7.9111926487212591e-07 0.0000000000000000e+00  2.1492707099236923e-07 1.0098585205081989e-07 0.0000000000000000e+00  3.4209444548735268e-11 1.6073684389724753e-11 0.0000000000000000e+00  2.9004428842474886e-05 1.3628050419059101e-05 0.0000000000000000e+00  -1.7777852938597619e-07 -8.3531200529978502e-08 0.0000000000000000e+00  -4.7291862092348501e-02 -2.2220602395103820e-02 0.0000000000000000e+00  -4.5515785284286938e-05 -2.1386093140677847e-05 0.0000000000000000e+00  6.9191585921561636e-11 3.2510428894666745e-11 0.0000000000000000e+00  3.8360175230880775e-10 1.8023950927274258e-10 0.0000000000000000e+00  -1.8213632911686401e-15 -8.5578760741256876e-16 0.0000000000000000e+00  7.3736632595273743e+00 3.4645969144837774e+00 0.0000000000000000e+00  4.7905901165843191e-05 2.2509115418349524e-05 0.0000000000000000e+00  -5.8345958414826371e-09 -2.7414491329722497e-09 0.0000000000000000e+00  -2.6332941677198944e-07 -1.2372822744003694e-07 0.0000000000000000e+00  4.8236854882424259e-13 2.2664617668038267e-13 0.0000000000000000e+00  7.7024324426763113e-01 3.6190727370735043e-01 0.0000000000000000e+00  -3.6834234880835426e-13 -1.7306971043276634e-13 0.0000000000000000e+00  8.1020049437039804e-02 3.8068162785736305e-02 0.0000000000000000e+00  1.3949128139306811e-02 6.5541515268869024e-03 0.0000000000000000e+00  -2.3550951707477325e-08 -1.1065674108924822e-08 0.0000000000000000e+00  -5.4346423743791352e-12 -2.5535265903644699e-12 0.0000000000000000e+00  -4.7147288352194836e-06 -2.2152672830595322e-06 0.0000000000000000e+00  1.7147954508409392e-10 8.0571553362949880e-11 0.0000000000000000e+00  -1.8868441669568855e-05 -8.8655451827203938e-06 0.0000000000000000e+00  3.6829064076335843e-09 1.7304541483818313e-09 0.0000000000000000e+00  -1.3952749