<?xml version="1.0"?>
<VTKFile type="UnstructuredGrid"  version="0.1"  >
<UnstructuredGrid>
<Piece  NumberOfPoints="1121" NumberOfCells="2112">
<Points>
<DataArray  type="Float64"  NumberOfComponents="3"  format="ascii">0 0 0  0.5 0 0  0.5 -0.22 0  0 -0.22 0  0.0125 0 0  0.025 0 0  0.03750000000000001 0 0  0.05 0 0  0.0625 0 0  0.07500000000000001 0 0  0.08750000000000001 0 0  0.1 0 0  0.1125 0 0  0.125 0 0  0.1375 0 0  0.15 0 0  0.1625 0 0  0.175 0 0  0.1875 0 0  0.2 0 0  0.2125 0 0  0.225 0 0  0.2375 0 0  0.25 0 0  0.2625 0 0  0.275 0 0  0.2875 0 0  0.3 0 0  0.3124999999999999 0 0  0.325 0 0  0.3375 0 0  0.35 0 0  0.3625 0 0  0.375 0 0  0.3875 0 0  0.4 0 0  0.4125 0 0  0.425 0 0  0.4375 0 0  0.45 0 0  0.4625 0 0  0.475 0 0  0.4875 0 0  0.5 -0.00916666666666667 0  0.5 -0.01833333333333334 0  0.5 -0.02750000000000001 0  0.5 -0.03666666666666668 0  0.5 -0.04583333333333335 0  0.5 -0.05500000000000002 0  0.5 -0.06416666666666669 0  0.5 -0.07333333333333336 0  0.5 -0.08250000000000002 0  0.5 -0.09166666666666669 0  0.5 -0.1008333333333334 0  0.5 -0.11 0  0.5 -0.1191666666666667 0  0.5 -0.1283333333333334 0  0.5 -0.1375 0  0.5 -0.1466666666666667 0  0.5 -0.1558333333333333 0  0.5 -0.165 0  0.5 -0.1741666666666667 0  0.5 -0.1833333333333333 0  0.5 -0.1925 0  0.5 -0.2016666666666667 0  0.5 -0.2108333333333333 0  0.4875 -0.22 0  0.475 -0.22 0  0.4625 -0.22 0  0.45 -0.22 0  0.4375 -0.22 0  0.425 -0.22 0  0.4125 -0.22 0  0.4 -0.22 0  0.3875 -0.22 0  0.375 -0.22 0  0.3625 -0.22 0  0.35 -0.22 0  0.3375 -0.22 0  0.325 -0.22 0  0.3125 -0.22 0  0.3 -0.22 0  0.2875 -0.22 0  0.275 -0.22 0  0.2625 -0.22 0  0.25 -0.22 0  0.2375 -0.22 0  0.225 -0.22 0  0.2125 -0.22 0  0.2 -0.22 0  0.1875000000000001 -0.22 0  0.175 -0.22 0  0.1625 -0.22 0  0.15 -0.22 0  0.1375 -0.22 0  0.125 -0.22 0  0.1125 -0.22 0  0.09999999999999998 -0.22 0  0.08749999999999997 -0.22 0  0.07499999999999996 -0.22 0  0.0625 -0.22 0  0.04999999999999999 -0.22 0  0.03750000000000003 -0.22 0  0.02500000000000002 -0.22 0  0.01250000000000001 -0.22 0  0 -0.2108333333333333 0  0 -0.2016666666666667 0  0 -0.1925 0  0 -0.1833333333333333 0  0 -0.1741666666666666 0  0 -0.165 0  0 -0.1558333333333333 0  0 -0.1466666666666666 0  0 -0.1375 0  0 -0.1283333333333333 0  0 -0.1191666666666666 0  0 -0.11 0  0 -0.1008333333333333 0  0 -0.09166666666666665 0  0 -0.08249999999999999 0  0 -0.07333333333333333 0  0 -0.06416666666666668 0  0 -0.05499999999999999 0  0 -0.04583333333333331 0  0 -0.03666666666666665 0  0 -0.0275 0  0 -0.01833333333333334 0  0 -0.009166666666666684 0  0.1054583333333335 -0.1054166666666667 0  0.3942676334017064 -0.1137728325038039 0  0.2847879184121186 -0.1095588156798053 0  0.1945032948335413 -0.1282408799476467 0  0.06153506715537374 -0.1512727221728088 0  0.4399056412223469 -0.06797859302281792 0  0.05788181883779472 -0.06001948808334377 0  0.4421098014386607 -0.1599837267347342 0  0.3413511741034609 -0.06957267157055583 0  0.2288650014326337 -0.07000139022125416 0  0.3374198095657364 -0.153292781564552 0  0.1625149941501948 -0.06635759941053934 0  0.1410798075665959 -0.1547982873744018 0  0.2480541718311375 -0.1584999930406966 0  0.4521112869309225 -0.1144576824167908 0  0.04769384748510372 -0.1054790589784799 0  0.2872553124970689 -0.0549183148201307 0  0.3883603170589741 -0.1667590078701163 0  0.1113816725357426 -0.05349980002187416 0  0.388663619148569 -0.05083099728992514 0  0.2924675002385118 -0.1733355444551434 0  0.03957129721715399 -0.1820306497250263 0  0.463886478278041 -0.04123097885421483 0  0.1819898664669143 -0.1745112248447572 0  0.1501955722423063 -0.1126410264576243 0  0.2381168692527681 -0.1138631020717532 0  0.09896708868237117 -0.1743617443889283 0  0.351521105495953 -0.110482033201648 0  0.1944214316144394 -0.04364751139729321 0  0.4676096572335854 -0.17875 0  0.0323903427664145 -0.04125 0  0.03139627442974444 -0.07791666666666666 0  0.4686037255702555 -0.1420833333333333 0  0.03146427625974824 -0.1353922207127977 0  0.4687538427589449 -0.08499498352404596 0  0.1945393885069078 -0.08884182758867265 0  0.2525813348104176 -0.03744007417230172 0  0.3217010222371471 -0.03764154129720884 0  0.4222469886470394 -0.03586904090069724 0  0.09663319060065351 -0.1401271138728219 0  0.2193792666828137 -0.183158231426584 0  0.3560154827479793 -0.1838943099753877 0  0.1434582748922029 -0.03603411582704523 0  0.3765333185963097 -0.08241017292348579 0  0.07538111331820632 -0.08899587837746269 0  0.423855991190923 -0.1306886077643884 0  0.3185210010305527 -0.09753607818954631 0  0.3569762884570115 -0.03650734503769727 0  0.4254213410091923 -0.0987078979590463 0  0.2610082403268991 -0.0817800662321487 0  0.0828105113527246 -0.0341734786714956 0  0.4171399376253134 -0.185803221952863 0  0.3057870365127394 -0.1382026892003179 0  0.12895829204953 -0.08335230948371621 0  0.06875298785225953 -0.187362820013113 0  0.3717868049890677 -0.1386048615715364 0  0.321448533906611 -0.1855116827647124 0  0.26298072168791 -0.1839420817131204 0  0.07484000163200957 -0.1198633334100699 0  0.1547686158654376 -0.1863750548878711 0  0.216059367308573 -0.1515159536473182 0  0.2699691944498949 -0.1417527519042215 0  0.1656185503016955 -0.1403556565429203 0  0.4083071195762781 -0.07378364169239227 0  0.1267131755037155 -0.1278660972450704 0  0.4735015828166597 -0.0640900788079139 0  0.02554956908977171 -0.1556408100003981 0  0.4768150825846236 -0.1145833333333333 0  0.02318491741537634 -0.1054166666666667 0  0.223953700752457 -0.0304451531933032 0  0.1244872804067221 -0.1907232817427361 0  0.4438735214118281 -0.1930008132865749 0  0.05574102313663398 -0.02865323925202035 0  0.4137204188713657 -0.1553454939163003 0  0.08893893095617791 -0.06579816339826482 0  0.1717694871603352 -0.02800139159048265 0  0.3128492556460914 -0.06943040619515532 0  0.2797695783739821 -0.02590934499649085 0  0.02258333333333329 -0.1970833333333333 0  0.4762493762769904 -0.02160603458451191 0  0.4793770768812318 -0.1979934752448725 0  0.02062142143957255 -0.02200567641944876 0  0.1164030865048185 -0.02740272745133866 0  0.3830675041448486 -0.1925667518381948 0  0.4791226873505327 -0.1610342148373401 0  0.02087731264946724 -0.05896578516265992 0  0.3274724693986852 -0.1225305077389053 0  0.3972801610854721 -0.02625449066011495 0  0.2900140160514686 -0.08365001034985962 0  0.1709547781797311 -0.09465470820062212 0  0.2138438311308281 -0.1099941211103435 0  0.4450205721789285 -0.02492933314930469 0  0.05420467580227878 -0.08349945672846135 0  0.4461329107542346 -0.1367113815538408 0  0.3659666316461785 -0.05978339436610505 0  0.44602790301578 -0.09307279226297782 0  0.1051970245947556 -0.08027435556391044 0  0.05333928713341426 -0.1272409570081178 0  0.3959065276465774 -0.1392957050603055 0  0.1954280839215327 -0.1956301054107469 0  0.1114114251973984 -0.1581699686077357 0  0.1861203385256373 -0.06601416834570389 0  0.2411653975579025 -0.1955923650394697 0  0.3655092946697883 -0.1617364087021952 0  0.135090011654307 -0.05852644219278214 0  0.301466572149827 -0.195730962509487 0  0.3171403096460815 -0.1628017925003279 0  0.2583110626374412 -0.1046341192205865 0  0.4408293443687437 -0.04585722764353674 0  0.2712011044137034 -0.1640374945295207 0  0.2411933721253841 -0.08983355018053346 0  0.2501709838730871 -0.1314559421109842 0  0.4829353992284747 -0.03936718280336758 0  0.01826814268142685 -0.17875 0  0.08176459786747367 -0.1581134879103219 0  0.09090727073593149 -0.1966179220907174 0  0.1938567422944586 -0.1528508759815354 0  0.1733129361306733 -0.1172649579021292 0  0.1296640686621583 -0.1060858859555111 0  0.05006156132458137 -0.1998033571646454 0  0.162505650870633 -0.1635353305739766 0  0.30277270753554 -0.02336446206680166 0  0.04392010531002208 -0.1476919574928456 0  0.4570380569409145 -0.07105832940298668 0  0.2509935571465481 -0.06292905082461901 0  0.3948833058972995 -0.09019561948060845 0  0.4598195232581849 -0.1577532743262658 0  0.04018055885339097 -0.06224663359087233 0  0.1730418602576066 -0.1983511585214162 0  0.354008461825654 -0.08842076759065362 0  0.373211974938222 -0.1031515537153039 0  0.3385725936424656 -0.02355841481827918 0  0.05693481862827446 -0.1711111761535942 0  0.2226017506701603 -0.1306213423698554 0  0.4834446118625366 -0.09366667033152501 0  0.01655538813746335 -0.126333329668475 0  0.4825096030146118 -0.1326572162395438 0  0.01749039698538812 -0.08734278376045618 0  0.3772923679603625 -0.01999366789017346 0  0.01651090378487999 -0.1420833333333333 0  0.48348909621512 -0.07791666666666669 0  0.2083850969976113 -0.06098599897318754 0  0.3496303726904554 -0.1333395240176083 0  0.3051888980043784 -0.1167126520442686 0  0.2175622493287656 -0.08816391583608728 0  0.421331648509181 -0.05567865783938017 0  0.2036856364456695 -0.0217459550834085 0  0.3419325538888507 -0.04719577702332296 0  0.3412491916251918 -0.1996737604301947 0  0.4838834006315611 -0.1786454571355643 0  0.01611659936843887 -0.0413545428644357 0  0.172916357627664 -0.04916537131395513 0  0.4024134926805814 -0.2009331510593763 0  0.2424815730009992 -0.02045273553971888 0  0.1462759520833398 -0.1337233768065287 0  0.2346404539413744 -0.0484884977905098 0  0.09697638824467633 -0.01835062747588986 0  0.3376316573341132 -0.1736137832302001 0  0.1473441332611047 -0.09306137774954895 0  0.434705037373379 -0.114505364151485 0  0.0768089501139663 -0.1390499296181859 0  0.2037322897871967 -0.1695319781453501 0  0.2796822656650553 -0.2007669332776081 0  0.2910707535484897 -0.1516548901144321 0  0.414355300365443 -0.1140560482952263 0  0.09372496308173206 -0.1210763918452149 0  0.3897041267298961 -0.06995384811683555 0  0.4607061536274312 -0.2009522278863767 0  0.03767528917450519 -0.01920779542340162 0  0.06550910726222195 -0.1022565085744684 0  0.05021276002452402 -0.04427151993747909 0  0.4497875067624045 -0.1757266867012744 0  0.2685456651208211 -0.05149244248160013 0  0.1924991911245588 -0.1082791409797235 0  0.4653652048205058 -0.1036696603203247 0  0.03478864406010496 -0.1162949466270758 0  0.03530598512279109
[...]
<PointData  Vectors="flow"> 
<DataArray  type="Float64"  Name="flow"  NumberOfComponents="3" format="ascii">-2.7923660819198413e-02 4.0555615236580135e-04 0.0000000000000000e+00  2.7892839823048507e-02 3.6786372433161076e-04 0.0000000000000000e+00  1.5998140353246548e-02 -6.0461761575080983e-05 0.0000000000000000e+00  -1.5991732487524248e-02 -4.1463027582851367e-05 0.0000000000000000e+00  -2.6243382730061930e-02 -3.0053020231184659e-05 0.0000000000000000e+00  -2.3841184159670608e-02 -3.2467108995089472e-04 0.0000000000000000e+00  -2.2255256209949219e-02 -2.4632953281192917e-04 0.0000000000000000e+00  -2.0686127708214392e-02 -1.5718012861610023e-04 0.0000000000000000e+00  -1.9053621565265737e-02 -2.2822081348283647e-04 0.0000000000000000e+00  -1.7640053307793172e-02 -2.9234142162314574e-04 0.0000000000000000e+00  -1.6194212008064399e-02 -4.9308654964710203e-04 0.0000000000000000e+00  -1.4854984046871703e-02 -2.1722198201221639e-04 0.0000000000000000e+00  -1.3325963990930827e-02 -6.4638071832718398e-04 0.0000000000000000e+00  -1.2077313815782826e-02 -3.9114510558897552e-04 0.0000000000000000e+00  -1.0830334131041567e-02 -3.3634495813277438e-04 0.0000000000000000e+00  -9.6569055457052366e-03 -3.4476369674364590e-04 0.0000000000000000e+00  -8.2161424987346708e-03 -4.4132626321874820e-04 0.0000000000000000e+00  -7.2145349645394976e-03 -4.8472355132207019e-04 0.0000000000000000e+00  -5.9971524434659406e-03 -4.5376794053295381e-04 0.0000000000000000e+00  -4.7318795972230250e-03 -6.3318579838213837e-04 0.0000000000000000e+00  -3.5380302183584352e-03 -3.3868944624463102e-04 0.0000000000000000e+00  -2.2643438912887167e-03 -3.3359511551052970e-04 0.0000000000000000e+00  -1.2188342421534601e-03 -3.4252038825406276e-04 0.0000000000000000e+00  9.1342848312164364e-05 -4.0922690125241368e-04 0.0000000000000000e+00  1.0373633266287897e-03 -5.2777514727712427e-04 0.0000000000000000e+00  2.2884713273151340e-03 -6.2381767590218755e-04 0.0000000000000000e+00  3.6250547423350580e-03 -5.2700724354786093e-04 0.0000000000000000e+00  4.8157887654583197e-03 -3.7994773794212142e-04 0.0000000000000000e+00  5.8085257539094819e-03 -3.7241780746557129e-04 0.0000000000000000e+00  7.1703413589685279e-03 -4.5199122276738457e-04 0.0000000000000000e+00  8.3230470704352549e-03 -4.9437287681266390e-04 0.0000000000000000e+00  9.5453044955037258e-03 -3.3850912826217353e-04 0.0000000000000000e+00  1.0936905282234977e-02 -3.0696016872833138e-04 0.0000000000000000e+00  1.1995025208151164e-02 -3.9511734956957018e-04 0.0000000000000000e+00  1.3366290287853442e-02 -5.4220989347346761e-04 0.0000000000000000e+00  1.4973224909184389e-02 -5.2918510954671398e-04 0.0000000000000000e+00  1.6198210886822141e-02 -3.1944753938938558e-04 0.0000000000000000e+00  1.7452760522011702e-02 -1.2757561413228609e-04 0.0000000000000000e+00  1.9130083692536180e-02 -2.1183862203885876e-04 0.0000000000000000e+00  2.0605453516224299e-02 -2.9513752596003589e-04 0.0000000000000000e+00  2.2310186457609422e-02 -2.2187736348990871e-04 0.0000000000000000e+00  2.3941494981926392e-02 -3.1381712418157158e-04 0.0000000000000000e+00  2.6243567261071157e-02 -3.9430469514843576e-05 0.0000000000000000e+00  2.7650434992302235e-02 1.0907110554442182e-05 0.0000000000000000e+00  2.7086897291581282e-02 8.8133067746490604e-08 0.0000000000000000e+00  2.6542398365525677e-02 4.0438069126195282e-05 0.0000000000000000e+00  2.5573449714432008e-02 -6.2693963379540278e-06 0.0000000000000000e+00  2.4946638155339731e-02 1.6753539894263269e-05 0.0000000000000000e+00  2.4035130531727844e-02 -3.8077856854244230e-05 0.0000000000000000e+00  2.3376698101335226e-02 7.4771961082779054e-05 0.0000000000000000e+00  2.2523158096332260e-02 5.6600769034578789e-05 0.0000000000000000e+00  2.1697301417296155e-02 -6.1643807943486290e-05 0.0000000000000000e+00  2.1061115442893096e-02 -1.2354114135926117e-05 0.0000000000000000e+00  2.0375708674582802e-02 1.3612137260482997e-04 0.0000000000000000e+00  1.9720908143769835e-02 -1.0911345355039418e-05 0.0000000000000000e+00  1.9215563005285239e-02 3.7882868960614213e-05 0.0000000000000000e+00  1.8650782781632479e-02 6.8717526601542279e-05 0.0000000000000000e+00  1.8142414635664756e-02 -5.9225607469810426e-05 0.0000000000000000e+00  1.7722819988510208e-02 5.6274382982507500e-05 0.0000000000000000e+00  1.7206153255562621e-02 -3.0180213462679091e-05 0.0000000000000000e+00  1.6881489096655343e-02 3.0595481135546742e-05 0.0000000000000000e+00  1.6594746619481009e-02 -1.6643819488153355e-05 0.0000000000000000e+00  1.6399061377394171e-02 2.0308927822755375e-05 0.0000000000000000e+00  1.6187288445717714e-02 -1.3192667936646722e-05 0.0000000000000000e+00  1.6102308569158039e-02 1.6156953986681900e-05 0.0000000000000000e+00  1.6001141970503535e-02 6.8282998007101520e-06 0.0000000000000000e+00  1.5748687318954541e-02 -2.6844984490715207e-05 0.0000000000000000e+00  1.5409303779709064e-02 -1.1103588938009746e-04 0.0000000000000000e+00  1.4907702135370600e-02 -9.4400633498382947e-05 0.0000000000000000e+00  1.4417256262837448e-02 -2.0042063590398440e-04 0.0000000000000000e+00  1.3802395224202801e-02 -1.3679970234796402e-04 0.0000000000000000e+00  1.3090272080930025e-02 -1.6080028350549838e-04 0.0000000000000000e+00  1.2418254781342682e-02 -2.4555817511660042e-04 0.0000000000000000e+00  1.1651034763418418e-02 -1.6688862907203773e-04 0.0000000000000000e+00  1.0770244975766395e-02 -1.5656133919925849e-04 0.0000000000000000e+00  9.9169338611046799e-03 -3.1513347411193368e-04 0.0000000000000000e+00  9.0775451204216633e-03 -2.2495402947253200e-04 0.0000000000000000e+00  8.0402539412815378e-03 -2.9347444133640709e-04 0.0000000000000000e+00  7.1827578473554919e-03 -2.5771660712503651e-04 0.0000000000000000e+00  6.0793187980812272e-03 -3.4562788657980717e-04 0.0000000000000000e+00  5.1570653852647573e-03 -2.9153531261195747e-04 0.0000000000000000e+00  4.1678068143814967e-03 -2.2373643988658380e-04 0.0000000000000000e+00  3.0484065358628693e-03 -3.4815583910399820e-04 0.0000000000000000e+00  2.1350283427526008e-03 -2.9253075012603046e-04 0.0000000000000000e+00  9.6438488134745768e-04 -2.7628764798873874e-04 0.0000000000000000e+00  4.2386390798654332e-05 -3.9513922165859125e-04 0.0000000000000000e+00  -1.0382025487226361e-03 -2.4441756283302484e-04 0.0000000000000000e+00  -2.1344593325525107e-03 -3.4904078594951717e-04 0.0000000000000000e+00  -3.0382800207326092e-03 -3.5211351084569526e-04 0.0000000000000000e+00  -4.2493671661560425e-03 -2.4401421682499481e-04 0.0000000000000000e+00  -5.1279524849129395e-03 -3.1574661469396456e-04 0.0000000000000000e+00  -6.0386279807627102e-03 -2.0443279796889343e-04 0.0000000000000000e+00  -7.1794293773302818e-03 -2.9255175406950909e-04 0.0000000000000000e+00  -8.0632178991885441e-03 -2.8893624568088482e-04 0.0000000000000000e+00  -9.0014657101366198e-03 -1.8225466867203603e-04 0.0000000000000000e+00  -9.9668466491271909e-03 -2.8454147250257068e-04 0.0000000000000000e+00  -1.0732789158892704e-02 -2.0045339440925760e-04 0.0000000000000000e+00  -1.1661342874311321e-02 -1.8437740355206682e-04 0.0000000000000000e+00  -1.2385830031268363e-02 -1.5305914053560156e-04 0.0000000000000000e+00  -1.3134054449941718e-02 -1.6405807757796992e-04 0.0000000000000000e+00  -1.3808514363724935e-02 -2.2969740185822715e-04 0.0000000000000000e+00  -1.4371934226797330e-02 -1.0915646656805635e-04 0.0000000000000000e+00  -1.4963169155542405e-02 -1.1518991457295789e-04 0.0000000000000000e+00  -1.5380694524664340e-02 -1.2577711409257622e-04 0.0000000000000000e+00  -1.5745741867844096e-02 -3.4202987223744229e-05 0.0000000000000000e+00  -1.5996231784128210e-02 3.7382540736398419e-06 0.0000000000000000e+00  -1.6080369264821086e-02 1.2537511299116673e-05 0.0000000000000000e+00  -1.6179573181409952e-02 -7.1322879243020800e-06 0.0000000000000000e+00  -1.6413190828109117e-02 2.0246791385030050e-05 0.0000000000000000e+00  -1.6598693988220378e-02 -4.7170181758054727e-06 0.0000000000000000e+00  -1.6933918690085526e-02 1.2267600763389683e-07 0.0000000000000000e+00  -1.7218660070909438e-02 -5.0313051231879560e-07 0.0000000000000000e+00  -1.7640179168314184e-02 5.1885285023991383e-05 0.0000000000000000e+00  -1.8154553920984057e-02 2.2084276163678891e-05 0.0000000000000000e+00  -1.8611186997445402e-02 -4.7510278040860013e-05 0.0000000000000000e+00  -1.9114471046262658e-02 6.6786734664258120e-05 0.0000000000000000e+00  -1.9811700600023918e-02 2.6183608598393405e-05 0.0000000000000000e+00  -2.0338139700715383e-02 -4.1085748320655672e-08 0.0000000000000000e+00  -2.0931452503910992e-02 1.5067951970332722e-04 0.0000000000000000e+00  -2.1729197735178566e-02 -4.5919016921449233e-05 0.0000000000000000e+00  -2.2294056608518936e-02 -1.0307128257173921e-05 0.0000000000000000e+00  -2.3228774427957736e-02 -7.6148240631431017e-05 0.0000000000000000e+00  -2.4085648635408602e-02 6.9847614393450528e-05 0.0000000000000000e+00  -2.5000659769587295e-02 4.2438263851011178e-05 0.0000000000000000e+00  -2.5566929468277402e-02 -4.3533268490408513e-06 0.0000000000000000e+00  -2.6611144372527332e-02 6.7611836735348001e-05 0.0000000000000000e+00  -2.7078297940275761e-02 -4.6298156597538833e-05 0.0000000000000000e+00  -2.7710122220490262e-02 2.1694658280813810e-05 0.0000000000000000e+00  -1.2720359838027669e-02 -4.6206398827390235e-03 0.0000000000000000e+00  1.2498134213244989e-02 -4.3212512466504257e-03 0.0000000000000000e+00  3.0173151867107437e-03 -5.6417048823106976e-03 0.0000000000000000e+00  -4.8542611572004995e-03 -4.8769590756253690e-03 0.0000000000000000e+00  -1.4814746007368488e-02 -2.1043475611652969e-03 0.0000000000000000e+00  1.7788240923329372e-02 -3.6882820588613119e-03 0.0000000000000000e+00  -1.8419517738367655e-02 -3.5347105277780612e-03 0.0000000000000000e+00  1.4818630631337988e-02 -1.7818176814784373e-03 0.0000000000000000e+00  8.4422551018187714e-03 -5.5487785253202039e-03 0.0000000000000000e+00  -1.8466529307283193e-03 -5.8602924421136586e-03 0.0000000000000000e+00  7.3280149916818476e-03 -3.5699752890579377e-03 0.0000000000000000e+00  -8.0598189353922010e-03 -5.5508379743284221e-03 0.0000000000000000e+00  -9.1106002902396534e-03 -3.3747659433640419e-03 0.0000000000000000e+00  -4.9512482851668828e-05 -3.5991927299736412e-03 0.0000000000000000e+00  1.6826203142288366e-02 -2.6327693309223864e-03 0.0000000000000000e+00  -1.7246406394369029e-02 -2.7861071325272152e-03 0.0000000000000000e+00  3.5053146225182278e-03 -5.3933010842542924e-03 0.0000000000000000e+00  1.1151425233453593e-02 -2.3604099991902279e-03 0.0000000000000000e+00  -1.3108669364205456e-02 -4.7828911358496458e-03 0.0000000000000000e+00  1.3193588038684900e-02 -4.6336825047831667e-03 0.0000000000000000e+00  3.6146582911524734e-03 -2.7822256695861670e-03 0.0000000000000000e+00  -1.5216537122152854e-02 -8.4543596748156335e-04 0.0000000000000000e+00  2.1443500539474403e-02 -2.3652344923616423e-03 0.0000000000000000e+00  -5.6815881289684787e-03 -2.6231858432556043e-03 0.0000000000000000e+00  -8.9123301905431641e-03 -5.0784864167665693e-03 0.0000000000000000e+00  -1.1296916674897637e-03 -5.4458039442767947e-03 0.0000000000000000e+00  -1.1966805975708400e-02 -2.0241281026700097e-03 0.0000000000000000e+00  8.9073898846780564e-03 -5.1186768974901559e-03 0.0000000000000000e+00  -5.2019536100666878e-03 -4.7533899245609905e-03 0.0000000000000000e+00  1.5579111287375390e-02 -7.5447054516475907e-04 0.0000000000000000e+00  -2.1764130985323812e-02 -2.2118584493382226e-03 0.0000000000000000e+00  -2.0128169980546062e-02 -2.1455926218486767e-03 0.0000000000000000e+00  1.6661689455491437e-02 -1.3230357182738488e-03 0.0000000000000000e+00  -1.6970176961693541e-02 -1.5227734553856366e-03 0.0000000000000000e+00  1.9487053573450028e-02 -2.1378866278914041e-03 0.0000000000000000e+00  -5.0287444713081426e-03 -5.8696084105941482e-03 0.0000000000000000e+00  2.2938254033136904e-04 -4.4582003715707384e-03 0.0000000000000000e+00  6.7395322891940996e-03 -4.4201534955554565e-03 0.0000000000000000e+00  1.6970885162114476e-02 -3.3732358558710889e-03 0.0000000000000000e+00  -1.2751630810230265e-02 -3.3077284047497743e-03 0.0000000000000000e+00  -2.5896563974989960e-03 -2.2654082548506371e-03 0.0000000000000000e+00  8.5789962394998108e-03 -2.0132576119400920e-03 0.0000000000000000e+00  -1.0213026806885402e-02 -4.0528825613839470e-03 0.0000000000000000e+00  1.1652377590445380e-02 -5.3101215566231192e-03 0.0000000000000000e+00  -1.5734948486994159e-02 -4.0092624670029550e-03 0.0000000000000000e+00  1.4397647054742934e-02 -3.1917451249706551e-03 0.0000000000000000e+00  6.1575821603884178e-03 -5.7427167600670485e-03 0.0000000000000000e+00  1.0200298926489028e-02 -4.1354771097256229e-03 0.0000000000000000e+00  1.5508871203479961e-02 -3.8158644207190989e-03 0.0000000000000000e+00  1.0793373786580187e-03 -5.9689091575426383e-03 0.0000000000000000e+00  -1.6424235971755647e-02 -3.3446735508573869e-03 0.0000000000000000e+00  1.2860419129276747e-02 -1.3878794545293281e-03 0.0000000000000000e+00  4.7275629099884356e-03 -4.5292810313057345e-03 0.0000000000000000e+00  -1.1066075651007349e-02 -5.3129833031822183e-03 0.0000000000000000e+00  -1.3667234531294196e-02 -1.1755769565911546e-03 0.0000000000000000e+00  1.0303498186276558e-02 -3.8348031201732111e-03 0.0000000000000000e+00  5.8150588080473050e-03 -2.0449320391060810e-03 0.0000000000000000e+00  1.0732041599596359e-03 -2.2058777966061003e-03 0.0000000000000000e+00  -1.4822325826592602e-02 -3.4742829586226422e-03 0.0000000000000000e+00  -7.6611605259962355e-03 -1.8514861459179900e-03 0.0000000000000000e+00  -3.0030389225874526e-03 -3.9602173368944163e-03 0.0000000000000000e+00  1.7610070399858701e-03 -4.4210871285899041e-03 0.0000000000000000e+00  -7.3790950315333788e-03 -4.1884966073291669e-03 0.0000000000000000e+00  1.4543435639529079e-02 -4.6251100395923129e-03 0.0000000000000000e+00  -1.0614867698815101e-02 -4.2998214285525213e-03 0.0000000000000000e+00  2.1180737990834250e-02 -1.9947343267256324e-03 0.0000000000000000e+00  -1.6470469837540032e-02 -9.5200095100154644e-04 0.0000000000000000e+00  1.8444250265486583e-02 -1.3373700478305354e-03 0.0000000000000000e+00  -1.8958600938378728e-02 -1.4377372532578796e-03 0.0000000000000000e+00  -2.3463849328630377e-03 -3.8104394877859927e-03 0.0000000000000000e+00  -9.9625045815747264e-03 -1.4095573690644152e-03 0.0000000000000000e+00  1.4216233832347968e-02 -7.5340260641535708e-04 0.0000000000000000e+00  -1.9506363639633744e-02 -2.5229388921693490e-03 0.0000000000000000e+00  1.3150853538552920e-02 -2.5850870041756817e-03 0.0000000000000000e+00  -1.5124145226471942e-02 -4.4851507952993162e-03 0.0000000000000000e+00  -7.4128336387602935e-03 -3.5849932495497722e-03 0.0000000000000000e+00  5.6744780286940473e-03 -5.7318137744438299e-03 0.0000000000000000e+00  2.8512948463308308e-03 -3.4471417942345240e-03 0.0000000000000000e+00  -1.5604235262857464e-02 -2.8169737512116972e-04 0.0000000000000000e+00  2.3859627260767582e-02 -1.3577770152186589e-03 0.0000000000000000e+00  1.5689374945844742e-02 -2.5004709707539377e-04 0.0000000000000000e+00  -2.4357021558936411e-02 -1.2400389135043461e-03 0.0000000000000000e+00  -1.2902083190327880e-02 -3.2870325127785436e-03 0.0000000000000000e+00  1.0560998179731813e-02 -1.3957434117848697e-03 0.0000000000000000e+00  1.6468800127974415e-02 -7.4447006236466400e-04 0.0000000000000000e+00  -2.2136345089592811e-02 -1.6245200959390505e-03 0.0000000000000000e+00  6.7682198356005929e-03 -5.0422732823090571e-03 0.0000000000000000e+00  1.4294931948970732e-02 -3.1045112096544369e-03 0.0000000000000000e+00  3.5760592392112848e-03 -5.8974942380714615e-03 0.0000000000000000e+00  -7.0287325156300840e-03 -5.6923544878593121e-03 0.0000000000000000e+00  -3.2180368936128387e-03 -5.5773681281692635e-03 0.0000000000000000e+00  1.9720653951228191e-02 -2.3980343956716233e-03 0.0000000000000000e+00  -1.7784979341661501e-02 -3.3171813355806802e-03 0.0000000000000000e+00  1.5699900815718981e-02 -2.3259933357869271e-03 0.0000000000000000e+00  1.0939505809146833e-02 -5.0942307569999262e-03 0.0000000000000000e+00  1.7257820168291561e-02 -3.1837697231896132e-03 0.0000000000000000e+00  -1.3200683455384282e-02 -4.8445583666373443e-03 0.0000000000000000e+00  -1.6093940753329379e-02 -2.5483189157997637e-03 0.0000000000000000e+00  1.2103150585104033e-02 -3.5330184669870382e-03 0.0000000000000000e+00  -4.4963041410955099e-03 -1.4929724009756830e-03 0.0000000000000000e+00  -1.1289723432124749e-02 -2.8917657611809639e-03 0.0000000000000000e+00  -5.9394146913572402e-03 -5.6522791418669545e-03 0.0000000000000000e+00  -8.2818087642841419e-04 -1.4748125183863181e-03 0.0000000000000000e+00  9.5171420599501153e-03 -2.9612215976030283e-03 0.0000000000000000e+00  -1.0798475422874061e-02 -5.0867760576120960e-03 0.0000000000000000e+00  4.2462649528305068e-03 -1.5020650596054223e-03 0.0000000000000000e+00  5.6718666625838240e-03 -3.3266668702326332e-03 0.0000000000000000e+00  7.9185839105142767e-04 -5.8268214453139613e-03 0.0000000000000000e+00  1.8772640703010719e-02 -3.3186193474213127e-03 0.0000000000000000e+00  1.8601346649358640e-03 -3.3138270311045895e-03 0.0000000000000000e+00  -7.4030667129279558e-04 -5.9666286152919310e-03 0.0000000000000000e+00  -5.7334610399070682e-06 -4.8076754997141901e-03 0.0000000000000000e+00  2.3808698398875935e-02 -1.3424421598982807e-03 0.0000000000000000e+00  -1.6069113064139016e-02 -4.4554872914918990e-04 0.0000000000000000e+00  -1.3356211265956305e-02 -2.3565786762615999e-03 0.0000000000000000e+00  -1.2249768242576772e-02 -9.8029165230008406e-04 0.0000000000000000e+00  -4.8302461082970665e-03 -3.8800102171690221e-03 0.0000000000000000e+00  -6.7349888316090428e-03 -5.1166462169738372e-03 0.0000000000000000e+00  -1.0679150301851098e-02 -5.0265826113722175e-03 0.0000000000000000e+00  -1.4463498166342221e-02 -5.6171730450831157e-04 0.0000000000000000e+00  -7.3162446871050963e-03 -3.0662272627970050e-03 0.0000000000000000e+00  4.9615159563842024e-03 -3.1374998791128235e-03 0.0000000000000000e+00  -1.5880856557379648e-02 -1.7615260763421299e-03 0.0000000000000000e+00  1.9377505941823227e-02 -2.7810431767201593e-03 0.0000000000000000e+00  1.0668207400745882e-04 -5.7250621440102433e-03 0.0000000000000000e+00  1.3065905985004447e-02 -4.8916468380546850e-03 0.0000000000000000e+00  1.5746980131777388e-02 -1.4130836649387352e-03 0.0000000000000000e+00  -2.0173705227780361e-02 -2.6761240557773270e-03 0.0000000000000000e+00  -6.3246055894147701e-03 -1.2289896041805211e-03 0.0000000000000000e+00  9.4704520869575877e-03 -5.4588621518596491e-03 0.0000000000000000e+00  1.0963660667991645e-02 -5.0367375382629207e-03 0.0000000000000000e+00  8.3897351356806843e-03 -3.2247585729790859e-03 0.0000000000000000e+00  -1.4598816702805622e-02 -1.4745814431913267e-03 0.0000000000000000e+00  -2.3777142635359226e-03 -4.8546023120586979e-03 0.0000000000000000e+00  2.0005639109728086e-02 -1.1368504523354918e-03 0.0000000000000000e+00  -1.8137079005846594e-02 -8.7508337691592384e-04 0.0000000000000000e+00  1.7775307614229220e-02 -8.8875937371056513e-04 0.0000000000000000e+00  -2.0363557055453122e-02 -1.2489785741531415e-03 0.0000000000000000e+00  1.2216504115395101e-02 -2.6618964642336151e-03 0.0000000000000000e+00  -1.7404339282623298e-02 -7.4072243956266760e-04 0.0000000000000000e+00  2.1152387252462587e-02 -1.2086947422280067e-03 0.0000000000000000e+00  -3.8541452254537462e-03 -5.6256435508818510e-03 0.0000000000000000e+00  8.4871930902570628e-03 -4.4748849072366445e-03 0.0000000000000000e+00  4.7892714575463406e-03 -5.3282864522357139e-03 0.0000000000000000e+00  -2.9178332755698914e-03 -5.9414162585626441e-03 0.0000000000000000e+00  1.6424657906476989e-02 -4.0737785101622685e-03 0.0000000000000000e+00  -4.3286744865429572e-03 -3.1258505613002323e-03 0.0000000000000000e+00  8.6434684639549487e-03 -4.8797946404421384e-03 0.0000000000000000e+00  7.4376019802278835e-03 -1.2905861995172482e-03 0.0000000000000000e+00  1.6145983149880867e-02 -3.9089352308387235e-04 0.0000000000000000e+00  -2.3762506241008875e-02 -1.2286873689198016e-0