<?xml version="1.0"?>
<VTKFile type="UnstructuredGrid"  version="0.1"  >
<UnstructuredGrid>
<Piece  NumberOfPoints="1855" NumberOfCells="3532">
<Points>
<DataArray  type="Float64"  NumberOfComponents="3"  format="ascii">0 0 0  30 0 0  30 -10 0  0 -10 0  0.1391574078963744 0 0  0.2856388821882616 0 0  0.4398299073010886 0 0  0.6021362569539473 0 0  0.7729850389704483 0 0  0.9528258543586996 0 0  1.142131984380316 0 0  1.34140159760994 0 0  1.551159074717981 0 0  1.771956417032531 0 0  2.004374674080994 0 0  2.249025475789527 0 0  2.506552636773105 0 0  2.777633857742732 0 0  3.062982518028728 0 0  3.363349525995907 0 0  3.679525322337712 0 0  4.01234195575742 0 0  4.362675247811097 0 0  4.731447135329707 0 0  5.119628065610077 0 0  5.528239565804708 0 0  5.958356943167011 0 0  6.411112081475485 0 0  6.887696441559404 0 0  7.389364184530748 0 0  7.917435485335147 0 0  8.473300005202017 0 0  9.058420557070402 0 0  9.674336929103793 0 0  10.32266995225095 0 0  11.00512576896296 0 0  11.72350030646412 0 0  12.47968402994705 0 0  13.27566689579597 0 0  14.1135435963616 0 0  14.9955190732806 0 0  15.92391430904694 0 0  16.90117245730496 0 0  17.92986524844506 0 0  19.01269976086341 0 0  20.15252556282024 0 0  21.35234220269763 0 0  22.61530708683689 0 0  23.94474379751883 0 0  25.34415086349739 0 0  26.81721093579712 0 0  28.3678004819169 0 0  30 -1.111111111111111 0  30 -2.222222222222222 0  30 -3.333333333333333 0  30 -4.444444444444445 0  30 -5.555555555555555 0  30 -6.666666666666666 0  30 -7.777777777777777 0  30 -8.888888888888889 0  28.36780047917311 -10 0  26.8172109305839 -10 0  25.34415085606858 -10 0  23.94474378810899 -10 0  22.61530707566275 -10 0  21.3523421899591 -10 0  20.15252554870171 -10 0  19.01269974553473 -10 0  17.92986523206254 -10 0  16.90117244001232 -10 0  15.92391429097614 -10 0  14.99551905455266 -10 0  14.11354357708742 -10 0  13.27566687607703 -10 0  12.47968400987599 -10 0  11.72350028612546 -10 0  11.00512574843363 -10 0  10.32266993160086 -10 0  9.674336908396342 -10 0  9.058420536362949 -10 0  8.473299984546333 -10 0  7.917435464777824 -10 0  7.389364164113587 -10 0  6.887696420787165 -10 0  6.411112061446698 -10 0  5.95835692337857 -10 0  5.528239546282652 -10 0  5.119628046377237 -10 0  4.731447115907979 -10 0  4.362675229213632 -10 0  4.012341937260036 -10 0  3.679525304434552 -10 0  3.363349508456405 -10 0  3.062982500861274 -10 0  2.777633840953978 -10 0  2.506552620368097 -10 0  2.249025459771861 -10 0  2.004374658452946 -10 0  1.771956401795187 -10 0  1.551159059871345 -10 0  1.341401583153029 -10 0  1.142131970307521 -10 0  0.9528258406748833 -10 0  0.7729850256685147 -10 0  0.6021362439621285 -10 0  0.4398298947504031 -10 0  0.2856388700059078 -10 0  0.1391573960769001 -10 0  0 -9.855072463768115 0  0 -9.710144927536232 0  0 -9.565217391304348 0  0 -9.420289855072463 0  0 -9.27536231884058 0  0 -9.130434782608695 0  0 -8.985507246376812 0  0 -8.840579710144928 0  0 -8.695652173913043 0  0 -8.55072463768116 0  0 -8.405797101449275 0  0 -8.260869565217391 0  0 -8.115942028985508 0  0 -7.971014492753623 0  0 -7.826086956521739 0  0 -7.681159420289855 0  0 -7.536231884057971 0  0 -7.391304347826087 0  0 -7.246376811594203 0  0 -7.101449275362318 0  0 -6.956521739130435 0  0 -6.811594202898551 0  0 -6.666666666666667 0  0 -6.521739130434783 0  0 -6.376811594202898 0  0 -6.231884057971015 0  0 -6.086956521739131 0  0 -5.942028985507246 0  0 -5.797101449275362 0  0 -5.652173913043478 0  0 -5.507246376811594 0  0 -5.36231884057971 0  0 -5.217391304347826 0  0 -5.072463768115941 0  0 -4.927536231884058 0  0 -4.782608695652174 0  0 -4.637681159420289 0  0 -4.492753623188406 0  0 -4.347826086956522 0  0 -4.202898550724638 0  0 -4.057971014492754 0  0 -3.913043478260869 0  0 -3.768115942028985 0  0 -3.623188405797101 0  0 -3.478260869565217 0  0 -3.333333333333334 0  0 -3.188405797101449 0  0 -3.043478260869565 0  0 -2.898550724637681 0  0 -2.753623188405797 0  0 -2.608695652173912 0  0 -2.463768115942029 0  0 -2.318840579710145 0  0 -2.173913043478261 0  0 -2.028985507246377 0  0 -1.884057971014492 0  0 -1.739130434782609 0  0 -1.594202898550725 0  0 -1.44927536231884 0  0 -1.304347826086957 0  0 -1.159420289855072 0  0 -1.014492753623188 0  0 -0.8695652173913047 0  0 -0.72463768115942 0  0 -0.579710144927537 0  0 -0.4347826086956523 0  0 -0.2898550724637676 0  0 -0.1449275362318829 0  5.15859856094262 -4.976557621770688 0  2.816777084926057 -7.160262673925935 0  2.81677708460006 -2.839737326002783 0  2.227649803257325 -5.003121586636773 0  1.518662968975629 -8.46230852045241 0  1.518662969184829 -1.537691480152612 0  9.960740911025725 -5.055901393541221 0  1.491099662214591 -3.691833922963321 0  1.503675657181264 -6.345020369042368 0  5.319208041801049 -7.493850249937013 0  5.291109955459268 -2.489368743223226 0  1.096914507335763 -2.53623188405797 0  1.096914507253562 -7.463768115942029 0  1.089580194952752 -4.71277167923441 0  15.07565076110197 -5.047572991082069 0  7.501630508673601 -5.937500100385354 0  0.8894869418764504 -5.623930488933245 0  2.955144522453978 -1.440834296472408 0  2.955144521140721 -8.559165705576945 0  8.106603955004623 -2.748811534843258 0  3.662152539483591 -4.228178367024407 0  3.662181528265114 -5.771746159989156 0  0.8436558190317136 -0.8541050638451999 0  0.8436558075840921 -9.145894948342754 0  0.7854168197005933 -1.811594202898552 0  0.7894693398152999 -3.286543351392342 0  0.7854168196772591 -8.188405797101449 0  0.7854168196772591 -6.739130434782609 0  20.00078956016804 -4.999999999785771 0  0.7379120031523989 -3.977302749614766 0  6.584332478112232 -3.934875417052907 0  7.295091310194352 -7.969791332537982 0  9.811174303464586 -7.412814499648229 0  4.013376806449688 -2.206189431585293 0  4.013376806983409 -7.793810569017377 0  12.11177433894592 -2.818343737884045 0  2.591152707837148 -3.990098461753838 0  2.58990939378082 -6.025895074707176 0  25.43156400064585 -5.044446479916348 0  2.03262751726143 -2.282125834846944 0  2.032627517335952 -7.717874165160392 0  12.51865094522923 -6.491408052923457 0  0.598175343983641 -6.156971652625402 0  2.126700074935224 -0.8767654465386991 0  2.126700059112423 -9.123234559633019 0  6.617961838548696 -1.617756429129908 0  0.5903949564549755 -4.980060355019413 0  1.676697585305984 -5.547101897225158 0  4.773518305133987 -3.729331162566817 0  4.77931803486508 -6.231222307502165 0  4.878549698409591 -8.72048903376362 0  4.852580875634024 -1.222215410052823 0  0.5487847095754042 -2.675169258708207 0  0.545113423825768 -7.32369553390529 0  1.78738026998851 -4.400451872599477 0  1.68244194111824 -3.010100184333533 0  1.683984276238402 -7.018293626028473 0  9.998503440677371 -2.00585287985007 0  3.693061162502273 -3.243678395563028 0  3.694987482168253 -6.757603268814477 0  6.081763036485869 -5.83414381546261 0  0.5196640460586313 -1.350633211792632 0  0.5196640458460706 -8.649366789040087 0  3.84593363904758 -0.9906418103762418 0  3.845933620847308 -9.009358200471317 0  17.41551885287501 -3.057748733689079 0  17.30725517812527 -7.002961443761516 0  8.117698464370697 -4.451550942597151 0  0.4918476668493152 -0.4789811193757592 0  0.4918476560347713 -9.521018882514893 0  1.463770869328428 -0.6252343353791154 0  1.463770854281917 -9.374765668872765 0  0.5034132782032188 -4.464280853772128 0  3.138906271796685 -4.99999841599503 0  14.61209972381335 -2.388610981020637 0  6.208601124947327 -8.776231214192325 0  14.74910972998159 -7.542186851303819 0  2.243794246335625 -1.632184311040998 0  2.243794245689214 -8.367815689183566 0  0.4590235278399923 -5.431413993025926 0  0.4971508861448406 -2.209632053221267 0  0.4971508861368665 -7.790367946777407 0  0.4644363683211541 -3.560571347760519 0  6.478811279411406 -7.007392971062433 0  1.238895267772762 -4.173677632458826 0  1.293241773632479 -2.02256720952064 0  1.293241773542714 -7.977432790434841 0  0.4324740478030531 -0.942028985507247 0  0.4324740423701829 -9.057971014492754 0  2.117396640811705 -3.472968170680347 0  2.107095929630507 -6.531506384346077 0  8.087741545730886 -1.392783601483453 0  1.028911946384717 -1.352376108341404 0  1.028911946221715 -8.647623891551962 0  4.05691976296832 -4.991522392209158 0  11.51826881314265 -8.065248940008736 0  1.618560396201739 -4.958056164503666 0  2.701984523487646 -2.141781914603403 0  2.70198452396172 -7.858218085853512 0  2.843615645746219 -9.289121726447632 0  2.843615661334342 -0.7108782798429658 0  8.678774612240533 -8.488146490452822 0  6.487906449371135 -2.667543558824978 0  8.369190916679937 -7.129867754908394 0  11.80978191929258 -4.655775487536958 0  0.3792065166453504 -3.113833531412848 0  0.4134714637263563 -6.58827691137208 0  9.551050695080825 -3.49648183875815 0  1.083867845277057 -6.036251777836495 0  0.3756430921870901 -1.80381664325008 0  0.3756430921689482 -8.196183356748573 0  3.113073783220456 -3.503408140759125 0  3.113391383189963 -6.496678880796299 0  22.62850736315072 -3.277987336300344 0  22.59385352108348 -6.800312122582239 0  0.3777114402537816 -4.137047872695438 0  0.9196816123347897 -0.4281025456111269 0  0.9196815944880363 -9.571897460530383 0  0.4052043328723194 -5.827814332459883 0  8.865857694874787 -5.767686953139113 0  1.200388325130726 -5.182186034620629 0  5.65297436943758 -4.325500846767599 0  1.200079167961391 -3.009849046583253 0  1.20883344838 -7.021823297793294 0  1.057642414577487 -3.660996704809145 0  10.88812987788297 -6.333458225047037 0  4.493502926606794 -2.839780197438185 0  4.485862892033458 -7.147606077919463 0  0.3631651408878085 -7.003529808558233 0  1.946748828463205 -6.049056369468467 0  6.918750162798794 -4.993796052442676 0  3.351203216022585 -1.980935554775394 0  3.351203216441711 -8.019064445907297 0  2.281892243515294 -2.856654416292082 0  2.281892243715877 -7.143345583598931 0  5.811143619672087 -0.9953286820321026 0  2.695713766833098 -4.565354125099452 0  2.698172168139827 -5.435483248292925 0  19.86166219288896 -2.493475492328429 0  19.83739102036415 -7.594404063416508
[...]
<PointData  Vectors="flow"> 
<DataArray  type="Float64"  Name="flow"  NumberOfComponents="3" format="ascii">-3.3207043771558125e-16 -1.5602695341654169e-16 0.0000000000000000e+00  -2.4942232366197361e-26 -1.1719382653503356e-26 0.0000000000000000e+00  -9.4786051903661678e-27 -4.4536270698018307e-27 0.0000000000000000e+00  6.0827667399095564e-22 2.8580549635810859e-22 0.0000000000000000e+00  1.5261073344401063e-15 7.1705834345686053e-16 0.0000000000000000e+00  -7.5996120311430303e-15 -3.5707614340019507e-15 0.0000000000000000e+00  1.3220751043008540e-14 6.2119155240370314e-15 0.0000000000000000e+00  -7.8680432837740832e-14 -3.6968868152250812e-14 0.0000000000000000e+00  8.0717213070806513e-14 3.7925871782957835e-14 0.0000000000000000e+00  6.8948850882274614e-13 3.2396377162446739e-13 0.0000000000000000e+00  1.0978220268733333e-12 5.1582377348907270e-13 0.0000000000000000e+00  -5.4657587361462951e-12 -2.5681469557407110e-12 0.0000000000000000e+00  -1.9225503022317174e-11 -9.0333143928997132e-12 0.0000000000000000e+00  -2.5553529117805864e-11 -1.2006607166600782e-11 0.0000000000000000e+00  -8.2214830957683453e-11 -3.8629544045623058e-11 0.0000000000000000e+00  -1.9260443092367482e-11 -9.0497313697303114e-12 0.0000000000000000e+00  8.7735749244048560e-10 4.1223608323699527e-10 0.0000000000000000e+00  -1.7097305230653077e-09 -8.0333572151832000e-10 0.0000000000000000e+00  -3.2690363512704243e-09 -1.5359927430020678e-09 0.0000000000000000e+00  -3.1648711865169709e-09 -1.4870495928065250e-09 0.0000000000000000e+00  -7.5720302012309196e-10 -3.5578018073623615e-10 0.0000000000000000e+00  2.6453199385355920e-09 1.2429327153031786e-09 0.0000000000000000e+00  -2.9629744198683757e-09 -1.3921861727997975e-09 0.0000000000000000e+00  -9.6059531339232804e-10 -4.5134629040115118e-10 0.0000000000000000e+00  1.5613476323472002e-09 7.3361638565345492e-10 0.0000000000000000e+00  1.3611773604880056e-09 6.3956417824346534e-10 0.0000000000000000e+00  2.3061155337942254e-09 1.0835537888881828e-09 0.0000000000000000e+00  9.8172567995293225e-10 4.6127462591245267e-10 0.0000000000000000e+00  -6.9026987845593371e-10 -3.2433090675458393e-10 0.0000000000000000e+00  -3.6801318686338091e-11 -1.7291505006713720e-11 0.0000000000000000e+00  -8.3431225349726453e-12 -3.9201080351140097e-12 0.0000000000000000e+00  -2.3605698446850304e-12 -1.1091397467564549e-12 0.0000000000000000e+00  1.5738583104401720e-12 7.3949466557939195e-13 0.0000000000000000e+00  1.0831276539953047e-13 5.0891946051169167e-14 0.0000000000000000e+00  2.4399133878353991e-14 1.1464201845942481e-14 0.0000000000000000e+00  -7.4247676961117769e-15 -3.4886088970138916e-15 0.0000000000000000e+00  2.2324415129450116e-15 1.0489372385619071e-15 0.0000000000000000e+00  -4.2599864687980876e-16 -2.0016015725300783e-16 0.0000000000000000e+00  7.9758041957837059e-17 3.7475194668815186e-17 0.0000000000000000e+00  8.2513672863954800e-18 3.8769958207478151e-18 0.0000000000000000e+00  -2.9413285755219010e-18 -1.3820156343720400e-18 0.0000000000000000e+00  1.7222027708217788e-18 8.0919594452728749e-19 0.0000000000000000e+00  -4.0405544029455976e-19 -1.8984989990146787e-19 0.0000000000000000e+00  8.9696784656996047e-20 4.2145022416230774e-20 0.0000000000000000e+00  -8.6374754679823535e-21 -4.0584130034294028e-21 0.0000000000000000e+00  1.9917578947199142e-21 9.3584938904639058e-22 0.0000000000000000e+00  -2.5167495632569421e-22 -1.1825225080822324e-22 0.0000000000000000e+00  4.2326838821337219e-23 1.9887731514067253e-23 0.0000000000000000e+00  7.5241597631660058e-25 3.5353093546726054e-25 0.0000000000000000e+00  5.0747447518432738e-25 2.3844247276081456e-25 0.0000000000000000e+00  -5.1321430778305409e-25 -2.4113939634022504e-25 0.0000000000000000e+00  1.1938866357365016e-25 5.6096078825974669e-26 0.0000000000000000e+00  1.1294750576744170e-26 5.3069629871675811e-27 0.0000000000000000e+00  -9.9334634740795479e-28 -4.6673472453534581e-28 0.0000000000000000e+00  3.0911922897373639e-27 1.4524307514706411e-27 0.0000000000000000e+00  -4.0217087270792295e-27 -1.8896441505953711e-27 0.0000000000000000e+00  -1.0027772999097975e-27 -4.7116596146447780e-28 0.0000000000000000e+00  3.1446180424661668e-27 1.4775334299553777e-27 0.0000000000000000e+00  -3.5483637030593925e-28 -1.6672377764514861e-28 0.0000000000000000e+00  4.6747844878709576e-27 2.1964989914162160e-27 0.0000000000000000e+00  4.6645814029414954e-26 2.1917049595597630e-26 0.0000000000000000e+00  -1.9278629409514294e-25 -9.0582764111914277e-26 0.0000000000000000e+00  3.4906728112106397e-25 1.6401310753643058e-25 0.0000000000000000e+00  3.7278078636481015e-24 1.7515515921517111e-24 0.0000000000000000e+00  -4.8406816356228530e-23 -2.2744475938943211e-23 0.0000000000000000e+00  2.5927460437188890e-22 1.2182302916429389e-22 0.0000000000000000e+00  -1.3726807073143269e-21 -6.4496915247649894e-22 0.0000000000000000e+00  3.1509356968171465e-21 1.4805018494506596e-21 0.0000000000000000e+00  -3.0955333685326863e-20 -1.4544704551661398e-20 0.0000000000000000e+00  7.7365318965243380e-20 3.6350947411298376e-20 0.0000000000000000e+00  -6.1940937599109048e-19 -2.9103631903634659e-19 0.0000000000000000e+00  1.6455364794142740e-18 7.7317344291483227e-19 0.0000000000000000e+00  -4.0743126071958617e-18 -1.9143606631791134e-18 0.0000000000000000e+00  -2.6927630520143655e-17 -1.2652243848285116e-17 0.0000000000000000e+00  6.2023394279398305e-17 2.9142375083253090e-17 0.0000000000000000e+00  -5.1249590668401134e-16 -2.4080184766956970e-16 0.0000000000000000e+00  3.2136420094869106e-15 1.5099651012630009e-15 0.0000000000000000e+00  -1.2145269933918995e-14 -5.7065888768875253e-15 0.0000000000000000e+00  -2.3349182558076920e-14 -1.0970870651315631e-14 0.0000000000000000e+00  3.0737166676997080e-14 1.4442196379359567e-14 0.0000000000000000e+00  -1.0715073655331394e-13 -5.0345953996276656e-14 0.0000000000000000e+00  1.0048376086597187e-13 4.7213402022803193e-14 0.0000000000000000e+00  1.8129800110192466e-13 8.5184863088205515e-14 0.0000000000000000e+00  -8.9471179597290255e-14 -4.2039019393548465e-14 0.0000000000000000e+00  -1.2856550818500379e-13 -6.0407920363380206e-14 0.0000000000000000e+00  1.3043523108990932e-14 6.1286430268063980e-15 0.0000000000000000e+00  8.2727195410544024e-13 3.8870284128265466e-13 0.0000000000000000e+00  2.9078789795865993e-13 1.3662989732241718e-13 0.0000000000000000e+00  6.7485901038733005e-14 3.1708994061863409e-14 0.0000000000000000e+00  2.3292904389439836e-14 1.0944427733792742e-14 0.0000000000000000e+00  -1.8568658091145742e-14 -8.7246885658528758e-15 0.0000000000000000e+00  -2.6190517423721547e-14 -1.2305903139520545e-14 0.0000000000000000e+00  2.2935498132777436e-14 1.0776496466731818e-14 0.0000000000000000e+00  1.3294210923528510e-14 6.2464314581705351e-15 0.0000000000000000e+00  6.5239167437322314e-15 3.0653341528087090e-15 0.0000000000000000e+00  -5.2238483363926655e-15 -2.4544826894091675e-15 0.0000000000000000e+00  -4.9615844191523953e-17 -2.3312550986618544e-17 0.0000000000000000e+00  4.3520726706425781e-16 2.0448692889348826e-16 0.0000000000000000e+00  1.7213688275191747e-16 8.0880410707941854e-17 0.0000000000000000e+00  3.1973359036360821e-17 1.5023034977926801e-17 0.0000000000000000e+00  1.2916270328300387e-17 6.0688519059178766e-18 0.0000000000000000e+00  -1.1997781387014214e-18 -5.6372897583159048e-19 0.0000000000000000e+00  -2.0261665385704286e-18 -9.5201666942257487e-19 0.0000000000000000e+00  -9.4424700717253101e-20 -4.4366485862256755e-20 0.0000000000000000e+00  1.5593425494958294e-19 7.3267427538672928e-20 0.0000000000000000e+00  -2.4368684915169091e-20 -1.1449895065148923e-20 0.0000000000000000e+00  1.7029101947473885e-20 8.0013111512195964e-21 0.0000000000000000e+00  -4.1747121931771458e-21 -1.9615345147050318e-21 0.0000000000000000e+00  2.3618858860696613e-21 1.1097581032992006e-21 0.0000000000000000e+00  -6.4895428713006062e-21 -3.0491832101667387e-21 0.0000000000000000e+00  5.1306376978558632e-22 2.4106866440370920e-22 0.0000000000000000e+00  -4.6902735787499223e-20 -2.2037767114013507e-20 0.0000000000000000e+00  -4.1966088271303891e-20 -1.9718228893923512e-20 0.0000000000000000e+00  -1.9443752590506620e-18 -9.1358613568611333e-19 0.0000000000000000e+00  2.3982916773564597e-18 1.1268637653999110e-18 0.0000000000000000e+00  -2.8699879931903195e-18 -1.3484954758396130e-18 0.0000000000000000e+00  -1.0428513960560866e-17 -4.8999521701531939e-18 0.0000000000000000e+00  7.0790205121207997e-17 3.3261557736899121e-17 0.0000000000000000e+00  -2.2640750544290174e-16 -1.0638006065192582e-16 0.0000000000000000e+00  -4.7939030526126830e-16 -2.2524681613304619e-16 0.0000000000000000e+00  3.4705805031311587e-16 1.6306904830661331e-16 0.0000000000000000e+00  1.3595593724973087e-15 6.3880394876146178e-16 0.0000000000000000e+00  1.0105410121678900e-15 4.7481382719792171e-16 0.0000000000000000e+00  8.3823875344585619e-15 3.9385571276855614e-15 0.0000000000000000e+00  2.4449182676957805e-15 1.1487717825329468e-15 0.0000000000000000e+00  1.5438513911588974e-15 7.2539558398369996e-16 0.0000000000000000e+00  -1.9958337599032280e-13 -9.3776447920456076e-14 0.0000000000000000e+00  -1.7535864309355882e-13 -8.2394190297003057e-14 0.0000000000000000e+00  -7.5605936899930645e-14 -3.5524282365668699e-14 0.0000000000000000e+00  -2.0526595193807350e-13 -9.6446468831637248e-14 0.0000000000000000e+00  1.6394593342814585e-13 7.7031802932527286e-14 0.0000000000000000e+00  7.0617445505092209e-13 3.3180384728059826e-13 0.0000000000000000e+00  2.4591090638116046e-12 1.1554394844209473e-12 0.0000000000000000e+00  -6.1581161332171074e-12 -2.8934587061136553e-12 0.0000000000000000e+00  -6.4245208239470155e-11 -3.0186318849019042e-11 0.0000000000000000e+00  -7.2834031575976953e-11 -3.4221872112498173e-11 0.0000000000000000e+00  1.0815292269305243e-10 5.0816842194622064e-11 0.0000000000000000e+00  3.6460121924584844e-10 1.7131189949407885e-10 0.0000000000000000e+00  -7.2193880905194513e-11 -3.3921090267607391e-11 0.0000000000000000e+00  -5.2863637829908955e-10 -2.4838562606951202e-10 0.0000000000000000e+00  -9.8369229911224624e-11 -4.6219866358972685e-11 0.0000000000000000e+00  -6.6795727425929088e-10 -3.1384708386585954e-10 0.0000000000000000e+00  1.6123854400833471e-09 7.5759706187658214e-10 0.0000000000000000e+00  -6.0323347975274106e-09 -2.8343589598690478e-09 0.0000000000000000e+00  -8.5467752785751489e-11 -4.0157965202371903e-11 0.0000000000000000e+00  -5.3609065276183455e-09 -2.5188809904588966e-09 0.0000000000000000e+00  -1.0013198593764785e-09 -4.7048116697399450e-10 0.0000000000000000e+00  2.7839473205220893e-09 1.3080683179188816e-09 0.0000000000000000e+00  -3.4383752500016213e-09 -1.6155584900938650e-09 0.0000000000000000e+00  2.5135597215901912e-09 1.1810237258341985e-09 0.0000000000000000e+00  8.8274254570854779e-09 4.1476630983946371e-09 0.0000000000000000e+00  1.3171852966541261e-10 6.1889402241229774e-11 0.0000000000000000e+00  4.4296260441430349e-09 2.0813085958412536e-09 0.0000000000000000e+00  3.7588982746406307e-09 1.7661597642642385e-09 0.0000000000000000e+00  -8.2372113254251245e-12 -3.8703444865365874e-12 0.0000000000000000e+00  -7.7140684302233537e-10 -3.6245400340194158e-10 0.0000000000000000e+00  -5.5430999346755765e-10 -2.6044865698994522e-10 0.0000000000000000e+00  3.6151471342099952e-10 1.6986167072976440e-10 0.0000000000000000e+00  -1.5975604093811795e-10 -7.5063135788113238e-11 0.0000000000000000e+00  -8.9820066364865328e-11 -4.2202947684806779e-11 0.0000000000000000e+00  9.2857664093015295e-11 4.3630196441090752e-11 0.0000000000000000e+00  7.5427636535674569e-12 3.5440505975275830e-12 0.0000000000000000e+00  -3.6669775064775159e-13 -1.7229697786971384e-13 0.0000000000000000e+00  6.2204623365746221e-12 2.9227527565984894e-12 0.0000000000000000e+00  3.5300096953515887e-12 1.6586139437329432e-12 0.0000000000000000e+00  5.9177110239045237e-12 2.7805017170788804e-12 0.0000000000000000e+00  4.1152103063644892e-13 1.9335768976832273e-13 0.0000000000000000e+00  1.3868994483266507e-12 6.5164998458198099e-13 0.0000000000000000e+00  -8.0755209655080480e-13 -3.7943724896668574e-13 0.0000000000000000e+00  -2.4849806784907556e-13 -1.1675955475927379e-13 0.0000000000000000e+00  2.3791691455876358e-13 1.1178788331848500e-13 0.0000000000000000e+00  -4.1167313187900656e-15 -1.9342915621276157e-15 0.0000000000000000e+00  1.7116212940832476e-14 8.0422412111078874e-15 0.0000000000000000e+00  -5.5491844227083082e-16 -2.6073454336314347e-16 0.0000000000000000e+00  2.0197088044254234e-15 9.4898243189287928e-16 0.0000000000000000e+00  -9.6697811813135253e-16 -4.5434532152398414e-16 0.0000000000000000e+00  8.2356174771912487e-05 3.8695955993853437e-05 0.0000000000000000e+00  2.2339900933837771e-07 1.0496648561410073e-07 0.0000000000000000e+00  -1.1142542406343556e-01 -5.2354463015026595e-02 0.0000000000000000e+00  4.2226404557863841e-02 1.9840541368939618e-02 0.0000000000000000e+00  6.4664473037707642e-13 3.0383315033303984e-13 0.0000000000000000e+00  -2.9122499416569721e-07 -1.3683527179056668e-07 0.0000000000000000e+00  3.5570405250620863e-13 1.6713146768577209e-13 0.0000000000000000e+00  -1.1808572098961935e-03 -5.5483876898993259e-04 0.0000000000000000e+00  -7.9416138084529054e-07 -3.7314547367355363e-07 0.0000000000000000e+00  -1.1959481407707189e-08 -5.6192940911065461e-09 0.0000000000000000e+00  -1.7111044799590269e-05 -8.0398129030103766e-06 0.0000000000000000e+00  -9.1286669066098672e-08 -4.2892047120818923e-08 0.0000000000000000e+00  9.3291460005558846e-11 4.3834020229514457e-11 0.0000000000000000e+00  6.0923147844561910e-05 2.8625412174974047e-05 0.0000000000000000e+00  -9.5566637489976410e-18 -4.4903037435073928e-18 0.0000000000000000e+00  -1.9781782498106407e-09 -9.2946884328553089e-10 0.0000000000000000e+00  8.0241290636377275e-07 3.7702254384139047e-07 0.0000000000000000e+00  -1.7525287146269513e-05 -8.2344492331008000e-06 0.0000000000000000e+00  6.9732690857788276e-11 3.2764673010119457e-11 0.0000000000000000e+00  4.0913929183851984e-10 1.9223860355567729e-10 0.0000000000000000e+00  -9.9913413094092463e-01 -4.6945417838946096e-01 0.0000000000000000e+00  1.8034482077192401e-04 8.4737000809437856e-05 0.0000000000000000e+00  3.9915590151426103e-11 1.8754779762974723e-11 0.0000000000000000e+00  -9.0053412309738280e-17 -4.2312587847662218e-17 0.0000000000000000e+00  -7.3929691615521452e-09 -3.4736680052423244e-09 0.0000000000000000e+00  -2.4805259785845554e-06 -1.1655024577665826e-06 0.0000000000000000e+00  1.0600793529234346e-13 4.9808996234132928e-14 0.0000000000000000e+00  6.2200135259595872e-11 2.9225418779866958e-11 0.0000000000000000e+00  -1.5193702219238022e-21 -7.1389283692163872e-22 0.0000000000000000e+00  1.0568990508974838e-05 4.9659566239862101e-06 0.0000000000000000e+00  8.2442039511132646e-07 3.8736300487505427e-07 0.0000000000000000e+00  4.3693907273024241e-11 2.0530063686409811e-11 0.0000000000000000e+00  -2.6239037499438565e-13 -1.2328700831617869e-13 0.0000000000000000e+00  -1.7207477174122284e-05 -8.0851227165320279e-06 0.0000000000000000e+00  1.3084604870819063e-09 6.1479457451787056e-10 0.0000000000000000e+00  -8.5895646276610486e-15 -4.0359015672943953e-15 0.0000000000000000e+00  6.3077930261326234e+00 2.9637860431663574e+00 0.0000000000000000e+00  -4.2714761366943709e-06 -2.0070001195671488e-06 0.0000000000000000e+00  -1.1023511715902433e-24 -5.1795184202966229e-25 0.0000000000000000e+00  -2.2349554159852898e-04 -1.0501184235998100e-04 0.0000000000000000e+00  4.4341009201669597e-10 2.0834111656385909e-10 0.0000000000000000e+00  4.4231235005380544e-16 2.0782533040931394e-16 0.0000000000000000e+00  2.9409199758663040e-09 1.3818236493225157e-09 0.0000000000000000e+00  -1.8237009619668114e-08 -8.5688598779218435e-09 0.0000000000000000e+00  6.6196341045246001e-14 3.1103080092478551e-14 0.0000000000000000e+00  -4.2502091860242795e-08 -1.9970076085073108e-08 0.0000000000000000e+00  9.4402933163506168e-08 4.4356258137326348e-08 0.0000000000000000e+00  2.3737705623062805e-06 1.1153422493566059e-06 0.0000000000000000e+00  -4.1284334947053703e-03 -1.9397899583985215e-03 0.0000000000000000e+00  -8.6884697278994507e-08 -4.0823732182299744e-08 0.0000000000000000e+00  2.0046396963690282e-12 9.4190204546366945e-13 0.0000000000000000e+00  5.6739862224288540e-08 2.6659849341098881e-08 0.0000000000000000e+00  -1.4880912338908248e-08 -6.9919605980919372e-09 0.0000000000000000e+00  -9.7967710371736759e-12 -4.6031207980002028e-12 0.0000000000000000e+00  4.9096004626811948e-02 2.3068298640323313e-02 0.0000000000000000e+00  3.8452079374016985e-04 1.8067133101434197e-04 0.0000000000000000e+00  -3.6518286896006169e-09 -1.7158519402004962e-09 0.0000000000000000e+00  -4.6033527375321651e-13 -2.1629359965912504e-13 0.0000000000000000e+00  -1.3291561982354824e-01 -6.2451868239780030e-02 0.0000000000000000e+00  -5.8025233104112476e-08 -2.7263795009280023e-08 0.0000000000000000e+00  6.1847093565256700e-07 2.9059538250495821e-07 0.0000000000000000e+00  -1.1354620681781427e-10 -5.3350936155786840e-11 0.0000000000000000e+00  1.2511107325717481e-15 5.8784816056737570e-16 0.0000000000000000e+00  -8.8847505833166760e-08 -4.1745979404769463e-08 0.0000000000000000e+00  -2.2503080394149187e-12 -1.0573320228504854e-12 0.0000000000000000e+00  4.3085369679601239e-19 2.0244135594182145e-19 0.0000000000000000e+00  -1.3087324975268209e-19 -6.1492238162202046e-20 0.0000000000000000e+00  -7.9117594533692140e-10 -3.7174273391087852e-10 0.0000000000000000e+00  1.5371587329642723e-13 7.2225096480123565e-14 0.0000000000000000e+00  -2.7113765530474882e-19 -1.2739701433446642e-19 0.0000000000000000e+00  -4.7007369412223153e-10 -2.2086930375286989e-10 0.0000000000000000e+00  1.2739532063421943e-15 5.9858094851266290e-16 0.0000000000000000e+00  1.7196266747825809e-07 8.0798553742369401e-08 0.0000000000000000e+00  -4.9850357046466662e-02 -2.3422739435025840e-02 0.0000000000000000e+00  -1.4386008797995027e-17 -6.7594247172861635e-18 0.0000000000000000e+00  9.8184951665988139e-12 4.6133281195346103e-12 0.0000000000000000e+00  -2.5453364356687377e-18 -1.1959543650123561e-18 0.0000000000000000e+00  5.8735373998310151e-06 2.7597462531689572e-06 0.0000000000000000e+00  -1.2764922113639442e-11 -5.9977392799309519e-12 0.0000000000000000e+00  2.4621660798648610e-08 1.1568758570912052e-08 0.0000000000000000e+00  3.1429387515417198e-09 1.4767443966146064e-09 0.0000000000000000e+00  5.0025428832441075e-13 2.3504998842345227e-13 0.0000000000000000e+00  4.2413988593640291e-07 1.9928679794669784e-07 0.0000000000000000e+00  -2.5997052238204107e-09 -1.2215001390794857e-09 0.0000000000000000e+00  -6.9156214392316435e-04 -3.2493809192061206e-04 0.0000000000000000e+00  -6.6559007535126491e-07 -3.1273482938066345e-07 0.0000000000000000e+00  1.0118079387087770e-12 4.7540910659026182e-13 0.0000000000000000e+00  5.6095158554199311e-12 2.6356928219325555e-12 0.0000000000000000e+00  -2.6634305497294580e-17 -1.2514421854882677e-17 0.0000000000000000e+00  1.0782714291030761e-01 5.0663770974744511e-02 0.0000000000000000e+00  7.0054140926250237e-07 3.2915709866042812e-07 0.0000000000000000e+00  -8.5320929025413673e-11 -4.0088978441093091e-11 0.0000000000000000e+00  -3.8507398094256360e-09 -1.8093125211557666e-09 0.0000000000000000e+00  7.0538103814687960e-15 3.3143105160755183e-15 0.0000000000000000e+00  1.1263482675050741e-02 5.2922714190938936e-03 0.0000000000000000e+00  -5.3863733244881730e-15 -2.5308468455233006e-15 0.0000000000000000e+00  1.1847788733720718e-03 5.5668140577710111e-04 0.0000000000000000e+00  2.0398200737032775e-04 9.5843193331899233e-05 0.0000000000000000e+00  -3.4439216249192657e-10 -1.6181645154505941e-10 0.0000000000000000e+00  -7.9472297465093834e-14 -3.7340934470993894e-14 0.0000000000000000e+00  -6.8944800163161206e-08 -3.2394473887446591e-08 0.0000000000000000e+00  2.5075934122820603e-12 1.1782203896778939e-12 0.0000000000000000e+00  -2.7591850682503331e-07 -1.2964335008955033e-07 0.0000000000000000e+00  5.3856171832648556e-11 2.5304915642394919e-11 0.0000000000000000e+00  -2.0403495