<?xml version="1.0"?>
<VTKFile type="UnstructuredGrid"  version="0.1"  >
<UnstructuredGrid>
<Piece  NumberOfPoints="572" NumberOfCells="1038">
<Points>
<DataArray  type="Float64"  NumberOfComponents="3"  format="ascii">0 0 0  4 0 0  4 -1 0  0 -1 0  0.09999999999999999 0 0  0.2 0 0  0.3 0 0  0.4 0 0  0.4999999999999998 0 0  0.5999999999999996 0 0  0.6999999999999995 0 0  0.7999999999999994 0 0  0.8999999999999992 0 0  0.999999999999999 0 0  1.099999999999999 0 0  1.199999999999999 0 0  1.299999999999999 0 0  1.399999999999999 0 0  1.499999999999998 0 0  1.599999999999998 0 0  1.699999999999999 0 0  1.799999999999999 0 0  1.899999999999999 0 0  2 0 0  2.1 0 0  2.200000000000001 0 0  2.300000000000001 0 0  2.400000000000002 0 0  2.500000000000002 0 0  2.600000000000002 0 0  2.700000000000003 0 0  2.800000000000003 0 0  2.900000000000004 0 0  3.000000000000004 0 0  3.100000000000005 0 0  3.200000000000005 0 0  3.300000000000005 0 0  3.400000000000004 0 0  3.500000000000004 0 0  3.600000000000003 0 0  3.700000000000002 0 0  3.800000000000002 0 0  3.900000000000001 0 0  4 -0.08333333333333325 0  4 -0.1666666666666665 0  4 -0.2499999999999997 0  4 -0.333333333333333 0  4 -0.4166666666666666 0  4 -0.5000000000000001 0  4 -0.5833333333333337 0  4 -0.6666666666666673 0  4 -0.7500000000000006 0  4 -0.8333333333333337 0  4 -0.9166666666666669 0  3.9 -1 0  3.8 -1 0  3.7 -1 0  3.6 -1 0  3.5 -1 0  3.4 -1 0  3.300000000000001 -1 0  3.200000000000001 -1 0  3.100000000000001 -1 0  3.000000000000001 -1 0  2.900000000000001 -1 0  2.800000000000001 -1 0  2.700000000000001 -1 0  2.600000000000001 -1 0  2.500000000000002 -1 0  2.400000000000002 -1 0  2.300000000000002 -1 0  2.200000000000001 -1 0  2.100000000000001 -1 0  2 -1 0  1.9 -1 0  1.799999999999999 -1 0  1.699999999999999 -1 0  1.599999999999998 -1 0  1.499999999999998 -1 0  1.399999999999998 -1 0  1.299999999999997 -1 0  1.199999999999997 -1 0  1.099999999999996 -1 0  0.9999999999999956 -1 0  0.899999999999995 -1 0  0.7999999999999949 -1 0  0.6999999999999953 -1 0  0.5999999999999956 -1 0  0.499999999999996 -1 0  0.3999999999999968 -1 0  0.2999999999999976 -1 0  0.1999999999999984 -1 0  0.0999999999999992 -1 0  0 -0.9166666666666667 0  0 -0.8333333333333335 0  0 -0.7500000000000002 0  0 -0.666666666666667 0  0 -0.5833333333333335 0  0 -0.4999999999999999 0  0 -0.4166666666666663 0  0 -0.3333333333333327 0  0 -0.2499999999999994 0  0 -0.1666666666666663 0  0 -0.08333333333333315 0  3.491090701185765 -0.499339806301727 0  0.4950203227078167 -0.4989128584675094 0  2.64262313781888 -0.4879297506908338 0  1.449999999999998 -0.5 0  2.058402291097397 -0.5120941233772698 0  0.9749999999999992 -0.4749999999999993 0  3.081769880806683 -0.5597407802610527 0  1.745473944409859 -0.3290615136625714 0  2.347280045777389 -0.6545118286598804 0  2.335768673639667 -0.3237239238763549 0  1.750327526220345 -0.682828817540943 0  3.707492972392909 -0.3028030525063309 0  0.293580296675358 -0.7109385489008262 0  3.71498825372084 -0.7080088716251347 0  0.2918697062415769 -0.2988161261649331 0  3.250413907284768 -0.3098344370860925 0  0.7481958762886598 -0.6907216494845363 0  2.897531957111618 -0.3144800466372323 0  1.202975631932859 -0.6871206495416401 0  0.7276881720430104 -0.301075268817204 0  1.222241507685503 -0.2908020883113388 0  2.821785532795642 -0.7097679058139483 0  3.313580174540806 -0.7110306688463971 0  1.50219738324048 -0.2570217529780842 0  2.109436430026117 -0.7485141141565509 0  2.001923272149049 -0.2612004201407864 0  2.591779594323503 -0.2533220405676498 0  1.508220405676497 -0.7466779594323502 0  2.584305190871683 -0.7502831919469019 0  3.478286033189422 -0.23795222571263 0  0.5261060937617643 -0.7658117832712512 0  3.785135972681774 -0.5040707172464052 0  0.2090645029521114 -0.4969048262114374 0  0.9574438986108131 -0.2423163095862805 0  0.9754244626643473 -0.7628641460288867 0  0.5097271592765806 -0.2292760602594508 0  3.047448237147327 -0.7984168297371277 0  3.522893514415914 -0.785726174019542 0  3.27411286219494 -0.5150314861460955 0  2.876192398366876 -0.5166549013936721 0  3.072152863254761 -0.2028141497170135 0  2.188888454287124 -0.1960738743988359 0  1.911111545712876 -0.8039261256011641 0  0.6968885413728847 -0.4974520678389611 0  1.252104989604988 -0.4970114345114344 0  1.649610740490046 -0.5028202775347195 0  2.446694231298332 -0.485633542353709 0  1.845992484168205 -0.4989419599210881 0  2.246214131289309 -0.4959316037735846 0  2.743080194417513 -0.1797603284198384 0  1.345217800961618 -0.8177514544794908 0  3.831771135951664 -0.1764827624326512 0  0.168177957407361 -0.823589473522286 0  3.837430960455357 -0.8286944021295046 0  0.167391597779325 -0.1752538625856722 0  3.066111254276541 -0.3870061788029396 0  1.358909159394344 -0.1720779287034414 0  1.669284305949535 -0.172759019086266 0  2.264869859182613 -0.8283162784008133 0  2.434165412425708 -0.1697954173687042 0  1.668706113475668 -0.8314479749300888 0  1.842683258862577 -0.1656794186994128 0  3.848464877921415 -0.3616620315967092 0  0.151535122078585 -0.6383379684032905 0  3.848707346075076 -0.6466646759135177 0  0.1509968549082652 -0.3452619778382686 0  2.732975255829699 -0.3508363638623346 0  1.370252652534258 -0.6495109932111033 0  1.11832587037856 -0.1733419061976365 0  2.439737645513045 -0.836456385212641 0  3.331229791744127 -0.165499768727795 0  0.6726591332606813 -0.8336090461037186 0  1.132616756253317 -0.8280723285747189 0  1.950606351728588 -0.6518091391595896 0  2.153824719141371 -0.3536025000168445 0  3.62532407618639 -0.1564302309141494 0  0.3803710983093131 -0.8404803223371928 0  1.377912260103223 -0.3517997484404782 0  0.8924624300191402 -0.6125774599817652 0  3.207249628251628 -0.8375220474312923 0  0.6546785576266954 -0.155978749966339 0  2.719684587363634 -0.8327734580127736 0  3.647699282718985 -0.5637569936419204 0  0.3570156455557587 -0.5653989322146081 0  0.8322251523939386 -0.8403847541693579 0  0.3645988133126639 -0.1519337183240305 0  1.061404500324257 -0.6180105656135877 0  3.396758647231262 -0.3766313243368538 0  0.8148021518360848 -0.1629813466347811 0  0.6093556516052328 -0.6299486913462624 0  0.415997866655875 -0.3680522660477806 0  0.5920160015096863 -0.3645412637424194 0  3.572255424430109 -0.362089200459548 0  1.08043890485706 -0.3398660584513152 0  2.923658429424994 -0.1561137197110593 0  3.653613361778262 -0.8546909554159527 0  3.456739790681186 -0.6487708965425909 0  0.8424839600900655 -0.4190496412612194 0  2.6968241495241 -0.6460539373019687 0  2.90777185621417 -0.8467190841342236 0  3.167421855912535 -0.6853653881872064 0  3.378998015397395 -0.8550267917096944 0  2.549623533286458 -0.6074164390661531 0  1.563854363100012 -0.3870450365840445 0  1.945115925347995 -0.3956210114182645 0  2.206384380497951 -0.6363666106481864 0  2.9679770331043 -0.6663940397605803 0  2.492817266347368 -0.3527603982764793 0  1.545918816851176 -0.6075709531787901 0  2.028456012399734 -0.8701972194942087 0  2.065700499244939 -0.1359115819594244 0  1.113999927383315 -0.4803729266898425 0  3.194766700972084 -0.1349664610116483 0  1.791586588241401 -0.8656156413257059 0  2.307333345265183 -0.1346440826116952 0  2.64093544674549 -0.1331489671463476 0  0.4565707965077976 -0.6534785968762363 0  1.459077473581533 -0.8718776489042938 0  1.56279060907849 -0.1324694119967317 0  0.3144726782861624 -0.406319735913186 0  3.686635179527132 -0.4155119011072678 0  3.583227123430988 -0.6879918386850498 0  3.884530589958141 -0.5337716741137969 0  0.1138901561454064 -0.4712706309748976 0  2.551320204776417 -0.8759992125181354 0  2.968455986624249 -0.4231600805006418 0  1.843995631966074 -0.2713141166917306 0  1.23826657576458 -0.1310261345083986 0  1.632298315745049 -0.7047459448475459 0  3.454977942639006 -0.1019833897113779 0  2.11213131937471 -0.6131325843633801 0  1.631670858552932 -0.3027829344070553 0  0.549999999999996 -0.8847857258099061 0  2.175907031111534 -0.8808902127996396 0  2.440789547527098 -0.7252338716820566 0  0.9499999999999957 -0.8853403742417534 0  0.1192006629558211 -0.7258150973260704 0  0.1086302422397907 -0.2553484983400458 0  3.891615894289125 -0.7428762999771643 0  3.880790852604017 -0.2741969419997524 0  2.58999033724616 -0.3943081590477266 0  0.95310975133633 -0.1100375897447476 0  0.9389274183125247 -0.357418794071099 0  0.5436861363815539 -0.1129935035840732 0  1.237622314162623 -0.8886349339205675 0  2.766143121931948 -0.4669467935657355 0  3.157965388639583 -0.4824178848815803 0  3.732166646772587 -0.1061123528525496 0  0.8463407040907105 -0.2803849511418723 0  0.2658218649297859 -0.8967607408767373 0  3.384357462435764 -0.5450459842617623 0  1.954320722194999 -0.1009956898074866 0  0.8013980381943526 -0.5278489923710374 0  3.744358883260304 -0.603637271636247 0  0.2581863795088786 -0.6001369967359219 0  0.2629966501688439 -0.1025990268626685 0  0.3980883060404261 -0.7330050441066103 0  1.076076863672032 -0.7275728344185368 0  1.749999999999999 -0.5550190100941714 0  2.351512610076122 -0.5440435521440684 0  0.8619623856291254 -0.7246873586411677 0  3.553081028189586 -0.8932001918706867 0  2.806636304103025 -0.6100531542467602 0  2.546714489935151 -0.08818853426728746 0  1.172246975380209 -0.5783812280673658 0  1.560837452008869 -0.9052833905541354 0  3.005913589025749 -0.2858329927011495 0  3.104244827324224 -0.8867193195303111 0  0.6392996137609843 -0.7340215588892431 0  3.370409685921998 -0.2678372406131186 0  1.860045411420065 -0.6863616357695403 0  2.239306624928278 -0.3159929711989559 0  0.620090528303912 -0.2611000972275821 0  1.457468991263225 -0.08750102207080079 0  1.752790718352056 -0.1005001786212033 0  0.394717592657301 -0.2605042194828123 0  3.745581301416776 -0.9074819423317642 0  3.141158115761163 -0.2920724092797614 0  3.257376892791448 -0.6242591031763242 0  2.350280737493299 -0.9013197570937703 0  3.914203942485891 -0.125 0  3.914203942485891 -0.8750000000000003 0  0.08579605751410901 -0.1249999999999997 0  0.08579605751410968 -0.875 0  3.921126745430668 -0.4525
[...]
<PointData  Vectors="flow"> 
<DataArray  type="Float64"  Name="flow"  NumberOfComponents="3" format="ascii">-3.1182226027681623e+00 4.4178770988083631e+00 0.0000000000000000e+00  2.7975707767540481e+00 3.4425557096169910e+00 0.0000000000000000e+00  6.8201293508479415e+00 -1.4938576047218888e+01 0.0000000000000000e+00  -6.0818728981713059e+00 -1.2802354035991517e+01 0.0000000000000000e+00  1.3224944342331961e+00 3.2735602272417301e+00 0.0000000000000000e+00  -8.1490366339493348e-01 -1.2035214844643676e+00 0.0000000000000000e+00  5.5861282388981159e-01 2.3862780450554988e-01 0.0000000000000000e+00  -1.4090024649820940e-01 -3.5436669299459961e-01 0.0000000000000000e+00  3.1241705674380213e-02 -6.1361732626905176e-02 0.0000000000000000e+00  2.0143270253818370e-02 -6.9733061040032629e-02 0.0000000000000000e+00  -1.9432769138698403e-02 -9.5481170110517793e-02 0.0000000000000000e+00  2.1849108646568076e-02 -2.8581765619236661e-02 0.0000000000000000e+00  -5.1206076267627815e-03 -2.8264530721550093e-02 0.0000000000000000e+00  6.6270891263573353e-03 -1.0413907120373432e-02 0.0000000000000000e+00  -5.9526774170954909e-03 -1.1552953287343478e-02 0.0000000000000000e+00  4.4920495394764207e-03 -4.5158446070003279e-02 0.0000000000000000e+00  -1.6046768654002163e-03 -3.8308757691438079e-02 0.0000000000000000e+00  4.9852951846765959e-03 -8.7862049856788792e-04 0.0000000000000000e+00  -1.0094195089362554e-03 -3.0386377462852544e-03 0.0000000000000000e+00  -1.8378261200189917e-04 -3.3495174923986173e-03 0.0000000000000000e+00  1.0479728112086958e-03 3.7894683697418008e-04 0.0000000000000000e+00  -4.5539192160858126e-04 1.5368780320170309e-03 0.0000000000000000e+00  1.1468433355382680e-03 7.4797181386802283e-04 0.0000000000000000e+00  -1.1001180447306282e-03 4.5344413470373287e-03 0.0000000000000000e+00  7.4710685087407236e-04 5.2614739000870544e-03 0.0000000000000000e+00  -1.0508659390300074e-03 -4.1719670179998352e-04 0.0000000000000000e+00  3.8907268760554256e-04 -5.7457459481302252e-04 0.0000000000000000e+00  1.8855046199793332e-04 -2.5289693258442854e-03 0.0000000000000000e+00  -3.0272547752167520e-03 2.4616870966983504e-03 0.0000000000000000e+00  9.4147672527590120e-04 -1.7172148428742897e-02 0.0000000000000000e+00  -1.5675315748328485e-03 -1.9413950502092697e-02 0.0000000000000000e+00  -8.1941847805308088e-04 -4.4120349868827600e-03 0.0000000000000000e+00  4.4083161263765286e-05 -1.9445258646043122e-02 0.0000000000000000e+00  -5.7251628470726011e-03 -1.8718101593514638e-02 0.0000000000000000e+00  1.0692864073204123e-02 -3.9423504037529290e-02 0.0000000000000000e+00  -3.0699639977773852e-02 -1.0637709555538770e-01 0.0000000000000000e+00  2.6522684855223633e-02 -4.7381815089805955e-02 0.0000000000000000e+00  -1.7212565118818017e-02 -3.9936226100742322e-02 0.0000000000000000e+00  -5.3963064992115478e-02 -7.3103998876249188e-02 0.0000000000000000e+00  1.7839911209072623e-01 -3.9703360940240096e-01 0.0000000000000000e+00  -5.9526274526799228e-01 3.3472245515229132e-01 0.0000000000000000e+00  7.8267212539277942e-01 -1.3873413730816360e+00 0.0000000000000000e+00  -1.0446729486115685e+00 2.0544112239321248e+00 0.0000000000000000e+00  2.3148778695999241e+00 -2.1615013978161124e+00 0.0000000000000000e+00  -3.0778224704595208e-01 9.1348933975620317e-01 0.0000000000000000e+00  2.1928569232071347e+00 2.9076805180246873e-01 0.0000000000000000e+00  2.0099497631667118e+00 -4.0137919181984794e-01 0.0000000000000000e+00  -1.0558620283271555e-01 -5.9279656578119477e-01 0.0000000000000000e+00  2.7755070861249505e+00 1.9813996158373390e+00 0.0000000000000000e+00  1.7951891739511820e+00 -2.6272831361844613e+00 0.0000000000000000e+00  3.1193480232872410e+00 2.0874880969793534e+00 0.0000000000000000e+00  2.2923955836439176e+00 1.4856447620647795e+00 0.0000000000000000e+00  -6.5107008754779416e-01 -6.7630263123456782e+00 0.0000000000000000e+00  7.0312874975009096e+00 1.0377714657949483e+01 0.0000000000000000e+00  -4.0426206781893441e+00 -1.6289151919788054e+01 0.0000000000000000e+00  3.3432765443688148e+00 3.4410151783842400e+00 0.0000000000000000e+00  -1.6814324947994068e+00 -1.2468984604319926e+00 0.0000000000000000e+00  2.1027088151671536e-01 -1.3595325902084382e-01 0.0000000000000000e+00  7.1020741453192426e-02 1.0083501787407635e-01 0.0000000000000000e+00  -4.9066368726373925e-02 1.5251790485919259e-01 0.0000000000000000e+00  5.3525313885427077e-02 9.8681214222549260e-02 0.0000000000000000e+00  -2.1355282279116771e-02 4.9250015081617554e-02 0.0000000000000000e+00  -6.0401161349980394e-02 2.0552041994402820e-01 0.0000000000000000e+00  7.0866924108754462e-02 2.1728347236674131e-01 0.0000000000000000e+00  1.2047219138269004e-02 8.1314821098356305e-02 0.0000000000000000e+00  -2.6956306175279093e-02 -5.2176470984884845e-03 0.0000000000000000e+00  2.1860878847764810e-02 2.3671726874442550e-02 0.0000000000000000e+00  -1.4887869331923194e-02 5.3324824359676566e-02 0.0000000000000000e+00  6.3177680381872993e-03 7.3921224980757289e-02 0.0000000000000000e+00  -7.0342624169787331e-03 3.7505222279112138e-03 0.0000000000000000e+00  -8.7394066608644221e-04 9.3199985846233804e-03 0.0000000000000000e+00  1.0835324278483907e-03 7.5049854227167553e-03 0.0000000000000000e+00  5.1607389581844630e-03 2.1618740567048510e-02 0.0000000000000000e+00  -5.9448687839627635e-03 2.3165516477457695e-02 0.0000000000000000e+00  -4.4338546326732378e-04 1.2557044666477606e-02 0.0000000000000000e+00  2.0746938733630913e-03 1.0929213333555159e-02 0.0000000000000000e+00  -1.9155533014897079e-03 2.2602240086829008e-02 0.0000000000000000e+00  8.5923929043699009e-03 -5.1587060535051681e-03 0.0000000000000000e+00  -4.1822598444381173e-03 4.9056086048745083e-02 0.0000000000000000e+00  3.1053484803163075e-03 6.0517983448181198e-02 0.0000000000000000e+00  -9.9370338942189997e-04 4.6782337159770116e-03 0.0000000000000000e+00  -1.0557942553962602e-03 2.9699916962192725e-02 0.0000000000000000e+00  -4.9339689356374160e-03 4.3213402744361903e-02 0.0000000000000000e+00  5.5951993354474098e-03 -6.6048533081668409e-04 0.0000000000000000e+00  -1.3316438454282698e-02 5.6480438632212519e-02 0.0000000000000000e+00  1.4521185083105808e-02 6.5958898480780709e-02 0.0000000000000000e+00  -3.3363788703951104e-02 4.5226080810247253e-02 0.0000000000000000e+00  1.4315967417693833e-02 3.8535621490570930e-02 0.0000000000000000e+00  -4.9107854295597053e-02 1.2712915676801473e-01 0.0000000000000000e+00  -3.6321504869120624e-01 1.1884110309342712e-01 0.0000000000000000e+00  1.6344169698775639e+00 -1.4655422344544395e+00 0.0000000000000000e+00  -3.0134454248003499e+00 3.1272711495859586e+00 0.0000000000000000e+00  3.5344096080573437e+00 -1.3358752403597061e+01 0.0000000000000000e+00  -7.4612173791903178e+00 8.1145758453760095e+00 0.0000000000000000e+00  2.1229741597138774e+00 -3.9447528057826222e+00 0.0000000000000000e+00  -4.1860777822016235e+00 6.1560903921749965e-01 0.0000000000000000e+00  -2.4360661699213724e+00 4.9158240088836691e-01 0.0000000000000000e+00  8.2340167568807757e-02 5.9278297562241211e-01 0.0000000000000000e+00  -3.8180486275628516e+00 -2.4406774236591597e+00 0.0000000000000000e+00  -1.5865851115914995e+00 2.8109752581443419e+00 0.0000000000000000e+00  -1.6174847255163149e+00 -2.1557626238051140e+00 0.0000000000000000e+00  -1.4616047465903819e+00 2.0660886015210181e-01 0.0000000000000000e+00  -6.2548597035016240e-01 2.4162153319536603e+00 0.0000000000000000e+00  -1.9434505576907586e+00 -3.3233909458141739e+00 0.0000000000000000e+00  7.1150787640781796e-02 2.2155525261377176e-03 0.0000000000000000e+00  -3.7720558563018106e-02 -4.1285582321142524e-02 0.0000000000000000e+00  3.7552076200147899e-03 -1.2556348449936344e-03 0.0000000000000000e+00  -1.5550364265165351e-03 7.5522360324041320e-04 0.0000000000000000e+00  -1.4116010790413570e-04 1.5870736997858968e-03 0.0000000000000000e+00  -9.4344090357500795e-03 1.3800559315431231e-03 0.0000000000000000e+00  9.2436399821872305e-03 -4.7347499442135726e-04 0.0000000000000000e+00  -2.6875093742440758e-04 5.3654381539628565e-04 0.0000000000000000e+00  1.4477794213842423e-03 1.9615296588075008e-03 0.0000000000000000e+00  9.8231006398877599e-04 4.6729691780942847e-04 0.0000000000000000e+00  1.7461669345169472e-04 8.0360107488547481e-04 0.0000000000000000e+00  -4.0549417189407189e-02 9.1446994431084810e-02 0.0000000000000000e+00  -2.9368416225805960e-01 2.1081229976670690e-01 0.0000000000000000e+00  -2.9221227664711580e-01 -1.4043854050554791e-01 0.0000000000000000e+00  4.7049727099895711e-01 4.0776595078452987e-01 0.0000000000000000e+00  1.9796674485834602e-02 -5.6424576074386992e-03 0.0000000000000000e+00  -7.8617955167226746e-03 5.5045171180320837e-04 0.0000000000000000e+00  5.0398467265949263e-03 -7.9851735667244754e-04 0.0000000000000000e+00  -4.9553137507364498e-03 1.0042425813185847e-03 0.0000000000000000e+00  -9.2841633591168957e-03 -1.2428684970111490e-02 0.0000000000000000e+00  -4.2565516415602606e-03 -2.4955045719856272e-03 0.0000000000000000e+00  -9.4214438399329757e-04 8.1790586638273656e-04 0.0000000000000000e+00  1.8947970308061945e-02 -6.1948140537992817e-03 0.0000000000000000e+00  -8.8715969421359719e-04 -1.9167657591622923e-04 0.0000000000000000e+00  5.1846494642072256e-04 3.4390140204993916e-04 0.0000000000000000e+00  -2.8616404630005601e-04 -1.2887773364335622e-04 0.0000000000000000e+00  1.9200449053506318e-03 1.5526624149547789e-03 0.0000000000000000e+00  -4.0386138379345501e-04 -4.0360426034140107e-03 0.0000000000000000e+00  3.1088353558138158e-03 -1.6879385856387659e-03 0.0000000000000000e+00  4.9377177408340855e-02 -2.3149508169278916e-02 0.0000000000000000e+00  1.4591888312118409e-01 4.8729132160904409e-02 0.0000000000000000e+00  -2.6771213463966587e-01 6.3995178511741313e-01 0.0000000000000000e+00  -1.1029799286996071e-01 -3.5410372968178910e-01 0.0000000000000000e+00  -1.2289155661339701e-02 -8.1778628007107123e-03 0.0000000000000000e+00  -1.5553336211807966e-02 -2.1693882832345920e-03 0.0000000000000000e+00  4.2469099744608912e-02 -8.3967165702317093e-03 0.0000000000000000e+00  5.2531122098518207e-03 4.6175681881777536e-02 0.0000000000000000e+00  3.7529142497291446e-02 3.9247886310493980e-02 0.0000000000000000e+00  2.0045994172882484e-02 -4.5851411258116441e-03 0.0000000000000000e+00  6.0743566828043395e-03 3.6191590096182405e-03 0.0000000000000000e+00  8.2468778261347193e-03 -5.0562887526797136e-03 0.0000000000000000e+00  1.2555945153213885e-03 1.3057820218052092e-04 0.0000000000000000e+00  4.0789205515852243e-03 3.9643684888781248e-03 0.0000000000000000e+00  -2.2338711371859780e-02 -7.1318082638627328e-03 0.0000000000000000e+00  1.1305589020866582e-03 -1.9041265280657215e-03 0.0000000000000000e+00  -2.2911484623314802e-03 1.4675743389401322e-03 0.0000000000000000e+00  2.2443424714130612e-03 8.5158523769383843e-04 0.0000000000000000e+00  -6.5120866882213278e-04 1.2201046503141249e-03 0.0000000000000000e+00  6.5758216417577007e-04 7.3277998268449988e-04 0.0000000000000000e+00  3.2193721755442309e-03 -2.6687674681980925e-03 0.0000000000000000e+00  -2.8961070245717567e-03 7.0181026626965530e-03 0.0000000000000000e+00  3.6441615743281719e-01 2.7549934507453666e-01 0.0000000000000000e+00  -6.9609004763259430e-01 -9.8918614196292054e-01 0.0000000000000000e+00  7.0427183269693028e-01 -1.2361819608219511e+00 0.0000000000000000e+00  -2.7836127035198888e-01 4.5679475916351125e-01 0.0000000000000000e+00  8.0839972644969928e-03 -2.8916906707666824e-03 0.0000000000000000e+00  9.3772622128213568e-04 -2.8300613816254253e-03 0.0000000000000000e+00  -3.5523973987841920e-04 2.6503227415249352e-04 0.0000000000000000e+00  1.9538760940914282e-04 1.9336016958088884e-03 0.0000000000000000e+00  7.2811729395582953e-04 -2.1467284436167214e-04 0.0000000000000000e+00  -8.1114126740783538e-04 1.1521336781905077e-03 0.0000000000000000e+00  -2.6320978069482110e-05 1.7855693826085566e-04 0.0000000000000000e+00  4.1992936469771214e-01 6.1150269721576211e-01 0.0000000000000000e+00  -5.3204387700899813e-01 -1.0865028090417068e+00 0.0000000000000000e+00  8.5548954713370740e-01 -6.7418003032381868e-01 0.0000000000000000e+00  8.9916212070848503e-02 7.9328680162988252e-01 0.0000000000000000e+00  3.0588827637549414e-03 -1.1135237219616345e-03 0.0000000000000000e+00  -6.2339988620727159e-04 1.5338549709056687e-03 0.0000000000000000e+00  -4.5130083786358776e-03 -3.8479221986050878e-03 0.0000000000000000e+00  -1.8404118147769639e-03 5.0758877122983517e-03 0.0000000000000000e+00  1.5142378817404182e-02 -3.4580921245676573e-03 0.0000000000000000e+00  1.8304035073657441e-02 -6.0234256017176833e-03 0.0000000000000000e+00  -6.8434955836362572e-03 -1.0109218225971810e-03 0.0000000000000000e+00  6.5180351767694139e-05 2.5584317199842848e-03 0.0000000000000000e+00  2.4136948982353399e-04 7.9793814657818654e-04 0.0000000000000000e+00  1.0335707957400628e-01 -6.3444808215647547e-02 0.0000000000000000e+00  -1.2305164214820169e-01 2.2399273581312107e-02 0.0000000000000000e+00  -1.2069743949798958e-03 2.2478704810350274e-04 0.0000000000000000e+00  -9.1432295638418839e-03 -2.0631834418015282e-03 0.0000000000000000e+00  1.1304626671796549e-02 2.3566655191448902e-03 0.0000000000000000e+00  4.2316881032713411e-03 2.1564183661563719e-03 0.0000000000000000e+00  -1.0486766178145754e-03 2.1596473471063500e-03 0.0000000000000000e+00  8.9423204623204258e-02 4.9892071633514591e-02 0.0000000000000000e+00  6.6861557945204625e-03 3.7320875186068178e-02 0.0000000000000000e+00  -3.1786570970659548e-03 -1.7112811007686923e-03 0.0000000000000000e+00  -8.2359929339775248e-02 -1.2848129935063081e-02 0.0000000000000000e+00  -9.7943952339091065e-03 -1.3922224021669849e-03 0.0000000000000000e+00  2.2623886927153714e-02 -9.7110746979733337e-03 0.0000000000000000e+00  -1.3509837957866578e-02 -1.4175797042789491e-02 0.0000000000000000e+00  -2.1422298332412496e-02 -4.2588434747022503e-04 0.0000000000000000e+00  1.5962448688271860e-01 -5.7382431537296712e-02 0.0000000000000000e+00  2.3178928707989589e-02 -6.9614604763099750e-03 0.0000000000000000e+00  3.0335078006785886e-02 -6.2649016583703004e-02 0.0000000000000000e+00  -3.5459672394602452e-03 3.4347337894619955e-03 0.0000000000000000e+00  5.1838191501581360e-03 6.9566633795643330e-04 0.0000000000000000e+00  3.7266534947831931e-01 1.9921554267370886e-01 0.0000000000000000e+00  -4.2120277909052622e-02 4.2082234756098118e-02 0.0000000000000000e+00  -1.2308242981503832e-02 -1.7496664547682294e-02 0.0000000000000000e+00  6.6237954436969429e-03 -1.1476956940108807e-03 0.0000000000000000e+00  1.3075577387298902e-03 -5.8366736957651709e-03 0.0000000000000000e+00  1.4948751318798753e-02 6.4393881915657505e-05 0.0000000000000000e+00  -2.7422522688977165e-02 -2.9870980430877461e-03 0.0000000000000000e+00  3.3769228510581437e-03 8.0488954925437043e-04 0.0000000000000000e+00  1.3732010348420468e-04 -6.0016557180394029e-04 0.0000000000000000e+00  -2.7805697343680945e-04 4.8663784168543657e-04 0.0000000000000000e+00  -1.6812224746670893e-03 2.2247691162876654e-03 0.0000000000000000e+00  -1.0036088529470214e-03 1.6756733147350603e-02 0.0000000000000000e+00  1.8663000249867134e-03 -3.9218587763065595e-04 0.0000000000000000e+00  -6.7526077665676333e-04 -9.4102330566134268e-05 0.0000000000000000e+00  1.4025704499715903e-03 -2.8626863559735446e-03 0.0000000000000000e+00  -1.5051513009446067e-04 -1.0860895553414282e-03 0.0000000000000000e+00  -9.9235882374115458e-03 -4.9755450500238137e-03 0.0000000000000000e+00  9.8120759609899716e-03 1.0181642835833156e-02 0.0000000000000000e+00  -5.8542746248666920e-04 -1.6083358518554341e-03 0.0000000000000000e+00  6.2287014794550500e-04 5.6171845838085834e-04 0.0000000000000000e+00  2.2087876383555935e-04 2.5310250687285442e-03 0.0000000000000000e+00  -8.2499668328555750e-02 -8.5773048324663120e-02 0.0000000000000000e+00  6.7448538600928013e-05 -5.2883309528747278e-03 0.0000000000000000e+00  9.7469518205375852e-05 5.2933628742551963e-04 0.0000000000000000e+00  -2.9455007542036749e-01 -1.3301557882392082e-01 0.0000000000000000e+00  5.6593240375657945e-02 1.8204083950954708e-01 0.0000000000000000e+00  -2.4809345167462976e-01 -2.4492217509198170e-02 0.0000000000000000e+00  2.4366516903700672e-01 -3.3511336264861230e-01 0.0000000000000000e+00  2.8100573118625832e-01 -5.4450160323413477e-01 0.0000000000000000e+00  1.9028465875077954e-03 -1.0216174465657916e-02 0.0000000000000000e+00  6.3768865075867842e-03 -3.2754709734434442e-04 0.0000000000000000e+00  -1.7907085917083385e-04 6.4493922621998434e-04 0.0000000000000000e+00  -2.2516014799116579e-03 2.4555014803724316e-03 0.0000000000000000e+00  -3.0295312280753401e-03 3.9053168941479148e-04 0.0000000000000000e+00  7.8857837719397098e-02 -1.8571195873747448e-02 0.0000000000000000e+00  4.8756126266742125e-04 1.4361249524113531e-03 0.0000000000000000e+00  -8.7364278208999324e-04 1.4446598346674704e-03 0.0000000000000000e+00  -6.8023324318624498e-02 -2.4108541768460900e-02 0.0000000000000000e+00  -8.2863119507334249e-04 -1.4396631953052209e-03 0.0000000000000000e+00  3.4483825735525941e-03 -1.2634424008328075e-04 0.0000000000000000e+00  -8.6748822036118844e-03 9.1311880286660662e-03 0.0000000000000000e+00  5.1892816407992337e-01 1.0853714061794475e+00 0.0000000000000000e+00  7.7664793551613442e-01 -5.8054311424884075e-01 0.0000000000000000e+00  -1.6108542020055256e+00 1.5012505628085604e+00 0.0000000000000000e+00  -3.9357645258168822e-01 -3.6845835698614826e-01 0.0000000000000000e+00  2.0706952206551617e-03 1.3828908394357593e-03 0.0000000000000000e+00  -4.5899428126746572e-03 -6.8284594226252467e-03 0.0000000000000000e+00  1.2854121404445450e-03 -3.8189983509787761e-03 0.0000000000000000e+00  -6.0639592591077540e-02 -1.7903898824038492e-02 0.0000000000000000e+00  -2.6072854392342523e-03 2.4653245503068934e-03 0.0000000000000000e+00  3.8228839485949587e-03 9.5087088284733222e-05 0.0000000000000000e+00  1.1961999055508417e-02 2.0861805355114524e-03 0.0000000000000000e+00  2.2934485020996952e-03 -4.5789767437947031e-03 0.0000000000000000e+00  -7.8533578094621935e-03 1.5400298148211390e-03 0.0000000000000000e+00  6.1904359258434449e-01 3.1172125820388213e-01 0.0000000000000000e+00  -5.6077377994054141e-03 1.5125329571384676e-02 0.0000000000000000e+00  -2.1474790866571106e-05 -7.9268859000020204e-05 0.0000000000000000e+00  -1.3203775766084693e-02 7.1710915034814556e-04 0.0000000000000000e+00  -5.4377733701203446e-01 -2.7173681854935205e-01 0.0000000000000000e+00  1.6891963773150512e-01 -3.5134128664249842e-01 0.0000000000000000e+00  5.3333486431279602e-02 7.6692682716958957e-03 0.0000000000000000e+00  3.9107379744231607e-01 2.3111894270759167e-01 0.0000000000000000e+00  -3.6961172775362159e-03 6.1541289418151216e-03 0.0000000000000000e+00  -3.3212966752756899e-04 7.5812275494914710e-04 0.0000000000000000e+00  1.6298511583798841e-04 -2.4242914465854819e-04 0.0000000000000000e+00  -1.1490136588081954e-02 5.1004974916537289e-03 0.0000000000000000e+00  -2.9204873805603709e-01 1.3518631918755394e-01 0.0000000000000000e+00  2.3616319645744627e-03 -5.5636501891689818e-04 0.0000000000000000e+00  1.3609411094478718e-03 4.0396438849598265e-04 0.0000000000000000e+00  -3.7201371134098072e-03 1.6742249157882117e-03 0.0000000000000000e+00  -1.7361092374055735e-03 -1.8696873860758333e-03 0.0000000000000000e+00  3.2816599313557804e-03 -6.7236686923758948e-03 0.0000000000000000e+00  -2.5623731362145154e-02 -3.6862544147547326e-02 0.0000000000000000e+00  -5.7089517684114965e-02 8.6840523178909491e-03 0.0000000000000000e+00  4.0288187763986997e-03 -2.0969824624688570e-02 0.0000000000000000e+00  -2.7437072681196117e-04 1.2939048524220676e-03 0.0000000000000000e+00  4.4225054657864957e-04 6.8307677245623951e-04 0.0000000000000000e+00  -2.6508036483192162e-02 -1.5603152896612536e-02 0.0000000000000000e+00  -1.9448286308016819e-03 -7.6793243763139849e-04 0.0000000000000000e+00  -2.3248729791422221e-04 5.2370132296204411e-06 0.0000000000000000e+00  -2.1363989812798487e-01 -5.9319595301258111e-02 0.0000000000000000e+00  -7.730291160972