<?xml version="1.0"?>
<VTKFile type="UnstructuredGrid"  version="0.1"  >
<UnstructuredGrid>
<Piece  NumberOfPoints="1121" NumberOfCells="2112">
<Points>
<DataArray  type="Float64"  NumberOfComponents="3"  format="ascii">0 0 0  0.5 0 0  0.5 -0.22 0  0 -0.22 0  0.0125 0 0  0.025 0 0  0.03750000000000001 0 0  0.05 0 0  0.0625 0 0  0.07500000000000001 0 0  0.08750000000000001 0 0  0.1 0 0  0.1125 0 0  0.125 0 0  0.1375 0 0  0.15 0 0  0.1625 0 0  0.175 0 0  0.1875 0 0  0.2 0 0  0.2125 0 0  0.225 0 0  0.2375 0 0  0.25 0 0  0.2625 0 0  0.275 0 0  0.2875 0 0  0.3 0 0  0.3124999999999999 0 0  0.325 0 0  0.3375 0 0  0.35 0 0  0.3625 0 0  0.375 0 0  0.3875 0 0  0.4 0 0  0.4125 0 0  0.425 0 0  0.4375 0 0  0.45 0 0  0.4625 0 0  0.475 0 0  0.4875 0 0  0.5 -0.00916666666666667 0  0.5 -0.01833333333333334 0  0.5 -0.02750000000000001 0  0.5 -0.03666666666666668 0  0.5 -0.04583333333333335 0  0.5 -0.05500000000000002 0  0.5 -0.06416666666666669 0  0.5 -0.07333333333333336 0  0.5 -0.08250000000000002 0  0.5 -0.09166666666666669 0  0.5 -0.1008333333333334 0  0.5 -0.11 0  0.5 -0.1191666666666667 0  0.5 -0.1283333333333334 0  0.5 -0.1375 0  0.5 -0.1466666666666667 0  0.5 -0.1558333333333333 0  0.5 -0.165 0  0.5 -0.1741666666666667 0  0.5 -0.1833333333333333 0  0.5 -0.1925 0  0.5 -0.2016666666666667 0  0.5 -0.2108333333333333 0  0.4875 -0.22 0  0.475 -0.22 0  0.4625 -0.22 0  0.45 -0.22 0  0.4375 -0.22 0  0.425 -0.22 0  0.4125 -0.22 0  0.4 -0.22 0  0.3875 -0.22 0  0.375 -0.22 0  0.3625 -0.22 0  0.35 -0.22 0  0.3375 -0.22 0  0.325 -0.22 0  0.3125 -0.22 0  0.3 -0.22 0  0.2875 -0.22 0  0.275 -0.22 0  0.2625 -0.22 0  0.25 -0.22 0  0.2375 -0.22 0  0.225 -0.22 0  0.2125 -0.22 0  0.2 -0.22 0  0.1875000000000001 -0.22 0  0.175 -0.22 0  0.1625 -0.22 0  0.15 -0.22 0  0.1375 -0.22 0  0.125 -0.22 0  0.1125 -0.22 0  0.09999999999999998 -0.22 0  0.08749999999999997 -0.22 0  0.07499999999999996 -0.22 0  0.0625 -0.22 0  0.04999999999999999 -0.22 0  0.03750000000000003 -0.22 0  0.02500000000000002 -0.22 0  0.01250000000000001 -0.22 0  0 -0.2108333333333333 0  0 -0.2016666666666667 0  0 -0.1925 0  0 -0.1833333333333333 0  0 -0.1741666666666666 0  0 -0.165 0  0 -0.1558333333333333 0  0 -0.1466666666666666 0  0 -0.1375 0  0 -0.1283333333333333 0  0 -0.1191666666666666 0  0 -0.11 0  0 -0.1008333333333333 0  0 -0.09166666666666665 0  0 -0.08249999999999999 0  0 -0.07333333333333333 0  0 -0.06416666666666668 0  0 -0.05499999999999999 0  0 -0.04583333333333331 0  0 -0.03666666666666665 0  0 -0.0275 0  0 -0.01833333333333334 0  0 -0.009166666666666684 0  0.1054583333333335 -0.1054166666666667 0  0.3942676334017064 -0.1137728325038039 0  0.2847879184121186 -0.1095588156798053 0  0.1945032948335413 -0.1282408799476467 0  0.06153506715537374 -0.1512727221728088 0  0.4399056412223469 -0.06797859302281792 0  0.05788181883779472 -0.06001948808334377 0  0.4421098014386607 -0.1599837267347342 0  0.3413511741034609 -0.06957267157055583 0  0.2288650014326337 -0.07000139022125416 0  0.3374198095657364 -0.153292781564552 0  0.1625149941501948 -0.06635759941053934 0  0.1410798075665959 -0.1547982873744018 0  0.2480541718311375 -0.1584999930406966 0  0.4521112869309225 -0.1144576824167908 0  0.04769384748510372 -0.1054790589784799 0  0.2872553124970689 -0.0549183148201307 0  0.3883603170589741 -0.1667590078701163 0  0.1113816725357426 -0.05349980002187416 0  0.388663619148569 -0.05083099728992514 0  0.2924675002385118 -0.1733355444551434 0  0.03957129721715399 -0.1820306497250263 0  0.463886478278041 -0.04123097885421483 0  0.1819898664669143 -0.1745112248447572 0  0.1501955722423063 -0.1126410264576243 0  0.2381168692527681 -0.1138631020717532 0  0.09896708868237117 -0.1743617443889283 0  0.351521105495953 -0.110482033201648 0  0.1944214316144394 -0.04364751139729321 0  0.4676096572335854 -0.17875 0  0.0323903427664145 -0.04125 0  0.03139627442974444 -0.07791666666666666 0  0.4686037255702555 -0.1420833333333333 0  0.03146427625974824 -0.1353922207127977 0  0.4687538427589449 -0.08499498352404596 0  0.1945393885069078 -0.08884182758867265 0  0.2525813348104176 -0.03744007417230172 0  0.3217010222371471 -0.03764154129720884 0  0.4222469886470394 -0.03586904090069724 0  0.09663319060065351 -0.1401271138728219 0  0.2193792666828137 -0.183158231426584 0  0.3560154827479793 -0.1838943099753877 0  0.1434582748922029 -0.03603411582704523 0  0.3765333185963097 -0.08241017292348579 0  0.07538111331820632 -0.08899587837746269 0  0.423855991190923 -0.1306886077643884 0  0.3185210010305527 -0.09753607818954631 0  0.3569762884570115 -0.03650734503769727 0  0.4254213410091923 -0.0987078979590463 0  0.2610082403268991 -0.0817800662321487 0  0.0828105113527246 -0.0341734786714956 0  0.4171399376253134 -0.185803221952863 0  0.3057870365127394 -0.1382026892003179 0  0.12895829204953 -0.08335230948371621 0  0.06875298785225953 -0.187362820013113 0  0.3717868049890677 -0.1386048615715364 0  0.321448533906611 -0.1855116827647124 0  0.26298072168791 -0.1839420817131204 0  0.07484000163200957 -0.1198633334100699 0  0.1547686158654376 -0.1863750548878711 0  0.216059367308573 -0.1515159536473182 0  0.2699691944498949 -0.1417527519042215 0  0.1656185503016955 -0.1403556565429203 0  0.4083071195762781 -0.07378364169239227 0  0.1267131755037155 -0.1278660972450704 0  0.4735015828166597 -0.0640900788079139 0  0.02554956908977171 -0.1556408100003981 0  0.4768150825846236 -0.1145833333333333 0  0.02318491741537634 -0.1054166666666667 0  0.223953700752457 -0.0304451531933032 0  0.1244872804067221 -0.1907232817427361 0  0.4438735214118281 -0.1930008132865749 0  0.05574102313663398 -0.02865323925202035 0  0.4137204188713657 -0.1553454939163003 0  0.08893893095617791 -0.06579816339826482 0  0.1717694871603352 -0.02800139159048265 0  0.3128492556460914 -0.06943040619515532 0  0.2797695783739821 -0.02590934499649085 0  0.02258333333333329 -0.1970833333333333 0  0.4762493762769904 -0.02160603458451191 0  0.4793770768812318 -0.1979934752448725 0  0.02062142143957255 -0.02200567641944876 0  0.1164030865048185 -0.02740272745133866 0  0.3830675041448486 -0.1925667518381948 0  0.4791226873505327 -0.1610342148373401 0  0.02087731264946724 -0.05896578516265992 0  0.3274724693986852 -0.1225305077389053 0  0.3972801610854721 -0.02625449066011495 0  0.2900140160514686 -0.08365001034985962 0  0.1709547781797311 -0.09465470820062212 0  0.2138438311308281 -0.1099941211103435 0  0.4450205721789285 -0.02492933314930469 0  0.05420467580227878 -0.08349945672846135 0  0.4461329107542346 -0.1367113815538408 0  0.3659666316461785 -0.05978339436610505 0  0.44602790301578 -0.09307279226297782 0  0.1051970245947556 -0.08027435556391044 0  0.05333928713341426 -0.1272409570081178 0  0.3959065276465774 -0.1392957050603055 0  0.1954280839215327 -0.1956301054107469 0  0.1114114251973984 -0.1581699686077357 0  0.1861203385256373 -0.06601416834570389 0  0.2411653975579025 -0.1955923650394697 0  0.3655092946697883 -0.1617364087021952 0  0.135090011654307 -0.05852644219278214 0  0.301466572149827 -0.195730962509487 0  0.3171403096460815 -0.1628017925003279 0  0.2583110626374412 -0.1046341192205865 0  0.4408293443687437 -0.04585722764353674 0  0.2712011044137034 -0.1640374945295207 0  0.2411933721253841 -0.08983355018053346 0  0.2501709838730871 -0.1314559421109842 0  0.4829353992284747 -0.03936718280336758 0  0.01826814268142685 -0.17875 0  0.08176459786747367 -0.1581134879103219 0  0.09090727073593149 -0.1966179220907174 0  0.1938567422944586 -0.1528508759815354 0  0.1733129361306733 -0.1172649579021292 0  0.1296640686621583 -0.1060858859555111 0  0.05006156132458137 -0.1998033571646454 0  0.162505650870633 -0.1635353305739766 0  0.30277270753554 -0.02336446206680166 0  0.04392010531002208 -0.1476919574928456 0  0.4570380569409145 -0.07105832940298668 0  0.2509935571465481 -0.06292905082461901 0  0.3948833058972995 -0.09019561948060845 0  0.4598195232581849 -0.1577532743262658 0  0.04018055885339097 -0.06224663359087233 0  0.1730418602576066 -0.1983511585214162 0  0.354008461825654 -0.08842076759065362 0  0.373211974938222 -0.1031515537153039 0  0.3385725936424656 -0.02355841481827918 0  0.05693481862827446 -0.1711111761535942 0  0.2226017506701603 -0.1306213423698554 0  0.4834446118625366 -0.09366667033152501 0  0.01655538813746335 -0.126333329668475 0  0.4825096030146118 -0.1326572162395438 0  0.01749039698538812 -0.08734278376045618 0  0.3772923679603625 -0.01999366789017346 0  0.01651090378487999 -0.1420833333333333 0  0.48348909621512 -0.07791666666666669 0  0.2083850969976113 -0.06098599897318754 0  0.3496303726904554 -0.1333395240176083 0  0.3051888980043784 -0.1167126520442686 0  0.2175622493287656 -0.08816391583608728 0  0.421331648509181 -0.05567865783938017 0  0.2036856364456695 -0.0217459550834085 0  0.3419325538888507 -0.04719577702332296 0  0.3412491916251918 -0.1996737604301947 0  0.4838834006315611 -0.1786454571355643 0  0.01611659936843887 -0.0413545428644357 0  0.172916357627664 -0.04916537131395513 0  0.4024134926805814 -0.2009331510593763 0  0.2424815730009992 -0.02045273553971888 0  0.1462759520833398 -0.1337233768065287 0  0.2346404539413744 -0.0484884977905098 0  0.09697638824467633 -0.01835062747588986 0  0.3376316573341132 -0.1736137832302001 0  0.1473441332611047 -0.09306137774954895 0  0.434705037373379 -0.114505364151485 0  0.0768089501139663 -0.1390499296181859 0  0.2037322897871967 -0.1695319781453501 0  0.2796822656650553 -0.2007669332776081 0  0.2910707535484897 -0.1516548901144321 0  0.414355300365443 -0.1140560482952263 0  0.09372496308173206 -0.1210763918452149 0  0.3897041267298961 -0.06995384811683555 0  0.4607061536274312 -0.2009522278863767 0  0.03767528917450519 -0.01920779542340162 0  0.06550910726222195 -0.1022565085744684 0  0.05021276002452402 -0.04427151993747909 0  0.4497875067624045 -0.1757266867012744 0  0.2685456651208211 -0.05149244248160013 0  0.1924991911245588 -0.1082791409797235 0  0.4653652048205058 -0.1036696603203247 0  0.03478864406010496 -0.1162949466270758 0  0.03530598512279109
[...]
<PointData  Vectors="flow"> 
<DataArray  type="Float64"  Name="flow"  NumberOfComponents="3" format="ascii">3.5913381680904091e-02 -1.0375929897406405e-04 0.0000000000000000e+00  -3.5878766496707723e-02 -8.4298311434642667e-05 0.0000000000000000e+00  -5.9291324170358380e-02 9.8426501370481160e-04 0.0000000000000000e+00  5.9102446452676399e-02 8.3872153491519933e-04 0.0000000000000000e+00  3.5504971742599659e-02 -1.3123832266044013e-04 0.0000000000000000e+00  3.4752507701805525e-02 -3.6278950873218027e-04 0.0000000000000000e+00  3.3707150483023439e-02 -3.9970183986883640e-04 0.0000000000000000e+00  3.2361272992024251e-02 -4.6558964531154279e-04 0.0000000000000000e+00  3.0906374783934869e-02 -5.0893041938702554e-04 0.0000000000000000e+00  2.9117715597848950e-02 -5.4005315609109987e-04 0.0000000000000000e+00  2.7561272784195283e-02 -8.6757164266950369e-04 0.0000000000000000e+00  2.5501092764169429e-02 -6.1894260577221097e-04 0.0000000000000000e+00  2.3660306985485061e-02 -1.1753136606469977e-03 0.0000000000000000e+00  2.1850289662142492e-02 -9.8303602126166936e-04 0.0000000000000000e+00  1.9806535136251500e-02 -7.3669369000081426e-04 0.0000000000000000e+00  1.7377409735375562e-02 -8.5002604004058948e-04 0.0000000000000000e+00  1.5686037955475664e-02 -1.1003152688011622e-03 0.0000000000000000e+00  1.3105537283746898e-02 -1.0170693896818304e-03 0.0000000000000000e+00  1.0971682110268752e-02 -9.1121800504046142e-04 0.0000000000000000e+00  8.9769607740101381e-03 -9.7612073695479604e-04 0.0000000000000000e+00  6.6127420774901207e-03 -1.0401599068683186e-03 0.0000000000000000e+00  4.6579175570530271e-03 -9.8454939262597419e-04 0.0000000000000000e+00  2.0375157176577112e-03 -9.2647040823042709e-04 0.0000000000000000e+00  2.0571881494154602e-04 -1.0035512535316357e-03 0.0000000000000000e+00  -2.5241775540161453e-03 -9.6034250590905953e-04 0.0000000000000000e+00  -4.3995318184276468e-03 -1.4798853458322450e-03 0.0000000000000000e+00  -6.5207080893417823e-03 -8.3811743536321031e-04 0.0000000000000000e+00  -8.8230559503321669e-03 -7.4383402287681922e-04 0.0000000000000000e+00  -1.1238980403799033e-02 -1.0430763247617674e-03 0.0000000000000000e+00  -1.3123999870406180e-02 -1.1798476781914530e-03 0.0000000000000000e+00  -1.5509503344045852e-02 -7.4919550503777801e-04 0.0000000000000000e+00  -1.7721810764598458e-02 -1.0559185610217988e-03 0.0000000000000000e+00  -1.9454439271130882e-02 -8.6935769427596362e-04 0.0000000000000000e+00  -2.1957990111932588e-02 -7.2076915470643019e-04 0.0000000000000000e+00  -2.3695573752637564e-02 -1.2457690460887585e-03 0.0000000000000000e+00  -2.5727141331408087e-02 -9.8867104623281575e-04 0.0000000000000000e+00  -2.7420134218572471e-02 -5.4958566524215314e-04 0.0000000000000000e+00  -2.9257912766287211e-02 -5.4098519103789548e-04 0.0000000000000000e+00  -3.0756114297731764e-02 -6.3750718017324779e-04 0.0000000000000000e+00  -3.2449562263856625e-02 -4.9313472544984863e-04 0.0000000000000000e+00  -3.3707047419163326e-02 -4.5235109031469629e-04 0.0000000000000000e+00  -3.4733588029258841e-02 -2.7319934904744303e-04 0.0000000000000000e+00  -3.5524319762440928e-02 -2.1763387639081244e-04 0.0000000000000000e+00  -3.6030034838296414e-02 7.0282209497123136e-06 0.0000000000000000e+00  -3.6505452739235035e-02 5.1312440876239954e-05 0.0000000000000000e+00  -3.6994908951979072e-02 -1.5124466053951809e-05 0.0000000000000000e+00  -3.7933905323463385e-02 7.0978028108410358e-05 0.0000000000000000e+00  -3.8676241574160046e-02 -2.2265178646680915e-05 0.0000000000000000e+00  -3.9811911126576796e-02 4.7480080365970388e-06 0.0000000000000000e+00  -4.0678531401116061e-02 -6.0836824763680462e-06 0.0000000000000000e+00  -4.1867125328518238e-02 1.3903387272981506e-04 0.0000000000000000e+00  -4.3155603678099556e-02 7.0389631542154747e-05 0.0000000000000000e+00  -4.4236925335539426e-02 -1.1666112877641191e-04 0.0000000000000000e+00  -4.5346561583947419e-02 1.2454422460096546e-04 0.0000000000000000e+00  -4.6807784333804399e-02 6.3825379035349310e-05 0.0000000000000000e+00  -4.7822460187207212e-02 -1.3373123354951713e-05 0.0000000000000000e+00  -4.8861920377376127e-02 2.8904090503974926e-04 0.0000000000000000e+00  -5.0243318846361913e-02 -5.6877880142319179e-05 0.0000000000000000e+00  -5.1106817129830853e-02 -6.6379468564949505e-05 0.0000000000000000e+00  -5.2522528640415470e-02 -1.1920133824398417e-04 0.0000000000000000e+00  -5.3873617359998564e-02 9.6452745243781770e-05 0.0000000000000000e+00  -5.5250730187119595e-02 1.0553551892849831e-04 0.0000000000000000e+00  -5.6007413337371505e-02 -4.4969277637285350e-05 0.0000000000000000e+00  -5.7521076759631945e-02 1.6669160380642883e-04 0.0000000000000000e+00  -5.8184279375686800e-02 -1.3888093231148403e-04 0.0000000000000000e+00  -5.8978969856680746e-02 2.1690979379479399e-05 0.0000000000000000e+00  -5.5161070712001228e-02 1.3101348851331205e-04 0.0000000000000000e+00  -5.0668952026406068e-02 2.5494795782970476e-04 0.0000000000000000e+00  -4.7142577618924361e-02 -2.1601990878990877e-04 0.0000000000000000e+00  -4.3622535722316315e-02 1.6677627354494263e-04 0.0000000000000000e+00  -4.0765632405143679e-02 -3.1245937432366268e-04 0.0000000000000000e+00  -3.7596684507382849e-02 -3.4095337589242777e-04 0.0000000000000000e+00  -3.4801453221329541e-02 -2.9372473727872037e-04 0.0000000000000000e+00  -3.1771386761454912e-02 -4.5009748406281720e-05 0.0000000000000000e+00  -2.9166540682203573e-02 -7.4801270394199372e-05 0.0000000000000000e+00  -2.6275384516415916e-02 -2.7161602635974004e-04 0.0000000000000000e+00  -2.3537561849449155e-02 -3.0131175710805861e-04 0.0000000000000000e+00  -2.0913327298472704e-02 -2.2996936763567302e-04 0.0000000000000000e+00  -1.8165119448522362e-02 -3.2999847127037940e-04 0.0000000000000000e+00  -1.5714566720119297e-02 -6.6521132602767792e-05 0.0000000000000000e+00  -1.2947339889926171e-02 -1.9232781650514090e-04 0.0000000000000000e+00  -1.0305241270563613e-02 -3.2603564383772718e-04 0.0000000000000000e+00  -7.7778364788555279e-03 -1.7377409969971630e-04 0.0000000000000000e+00  -5.1346497818152556e-03 -1.4513133732172495e-04 0.0000000000000000e+00  -2.6063456619640785e-03 -1.3089398687217709e-04 0.0000000000000000e+00  3.8720283419216822e-05 -1.0615274358560534e-04 0.0000000000000000e+00  2.5709739692270648e-03 -3.6557410001469300e-04 0.0000000000000000e+00  5.1616162781492623e-03 -2.0363162821270014e-04 0.0000000000000000e+00  7.8199942573494389e-03 -1.7688090451964869e-04 0.0000000000000000e+00  1.0226598515563758e-02 -2.2778916371441203e-04 0.0000000000000000e+00  1.2927168723624970e-02 -4.4857978937930216e-04 0.0000000000000000e+00  1.5758445438412472e-02 -1.0721318461711128e-04 0.0000000000000000e+00  1.8195589350581683e-02 -2.0272148048145855e-04 0.0000000000000000e+00  2.1008793966369014e-02 6.7289140102282449e-05 0.0000000000000000e+00  2.3397270378718402e-02 -4.2914542874580825e-04 0.0000000000000000e+00  2.6345093277795315e-02 -3.3086504571315024e-04 0.0000000000000000e+00  2.9050278754875536e-02 -1.1603418243308609e-04 0.0000000000000000e+00  3.1985176861496586e-02 -3.2198436746018802e-04 0.0000000000000000e+00  3.4722902826266201e-02 7.7034004383362943e-05 0.0000000000000000e+00  3.7361281914320948e-02 -3.4144526246799326e-04 0.0000000000000000e+00  4.0796148058759946e-02 -2.8712514969753708e-04 0.0000000000000000e+00  4.3881208393979687e-02 -3.7941637759560218e-05 0.0000000000000000e+00  4.7100012917974741e-02 8.8837592162826115e-05 0.0000000000000000e+00  5.0773435146887480e-02 2.5057690065734473e-04 0.0000000000000000e+00  5.5299817391078324e-02 2.3105289456334257e-04 0.0000000000000000e+00  5.8860760847863201e-02 -5.5926794566612044e-07 0.0000000000000000e+00  5.8129927020090927e-02 -7.0407493996386662e-05 0.0000000000000000e+00  5.7323488545282547e-02 1.2653349230886554e-04 0.0000000000000000e+00  5.6005996540438287e-02 -7.6343989472761278e-05 0.0000000000000000e+00  5.5147907977588596e-02 6.1481526249968098e-05 0.0000000000000000e+00  5.3816649132578803e-02 -6.8969445612888179e-05 0.0000000000000000e+00  5.2857812168148791e-02 1.4702382473117390e-04 0.0000000000000000e+00  5.1545599533230624e-02 7.4502680493007307e-05 0.0000000000000000e+00  5.0192497772045812e-02 -1.4889759951569161e-04 0.0000000000000000e+00  4.9106007771774901e-02 -4.0677566885038438e-06 0.0000000000000000e+00  4.7858935015883390e-02 2.7779236485356643e-04 0.0000000000000000e+00  4.6628450525446855e-02 -3.3477530083355416e-05 0.0000000000000000e+00  4.5589628451858794e-02 8.9377294692165698e-05 0.0000000000000000e+00  4.4328324995531916e-02 1.4444595097748558e-04 0.0000000000000000e+00  4.3124436758162167e-02 -1.5169359991275023e-04 0.0000000000000000e+00  4.2046303799912553e-02 1.5501622996742426e-04 0.0000000000000000e+00  4.0613183993363888e-02 -9.2126484065086590e-05 0.0000000000000000e+00  3.9647280809800192e-02 9.7121918449678406e-05 0.0000000000000000e+00  3.8670841548098051e-02 -4.5972063374123806e-05 0.0000000000000000e+00  3.7950706584180788e-02 6.4916454994992705e-05 0.0000000000000000e+00  3.7005165439930668e-02 -3.2162894128080930e-05 0.0000000000000000e+00  3.6572052049440654e-02 4.9292482565483553e-05 0.0000000000000000e+00  3.6005936135644227e-02 2.6003122185964429e-05 0.0000000000000000e+00  2.8028522193886910e-02 -8.6981568139158239e-03 0.0000000000000000e+00  -2.8309340935675460e-02 -8.7150594697003609e-03 0.0000000000000000e+00  -6.6769681261414100e-03 -1.1038253005128597e-02 0.0000000000000000e+00  1.1087232068590523e-02 -1.0327556626843839e-02 0.0000000000000000e+00  3.9176112267736776e-02 -5.5314530446657203e-03 0.0000000000000000e+00  -3.3754577879928256e-02 -5.5619564117376169e-03 0.0000000000000000e+00  3.3733822814728809e-02 -5.0973639416030834e-03 0.0000000000000000e+00  -4.0557928053276390e-02 -4.8865678111222879e-03 0.0000000000000000e+00  -1.6917683133609977e-02 -9.6278579970833604e-03 0.0000000000000000e+00  3.7129427140923251e-03 -1.0457959286371100e-02 0.0000000000000000e+00  -1.7749899173131908e-02 -8.1381562480171091e-03 0.0000000000000000e+00  1.6078030839253583e-02 -9.4482294278566536e-03 0.0000000000000000e+00  2.2274750649833350e-02 -7.6282085930746268e-03 0.0000000000000000e+00  2.2634805028885427e-04 -8.1919969596654842e-03 0.0000000000000000e+00  -3.9356488542909469e-02 -5.2552882501589373e-03 0.0000000000000000e+00  3.8620936580017050e-02 -5.2809821635414729e-03 0.0000000000000000e+00  -7.1463979955923998e-03 -9.2077631446715082e-03 0.0000000000000000e+00  -2.8562819844135771e-02 -6.2735285802104530e-03 0.0000000000000000e+00  2.4842395778698987e-02 -6.9726687945368473e-03 0.0000000000000000e+00  -2.4921105523762321e-02 -7.0326868908182393e-03 0.0000000000000000e+00  -8.8393985725879164e-03 -6.3309206023862289e-03 0.0000000000000000e+00  4.5887064888943223e-02 -3.0149694595358900e-03 0.0000000000000000e+00  -3.5207261575581274e-02 -2.7309375921841803e-03 0.0000000000000000e+00  1.3993374870479658e-02 -6.0790810272048877e-03 0.0000000000000000e+00  1.9836301867543139e-02 -1.0152516699401200e-02 0.0000000000000000e+00  2.4924400669391607e-03 -1.1205720693465359e-02 0.0000000000000000e+00  3.1651530674803398e-02 -5.1464675677454306e-03 0.0000000000000000e+00  -1.9762117912888181e-02 -1.0162241605398133e-02 0.0000000000000000e+00  1.0096789434220366e-02 -7.9131271684017568e-03 0.0000000000000000e+00  -4.7413901470691869e-02 -2.8247076223495318e-03 0.0000000000000000e+00  3.5630404507475205e-02 -2.6160980123805379e-03 0.0000000000000000e+00  3.8667996863699941e-02 -3.3756044327133837e-03 0.0000000000000000e+00  -4.5427455019329023e-02 -3.3829705919038349e-03 0.0000000000000000e+00  4.4361780811317350e-02 -3.5447312347446427e-03 0.0000000000000000e+00  -3.9416935849898395e-02 -3.5647569432409091e-03 0.0000000000000000e+00  1.0643866116631579e-02 -1.0931220633897046e-02 0.0000000000000000e+00  -4.0708437089504286e-04 -7.4144138174519671e-03 0.0000000000000000e+00  -1.2727041973645084e-02 -6.9048361467050770e-03 0.0000000000000000e+00  -2.9561328131494979e-02 -4.5320025304951541e-03 0.0000000000000000e+00  3.1374677428507275e-02 -7.5203535313424922e-03 0.0000000000000000e+00  6.2882854117471028e-03 -5.1818028094401079e-03 0.0000000000000000e+00  -2.2004468333280760e-02 -4.7252481887349656e-03 0.0000000000000000e+00  1.9180805825391774e-02 -6.4591917832191540e-03 0.0000000000000000e+00  -2.3989500655476347e-02 -9.1857376206566105e-03 0.0000000000000000e+00  3.2750211557286767e-02 -7.1382869139352033e-03 0.0000000000000000e+00  -3.5077139398628505e-02 -6.8790401817963795e-03 0.0000000000000000e+00  -1.3247438693619426e-02 -1.0809312073440451e-02 0.0000000000000000e+00  -1.9076853529678021e-02 -6.4108371927963544e-03 0.0000000000000000e+00  -3.3311250782138035e-02 -7.2133205445147506e-03 0.0000000000000000e+00  -2.2511912193378535e-03 -1.1151587432189766e-02 0.0000000000000000e+00  2.8730423097423352e-02 -4.5928649303551604e-03 0.0000000000000000e+00  -3.5526552920948216e-02 -3.7445268935328885e-03 0.0000000000000000e+00  -1.1033324678391309e-02 -9.6583416964773558e-03 0.0000000000000000e+00  2.2956306377474176e-02 -9.4379542977539223e-03 0.0000000000000000e+00  3.8766155191872924e-02 -3.2769498222262015e-03 0.0000000000000000e+00  -2.4601475785615903e-02 -8.6175878330477206e-03 0.0000000000000000e+00  -1.4593814459446248e-02 -4.8641692645493987e-03 0.0000000000000000e+00  -2.6530848499299394e-03 -5.1152907730315526e-03 0.0000000000000000e+00  3.4724212742119780e-02 -7.1054291436640086e-03 0.0000000000000000e+00  1.9492990991154813e-02 -4.6865086322732067e-03 0.0000000000000000e+00  7.0509734764778991e-03 -8.7135655469950616e-03 0.0000000000000000e+00  -4.0728552945300039e-03 -9.6163586354908442e-03 0.0000000000000000e+00  1.7272855288231179e-02 -9.1696693282102663e-03 0.0000000000000000e+00  -2.8941845509251544e-02 -7.5950383029863488e-03 0.0000000000000000e+00  2.4686627290943449e-02 -9.1274575249277231e-03 0.0000000000000000e+00  -3.8080253980358449e-02 -2.8546565895473152e-03 0.0000000000000000e+00  4.7581365760485016e-02 -2.7774275126015539e-03 0.0000000000000000e+00  -4.3977788117202717e-02 -2.7617778352419095e-03 0.0000000000000000e+00  4.2942874345390070e-02 -2.7456348391696112e-03 0.0000000000000000e+00  4.3514148692626389e-03 -5.8278350719302863e-03 0.0000000000000000e+00  2.6306852757342972e-02 -3.7059177733240987e-03 0.0000000000000000e+00  -4.1818163564253712e-02 -2.7247952082131649e-03 0.0000000000000000e+00  3.2173497351080341e-02 -3.0362024520756469e-03 0.0000000000000000e+00  -3.3924123602435810e-02 -6.2022072828408882e-03 0.0000000000000000e+00  2.9147430710679496e-02 -7.1786049194724356e-03 0.0000000000000000e+00  1.3996034934340746e-02 -5.2617748931123249e-03 0.0000000000000000e+00  -1.1552002606670199e-02 -1.0255058350714573e-02 0.0000000000000000e+00  -5.5474722410746528e-03 -5.3058862506325842e-03 0.0000000000000000e+00  5.1067790099120935e-02 -1.7715390837064790e-03 0.0000000000000000e+00  -3.5311704433701636e-02 -1.2520706467845772e-03 0.0000000000000000e+00  -5.2053065414777826e-02 -1.5503763743888416e-03 0.0000000000000000e+00  3.5655522364040702e-02 -1.1237521048953251e-03 0.0000000000000000e+00  2.3344008734045990e-02 -4.7908867561803738e-03 0.0000000000000000e+00  -2.7913012511573305e-02 -3.5596091059568809e-03 0.0000000000000000e+00  -4.9245543822341899e-02 -2.3013339516381182e-03 0.0000000000000000e+00  3.8235359823709771e-02 -2.2382961250182951e-03 0.0000000000000000e+00  -1.5346156837999433e-02 -1.0237948455732592e-02 0.0000000000000000e+00  -2.5550058635147626e-02 -4.1955176341501033e-03 0.0000000000000000e+00  -7.4893707856082637e-03 -1.1105723093877109e-02 0.0000000000000000e+00  1.5037316903040679e-02 -1.0636538634728181e-02 0.0000000000000000e+00  7.0675809044809055e-03 -1.1145391886071623e-02 0.0000000000000000e+00  -3.2322268666140873e-02 -2.6368496061273446e-03 0.0000000000000000e+00  3.5923932272445433e-02 -5.6324234972254129e-03 0.0000000000000000e+00  -4.0091758436015777e-02 -5.3010850206466923e-03 0.0000000000000000e+00  -2.1313473816970841e-02 -8.3235711156864119e-03 0.0000000000000000e+00  -3.6561253801239042e-02 -5.7943138493740907e-03 0.0000000000000000e+00  2.6706781424385730e-02 -8.5907554666131911e-03 0.0000000000000000e+00  3.9488744414403906e-02 -5.5604931045023561e-03 0.0000000000000000e+00  -2.9564006125339295e-02 -7.7101225598564787e-03 0.0000000000000000e+00  1.1095732146637886e-02 -3.5401143610386127e-03 0.0000000000000000e+00  2.8558500555273092e-02 -6.7632236386183497e-03 0.0000000000000000e+00  1.1969424340191980e-02 -9.8908751541066722e-03 0.0000000000000000e+00  2.0094474327859648e-03 -3.5739068144094049e-03 0.0000000000000000e+00  -2.3776682056872993e-02 -6.9848227841133289e-03 0.0000000000000000e+00  2.0998397947816081e-02 -8.4151673987604477e-03 0.0000000000000000e+00  -1.0663881740838373e-02 -3.4336893774884751e-03 0.0000000000000000e+00  -1.3766930664860406e-02 -7.5013187332459309e-03 0.0000000000000000e+00  -1.7114195910062462e-03 -1.1183897120901450e-02 0.0000000000000000e+00  -3.2686585278157210e-02 -4.4872531655367745e-03 0.0000000000000000e+00  -4.4487310019736253e-03 -7.5829750330470248e-03 0.0000000000000000e+00  1.5719735671376391e-03 -1.1316621961061939e-02 0.0000000000000000e+00  -7.3792087065182111e-08 -1.0440136600098312e-02 0.0000000000000000e+00  -3.6931058181110740e-02 -1.4798137208195826e-03 0.0000000000000000e+00  5.1421307715794076e-02 -1.8748972244603029e-03 0.0000000000000000e+00  3.4960686716438281e-02 -5.9370323608821376e-03 0.0000000000000000e+00  3.3728990496292736e-02 -2.8621795822432032e-03 0.0000000000000000e+00  1.1526287582610881e-02 -8.3698157216949252e-03 0.0000000000000000e+00  1.5126062960253751e-02 -1.0468511533778561e-02 0.0000000000000000e+00  2.3534871250809858e-02 -9.6649786972645077e-03 0.0000000000000000e+00  4.3554487140120716e-02 -1.9202079894009402e-03 0.0000000000000000e+00  1.7867516775457143e-02 -7.1172866745196428e-03 0.0000000000000000e+00  -9.3842660275185383e-03 -4.8760445208601670e-03 0.0000000000000000e+00  4.2966965436145248e-02 -4.3251027479991721e-03 0.0000000000000000e+00  -3.6564256674563880e-02 -4.2124008787581164e-03 0.0000000000000000e+00  -2.7097383070093120e-04 -9.9527356418054672e-03 0.0000000000000000e+00  -2.7444527847561757e-02 -8.6151615726601776e-03 0.0000000000000000e+00  -4.4657821895074383e-02 -3.7412279659419967e-03 0.0000000000000000e+00  3.6182236129237329e-02 -4.0264525471328180e-03 0.0000000000000000e+00  1.5820814850718859e-02 -3.0287745457599213e-03 0.0000000000000000e+00  -1.9809847463047450e-02 -1.0109550583950013e-02 0.0000000000000000e+00  -2.3963973211616172e-02 -9.5350827107050541e-03 0.0000000000000000e+00  -1.5717531921440094e-02 -4.9704957349979749e-03 0.0000000000000000e+00  4.1172412506178056e-02 -4.2387161963876423e-03 0.0000000000000000e+00  5.4612760874972388e-03 -1.0407875296487654e-02 0.0000000000000000e+00  -4.2543453758408255e-02 -1.9724087335246218e-03 0.0000000000000000e+00  4.6237626398432166e-02 -2.0210018080898768e-03 0.0000000000000000e+00  -4.6790036170561551e-02 -2.0981613472062480e-03 0.0000000000000000e+00  4.1682644273258046e-02 -2.1201266069567309e-03 0.0000000000000000e+00  -2.2243919767795380e-02 -3.7340548203869573e-03 0.0000000000000000e+00  4.8241897121454366e-02 -1.9476448409446599e-03 0.0000000000000000e+00  -4.0830002913940323e-02 -1.8734679344899587e-03 0.0000000000000000e+00  7.6916566446293159e-03 -9.8660469022901088e-03 0.0000000000000000e+00  -1.9803489680229477e-02 -9.3021672511017419e-03 0.0000000000000000e+00  -1.0762630593160016e-02 -1.0715519220746497e-02 0.0000000000000000e+00  6.1311018972108116e-03 -1.1180677662362651e-02 0.0000000000000000e+00  -3.0264664619810307e-02 -6.1184432977639466e-03 0.0000000000000000e+00  8.6281870943144719e-03 -4.8138867288935938e-03 0.0000000000000000e+00  -1.6670751604112324e-02 -7.7994042678989567e-03 0.0000000000000000e+00  -1.9032509382655317e-02 -2.8365200211978429e-03 0.0000000000000000e+00  -5.1929239826606639e-02 -1.6415063699595001e-03 0.0000000000000000e+00  3.7210572497350311e-02 -1.4072011736934293e-03 0.