<?xml version="1.0"?>
<VTKFile type="UnstructuredGrid"  version="0.1"  >
<UnstructuredGrid>
<Piece  NumberOfPoints="1855" NumberOfCells="3532">
<Points>
<DataArray  type="Float64"  NumberOfComponents="3"  format="ascii">0 0 0  30 0 0  30 -10 0  0 -10 0  0.1391574078963744 0 0  0.2856388821882616 0 0  0.4398299073010886 0 0  0.6021362569539473 0 0  0.7729850389704483 0 0  0.9528258543586996 0 0  1.142131984380316 0 0  1.34140159760994 0 0  1.551159074717981 0 0  1.771956417032531 0 0  2.004374674080994 0 0  2.249025475789527 0 0  2.506552636773105 0 0  2.777633857742732 0 0  3.062982518028728 0 0  3.363349525995907 0 0  3.679525322337712 0 0  4.01234195575742 0 0  4.362675247811097 0 0  4.731447135329707 0 0  5.119628065610077 0 0  5.528239565804708 0 0  5.958356943167011 0 0  6.411112081475485 0 0  6.887696441559404 0 0  7.389364184530748 0 0  7.917435485335147 0 0  8.473300005202017 0 0  9.058420557070402 0 0  9.674336929103793 0 0  10.32266995225095 0 0  11.00512576896296 0 0  11.72350030646412 0 0  12.47968402994705 0 0  13.27566689579597 0 0  14.1135435963616 0 0  14.9955190732806 0 0  15.92391430904694 0 0  16.90117245730496 0 0  17.92986524844506 0 0  19.01269976086341 0 0  20.15252556282024 0 0  21.35234220269763 0 0  22.61530708683689 0 0  23.94474379751883 0 0  25.34415086349739 0 0  26.81721093579712 0 0  28.3678004819169 0 0  30 -1.111111111111111 0  30 -2.222222222222222 0  30 -3.333333333333333 0  30 -4.444444444444445 0  30 -5.555555555555555 0  30 -6.666666666666666 0  30 -7.777777777777777 0  30 -8.888888888888889 0  28.36780047917311 -10 0  26.8172109305839 -10 0  25.34415085606858 -10 0  23.94474378810899 -10 0  22.61530707566275 -10 0  21.3523421899591 -10 0  20.15252554870171 -10 0  19.01269974553473 -10 0  17.92986523206254 -10 0  16.90117244001232 -10 0  15.92391429097614 -10 0  14.99551905455266 -10 0  14.11354357708742 -10 0  13.27566687607703 -10 0  12.47968400987599 -10 0  11.72350028612546 -10 0  11.00512574843363 -10 0  10.32266993160086 -10 0  9.674336908396342 -10 0  9.058420536362949 -10 0  8.473299984546333 -10 0  7.917435464777824 -10 0  7.389364164113587 -10 0  6.887696420787165 -10 0  6.411112061446698 -10 0  5.95835692337857 -10 0  5.528239546282652 -10 0  5.119628046377237 -10 0  4.731447115907979 -10 0  4.362675229213632 -10 0  4.012341937260036 -10 0  3.679525304434552 -10 0  3.363349508456405 -10 0  3.062982500861274 -10 0  2.777633840953978 -10 0  2.506552620368097 -10 0  2.249025459771861 -10 0  2.004374658452946 -10 0  1.771956401795187 -10 0  1.551159059871345 -10 0  1.341401583153029 -10 0  1.142131970307521 -10 0  0.9528258406748833 -10 0  0.7729850256685147 -10 0  0.6021362439621285 -10 0  0.4398298947504031 -10 0  0.2856388700059078 -10 0  0.1391573960769001 -10 0  0 -9.855072463768115 0  0 -9.710144927536232 0  0 -9.565217391304348 0  0 -9.420289855072463 0  0 -9.27536231884058 0  0 -9.130434782608695 0  0 -8.985507246376812 0  0 -8.840579710144928 0  0 -8.695652173913043 0  0 -8.55072463768116 0  0 -8.405797101449275 0  0 -8.260869565217391 0  0 -8.115942028985508 0  0 -7.971014492753623 0  0 -7.826086956521739 0  0 -7.681159420289855 0  0 -7.536231884057971 0  0 -7.391304347826087 0  0 -7.246376811594203 0  0 -7.101449275362318 0  0 -6.956521739130435 0  0 -6.811594202898551 0  0 -6.666666666666667 0  0 -6.521739130434783 0  0 -6.376811594202898 0  0 -6.231884057971015 0  0 -6.086956521739131 0  0 -5.942028985507246 0  0 -5.797101449275362 0  0 -5.652173913043478 0  0 -5.507246376811594 0  0 -5.36231884057971 0  0 -5.217391304347826 0  0 -5.072463768115941 0  0 -4.927536231884058 0  0 -4.782608695652174 0  0 -4.637681159420289 0  0 -4.492753623188406 0  0 -4.347826086956522 0  0 -4.202898550724638 0  0 -4.057971014492754 0  0 -3.913043478260869 0  0 -3.768115942028985 0  0 -3.623188405797101 0  0 -3.478260869565217 0  0 -3.333333333333334 0  0 -3.188405797101449 0  0 -3.043478260869565 0  0 -2.898550724637681 0  0 -2.753623188405797 0  0 -2.608695652173912 0  0 -2.463768115942029 0  0 -2.318840579710145 0  0 -2.173913043478261 0  0 -2.028985507246377 0  0 -1.884057971014492 0  0 -1.739130434782609 0  0 -1.594202898550725 0  0 -1.44927536231884 0  0 -1.304347826086957 0  0 -1.159420289855072 0  0 -1.014492753623188 0  0 -0.8695652173913047 0  0 -0.72463768115942 0  0 -0.579710144927537 0  0 -0.4347826086956523 0  0 -0.2898550724637676 0  0 -0.1449275362318829 0  5.15859856094262 -4.976557621770688 0  2.816777084926057 -7.160262673925935 0  2.81677708460006 -2.839737326002783 0  2.227649803257325 -5.003121586636773 0  1.518662968975629 -8.46230852045241 0  1.518662969184829 -1.537691480152612 0  9.960740911025725 -5.055901393541221 0  1.491099662214591 -3.691833922963321 0  1.503675657181264 -6.345020369042368 0  5.319208041801049 -7.493850249937013 0  5.291109955459268 -2.489368743223226 0  1.096914507335763 -2.53623188405797 0  1.096914507253562 -7.463768115942029 0  1.089580194952752 -4.71277167923441 0  15.07565076110197 -5.047572991082069 0  7.501630508673601 -5.937500100385354 0  0.8894869418764504 -5.623930488933245 0  2.955144522453978 -1.440834296472408 0  2.955144521140721 -8.559165705576945 0  8.106603955004623 -2.748811534843258 0  3.662152539483591 -4.228178367024407 0  3.662181528265114 -5.771746159989156 0  0.8436558190317136 -0.8541050638451999 0  0.8436558075840921 -9.145894948342754 0  0.7854168197005933 -1.811594202898552 0  0.7894693398152999 -3.286543351392342 0  0.7854168196772591 -8.188405797101449 0  0.7854168196772591 -6.739130434782609 0  20.00078956016804 -4.999999999785771 0  0.7379120031523989 -3.977302749614766 0  6.584332478112232 -3.934875417052907 0  7.295091310194352 -7.969791332537982 0  9.811174303464586 -7.412814499648229 0  4.013376806449688 -2.206189431585293 0  4.013376806983409 -7.793810569017377 0  12.11177433894592 -2.818343737884045 0  2.591152707837148 -3.990098461753838 0  2.58990939378082 -6.025895074707176 0  25.43156400064585 -5.044446479916348 0  2.03262751726143 -2.282125834846944 0  2.032627517335952 -7.717874165160392 0  12.51865094522923 -6.491408052923457 0  0.598175343983641 -6.156971652625402 0  2.126700074935224 -0.8767654465386991 0  2.126700059112423 -9.123234559633019 0  6.617961838548696 -1.617756429129908 0  0.5903949564549755 -4.980060355019413 0  1.676697585305984 -5.547101897225158 0  4.773518305133987 -3.729331162566817 0  4.77931803486508 -6.231222307502165 0  4.878549698409591 -8.72048903376362 0  4.852580875634024 -1.222215410052823 0  0.5487847095754042 -2.675169258708207 0  0.545113423825768 -7.32369553390529 0  1.78738026998851 -4.400451872599477 0  1.68244194111824 -3.010100184333533 0  1.683984276238402 -7.018293626028473 0  9.998503440677371 -2.00585287985007 0  3.693061162502273 -3.243678395563028 0  3.694987482168253 -6.757603268814477 0  6.081763036485869 -5.83414381546261 0  0.5196640460586313 -1.350633211792632 0  0.5196640458460706 -8.649366789040087 0  3.84593363904758 -0.9906418103762418 0  3.845933620847308 -9.009358200471317 0  17.41551885287501 -3.057748733689079 0  17.30725517812527 -7.002961443761516 0  8.117698464370697 -4.451550942597151 0  0.4918476668493152 -0.4789811193757592 0  0.4918476560347713 -9.521018882514893 0  1.463770869328428 -0.6252343353791154 0  1.463770854281917 -9.374765668872765 0  0.5034132782032188 -4.464280853772128 0  3.138906271796685 -4.99999841599503 0  14.61209972381335 -2.388610981020637 0  6.208601124947327 -8.776231214192325 0  14.74910972998159 -7.542186851303819 0  2.243794246335625 -1.632184311040998 0  2.243794245689214 -8.367815689183566 0  0.4590235278399923 -5.431413993025926 0  0.4971508861448406 -2.209632053221267 0  0.4971508861368665 -7.790367946777407 0  0.4644363683211541 -3.560571347760519 0  6.478811279411406 -7.007392971062433 0  1.238895267772762 -4.173677632458826 0  1.293241773632479 -2.02256720952064 0  1.293241773542714 -7.977432790434841 0  0.4324740478030531 -0.942028985507247 0  0.4324740423701829 -9.057971014492754 0  2.117396640811705 -3.472968170680347 0  2.107095929630507 -6.531506384346077 0  8.087741545730886 -1.392783601483453 0  1.028911946384717 -1.352376108341404 0  1.028911946221715 -8.647623891551962 0  4.05691976296832 -4.991522392209158 0  11.51826881314265 -8.065248940008736 0  1.618560396201739 -4.958056164503666 0  2.701984523487646 -2.141781914603403 0  2.70198452396172 -7.858218085853512 0  2.843615645746219 -9.289121726447632 0  2.843615661334342 -0.7108782798429658 0  8.678774612240533 -8.488146490452822 0  6.487906449371135 -2.667543558824978 0  8.369190916679937 -7.129867754908394 0  11.80978191929258 -4.655775487536958 0  0.3792065166453504 -3.113833531412848 0  0.4134714637263563 -6.58827691137208 0  9.551050695080825 -3.49648183875815 0  1.083867845277057 -6.036251777836495 0  0.3756430921870901 -1.80381664325008 0  0.3756430921689482 -8.196183356748573 0  3.113073783220456 -3.503408140759125 0  3.113391383189963 -6.496678880796299 0  22.62850736315072 -3.277987336300344 0  22.59385352108348 -6.800312122582239 0  0.3777114402537816 -4.137047872695438 0  0.9196816123347897 -0.4281025456111269 0  0.9196815944880363 -9.571897460530383 0  0.4052043328723194 -5.827814332459883 0  8.865857694874787 -5.767686953139113 0  1.200388325130726 -5.182186034620629 0  5.65297436943758 -4.325500846767599 0  1.200079167961391 -3.009849046583253 0  1.20883344838 -7.021823297793294 0  1.057642414577487 -3.660996704809145 0  10.88812987788297 -6.333458225047037 0  4.493502926606794 -2.839780197438185 0  4.485862892033458 -7.147606077919463 0  0.3631651408878085 -7.003529808558233 0  1.946748828463205 -6.049056369468467 0  6.918750162798794 -4.993796052442676 0  3.351203216022585 -1.980935554775394 0  3.351203216441711 -8.019064445907297 0  2.281892243515294 -2.856654416292082 0  2.281892243715877 -7.143345583598931 0  5.811143619672087 -0.9953286820321026 0  2.695713766833098 -4.565354125099452 0  2.698172168139827 -5.435483248292925 0  19.86166219288896 -2.493475492328429 0  19.83739102036415 -7.594404063416508
[...]
<PointData  Scalars=" mean stress"> 
<DataArray  type="Float64"  Name=" mean stress"  format="ascii">-9.5662390558630701e+00  1.5463481457461181e+05  2.7735025035783835e+06  1.7541995280496436e+05  1.0933757490518888e+01  4.5086326640781405e+00  7.1309218705809570e+01  1.1357460047206344e+02  1.9173316394766340e+02  3.1541777140094695e+02  4.7385074071731066e+02  5.8970888978129392e+02  8.2291987173689961e+02  1.1004256706886142e+03  1.3869673203458565e+03  1.6604030406742845e+03  2.2194839696616446e+03  2.5018695128499767e+03  3.2277580864561587e+03  3.7919282102186608e+03  4.4648500729875932e+03  5.5528846293758024e+03  6.1954542985412436e+03  7.2619100952921517e+03  8.7536310468264019e+03  1.0434438456523296e+04  1.1958155593281186e+04  1.3613394190409144e+04  1.5848478279697731e+04  1.8123526167704462e+04  2.2599741506669201e+04  2.6940329043344958e+04  3.1313407578425657e+04  3.4901772228226677e+04  4.4851765837705585e+04  5.4322215012351873e+04  6.2267877979951496e+04  7.8145466584380396e+04  8.3923028980601273e+04  9.8648441506174742e+04  1.1210380096321295e+05  1.1920885464407910e+05  1.2747080826516691e+05  1.3546068656135883e+05  1.3688715161810655e+05  1.3620477199266097e+05  1.4064986239953470e+05  1.4593416445675617e+05  1.4740132123190913e+05  1.4012006704696768e+05  1.4317781768293426e+05  1.4525760700096085e+05  1.4078091139327415e+05  1.4913418817700460e+05  1.5897183248390889e+05  1.8587262231656921e+05  2.0894861255471586e+05  2.7661085263841640e+05  3.9319041348654684e+05  6.7608425994384091e+05  8.0482446847001615e+05  4.8898497389024799e+05  3.3351187016794068e+05  2.3363258408872175e+05  1.8416589747197711e+05  1.5152119396098121e+05  1.2432939461024269e+05  1.1096738647044187e+05  9.4975990555595752e+04  8.7230365310818277e+04  7.8578948757392340e+04  7.5473857665994132e+04  7.3727767975593088e+04  7.3986554109386489e+04  7.5633354629165115e+04  8.3443486873034301e+04  9.4308997794133742e+04  1.2710697424278596e+05  2.1289685561735180e+05  3.7819578794379794e+05  2.6601875665930810e+05  1.1496980853270442e+05  7.8426307919688683e+04  5.9199230514016490e+04  4.6955756122065177e+04  3.8963064980820163e+04  3.2799779062966052e+04  2.9657188509015585e+04  2.7202391938176934e+04  2.5509446193641688e+04  2.3595655940096232e+04  2.3471499727536735e+04  2.3164583958598443e+04  2.3439993153031184e+04  2.4629392575015296e+04  2.4999457096126836e+04  2.7060882298465869e+04  2.8276917868542987e+04  3.0186890079093497e+04  3.4537813448507506e+04  3.8054701164324135e+04  4.3269139674656064e+04  5.1140451379606820e+04  5.8883084158853919e+04  7.4307490056686976e+04  1.0134332063500742e+05  1.2548882828240776e+05  1.8308572181430369e+05  9.8013144329735806e+04  6.2647721492362347e+04  4.9741349071173157e+04  4.0095109921545030e+04  3.4386847580157402e+04  3.0157221126022399e+04  2.6957176805323994e+04  2.4940816277997543e+04  2.2853788220418406e+04  2.1530654177976041e+04  2.0048894657752193e+04  1.8993202826421340e+04  1.8001607109781406e+04  1.7227685833787607e+04  1.6357703927186578e+04  1.5721577259248645e+04  1.5086216529525434e+04  1.4445063781359142e+04  1.3859418710272059e+04  1.3337149024389142e+04  1.2848974656840535e+04  1.2373236463698524e+04  1.1888008992147492e+04  1.1439493327397728e+04  1.0994570430332889e+04  1.0605429522003818e+04  1.0141471015975178e+04  9.7374344793165346e+03  9.3184468616759732e+03  8.9485546002958381e+03  8.5318852395819358e+03  8.1547209920073074e+03  7.7560553839679924e+03  7.3870671363335678e+03  6.9985223166450878e+03  6.6501965484518496e+03  6.2911506123894214e+03  5.9343397147821142e+03  5.5968388174267939e+03  5.2583169987871479e+03  4.9175250573123803e+03  4.5968591513762331e+03  4.2889729887444555e+03  3.9636556576870726e+03  3.6599978448230127e+03  3.3903282493821207e+03  3.0995014840867725e+03  2.8468418349716217e+03  2.5823984088322600e+03  2.3239372126265821e+03  2.1095570024918757e+03  1.8833614663291073e+03  1.6767984533371473e+03  1.4554297206282961e+03  1.2803946970219256e+03  1.1037871638261456e+03  9.4598182982932008e+02  7.8860415376842138e+02  6.5012471271601157e+02  5.2548987656809470e+02  4.1676301510237874e+02  3.1939502368279898e+02  2.2783823069778472e+02  1.5013288859993409e+02  1.1728018475738337e+02  6.0629370550810592e+01  -1.3023503811828843e+00  5.9734109504395370e+01  1.6322748081721844e+04  2.5962135081128898e+04  5.4824855272574077e+03  1.1173278429561649e+04  2.4109863175456994e+04  1.4983118154737585e+03  3.3019222874610212e+04  5.3052280170091572e+03  1.3470905773575480e+04  3.1929421267689115e+04  9.8910908639538920e+03  2.4823519695335799e+03  1.6361794379924710e+04  7.3142898973190795e+03  8.7643470747113912e+04  2.3707103910417412e+04  9.5385237581143283e+03  3.4627000517987422e+03  3.3375387206372601e+04  1.9733106809973127e+04  1.1436224440429951e+04  2.0393060329734726e+04  4.5545351986916899e+02  3.0538840377718534e+04  1.2416075534621161e+03  3.5703490608982725e+03  1.9445081120269362e+04  1.2866732690465135e+04  1.2824406404727613e+05  5.0314383101590647e+03  1.5857096243127060e+04  3.6653329797294398e+04  4.4905876034992238e+04  6.5117420499005839e+03  3.7274132191842938e+04  4.9464166848723326e+04  8.3962244299540180e+03  1.7509304910885487e+04  1.7579418039373847e+05  3.1309157764768174e+03  2.2347168532598094e+04  6.5256929534954528e+04  1.0731006288863016e+04  1.6860267689941609e+03  3.1044245119088428e+04  1.3211697850108556e+04  7.3975837749135471e+03  1.1309821193296835e+04  1.1364728700070977e+04  2.3840656198207489e+04  3.7757020020323929e+04  7.4801043910475255e+03  2.3494515851208562e+03  1.4528384144659391e+04  7.8226613547719853e+03  4.0362712191536007e+03  1.6847522611121774e+04  3.0910929427116931e+04  8.0856230538645650e+03  2.8930896960036760e+04  2.0820078690235139e+04  6.7025624930330730e+02  2.2755298085350540e+04  4.7300653544822499e+03  3.3988700211473224e+04  1.0408338786165575e+05  1.0984816700830909e+05  2.1712434292506448e+04  1.3793556680600787e+02  4.3799041528077920e+04  7.9279765316695295e+02  3.3951716314066463e+04  6.0011549445344308e+03  1.4276583744796997e+04  7.8396706740206268e+04  4.2993127725947365e+04  9.1134998086259133e+04  2.5572183597774565e+03  2.7816350130560593e+04  8.4922061105840621e+03  1.6241187332753007e+03  1.6550019862055789e+04  3.9600775794044089e+03  2.7537378453789443e+04  6.1530050938179475e+03  1.8787761527613313e+03  1.9715080438350004e+04  3.2263425373639740e+02  2.8747101450593822e+04  5.7978947432931645e+03  1.7135243530926429e+04  1.9719950795283879e+04  9.3898786406580598e+02  2.3938981844317408e+04  1.5654110478592778e+04  6.9983615833678588e+04  9.1353884287666624e+03  3.8953697797906671e+03  2.8622842271048041e+04  3.0299783019415223e+04  2.6849036624036908e+03  5.3160035857417803e+04  1.3417985958914662e+04  3.3256391670664358e+04  4.8643131048984404e+04  3.0410959943566204e+03  1.1809714432194194e+04  2.7633745491767433e+04  1.1219361399951911e+04  1.0661565344426604e+03  1.8773513039599355e+04  7.8240980792993896e+03  2.3541779156912402e+04  1.3521329862510713e+05  1.6965339827576655e+05  5.2339554854791604e+03  3.1311761870654510e+02  4.1847426207652781e+04  9.5807901020454174e+03  2.8305461941147645e+04  8.8377116636197788e+03  1.4584963746340964e+04  3.4601218136670195e+03  1.4912956086314136e+04  4.6333518121393690e+03  4.5721941754372063e+04  8.6110291337316376e+03  3.1952272505964214e+04  1.3183911742913626e+04  1.4217298937262834e+04  1.9028312759223911e+04  4.8309175150430738e+03  3.5678545642546742e+04  4.6409070102857859e+03  2.0851297823495468e+04  1.0366846950425937e+04  1.0804801106722964e+04  1.4794114411129955e+04  1.2038409262121383e+05  1.3233801376638864e+05  1.2004331505852302e+04  6.6942485065747067e+04  1.4779081215612197e+05  2.7775098765135300e+05  2.7975992979881266e+04  1.0019786611067868e+03  2.6698421336877468e+03  1.8760377083227868e+04  4.3504704782270463e+04  1.8048219546126111e+03  1.7387918209067364e+04  2.5799828796042537e+04  2.0104515260450655e+04  6.1260352317055058e+03  3.3279959305134464e+04  6.4457735887941948e+04  1.2955366902016776e+04  8.2241901616878866e+04  2.2327162335156686e+03  2.2605540547200282e+04  1.2609162665511682e+04  6.6699710082377724e+03  5.3122303839681277e+04  1.1455172178453747e+03  3.2666615461280730e+04  1.3087220921229580e+04  7.3520246472125727e+04  6.6589414661414103e+03  6.0510048490854360e+03  3.3972434268516416e+04  1.0563151771783862e+05  7.7237475571159503e+03  3.7549659172262946e+04  1.0850122497712802e+04  1.0726686169587885e+04  7.6284038872246165e+03  3.3461184678038429e+04  6.2437372949613709e+03  3.8411243300065798e+04  9.6430881248506721e+03  1.7587293495621043e+03  2.9881246816198483e+04  1.5356357742274788e+03  2.8169460134333192e+04  1.6141070475088289e+04  3.8176679074658983e+04  5.9772880118630428e+03  2.6729398529458955e+04  4.5388203367043570e+03  2.9502138508787893e+03  1.4102739632817640e+04  1.6681059033585254e+04  3.6294992867254364e+03  2.9083360951486684e+04  1.9351743945173050e+03  1.5157577688762125e+04  1.7365951889234642e+04  1.9957344536746325e+04  2.5661740202950205e+03  5.7740309753390960e+01  5.8515550218828896e+04  2.1111173802117573e+04  6.2780463673378008e+03  9.9188319216200107e+03  1.9421410731537308e+04  3.9119629681358470e+04  1.8848131559887531e+05  9.4251577480345164e+04  8.7008552972252237e+03  2.8337217960434020e+04  3.0503719096558809e+04  2.4098945167569250e+03  2.3990133959442635e+04  3.7041707819147159e+04  1.0585987115365995e+04  1.3325299053139308e+03  2.1138627032417982e+04  8.3197307244428612e+03  1.4348224083920231e+04  9.6996051484598705e+04  9.9833711484537234e+03  4.2536433866366324e+03  6.8540683022898029e+03  1.5286411462283215e+04  4.3591535266148721e+03  3.5808948898773277e+04  8.1018226583386757e+04  1.3627313267963671e+05  2.3174392950818897e+05  2.6298245295571534e+04  5.0769014674198269e+02  7.8246005991534048e+03  7.5339548584413058e+02  4.9137283645428329e+02  2.3857657218111355e+04  2.0690895169736439e+04  9.0727708055744690e+04  7.2104961150055260e+03  1.6117873494868519e+02  3.5005341076604862e+04  2.2677673638367352e+04  1.4007198616382684e+04  8.0807444075778776e+03  5.8562956125639621e+03  3.7555699058019454e+04  4.9471032806896537e+03  3.9940135361400949e+04  5.0272845726418478e+02  1.1660580636736435e+04  9.9285774526797686e+04  1.2249265931483558e+04  4.4236119331869377e+03  2.6536156800352430e+04  6.5510175207037930e+04  1.0797790808128113e+04  1.8502910377913230e+02  5.2081918682541364e+04  2.3628379075225363e+04  2.2781395932514963e+04  3.4620888337792398e+03  2.0134837437196527e+03  1.5803588232212307e+04  1.3628975163824427e+03  1.6950789499193186e+04  6.4578417588581151e+03  1.3667247828725251e+04  3.1631076847753702e+03  1.6608779424875123e+04  5.1365915167966830e+02  3.4493375347704758e+04  3.8521645825390835e+04  1.6857786415183935e+04  1.3705786784355467e+04  1.0116978674789398e+04  9.3946854356609419e+03  9.4928631678590079e+02  2.1530601800910350e+04  8.8610989059886051e+03  7.3796830670044161e+04  3.1280710323571959e+04  1.1688198179039580e+03  1.8099189751921509e+04  4.0411227712944369e+03  2.4016854010836960e+04  3.4586533378001955e+03  3.2607460467799167e+04  1.2859241522976397e+04  3.3917766596361005e+04  3.6284620677680628e+03  1.9154499629791477e+04  1.0835999882111183e+05  1.1397246288806992e+05  1.1288511044442323e+04  2.3643516298071710e+04  1.1533046748167044e+04  1.5334654542038910e+04  1.4386578836162412e+05  3.1527514115937652e+03  2.5885132931163200e+04  5.2328048815523462e+03  6.6504413234368321e+03  2.8588710105308877e+04  2.4240324128248380e+04  3.2522657408781643e+03  3.0135448855970910e+04  7.3412142453102651e+03  3.3849535563120917e+04  1.1842927549202633e+05  1.0539339011335791e+04  1.9866575656482012e+03  2.5489977115169982e+04  6.4059787443849862e+04  9.3312343855096515e+03  2.9830236475460464e+02  3.3074421480797268e+04  4.9840283211932265e+03  3.0644161345594977e+04  1.6476268147143132e+04  2.7978928947843680e+04  3.8271147281490346e+04  2.7725511750083886e+04  7.0414371123245735e+02  7.7589506645817414e+02  3.5472903308303845e+04  4.6880661167775224e+03  2.8909191423592827e+04  5.3356323892230343e+04  1.2289110053222252e+04  8.6084079211691380e+04  5.5537973172472784e+03  8.5384745418666906e+04  1.1526101433225104e+05  4.2079811059988824e+04  9.7886157776769687e+03  7.7387015602332074e+04  2.8454913708940708e+03  5.2899049335668766e+04  4.8307891911077213e+03  1.7885455180675082e+04  1.2211627833199836e+04  3.7733479050474933e+04  5.4603933020811774e+03  9.2160849627328589e+03  2.8608648071666026e+04  3.9198944856814778e+04  1.6731752271409016e+04  1.2043823958689460e+04  2.9028428434660851e+04  1.5810622848155051e+03  1.9129168963345033e+04  1.3199649809611265e+03  1.8051768809843848e+04  8.2747583869695318e+03  2.7599353965863862e+04  9.1827553659485293e+03  8.2320155174414234e+04  2.8266546204026179e+02  2.8444266350434933e+04  9.2842376213151738e+02  2.0255389568072507e+04  3.5259222350150576e+03  8.1587351001453671e+03  2.4486420877897099e+03  1.5068093977535866e+04  1.3331678129788048e+04  1.5901892002732409e+05  1.2348507198401687e+05  1.3507171084227894e+04  4.0767795495808154e+04  2.3733191208058281e+04  3.9483782078285622e+03  3.4852314793482859e+04  1.9444970000667097e+04  7.9642185476698913e+04  1.6302173780607574e+04  1.3620740985138767e+04  4.6006893840079574e+03  2.0275596068663112e+03  1.8297056024798596e+04  1.5016469142195967e+04  7.0348655518309370e+03  9.0902359114828389e+04  6.6642431207119298e+03  2.9063985519420257e+04  2.0843976315401219e+03  1.6564526937200633e+04  3.1994564940832483e+04  7.2225851911292761e+04  3.9898984445435526e+03  1.8711019857830670e+04  6.9508171755398798e+03  8.1405530849359202e+04  2.1652884926892280e+03  3.1350899430058773e+04  1.4294394190387041e+05  1.2626725251183253e+05  5.5223052726362430e+03  2.1020703084542693e+04  3.3216002463886231e+04  1.3977679212434997e+05  5.2474210321501677e+05  1.8947561027711392e+04  5.7241693091619545e+03  5.4561495225481558e+04  2.9811195815389515e+03  2.7920110155265087e+04  9.5813072779147788e+03  2.9778519488455986e+03  3.2404740436872176e+04  3.1596784728898816e+04  7.9593606836659674e+03  1.1440315713303409e+04  2.4631471118275455e+04  1.1462239968681779e+03  4.8052645745640148e+04  5.3643389894336680e+04  1.8989455191416779e+04  5.8663970494745299e+04  1.5118049115428377e+04  7.6352596120453436e+03  2.1052368438393663e+04  1.8103383738894897e+03  2.2043365211770961e+04  3.2104155574865472e+04  4.0608841909261268e+03  2.3464705456277283e+04  1.2432510305248434e+04  1.0500430227148094e+04  7.7309057566215588e+03  3.5721547767604250e+04  1.2594470777889984e+05  2.1194762142805220e+05  5.6177921304399744e+04  2.1526638112393775e+03  2.1155985995136423e+04  2.5674587658404670e+02  3.9294536745988320e+04  1.3100070881440875e+04  1.0310820955069089e+03  1.8533731111778321e+04  3.9184730136827388e+03  1.0168729895680606e+04  5.9095707247133705e+03  3.5933339352671690e+04  2.2858986570198595e+04  1.7286817974995583e+03  1.5692968195644644e+04  2.8526160912016303e+03  3.2225782093807044e+04  2.7197386972015160e+04  2.2662922789301879e+03  4.9711016915440831e+02  2.5000329875383861e+04  1.4336706669826102e+04  2.3061833733673007e+04  1.1606515860284346e+04  2.3525594877332305e+03  2.0216717959529440e+04  1.2796022617447265e+04  1.9164213408672244e+04  8.1152585607709369e+01  6.2503107585067461e+04  5.4646173279787241e+01  4.6500596177925334e+04  6.2485466678729481e+03  8.1999728351135491e+03  1.3350711468862291e+04  1.7438570855920774e+04  4.7828580466693775e+03  2.8621078575489050e+03  1.5236750190586708e+04  1.1529896569483080e+04  9.5017469283746213e+03  1.2563559184820118e+04  1.2538786874643418e+04  1.2040732247874979e+04  3.3455080708648852e+03  5.3552894158122826e+03  6.2823643986744530e+04  1.3706200573786127e+04  1.3190123789301328e+04  9.4699235839514586e+03  1.4948876221136759e+03  2.8432099357309762e+04  4.2070750532017308e+04  3.9871685253272321e+04  2.0112516667515880e+04  5.3674558034010133e+03  2.6082661036403559e+04  1.4700569769968063e+05  6.6890214423916277e+03  9.1823887813283691e+03  1.5097546578349080e+04  3.5226551549512141e+02  4.4673233924810404e+04  3.8249420053497088e+04  5.9440779107888739e+03  3.6278755887261883e+04  1.8673294752235233e+04  5.2252243312636609e+04  2.6539177389976721e+03  2.4737291695509379e+04  1.2374634343008987e+04  1.5608393775684317e+04  5.8753399423070849e+04  3.1582738435306746e+04  7.8190868207770791e+02  9.1443065004337390e+04  3.4541867559832172e+04  4.0468761884745768e+03  1.6962471233908847e+05  2.3823659873264583e+05  1.0155129580110743e+04  7.5380673090545344e+04  1.0666733216972760e+05  7.7152195902439598e+03  1.1311393620861967e+04  1.8439708069499864e+05  4.2776406500546014e+04  3.8471072928220441e+04  8.5961474249522525e+03  9.6338912844884399e+03  6.4247241995210834e+03  1.6667081620386569e+05  2.1414029412631967e+05  6.3040543387388370e+03  2.4835581954087676e+04  3.7974905529534476e+03  1.2520760659326457e+05  2.2351353982348734e+04  8.6881909229341509e+03  1.9313416705025964e+04  9.2082315639162207e+03  3.3050513524462091e+04  6.1757781068573956e+02  2.2159462907111207e+04  9.1211220326026432e+03  3.8219484414792992e+03  2.1428749771007926e+04  3.6789789721160967e+04  5.2751148851949629e+03  2.3895077809882936e+04  7.7491930042490947e+02  1.3361589637640093e+03  2.6817543913904788e+04  1.0515546630986182e+04  1.5439989214216899e+04  7.8928002779166491e+04  2.2384912823868376e+01  2.1506023700777773e+03  1.6423736246205230e+04  1.3753389374981987e+04  6.5644422985394885e+03  1.4585483158046758e+04  3.3138076074767065e+04  1.3848580813357673e+05  3.3560436328298249e+05  1.1926822777610377e+05  1.2424126774338963e+05  3.6472192705860689e+04  7.9440425365768588e+03  2.6658302904408978e+04  9.7218372458407481e+04  8.3699217917309594e+04  3.2361312064986432e+04  3.8092419178806194e+04  4.0074014927178905e+02  3.4908216734586829e+04  1.1414673354411818e+05  2.5053107195229536e+03  1.7753143058199621e+04  5.1636906070876348e+03  2.2422502291221339e+04  1.5915954021377347e+03  1.7341346836492052e+04  4.6732087684574835e+03  2.6912499026864847e+04  5.6216529937236774e+03  3.8322069233106369e+04  6.8523761992398486e+03  1.0977723754548644e+04  2.3857601313427633e+04  6.7476898303348098e+03  2.4124615372754641e+02  3.3331897477432962e+04  8.7538485852189315e+03  4.7875745482898419e+03  2.1181417155988052e+04  1.2062880736135230e+04  1.5213069686704541e+04  3.0802134963824219e+03  5.5313713478047830e+03  2.7411572746914164e+04  9.7072382135874985e+04  3.9057358258766450e+04  7.5173714804466335e+03  1.6028553993761184e+03  3.1369333318714183e+04  1.8645893703095669e+03  1.5795037250329186e+04  7.1381521208850609e+03  1.0025142766579404e+04  1.7846835417143859e+04  9.9311479409292602e+04  8.0162120655085106e+04  2.7917140634205311e+03  2.0656304253366732e+04  1.3628295782634281e+04  8.7325479615944041e+03  3.4101503417074244e+04  1.7256871255258695e+04  4.9530102995291536e+03  1.3358600770786284e+03  1.7463506405063708e+04  6.9843054186785894e+03  7.8660798419755229e+04  2.8379006268275349e+04  5.4775078309841947e+03  1.0358826753256455e+04  2.7383239110762502e+03  2.8645300341247541e+04  4.1909591479328088e+02  9.0994205576490407e+04  6.6663880229888700e+03  2.6875939564014025e+04  2.8546750988684678e+04  6.2952736908441557e+02  2.7069565729233276e+04  4.8417388833963314e+03  6.2941951888581161e+03  1.6524456761464804e+04  4.5396156008431812e+04  1.2218158942385147e+04  8.0008833229146858e+03  1.1423471124744622e+03  2.0899857220921876e+04  1.9002126199714610e+04  6.6929257928632742e+03  1.2992637415272083e+05  9.0247388754410902e+04  1.0415824046697155e+04  1.0651842149177089e+05  1.5581699059133547e+04  4.1439521907012568e+03  3.2402100879200483e+04  3.8203165343170213e+02  2.5970195580668915e+04  4.6261017602928987e+04  5.6877167150232635e+03  2.9164117144203323e+04  2.1312761675193923e+02  3.2010634213662619e+04  1.0209881509346895e+05  1