<?xml version="1.0"?>
<VTKFile type="UnstructuredGrid"  version="0.1"  >
<UnstructuredGrid>
<Piece  NumberOfPoints="572" NumberOfCells="1038">
<Points>
<DataArray  type="Float64"  NumberOfComponents="3"  format="ascii">0 0 0  4 0 0  4 -1 0  0 -1 0  0.09999999999999999 0 0  0.2 0 0  0.3 0 0  0.4 0 0  0.4999999999999998 0 0  0.5999999999999996 0 0  0.6999999999999995 0 0  0.7999999999999994 0 0  0.8999999999999992 0 0  0.999999999999999 0 0  1.099999999999999 0 0  1.199999999999999 0 0  1.299999999999999 0 0  1.399999999999999 0 0  1.499999999999998 0 0  1.599999999999998 0 0  1.699999999999999 0 0  1.799999999999999 0 0  1.899999999999999 0 0  2 0 0  2.1 0 0  2.200000000000001 0 0  2.300000000000001 0 0  2.400000000000002 0 0  2.500000000000002 0 0  2.600000000000002 0 0  2.700000000000003 0 0  2.800000000000003 0 0  2.900000000000004 0 0  3.000000000000004 0 0  3.100000000000005 0 0  3.200000000000005 0 0  3.300000000000005 0 0  3.400000000000004 0 0  3.500000000000004 0 0  3.600000000000003 0 0  3.700000000000002 0 0  3.800000000000002 0 0  3.900000000000001 0 0  4 -0.08333333333333325 0  4 -0.1666666666666665 0  4 -0.2499999999999997 0  4 -0.333333333333333 0  4 -0.4166666666666666 0  4 -0.5000000000000001 0  4 -0.5833333333333337 0  4 -0.6666666666666673 0  4 -0.7500000000000006 0  4 -0.8333333333333337 0  4 -0.9166666666666669 0  3.9 -1 0  3.8 -1 0  3.7 -1 0  3.6 -1 0  3.5 -1 0  3.4 -1 0  3.300000000000001 -1 0  3.200000000000001 -1 0  3.100000000000001 -1 0  3.000000000000001 -1 0  2.900000000000001 -1 0  2.800000000000001 -1 0  2.700000000000001 -1 0  2.600000000000001 -1 0  2.500000000000002 -1 0  2.400000000000002 -1 0  2.300000000000002 -1 0  2.200000000000001 -1 0  2.100000000000001 -1 0  2 -1 0  1.9 -1 0  1.799999999999999 -1 0  1.699999999999999 -1 0  1.599999999999998 -1 0  1.499999999999998 -1 0  1.399999999999998 -1 0  1.299999999999997 -1 0  1.199999999999997 -1 0  1.099999999999996 -1 0  0.9999999999999956 -1 0  0.899999999999995 -1 0  0.7999999999999949 -1 0  0.6999999999999953 -1 0  0.5999999999999956 -1 0  0.499999999999996 -1 0  0.3999999999999968 -1 0  0.2999999999999976 -1 0  0.1999999999999984 -1 0  0.0999999999999992 -1 0  0 -0.9166666666666667 0  0 -0.8333333333333335 0  0 -0.7500000000000002 0  0 -0.666666666666667 0  0 -0.5833333333333335 0  0 -0.4999999999999999 0  0 -0.4166666666666663 0  0 -0.3333333333333327 0  0 -0.2499999999999994 0  0 -0.1666666666666663 0  0 -0.08333333333333315 0  3.491090701185765 -0.499339806301727 0  0.4950203227078167 -0.4989128584675094 0  2.64262313781888 -0.4879297506908338 0  1.449999999999998 -0.5 0  2.058402291097397 -0.5120941233772698 0  0.9749999999999992 -0.4749999999999993 0  3.081769880806683 -0.5597407802610527 0  1.745473944409859 -0.3290615136625714 0  2.347280045777389 -0.6545118286598804 0  2.335768673639667 -0.3237239238763549 0  1.750327526220345 -0.682828817540943 0  3.707492972392909 -0.3028030525063309 0  0.293580296675358 -0.7109385489008262 0  3.71498825372084 -0.7080088716251347 0  0.2918697062415769 -0.2988161261649331 0  3.250413907284768 -0.3098344370860925 0  0.7481958762886598 -0.6907216494845363 0  2.897531957111618 -0.3144800466372323 0  1.202975631932859 -0.6871206495416401 0  0.7276881720430104 -0.301075268817204 0  1.222241507685503 -0.2908020883113388 0  2.821785532795642 -0.7097679058139483 0  3.313580174540806 -0.7110306688463971 0  1.50219738324048 -0.2570217529780842 0  2.109436430026117 -0.7485141141565509 0  2.001923272149049 -0.2612004201407864 0  2.591779594323503 -0.2533220405676498 0  1.508220405676497 -0.7466779594323502 0  2.584305190871683 -0.7502831919469019 0  3.478286033189422 -0.23795222571263 0  0.5261060937617643 -0.7658117832712512 0  3.785135972681774 -0.5040707172464052 0  0.2090645029521114 -0.4969048262114374 0  0.9574438986108131 -0.2423163095862805 0  0.9754244626643473 -0.7628641460288867 0  0.5097271592765806 -0.2292760602594508 0  3.047448237147327 -0.7984168297371277 0  3.522893514415914 -0.785726174019542 0  3.27411286219494 -0.5150314861460955 0  2.876192398366876 -0.5166549013936721 0  3.072152863254761 -0.2028141497170135 0  2.188888454287124 -0.1960738743988359 0  1.911111545712876 -0.8039261256011641 0  0.6968885413728847 -0.4974520678389611 0  1.252104989604988 -0.4970114345114344 0  1.649610740490046 -0.5028202775347195 0  2.446694231298332 -0.485633542353709 0  1.845992484168205 -0.4989419599210881 0  2.246214131289309 -0.4959316037735846 0  2.743080194417513 -0.1797603284198384 0  1.345217800961618 -0.8177514544794908 0  3.831771135951664 -0.1764827624326512 0  0.168177957407361 -0.823589473522286 0  3.837430960455357 -0.8286944021295046 0  0.167391597779325 -0.1752538625856722 0  3.066111254276541 -0.3870061788029396 0  1.358909159394344 -0.1720779287034414 0  1.669284305949535 -0.172759019086266 0  2.264869859182613 -0.8283162784008133 0  2.434165412425708 -0.1697954173687042 0  1.668706113475668 -0.8314479749300888 0  1.842683258862577 -0.1656794186994128 0  3.848464877921415 -0.3616620315967092 0  0.151535122078585 -0.6383379684032905 0  3.848707346075076 -0.6466646759135177 0  0.1509968549082652 -0.3452619778382686 0  2.732975255829699 -0.3508363638623346 0  1.370252652534258 -0.6495109932111033 0  1.11832587037856 -0.1733419061976365 0  2.439737645513045 -0.836456385212641 0  3.331229791744127 -0.165499768727795 0  0.6726591332606813 -0.8336090461037186 0  1.132616756253317 -0.8280723285747189 0  1.950606351728588 -0.6518091391595896 0  2.153824719141371 -0.3536025000168445 0  3.62532407618639 -0.1564302309141494 0  0.3803710983093131 -0.8404803223371928 0  1.377912260103223 -0.3517997484404782 0  0.8924624300191402 -0.6125774599817652 0  3.207249628251628 -0.8375220474312923 0  0.6546785576266954 -0.155978749966339 0  2.719684587363634 -0.8327734580127736 0  3.647699282718985 -0.5637569936419204 0  0.3570156455557587 -0.5653989322146081 0  0.8322251523939386 -0.8403847541693579 0  0.3645988133126639 -0.1519337183240305 0  1.061404500324257 -0.6180105656135877 0  3.396758647231262 -0.3766313243368538 0  0.8148021518360848 -0.1629813466347811 0  0.6093556516052328 -0.6299486913462624 0  0.415997866655875 -0.3680522660477806 0  0.5920160015096863 -0.3645412637424194 0  3.572255424430109 -0.362089200459548 0  1.08043890485706 -0.3398660584513152 0  2.923658429424994 -0.1561137197110593 0  3.653613361778262 -0.8546909554159527 0  3.456739790681186 -0.6487708965425909 0  0.8424839600900655 -0.4190496412612194 0  2.6968241495241 -0.6460539373019687 0  2.90777185621417 -0.8467190841342236 0  3.167421855912535 -0.6853653881872064 0  3.378998015397395 -0.8550267917096944 0  2.549623533286458 -0.6074164390661531 0  1.563854363100012 -0.3870450365840445 0  1.945115925347995 -0.3956210114182645 0  2.206384380497951 -0.6363666106481864 0  2.9679770331043 -0.6663940397605803 0  2.492817266347368 -0.3527603982764793 0  1.545918816851176 -0.6075709531787901 0  2.028456012399734 -0.8701972194942087 0  2.065700499244939 -0.1359115819594244 0  1.113999927383315 -0.4803729266898425 0  3.194766700972084 -0.1349664610116483 0  1.791586588241401 -0.8656156413257059 0  2.307333345265183 -0.1346440826116952 0  2.64093544674549 -0.1331489671463476 0  0.4565707965077976 -0.6534785968762363 0  1.459077473581533 -0.8718776489042938 0  1.56279060907849 -0.1324694119967317 0  0.3144726782861624 -0.406319735913186 0  3.686635179527132 -0.4155119011072678 0  3.583227123430988 -0.6879918386850498 0  3.884530589958141 -0.5337716741137969 0  0.1138901561454064 -0.4712706309748976 0  2.551320204776417 -0.8759992125181354 0  2.968455986624249 -0.4231600805006418 0  1.843995631966074 -0.2713141166917306 0  1.23826657576458 -0.1310261345083986 0  1.632298315745049 -0.7047459448475459 0  3.454977942639006 -0.1019833897113779 0  2.11213131937471 -0.6131325843633801 0  1.631670858552932 -0.3027829344070553 0  0.549999999999996 -0.8847857258099061 0  2.175907031111534 -0.8808902127996396 0  2.440789547527098 -0.7252338716820566 0  0.9499999999999957 -0.8853403742417534 0  0.1192006629558211 -0.7258150973260704 0  0.1086302422397907 -0.2553484983400458 0  3.891615894289125 -0.7428762999771643 0  3.880790852604017 -0.2741969419997524 0  2.58999033724616 -0.3943081590477266 0  0.95310975133633 -0.1100375897447476 0  0.9389274183125247 -0.357418794071099 0  0.5436861363815539 -0.1129935035840732 0  1.237622314162623 -0.8886349339205675 0  2.766143121931948 -0.4669467935657355 0  3.157965388639583 -0.4824178848815803 0  3.732166646772587 -0.1061123528525496 0  0.8463407040907105 -0.2803849511418723 0  0.2658218649297859 -0.8967607408767373 0  3.384357462435764 -0.5450459842617623 0  1.954320722194999 -0.1009956898074866 0  0.8013980381943526 -0.5278489923710374 0  3.744358883260304 -0.603637271636247 0  0.2581863795088786 -0.6001369967359219 0  0.2629966501688439 -0.1025990268626685 0  0.3980883060404261 -0.7330050441066103 0  1.076076863672032 -0.7275728344185368 0  1.749999999999999 -0.5550190100941714 0  2.351512610076122 -0.5440435521440684 0  0.8619623856291254 -0.7246873586411677 0  3.553081028189586 -0.8932001918706867 0  2.806636304103025 -0.6100531542467602 0  2.546714489935151 -0.08818853426728746 0  1.172246975380209 -0.5783812280673658 0  1.560837452008869 -0.9052833905541354 0  3.005913589025749 -0.2858329927011495 0  3.104244827324224 -0.8867193195303111 0  0.6392996137609843 -0.7340215588892431 0  3.370409685921998 -0.2678372406131186 0  1.860045411420065 -0.6863616357695403 0  2.239306624928278 -0.3159929711989559 0  0.620090528303912 -0.2611000972275821 0  1.457468991263225 -0.08750102207080079 0  1.752790718352056 -0.1005001786212033 0  0.394717592657301 -0.2605042194828123 0  3.745581301416776 -0.9074819423317642 0  3.141158115761163 -0.2920724092797614 0  3.257376892791448 -0.6242591031763242 0  2.350280737493299 -0.9013197570937703 0  3.914203942485891 -0.125 0  3.914203942485891 -0.8750000000000003 0  0.08579605751410901 -0.1249999999999997 0  0.08579605751410968 -0.875 0  3.921126745430668 -0.4525
[...]
<PointData  Scalars=" Mohr-Coulomb Fs"> 
<DataArray  type="Float64"  Name=" Mohr-Coulomb Fs"  format="ascii">1.9718566814704833e+06  7.6830089735596124e+06  2.9256999347458978e+05  2.7807312827270670e+05  5.3892528985693783e+05  4.9521888483194669e+05  3.9344716471582674e+05  4.4241743955760950e+05  4.8049818473013240e+05  4.7657031671588984e+05  5.8306559899347869e+05  5.8230118803477648e+05  6.5339978583486588e+05  6.7967116639240575e+05  7.2938915309036826e+05  7.6127195498747320e+05  7.8146633215050446e+05  7.9692527621510369e+05  8.2022787935860106e+05  8.3069098404995666e+05  8.3573062442096195e+05  8.4116189134349977e+05  8.4282174048719811e+05  8.4506489447153779e+05  8.4505663651157659e+05  8.4097737065692642e+05  8.3205002410207863e+05  8.3291772463196563e+05  8.1372051968081307e+05  8.0298044201466930e+05  7.8622102992159280e+05  7.5697355350265082e+05  7.3108156333992071e+05  7.0352506256086915e+05  6.4904158938434592e+05  5.9106559224541718e+05  5.8694192259003909e+05  5.0236763002845063e+05  4.9551318127599033e+05  4.7049729765079630e+05  3.7635603552119562e+05  4.7732771732389310e+05  2.0496823042261082e+05  -4.4492560737973242e+05  3.8989135791525804e+05  3.8956571998661291e+05  3.2234092497955024e+05  2.1094142643796481e+05  2.3333864298682247e+05  5.6966940973200923e+04  7.6895063535729016e+04  2.2658039278557099e+05  6.3231370848591345e+04  9.8544925102189896e+04  -1.7869439520388743e+05  1.0349150038747542e+06  5.9984555636822253e+04  5.0581676915516320e+05  6.6688655704130430e+05  4.9223914747230918e+05  6.3362394110063778e+05  6.5241461793916218e+05  6.1828822837294801e+05  6.6006807448525692e+05  7.7311120071883127e+05  7.5018510320230818e+05  8.0618186757060501e+05  7.9986594712113461e+05  8.0490854586945905e+05  8.1775330122181238e+05  8.2346939808394387e+05  8.2210746916396485e+05  8.3174240501212387e+05  8.1828214399908262e+05  8.2138734564334701e+05  8.2280067697878182e+05  8.2593046497553261e+05  8.1873905438546534e+05  8.0617611877585750e+05  8.0601120115479757e+05  7.8954730429332110e+05  7.8041209210943244e+05  7.7860210747348634e+05  7.3331958092636918e+05  7.1501443433584040e+05  6.5152357210024400e+05  6.4772794081306586e+05  5.1600855078773387e+05  6.5055568529101007e+05  5.8000817925292521e+05  2.1781434127465160e+04  1.4158188842146546e+06  -7.2869656018917958e+04  1.1291227823622322e+05  9.3069959568586477e+04  2.0645680025705995e+05  1.7467250829989251e+05  2.1221145114672481e+05  2.9904297343353119e+03  7.9159327281544596e+04  1.1843232123427888e+05  3.6039319369304692e+05  1.3716567856089870e+05  2.2604497238435518e+05  4.3355645210779831e+05  3.9596887468148390e+05  6.5143000723928399e+05  6.7445788862831506e+05  7.4776441429610399e+05  5.3025815318866854e+05  5.2011002902078099e+05  7.4764707892689900e+05  7.2733342071860377e+05  7.3815503659135336e+05  7.4289751799713401e+05  3.7404497968689783e+05  4.0806389591940155e+05  4.5570771519365982e+05  3.2591847975081805e+05  4.6945236644452048e+05  4.8913427732317249e+05  5.9385739102016273e+05  6.2828725874639791e+05  4.4369003998924070e+05  6.3299993073490798e+05  6.2327696133858978e+05  4.7692510472359770e+05  7.2048267294213292e+05  7.6705097079812537e+05  7.7605645492074767e+05  7.0172982507100608e+05  7.1280082961532229e+05  6.9421638693765213e+05  4.2408831758231885e+05  4.2600973888673418e+05  2.2457421779756449e+05  1.8853586239397438e+05  5.5111173857067327e+05  5.8077120132616942e+05  3.7820150428797648e+05  6.1694928466439806e+05  4.7370409644717781e+05  4.6305269031999336e+05  5.8418894067223091e+05  5.5663745968217822e+05  7.8468973729417403e+05  7.7974348928181315e+05  4.4360993321680598e+05  6.2179001839016902e+05  7.1837245980216959e+05  7.0085549696360377e+05  7.4288699234284961e+05  7.3391542497502419e+05  6.8542207521843549e+05  7.0934702482822957e+05  3.4474035944604961e+05  3.8253810144195089e+05  4.0142696290798200e+05  4.7865336929396389e+05  5.2414873354407225e+05  7.1701443590848986e+05  7.7560627581422660e+05  7.7280650247676275e+05  7.6106771765719866e+05  7.6854337978791934e+05  7.9362624593195354e+05  4.6175106774511479e+05  4.2272835406143148e+05  6.0448890025369381e+05  6.4523667479468929e+05  6.4124286978730420e+05  6.6789271281291952e+05  6.3968939157980343e+05  7.5889108897149004e+05  4.7676167073639284e+05  4.9779233395582595e+05  6.5963801782295073e+05  7.5495693429429666e+05  7.5428363234154636e+05  3.9444206908648607e+05  4.9357643185737339e+05  6.7044520425266691e+05  5.1270528921455325e+05  5.6495143579285580e+05  4.4276208731501788e+05  6.9562315995219245e+05  3.3679184674337337e+05  4.2501465968702664e+05  5.7820607908055931e+05  4.0785377087084518e+05  5.7056041681831272e+05  4.2989745771244471e+05  5.1992203973319748e+05  4.6310470749130932e+05  3.2870129881590861e+05  3.8375623417610716e+05  3.6629447820142028e+05  5.7308900743106101e+05  6.3600750112033950e+05  5.8582700431419013e+05  3.9324848232915986e+05  4.8455678251226741e+05  6.4656001048926997e+05  6.6852567532225000e+05  5.1664633552442095e+05  5.1170882699190662e+05  6.8310605206186580e+05  7.0984344570702489e+05  7.5405725181938871e+05  7.4519539027994766e+05  5.8912785299122846e+05  7.0411046882105188e+05  6.9960267995196756e+05  7.9932670683194278e+05  8.0590170537735696e+05  5.8080427157546370e+05  5.5033766116435127e+05  7.8847323196769727e+05  7.9101060886144743e+05  7.3315013979035895e+05  4.2570690090122673e+05  7.5300044896840176e+05  7.7360538592558110e+05  3.7849803603894956e+05  3.7657942523614102e+05  3.1718829610842804e+05  6.1823388283219619e+05  3.8336760515723354e+05  7.5643254574474529e+05  5.5346106379882596e+05  7.6748951338246430e+05  6.9643068405023986e+05  7.3352494868828100e+05  4.6244733932946168e+05  7.4788251424714760e+05  7.3719412238906359e+05  5.1473882757134200e+05  7.9664526653181319e+05  7.2301596579524036e+05  6.4045353078335396e+05  8.8503301536990807e+05  3.7236696202537644e+05  6.7482519246563513e+05  6.3726803185954294e+05  6.7309573132541927e+05  6.1153261862861353e+05  5.1868544343969494e+05  4.5169321085193130e+05  7.2069175040060643e+05  6.1447937625011092e+05  4.8801755320356920e+05  3.1988724966898398e+05  5.0497980269827822e+05  2.0684661735284570e+05  4.1973153091369546e+05  8.1877555537088518e+05  4.7733761549448379e+05  3.8457233841376781e+05  3.9315546340976038e+05  3.1803942970518122e+05  4.0643792144107580e+05  6.0118578814607440e+05  7.3179142594982160e+05  7.1744762979098794e+05  5.4089153076820262e+05  4.6601058533547714e+05  6.1023521340725850e+05  7.7481751766036311e+05  5.9533807672712929e+05  7.7947810999428248e+05  5.6078284448559990e+05  6.1486584714696067e+05  4.9553761289067054e+05  4.3129679971896543e+05  7.5503260173804488e+05  7.5217811031221168e+05  4.3357301171813515e+05  7.7434723059125524e+05  8.0786665351572551e+05  4.0361148664464947e+05  3.7814133863072115e+05  5.0783098275862128e+05  4.7100679070941254e+05  7.9153698377581942e+05  4.9103095912824402e+05  3.7823554453029385e+04  1.2211472187961872e+05  1.0389138040463282e+05  6.3048801981048414e+05  6.5008116204492049e+05  6.2515437965019222e+05  7.2232847259495500e+05  7.3447770210132434e+05  7.7292793516334484e+05  7.6487620742127637e+05  6.0819993312939012e+05  6.5109517907874007e+05  3.9440176963114401e+05  7.0394636828800722e+05  4.4913947235824942e+05  7.2547799503744533e+05  7.4105071900833573e+05  7.2521386853563029e+05  3.5506153850995121e+05  2.9297215520114294e+05  4.5355405785282940e+05  5.8191195529352827e+05  6.9341313023452763e+05  8.0110886792307138e+05  8.1530055700294557e+05  5.9864994796357711e+05  7.7129808643089538e+05  7.4850468433948769e+05  5.5096470151235652e+05  6.3477919517892133e+05  3.9925713989676046e+05  3.9572838711030642e+05  4.4471594190472219e+05  6.8634729435356206e+05  6.8086881527350692e+05  7.2299419652220246e+05  6.6978548656161258e+05  5.8409389552834351e+05  7.4946681588239479e+05  7.4709930888091773e+05  6.5801248892396141e+05  4.5468524398705876e+05  7.5102341332419333e+05  5.3088649931240501e+05  7.5998695153671433e+05  6.7150494197570556e+05  3.6766577850434126e+05  7.5758364301543578e+05  7.6444175064523576e+05  6.3395433366347710e+05  4.0771757731829892e+05  6.5984929121538810e+05  6.9234655853150971e+05  6.6853045261620148e+05  3.3123420998753567e+05  4.0795763057225436e+05  3.3992279952423007e+05  3.1309542847513553e+05  3.8779537189615576e+05  5.3830960781579639e+05  7.2332174689697789e+05  6.3820575729418232e+05  4.8374420680248516e+05  6.5732284762671101e+05  6.6161960376136657e+05  7.3953776345280348e+05  6.1073784628934378e+05  7.5393053180763323e+05  7.5880825779474236e+05  6.9735676063312520e+05  5.2995506441689341e+05  7.4565601319058239e+05  2.8483624884761113e+05  4.9236071895571292e+05  7.0183235905296775e+05  7.3518329028230766e+05  4.9157537949179491e+05  6.7790814096853812e+05  3.9309459454713884e+05  5.2288194736257446e+05  8.0739099547578290e+05  8.0251793740852748e+05  6.0846497566446604e+05  2.4834967047538419e+05  3.1458266557483078e+05  4.9793167274950794e+05  6.4878407554954267e+05  5.2575965065257298e+05  5.5238636357501696e+05  5.8154102721026319e+05  4.8680786958623573e+05  3.1379343945136986e+05  4.5415064136336691e+05  9.4924321506948443e+05  1.0718544799022500e+06  3.0172666186077980e+05  3.5601639152204990e+05  6.9823785339076573e+05  4.7568729338523123e+05  7.0037964246916899e+05  5.3614416316993360e+05  6.3415248522942862e+05  7.9804279615791142e+05  8.0628899451814534e+05  7.5335808416216366e+05  5.2815490867377073e+05  4.7182025190557382e+05  6.5286505820849922e+05  5.9020970836154406e+05  5.2971915669883124e+05  6.5536328751221125e+05  3.7924673285616335e+05  7.1521852622145461e+05  5.1070376697573689e+05  4.3703351067924203e+05  5.0701642257686605e+05  5.7865375207003555e+05  5.7964548626216652e+05  4.7897054222812550e+05  3.1508176207162387e+05  8.2501234849883732e+05  7.4455296560029348e+05  5.5852754352371290e+05  5.4860776012843219e+05  3.9063268644030130e+05  6.3500129564268095e+05  6.6285295604493236e+05  7.6997248987776053e+05  7.4758532931615238e+05  5.9821873654147005e+05  7.4325250123100285e+05  7.7929848959325475e+05  4.1478361469816376e+05  4.9152848092989478e+05  3.2270908612293412e+05  4.9414810342812177e+05  7.2137653295236174e+05  5.0042456785013544e+05  6.2927331036562193e+05  5.8125605620392971e+05  6.6319346216904547e+05  3.6637568386273616e+05  6.4692668382096000e+05  7.8697320538735332e+05  5.9359957562648668e+05  6.5896665535756981e+05  3.7557660661380994e+05  6.2609903479293152e+05  5.0233970866891969e+05  3.8292604045596893e+05  3.9828348000952444e+05  1.0222338031215327e+06  6.1173159176952764e+05  4.9386818900547305e+05  4.8872783776277694e+05  3.7223177451046370e+05  6.7894226514961431e+05  7.3158179507781577e+05  4.0752284285972931e+05  8.2135562614734785e+05  8.0657192432444077e+05  4.5880212130017590e+05  5.1642483143697924e+05  6.4812881113760290e+05  6.7342145129439875e+05  7.2599428057054279e+05  4.3612088724339654e+05  5.4462888562091615e+05  5.5319649760816607e+05  4.0062941739250341e+05  5.9411966955794615e+05  2.9903168394526199e+05  3.0135604911072139e+05  3.2938696361967979e+05  7.5014607609891158e+05  5.4290182071679237e+05  4.2694795290685102e+05  4.5140423985554592e+05  3.7737998008874548e+05  4.3687258464252710e+05  6.9574358227102028e+05  7.4772318020036200e+05  4.4546667945575394e+05  7.3899791895065468e+05  5.0880037207367126e+05  5.3566449040401215e+05  5.5648714085675811e+05  2.0422337846885351e+05  7.4856384892059476e+04  5.7849209099305258e+05  4.3126886241559277e+05  6.8414348960897152e+05  7.3526473724032112e+05  7.3423671984548110e+05  7.6616419083240931e+05  7.6825577980660915e+05  5.9988891017187340e+05  4.5095148811764590e+05  4.7093731192546751e+05  7.5609991924168193e+05  4.3617915077003866e+05  3.9442686646275787e+05  7.1349345100455184e+05  5.6900107687141164e+05  8.0753884937992063e+05  6.5148177325191011e+05  7.8190927908121794e+05  2.3698732879702118e+05  7.5017227131847607e+05  7.9884339679365396e+05  4.1846261451277375e+05  7.6462755487071036e+05  8.0119250375658961e+05  1.1003687755658690e+05  4.4266352671383612e+05  6.9712882968537079e+05  1.9968004866100565e+05  3.4089778070107492e+05  8.3171419286259252e+05  7.2136790157599607e+05  4.6713076964651467e+05  5.9729148547303083e+05  6.7841558215580159e+05  4.8692349490941124e+05  6.9401689293182339e+05  7.9444438903867663e+05  7.1582663014123100e+05  6.7543784611264116e+05  6.0954596368114604e+05  7.5113504424495192e+05  6.7821694718643615e+05  3.8076141901967186e+05  -3.4079960168681724e+05  -3.2828171301350332e+04  9.8679436211660318e+05  1.4407551744552259e+03  4.4906624783750152e+05  4.3550284805586142e+05  6.6875731564637588e+05  5.3095030416643166e+05  6.0541185325355839e+05  4.4918580515316635e+05  6.0948999798460398e+05  8.3134978239858057e+05  6.4534560296068352e+05  7.8908391075493873e+05  7.8146775024106202e+05  6.0992926344464859e+05  7.5483207585954992e+05  3.3451859243282879e+05  6.3596736353284004e+05  7.6771992458599876e+05  7.6337584608217201e+05  5.5935673549512133e+05  7.7681353765315167e+05  7.7002063380105200e+05  7.9488994200793991e+05  7.9145457396042021e+05  7.4722529796893196e+05  6.9352188392482477e+05  7.0430898177901399e+05  4.1531406120514817e+05  7.1898350772586744e+05  7.4355455986893259e+05  7.1492637133659725e+05  4.4369279476187995e+05  6.3383937834152149e+05  5.5860580283489637e+05  5.3676660874746263e+05  7.0822450659110874e+05  5.7769708059741964e+05  7.5830985999422334e+05  8.0535049198768230e+05  5.6048791292564187e+05  7.4339198811563721e+05  6.9242087623606867e+05  8.0611313751618809e+05  7.7973973313557578e+05  7.3745548644002760e+05  5.9246514360993763e+05  7.2105221406278573e+05  6.2766017869328416e+05  5.9195092443378642e+05  4.9873410932094388e+05  6.4365928211783664e+05  5.5492011008445302e+05  5.8456802183977363e+05  </DataArray> 
</PointData> 
</Piece>
</UnstructuredGrid>
</VTKFile>