<?xml version="1.0"?>
<VTKFile type="UnstructuredGrid"  version="0.1"  >
<UnstructuredGrid>
<Piece  NumberOfPoints="572" NumberOfCells="1038">
<Points>
<DataArray  type="Float64"  NumberOfComponents="3"  format="ascii">0 0 0  4 0 0  4 -1 0  0 -1 0  0.09999999999999999 0 0  0.2 0 0  0.3 0 0  0.4 0 0  0.4999999999999998 0 0  0.5999999999999996 0 0  0.6999999999999995 0 0  0.7999999999999994 0 0  0.8999999999999992 0 0  0.999999999999999 0 0  1.099999999999999 0 0  1.199999999999999 0 0  1.299999999999999 0 0  1.399999999999999 0 0  1.499999999999998 0 0  1.599999999999998 0 0  1.699999999999999 0 0  1.799999999999999 0 0  1.899999999999999 0 0  2 0 0  2.1 0 0  2.200000000000001 0 0  2.300000000000001 0 0  2.400000000000002 0 0  2.500000000000002 0 0  2.600000000000002 0 0  2.700000000000003 0 0  2.800000000000003 0 0  2.900000000000004 0 0  3.000000000000004 0 0  3.100000000000005 0 0  3.200000000000005 0 0  3.300000000000005 0 0  3.400000000000004 0 0  3.500000000000004 0 0  3.600000000000003 0 0  3.700000000000002 0 0  3.800000000000002 0 0  3.900000000000001 0 0  4 -0.08333333333333325 0  4 -0.1666666666666665 0  4 -0.2499999999999997 0  4 -0.333333333333333 0  4 -0.4166666666666666 0  4 -0.5000000000000001 0  4 -0.5833333333333337 0  4 -0.6666666666666673 0  4 -0.7500000000000006 0  4 -0.8333333333333337 0  4 -0.9166666666666669 0  3.9 -1 0  3.8 -1 0  3.7 -1 0  3.6 -1 0  3.5 -1 0  3.4 -1 0  3.300000000000001 -1 0  3.200000000000001 -1 0  3.100000000000001 -1 0  3.000000000000001 -1 0  2.900000000000001 -1 0  2.800000000000001 -1 0  2.700000000000001 -1 0  2.600000000000001 -1 0  2.500000000000002 -1 0  2.400000000000002 -1 0  2.300000000000002 -1 0  2.200000000000001 -1 0  2.100000000000001 -1 0  2 -1 0  1.9 -1 0  1.799999999999999 -1 0  1.699999999999999 -1 0  1.599999999999998 -1 0  1.499999999999998 -1 0  1.399999999999998 -1 0  1.299999999999997 -1 0  1.199999999999997 -1 0  1.099999999999996 -1 0  0.9999999999999956 -1 0  0.899999999999995 -1 0  0.7999999999999949 -1 0  0.6999999999999953 -1 0  0.5999999999999956 -1 0  0.499999999999996 -1 0  0.3999999999999968 -1 0  0.2999999999999976 -1 0  0.1999999999999984 -1 0  0.0999999999999992 -1 0  0 -0.9166666666666667 0  0 -0.8333333333333335 0  0 -0.7500000000000002 0  0 -0.666666666666667 0  0 -0.5833333333333335 0  0 -0.4999999999999999 0  0 -0.4166666666666663 0  0 -0.3333333333333327 0  0 -0.2499999999999994 0  0 -0.1666666666666663 0  0 -0.08333333333333315 0  3.491090701185765 -0.499339806301727 0  0.4950203227078167 -0.4989128584675094 0  2.64262313781888 -0.4879297506908338 0  1.449999999999998 -0.5 0  2.058402291097397 -0.5120941233772698 0  0.9749999999999992 -0.4749999999999993 0  3.081769880806683 -0.5597407802610527 0  1.745473944409859 -0.3290615136625714 0  2.347280045777389 -0.6545118286598804 0  2.335768673639667 -0.3237239238763549 0  1.750327526220345 -0.682828817540943 0  3.707492972392909 -0.3028030525063309 0  0.293580296675358 -0.7109385489008262 0  3.71498825372084 -0.7080088716251347 0  0.2918697062415769 -0.2988161261649331 0  3.250413907284768 -0.3098344370860925 0  0.7481958762886598 -0.6907216494845363 0  2.897531957111618 -0.3144800466372323 0  1.202975631932859 -0.6871206495416401 0  0.7276881720430104 -0.301075268817204 0  1.222241507685503 -0.2908020883113388 0  2.821785532795642 -0.7097679058139483 0  3.313580174540806 -0.7110306688463971 0  1.50219738324048 -0.2570217529780842 0  2.109436430026117 -0.7485141141565509 0  2.001923272149049 -0.2612004201407864 0  2.591779594323503 -0.2533220405676498 0  1.508220405676497 -0.7466779594323502 0  2.584305190871683 -0.7502831919469019 0  3.478286033189422 -0.23795222571263 0  0.5261060937617643 -0.7658117832712512 0  3.785135972681774 -0.5040707172464052 0  0.2090645029521114 -0.4969048262114374 0  0.9574438986108131 -0.2423163095862805 0  0.9754244626643473 -0.7628641460288867 0  0.5097271592765806 -0.2292760602594508 0  3.047448237147327 -0.7984168297371277 0  3.522893514415914 -0.785726174019542 0  3.27411286219494 -0.5150314861460955 0  2.876192398366876 -0.5166549013936721 0  3.072152863254761 -0.2028141497170135 0  2.188888454287124 -0.1960738743988359 0  1.911111545712876 -0.8039261256011641 0  0.6968885413728847 -0.4974520678389611 0  1.252104989604988 -0.4970114345114344 0  1.649610740490046 -0.5028202775347195 0  2.446694231298332 -0.485633542353709 0  1.845992484168205 -0.4989419599210881 0  2.246214131289309 -0.4959316037735846 0  2.743080194417513 -0.1797603284198384 0  1.345217800961618 -0.8177514544794908 0  3.831771135951664 -0.1764827624326512 0  0.168177957407361 -0.823589473522286 0  3.837430960455357 -0.8286944021295046 0  0.167391597779325 -0.1752538625856722 0  3.066111254276541 -0.3870061788029396 0  1.358909159394344 -0.1720779287034414 0  1.669284305949535 -0.172759019086266 0  2.264869859182613 -0.8283162784008133 0  2.434165412425708 -0.1697954173687042 0  1.668706113475668 -0.8314479749300888 0  1.842683258862577 -0.1656794186994128 0  3.848464877921415 -0.3616620315967092 0  0.151535122078585 -0.6383379684032905 0  3.848707346075076 -0.6466646759135177 0  0.1509968549082652 -0.3452619778382686 0  2.732975255829699 -0.3508363638623346 0  1.370252652534258 -0.6495109932111033 0  1.11832587037856 -0.1733419061976365 0  2.439737645513045 -0.836456385212641 0  3.331229791744127 -0.165499768727795 0  0.6726591332606813 -0.8336090461037186 0  1.132616756253317 -0.8280723285747189 0  1.950606351728588 -0.6518091391595896 0  2.153824719141371 -0.3536025000168445 0  3.62532407618639 -0.1564302309141494 0  0.3803710983093131 -0.8404803223371928 0  1.377912260103223 -0.3517997484404782 0  0.8924624300191402 -0.6125774599817652 0  3.207249628251628 -0.8375220474312923 0  0.6546785576266954 -0.155978749966339 0  2.719684587363634 -0.8327734580127736 0  3.647699282718985 -0.5637569936419204 0  0.3570156455557587 -0.5653989322146081 0  0.8322251523939386 -0.8403847541693579 0  0.3645988133126639 -0.1519337183240305 0  1.061404500324257 -0.6180105656135877 0  3.396758647231262 -0.3766313243368538 0  0.8148021518360848 -0.1629813466347811 0  0.6093556516052328 -0.6299486913462624 0  0.415997866655875 -0.3680522660477806 0  0.5920160015096863 -0.3645412637424194 0  3.572255424430109 -0.362089200459548 0  1.08043890485706 -0.3398660584513152 0  2.923658429424994 -0.1561137197110593 0  3.653613361778262 -0.8546909554159527 0  3.456739790681186 -0.6487708965425909 0  0.8424839600900655 -0.4190496412612194 0  2.6968241495241 -0.6460539373019687 0  2.90777185621417 -0.8467190841342236 0  3.167421855912535 -0.6853653881872064 0  3.378998015397395 -0.8550267917096944 0  2.549623533286458 -0.6074164390661531 0  1.563854363100012 -0.3870450365840445 0  1.945115925347995 -0.3956210114182645 0  2.206384380497951 -0.6363666106481864 0  2.9679770331043 -0.6663940397605803 0  2.492817266347368 -0.3527603982764793 0  1.545918816851176 -0.6075709531787901 0  2.028456012399734 -0.8701972194942087 0  2.065700499244939 -0.1359115819594244 0  1.113999927383315 -0.4803729266898425 0  3.194766700972084 -0.1349664610116483 0  1.791586588241401 -0.8656156413257059 0  2.307333345265183 -0.1346440826116952 0  2.64093544674549 -0.1331489671463476 0  0.4565707965077976 -0.6534785968762363 0  1.459077473581533 -0.8718776489042938 0  1.56279060907849 -0.1324694119967317 0  0.3144726782861624 -0.406319735913186 0  3.686635179527132 -0.4155119011072678 0  3.583227123430988 -0.6879918386850498 0  3.884530589958141 -0.5337716741137969 0  0.1138901561454064 -0.4712706309748976 0  2.551320204776417 -0.8759992125181354 0  2.968455986624249 -0.4231600805006418 0  1.843995631966074 -0.2713141166917306 0  1.23826657576458 -0.1310261345083986 0  1.632298315745049 -0.7047459448475459 0  3.454977942639006 -0.1019833897113779 0  2.11213131937471 -0.6131325843633801 0  1.631670858552932 -0.3027829344070553 0  0.549999999999996 -0.8847857258099061 0  2.175907031111534 -0.8808902127996396 0  2.440789547527098 -0.7252338716820566 0  0.9499999999999957 -0.8853403742417534 0  0.1192006629558211 -0.7258150973260704 0  0.1086302422397907 -0.2553484983400458 0  3.891615894289125 -0.7428762999771643 0  3.880790852604017 -0.2741969419997524 0  2.58999033724616 -0.3943081590477266 0  0.95310975133633 -0.1100375897447476 0  0.9389274183125247 -0.357418794071099 0  0.5436861363815539 -0.1129935035840732 0  1.237622314162623 -0.8886349339205675 0  2.766143121931948 -0.4669467935657355 0  3.157965388639583 -0.4824178848815803 0  3.732166646772587 -0.1061123528525496 0  0.8463407040907105 -0.2803849511418723 0  0.2658218649297859 -0.8967607408767373 0  3.384357462435764 -0.5450459842617623 0  1.954320722194999 -0.1009956898074866 0  0.8013980381943526 -0.5278489923710374 0  3.744358883260304 -0.603637271636247 0  0.2581863795088786 -0.6001369967359219 0  0.2629966501688439 -0.1025990268626685 0  0.3980883060404261 -0.7330050441066103 0  1.076076863672032 -0.7275728344185368 0  1.749999999999999 -0.5550190100941714 0  2.351512610076122 -0.5440435521440684 0  0.8619623856291254 -0.7246873586411677 0  3.553081028189586 -0.8932001918706867 0  2.806636304103025 -0.6100531542467602 0  2.546714489935151 -0.08818853426728746 0  1.172246975380209 -0.5783812280673658 0  1.560837452008869 -0.9052833905541354 0  3.005913589025749 -0.2858329927011495 0  3.104244827324224 -0.8867193195303111 0  0.6392996137609843 -0.7340215588892431 0  3.370409685921998 -0.2678372406131186 0  1.860045411420065 -0.6863616357695403 0  2.239306624928278 -0.3159929711989559 0  0.620090528303912 -0.2611000972275821 0  1.457468991263225 -0.08750102207080079 0  1.752790718352056 -0.1005001786212033 0  0.394717592657301 -0.2605042194828123 0  3.745581301416776 -0.9074819423317642 0  3.141158115761163 -0.2920724092797614 0  3.257376892791448 -0.6242591031763242 0  2.350280737493299 -0.9013197570937703 0  3.914203942485891 -0.125 0  3.914203942485891 -0.8750000000000003 0  0.08579605751410901 -0.1249999999999997 0  0.08579605751410968 -0.875 0  3.921126745430668 -0.4525
[...]
<PointData  Scalars=" Mohr-Coulomb Fs"> 
<DataArray  type="Float64"  Name=" Mohr-Coulomb Fs"  format="ascii">5.3337067068688630e+05  5.3124642448368808e+05  2.3186387704864040e+05  2.3084600779995212e+05  3.7505883452605299e+05  3.7496854168258468e+05  3.9366749839747965e+05  4.3718824305405852e+05  4.5755165639558702e+05  4.9700131882250914e+05  5.6030287861056009e+05  5.9266532919573935e+05  6.4453838731830171e+05  6.7850522420017747e+05  7.2696557791606744e+05  7.6116469105527550e+05  7.8546711330659490e+05  8.0340014075574419e+05  8.1862983167157229e+05  8.3007715896613908e+05  8.3654920872232167e+05  8.4086958203357249e+05  8.4229389859371423e+05  8.4384944294419687e+05  8.4444836060410098e+05  8.4034315658811259e+05  8.3193635197388451e+05  8.3195820153842529e+05  8.1637490364184673e+05  8.0255672090728290e+05  7.8528137988235708e+05  7.5325949443825264e+05  7.2608890377449489e+05  6.9166390153119888e+05  6.4134710618190758e+05  5.8943807820248173e+05  5.4811514078333322e+05  5.0235551523846568e+05  4.5772962287927209e+05  4.3589881119963527e+05  3.9597012552210246e+05  3.7706154910731956e+05  3.7902791321813292e+05  5.1001222542873526e+05  7.2939149859152082e+05  7.9843627858789812e+05  8.3061766630074405e+05  7.0956879290986340e+05  7.4570501793103898e+05  7.1052363261960167e+05  6.1790699717345065e+05  5.1294400617175584e+05  4.4141379279026005e+05  2.5082178779265680e+05  3.0654091748470656e+05  3.9011939086599479e+05  4.1318202086447994e+05  4.8737729282051441e+05  5.1513902708895592e+05  5.8388475305407518e+05  6.1940577964362304e+05  6.5645464506885479e+05  7.0216752711055137e+05  7.3858417524739343e+05  7.7129611471150327e+05  7.8832122307301639e+05  8.0244561091725901e+05  8.1448269738680718e+05  8.2198169355976698e+05  8.2124648816124420e+05  8.2622536758201942e+05  8.2402028072573256e+05  8.3329380089033395e+05  8.2679480318412604e+05  8.2722229599364800e+05  8.2504466221660434e+05  8.2839617765866977e+05  8.2181293201252760e+05  8.1698583463163290e+05  8.1810782802735572e+05  7.9556781000588567e+05  7.8442130700755119e+05  7.7369401341684221e+05  7.3441038870166021e+05  7.1526619631626108e+05  6.7240467488753132e+05  6.2393440060040145e+05  5.7683796060097462e+05  5.2607098975166492e+05  4.9059904811929143e+05  4.1569390835906833e+05  3.9278918189499940e+05  3.0906967284160096e+05  2.5532037199966807e+05  4.2782531689730583e+05  5.5562357401364646e+05  6.6250085424627189e+05  6.4806291065875371e+05  7.4465361539616704e+05  7.6582298264432116e+05  7.3738712578325451e+05  7.2021767934483965e+05  7.6080146972637472e+05  5.0031210276864958e+05  3.8675286864155333e+05  3.7774377298818377e+05  6.5186861168530001e+05  6.7833960560281994e+05  7.5237574681449181e+05  5.2518706438004202e+05  5.1167401302007120e+05  7.5178885650117800e+05  7.3034483078575460e+05  7.4092163182582753e+05  7.4862320065574755e+05  3.5159909260581410e+05  3.7326610031008231e+05  3.6834929464467365e+05  3.5111419776514760e+05  4.5356274839626282e+05  4.8181651982314250e+05  5.8845301977107115e+05  6.2746841223806818e+05  4.4873380384184804e+05  6.3409000573847012e+05  6.2503870898437104e+05  4.6684740277378698e+05  7.2423551954387489e+05  7.7152837691910577e+05  7.7973463927195175e+05  7.0181264540222706e+05  7.1979265008927637e+05  7.0040648279254127e+05  3.9266091187351069e+05  4.3969319621113135e+05  3.7666359071560309e+05  3.8013691533464618e+05  5.4649407117585442e+05  5.7537981985644170e+05  3.8362801673099416e+05  5.8958698673981137e+05  4.2447610286840989e+05  4.4508934566536080e+05  5.7831481004289759e+05  5.4874754686389456e+05  7.8715622811380704e+05  7.8196970365720475e+05  4.3198068024807039e+05  6.2233366631082376e+05  7.2309212969847629e+05  7.0337566185419436e+05  7.4710999867191841e+05  7.3720240927991085e+05  6.8079988854747033e+05  7.0868408738576737e+05  3.5395268268202693e+05  3.3451826936505578e+05  3.3198801155049284e+05  3.5344399843365385e+05  5.1411274595810589e+05  7.1678643086712505e+05  7.7720757226343593e+05  7.7624131704711169e+05  7.6203225301555824e+05  7.7011797550903249e+05  7.9590091702021647e+05  4.1549925890237186e+05  4.0263603580901405e+05  4.0442164326562197e+05  4.1269357439845154e+05  6.3830829511217133e+05  6.6869810449491802e+05  6.3643126314712630e+05  7.5734628997301101e+05  4.5597161236538016e+05  5.1168241680528427e+05  6.5659825423097890e+05  7.5881095568566571e+05  7.5846042129477928e+05  3.6072558138667315e+05  4.1446356345986592e+05  6.7226028569947695e+05  5.0709086857286521e+05  5.5485813481843646e+05  4.5298439512068103e+05  6.9893285858877783e+05  3.6666301606768853e+05  3.6468019088063482e+05  5.7251662576082523e+05  3.6006530723603454e+05  5.6856790690696542e+05  4.0353279177096678e+05  5.1901152013443870e+05  4.2792499768932589e+05  3.5830671057089785e+05  3.9885323184815602e+05  3.6192282309531944e+05  5.7445321939182107e+05  6.2730472357462079e+05  4.0534645595734922e+05  4.0640436761631269e+05  4.7963347742932721e+05  6.4704516155421745e+05  6.5567824122027180e+05  5.0453916819125158e+05  5.0315739478137053e+05  6.8378612624831067e+05  7.1335478851543088e+05  7.5841684494757862e+05  7.4793478846175678e+05  5.6682410198683955e+05  7.0576673761285609e+05  7.0535896103581239e+05  7.9688276685411891e+05  8.0907038164736505e+05  5.7829420322627004e+05  5.2581341683755221e+05  7.9014475112804247e+05  7.9247827892985707e+05  7.2993900147794536e+05  3.9333576618618396e+05  7.5143130678949866e+05  7.7564832979001873e+05  3.5764352869593597e+05  3.5848283988647576e+05  3.9100378946087713e+05  4.4777269520554732e+05  4.6107196573387290e+05  7.5565161578292679e+05  5.4611967762750003e+05  7.7097188532830018e+05  6.9539498254345439e+05  7.3611208886605536e+05  4.3364813389468013e+05  7.5341781573560531e+05  7.3948085191392386e+05  4.9094480181663635e+05  7.9662730927856872e+05  7.2658078644465317e+05  6.3677682525388559e+05  3.8670058784329146e+05  4.0533062094938231e+05  3.7598484823684581e+05  4.1660197786859958e+05  6.7387211650312284e+05  6.0762993341913796e+05  5.1692663743394532e+05  4.3205769145022717e+05  7.2023209747442871e+05  6.1338942758628016e+05  4.7871039263484412e+05  3.4548186362636532e+05  4.9898847382833279e+05  3.8195788868769532e+05  4.1410486636141356e+05  8.2026648481915204e+05  4.6829414333011676e+05  3.7217357219569618e+05  3.7304857930134586e+05  3.4527723349179968e+05  3.9273506348926370e+05  5.9617381912710599e+05  7.3674605268472864e+05  7.2151219951082929e+05  5.2883821475089004e+05  4.6069059659682878e+05  6.0940901685654477e+05  7.7497513844375696e+05  5.9436684094168618e+05  7.8296350888599840e+05  5.5095059110081545e+05  6.1312555127154163e+05  4.6100387477882073e+05  4.2038604027601727e+05  7.5901140630698809e+05  7.5537842322891578e+05  4.1870198943022266e+05  7.7506740676306607e+05  8.0979201372321008e+05  3.5853383172663942e+05  3.7907172173109843e+05  4.9996067407860979e+05  4.6243856570725300e+05  7.9010451496523654e+05  3.7061213604985422e+05  3.0310477133855742e+05  3.6063470693309553e+05  3.0935951103802945e+05  5.0594151954023604e+05  4.8623876005001634e+05  6.1783954831819469e+05  7.2523182647478429e+05  7.3997530811369210e+05  7.7584769390521990e+05  7.7096532350550813e+05  6.0750387595014856e+05  6.5297360619877209e+05  3.5541732333937794e+05  7.0572861077368422e+05  4.3423504304784437e+05  7.1058833770418458e+05  7.4588163931691321e+05  7.2973344016842416e+05  3.6238289671557525e+05  3.6447932332341967e+05  4.5094719156233367e+05  5.7755543310625048e+05  6.9028293357760785e+05  8.0134125241070508e+05  8.1644913260027778e+05  5.7777610489896394e+05  7.7466809019676514e+05  7.5283271505750890e+05  5.4729919105230563e+05  6.3494152975871030e+05  3.8373425418594951e+05  4.0279072365654807e+05  4.2659556306963769e+05  6.8279573234326497e+05  6.8137234927960217e+05  7.2696397268611973e+05  6.4999127767272596e+05  5.7004746025603788e+05  7.5419587661912967e+05  7.5256745836268691e+05  6.5510982080209104e+05  4.4782102902872011e+05  7.5492276368129696e+05  5.2047802086360712e+05  7.6424941305516509e+05  6.7005815358200681e+05  4.6115223946387542e+05  7.5933528432670119e+05  7.6701478082939517e+05  6.3087818988714961e+05  4.0198880761734769e+05  6.6237877711241553e+05  6.9550549855141621e+05  6.7137357601593493e+05  3.6774465419239964e+05  3.6968905583703541e+05  3.6919494425057294e+05  3.7155515180678503e+05  3.9733325072621251e+05  5.4080021567164059e+05  7.2449295061356667e+05  6.3708995121687220e+05  4.7007985346050898e+05  6.5506576749000151e+05  6.6239539620210708e+05  7.4336670870358078e+05  6.0900004089403292e+05  7.5731955660411157e+05  7.6328517609404260e+05  7.0222433270128106e+05  5.2084597622029297e+05  7.5039587030847394e+05  3.3827309019800572e+05  5.0596637845901819e+05  7.0280942282901425e+05  7.3443021522720763e+05  4.7986030349855562e+05  6.8206306558677927e+05  3.7903459127880307e+05  5.1043232933770790e+05  8.0900074630116625e+05  8.0641330399976752e+05  6.1069093025367532e+05  3.6984910082152911e+05  3.8094366610749171e+05  3.8000805051338742e+05  5.0488299645478494e+05  4.8730216779858596e+05  5.4838622069249640e+05  3.9436812619178876e+05  4.7226871753090003e+05  3.7047520971710468e+05  3.1957349178128259e+05  3.1521406119225168e+05  3.1569448693539482e+05  3.2165579427991743e+05  3.3822371150030592e+05  7.0110602353140782e+05  4.6668426137814025e+05  7.0354754630308936e+05  5.3009551123811724e+05  6.3035783105056570e+05  8.0518863107842056e+05  8.0687330617620668e+05  7.5651831855984626e+05  5.1779396302920213e+05  4.3626694713422965e+05  6.5073283401479118e+05  5.7427209887382318e+05  5.0162959996709862e+05  6.5676510757562146e+05  3.7915089741254342e+05  7.2276408980063011e+05  3.7201385987960658e+05  3.7762105127530836e+05  3.6954446554078872e+05  5.7253311165656801e+05  5.7734898424851464e+05  5.2040022597950546e+05  4.6909902181308024e+05  8.2635902541979996e+05  7.4875552276477451e+05  5.3924052507396601e+05  5.4162832912113203e+05  3.7213021128828550e+05  4.3174260329178872e+05  6.5504537711691228e+05  7.7390574174514832e+05  7.5057941927825508e+05  5.9800001197087415e+05  7.4464123647171457e+05  7.8981884868538077e+05  4.0471352335641428e+05  4.7837910473643616e+05  3.7422976133197232e+05  4.8366006897518976e+05  7.1788402806396224e+05  4.9676450162433396e+05  6.2562334559690347e+05  5.8035176202945225e+05  4.1612165035688510e+05  3.7119791386501346e+05  6.4114914975096576e+05  7.9014308167349023e+05  5.8252188424048608e+05  6.6081751522722596e+05  3.8094467421389592e+05  6.2788848638905573e+05  4.3577316944987146e+05  3.8805928206274513e+05  3.6632100808830908e+05  4.5637922181561752e+05  3.6369407980721863e+05  4.4392197078993928e+05  4.8673880173603020e+05  4.0930006901425577e+05  6.7736384121945989e+05  7.3773716062942136e+05  3.9706346388682595e+05  8.2295300702208991e+05  8.1185317735377548e+05  3.8346791401047906e+05  5.0758586395392311e+05  6.4633137767121941e+05  6.6472364982726076e+05  7.2891288919364766e+05  4.1776826635188184e+05  4.7544383821266837e+05  5.4981207535668439e+05  4.1651438436805748e+05  6.1894734437427507e+05  3.6088804619495338e+05  3.5952376112360141e+05  3.7789051968615182e+05  7.5476278000551369e+05  5.4197252369364607e+05  3.7285801163073262e+05  3.5659254507994599e+05  3.5624117676444410e+05  4.1834957343856536e+05  6.9729535937142104e+05  7.5105249174820445e+05  4.2633401586496917e+05  7.4114430316609819e+05  4.1462115466858522e+05  5.1918315603704576e+05  5.5232354352970736e+05  3.6428660622540052e+05  3.6356559583429317e+05  5.6959677645767108e+05  4.1657747656986752e+05  6.8711526507260348e+05  7.3689869967948645e+05  7.3315352745434758e+05  7.7078947805290273e+05  7.7079645108434779e+05  6.0035723515761888e+05  4.5026856626347598e+05  4.6295443013518205e+05  7.5964507328901335e+05  4.2501160033760610e+05  4.2702625414765876e+05  7.1623730626412900e+05  5.5613529948851769e+05  8.1216703039722797e+05  7.0911386207299179e+05  7.8600537783600634e+05  4.1216411433911644e+05  7.5631091956812481e+05  7.9964074368293467e+05  3.9894447062936961e+05  7.6899229143296776e+05  8.0125655913226260e+05  4.7141933945088275e+05  5.3503009071946167e+05  7.0090542388573906e+05  4.5812307449269854e+05  5.5308199913899205e+05  8.3181329746391624e+05  7.2460340646423330e+05  4.5593090423114010e+05  5.9739686286657304e+05  6.8063510224833351e+05  4.7036342471925291e+05  6.9351573960923066e+05  7.9702368226567982e+05  7.1850330755040515e+05  6.7368799699070433e+05  6.0925863368578802e+05  7.5582785523578606e+05  6.8132829634965595e+05  3.6913410667930625e+05  3.4073235729430022e+05  2.5320794640863413e+05  3.4510740600842476e+05  2.5555691641144897e+05  4.5263350130228454e+05  4.2027118462916947e+05  6.6795895473314379e+05  5.1517264679249795e+05  5.9925599189996766e+05  4.3429715259376622e+05  6.0421275511257572e+05  3.8415610181641433e+05  6.3459362799835356e+05  7.9209728793479560e+05  7.8434719698863255e+05  6.0618160783624975e+05  7.5897062967134651e+05  5.5457908240481163e+05  5.5582169962662831e+05  7.7072668698768539e+05  7.7029841868952708e+05  5.7778381393305759e+05  7.8991513384478900e+05  7.7049951926531619e+05  7.9591936058580445e+05  7.9268724701966695e+05  7.5308799775929190e+05  6.9443206454393617e+05  7.0375013473250193e+05  3.7040568511818262e+05  7.2427680592418287e+05  7.5073174748509622e+05  7.1574415023117233e+05  4.1135984055636235e+05  4.1753009642107796e+05  5.5257042786306841e+05  5.3370379060134839e+05  7.1091336017946224e+05  5.7648697306307289e+05  7.6235706916153675e+05  8.0718169674129703e+05  5.5429213553599350e+05  7.4552063543713035e+05  6.9496748455567413e+05  8.1508643968342000e+05  7.8967297361721017e+05  7.4007290928191121e+05  5.9545878396206687e+05  6.9391928553519014e+05  6.2662465597475518e+05  5.9345710342849209e+05  4.9193086314433895e+05  6.4627878075741825e+05  5.4980447795369884e+05  5.7739611819414620e+05  </DataArray> 
</PointData> 
</Piece>
</UnstructuredGrid>
</VTKFile>