<?xml version="1.0"?>
<VTKFile type="UnstructuredGrid"  version="0.1"  >
<UnstructuredGrid>
<Piece  NumberOfPoints="1855" NumberOfCells="3532">
<Points>
<DataArray  type="Float64"  NumberOfComponents="3"  format="ascii">0 0 0  30 0 0  30 -10 0  0 -10 0  0.1391574078963744 0 0  0.2856388821882616 0 0  0.4398299073010886 0 0  0.6021362569539473 0 0  0.7729850389704483 0 0  0.9528258543586996 0 0  1.142131984380316 0 0  1.34140159760994 0 0  1.551159074717981 0 0  1.771956417032531 0 0  2.004374674080994 0 0  2.249025475789527 0 0  2.506552636773105 0 0  2.777633857742732 0 0  3.062982518028728 0 0  3.363349525995907 0 0  3.679525322337712 0 0  4.01234195575742 0 0  4.362675247811097 0 0  4.731447135329707 0 0  5.119628065610077 0 0  5.528239565804708 0 0  5.958356943167011 0 0  6.411112081475485 0 0  6.887696441559404 0 0  7.389364184530748 0 0  7.917435485335147 0 0  8.473300005202017 0 0  9.058420557070402 0 0  9.674336929103793 0 0  10.32266995225095 0 0  11.00512576896296 0 0  11.72350030646412 0 0  12.47968402994705 0 0  13.27566689579597 0 0  14.1135435963616 0 0  14.9955190732806 0 0  15.92391430904694 0 0  16.90117245730496 0 0  17.92986524844506 0 0  19.01269976086341 0 0  20.15252556282024 0 0  21.35234220269763 0 0  22.61530708683689 0 0  23.94474379751883 0 0  25.34415086349739 0 0  26.81721093579712 0 0  28.3678004819169 0 0  30 -1.111111111111111 0  30 -2.222222222222222 0  30 -3.333333333333333 0  30 -4.444444444444445 0  30 -5.555555555555555 0  30 -6.666666666666666 0  30 -7.777777777777777 0  30 -8.888888888888889 0  28.36780047917311 -10 0  26.8172109305839 -10 0  25.34415085606858 -10 0  23.94474378810899 -10 0  22.61530707566275 -10 0  21.3523421899591 -10 0  20.15252554870171 -10 0  19.01269974553473 -10 0  17.92986523206254 -10 0  16.90117244001232 -10 0  15.92391429097614 -10 0  14.99551905455266 -10 0  14.11354357708742 -10 0  13.27566687607703 -10 0  12.47968400987599 -10 0  11.72350028612546 -10 0  11.00512574843363 -10 0  10.32266993160086 -10 0  9.674336908396342 -10 0  9.058420536362949 -10 0  8.473299984546333 -10 0  7.917435464777824 -10 0  7.389364164113587 -10 0  6.887696420787165 -10 0  6.411112061446698 -10 0  5.95835692337857 -10 0  5.528239546282652 -10 0  5.119628046377237 -10 0  4.731447115907979 -10 0  4.362675229213632 -10 0  4.012341937260036 -10 0  3.679525304434552 -10 0  3.363349508456405 -10 0  3.062982500861274 -10 0  2.777633840953978 -10 0  2.506552620368097 -10 0  2.249025459771861 -10 0  2.004374658452946 -10 0  1.771956401795187 -10 0  1.551159059871345 -10 0  1.341401583153029 -10 0  1.142131970307521 -10 0  0.9528258406748833 -10 0  0.7729850256685147 -10 0  0.6021362439621285 -10 0  0.4398298947504031 -10 0  0.2856388700059078 -10 0  0.1391573960769001 -10 0  0 -9.855072463768115 0  0 -9.710144927536232 0  0 -9.565217391304348 0  0 -9.420289855072463 0  0 -9.27536231884058 0  0 -9.130434782608695 0  0 -8.985507246376812 0  0 -8.840579710144928 0  0 -8.695652173913043 0  0 -8.55072463768116 0  0 -8.405797101449275 0  0 -8.260869565217391 0  0 -8.115942028985508 0  0 -7.971014492753623 0  0 -7.826086956521739 0  0 -7.681159420289855 0  0 -7.536231884057971 0  0 -7.391304347826087 0  0 -7.246376811594203 0  0 -7.101449275362318 0  0 -6.956521739130435 0  0 -6.811594202898551 0  0 -6.666666666666667 0  0 -6.521739130434783 0  0 -6.376811594202898 0  0 -6.231884057971015 0  0 -6.086956521739131 0  0 -5.942028985507246 0  0 -5.797101449275362 0  0 -5.652173913043478 0  0 -5.507246376811594 0  0 -5.36231884057971 0  0 -5.217391304347826 0  0 -5.072463768115941 0  0 -4.927536231884058 0  0 -4.782608695652174 0  0 -4.637681159420289 0  0 -4.492753623188406 0  0 -4.347826086956522 0  0 -4.202898550724638 0  0 -4.057971014492754 0  0 -3.913043478260869 0  0 -3.768115942028985 0  0 -3.623188405797101 0  0 -3.478260869565217 0  0 -3.333333333333334 0  0 -3.188405797101449 0  0 -3.043478260869565 0  0 -2.898550724637681 0  0 -2.753623188405797 0  0 -2.608695652173912 0  0 -2.463768115942029 0  0 -2.318840579710145 0  0 -2.173913043478261 0  0 -2.028985507246377 0  0 -1.884057971014492 0  0 -1.739130434782609 0  0 -1.594202898550725 0  0 -1.44927536231884 0  0 -1.304347826086957 0  0 -1.159420289855072 0  0 -1.014492753623188 0  0 -0.8695652173913047 0  0 -0.72463768115942 0  0 -0.579710144927537 0  0 -0.4347826086956523 0  0 -0.2898550724637676 0  0 -0.1449275362318829 0  5.15859856094262 -4.976557621770688 0  2.816777084926057 -7.160262673925935 0  2.81677708460006 -2.839737326002783 0  2.227649803257325 -5.003121586636773 0  1.518662968975629 -8.46230852045241 0  1.518662969184829 -1.537691480152612 0  9.960740911025725 -5.055901393541221 0  1.491099662214591 -3.691833922963321 0  1.503675657181264 -6.345020369042368 0  5.319208041801049 -7.493850249937013 0  5.291109955459268 -2.489368743223226 0  1.096914507335763 -2.53623188405797 0  1.096914507253562 -7.463768115942029 0  1.089580194952752 -4.71277167923441 0  15.07565076110197 -5.047572991082069 0  7.501630508673601 -5.937500100385354 0  0.8894869418764504 -5.623930488933245 0  2.955144522453978 -1.440834296472408 0  2.955144521140721 -8.559165705576945 0  8.106603955004623 -2.748811534843258 0  3.662152539483591 -4.228178367024407 0  3.662181528265114 -5.771746159989156 0  0.8436558190317136 -0.8541050638451999 0  0.8436558075840921 -9.145894948342754 0  0.7854168197005933 -1.811594202898552 0  0.7894693398152999 -3.286543351392342 0  0.7854168196772591 -8.188405797101449 0  0.7854168196772591 -6.739130434782609 0  20.00078956016804 -4.999999999785771 0  0.7379120031523989 -3.977302749614766 0  6.584332478112232 -3.934875417052907 0  7.295091310194352 -7.969791332537982 0  9.811174303464586 -7.412814499648229 0  4.013376806449688 -2.206189431585293 0  4.013376806983409 -7.793810569017377 0  12.11177433894592 -2.818343737884045 0  2.591152707837148 -3.990098461753838 0  2.58990939378082 -6.025895074707176 0  25.43156400064585 -5.044446479916348 0  2.03262751726143 -2.282125834846944 0  2.032627517335952 -7.717874165160392 0  12.51865094522923 -6.491408052923457 0  0.598175343983641 -6.156971652625402 0  2.126700074935224 -0.8767654465386991 0  2.126700059112423 -9.123234559633019 0  6.617961838548696 -1.617756429129908 0  0.5903949564549755 -4.980060355019413 0  1.676697585305984 -5.547101897225158 0  4.773518305133987 -3.729331162566817 0  4.77931803486508 -6.231222307502165 0  4.878549698409591 -8.72048903376362 0  4.852580875634024 -1.222215410052823 0  0.5487847095754042 -2.675169258708207 0  0.545113423825768 -7.32369553390529 0  1.78738026998851 -4.400451872599477 0  1.68244194111824 -3.010100184333533 0  1.683984276238402 -7.018293626028473 0  9.998503440677371 -2.00585287985007 0  3.693061162502273 -3.243678395563028 0  3.694987482168253 -6.757603268814477 0  6.081763036485869 -5.83414381546261 0  0.5196640460586313 -1.350633211792632 0  0.5196640458460706 -8.649366789040087 0  3.84593363904758 -0.9906418103762418 0  3.845933620847308 -9.009358200471317 0  17.41551885287501 -3.057748733689079 0  17.30725517812527 -7.002961443761516 0  8.117698464370697 -4.451550942597151 0  0.4918476668493152 -0.4789811193757592 0  0.4918476560347713 -9.521018882514893 0  1.463770869328428 -0.6252343353791154 0  1.463770854281917 -9.374765668872765 0  0.5034132782032188 -4.464280853772128 0  3.138906271796685 -4.99999841599503 0  14.61209972381335 -2.388610981020637 0  6.208601124947327 -8.776231214192325 0  14.74910972998159 -7.542186851303819 0  2.243794246335625 -1.632184311040998 0  2.243794245689214 -8.367815689183566 0  0.4590235278399923 -5.431413993025926 0  0.4971508861448406 -2.209632053221267 0  0.4971508861368665 -7.790367946777407 0  0.4644363683211541 -3.560571347760519 0  6.478811279411406 -7.007392971062433 0  1.238895267772762 -4.173677632458826 0  1.293241773632479 -2.02256720952064 0  1.293241773542714 -7.977432790434841 0  0.4324740478030531 -0.942028985507247 0  0.4324740423701829 -9.057971014492754 0  2.117396640811705 -3.472968170680347 0  2.107095929630507 -6.531506384346077 0  8.087741545730886 -1.392783601483453 0  1.028911946384717 -1.352376108341404 0  1.028911946221715 -8.647623891551962 0  4.05691976296832 -4.991522392209158 0  11.51826881314265 -8.065248940008736 0  1.618560396201739 -4.958056164503666 0  2.701984523487646 -2.141781914603403 0  2.70198452396172 -7.858218085853512 0  2.843615645746219 -9.289121726447632 0  2.843615661334342 -0.7108782798429658 0  8.678774612240533 -8.488146490452822 0  6.487906449371135 -2.667543558824978 0  8.369190916679937 -7.129867754908394 0  11.80978191929258 -4.655775487536958 0  0.3792065166453504 -3.113833531412848 0  0.4134714637263563 -6.58827691137208 0  9.551050695080825 -3.49648183875815 0  1.083867845277057 -6.036251777836495 0  0.3756430921870901 -1.80381664325008 0  0.3756430921689482 -8.196183356748573 0  3.113073783220456 -3.503408140759125 0  3.113391383189963 -6.496678880796299 0  22.62850736315072 -3.277987336300344 0  22.59385352108348 -6.800312122582239 0  0.3777114402537816 -4.137047872695438 0  0.9196816123347897 -0.4281025456111269 0  0.9196815944880363 -9.571897460530383 0  0.4052043328723194 -5.827814332459883 0  8.865857694874787 -5.767686953139113 0  1.200388325130726 -5.182186034620629 0  5.65297436943758 -4.325500846767599 0  1.200079167961391 -3.009849046583253 0  1.20883344838 -7.021823297793294 0  1.057642414577487 -3.660996704809145 0  10.88812987788297 -6.333458225047037 0  4.493502926606794 -2.839780197438185 0  4.485862892033458 -7.147606077919463 0  0.3631651408878085 -7.003529808558233 0  1.946748828463205 -6.049056369468467 0  6.918750162798794 -4.993796052442676 0  3.351203216022585 -1.980935554775394 0  3.351203216441711 -8.019064445907297 0  2.281892243515294 -2.856654416292082 0  2.281892243715877 -7.143345583598931 0  5.811143619672087 -0.9953286820321026 0  2.695713766833098 -4.565354125099452 0  2.698172168139827 -5.435483248292925 0  19.86166219288896 -2.493475492328429 0  19.83739102036415 -7.594404063416508
[...]
<PointData  Scalars=" mean stress"> 
<DataArray  type="Float64"  Name=" mean stress"  format="ascii">1.2194874766820193e-01  1.8226830695361957e+02  3.2657938985783835e+03  2.1401105445783591e+02  1.1725204244371534e-01  1.3766557785769001e-01  1.7502727739288143e-01  2.5575368255283976e-01  3.5184439133597245e-01  4.7604828672590560e-01  6.7338618419142238e-01  8.1132202005897791e-01  1.0834334224442093e+00  1.4157992032668318e+00  1.7437311218058600e+00  2.0788137746550235e+00  2.7254757156872675e+00  3.0615623073891785e+00  3.9137542593492682e+00  4.5755637862653789e+00  5.3697656798975029e+00  6.6452131960540672e+00  7.4014332149423403e+00  8.6573575039004780e+00  1.0407634413107230e+01  1.2374423763135761e+01  1.4156096255858831e+01  1.6100554814775684e+01  1.8706845105105508e+01  2.1376996524073430e+01  2.6574696066209825e+01  3.1615770652517536e+01  3.6658747170460238e+01  4.0832832980837907e+01  5.2276528097424269e+01  6.3166987739051294e+01  7.2258359319984748e+01  9.0488750360425627e+01  9.7101335525167045e+01  1.1414054568908284e+02  1.2964172989494412e+02  1.3822883697775833e+02  1.4808252082809173e+02  1.5779826034280993e+02  1.5992840544342369e+02  1.5952196017308589e+02  1.6507564945525445e+02  1.7154394145198575e+02  1.7348513360064115e+02  1.6501972624544754e+02  1.6872439503733756e+02  1.7119649791356304e+02  1.6588677764039724e+02  1.7570074233232515e+02  1.8728276893611638e+02  2.1896576646376289e+02  2.4617097219691189e+02  3.2586757581726664e+02  4.6319871849309158e+02  7.9634988283931386e+02  9.4796267498139900e+02  5.7610158617694094e+02  3.9320231913605062e+02  2.7567155542993117e+02  2.1755322977956871e+02  1.7922720857310546e+02  1.4727992693431463e+02  1.3159867792558819e+02  1.1282657959845879e+02  1.0375682545187082e+02  9.3632515120426874e+01  9.0028734269548522e+01  8.8066301340161488e+01  8.8457363050576987e+01  9.0542885372907264e+01  9.9963669190677450e+01  1.1309674684025754e+02  1.5221358069345825e+02  2.5364713887012832e+02  4.5747832129969066e+02  3.2700036027333414e+02  1.4093201316531727e+02  9.5977416622456985e+01  7.2434038612681192e+01  5.7443868295721622e+01  4.7731072013629777e+01  4.0218711739694356e+01  3.6410827284342290e+01  3.3436456836293011e+01  3.1384963063107929e+01  2.9054039399008385e+01  2.8924505730279567e+01  2.8561341856989952e+01  2.8915778347329621e+01  3.0400801569391014e+01  3.0865676020172710e+01  3.3419175971275017e+01  3.4926416111568329e+01  3.7284013758883901e+01  4.2657993831275604e+01  4.6998745927357056e+01  5.3430782100774195e+01  6.3125444713640796e+01  7.2650117133239988e+01  9.1629617912997233e+01  1.2467452684777464e+02  1.5410729479155171e+02  2.2359878419537208e+02  1.2027632530345537e+02  7.7077065010295883e+01  6.1279841075003752e+01  4.9455976214588325e+01  4.2456392019006444e+01  3.7266647256787110e+01  3.3341873091759751e+01  3.0869847047833421e+01  2.8312188890474161e+01  2.6691866689756456e+01  2.4879546096645807e+01  2.3588896614100310e+01  2.2379236166396506e+01  2.1435457845367836e+01  2.0377440162704769e+01  1.9603256446723009e+01  1.8833049132685140e+01  1.8055951371293030e+01  1.7347386683773610e+01  1.6714906419187528e+01  1.6126890050102308e+01  1.5550597361153132e+01  1.4967649158242438e+01  1.4427340204070164e+01  1.3890409251566725e+01  1.3422693927168112e+01  1.2862655385111642e+01  1.2375623707641900e+01  1.1873242608664158e+01  1.1424647924107248e+01  1.0924151571620660e+01  1.0466105767620798e+01  9.9862443024073855e+00  9.5372663162197817e+00  9.0653386628725592e+00  8.6441597984192065e+00  8.2078563941064324e+00  7.7749196065831914e+00  7.3561074349439313e+00  6.9493596464550755e+00  6.5257153866051087e+00  6.1354603156792429e+00  5.7530665615497067e+00  5.3497406092787809e+00  4.9742647736493577e+00  4.6440331189691282e+00  4.2729177678328476e+00  3.9595369829237317e+00  3.6278326440029582e+00  3.2986206792829136e+00  3.0281861739481846e+00  2.7383282128561381e+00  2.4778437508296558e+00  2.1818411556841029e+00  1.9637652119169162e+00  1.7233240353484058e+00  1.5192106595171921e+00  1.3042195833210550e+00  1.1219168307022758e+00  9.4127890693752325e-01  7.9915510013768065e-01  6.4588503564928113e-01  5.0788628871603991e-01  4.1122248633237712e-01  3.1585211920534073e-01  1.7602799967841964e-01  2.9229724100163013e-01  1.1358386612378163e-01  2.0210818342625966e+01  3.2608394440858163e+01  7.1394398472440521e+00  1.4399369459196278e+01  2.9890219037396445e+01  2.1571640146288225e+00  3.9602711105585939e+01  7.0678141950347069e+00  1.7023658376523745e+01  3.9568107666772576e+01  1.2127702845971301e+01  3.5026802255077265e+00  2.0430738473942824e+01  9.5100030879065613e+00  1.0327994871094148e+02  2.8859159899090912e+01  1.2184414973474844e+01  4.4394575547946742e+00  4.1411022655371717e+01  2.3707942995405155e+01  1.4507913723956197e+01  2.5812511406073959e+01  7.9944957280190665e-01  3.7735596137814206e+01  1.8975356146271918e+00  4.8747241449334364e+00  2.4155340667037617e+01  1.6182188001866390e+01  1.5138123051951200e+02  6.6875480934218672e+00  1.9332946032351973e+01  4.4819239196634960e+01  5.4038057934716051e+01  8.1434230920203952e+00  4.6652851751357730e+01  5.8419526679819924e+01  1.0912137290795759e+01  2.2255273280230909e+01  2.0727185374601046e+02  4.2475940999505637e+00  2.7844232757125550e+01  7.7442992723571990e+01  1.3596590473564889e+01  2.2482330535619592e+00  3.8375076158972661e+01  1.5892522436673582e+01  9.5696138894358089e+00  1.4459695799710476e+01  1.4120161139885209e+01  2.9697572971810423e+01  4.6791188730560215e+01  9.0976949577772466e+00  3.3379247939110237e+00  1.8168966308370972e+01  1.0212679311783354e+01  5.4600743767337780e+00  2.1129423021805483e+01  3.6671922747370701e+01  1.0248045980996537e+01  3.6501266093744007e+01  2.5584014086045446e+01  1.1399711121427691e+00  2.8194276260828474e+01  5.8283991923772902e+00  4.2066284135782993e+01  1.2227358824243861e+02  1.2997762884194958e+02  2.6250440208132591e+01  3.5222963097417859e-01  5.4004669606168910e+01  1.1548301525662736e+00  4.1928400831319053e+01  7.8630655685205575e+00  1.8251004340309834e+01  9.1897017037246712e+01  5.3021256642950554e+01  1.0793100706559591e+02  3.4277300427629838e+00  3.4510382129545739e+01  1.0883738920820004e+01  2.4058717442945983e+00  2.0619129346169117e+01  5.3531150916583821e+00  3.3795532682191379e+01  8.1033172280719672e+00  2.7016742093440103e+00  2.4518842464538409e+01  6.4945818851358816e-01  3.5538266020482084e+01  7.6676049286029864e+00  2.1620693081428367e+01  2.3477115717024859e+01  1.4669514771782528e+00  2.9653405618532940e+01  1.9690792551978799e+01  8.3409095714762373e+01  1.1799897836407599e+01  5.0956950080330303e+00  3.5677065433766032e+01  3.7442777479134470e+01  3.3906285697454908e+00  6.4459775601591673e+01  1.6280787702058898e+01  4.0348427470656752e+01  5.7788626835138238e+01  4.2073799182860361e+00  1.4880052473304504e+01  3.3067820092726365e+01  1.4237284696863869e+01  1.6756040925048221e+00  2.3323977299871771e+01  1.0073400480147649e+01  2.9801890267015509e+01  1.5929424907881420e+02  2.0042690440287453e+02  6.9257519888657528e+00  5.5341637268620469e-01  5.1622628482621380e+01  1.2198803959399404e+01  3.4174876585679790e+01  1.1380004957016219e+01  1.7949736955853300e+01  4.7465887711480059e+00  1.8698090957862657e+01  6.2095239585439197e+00  5.4676672366489804e+01  1.0707584866297729e+01  3.9949336334457108e+01  1.6537022706933492e+01  1.8050070037498056e+01  2.3206805483050278e+01  6.1415596173599232e+00  4.4542682509788165e+01  6.1683875556166052e+00  2.6136975346727009e+01  1.2455858478397914e+01  1.3948966287791169e+01  1.8926282258467602e+01  1.4153476430227479e+02  1.5663868297815256e+02  1.4729152701360585e+01  7.8959457594148148e+01  1.7409972808709608e+02  3.2745607845876305e+02  3.4600376002736496e+01  1.4906127299327490e+00  3.7168086136331850e+00  2.3394107597124144e+01  5.1191115475507026e+01  2.6337802996976523e+00  2.1655752395576005e+01  3.1848017674118708e+01  2.5186865449872155e+01  7.7898484178660574e+00  4.1808918068717496e+01  7.5520192657488451e+01  1.6220130890264432e+01  9.7714576898907282e+01  3.1079832095077644e+00  2.8088673578921977e+01  1.5914351698517105e+01  8.7825973296565270e+00  6.5201021341990753e+01  1.5343507811403307e+00  4.0344243506191560e+01  1.6739798112329204e+01  8.8259059546183806e+01  8.6609119850325271e+00  7.9478619535461155e+00  4.1872982698381968e+01  1.2453723653808983e+02  9.5019189658743670e+00  4.6756319026309733e+01  1.3720963402244257e+01  1.3677442114939401e+01  9.8360289664762863e+00  4.1318067028022881e+01  7.5508062764045869e+00  4.5701924303345571e+01  1.1714513816248349e+01  2.2512067875611761e+00  3.6906248986536092e+01  2.1423189976958201e+00  3.4859501606537954e+01  1.9434117615894607e+01  4.7463700286995540e+01  7.3777239718326451e+00  3.1618269523730831e+01  6.0680503497432472e+00  4.0995678228878161e+00  1.7676610332934658e+01  2.0187864548696581e+01  4.4725217713345016e+00  3.5909925909741851e+01  2.8067355914794163e+00  1.8922677677290789e+01  2.1364262509276347e+01  2.4695347103278106e+01  3.6071841454039952e+00  2.4086334205910923e-01  7.2033170106610342e+01  2.6630970664299468e+01  8.2117597256707562e+00  1.2751652921794056e+01  2.4713525075855369e+01  4.8244856153461669e+01  2.2209190290780154e+02  1.1020708079862355e+02  1.1322936199521422e+01  3.4554778546681028e+01  3.7774902871203388e+01  3.1746823616504685e+00  3.0185439260152311e+01  4.5901683389185258e+01  1.3316596686934718e+01  1.9925559711593339e+00  2.6236053441799857e+01  1.0696483480013711e+01  1.8056502556274484e+01  1.1510680026445574e+02  1.2705013634091783e+01  5.7446392979985132e+00  8.9198310982455062e+00  1.8193476227160840e+01  5.4797530392874085e+00  4.4475434540541777e+01  9.5763743167503989e+01  1.6050405094323386e+02  2.7353944750826793e+02  3.2536222142610363e+01  9.0074686916772340e-01  1.0113320180139473e+01  1.2581657200925023e+00  8.9846030040295233e-01  2.9542902190055901e+01  2.5665612651121954e+01  1.0663485683503093e+02  9.4151566639252504e+00  4.1860047246566623e-01  4.3214709884879746e+01  2.7046139605922725e+01  1.7529082407018866e+01  9.7042688539151793e+00  7.6804821652308837e+00  4.5158987801217279e+01  6.6177863754822113e+00  4.9292013110416740e+01  7.6257398828179523e-01  1.4716502570141015e+01  1.1728522361858873e+02  1.5569715787954628e+01  5.9405433094722300e+00  3.1913199797902507e+01  7.7511184250789427e+01  1.3879556181561059e+01  3.7599178184240967e-01  6.4188131684170827e+01  2.8908908002459892e+01  2.7405442050439529e+01  4.7309917556982795e+00  2.9076026184295212e+00  1.9720802124870328e+01  2.0655287037270358e+00  2.1100614122541433e+01  8.5076245921756861e+00  1.6945995211874990e+01  4.3614007323142712e+00  2.0777344912561226e+01  8.3766318755565605e-01  4.2590657174586084e+01  4.5645411792828696e+01  2.1367899283567528e+01  1.7386319348849220e+01  1.2838233620480107e+01  1.2170572516159352e+01  1.5065062212964577e+00  2.6700575932969116e+01  1.1324095379981220e+01  9.0066889922803014e+01  3.8654710173622533e+01  1.6309772683345405e+00  2.1980497221498588e+01  5.3631869278031372e+00  3.0000801975663578e+01  4.3470720864878887e+00  4.0354030874388954e+01  1.6529034422491542e+01  3.9905705423902553e+01  4.9213883435829757e+00  2.3950382087188970e+01  1.2693876588015092e+02  1.3509869745497119e+02  1.3726044175108992e+01  2.8645844565128353e+01  1.4587087366421033e+01  1.9330720763675540e+01  1.6978575445353869e+02  4.2141685883006970e+00  3.2203351720443727e+01  6.9522697928264368e+00  8.5362649192221909e+00  3.6033718529159884e+01  3.0678921073617154e+01  4.2579732263520524e+00  3.7435100653884959e+01  9.2217310182933367e+00  4.2512015334099850e+01  1.3991868071174395e+02  1.3005766713739746e+01  2.7507977960163998e+00  3.1605775741773545e+01  7.5369321769182051e+01  1.1867667249734861e+01  5.9841985705933021e-01  4.0846109958651553e+01  6.4314348237457581e+00  3.8357778076515039e+01  2.0175028344705773e+01  3.4737603791562798e+01  4.6542314894050548e+01  3.4290589456031142e+01  1.1294838952681241e+00  1.0728533844579216e+00  4.3798089608418302e+01  5.6980091469833480e+00  3.5662278504265224e+01  6.3850573502355189e+01  1.5453199093936982e+01  1.0234829445469163e+02  7.3217880628187482e+00  1.0191406922204550e+02  1.3579227216379550e+02  5.0237644453131473e+01  1.2577548514558819e+01  9.0249158922141987e+01  3.9679520065564895e+00  6.5098994221216671e+01  6.4512754032664112e+00  2.2473420869727057e+01  1.4549610686338267e+01  4.7055305199762046e+01  6.8356154198404564e+00  1.1530652669192975e+01  3.5875699809389857e+01  4.8166788677628915e+01  2.1342568322659208e+01  1.5433876496566029e+01  3.5788952579950006e+01  2.3335533555763504e+00  2.3782898812216288e+01  2.0065489875053033e+00  2.2450206657976199e+01  1.0709790158463427e+01  3.3470339943979425e+01  1.1728043510398132e+01  9.8061902487134958e+01  5.9523066442056360e-01  3.5166075846988456e+01  1.4860784584778639e+00  2.5136655459862173e+01  4.8145453754942809e+00  1.0475170060635127e+01  3.4586114248465889e+00  1.8837965368779273e+01  1.6728234092166723e+01  1.8807215927033232e+02  1.4517694228454542e+02  1.6985458779064111e+01  4.9314587757685281e+01  2.8411160108957453e+01  5.3341703573917503e+00  4.2950597047232620e+01  2.3490212684776505e+01  9.4365348543377507e+01  1.9499094805246305e+01  1.6616887610383014e+01  6.1496609611144404e+00  2.9086743049828452e+00  2.2783487805005038e+01  1.8742269221004697e+01  9.1108311318015769e+00  1.0985113779279550e+02  8.7192453104569552e+00  3.5988057050309038e+01  2.8049097307698525e+00  2.0996497264750960e+01  3.9229949768842829e+01  8.5806500963971516e+01  5.4050059453158807e+00  2.2158351553618076e+01  9.1153985562422335e+00  9.5718133165505279e+01  2.8015578854895096e+00  3.8756851046994747e+01  1.6894759327714607e+02  1.4879036643950474e+02  7.3248957777972414e+00  2.5694667166446397e+01  4.0124261002863925e+01  1.6468863408495494e+02  6.1820536404207508e+02  2.3565500620027436e+01  7.5930426371782032e+00  6.4533268004215202e+01  3.6876861647328205e+00  3.4468639305035758e+01  1.2272124999637185e+01  4.1221154906078246e+00  3.8746855702020987e+01  3.7625075581330577e+01  1.0243041159528445e+01  1.4430671768163196e+01  3.0508450271814588e+01  1.7143184306944239e+00  5.8664312907144897e+01  6.3819435839839940e+01  2.2742955665464056e+01  6.9898097193920009e+01  1.9246218081807424e+01  9.9046625176442102e+00  2.6670184921769042e+01  2.5829276219986861e+00  2.7371302605227743e+01  3.9985881291830417e+01  5.2355430637381986e+00  2.8819271546748052e+01  1.5326870401138546e+01  1.3575186464105123e+01  9.5989868141231156e+00  4.4644910360885397e+01  1.4817918345380696e+02  2.5034373893279937e+02  6.5650772248364362e+01  3.0830409661959828e+00  2.5683744773637169e+01  5.0604156346163043e-01  4.8482654843535300e+01  1.6430876155269157e+01  1.6287070256856495e+00  2.3029145855751928e+01  5.3196369105182724e+00  1.2958608509884277e+01  7.2337965480885913e+00  4.4507501177236989e+01  2.6982059734801059e+01  2.5411856475607082e+00  1.9570595547708052e+01  3.6525919628717523e+00  3.9884838090894505e+01  3.3579668164327792e+01  2.8315394740356368e+00  8.9562378596534564e-01  3.0943971850326662e+01  1.8150468100642279e+01  2.8503832461244112e+01  1.4179872318454382e+01  3.2975885345864291e+00  2.5161670058368834e+01  1.6136120725423865e+01  2.4182396445453666e+01  2.5357513988831476e-01  7.6962115360890621e+01  2.6860186642239081e-01  5.7310215496063364e+01  8.1562508403534615e+00  1.0662277575530926e+01  1.6132571397456019e+01  2.1778963880045719e+01  6.3641907822454034e+00  3.9850420835327705e+00  1.9072589941250129e+01  1.3903198738255758e+01  1.2093850388224226e+01  1.5794638750275917e+01  1.6001518161316458e+01  1.5281587812654077e+01  4.5972722866417808e+00  7.0659415902873288e+00  7.5229090202846805e+01  1.6796635811050788e+01  1.6917814304234334e+01  1.1319773151364169e+01  1.9138715150527248e+00  3.5110599468017867e+01  5.1705953486629220e+01  4.9324060822878735e+01  2.5307599997137515e+01  7.0841524390947894e+00  3.1477771743339925e+01  1.7333496826919426e+02  8.7071676348604434e+00  1.1099406477266131e+01  1.8647515164861808e+01  5.5808474256568208e-01  5.5117008819789177e+01  4.5828817957322009e+01  7.5073750114366646e+00  4.5461584129758769e+01  2.2869646723095300e+01  6.1492903716360502e+01  3.6044185743500594e+00  3.0737269181342423e+01  1.5601248114453666e+01  1.9924379152685955e+01  7.0819108024094831e+01  3.9017070704713447e+01  1.1727559722645098e+00  1.0658435208561110e+02  4.2926346356688349e+01  5.1468947607033977e+00  1.9983186633802217e+02  2.8071341444318318e+02  1.2891574097452972e+01  8.8902534097800810e+01  1.2464460616342809e+02  1.0089698093476876e+01  1.4283837477236748e+01  2.1768371022410881e+02  5.0108766099810843e+01  4.5894177995132104e+01  1.0497267176930960e+01  1.2459344892710741e+01  8.3992386435766768e+00  1.9639863275274459e+02  2.5249464302430755e+02  8.1719550252968798e+00  3.1296713792665511e+01  5.1584336155595736e+00  1.4812530124690099e+02  2.8358877865742180e+01  1.1164922883471059e+01  2.4412565119637961e+01  1.1343996575115950e+01  4.1111857784191663e+01  1.0808785093192717e+00  2.7462238421896799e+01  1.1695384070217806e+01  5.1344338471634252e+00  2.6775385390058958e+01  4.5698621824791815e+01  6.5426909686810237e+00  2.9594437391961989e+01  1.2581085917964925e+00  1.9127566338773150e+00  3.3195386763802716e+01  1.3356057219809866e+01  1.9379688008917402e+01  9.6991929777119424e+01  1.5909443351686342e-01  3.0803877488808733e+00  2.0489602856130666e+01  1.7233207879758659e+01  8.5990011248413758e+00  1.8227718403570275e+01  4.0391566887140854e+01  1.6310852423811701e+02  3.9578329237963339e+02  1.3982543594284232e+02  1.4719291177372043e+02  4.3097539822610464e+01  1.0147360258177127e+01  3.3705231535989675e+01  1.1545549692108588e+02  9.9618651498526134e+01  3.8903062418024369e+01  4.7013718840223369e+01  6.9396559393276214e-01  4.3097310975554258e+01  1.3421322725946729e+02  3.5156828846158321e+00  2.2144218893966045e+01  6.8043152798052429e+00  2.8147784678785651e+01  2.3638207965061042e+00  2.1588372676503230e+01  6.1126846223971292e+00  3.3676819224362674e+01  7.3977160650444906e+00  4.7828467639745710e+01  8.4903070982105682e+00  1.3717803108231641e+01  2.9863922118836612e+01  8.8533769080413833e+00  5.2341170035760798e-01  4.1162683287495973e+01  1.1214136788586904e+01  6.4119083633663090e+00  2.5821019651836401e+01  1.5263118753263646e+01  1.8410868830351347e+01  4.2558668727776601e+00  7.3106820303601348e+00  3.2644253010342680e+01  1.1429972121700440e+02  4.8550795487312257e+01  9.1966908915660621e+00  2.1089850402191219e+00  3.8756302683938571e+01  2.7147439600624148e+00  1.9702903851822807e+01  9.2444896530247949e+00  1.2846180316258330e+01  2.2044808397166438e+01  1.1757221415167058e+02  9.8313725202204267e+01  3.8456546867366916e+00  2.5736366337245169e+01  1.7113939643745208e+01  1.1359605795649982e+01  4.2181234017976671e+01  2.1043900405769271e+01  6.5808443423200078e+00  2.0347162911788939e+00  2.1727523868878528e+01  8.3891837157784952e+00  9.3791076280406799e+01  3.4967918146325182e+01  6.6124544406048278e+00  1.2843142444977172e+01  3.8260125163011685e+00  3.5412785713423375e+01  7.7767498266782675e-01  1.0748767136816305e+02  8.7093321413964127e+00  3.3471294299546095e+01  3.5316974117467950e+01  1.0477338407764689e+00  3.3482707648631191e+01  6.4594311735133623e+00  8.2197757753497154e+00  2.0073407653043297e+01  5.4446484011875981e+01  1.5383894603622947e+01  1.0447283635038740e+01  1.7582925174057857e+00  2.5934368442195503e+01  2.3403267341541039e+01  8.6988920637736946e+00  1.5351895682875335e+02  1.0583767097905599e+02  1.3194794307969882e+01  1.2952111328232584e+02  1.9594779170629511e+01  5.1332110795803558e+00  4.0077761023542934e+01  7.4828721722359659e-01  3.2132038429149567e+01  5.6918109658608174e+01  7.3234957283699664e+00  3.6636672387580631e+01  4.9601487592177934e-01  3.9541116452805007e+01  1.2013255796433620e+02  1.5