<?xml version="1.0"?>
<VTKFile type="UnstructuredGrid"  version="0.1"  >
<UnstructuredGrid>
<Piece  NumberOfPoints="1121" NumberOfCells="2112">
<Points>
<DataArray  type="Float64"  NumberOfComponents="3"  format="ascii">0 0 0  0.5 0 0  0.5 -0.22 0  0 -0.22 0  0.0125 0 0  0.025 0 0  0.03750000000000001 0 0  0.05 0 0  0.0625 0 0  0.07500000000000001 0 0  0.08750000000000001 0 0  0.1 0 0  0.1125 0 0  0.125 0 0  0.1375 0 0  0.15 0 0  0.1625 0 0  0.175 0 0  0.1875 0 0  0.2 0 0  0.2125 0 0  0.225 0 0  0.2375 0 0  0.25 0 0  0.2625 0 0  0.275 0 0  0.2875 0 0  0.3 0 0  0.3124999999999999 0 0  0.325 0 0  0.3375 0 0  0.35 0 0  0.3625 0 0  0.375 0 0  0.3875 0 0  0.4 0 0  0.4125 0 0  0.425 0 0  0.4375 0 0  0.45 0 0  0.4625 0 0  0.475 0 0  0.4875 0 0  0.5 -0.00916666666666667 0  0.5 -0.01833333333333334 0  0.5 -0.02750000000000001 0  0.5 -0.03666666666666668 0  0.5 -0.04583333333333335 0  0.5 -0.05500000000000002 0  0.5 -0.06416666666666669 0  0.5 -0.07333333333333336 0  0.5 -0.08250000000000002 0  0.5 -0.09166666666666669 0  0.5 -0.1008333333333334 0  0.5 -0.11 0  0.5 -0.1191666666666667 0  0.5 -0.1283333333333334 0  0.5 -0.1375 0  0.5 -0.1466666666666667 0  0.5 -0.1558333333333333 0  0.5 -0.165 0  0.5 -0.1741666666666667 0  0.5 -0.1833333333333333 0  0.5 -0.1925 0  0.5 -0.2016666666666667 0  0.5 -0.2108333333333333 0  0.4875 -0.22 0  0.475 -0.22 0  0.4625 -0.22 0  0.45 -0.22 0  0.4375 -0.22 0  0.425 -0.22 0  0.4125 -0.22 0  0.4 -0.22 0  0.3875 -0.22 0  0.375 -0.22 0  0.3625 -0.22 0  0.35 -0.22 0  0.3375 -0.22 0  0.325 -0.22 0  0.3125 -0.22 0  0.3 -0.22 0  0.2875 -0.22 0  0.275 -0.22 0  0.2625 -0.22 0  0.25 -0.22 0  0.2375 -0.22 0  0.225 -0.22 0  0.2125 -0.22 0  0.2 -0.22 0  0.1875000000000001 -0.22 0  0.175 -0.22 0  0.1625 -0.22 0  0.15 -0.22 0  0.1375 -0.22 0  0.125 -0.22 0  0.1125 -0.22 0  0.09999999999999998 -0.22 0  0.08749999999999997 -0.22 0  0.07499999999999996 -0.22 0  0.0625 -0.22 0  0.04999999999999999 -0.22 0  0.03750000000000003 -0.22 0  0.02500000000000002 -0.22 0  0.01250000000000001 -0.22 0  0 -0.2108333333333333 0  0 -0.2016666666666667 0  0 -0.1925 0  0 -0.1833333333333333 0  0 -0.1741666666666666 0  0 -0.165 0  0 -0.1558333333333333 0  0 -0.1466666666666666 0  0 -0.1375 0  0 -0.1283333333333333 0  0 -0.1191666666666666 0  0 -0.11 0  0 -0.1008333333333333 0  0 -0.09166666666666665 0  0 -0.08249999999999999 0  0 -0.07333333333333333 0  0 -0.06416666666666668 0  0 -0.05499999999999999 0  0 -0.04583333333333331 0  0 -0.03666666666666665 0  0 -0.0275 0  0 -0.01833333333333334 0  0 -0.009166666666666684 0  0.1054583333333335 -0.1054166666666667 0  0.3942676334017064 -0.1137728325038039 0  0.2847879184121186 -0.1095588156798053 0  0.1945032948335413 -0.1282408799476467 0  0.06153506715537374 -0.1512727221728088 0  0.4399056412223469 -0.06797859302281792 0  0.05788181883779472 -0.06001948808334377 0  0.4421098014386607 -0.1599837267347342 0  0.3413511741034609 -0.06957267157055583 0  0.2288650014326337 -0.07000139022125416 0  0.3374198095657364 -0.153292781564552 0  0.1625149941501948 -0.06635759941053934 0  0.1410798075665959 -0.1547982873744018 0  0.2480541718311375 -0.1584999930406966 0  0.4521112869309225 -0.1144576824167908 0  0.04769384748510372 -0.1054790589784799 0  0.2872553124970689 -0.0549183148201307 0  0.3883603170589741 -0.1667590078701163 0  0.1113816725357426 -0.05349980002187416 0  0.388663619148569 -0.05083099728992514 0  0.2924675002385118 -0.1733355444551434 0  0.03957129721715399 -0.1820306497250263 0  0.463886478278041 -0.04123097885421483 0  0.1819898664669143 -0.1745112248447572 0  0.1501955722423063 -0.1126410264576243 0  0.2381168692527681 -0.1138631020717532 0  0.09896708868237117 -0.1743617443889283 0  0.351521105495953 -0.110482033201648 0  0.1944214316144394 -0.04364751139729321 0  0.4676096572335854 -0.17875 0  0.0323903427664145 -0.04125 0  0.03139627442974444 -0.07791666666666666 0  0.4686037255702555 -0.1420833333333333 0  0.03146427625974824 -0.1353922207127977 0  0.4687538427589449 -0.08499498352404596 0  0.1945393885069078 -0.08884182758867265 0  0.2525813348104176 -0.03744007417230172 0  0.3217010222371471 -0.03764154129720884 0  0.4222469886470394 -0.03586904090069724 0  0.09663319060065351 -0.1401271138728219 0  0.2193792666828137 -0.183158231426584 0  0.3560154827479793 -0.1838943099753877 0  0.1434582748922029 -0.03603411582704523 0  0.3765333185963097 -0.08241017292348579 0  0.07538111331820632 -0.08899587837746269 0  0.423855991190923 -0.1306886077643884 0  0.3185210010305527 -0.09753607818954631 0  0.3569762884570115 -0.03650734503769727 0  0.4254213410091923 -0.0987078979590463 0  0.2610082403268991 -0.0817800662321487 0  0.0828105113527246 -0.0341734786714956 0  0.4171399376253134 -0.185803221952863 0  0.3057870365127394 -0.1382026892003179 0  0.12895829204953 -0.08335230948371621 0  0.06875298785225953 -0.187362820013113 0  0.3717868049890677 -0.1386048615715364 0  0.321448533906611 -0.1855116827647124 0  0.26298072168791 -0.1839420817131204 0  0.07484000163200957 -0.1198633334100699 0  0.1547686158654376 -0.1863750548878711 0  0.216059367308573 -0.1515159536473182 0  0.2699691944498949 -0.1417527519042215 0  0.1656185503016955 -0.1403556565429203 0  0.4083071195762781 -0.07378364169239227 0  0.1267131755037155 -0.1278660972450704 0  0.4735015828166597 -0.0640900788079139 0  0.02554956908977171 -0.1556408100003981 0  0.4768150825846236 -0.1145833333333333 0  0.02318491741537634 -0.1054166666666667 0  0.223953700752457 -0.0304451531933032 0  0.1244872804067221 -0.1907232817427361 0  0.4438735214118281 -0.1930008132865749 0  0.05574102313663398 -0.02865323925202035 0  0.4137204188713657 -0.1553454939163003 0  0.08893893095617791 -0.06579816339826482 0  0.1717694871603352 -0.02800139159048265 0  0.3128492556460914 -0.06943040619515532 0  0.2797695783739821 -0.02590934499649085 0  0.02258333333333329 -0.1970833333333333 0  0.4762493762769904 -0.02160603458451191 0  0.4793770768812318 -0.1979934752448725 0  0.02062142143957255 -0.02200567641944876 0  0.1164030865048185 -0.02740272745133866 0  0.3830675041448486 -0.1925667518381948 0  0.4791226873505327 -0.1610342148373401 0  0.02087731264946724 -0.05896578516265992 0  0.3274724693986852 -0.1225305077389053 0  0.3972801610854721 -0.02625449066011495 0  0.2900140160514686 -0.08365001034985962 0  0.1709547781797311 -0.09465470820062212 0  0.2138438311308281 -0.1099941211103435 0  0.4450205721789285 -0.02492933314930469 0  0.05420467580227878 -0.08349945672846135 0  0.4461329107542346 -0.1367113815538408 0  0.3659666316461785 -0.05978339436610505 0  0.44602790301578 -0.09307279226297782 0  0.1051970245947556 -0.08027435556391044 0  0.05333928713341426 -0.1272409570081178 0  0.3959065276465774 -0.1392957050603055 0  0.1954280839215327 -0.1956301054107469 0  0.1114114251973984 -0.1581699686077357 0  0.1861203385256373 -0.06601416834570389 0  0.2411653975579025 -0.1955923650394697 0  0.3655092946697883 -0.1617364087021952 0  0.135090011654307 -0.05852644219278214 0  0.301466572149827 -0.195730962509487 0  0.3171403096460815 -0.1628017925003279 0  0.2583110626374412 -0.1046341192205865 0  0.4408293443687437 -0.04585722764353674 0  0.2712011044137034 -0.1640374945295207 0  0.2411933721253841 -0.08983355018053346 0  0.2501709838730871 -0.1314559421109842 0  0.4829353992284747 -0.03936718280336758 0  0.01826814268142685 -0.17875 0  0.08176459786747367 -0.1581134879103219 0  0.09090727073593149 -0.1966179220907174 0  0.1938567422944586 -0.1528508759815354 0  0.1733129361306733 -0.1172649579021292 0  0.1296640686621583 -0.1060858859555111 0  0.05006156132458137 -0.1998033571646454 0  0.162505650870633 -0.1635353305739766 0  0.30277270753554 -0.02336446206680166 0  0.04392010531002208 -0.1476919574928456 0  0.4570380569409145 -0.07105832940298668 0  0.2509935571465481 -0.06292905082461901 0  0.3948833058972995 -0.09019561948060845 0  0.4598195232581849 -0.1577532743262658 0  0.04018055885339097 -0.06224663359087233 0  0.1730418602576066 -0.1983511585214162 0  0.354008461825654 -0.08842076759065362 0  0.373211974938222 -0.1031515537153039 0  0.3385725936424656 -0.02355841481827918 0  0.05693481862827446 -0.1711111761535942 0  0.2226017506701603 -0.1306213423698554 0  0.4834446118625366 -0.09366667033152501 0  0.01655538813746335 -0.126333329668475 0  0.4825096030146118 -0.1326572162395438 0  0.01749039698538812 -0.08734278376045618 0  0.3772923679603625 -0.01999366789017346 0  0.01651090378487999 -0.1420833333333333 0  0.48348909621512 -0.07791666666666669 0  0.2083850969976113 -0.06098599897318754 0  0.3496303726904554 -0.1333395240176083 0  0.3051888980043784 -0.1167126520442686 0  0.2175622493287656 -0.08816391583608728 0  0.421331648509181 -0.05567865783938017 0  0.2036856364456695 -0.0217459550834085 0  0.3419325538888507 -0.04719577702332296 0  0.3412491916251918 -0.1996737604301947 0  0.4838834006315611 -0.1786454571355643 0  0.01611659936843887 -0.0413545428644357 0  0.172916357627664 -0.04916537131395513 0  0.4024134926805814 -0.2009331510593763 0  0.2424815730009992 -0.02045273553971888 0  0.1462759520833398 -0.1337233768065287 0  0.2346404539413744 -0.0484884977905098 0  0.09697638824467633 -0.01835062747588986 0  0.3376316573341132 -0.1736137832302001 0  0.1473441332611047 -0.09306137774954895 0  0.434705037373379 -0.114505364151485 0  0.0768089501139663 -0.1390499296181859 0  0.2037322897871967 -0.1695319781453501 0  0.2796822656650553 -0.2007669332776081 0  0.2910707535484897 -0.1516548901144321 0  0.414355300365443 -0.1140560482952263 0  0.09372496308173206 -0.1210763918452149 0  0.3897041267298961 -0.06995384811683555 0  0.4607061536274312 -0.2009522278863767 0  0.03767528917450519 -0.01920779542340162 0  0.06550910726222195 -0.1022565085744684 0  0.05021276002452402 -0.04427151993747909 0  0.4497875067624045 -0.1757266867012744 0  0.2685456651208211 -0.05149244248160013 0  0.1924991911245588 -0.1082791409797235 0  0.4653652048205058 -0.1036696603203247 0  0.03478864406010496 -0.1162949466270758 0  0.03530598512279109
[...]
<PointData  Scalars=" Mohr-Coulomb Fs"> 
<DataArray  type="Float64"  Name=" Mohr-Coulomb Fs"  format="ascii">6.9008659228874876e+01  6.8823378595673319e+01  9.0764724799115049e-01  9.0438803822356284e-01  4.9969287594228518e+01  2.0336802121854902e+01  1.5635343513557139e+01  1.1879337376802962e+01  9.2840657025023514e+00  7.7146073562829116e+00  6.3628326103006421e+00  5.9768333432464829e+00  4.9703454051778975e+00  4.7413311823563973e+00  4.4613041875701622e+00  4.2182673426243973e+00  3.9639444459897999e+00  3.8486355297138948e+00  3.7855483535422274e+00  3.6710251014839819e+00  3.6068147364299810e+00  3.5636338646903902e+00  3.5633969290390426e+00  3.5380470405083400e+00  3.5450059729574694e+00  3.5197857480136929e+00  3.6347297948982789e+00  3.7231305938024444e+00  3.7543562927491232e+00  3.8132528272428385e+00  4.0305591004978814e+00  4.1805799891634745e+00  4.4416712063833552e+00  4.7885364407868067e+00  5.0392897211414054e+00  5.6386918586372179e+00  6.5581498795497826e+00  7.8612861425841505e+00  9.1422820860824352e+00  1.1238311575452936e+01  1.6144597869236854e+01  2.1063780218901712e+01  4.2172382989708801e+01  1.9864642629983138e+01  1.1721688764199321e+01  8.6769666363557540e+00  6.6171195564274328e+00  5.6567682798453509e+00  4.7919651063137998e+00  4.3140147813637455e+00  3.9460387546605933e+00  3.5135081987600256e+00  3.1813645393168040e+00  3.0656319694434147e+00  2.7865100624512427e+00  2.6047642584621999e+00  2.4607629754975044e+00  2.2236587154449325e+00  2.0931358393553428e+00  1.9415763006988025e+00  1.8349383312625405e+00  1.6876138872611948e+00  1.5594450405180986e+00  1.4008510114006163e+00  1.2059592651324111e+00  8.6937616986792687e-01  1.3246321496264388e+00  1.5365076301865679e+00  1.6149113380664712e+00  1.7853115112244746e+00  1.8270828559850882e+00  1.9365165355813965e+00  2.0216714270320995e+00  2.1295303815193241e+00  2.1847403511781995e+00  2.2413731243122488e+00  2.3222177434607447e+00  2.3696516159740200e+00  2.4297127488759096e+00  2.4726041098558027e+00  2.5309521451213883e+00  2.5400030695577507e+00  2.5816278213272770e+00  2.6010304468865830e+00  2.6149650845837349e+00  2.6273969895447213e+00  2.5932656250907566e+00  2.6058465901049761e+00  2.5800415785878004e+00  2.5626444765789982e+00  2.5050847457638015e+00  2.4656166445286480e+00  2.4294172033897894e+00  2.3824657543997132e+00  2.3174096064196310e+00  2.2463103057324738e+00  2.1907048348029536e+00  2.0774445329511493e+00  2.0639698876580512e+00  1.9709144422261353e+00  1.8727938565313338e+00  1.7482625550278348e+00  1.6937459143132203e+00  1.4997612323733873e+00  1.2880607260070904e+00  8.7848270408452023e-01  1.2182351261447439e+00  1.4035761750694946e+00  1.5352909023003223e+00  1.6730765719440324e+00  1.8160011692750555e+00  1.9630629109441571e+00  2.1431985693650812e+00  2.2356905189774872e+00  2.3939135957898059e+00  2.6433535047616101e+00  2.7920862941839624e+00  3.0115173302013338e+00  3.2727368807255290e+00  3.4456779566276103e+00  3.8521298924292431e+00  4.3074400318582677e+00  4.8722084491324242e+00  5.6652084883390739e+00  6.6169659259187750e+00  8.7381970838083838e+00  1.1795269674438872e+01  1.9663474818163884e+01  1.9262770747891649e+00  1.8600658301575022e+00  2.0386154067486313e+00  1.9704037484240373e+00  1.6242459796675832e+00  2.5842652922113971e+00  2.8381542923971974e+00  1.5871454068877457e+00  2.2997529346830889e+00  2.2990500298444836e+00  1.9218822023746072e+00  2.3411674093105401e+00  1.8689930023125672e+00  2.0520475504089348e+00  1.9088966347713849e+00  2.0087590013210010e+00  2.4734567594148857e+00  1.7917060846950252e+00  2.6683385271988835e+00  2.7177448929017864e+00  2.1022839382511758e+00  1.4714927225958303e+00  4.1961271219004761e+00  2.0569954237922068e+00  1.9407492719970678e+00  2.0292405816516172e+00  1.7636846583814965e+00  1.9495745428595574e+00  2.6608800858485013e+00  1.4492047457443105e+00  4.2820903764650184e+00  2.7482194696481561e+00  1.7111301622762596e+00  1.7840747080360078e+00  2.5282101637129202e+00  2.1291734265511000e+00  2.7160660076609924e+00  2.8018231279892052e+00  3.5599866650571976e+00  1.7378488956587546e+00  2.1855934977379001e+00  1.9979326892454432e+00  2.9581922481719558e+00  2.1380411771986645e+00  2.1134472321621893e+00  1.7395792457993993e+00  2.0669843328995676e+00  2.9489180009037423e+00  1.9990292091566493e+00  2.1912317322297774e+00  3.5546566901489083e+00  1.7322231753391266e+00  1.9721091067988203e+00  2.1281785651135086e+00  1.6667480652166444e+00  1.8203534102863925e+00  2.1135887617232982e+00  2.2028273280941399e+00  1.8041840955911153e+00  2.0413628692809458e+00  2.0205352570445130e+00  2.0151291449670867e+00  1.9156286063248475e+00  2.2996010439569097e+00  1.8453207644695173e+00  3.2476527737018532e+00  1.6191879222304875e+00  2.1316770052886644e+00  2.2810243607880789e+00  2.8964125061096215e+00  1.9573881404822537e+00  1.5990022559936123e+00  4.5394324506914048e+00  1.6890835051414392e+00  2.4646026129576413e+00  3.0826803299375420e+00  2.2915248808058912e+00  2.9876091995655112e+00  1.3190134755922955e+00  7.5929351971881500e+00  1.2944887863419823e+00  7.8157010138735066e+00  3.4364921823971497e+00  1.9398817055455206e+00  1.5969574283327332e+00  3.6777480108130454e+00  1.9526191714394725e+00  3.6833620938606404e+00  2.1668925312157952e+00  2.0716143480812836e+00  2.0348840878445444e+00  4.9081165971967424e+00  2.3024993856992024e+00  1.6967084687563263e+00  2.4720242952640410e+00  2.1376196072910965e+00  2.1706812991399991e+00  1.7610507765500913e+00  1.7651434632236440e+00  2.2440422765797585e+00  1.7778087568819207e+00  2.3382302964868695e+00  2.3101627525666282e+00  1.8600651266017512e+00  2.4851720907202166e+00  2.2559676738340850e+00  1.9999749666691322e+00  2.0694259170519311e+00  3.3665687162515625e+00  2.0705931368141326e+00  2.1396940760226029e+00  2.0080467422699289e+00  5.2500958475256150e+00  1.4322263673509952e+00  1.6689383051121389e+00  1.8379323359912569e+00  1.9982195091771267e+00  1.9596249107121710e+00  1.9444160560989969e+00  1.5950607797550957e+00  1.9550186490095312e+00  3.0933812960095430e+00  1.6360023115723361e+00  2.7348187273346185e+00  2.3758288388524420e+00  2.0630817980991507e+00  1.5703186598524186e+00  3.0295776130166203e+00  2.2078302553106273e+00  2.0986412530932341e+00  1.9574831622207038e+00  3.2050776482507719e+00  1.5689847450681040e+00  1.9985122670177717e+00  2.6326616753620926e+00  2.0656600096577424e+00  1.9435311214816218e+00  2.7645181998106119e+00  3.7157741210183199e+00  1.8484844732954449e+00  3.0588799035199870e+00  2.3779868851380348e+00  1.8908478220836642e+00  1.9979430008202848e+00  2.1438136288769445e+00  2.7687901625050793e+00  3.0948270757656537e+00  2.6546123341825769e+00  2.1818808349434584e+00  1.4428255965386094e+00  5.1037178271963990e+00  2.5956787360069296e+00  1.9131342133890628e+00  3.0494887187520265e+00  1.8806354136398198e+00  2.5704927175814825e+00  4.2277631744550845e+00  1.9960005685859625e+00  2.0526391342459571e+00  1.8525630133006634e+00  1.6965244813119236e+00  2.0745530189662240e+00  2.3518248929155221e+00  2.0124109255852445e+00  1.8498981869516906e+00  1.8113813249988324e+00  2.3196703128225380e+00  1.4962556572468757e+00  6.6037574748257404e+00  1.9704235111315311e+00  3.5921559700795327e+00  1.5349013497629664e+00  2.5143608147098924e+00  2.0134207192588036e+00  2.1496484820681969e+00  1.9615774989737418e+00  2.3053031081526201e+00  1.8397418334335722e+00  2.1432277290686819e+00  3.4067126967541839e+00  3.0638306333978518e+00  1.9238878118774561e+00  2.5615608492749216e+00  1.8706804102240331e+00  1.9729999011489836e+00  1.7679338681054437e+00  4.9048602940425212e+00  1.6190651650833694e+00  3.3440842952449050e+00  2.0969425922517217e+00  1.9929300286922886e+00  4.5993805860032850e+00  2.1078456754537021e+00  2.0289123429932876e+00  3.6144309094253075e+00  2.2492366411452194e+00  3.1664820457801843e+00  2.3604331403696821e+00  3.0242877882178085e+00  1.7947760219925550e+00  2.0132773850634189e+00  1.8077615981713409e+00  3.3309200516320221e+00  6.8594088072280215e+00  2.0168218379286413e+00  1.6653347680636266e+00  3.2660719527145492e+00  2.4037591708145878e+00  2.9515932043054036e+00  2.5725608866972780e+00  2.1807546350879856e+00  1.8875418324688595e+00  2.8649704958883029e+00  1.9389824722183109e+00  3.5906148598508985e+00  1.7097930467241089e+00  2.2853125238327272e+00  2.0732820002702330e+00  3.2655750155796466e+00  2.1177672472079312e+00  3.1747222888549285e+00  2.3299641294582978e+00  1.5465620190365104e+00  2.4611549157851296e+00  2.3984498215451362e+00  1.8425416652047313e+00  1.7874954406733465e+00  1.5930921761622963e+00  4.1890055953174636e+00  2.0487840043718717e+00  2.2499442430486654e+00  1.8288888149885514e+00  2.7439518986470417e+00  2.6615182674597713e+00  2.2899815071404910e+00  1.2576801160461983e+01  1.1467976679599561e+00  1.7308673239570398e+00  1.9614639232739961e+00  2.1606034092753088e+00  2.0623990979369493e+00  2.2318755407144817e+00  2.0827614627141315e+00  1.9401064693976395e+00  2.0598146324424742e+00  1.7891835193181349e+00  2.2333976626689003e+00  1.8739255681444766e+00  5.4368836725156449e+00  2.1464290439419118e+00  1.8688857748060643e+00  2.0793423147739696e+00  1.1607439635035826e+00  1.2327081743476802e+01  2.1239274575755225e+00  2.0290528439404723e+00  1.7155304266709188e+00  1.8338736310874244e+00  1.9454625502353293e+00  2.4752796248958657e+00  2.3967947575173767e+00  2.2410703228906743e+00  2.6698959372039934e+00  1.9896155246706029e+00  1.7352595462726146e+00  3.1619771801130758e+00  1.6247325951042195e+00  1.7292641390000327e+00  2.3129993346412094e+00  2.0334943337891604e+00  1.9198767903491232e+00  2.1803546720898637e+00  2.4496125515902141e+00  2.9185456216772661e+00  1.4927199176322852e+00  2.0169243773761614e+00  2.5592249200939774e+00  1.7288789980412229e+00  2.5859421078452902e+00  1.6417304837570119e+00  2.2392544685677795e+00  1.8931379951747875e+00  2.2039289026186970e+00  3.5294362715571115e+00  1.7851908503068052e+00  1.7818709703686764e+00  1.8944874395555218e+00  3.1997496481417675e+00  5.0115220479967428e+00  1.4885786048707168e+00  3.9583955063526064e+00  6.6793205973478953e+00  1.3356853077364939e+00  1.8662308308221618e+00  1.7056783858779647e+00  1.5395229391057021e+00  2.2464150126006559e+00  1.4854082804952546e+00  1.6417402189705077e+00  1.6888594093002691e+00  2.8491179850057446e+00  2.0050811999718205e+00  2.7619705703788262e+00  1.8667789355829585e+00  2.4125831214455009e+00  1.5855491116065716e+00  4.4188507605949123e+00  1.8988314166355602e+00  2.8954625528580098e+00  2.6381639352756325e+00  1.7061097682251607e+00  2.2852789476758026e+00  1.9674395959952302e+00  1.9022093004389842e+00  3.5732830054468891e+00  4.2713150659779577e+00  1.3611026295700892e+00  6.6481173461717988e+00  2.0740665565202301e+00  3.0074501273058805e+00  2.0776730240521797e+00  2.1586220274877812e+00  2.0188712066752244e+00  1.9960041921655902e+00  1.5704339140301449e+00  2.3442192599587539e+00  4.0990770461387935e+00  1.8454182411530395e+00  1.7845663139804124e+00  2.7844991881002081e+00  2.0553132478433618e+00  2.7373030768936819e+00  1.4196193958521715e+00  2.4447775026631930e+00  2.7805853775422182e+00  3.0797521054419734e+00  1.6810499989522276e+00  7.5450278057082363e+00  4.1716855934369175e+00  2.0051550726309371e+00  1.9262460424579748e+00  2.0015781985885579e+00  2.3993218755022823e+00  3.9044928250437549e+00  1.8991868493309552e+00  2.4338436027806973e+00  2.0241102374192375e+00  2.4293128677574831e+00  1.5101814075256732e+00  3.6515791854532136e+00  2.0056800169771170e+00  1.9999201753430231e+00  1.9902658279895320e+00  2.1503621882722768e+00  5.1436839275092012e+00  2.3449515208020646e+00  2.1022951897032884e+00  2.0711384358591789e+00  3.2702633523081572e+00  2.6097000584462782e+00  5.5226339191540612e+00  2.1705618535682243e+00  1.9590916749132279e+00  1.8587564235015410e+00  2.3497446989520139e+00  2.1282611306728962e+00  1.9197433042586207e+00  2.7783955067230508e+00  1.6088897154543684e+00  3.1192870154040482e+00  1.7118552069907096e+00  3.7873179833727773e+00  2.0205891139155354e+00  2.3000860870256812e+00  2.4012453175577262e+00  2.1108665311644930e+00  2.0050201462324155e+00  4.0692352627265773e+00  1.6841829438710867e+00  2.0769088924843335e+00  2.1603043583822554e+00  2.8304034237928031e+00  4.6075629681798267e+00  1.6239823061495848e+00  2.5578680150102637e+00  1.4180630899140441e+00  5.3881219172283092e+00  1.4648209083014332e+00  2.5295115729865416e+00  9.8645570589494582e+00  3.4957459249508172e+00  2.9350179057998202e+00  2.1180412869696643e+00  2.0574506720625765e+00  2.2149055483230069e+00  2.1921281150441816e+00  3.3939374720134836e+00  1.8557971231456354e+00  2.4933396416177955e+00  2.0771980616897143e+00  2.2416350833341219e+00  1.9456894318863647e+00  2.4472099183442078e+00  1.8716710328209269e+00  2.3803688685369737e+00  1.7394305780277546e+00  1.6537803878203237e+00  2.0566749844758521e+00  2.9655838081621475e+00  2.4611248451741412e+00  2.0233129428274701e+00  1.6709113242345315e+00  2.0343821303692216e+00  2.2272401600371028e+00  1.7989633040614801e+00  6.9172485109150328e+00  2.4035995340959198e+00  3.0163352220353348e+00  1.0239075923002698e+01  2.3775219736660582e+00  1.6900256222289196e+00  1.7597032356729023e+00  2.2713725574371684e+00  1.8673540878738617e+00  2.2369207859415918e+00  3.1039870469685353e+00  2.3096468567926181e+00  3.1922265910502001e+00  2.0084545811102177e+00  1.9499067959487255e+00  4.0668376602686314e+00  2.1043963063401749e+00  2.0627207092064332e+00  1.9852481064938681e+00  1.8009833834022941e+00  2.1999886594480587e+00  1.9785425755515214e+00  3.6217505946055621e+00  2.0148188356898400e+00  1.9373010597799116e+00  2.0579374630968941e+00  2.0276339713453111e+00  2.8188364082128077e+00  1.7745220469008058e+00  2.2118147189816399e+00  2.4614946757487082e+00  2.0391258245975292e+00  1.6970235085390308e+00  2.6649029101241921e+00  1.8808863092632357e+00  1.7384903195458319e+00  2.3182856491706687e+00  1.6172952445003781e+00  5.7305833094376304e+00  1.4895784995322270e+00  4.3067608570677782e+00  3.4453003669703501e+00  2.3261926611406971e+00  3.1996103028441190e+00  1.9785178985703358e+00  1.8040678306531130e+00  1.8229648074328912e+00  2.1726869854914312e+00  3.7487204317562735e+00  1.8301690063812184e+00  2.0327411020057657e+00  1.8256647171844553e+00  2.7966393258886009e+00  2.2668233275166383e+00  2.0873912396227254e+00  1.3590473525997033e+00  1.7553533461151003e+00  2.5510424370228146e+00  1.9692834372563734e+00  2.3881358906519337e+00  1.4972290306399918e+00  4.1892148783359344e+00  1.8211531036497757e+00  2.4041282284700967e+00  2.6678704434266054e+00  1.9782166946126909e+00  3.2344998338824906e+00  3.5525047841211208e+00  1.5118648503788201e+00  2.6546660504959512e+00  2.5063356079647141e+00  3.3274025792602928e+00  1.9772261609096464e+00  2.1528479545928279e+00  1.8525477580724097e+00  3.9172623776916100e+00  2.2968350530993997e+00  1.9152533698936922e+00  1.7871322211116130e+00  2.4509087061036290e+00  1.4317173604908147e+00  1.9868549035391450e+00  2.0396003015839050e+00  3.4334968843188025e+00  2.1879071426310333e+00  2.0445338488241926e+00  1.7931401372040041e+00  1.9808518158397261e+00  1.9148026541720986e+00  2.0323709522665334e+00  2.4236026760218388e+00  1.5263070662192133e+00  1.7418414343442468e+00  1.9945015008558218e+00  2.0888578989521083e+00  1.3486456377313882e+00  5.7323285696982946e+00  1.7152841571156288e+00  2.1042382220480316e+00  2.1689029355792164e+00  1.9703722258019374e+00  1.7960580338210201e+00  2.9048699076626705e+00  2.2760383266627113e+00  2.0045051128477289e+00  2.1100115230890655e+00  2.0031860687016612e+00  1.7971677847538952e+00  1.9173534804228163e+00  1.8837829473055157e+00  2.7394594884821406e+00  2.2659977211450544e+00  1.5501198029686727e+00  3.1291133736221126e+00  1.6196171860288586e+00  2.7521585141087428e+00  1.9431458856012123e+00  3.3818135858483709e+00  3.7453826669892494e+00  2.3210530532398024e+00  1.5905156578212840e+00  2.0137445129444198e+00  3.1015434491426719e+00  4.7933567137369497e+00  1.9163764624303175e+00  1.8921252695283497e+00  2.9776056691998369e+00  1.9651600492111343e+00  3.4083514604620331e+00  4.3329212699663744e+00  2.0769659276247237e+00  1.6046527994215949e+00  2.1895384617257001e+00  2.4542997613655273e+00  1.9599667321439576e+00  1.7527125451324008e+00  3.5421140567497824e+00  5.2467269490656570e+00  1.8167262724615489e+00  2.2309614081593749e+00  1.9687982252001217e+00  1.7779670725329844e+00  1.9815902420510829e+00  2.6290280611800476e+00  1.8595215965002414e+00  2.1716961782178550e+00  2.1238750847776409e+00  2.9504759922090003e+00  1.8890973351988072e+00  2.2633370700984488e+00  3.0989038734981835e+00  2.9561900842209359e+00  2.1442273737617659e+00  2.8521367528464872e+00  1.8962136070070128e+00  1.9672786719940591e+00  1.2259026705091318e+00  9.2998709795645986e+00  2.0311246606167965e+00  3.5537059165035618e+00  3.4171315901740531e+00  1.8803912831324523e+00  2.2924463627049785e+00  1.8334334485811028e+00  3.6716342371608364e+00  1.8155988037389834e+00  1.9660655033496983e+00  1.4945029255125275e+00  5.6327859660872575e+00  2.3857961850533980e+00  1.9304750992373763e+00  1.9210807441192723e+00  2.4250966995191687e+00  2.1426251462538035e+00  3.0811488128601425e+00  3.0518962325500039e+00  2.0064950434768960e+00  2.5124093769436637e+00  2.2610674604417560e+00  2.0981621499884855e+00  1.9614195043775879e+00  1.6698824629408930e+00  1.2239449659507846e+00  9.1492729245108801e+00  2.4896701557269370e+00  4.1437801724614811e+00  1.7409293202535914e+00  1.5761427531830134e+00  2.4682733346286643e+00  2.6467065756704171e+00  3.2275998802689321e+00  2.1847118267575643e+00  2.0750248548847496e+00  1.9968970207525805e+00  2.2995490285926050e+00  2.0018270016469426e+00  3.3577525324669839e+00  2.1006571455046514e+00  8.6102928735891897e+00  1.9982205660473968e+00  1.8903027218378992e+00  2.1388597594630041e+00  3.2401344460073114e+00  2.5618792025734742e+00  1.8184145470576425e+00  1.9876581688168524e+00  2.5905934074314541e+00  3.2586343026169917e+00  2.3996365243928723e+00  2.5662783235852062e+00  3.0326056462392494e+00  2.3096345278601595e+00  2.8296918639125535e+00  2.2963207988451306e+00  2.4664816651256087e+00  2.0190461361645147e+00  2.2411163774975251e+00  1.9622762982821773e+00  6.0705058304343904e+00  2.6932785390635585e+00  2.4808382236795885e+00  1.6199660367661546e+00  4.8352818394144057e+00  5.4106266844022333e+00  3.5852668414985729e+00  4.2137899002947883e+00  1.7958686388846670e+00  3.0421138319597198e+00  6.7591260634786288e+00  1.7147378783989558e+00  3.1600264756754464e+00  1.6513933533680138e+00  1.9014978541602070e+00  1.5933296195757385e+00  2.1300091466481774e+00  3.9333749984013031e+00  2.1941370788365386e+00  2.0705127315710206e+00  1.8547861861936128e+00  1.7770223673365861e+00  2.6170435061486628e+00  2.0393537133176922e+00  2.2551640076970250e+00  1.7576945652902853e+00  1.9905669942807613e+00  4.4908465858672324e+00  1.7355214815250382e+00  3.6617254204025396e+00  1.9552895963162260e+00  1.9029006112294207e+00  2.0582945745582886e+00  1.5950528298046822e+00  2.8024873743352887e+00  1.8976287837186474e+00  2.5773273220706230e+00  3.5408689184245072e+00  3.4649313820866023e+00  8.7765342702559597e+00  1.6303384535270589e+00  3.1699455610117808e+00  1.6839847894735389e+00  1.6716040544633590e+00  1.6957963611698550e+00  1.8899644650208791e+00  3.0650322766522429e+00  2.0819699483478189e+00  2.2045485588899454e+00  2.0021298431250161e+00  5.9476729639609571e+00  1.7368450627474095e+00  2.3610766637074230e+00  1.8651562872593461e+00  2.0089678023800506e+00  2.5117074077222905e+00  3.4324732205600998e+00  1.7396726206722761e+00  1.9174561950298832e+00  2.4224775306585631e+00  2.1822207208766522e+00  2.0666503111237597e+00  2.1309026709522394e+00  1.8102680303083352e+00  1.8572420363801165e+00  6.0622309140533499e+00  1.7251602844521401e+00  1.8914384103875104e