<?xml version="1.0"?>
<VTKFile type="UnstructuredGrid"  version="0.1"  >
<UnstructuredGrid>
<Piece  NumberOfPoints="572" NumberOfCells="1038">
<Points>
<DataArray  type="Float64"  NumberOfComponents="3"  format="ascii">0 0 0  4 0 0  4 -1 0  0 -1 0  0.09999999999999999 0 0  0.2 0 0  0.3 0 0  0.4 0 0  0.4999999999999998 0 0  0.5999999999999996 0 0  0.6999999999999995 0 0  0.7999999999999994 0 0  0.8999999999999992 0 0  0.999999999999999 0 0  1.099999999999999 0 0  1.199999999999999 0 0  1.299999999999999 0 0  1.399999999999999 0 0  1.499999999999998 0 0  1.599999999999998 0 0  1.699999999999999 0 0  1.799999999999999 0 0  1.899999999999999 0 0  2 0 0  2.1 0 0  2.200000000000001 0 0  2.300000000000001 0 0  2.400000000000002 0 0  2.500000000000002 0 0  2.600000000000002 0 0  2.700000000000003 0 0  2.800000000000003 0 0  2.900000000000004 0 0  3.000000000000004 0 0  3.100000000000005 0 0  3.200000000000005 0 0  3.300000000000005 0 0  3.400000000000004 0 0  3.500000000000004 0 0  3.600000000000003 0 0  3.700000000000002 0 0  3.800000000000002 0 0  3.900000000000001 0 0  4 -0.08333333333333325 0  4 -0.1666666666666665 0  4 -0.2499999999999997 0  4 -0.333333333333333 0  4 -0.4166666666666666 0  4 -0.5000000000000001 0  4 -0.5833333333333337 0  4 -0.6666666666666673 0  4 -0.7500000000000006 0  4 -0.8333333333333337 0  4 -0.9166666666666669 0  3.9 -1 0  3.8 -1 0  3.7 -1 0  3.6 -1 0  3.5 -1 0  3.4 -1 0  3.300000000000001 -1 0  3.200000000000001 -1 0  3.100000000000001 -1 0  3.000000000000001 -1 0  2.900000000000001 -1 0  2.800000000000001 -1 0  2.700000000000001 -1 0  2.600000000000001 -1 0  2.500000000000002 -1 0  2.400000000000002 -1 0  2.300000000000002 -1 0  2.200000000000001 -1 0  2.100000000000001 -1 0  2 -1 0  1.9 -1 0  1.799999999999999 -1 0  1.699999999999999 -1 0  1.599999999999998 -1 0  1.499999999999998 -1 0  1.399999999999998 -1 0  1.299999999999997 -1 0  1.199999999999997 -1 0  1.099999999999996 -1 0  0.9999999999999956 -1 0  0.899999999999995 -1 0  0.7999999999999949 -1 0  0.6999999999999953 -1 0  0.5999999999999956 -1 0  0.499999999999996 -1 0  0.3999999999999968 -1 0  0.2999999999999976 -1 0  0.1999999999999984 -1 0  0.0999999999999992 -1 0  0 -0.9166666666666667 0  0 -0.8333333333333335 0  0 -0.7500000000000002 0  0 -0.666666666666667 0  0 -0.5833333333333335 0  0 -0.4999999999999999 0  0 -0.4166666666666663 0  0 -0.3333333333333327 0  0 -0.2499999999999994 0  0 -0.1666666666666663 0  0 -0.08333333333333315 0  3.491090701185765 -0.499339806301727 0  0.4950203227078167 -0.4989128584675094 0  2.64262313781888 -0.4879297506908338 0  1.449999999999998 -0.5 0  2.058402291097397 -0.5120941233772698 0  0.9749999999999992 -0.4749999999999993 0  3.081769880806683 -0.5597407802610527 0  1.745473944409859 -0.3290615136625714 0  2.347280045777389 -0.6545118286598804 0  2.335768673639667 -0.3237239238763549 0  1.750327526220345 -0.682828817540943 0  3.707492972392909 -0.3028030525063309 0  0.293580296675358 -0.7109385489008262 0  3.71498825372084 -0.7080088716251347 0  0.2918697062415769 -0.2988161261649331 0  3.250413907284768 -0.3098344370860925 0  0.7481958762886598 -0.6907216494845363 0  2.897531957111618 -0.3144800466372323 0  1.202975631932859 -0.6871206495416401 0  0.7276881720430104 -0.301075268817204 0  1.222241507685503 -0.2908020883113388 0  2.821785532795642 -0.7097679058139483 0  3.313580174540806 -0.7110306688463971 0  1.50219738324048 -0.2570217529780842 0  2.109436430026117 -0.7485141141565509 0  2.001923272149049 -0.2612004201407864 0  2.591779594323503 -0.2533220405676498 0  1.508220405676497 -0.7466779594323502 0  2.584305190871683 -0.7502831919469019 0  3.478286033189422 -0.23795222571263 0  0.5261060937617643 -0.7658117832712512 0  3.785135972681774 -0.5040707172464052 0  0.2090645029521114 -0.4969048262114374 0  0.9574438986108131 -0.2423163095862805 0  0.9754244626643473 -0.7628641460288867 0  0.5097271592765806 -0.2292760602594508 0  3.047448237147327 -0.7984168297371277 0  3.522893514415914 -0.785726174019542 0  3.27411286219494 -0.5150314861460955 0  2.876192398366876 -0.5166549013936721 0  3.072152863254761 -0.2028141497170135 0  2.188888454287124 -0.1960738743988359 0  1.911111545712876 -0.8039261256011641 0  0.6968885413728847 -0.4974520678389611 0  1.252104989604988 -0.4970114345114344 0  1.649610740490046 -0.5028202775347195 0  2.446694231298332 -0.485633542353709 0  1.845992484168205 -0.4989419599210881 0  2.246214131289309 -0.4959316037735846 0  2.743080194417513 -0.1797603284198384 0  1.345217800961618 -0.8177514544794908 0  3.831771135951664 -0.1764827624326512 0  0.168177957407361 -0.823589473522286 0  3.837430960455357 -0.8286944021295046 0  0.167391597779325 -0.1752538625856722 0  3.066111254276541 -0.3870061788029396 0  1.358909159394344 -0.1720779287034414 0  1.669284305949535 -0.172759019086266 0  2.264869859182613 -0.8283162784008133 0  2.434165412425708 -0.1697954173687042 0  1.668706113475668 -0.8314479749300888 0  1.842683258862577 -0.1656794186994128 0  3.848464877921415 -0.3616620315967092 0  0.151535122078585 -0.6383379684032905 0  3.848707346075076 -0.6466646759135177 0  0.1509968549082652 -0.3452619778382686 0  2.732975255829699 -0.3508363638623346 0  1.370252652534258 -0.6495109932111033 0  1.11832587037856 -0.1733419061976365 0  2.439737645513045 -0.836456385212641 0  3.331229791744127 -0.165499768727795 0  0.6726591332606813 -0.8336090461037186 0  1.132616756253317 -0.8280723285747189 0  1.950606351728588 -0.6518091391595896 0  2.153824719141371 -0.3536025000168445 0  3.62532407618639 -0.1564302309141494 0  0.3803710983093131 -0.8404803223371928 0  1.377912260103223 -0.3517997484404782 0  0.8924624300191402 -0.6125774599817652 0  3.207249628251628 -0.8375220474312923 0  0.6546785576266954 -0.155978749966339 0  2.719684587363634 -0.8327734580127736 0  3.647699282718985 -0.5637569936419204 0  0.3570156455557587 -0.5653989322146081 0  0.8322251523939386 -0.8403847541693579 0  0.3645988133126639 -0.1519337183240305 0  1.061404500324257 -0.6180105656135877 0  3.396758647231262 -0.3766313243368538 0  0.8148021518360848 -0.1629813466347811 0  0.6093556516052328 -0.6299486913462624 0  0.415997866655875 -0.3680522660477806 0  0.5920160015096863 -0.3645412637424194 0  3.572255424430109 -0.362089200459548 0  1.08043890485706 -0.3398660584513152 0  2.923658429424994 -0.1561137197110593 0  3.653613361778262 -0.8546909554159527 0  3.456739790681186 -0.6487708965425909 0  0.8424839600900655 -0.4190496412612194 0  2.6968241495241 -0.6460539373019687 0  2.90777185621417 -0.8467190841342236 0  3.167421855912535 -0.6853653881872064 0  3.378998015397395 -0.8550267917096944 0  2.549623533286458 -0.6074164390661531 0  1.563854363100012 -0.3870450365840445 0  1.945115925347995 -0.3956210114182645 0  2.206384380497951 -0.6363666106481864 0  2.9679770331043 -0.6663940397605803 0  2.492817266347368 -0.3527603982764793 0  1.545918816851176 -0.6075709531787901 0  2.028456012399734 -0.8701972194942087 0  2.065700499244939 -0.1359115819594244 0  1.113999927383315 -0.4803729266898425 0  3.194766700972084 -0.1349664610116483 0  1.791586588241401 -0.8656156413257059 0  2.307333345265183 -0.1346440826116952 0  2.64093544674549 -0.1331489671463476 0  0.4565707965077976 -0.6534785968762363 0  1.459077473581533 -0.8718776489042938 0  1.56279060907849 -0.1324694119967317 0  0.3144726782861624 -0.406319735913186 0  3.686635179527132 -0.4155119011072678 0  3.583227123430988 -0.6879918386850498 0  3.884530589958141 -0.5337716741137969 0  0.1138901561454064 -0.4712706309748976 0  2.551320204776417 -0.8759992125181354 0  2.968455986624249 -0.4231600805006418 0  1.843995631966074 -0.2713141166917306 0  1.23826657576458 -0.1310261345083986 0  1.632298315745049 -0.7047459448475459 0  3.454977942639006 -0.1019833897113779 0  2.11213131937471 -0.6131325843633801 0  1.631670858552932 -0.3027829344070553 0  0.549999999999996 -0.8847857258099061 0  2.175907031111534 -0.8808902127996396 0  2.440789547527098 -0.7252338716820566 0  0.9499999999999957 -0.8853403742417534 0  0.1192006629558211 -0.7258150973260704 0  0.1086302422397907 -0.2553484983400458 0  3.891615894289125 -0.7428762999771643 0  3.880790852604017 -0.2741969419997524 0  2.58999033724616 -0.3943081590477266 0  0.95310975133633 -0.1100375897447476 0  0.9389274183125247 -0.357418794071099 0  0.5436861363815539 -0.1129935035840732 0  1.237622314162623 -0.8886349339205675 0  2.766143121931948 -0.4669467935657355 0  3.157965388639583 -0.4824178848815803 0  3.732166646772587 -0.1061123528525496 0  0.8463407040907105 -0.2803849511418723 0  0.2658218649297859 -0.8967607408767373 0  3.384357462435764 -0.5450459842617623 0  1.954320722194999 -0.1009956898074866 0  0.8013980381943526 -0.5278489923710374 0  3.744358883260304 -0.603637271636247 0  0.2581863795088786 -0.6001369967359219 0  0.2629966501688439 -0.1025990268626685 0  0.3980883060404261 -0.7330050441066103 0  1.076076863672032 -0.7275728344185368 0  1.749999999999999 -0.5550190100941714 0  2.351512610076122 -0.5440435521440684 0  0.8619623856291254 -0.7246873586411677 0  3.553081028189586 -0.8932001918706867 0  2.806636304103025 -0.6100531542467602 0  2.546714489935151 -0.08818853426728746 0  1.172246975380209 -0.5783812280673658 0  1.560837452008869 -0.9052833905541354 0  3.005913589025749 -0.2858329927011495 0  3.104244827324224 -0.8867193195303111 0  0.6392996137609843 -0.7340215588892431 0  3.370409685921998 -0.2678372406131186 0  1.860045411420065 -0.6863616357695403 0  2.239306624928278 -0.3159929711989559 0  0.620090528303912 -0.2611000972275821 0  1.457468991263225 -0.08750102207080079 0  1.752790718352056 -0.1005001786212033 0  0.394717592657301 -0.2605042194828123 0  3.745581301416776 -0.9074819423317642 0  3.141158115761163 -0.2920724092797614 0  3.257376892791448 -0.6242591031763242 0  2.350280737493299 -0.9013197570937703 0  3.914203942485891 -0.125 0  3.914203942485891 -0.8750000000000003 0  0.08579605751410901 -0.1249999999999997 0  0.08579605751410968 -0.875 0  3.921126745430668 -0.4525
[...]
<PointData  Scalars=" Mohr-Coulomb Fs"> 
<DataArray  type="Float64"  Name=" Mohr-Coulomb Fs"  format="ascii">9.6130667033922067e+05  7.4428132070155768e+05  2.1901456446378148e+05  1.8896204204287933e+05  4.1680231152933650e+05  3.9845911438601126e+05  3.8491827450057270e+05  4.4766860597635503e+05  4.5981463883031905e+05  4.9631376515784371e+05  5.6634568982806907e+05  5.9195123669841769e+05  6.4735716245000565e+05  6.7938356043208018e+05  7.2813463436608866e+05  7.6189621202110732e+05  7.8522929018491867e+05  8.0222976151379256e+05  8.1893986302973924e+05  8.3026625932798698e+05  8.3637380450779037e+05  8.4086632676781423e+05  8.4234661117510858e+05  8.4402106516176963e+05  8.4445343331878074e+05  8.4041525574175117e+05  8.3188480158153572e+05  8.3214365839517047e+05  8.1584551233415015e+05  8.0279115235274867e+05  7.8586392387225619e+05  7.5406816738171643e+05  7.2756813630972593e+05  6.9470647279606271e+05  6.4375040827981243e+05  5.9140754569505714e+05  5.5659461638583301e+05  5.0446534519892884e+05  4.6280272084066959e+05  4.5079689469784836e+05  3.8336410521993018e+05  3.9792440595878602e+05  4.2788024128589104e+05  4.4518318446941598e+05  5.4510258030354686e+05  6.1965756561059249e+05  5.9078158131177584e+05  4.8688256783888570e+05  5.4747297270316014e+05  3.5919959592895309e+05  3.1498093631904246e+05  4.1413749638358486e+05  2.2938868458541110e+05  1.5818841139825989e+05  3.9318649394384149e+05  5.3758277488285303e+05  3.2393889575745875e+05  5.0537124204971216e+05  5.3003200861353427e+05  5.7371493603147671e+05  6.2142650321906002e+05  6.5416241602271260e+05  6.9080771348462522e+05  7.2821843439278076e+05  7.7190025001191220e+05  7.8342319434823096e+05  8.0313882936078147e+05  8.1293524931511492e+05  8.1980069950050814e+05  8.2078974936450354e+05  8.2585539823991247e+05  8.2373267562030139e+05  8.3320378643770237e+05  8.2582775278207776e+05  8.2628823420268425e+05  8.2461165182336653e+05  8.2847760182342748e+05  8.2135458791299304e+05  8.1568933553136757e+05  8.1681934637730476e+05  7.9474806006042298e+05  7.8384478779068694e+05  7.7547787778179615e+05  7.3435469753193972e+05  7.1490561710352311e+05  6.6955798927032889e+05  6.2776116239382338e+05  5.7058878810498165e+05  5.4020631749960373e+05  5.2087625943070528e+05  3.3788935513901967e+05  5.0986334169313684e+05  4.2602755048315891e+05  1.7571694539032350e+05  2.4197872523923393e+05  4.1242567590229918e+05  3.9198415640891803e+05  4.5064542806326080e+05  4.3842271949167375e+05  4.6344180735614308e+05  4.5736232547770836e+05  6.0105233047130832e+05  5.2178115458896256e+05  3.8053077234370110e+05  3.9605760186009714e+05  3.8279188056551479e+05  6.5144455350343278e+05  6.7727339112369576e+05  7.5090408011748176e+05  5.2636045313392102e+05  5.1339507570009428e+05  7.5055549146401335e+05  7.2920726301721786e+05  7.3993988012278220e+05  7.4697352229917899e+05  3.5445212641404313e+05  3.8480103566221596e+05  3.8576431902709836e+05  3.4314206927331502e+05  4.5682700137905171e+05  4.8380347427467367e+05  5.8938985798255587e+05  6.2727461700091534e+05  4.4879057892860012e+05  6.3376895829955465e+05  6.2441100600857043e+05  4.6941661136239569e+05  7.2324704579971579e+05  7.7015816860031406e+05  7.7862339583569497e+05  7.0138499509018124e+05  7.1775438875717798e+05  6.9870353382971883e+05  3.9989976258659549e+05  4.4016361722273438e+05  3.4731833657624247e+05  3.4029449917733902e+05  5.4777688530261011e+05  5.7659245091059792e+05  3.8408035830770270e+05  5.9377627983067161e+05  4.3469484173931950e+05  4.4893347388046549e+05  5.7918002275770437e+05  5.5048091906323575e+05  7.8631628120261512e+05  7.8118600240431144e+05  4.3491853854677046e+05  6.2202783832712634e+05  7.2170129307573242e+05  7.0240487242108793e+05  7.4571129220721521e+05  7.3599534025257907e+05  6.8149982134033495e+05  7.0846436416311783e+05  3.6284547658743453e+05  3.4856776111611450e+05  3.5720170880176977e+05  3.7374469448725547e+05  5.1616901550303010e+05  7.1674667485757696e+05  7.7660262761586322e+05  7.7519274677127879e+05  7.6153763897677697e+05  7.6939019229333987e+05  7.9520207547217887e+05  4.3154649794130633e+05  4.1406193827981554e+05  4.5413036396517162e+05  4.5273920754298044e+05  6.3861914496492816e+05  6.6812566250936280e+05  6.3710934949060413e+05  7.5717537134306517e+05  4.6023012632845313e+05  5.1187456187215832e+05  6.5684565324409294e+05  7.5750852138275816e+05  7.5716227235860424e+05  3.6767842561362137e+05  4.2967606987663242e+05  6.7165713980149396e+05  5.0857413321676507e+05  5.5667840860346181e+05  4.5163925239682436e+05  6.9801349265149364e+05  3.6562338992674195e+05  3.7783089860307454e+05  5.7369594344632130e+05  3.6848882127680583e+05  5.6898214645932440e+05  4.0867402629649476e+05  5.1978017250100675e+05  4.3450746797248296e+05  3.5385623526034883e+05  3.9812146036121208e+05  3.6286288110387372e+05  5.7439815920727584e+05  6.2878775459565851e+05  4.3818453208085604e+05  4.0681389472901303e+05  4.8120968894538935e+05  6.4651945663050341e+05  6.5711260664150410e+05  5.0695247124608333e+05  5.0474304251621460e+05  6.8317338481244317e+05  7.1227073393099511e+05  7.5704937658510183e+05  7.4684553270344983e+05  5.7000163666937442e+05  7.0500520185748697e+05  7.0381866030486103e+05  7.9670291679635213e+05  8.0831763913288387e+05  5.7866473075004586e+05  5.2995717874297139e+05  7.8939263241835195e+05  7.9193867415995337e+05  7.3020529450833006e+05  4.0043285286515515e+05  7.5120007960290462e+05  7.7501093649177870e+05  3.6384668014244869e+05  3.6506111888970237e+05  3.7922461746656802e+05  4.7967564975114673e+05  4.6035620511335233e+05  7.5526449322114303e+05  5.4766119846996909e+05  7.6987649575448688e+05  6.9548612234722322e+05  7.3494560469172278e+05  4.3989676050406060e+05  7.5183514336250792e+05  7.3860992859025905e+05  4.9749213772360794e+05  7.9612532156535692e+05  7.2535612900091452e+05  6.3704627585401211e+05  4.6235340063491609e+05  4.0631824541087868e+05  4.0807794908366736e+05  4.6459929896818346e+05  6.7333599438099295e+05  6.0871251938457449e+05  5.1769111806707922e+05  4.3668624987724138e+05  7.1978622751352424e+05  6.1346504377255333e+05  4.8091257407538150e+05  3.4159341187031684e+05  5.0073215097582008e+05  3.4871320622316306e+05  4.1610237733796815e+05  8.1982913789071830e+05  4.7048315913202590e+05  3.7435157514542853e+05  3.7888729196666519e+05  3.3626497668884532e+05  3.9690807024807209e+05  5.9719025640324829e+05  7.3526399212085770e+05  7.2020573517286312e+05  5.3125872574769671e+05  4.6102683786218299e+05  6.0956721615090885e+05  7.7466885255487321e+05  5.9456952355996333e+05  7.8174388264432549e+05  5.5297136376440013e+05  6.1348744656939525e+05  4.6756732112010755e+05  4.2276062737081054e+05  7.5771065449808398e+05  7.5430670673127007e+05  4.2239416840554116e+05  7.7472093532031507e+05  8.0924967222730431e+05  3.6818007741601643e+05  3.3907144041263399e+05  5.0177978254063736e+05  4.6497670654202916e+05  7.8995573682980996e+05  3.5175671674040658e+05  2.1693744509232650e+05  3.2601787619877339e+05  2.5680293655972451e+05  5.3464505122530297e+05  5.1967333085190528e+05  6.1927342393378005e+05  7.2414575131542992e+05  7.3843804721459432e+05  7.7489009235179785e+05  7.6931718040659430e+05  6.0757613105171383e+05  6.5228897126259550e+05  3.6375556517116021e+05  7.0489077107155498e+05  4.3764049477585376e+05  7.1182511768528330e+05  7.4435654995063099e+05  7.2842384128671582e+05  3.6235809063880879e+05  3.5561494913124252e+05  4.5298928189012618e+05  5.7837823966162710e+05  6.9067073162380653e+05  8.0083425069996761e+05  8.1605812762839592e+05  5.8049771624418104e+05  7.7366967719717219e+05  7.5169454096170096e+05  5.4816938006113295e+05  6.3464687745500647e+05  3.8663624614207138e+05  4.0323559033623117e+05  4.3041165541301621e+05  6.8288470537772402e+05  6.8087629957762372e+05  7.2574689346720255e+05  6.5214109126731195e+05  5.7238748925979645e+05  7.5279171296622220e+05  7.5094407076803583e+05  6.5572644227989728e+05  4.5034426673599321e+05  7.5365918590992654e+05  5.2318037041051709e+05  7.6292414255973767e+05  6.7005055317463237e+05  4.4487509973310179e+05  7.5865993798902328e+05  7.6625129788321583e+05  6.3136693156467471e+05  4.0302616588693170e+05  6.6173070314397174e+05  6.9437811071415921e+05  6.7064652410154277e+05  3.6161456146109180e+05  3.7796158207209961e+05  3.7208575678472838e+05  3.7630125539407565e+05  3.9609700663459726e+05  5.4096385214595392e+05  7.2394629740880278e+05  6.3699778063508461e+05  4.7300886092226900e+05  6.5520784013933211e+05  6.6219417694415816e+05  7.4212892446554243e+05  6.0925752644591162e+05  7.5582589837631967e+05  7.6191386034922011e+05  7.0090397523291607e+05  5.2266707964626601e+05  7.4894654436271766e+05  3.3337949476769066e+05  5.0645055016412918e+05  7.0236592190673156e+05  7.3433050983427837e+05  4.8249152154254261e+05  6.8088954561323253e+05  3.8270407240255410e+05  5.1334841745392437e+05  8.0854551033104514e+05  8.0550187307651481e+05  6.1045976988064998e+05  3.5804027137780091e+05  3.6738791336727131e+05  3.9514690747688973e+05  5.2884342812218145e+05  4.8962309993020317e+05  5.4927444104015257e+05  4.2382480248351546e+05  4.7578996757928265e+05  3.6662519152267015e+05  3.2985564503572386e+05  4.4073837395381753e+05  4.2237121066792600e+05  3.3680488697901345e+05  3.4181387859984505e+05  7.0021893544410786e+05  4.6924220441051637e+05  7.0284600394914986e+05  5.3151459428761969e+05  6.3062299354441813e+05  8.0334652278142632e+05  8.0652880631654535e+05  7.5564679386323818e+05  5.2034036640689027e+05  4.4255157045864558e+05  6.5136465366282035e+05  5.7734813030127087e+05  5.0741125844670797e+05  6.5619244404831203e+05  3.7973925096390065e+05  7.2080509102142300e+05  3.9683972318526584e+05  3.8769574306413840e+05  3.9263439684895612e+05  5.7399777766901301e+05  5.7786384448559815e+05  5.0479533512492059e+05  4.2879451322943467e+05  8.2596474202286929e+05  7.4740412244242837e+05  5.4152494890362839e+05  5.4332877275975968e+05  3.7696215844542690e+05  4.7568177945831936e+05  6.5624552575721371e+05  7.7285479734068573e+05  7.4972470923043357e+05  5.9819545393674530e+05  7.4417448737835977e+05  7.8733965592361591e+05  4.0763637163125194e+05  4.8085580390471924e+05  3.7031279083013651e+05  4.8620404773225484e+05  7.1828391856940673e+05  4.9791953879548860e+05  6.2585637150392414e+05  5.8096981955272041e+05  4.6501170232993137e+05  3.7308654955766001e+05  6.4234036254834547e+05  7.8917991463504441e+05  5.8482860280323564e+05  6.6018527877524949e+05  3.8020144930393080e+05  6.2728802759785473e+05  4.4681697199865500e+05  3.8826728201858915e+05  3.8764899515238655e+05  5.4294473926399695e+05  4.5898528514007165e+05  4.6969311107738025e+05  4.8774746543741861e+05  4.1063967097732198e+05  6.7716084923117608e+05  7.3609684692306700e+05  4.0133269736251410e+05  8.2250477789918333e+05  8.1085151246561157e+05  3.9407063312170381e+05  5.0989614898856235e+05  6.4627318600958143e+05  6.6639910965813498e+05  7.2828737284690759e+05  4.2182402927152847e+05  4.8569751171301358e+05  5.5067268311179162e+05  4.1585689927838650e+05  6.1466560852160410e+05  3.5039901201512362e+05  3.5531513116132701e+05  3.6981210226276680e+05  7.5335890057236573e+05  5.4274540708544559e+05  3.8764204491568159e+05  3.7545167176954780e+05  3.6348329390439956e+05  4.2213008147115039e+05  6.9668500519669952e+05  7.5024752234676806e+05  4.5227326230088883e+05  7.4050356511904125e+05  4.3223367270397639e+05  5.2276872226792300e+05  5.5312515377346880e+05  3.2536940182683524e+05  2.9547478581173433e+05  5.7175847426254256e+05  4.2037015435639513e+05  6.8618287932194700e+05  7.3616593780254794e+05  7.3315520821103256e+05  7.6947600094550021e+05  7.6992848242337361e+05  5.9999131770899892e+05  4.5141556559075299e+05  4.6499720229076938e+05  7.5833918048046029e+05  4.2813648598355480e+05  4.3700667204852623e+05  7.1527889766713441e+05  5.5637633379680500e+05  8.1097848613909446e+05  7.0015424915587471e+05  7.8489857941049314e+05  3.8048356120948080e+05  7.5460302619482623e+05  7.9931347163965332e+05  4.0446368891564332e+05  7.6772579188846762e+05  8.0098256903428549e+05  3.7842222551462648e+05  5.2069716419851535e+05  6.9973194357572647e+05  3.7413514707518229e+05  4.8476988578650582e+05  8.3166228961791215e+05  7.2363728556673764e+05  4.5852148385205929e+05  5.9746020297984488e+05  6.7971696241454163e+05  4.7534966708599508e+05  6.9327701401366608e+05  7.9618716920988879e+05  7.1754543419119262e+05  6.7396080596064404e+05  6.0990176563670125e+05  7.5437974555416510e+05  6.8064968569844379e+05  3.7169360508553754e+05  3.3712234052623645e+05  1.8199558734946550e+05  3.5074442918267008e+05  1.9506286134924766e+05  4.5396331193244917e+05  4.2313178155131137e+05  6.6783406534951262e+05  5.1813276927804505e+05  6.0047951611941436e+05  4.3817317424770573e+05  6.0496582061144360e+05  4.3502364300548483e+05  6.3573101584982232e+05  7.9116121400999301e+05  7.8352496724422870e+05  6.0649827461614611e+05  7.5784806234166247e+05  4.9305925933599705e+05  5.4020367458752287e+05  7.6973899674719793e+05  7.6847231096296909e+05  5.7527158101568581e+05  7.8711090859319607e+05  7.7018601374756463e+05  7.9547852839069045e+05  7.9210314974373428e+05  7.5147284025650134e+05  6.9377333252966090e+05  7.0379629784337035e+05  3.7941951062484039e+05  7.2335359707984840e+05  7.4901868720841582e+05  7.1499576560888730e+05  4.2053928334030299e+05  4.6852080427439016e+05  5.5372448004233337e+05  5.3482393800700211e+05  7.0984681573910383e+05  5.7680819023590884e+05  7.6101483210899192e+05  8.0670561911936977e+05  5.5545981104870688e+05  7.4497788054558763e+05  6.9400024145952240e+05  8.1315780410893273e+05  7.8750378611176088e+05  7.3897387100984063e+05  5.9494855655271246e+05  6.9681092598703364e+05  6.2680725314909965e+05  5.9330617704295111e+05  4.9351586512623058e+05  6.4572416763798427e+05  5.5082649147688085e+05  5.7915036872901546e+05  </DataArray> 
</PointData> 
</Piece>
</UnstructuredGrid>
</VTKFile>