<?xml version="1.0"?>
<VTKFile type="UnstructuredGrid"  version="0.1"  >
<UnstructuredGrid>
<Piece  NumberOfPoints="1855" NumberOfCells="3532">
<Points>
<DataArray  type="Float64"  NumberOfComponents="3"  format="ascii">0 0 0  30 0 0  30 -10 0  0 -10 0  0.1391574078963744 0 0  0.2856388821882616 0 0  0.4398299073010886 0 0  0.6021362569539473 0 0  0.7729850389704483 0 0  0.9528258543586996 0 0  1.142131984380316 0 0  1.34140159760994 0 0  1.551159074717981 0 0  1.771956417032531 0 0  2.004374674080994 0 0  2.249025475789527 0 0  2.506552636773105 0 0  2.777633857742732 0 0  3.062982518028728 0 0  3.363349525995907 0 0  3.679525322337712 0 0  4.01234195575742 0 0  4.362675247811097 0 0  4.731447135329707 0 0  5.119628065610077 0 0  5.528239565804708 0 0  5.958356943167011 0 0  6.411112081475485 0 0  6.887696441559404 0 0  7.389364184530748 0 0  7.917435485335147 0 0  8.473300005202017 0 0  9.058420557070402 0 0  9.674336929103793 0 0  10.32266995225095 0 0  11.00512576896296 0 0  11.72350030646412 0 0  12.47968402994705 0 0  13.27566689579597 0 0  14.1135435963616 0 0  14.9955190732806 0 0  15.92391430904694 0 0  16.90117245730496 0 0  17.92986524844506 0 0  19.01269976086341 0 0  20.15252556282024 0 0  21.35234220269763 0 0  22.61530708683689 0 0  23.94474379751883 0 0  25.34415086349739 0 0  26.81721093579712 0 0  28.3678004819169 0 0  30 -1.111111111111111 0  30 -2.222222222222222 0  30 -3.333333333333333 0  30 -4.444444444444445 0  30 -5.555555555555555 0  30 -6.666666666666666 0  30 -7.777777777777777 0  30 -8.888888888888889 0  28.36780047917311 -10 0  26.8172109305839 -10 0  25.34415085606858 -10 0  23.94474378810899 -10 0  22.61530707566275 -10 0  21.3523421899591 -10 0  20.15252554870171 -10 0  19.01269974553473 -10 0  17.92986523206254 -10 0  16.90117244001232 -10 0  15.92391429097614 -10 0  14.99551905455266 -10 0  14.11354357708742 -10 0  13.27566687607703 -10 0  12.47968400987599 -10 0  11.72350028612546 -10 0  11.00512574843363 -10 0  10.32266993160086 -10 0  9.674336908396342 -10 0  9.058420536362949 -10 0  8.473299984546333 -10 0  7.917435464777824 -10 0  7.389364164113587 -10 0  6.887696420787165 -10 0  6.411112061446698 -10 0  5.95835692337857 -10 0  5.528239546282652 -10 0  5.119628046377237 -10 0  4.731447115907979 -10 0  4.362675229213632 -10 0  4.012341937260036 -10 0  3.679525304434552 -10 0  3.363349508456405 -10 0  3.062982500861274 -10 0  2.777633840953978 -10 0  2.506552620368097 -10 0  2.249025459771861 -10 0  2.004374658452946 -10 0  1.771956401795187 -10 0  1.551159059871345 -10 0  1.341401583153029 -10 0  1.142131970307521 -10 0  0.9528258406748833 -10 0  0.7729850256685147 -10 0  0.6021362439621285 -10 0  0.4398298947504031 -10 0  0.2856388700059078 -10 0  0.1391573960769001 -10 0  0 -9.855072463768115 0  0 -9.710144927536232 0  0 -9.565217391304348 0  0 -9.420289855072463 0  0 -9.27536231884058 0  0 -9.130434782608695 0  0 -8.985507246376812 0  0 -8.840579710144928 0  0 -8.695652173913043 0  0 -8.55072463768116 0  0 -8.405797101449275 0  0 -8.260869565217391 0  0 -8.115942028985508 0  0 -7.971014492753623 0  0 -7.826086956521739 0  0 -7.681159420289855 0  0 -7.536231884057971 0  0 -7.391304347826087 0  0 -7.246376811594203 0  0 -7.101449275362318 0  0 -6.956521739130435 0  0 -6.811594202898551 0  0 -6.666666666666667 0  0 -6.521739130434783 0  0 -6.376811594202898 0  0 -6.231884057971015 0  0 -6.086956521739131 0  0 -5.942028985507246 0  0 -5.797101449275362 0  0 -5.652173913043478 0  0 -5.507246376811594 0  0 -5.36231884057971 0  0 -5.217391304347826 0  0 -5.072463768115941 0  0 -4.927536231884058 0  0 -4.782608695652174 0  0 -4.637681159420289 0  0 -4.492753623188406 0  0 -4.347826086956522 0  0 -4.202898550724638 0  0 -4.057971014492754 0  0 -3.913043478260869 0  0 -3.768115942028985 0  0 -3.623188405797101 0  0 -3.478260869565217 0  0 -3.333333333333334 0  0 -3.188405797101449 0  0 -3.043478260869565 0  0 -2.898550724637681 0  0 -2.753623188405797 0  0 -2.608695652173912 0  0 -2.463768115942029 0  0 -2.318840579710145 0  0 -2.173913043478261 0  0 -2.028985507246377 0  0 -1.884057971014492 0  0 -1.739130434782609 0  0 -1.594202898550725 0  0 -1.44927536231884 0  0 -1.304347826086957 0  0 -1.159420289855072 0  0 -1.014492753623188 0  0 -0.8695652173913047 0  0 -0.72463768115942 0  0 -0.579710144927537 0  0 -0.4347826086956523 0  0 -0.2898550724637676 0  0 -0.1449275362318829 0  5.15859856094262 -4.976557621770688 0  2.816777084926057 -7.160262673925935 0  2.81677708460006 -2.839737326002783 0  2.227649803257325 -5.003121586636773 0  1.518662968975629 -8.46230852045241 0  1.518662969184829 -1.537691480152612 0  9.960740911025725 -5.055901393541221 0  1.491099662214591 -3.691833922963321 0  1.503675657181264 -6.345020369042368 0  5.319208041801049 -7.493850249937013 0  5.291109955459268 -2.489368743223226 0  1.096914507335763 -2.53623188405797 0  1.096914507253562 -7.463768115942029 0  1.089580194952752 -4.71277167923441 0  15.07565076110197 -5.047572991082069 0  7.501630508673601 -5.937500100385354 0  0.8894869418764504 -5.623930488933245 0  2.955144522453978 -1.440834296472408 0  2.955144521140721 -8.559165705576945 0  8.106603955004623 -2.748811534843258 0  3.662152539483591 -4.228178367024407 0  3.662181528265114 -5.771746159989156 0  0.8436558190317136 -0.8541050638451999 0  0.8436558075840921 -9.145894948342754 0  0.7854168197005933 -1.811594202898552 0  0.7894693398152999 -3.286543351392342 0  0.7854168196772591 -8.188405797101449 0  0.7854168196772591 -6.739130434782609 0  20.00078956016804 -4.999999999785771 0  0.7379120031523989 -3.977302749614766 0  6.584332478112232 -3.934875417052907 0  7.295091310194352 -7.969791332537982 0  9.811174303464586 -7.412814499648229 0  4.013376806449688 -2.206189431585293 0  4.013376806983409 -7.793810569017377 0  12.11177433894592 -2.818343737884045 0  2.591152707837148 -3.990098461753838 0  2.58990939378082 -6.025895074707176 0  25.43156400064585 -5.044446479916348 0  2.03262751726143 -2.282125834846944 0  2.032627517335952 -7.717874165160392 0  12.51865094522923 -6.491408052923457 0  0.598175343983641 -6.156971652625402 0  2.126700074935224 -0.8767654465386991 0  2.126700059112423 -9.123234559633019 0  6.617961838548696 -1.617756429129908 0  0.5903949564549755 -4.980060355019413 0  1.676697585305984 -5.547101897225158 0  4.773518305133987 -3.729331162566817 0  4.77931803486508 -6.231222307502165 0  4.878549698409591 -8.72048903376362 0  4.852580875634024 -1.222215410052823 0  0.5487847095754042 -2.675169258708207 0  0.545113423825768 -7.32369553390529 0  1.78738026998851 -4.400451872599477 0  1.68244194111824 -3.010100184333533 0  1.683984276238402 -7.018293626028473 0  9.998503440677371 -2.00585287985007 0  3.693061162502273 -3.243678395563028 0  3.694987482168253 -6.757603268814477 0  6.081763036485869 -5.83414381546261 0  0.5196640460586313 -1.350633211792632 0  0.5196640458460706 -8.649366789040087 0  3.84593363904758 -0.9906418103762418 0  3.845933620847308 -9.009358200471317 0  17.41551885287501 -3.057748733689079 0  17.30725517812527 -7.002961443761516 0  8.117698464370697 -4.451550942597151 0  0.4918476668493152 -0.4789811193757592 0  0.4918476560347713 -9.521018882514893 0  1.463770869328428 -0.6252343353791154 0  1.463770854281917 -9.374765668872765 0  0.5034132782032188 -4.464280853772128 0  3.138906271796685 -4.99999841599503 0  14.61209972381335 -2.388610981020637 0  6.208601124947327 -8.776231214192325 0  14.74910972998159 -7.542186851303819 0  2.243794246335625 -1.632184311040998 0  2.243794245689214 -8.367815689183566 0  0.4590235278399923 -5.431413993025926 0  0.4971508861448406 -2.209632053221267 0  0.4971508861368665 -7.790367946777407 0  0.4644363683211541 -3.560571347760519 0  6.478811279411406 -7.007392971062433 0  1.238895267772762 -4.173677632458826 0  1.293241773632479 -2.02256720952064 0  1.293241773542714 -7.977432790434841 0  0.4324740478030531 -0.942028985507247 0  0.4324740423701829 -9.057971014492754 0  2.117396640811705 -3.472968170680347 0  2.107095929630507 -6.531506384346077 0  8.087741545730886 -1.392783601483453 0  1.028911946384717 -1.352376108341404 0  1.028911946221715 -8.647623891551962 0  4.05691976296832 -4.991522392209158 0  11.51826881314265 -8.065248940008736 0  1.618560396201739 -4.958056164503666 0  2.701984523487646 -2.141781914603403 0  2.70198452396172 -7.858218085853512 0  2.843615645746219 -9.289121726447632 0  2.843615661334342 -0.7108782798429658 0  8.678774612240533 -8.488146490452822 0  6.487906449371135 -2.667543558824978 0  8.369190916679937 -7.129867754908394 0  11.80978191929258 -4.655775487536958 0  0.3792065166453504 -3.113833531412848 0  0.4134714637263563 -6.58827691137208 0  9.551050695080825 -3.49648183875815 0  1.083867845277057 -6.036251777836495 0  0.3756430921870901 -1.80381664325008 0  0.3756430921689482 -8.196183356748573 0  3.113073783220456 -3.503408140759125 0  3.113391383189963 -6.496678880796299 0  22.62850736315072 -3.277987336300344 0  22.59385352108348 -6.800312122582239 0  0.3777114402537816 -4.137047872695438 0  0.9196816123347897 -0.4281025456111269 0  0.9196815944880363 -9.571897460530383 0  0.4052043328723194 -5.827814332459883 0  8.865857694874787 -5.767686953139113 0  1.200388325130726 -5.182186034620629 0  5.65297436943758 -4.325500846767599 0  1.200079167961391 -3.009849046583253 0  1.20883344838 -7.021823297793294 0  1.057642414577487 -3.660996704809145 0  10.88812987788297 -6.333458225047037 0  4.493502926606794 -2.839780197438185 0  4.485862892033458 -7.147606077919463 0  0.3631651408878085 -7.003529808558233 0  1.946748828463205 -6.049056369468467 0  6.918750162798794 -4.993796052442676 0  3.351203216022585 -1.980935554775394 0  3.351203216441711 -8.019064445907297 0  2.281892243515294 -2.856654416292082 0  2.281892243715877 -7.143345583598931 0  5.811143619672087 -0.9953286820321026 0  2.695713766833098 -4.565354125099452 0  2.698172168139827 -5.435483248292925 0  19.86166219288896 -2.493475492328429 0  19.83739102036415 -7.594404063416508
[...]
<PointData  Scalars=" mean stress"> 
<DataArray  type="Float64"  Name=" mean stress"  format="ascii">8.6784291661281432e-02  3.0071543483838667e+02  5.3895123242126620e+03  3.5082937395999221e+02  1.2938268847734918e-01  1.5479706845724217e-01  2.1789553835900041e-01  3.5023979688535911e-01  5.0719872556490897e-01  7.1546216182395883e-01  1.0404256979343807e+00  1.2667200363392164e+00  1.7169289570069259e+00  2.2636812083736237e+00  2.8077536105288035e+00  3.3569362646745211e+00  4.4274724404448875e+00  4.9814913298660839e+00  6.3885662259928955e+00  7.4817572771964933e+00  8.7919206597228818e+00  1.0898527060788240e+01  1.2146862093680868e+01  1.4219636163358494e+01  1.7110000722485832e+01  2.0359615318530214e+01  2.3303902968410139e+01  2.6514261991516449e+01  3.0823296447194199e+01  3.5232543216008786e+01  4.3832467373930939e+01  5.2173102526382209e+01  6.0527984198912527e+01  6.7432181859054978e+01  8.6400466665892495e+01  1.0445242688585601e+02  1.1953672879280677e+02  1.4976405935529021e+02  1.6073600608759452e+02  1.8894886722127461e+02  2.1463735236595650e+02  2.2874485312249664e+02  2.4497149313385478e+02  2.6091440257040426e+02  2.6429334661405528e+02  2.6350116398177062e+02  2.7256827565604749e+02  2.8316726755349009e+02  2.8630421724871422e+02  2.7229912216975509e+02  2.7838039606634658e+02  2.8245270011550321e+02  2.7370150499479894e+02  2.8990420998266370e+02  3.0901844222585424e+02  3.6130252299690426e+02  4.0618890285682551e+02  5.3770471591504349e+02  7.6432484881945720e+02  1.3141099894190793e+03  1.5643144713266408e+03  9.5061497614480538e+02  6.4872140857461989e+02  4.5473521445780324e+02  3.5878231093494941e+02  2.9549756721541132e+02  2.4275298273689714e+02  2.1685786666526880e+02  1.8586044092689781e+02  1.7087702106289510e+02  1.5414984557375755e+02  1.4818674444179956e+02  1.4492054061408501e+02  1.4554040936003406e+02  1.4893889581582181e+02  1.6442164635256304e+02  1.8599916995789724e+02  2.5041992787967686e+02  4.1782200717316186e+02  7.5123219124349953e+02  5.3498635447737115e+02  2.3072097067086978e+02  1.5718177565871770e+02  1.1862686446093740e+02  9.4077997668503144e+01  7.8148357936047802e+01  6.5834018156544658e+01  5.9585164682292231e+01  5.4704094753164000e+01  5.1337687698436831e+01  4.7516225869658079e+01  4.7297575293539751e+01  4.6699180446970317e+01  4.7274929424632582e+01  4.9699290417676806e+01  5.0457714775107902e+01  5.4632348948266213e+01  5.7096322933034614e+01  6.0953045649141707e+01  6.9743274019604982e+01  7.6844323067192533e+01  8.7367754811779960e+01  1.0323349460318431e+02  1.1882450114563760e+02  1.4989073940131863e+02  2.0404794967921265e+02  2.5230968653459533e+02  3.6647660805662059e+02  1.9694076849431821e+02  1.2613373501780904e+02  1.0025069806341433e+02  8.0883058921886473e+01  6.9418456173425739e+01  6.0919220651073921e+01  5.4491082336273784e+01  5.0442020299821415e+01  4.6252362865542132e+01  4.3597798089871020e+01  4.0627951925511020e+01  3.8512823386635951e+01  3.6529573636591444e+01  3.4982168283856900e+01  3.3246511767583414e+01  3.1976689963276097e+01  3.0712409300632899e+01  2.9436787067691995e+01  2.8273266495209668e+01  2.7234879430847524e+01  2.6268464090386082e+01  2.5322389929292608e+01  2.4363812556272670e+01  2.3475827594005494e+01  2.2593703284401510e+01  2.1824669112592758e+01  2.0904614153300251e+01  2.0104267359382263e+01  1.9277811968806787e+01  1.8541502331808598e+01  1.7718416282033083e+01  1.6966777573082084e+01  1.6177914128244311e+01  1.5441412237826757e+01  1.4666963756378694e+01  1.3975150008071832e+01  1.3259183784075729e+01  1.2548497504039986e+01  1.1864072497722743e+01  1.1194994508557825e+01  1.0502869555975932e+01  9.8625186918569678e+00  9.2376231009038268e+00  8.5782448337268598e+00  7.9640264060829047e+00  7.4226763793888404e+00  6.8193737858353067e+00  6.3069307650750703e+00  5.7656976354923719e+00  5.2301714291526755e+00  4.7893235564948098e+00  4.3182718683084005e+00  3.8934506558383410e+00  3.4165068930223703e+00  3.0596698459171794e+00  2.6734965661794927e+00  2.3420404099215055e+00  1.9967874778962162e+00  1.7014944022903420e+00  1.4146638102282063e+00  1.1839920443419829e+00  9.4334602193810624e-01  7.3112075921523401e-01  5.6057141966064539e-01  4.3853544641743919e-01  2.6523800834064765e-01  1.9697361664520283e-01  2.5822258800844722e-01  3.3010926110308745e+01  5.3130272431494859e+01  1.1530923956511078e+01  2.3331874783964011e+01  4.8823495809062472e+01  3.3995808284725224e+00  6.5097863141425933e+01  1.1367342545310512e+01  2.7693710650040273e+01  6.4646376533802055e+01  1.9830419389773997e+01  5.5598253989030502e+00  3.3318044508777113e+01  1.5376015537558558e+01  1.7038794681921968e+02  4.7298957085922268e+01  1.9773922590570226e+01  7.1782538757267460e+00  6.7638740462531757e+01  3.8944652057210284e+01  2.3579243592293189e+01  4.1991612737712771e+01  1.1992949476970607e+00  6.1686358836484928e+01  2.9565026370373904e+00  7.7967502408070786e+00  3.9436342032333386e+01  2.6348208908449042e+01  2.4968364156258076e+02  1.0760241801119674e+01  3.1665765876610081e+01  7.3411989924964615e+01  8.8783725241253606e+01  1.3255934320612443e+01  7.6078047299261584e+01  9.6321173273448622e+01  1.7646232219352306e+01  3.6170619440859035e+01  3.4195016439228482e+02  6.7960874020421311e+00  4.5434957451889510e+01  1.2758409786276863e+02  2.2103015626385051e+01  3.5928209893142680e+00  6.2725111748225899e+01  2.6089027103083858e+01  1.5487920366267492e+01  2.3466401303671724e+01  2.3038003999678196e+01  4.8465877365791783e+01  7.6447422154713095e+01  1.4889380295144209e+01  5.2913839987356734e+00  2.9618355726637375e+01  1.6499998380932499e+01  8.7495218145140967e+00  3.4428943911745364e+01  6.0400548464020353e+01  1.6649355918010421e+01  5.9426638211196604e+01  4.1854853923878579e+01  1.7325848206870293e+00  4.6058153504941075e+01  9.5034644335671974e+00  6.8742279379322312e+01  2.0184888199173272e+02  2.1428108119702648e+02  4.3074760370308823e+01  4.8534948076794532e-01  8.8330894508507782e+01  1.8011117491889250e+00  6.8550245836648614e+01  1.2690720850062688e+01  2.9625703075023036e+01  1.5175331529173843e+02  8.6708977574810902e+01  1.7789970486066343e+02  5.4901213137197074e+00  5.6364990551182480e+01  1.7649504961474349e+01  3.7775394920295029e+00  3.3640406736150098e+01  8.5809805271950719e+00  5.5311503326646722e+01  1.3065672963837118e+01  4.2667139492797714e+00  4.0020897095321047e+01  9.4966934623212096e-01  5.8087894386507344e+01  1.2350359248422871e+01  3.5188648218875592e+01  3.8630531483857887e+01  2.2693026644114727e+00  4.8445077308631276e+01  3.2065151615229070e+01  1.3730777711693179e+02  1.9107677896133890e+01  8.2141217653907290e+00  5.8218182061747193e+01  6.1203498246922898e+01  5.4891589251937170e+00  1.0576127809094449e+02  2.6684581603090312e+01  6.6182750126861634e+01  9.5175768621035516e+01  6.7096912022640778e+00  2.4217635593424273e+01  5.4373588052560059e+01  2.3138682405662493e+01  2.5951873661388487e+00  3.8077424909122712e+01  1.6316882353431158e+01  4.8482187393500894e+01  2.6283301536124333e+02  3.3053416926355720e+02  1.1154152539622439e+01  8.1972906910029586e-01  8.4425416444313726e+01  1.9809732345779210e+01  5.6102191335398615e+01  1.8438350220162388e+01  2.9347042155446072e+01  7.5835699045975886e+00  3.0466288622931359e+01  9.9732533825173881e+00  8.9938239059352526e+01  1.7459150490042575e+01  6.5158951857663141e+01  2.6940325761433673e+01  2.9338503772067387e+01  3.8015449415079999e+01  9.9587309167269886e+00  7.2669183323157895e+01  9.9205304566102370e+00  4.2598063751836442e+01  2.0444319944459924e+01  2.2593541426462981e+01  3.0718091947947062e+01  2.3361654648944216e+02  2.5822324752545376e+02  2.4088620649378157e+01  1.3023165391661331e+02  2.8726795657713205e+02  5.4025003208867349e+02  5.6547974289201818e+01  2.3261444377071756e+00  5.9152453452869587e+00  3.8163948089857087e+01  8.4457189672370589e+01  4.1484248505504109e+00  3.5335085697438572e+01  5.2066304004819166e+01  4.1055404312601837e+01  1.2640059863305428e+01  6.8125914230147032e+01  1.2471367978610459e+02  2.6431330097162753e+01  1.6096049714440150e+02  4.9413857642395858e+00  4.5858798259807521e+01  2.5894048242137114e+01  1.4162451232555890e+01  1.0672966810621664e+02  2.4392585011781978e+00  6.5958025049307921e+01  2.7167632367751043e+01  1.4509784852417366e+02  1.4000560480213485e+01  1.2821527531501326e+01  6.8482500814240254e+01  2.0544921175190456e+02  1.5519759159287219e+01  7.6323363267217587e+01  2.2313719611980794e+01  2.2207339832792027e+01  1.5929803024873818e+01  6.7547794554994269e+01  1.2364926340215829e+01  7.5241109773041913e+01  1.9186288395494866e+01  3.6241099680714628e+00  6.0333443177850036e+01  3.3948223089027509e+00  5.6964535962138960e+01  3.1905152904720044e+01  7.7499083966130641e+01  1.2035113818083046e+01  5.2100684841937579e+01  9.7507503347233619e+00  6.5311293881358967e+00  2.8802462551175594e+01  3.3112507641529227e+01  7.2844872689148508e+00  5.8705336717509496e+01  4.4285786892512178e+00  3.0858502376446506e+01  3.4938548830350413e+01  4.0347642574725640e+01  5.7320063464628017e+00  3.0604609234181523e-01  1.1786515172406403e+02  4.3350373403294171e+01  1.3256348373962714e+01  2.0668569803015757e+01  4.0160124364274047e+01  7.8893364845672167e+01  3.6644465752685051e+02  1.8208354163860460e+02  1.8307097441246157e+01  5.6622021560621100e+01  6.1721225169586646e+01  5.0982880103527464e+00  4.9167125041973570e+01  7.4997052484508146e+01  2.1674901626117400e+01  3.1172832460195945e+00  4.2842611896882666e+01  1.7334846837037372e+01  2.9399116227603496e+01  1.8965727592012854e+02  2.0634670393166800e+01  9.2108170656039476e+00  1.4418047267813924e+01  2.9930494617351428e+01  8.9001852673995163e+00  7.2631707005571712e+01  1.5789504806026054e+02  2.6484138036076860e+02  4.5119144667098294e+02  5.3170426827132005e+01  1.3533115752360032e+00  1.6371762480945165e+01  1.9218229306331653e+00  1.3442199270276811e+00  4.8268177225719768e+01  4.1915765596697952e+01  1.7601056097199347e+02  1.5209603158716911e+01  5.8099989201611024e-01  7.0660450350017584e+01  4.4493773315434147e+01  2.8570673058341331e+01  1.5921901938810379e+01  1.2393332366429727e+01  7.4200524087086123e+01  1.0633118307518183e+01  8.0605353021592109e+01  1.1703286611590022e+00  2.3943554916492271e+01  1.9341255638855196e+02  2.5298173618996923e+01  9.5368568479041027e+00  5.2425293817305977e+01  1.2776761359110557e+02  2.2500311166025639e+01  5.3650812822205907e-01  1.0500176777260505e+02  4.7336463677925394e+01  4.5013053901613290e+01  7.5654844660853273e+00  4.5918572509311817e+00  3.2163662099564718e+01  3.2264623050791319e+00  3.4432225857028946e+01  1.3717375357123924e+01  2.7665888248521142e+01  6.9588020134685493e+00  3.3871531561023474e+01  1.2735979977931080e+00  6.9636183497225602e+01  7.5205755919049082e+01  3.4747316487382129e+01  2.8263227691564026e+01  2.0862801327908901e+01  1.9697058606796446e+01  2.3256606302982901e+00  4.3608895561375952e+01  1.8374646579751424e+01  1.4759819272974084e+02  6.3187196108723327e+01  2.5764182906736188e+00  3.6032802615621065e+01  8.6239520592138117e+00  4.8931483920114516e+01  7.0535390351206582e+00  6.5944665004164619e+01  2.6799682332258421e+01  6.5831891066652986e+01  7.8793328356806329e+00  3.9051331701594009e+01  2.0966264259540097e+02  2.2264866218598078e+02  2.2483032497436415e+01  4.6990084934124809e+01  2.3722881903578671e+01  3.1464970275005072e+01  2.8005324286860139e+02  6.7606392883124489e+00  5.2567006495303303e+01  1.1187741336691978e+01  1.3830267860079477e+01  5.8674340820106444e+01  4.9913526960557974e+01  6.8572639588607540e+00  6.1128373950216691e+01  1.5003476389643401e+01  6.9278421965392084e+01  2.3073776510692502e+02  2.1243696947461856e+01  4.3740055447445565e+00  5.1625185849481120e+01  1.2436713619884746e+02  1.9273168590111911e+01  8.7406661557209819e-01  6.6780919462170644e+01  1.0401802606120519e+01  6.2543500115459324e+01  3.3020294633689687e+01  5.6731465008871908e+01  7.6313430807414704e+01  5.6042001656719279e+01  1.7325291762225008e+00  1.6858972923912166e+00  7.1611686572620442e+01  9.3136944656269751e+00  5.8309543883531262e+01  1.0502106273568722e+02  2.5161024613706285e+01  1.6857439819249660e+02  1.1801532987613584e+01  1.6773883100551279e+02  2.2405019932516396e+02  8.2659186126900892e+01  2.0389268228882262e+01  1.4917389600142684e+02  6.3168033315581003e+00  1.0650385635589348e+02  1.0367660455455065e+01  3.6606948710237553e+01  2.3924305489621116e+01  7.6787065784335311e+01  1.1119364103044639e+01  1.8782466748971117e+01  5.8478544276938848e+01  7.8824420169700659e+01  3.4662945029597665e+01  2.5037055544569398e+01  5.8525856105161623e+01  3.6644643632998930e+00  3.8821395248304995e+01  3.1312457020374684e+00  3.6642656165111759e+01  1.7333858965822401e+01  5.4899944809315592e+01  1.9033084800011199e+01  1.6145718801230609e+02  8.6291898006936152e-01  5.7478684906228906e+01  2.2910668133282974e+00  4.1047668739754286e+01  7.7003946295822718e+00  1.6980263641562260e+01  5.4891745179983493e+00  3.0711644516690303e+01  2.7250233266025848e+01  3.1009216718030035e+02  2.3963054201300653e+02  2.7657915954768963e+01  8.0941593208584905e+01  4.6708513254324252e+01  8.5516267675391848e+00  7.0242836052611850e+01  3.8547568158914842e+01  1.5551935839512475e+02  3.2051121281856830e+01  2.7208975969215238e+01  9.8824041673919414e+00  4.5979196381521952e+00  3.7177752823340889e+01  3.0564199416481134e+01  1.4741160685466138e+01  1.8037556553413282e+02  1.4078456804302952e+01  5.8802030819122990e+01  4.4834727539841595e+00  3.4141724782831531e+01  6.4220868634075984e+01  1.4133954297513776e+02  8.6600285619613810e+00  3.6494673460388626e+01  1.4710981018518298e+01  1.5797413963846626e+02  4.5097866427248805e+00  6.3348022104359600e+01  2.7859317402284370e+02  2.4548913413083159e+02  1.1791945256417740e+01  4.2076931925054417e+01  6.5868222152214813e+01  2.7172902025308304e+02  1.0200996860708216e+03  3.8463660595480128e+01  1.2223428047657704e+01  1.0637617487688675e+02  5.9959454805724057e+00  5.6350167986066033e+01  1.9905988094052272e+01  6.5727198654568806e+00  6.3726619451825862e+01  6.1928384232975581e+01  1.6595990638159851e+01  2.3480534833130836e+01  4.9843233383538006e+01  2.6771262561045317e+00  9.6125973959500001e+01  1.0508416589940222e+02  3.7379862914205525e+01  1.1506453118353274e+02  3.1267534846111491e+01  1.6020167858235371e+01  4.3378449117970867e+01  4.0832610980542139e+00  4.4693192679532679e+01  6.5261828597874967e+01  8.4628575855215686e+00  4.7156111428629536e+01  2.5045796212409147e+01  2.1981389131543771e+01  1.5652111541734762e+01  7.2824912391329434e+01  2.4455250721109397e+02  4.1287509604446444e+02  1.0846225492258840e+02  4.8785339560934551e+00  4.2112021931428472e+01  7.3350262767293395e-01  7.9285656026619250e+01  2.6767565844412825e+01  2.5200468275916825e+00  3.7594846499227067e+01  8.5185224272469355e+00  2.1041414302877570e+01  1.1817703084056840e+01  7.2721960371516900e+01  4.4473927432897618e+01  3.9974155718815485e+00  3.1922409625822986e+01  5.9011321423913614e+00  6.5176990061622959e+01  5.4896052700452167e+01  4.5874899239797680e+00  1.3428019232944144e+00  5.0562886823167844e+01  2.9517916094268028e+01  4.6585027672677768e+01  2.3207287276727108e+01  5.2382045010550202e+00  4.1064566505089019e+01  2.6258726584552232e+01  3.9361913457364714e+01  3.3474721131667085e-01  1.2592587022372908e+02  3.4469871403649088e-01  9.3747504851307212e+01  1.3174430019519376e+01  1.7241033500222208e+01  2.6461446789462347e+01  3.5517382359120631e+01  1.0237021774085823e+01  6.3450702130739787e+00  3.1086896245949852e+01  2.2808745757582219e+01  1.9640453585298648e+01  2.5718614702235246e+01  2.5980174577884448e+01  2.4836883506329976e+01  7.3422553108063475e+00  1.1386731268618734e+01  1.2372856015824978e+02  2.7481029458376486e+01  2.7442025890314895e+01  1.8594430810282223e+01  3.0758447414571397e+00  5.7399071148162044e+01  8.4607543849515864e+01  8.0613620962596642e+01  4.1215090605683926e+01  1.1412627846084799e+01  5.1676059042656142e+01  2.8595622026991975e+02  1.4073182914814755e+01  1.8193858272846338e+01  3.0468964521465974e+01  8.4044885740288822e-01  9.0139901438397260e+01  7.5351747625357149e+01  1.2195699916540876e+01  7.4116202894438899e+01  3.7433781975801871e+01  1.0145800322003170e+02  5.7611281107407155e+00  5.0185030426363532e+01  2.5389537235331300e+01  3.2353002564774961e+01  1.1632930137978782e+02  6.3783973142683656e+01  1.8206288734360143e+00  1.7620010045980823e+02  7.0093150457778464e+01  8.3396334639472922e+00  3.2972656019057473e+02  4.6317700340809171e+02  2.0948028401839952e+01  1.4663933766935401e+02  2.0596778540889608e+02  1.6295235504509190e+01  2.3236416867041839e+01  3.5904529934690970e+02  8.2739845994901302e+01  7.5520477758683228e+01  1.7172516741745969e+01  2.0170968697264282e+01  1.3563335101964038e+01  3.2404670775215857e+02  4.1655957774182895e+02  1.3214365511710334e+01  5.0959626027257166e+01  8.2600911996764843e+00  2.4421103160220213e+02  4.6113596219163973e+01  1.8096587063469670e+01  3.9721694217762519e+01  1.8530562158196474e+01  6.7121547278305329e+01  1.6339465807964006e+00  4.4859769508556816e+01  1.8963672829404647e+01  8.2362124657512066e+00  4.3666038539730671e+01  7.4628448187953083e+01  1.0659462433907828e+01  4.8350323895743017e+01  1.9297677718175827e+00  3.0136469036477136e+00  5.4241433838747987e+01  2.1701401024649069e+01  3.1571133523241617e+01  1.5876695062027892e+02  1.9125088814134314e-01  4.8730176579858187e+00  3.3420009820631478e+01  2.8081156126475626e+01  1.3878839893451364e+01  2.9718228419195562e+01  6.6196575543476612e+01  2.6914021905554165e+02  6.5294667188142898e+02  2.3091779001010340e+02  2.4260541146930203e+02  7.1042689973236890e+01  1.6461453514230570e+01  5.4849161912587476e+01  1.9020372769176731e+02  1.6404354496893487e+02  6.3919892788976760e+01  7.6872929093746436e+01  1.0389939676345330e+00  7.0466905322823948e+01  2.2152635667486891e+02  5.5858111707704969e+00  3.6121798318819984e+01  1.0963896873640509e+01  4.5863924326015223e+01  3.7088048088138601e+00  3.5228119070042752e+01  9.8598381230482630e+00  5.4911240409150551e+01  1.1928437077215714e+01  7.8038723421662795e+01  1.3845571120572787e+01  2.2356684977201969e+01  4.8692014434980734e+01  1.4287263155516058e+01  7.4867882678126552e-01  6.7299331862312854e+01  1.8187483608510064e+01  1.0299961406661943e+01  4.2305149231738653e+01  2.4821484808145108e+01  3.0194918027798181e+01  6.7887592970813246e+00  1.1777689864940479e+01  5.3724904447759279e+01  1.8860155600662253e+02  7.9278142157157291e+01  1.5035478893637798e+01  3.3761365962575507e+00  6.3355467613593895e+01  4.2793391522813629e+00  3.2136757729393445e+01  1.4957746600600009e+01  2.0836380843071250e+01  3.6025585238213182e+01  1.9380727227282725e+02  1.6095331123353540e+02  6.1330040112736430e+00  4.1994166061789095e+01  2.7874807947028675e+01  1.8368237995067322e+01  6.8941077300741796e+01  3.4469945827943711e+01  1.0589143730720339e+01  3.1747552958405052e+00  3.5459538256927424e+01  1.3759122156785933e+01  1.5439562056282290e+02  5.7185584675261715e+01  1.0827616050599667e+01  2.0959449416196332e+01  6.0881381247642468e+00  5.7882415741588026e+01  1.1557336134801712e+00  1.7725233054103236e+02  1.4066590555628204e+01  5.4630255823308850e+01  5.7716387447368810e+01  1.5947924310636534e+00  5.4720159614611049e+01  1.0384889574866545e+01  1.3275942667859541e+01  3.2901896015274204e+01  8.9510589238346967e+01  2.5041810009177009e+01  1.6878454831070023e+01  2.7335188356525069e+00  4.2351548584910503e+01  3.8268474635389985e+01  1.4064015661221299e+01  2.5316297187613768e+02  1.7476565307069629e+02  2.1449947310816139e+01  2.1242189108767158e+02  3.1910009021732659e+01  8.3575459060706585e+00  6.5499612089935809e+01  1.1027015192297804e+00  5.2509353294953797e+01  9.3124928396988096e+01  1.1854018719200951e+01  5.9694839947111234e+01  7.0288641397249807e-01  6.4643985956431592e+01  1.9825480278614853e+02  2.5