<?xml version="1.0"?>
<VTKFile type="UnstructuredGrid"  version="0.1"  >
<UnstructuredGrid>
<Piece  NumberOfPoints="1121" NumberOfCells="2112">
<Points>
<DataArray  type="Float64"  NumberOfComponents="3"  format="ascii">0 0 0  0.5 0 0  0.5 -0.22 0  0 -0.22 0  0.0125 0 0  0.025 0 0  0.03750000000000001 0 0  0.05 0 0  0.0625 0 0  0.07500000000000001 0 0  0.08750000000000001 0 0  0.1 0 0  0.1125 0 0  0.125 0 0  0.1375 0 0  0.15 0 0  0.1625 0 0  0.175 0 0  0.1875 0 0  0.2 0 0  0.2125 0 0  0.225 0 0  0.2375 0 0  0.25 0 0  0.2625 0 0  0.275 0 0  0.2875 0 0  0.3 0 0  0.3124999999999999 0 0  0.325 0 0  0.3375 0 0  0.35 0 0  0.3625 0 0  0.375 0 0  0.3875 0 0  0.4 0 0  0.4125 0 0  0.425 0 0  0.4375 0 0  0.45 0 0  0.4625 0 0  0.475 0 0  0.4875 0 0  0.5 -0.00916666666666667 0  0.5 -0.01833333333333334 0  0.5 -0.02750000000000001 0  0.5 -0.03666666666666668 0  0.5 -0.04583333333333335 0  0.5 -0.05500000000000002 0  0.5 -0.06416666666666669 0  0.5 -0.07333333333333336 0  0.5 -0.08250000000000002 0  0.5 -0.09166666666666669 0  0.5 -0.1008333333333334 0  0.5 -0.11 0  0.5 -0.1191666666666667 0  0.5 -0.1283333333333334 0  0.5 -0.1375 0  0.5 -0.1466666666666667 0  0.5 -0.1558333333333333 0  0.5 -0.165 0  0.5 -0.1741666666666667 0  0.5 -0.1833333333333333 0  0.5 -0.1925 0  0.5 -0.2016666666666667 0  0.5 -0.2108333333333333 0  0.4875 -0.22 0  0.475 -0.22 0  0.4625 -0.22 0  0.45 -0.22 0  0.4375 -0.22 0  0.425 -0.22 0  0.4125 -0.22 0  0.4 -0.22 0  0.3875 -0.22 0  0.375 -0.22 0  0.3625 -0.22 0  0.35 -0.22 0  0.3375 -0.22 0  0.325 -0.22 0  0.3125 -0.22 0  0.3 -0.22 0  0.2875 -0.22 0  0.275 -0.22 0  0.2625 -0.22 0  0.25 -0.22 0  0.2375 -0.22 0  0.225 -0.22 0  0.2125 -0.22 0  0.2 -0.22 0  0.1875000000000001 -0.22 0  0.175 -0.22 0  0.1625 -0.22 0  0.15 -0.22 0  0.1375 -0.22 0  0.125 -0.22 0  0.1125 -0.22 0  0.09999999999999998 -0.22 0  0.08749999999999997 -0.22 0  0.07499999999999996 -0.22 0  0.0625 -0.22 0  0.04999999999999999 -0.22 0  0.03750000000000003 -0.22 0  0.02500000000000002 -0.22 0  0.01250000000000001 -0.22 0  0 -0.2108333333333333 0  0 -0.2016666666666667 0  0 -0.1925 0  0 -0.1833333333333333 0  0 -0.1741666666666666 0  0 -0.165 0  0 -0.1558333333333333 0  0 -0.1466666666666666 0  0 -0.1375 0  0 -0.1283333333333333 0  0 -0.1191666666666666 0  0 -0.11 0  0 -0.1008333333333333 0  0 -0.09166666666666665 0  0 -0.08249999999999999 0  0 -0.07333333333333333 0  0 -0.06416666666666668 0  0 -0.05499999999999999 0  0 -0.04583333333333331 0  0 -0.03666666666666665 0  0 -0.0275 0  0 -0.01833333333333334 0  0 -0.009166666666666684 0  0.1054583333333335 -0.1054166666666667 0  0.3942676334017064 -0.1137728325038039 0  0.2847879184121186 -0.1095588156798053 0  0.1945032948335413 -0.1282408799476467 0  0.06153506715537374 -0.1512727221728088 0  0.4399056412223469 -0.06797859302281792 0  0.05788181883779472 -0.06001948808334377 0  0.4421098014386607 -0.1599837267347342 0  0.3413511741034609 -0.06957267157055583 0  0.2288650014326337 -0.07000139022125416 0  0.3374198095657364 -0.153292781564552 0  0.1625149941501948 -0.06635759941053934 0  0.1410798075665959 -0.1547982873744018 0  0.2480541718311375 -0.1584999930406966 0  0.4521112869309225 -0.1144576824167908 0  0.04769384748510372 -0.1054790589784799 0  0.2872553124970689 -0.0549183148201307 0  0.3883603170589741 -0.1667590078701163 0  0.1113816725357426 -0.05349980002187416 0  0.388663619148569 -0.05083099728992514 0  0.2924675002385118 -0.1733355444551434 0  0.03957129721715399 -0.1820306497250263 0  0.463886478278041 -0.04123097885421483 0  0.1819898664669143 -0.1745112248447572 0  0.1501955722423063 -0.1126410264576243 0  0.2381168692527681 -0.1138631020717532 0  0.09896708868237117 -0.1743617443889283 0  0.351521105495953 -0.110482033201648 0  0.1944214316144394 -0.04364751139729321 0  0.4676096572335854 -0.17875 0  0.0323903427664145 -0.04125 0  0.03139627442974444 -0.07791666666666666 0  0.4686037255702555 -0.1420833333333333 0  0.03146427625974824 -0.1353922207127977 0  0.4687538427589449 -0.08499498352404596 0  0.1945393885069078 -0.08884182758867265 0  0.2525813348104176 -0.03744007417230172 0  0.3217010222371471 -0.03764154129720884 0  0.4222469886470394 -0.03586904090069724 0  0.09663319060065351 -0.1401271138728219 0  0.2193792666828137 -0.183158231426584 0  0.3560154827479793 -0.1838943099753877 0  0.1434582748922029 -0.03603411582704523 0  0.3765333185963097 -0.08241017292348579 0  0.07538111331820632 -0.08899587837746269 0  0.423855991190923 -0.1306886077643884 0  0.3185210010305527 -0.09753607818954631 0  0.3569762884570115 -0.03650734503769727 0  0.4254213410091923 -0.0987078979590463 0  0.2610082403268991 -0.0817800662321487 0  0.0828105113527246 -0.0341734786714956 0  0.4171399376253134 -0.185803221952863 0  0.3057870365127394 -0.1382026892003179 0  0.12895829204953 -0.08335230948371621 0  0.06875298785225953 -0.187362820013113 0  0.3717868049890677 -0.1386048615715364 0  0.321448533906611 -0.1855116827647124 0  0.26298072168791 -0.1839420817131204 0  0.07484000163200957 -0.1198633334100699 0  0.1547686158654376 -0.1863750548878711 0  0.216059367308573 -0.1515159536473182 0  0.2699691944498949 -0.1417527519042215 0  0.1656185503016955 -0.1403556565429203 0  0.4083071195762781 -0.07378364169239227 0  0.1267131755037155 -0.1278660972450704 0  0.4735015828166597 -0.0640900788079139 0  0.02554956908977171 -0.1556408100003981 0  0.4768150825846236 -0.1145833333333333 0  0.02318491741537634 -0.1054166666666667 0  0.223953700752457 -0.0304451531933032 0  0.1244872804067221 -0.1907232817427361 0  0.4438735214118281 -0.1930008132865749 0  0.05574102313663398 -0.02865323925202035 0  0.4137204188713657 -0.1553454939163003 0  0.08893893095617791 -0.06579816339826482 0  0.1717694871603352 -0.02800139159048265 0  0.3128492556460914 -0.06943040619515532 0  0.2797695783739821 -0.02590934499649085 0  0.02258333333333329 -0.1970833333333333 0  0.4762493762769904 -0.02160603458451191 0  0.4793770768812318 -0.1979934752448725 0  0.02062142143957255 -0.02200567641944876 0  0.1164030865048185 -0.02740272745133866 0  0.3830675041448486 -0.1925667518381948 0  0.4791226873505327 -0.1610342148373401 0  0.02087731264946724 -0.05896578516265992 0  0.3274724693986852 -0.1225305077389053 0  0.3972801610854721 -0.02625449066011495 0  0.2900140160514686 -0.08365001034985962 0  0.1709547781797311 -0.09465470820062212 0  0.2138438311308281 -0.1099941211103435 0  0.4450205721789285 -0.02492933314930469 0  0.05420467580227878 -0.08349945672846135 0  0.4461329107542346 -0.1367113815538408 0  0.3659666316461785 -0.05978339436610505 0  0.44602790301578 -0.09307279226297782 0  0.1051970245947556 -0.08027435556391044 0  0.05333928713341426 -0.1272409570081178 0  0.3959065276465774 -0.1392957050603055 0  0.1954280839215327 -0.1956301054107469 0  0.1114114251973984 -0.1581699686077357 0  0.1861203385256373 -0.06601416834570389 0  0.2411653975579025 -0.1955923650394697 0  0.3655092946697883 -0.1617364087021952 0  0.135090011654307 -0.05852644219278214 0  0.301466572149827 -0.195730962509487 0  0.3171403096460815 -0.1628017925003279 0  0.2583110626374412 -0.1046341192205865 0  0.4408293443687437 -0.04585722764353674 0  0.2712011044137034 -0.1640374945295207 0  0.2411933721253841 -0.08983355018053346 0  0.2501709838730871 -0.1314559421109842 0  0.4829353992284747 -0.03936718280336758 0  0.01826814268142685 -0.17875 0  0.08176459786747367 -0.1581134879103219 0  0.09090727073593149 -0.1966179220907174 0  0.1938567422944586 -0.1528508759815354 0  0.1733129361306733 -0.1172649579021292 0  0.1296640686621583 -0.1060858859555111 0  0.05006156132458137 -0.1998033571646454 0  0.162505650870633 -0.1635353305739766 0  0.30277270753554 -0.02336446206680166 0  0.04392010531002208 -0.1476919574928456 0  0.4570380569409145 -0.07105832940298668 0  0.2509935571465481 -0.06292905082461901 0  0.3948833058972995 -0.09019561948060845 0  0.4598195232581849 -0.1577532743262658 0  0.04018055885339097 -0.06224663359087233 0  0.1730418602576066 -0.1983511585214162 0  0.354008461825654 -0.08842076759065362 0  0.373211974938222 -0.1031515537153039 0  0.3385725936424656 -0.02355841481827918 0  0.05693481862827446 -0.1711111761535942 0  0.2226017506701603 -0.1306213423698554 0  0.4834446118625366 -0.09366667033152501 0  0.01655538813746335 -0.126333329668475 0  0.4825096030146118 -0.1326572162395438 0  0.01749039698538812 -0.08734278376045618 0  0.3772923679603625 -0.01999366789017346 0  0.01651090378487999 -0.1420833333333333 0  0.48348909621512 -0.07791666666666669 0  0.2083850969976113 -0.06098599897318754 0  0.3496303726904554 -0.1333395240176083 0  0.3051888980043784 -0.1167126520442686 0  0.2175622493287656 -0.08816391583608728 0  0.421331648509181 -0.05567865783938017 0  0.2036856364456695 -0.0217459550834085 0  0.3419325538888507 -0.04719577702332296 0  0.3412491916251918 -0.1996737604301947 0  0.4838834006315611 -0.1786454571355643 0  0.01611659936843887 -0.0413545428644357 0  0.172916357627664 -0.04916537131395513 0  0.4024134926805814 -0.2009331510593763 0  0.2424815730009992 -0.02045273553971888 0  0.1462759520833398 -0.1337233768065287 0  0.2346404539413744 -0.0484884977905098 0  0.09697638824467633 -0.01835062747588986 0  0.3376316573341132 -0.1736137832302001 0  0.1473441332611047 -0.09306137774954895 0  0.434705037373379 -0.114505364151485 0  0.0768089501139663 -0.1390499296181859 0  0.2037322897871967 -0.1695319781453501 0  0.2796822656650553 -0.2007669332776081 0  0.2910707535484897 -0.1516548901144321 0  0.414355300365443 -0.1140560482952263 0  0.09372496308173206 -0.1210763918452149 0  0.3897041267298961 -0.06995384811683555 0  0.4607061536274312 -0.2009522278863767 0  0.03767528917450519 -0.01920779542340162 0  0.06550910726222195 -0.1022565085744684 0  0.05021276002452402 -0.04427151993747909 0  0.4497875067624045 -0.1757266867012744 0  0.2685456651208211 -0.05149244248160013 0  0.1924991911245588 -0.1082791409797235 0  0.4653652048205058 -0.1036696603203247 0  0.03478864406010496 -0.1162949466270758 0  0.03530598512279109
[...]
<PointData  Scalars=" Mohr-Coulomb Fs"> 
<DataArray  type="Float64"  Name=" Mohr-Coulomb Fs"  format="ascii">8.7703440181291947e-01  8.8366161089890105e-01  1.9267418749173870e+00  1.9250992477497564e+00  1.2043834178318076e+00  1.3227646754446583e+00  1.3914439868344981e+00  1.4103441751818389e+00  1.4162136119557993e+00  1.4231871342289528e+00  1.4304161281461614e+00  1.4138177596647492e+00  1.4343599231236577e+00  1.4256415620882581e+00  1.4157530291449352e+00  1.4167928755941575e+00  1.4233476080240643e+00  1.4208951106558958e+00  1.4116431033865087e+00  1.4146922519771747e+00  1.4128509874565638e+00  1.4117988828172607e+00  1.4072836890964795e+00  1.4112207183256027e+00  1.4123271162940412e+00  1.4210598970477082e+00  1.4096069946625731e+00  1.4056873917874204e+00  1.4148270678044756e+00  1.4252637715944849e+00  1.4139951391368804e+00  1.4216211388354034e+00  1.4219953193420585e+00  1.4159605840762317e+00  1.4338221504357467e+00  1.4311893703649723e+00  1.4211032833850841e+00  1.4260061516031772e+00  1.4250497203150605e+00  1.4094809889609310e+00  1.3981247178835996e+00  1.2975164562414474e+00  1.1901534765628576e+00  8.6610205736672330e-01  1.1880837719432873e+00  1.3225540725805742e+00  1.4319758182057905e+00  1.5082166469631630e+00  1.6092643905989790e+00  1.6888685941136785e+00  1.7836141642932404e+00  1.8514858138434431e+00  1.9388326079103806e+00  2.0301172205809039e+00  2.1053232763568270e+00  2.1859297530690793e+00  2.2772252398674375e+00  2.3476180813383136e+00  2.4304444636662663e+00  2.5129469671658407e+00  2.5683693060857991e+00  2.6085249849927217e+00  2.6336422393980223e+00  2.5850070297538155e+00  2.4036754018864288e+00  1.8410358746020390e+00  2.8183668515173634e+00  3.2003405815277937e+00  3.3257761214017867e+00  3.5515314411615364e+00  3.5552148665786203e+00  3.6418348540344159e+00  3.6447037761424843e+00  3.6695088514863912e+00  3.6757934983420855e+00  3.6444020313551233e+00  3.6358649306754942e+00  3.6346071427797275e+00  3.6090561823184157e+00  3.6160625005000138e+00  3.6041160497954987e+00  3.5900798084144614e+00  3.5912374694628988e+00  3.5818397217887425e+00  3.5848789476417240e+00  3.5836283959510289e+00  3.5780101598362868e+00  3.5847512480314743e+00  3.5899908042805282e+00  3.5948776702855674e+00  3.6015014333308439e+00  3.6245045184888456e+00  3.6130787158718451e+00  3.6453140721646604e+00  3.6312050623133540e+00  3.6429032056716188e+00  3.6794751543439017e+00  3.6372421443726028e+00  3.7091704586567400e+00  3.6130450174780977e+00  3.6038544968391726e+00  3.5034173752853075e+00  3.4289408214260320e+00  3.1495465303540371e+00  2.7509581281524156e+00  1.8604479302500283e+00  2.4348487998191586e+00  2.5919075447085285e+00  2.6017859627227922e+00  2.6020497027380789e+00  2.5591379497746582e+00  2.5065734357621228e+00  2.4415036034058204e+00  2.3544989624597887e+00  2.2680282912480005e+00  2.2016411736938832e+00  2.0996915221520962e+00  2.0219554003080145e+00  1.9517976663715324e+00  1.8487375042775223e+00  1.7770254406027919e+00  1.6822099361567853e+00  1.6094184663199433e+00  1.5193241449065955e+00  1.4522285523951244e+00  1.3203880668091565e+00  1.1728614416179031e+00  8.6472257179114231e-01  2.1243444780470080e+00  2.2281314248160689e+00  2.3853434196592529e+00  2.5829926691471159e+00  2.5160487362117272e+00  1.6538169679426280e+00  1.5798789176702233e+00  2.6047627280661176e+00  1.9084229473910350e+00  1.9708763432581260e+00  2.8403551160071130e+00  1.8873084982070887e+00  2.8156516166095482e+00  2.9733339298303716e+00  2.1037515624708112e+00  2.0093248404464368e+00  1.8257294785241760e+00  2.9097383504533338e+00  1.6897703505000481e+00  1.6748339008384294e+00  3.1360072494129563e+00  2.7011650536881429e+00  1.3725245350277204e+00  3.1295740741983593e+00  2.3194585980865421e+00  2.4520752691657619e+00  2.9692574058725181e+00  2.2972634520899859e+00  1.7190955563480190e+00  2.6147458512159094e+00  1.3673648667724256e+00  1.7056518706342165e+00  2.3838936059118270e+00  2.3114882733660691e+00  1.7906207055113974e+00  2.1431435356557333e+00  1.6837101668371655e+00  1.6662964184650255e+00  1.5129360216563461e+00  2.5046855892749362e+00  3.2503191394900370e+00  3.2045560630115260e+00  1.6310325920025890e+00  1.9552106253538524e+00  1.8856241019278066e+00  2.3314399315541183e+00  2.2117417647369710e+00  1.6312754060592145e+00  1.9750046299552704e+00  2.0959489842917622e+00  1.5196567145853870e+00  3.0790654113592533e+00  2.6959061913418045e+00  1.9810436217893437e+00  3.0363437940538938e+00  2.5770931159681512e+00  3.2489099958839982e+00  3.2626652778687304e+00  2.1983298820966963e+00  3.2452748818521857e+00  2.8792441607828949e+00  2.7745924140136138e+00  2.6876389895227653e+00  1.7987201449437558e+00  2.4398379710819520e+00  1.5747415181206743e+00  2.4710104288397199e+00  2.1168234538159716e+00  2.0206014494721858e+00  1.6112976972380655e+00  3.2755434966651515e+00  3.0270705116484677e+00  1.4107233245895572e+00  2.6619390623823529e+00  1.7228451202964736e+00  1.5795369443657283e+00  1.9503460142533726e+00  1.5782606088295068e+00  2.5795804451109263e+00  1.2057510761230406e+00  2.5413748633883766e+00  1.1762712067352348e+00  1.5495789319906998e+00  3.2762508552901020e+00  2.4991412915542863e+00  1.5217687741315316e+00  2.4719621643930290e+00  1.5215229505371894e+00  2.1087273900874761e+00  2.1733853311566076e+00  2.3859802542631003e+00  1.3928874239250313e+00  1.7830390401092122e+00  2.3474582132851340e+00  1.7824674856758504e+00  1.8876988134578654e+00  1.8967335954129534e+00  2.2408007706812954e+00  2.5169226256244790e+00  3.3736131798671907e+00  2.7803121064532572e+00  1.9091092022902969e+00  3.3859483767860543e+00  2.8920348884563931e+00  1.7818368862511065e+00  3.3811830560972327e+00  2.9755501515870564e+00  2.3407538032786350e+00  1.4908868018505343e+00  3.0324813370060144e+00  2.1785384306770825e+00  2.6594207342642129e+00  1.3187087832676920e+00  2.5295701661589653e+00  2.6845573989023661e+00  3.2823098215507418e+00  2.8740478921099935e+00  2.4283674308390832e+00  2.2059377139060690e+00  3.0896509149416631e+00  2.9718413149025933e+00  1.5564753267678497e+00  2.4389478018752215e+00  1.6432144439587328e+00  1.9036421852923455e+00  1.9731903984439754e+00  2.5177706034030778e+00  1.5539120195235299e+00  3.4013329341173937e+00  2.0544708405617667e+00  2.1698113531591581e+00  1.5580044965764888e+00  2.7251468207677956e+00  2.6377337265253114e+00  1.9180045059630892e+00  2.2396470495578562e+00  2.3006623307374521e+00  1.8355303010365671e+00  1.5136221338668150e+00  2.3747640951172402e+00  1.7438549848408260e+00  1.8895149428374802e+00  2.5614931213488781e+00  2.4464719897213487e+00  2.1547126394238671e+00  1.6225373397171678e+00  1.5517097738143695e+00  1.7230710332314536e+00  3.4134420263092538e+00  2.5280046196329162e+00  1.3510006771496463e+00  1.7512210378294089e+00  3.3742900360662023e+00  1.5462145823850801e+00  2.5619337202850541e+00  1.7664343156403606e+00  1.4844064144384186e+00  3.0960895817330463e+00  2.1159042473894369e+00  2.1234522864811174e+00  2.4215971421998823e+00  3.0895227977449262e+00  3.4320173678189456e+00  2.8799444112827390e+00  2.1633450961732548e+00  2.2655582898976734e+00  1.8187992696355590e+00  2.9552587354953470e+00  1.3117097523515093e+00  1.9970578986113108e+00  1.4527988033679085e+00  2.7334851282071146e+00  1.7973916570012365e+00  2.3571580364337437e+00  1.9857654178793960e+00  2.1281134844486465e+00  1.8794143282604958e+00  2.2339464480247555e+00  3.1803114388679403e+00  1.5268703541314423e+00  1.5439406371910496e+00  2.0632009658247963e+00  1.7713127326329605e+00  3.0046973063492897e+00  3.4061953257372783e+00  3.3009798502977765e+00  1.4499433054457995e+00  2.8634428851736904e+00  1.5072082823003339e+00  3.4216790149785905e+00  2.6198413454193363e+00  1.4666713167795233e+00  3.4119843708451780e+00  2.2105153284318422e+00  1.5139868276049406e+00  1.8006949595650603e+00  1.5809212622978102e+00  3.4381062167654606e+00  1.5954434668265354e+00  3.0820638769192681e+00  2.8186236288149886e+00  2.4258250904452687e+00  1.6928916502484512e+00  1.3222293124682392e+00  2.5356698224271264e+00  2.5163269662629575e+00  1.5266397399196405e+00  1.7307847685073130e+00  1.6310313153359768e+00  1.7584905491722362e+00  2.0336223590607392e+00  3.0808559520224779e+00  1.6518293894874665e+00  2.7075507390112765e+00  1.5090659433454081e+00  2.9922616370318735e+00  1.9776887848936069e+00  2.2510283895077183e+00  1.5198939675822374e+00  2.2107641483586926e+00  1.5129711086826800e+00  1.8281032014648364e+00  2.5513135384420482e+00  1.8210145799573740e+00  3.4542579744582445e+00  2.3764520395038473e+00  2.7277851623172631e+00  2.5156002705917508e+00  1.4879791955154789e+00  2.0200828022214101e+00  1.9191299988765658e+00  2.3233354304761225e+00  1.6812146716748397e+00  1.7199433381953699e+00  3.4454298374887671e+00  1.0645921219280079e+00  2.3510269919671622e+00  3.2922788456418668e+00  2.8782475757148678e+00  3.2346815833127303e+00  1.9522181910338015e+00  3.4806863190861623e+00  2.2729451414143478e+00  3.0859424465414285e+00  3.0243566177661028e+00  2.5501891551765503e+00  1.9902450521532031e+00  2.4613040309782055e+00  1.4313667329246507e+00  3.1679657395410445e+00  2.7726516723101344e+00  1.9280142927377377e+00  2.3504052024667601e+00  1.0649634303607807e+00  3.2163559480391042e+00  3.1513110405731481e+00  2.4930642478257017e+00  2.6824476293361603e+00  2.6935034813111738e+00  2.0712298882918545e+00  2.1126533654629522e+00  2.1998819684009523e+00  1.9789059715003401e+00  2.7345471715863687e+00  2.7209433853019247e+00  1.5185680261491976e+00  2.7200553729889183e+00  2.6822008245006645e+00  1.9443349218623549e+00  2.9012057117669601e+00  2.4900571837308307e+00  2.0681108239267356e+00  1.7447593703816024e+00  1.6105156134307157e+00  2.9775581254764445e+00  2.5278224721756448e+00  1.7054834695963894e+00  2.9016020026971465e+00  1.6806762113125653e+00  2.4078878357978599e+00  2.0214910546337141e+00  2.3519790254208273e+00  1.9413830902687372e+00  1.6576028722299452e+00  2.4479329640812590e+00  2.3423772203426756e+00  2.7148580271136433e+00  1.5159130281175541e+00  1.3509766337501738e+00  2.8140668307440460e+00  1.4186775904804509e+00  1.2458541022745639e+00  2.4771445836143644e+00  3.0967543127175885e+00  2.3525175468697253e+00  2.8060271078108925e+00  2.0257605832698622e+00  2.5470586364776060e+00  2.7070905920319879e+00  2.4015410981233929e+00  1.6762204321900394e+00  2.9209323041246744e+00  1.6155108127401079e+00  2.1225939356241694e+00  1.7311118063460484e+00  2.5283658219423573e+00  1.4747392958915126e+00  2.9176368240041057e+00  1.6425429655631656e+00  1.7278927894767444e+00  2.3239072776692242e+00  1.7978528318464846e+00  2.0134041731822618e+00  2.1251123597229955e+00  1.4740708410800107e+00  1.4670474385845882e+00  2.5148512359733641e+00  1.2570601369107919e+00  3.4648742610359964e+00  1.8525016076672254e+00  2.3053485891425991e+00  2.0305330900833072e+00  2.6026898947960677e+00  2.4993791824853546e+00  2.6068117400876334e+00  3.4859552247703913e+00  1.4180711340407304e+00  3.4265935063847981e+00  2.2123367022186802e+00  1.6707826846859104e+00  2.2333228014815765e+00  1.6768220334136745e+00  2.7049588936884410e+00  1.8467280987743973e+00  1.6555843128861520e+00  1.6017831585016218e+00  3.2605164504226281e+00  1.3893577750739616e+00  1.4732446363522098e+00  3.4238332404137286e+00  2.4521720642804046e+00  2.2695180875641041e+00  3.4959792251894535e+00  1.4597649982266858e+00  3.4358012126473532e+00  3.4876327577943309e+00  2.1067751613855386e+00  1.7840285518959886e+00  2.5425215132969208e+00  1.4579236165046630e+00  3.2523512182301935e+00  2.3143424353245146e+00  2.0805805727400402e+00  3.2755425492874797e+00  1.4366254358354607e+00  1.7894030875386842e+00  1.9132314188954904e+00  2.3187248295323020e+00  1.4874591859311590e+00  1.7435788691795164e+00  1.2955034297624044e+00  3.2532010765832329e+00  2.5630679232980742e+00  3.2279168016360149e+00  1.9245460026913168e+00  1.8682485027244411e+00  2.6036162121936224e+00  1.6688607332704177e+00  2.4688858183472751e+00  1.5806118176401853e+00  2.4702445279687009e+00  1.5947920762618188e+00  2.4616389363586180e+00  3.4963438522888266e+00  3.4914709394843810e+00  2.0027819242619778e+00  2.0943981253039254e+00  1.4618527544926159e+00  3.0790087540826239e+00  2.2440591916835744e+00  2.0295712730518685e+00  1.5899869732144902e+00  1.4576817075104687e+00  2.4814280323939690e+00  1.6657176096436177e+00  2.6851885945893454e+00  1.2976466666049586e+00  2.9566746576205434e+00  1.7866979073812934e+00  1.2369400748512438e+00  1.5368287677104759e+00  1.6307331678266386e+00  2.2117544334692281e+00  3.2490062731689289e+00  3.5080436967806232e+00  2.0965367620148418e+00  1.4531222262499479e+00  3.0965470060915932e+00  1.6933103222407870e+00  2.1178628747549917e+00  2.0108530747979230e+00  2.2247581549090207e+00  1.8977476704776279e+00  2.3105433554164185e+00  1.8018422415366682e+00  2.3057244467285050e+00  2.4187802502353284e+00  2.9629445327383763e+00  1.6007320754551504e+00  3.5067844037203328e+00  3.1087567246235612e+00  2.5469786953580926e+00  2.0985036539616106e+00  3.2932104979077201e+00  2.4897045544745042e+00  1.3932129179183250e+00  1.8300092231763765e+00  1.6142756929950746e+00  1.2446002637530742e+00  1.8724370106216459e+00  2.3777156512321591e+00  2.3166398626423583e+00  3.3538557155557518e+00  2.1329230160272257e+00  1.8002311499958930e+00  1.5450307478540570e+00  1.9191224832999871e+00  1.5824142529088487e+00  2.6611471725521967e+00  2.8433403695877368e+00  1.4572060214833884e+00  3.4909177749626963e+00  1.9612552746513483e+00  3.2460271120481323e+00  2.9450968755405853e+00  1.8741359105862199e+00  3.4761856958759538e+00  1.4633964910400188e+00  2.9527846273050331e+00  2.5825183846574236e+00  3.0161697041487869e+00  2.8991736396252947e+00  1.5926205024793245e+00  2.2244757749477628e+00  2.0267348631356881e+00  3.4981484659791691e+00  1.9940236461901706e+00  2.5544971696463965e+00  1.8176124082492955e+00  2.2925942563049775e+00  3.1217606042571338e+00  1.9510132204260939e+00  2.8525108372088059e+00  1.3730789401687307e+00  2.5370160896514422e+00  1.4472417944677050e+00  1.4707015055478099e+00  3.5256862825279587e+00  1.5360070200364608e+00  3.0956265459328267e+00  2.3628104461226176e+00  2.8464723842258253e+00  3.2641662570994656e+00  1.4631140490842793e+00  2.8314686314577746e+00  3.0298136280155905e+00  2.7259263666862501e+00  1.6560829268566166e+00  1.8825579022351915e+00  2.2429550791304225e+00  2.7325854133794492e+00  2.8441322280183781e+00  1.7750197666868237e+00  2.2216545822514302e+00  1.8887174846449641e+00  2.5186510192616263e+00  1.4256038577930479e+00  2.2282436845166815e+00  3.5173626465524075e+00  1.7138174147750465e+00  2.3647660536261563e+00  1.7785205659940511e+00  1.4515265265774864e+00  2.6172431989421643e+00  1.6845291014767998e+00  1.7554019532236271e+00  1.4651415829469701e+00  2.4609237977054552e+00  3.1809216828854949e+00  2.6659616052606712e+00  1.4569837124892326e+00  1.8688033617825928e+00  3.0584071085733724e+00  2.2158469251318582e+00  1.8377237619362417e+00  2.6011510834054143e+00  2.7329338214273982e+00  2.4017985065550085e+00  1.4683817591074839e+00  2.0901888361696477e+00  3.0656693315661721e+00  2.3830137009734251e+00  2.5876893966308177e+00  2.9604948752099971e+00  2.8269005331438759e+00  1.8193998403257177e+00  2.6481153246513225e+00  3.3757091010958558e+00  3.0169080526378154e+00  3.0286802015273495e+00  2.5256291961940867e+00  1.2582566133763871e+00  2.8229086550118208e+00  3.1962161366841575e+00  1.9222205219356086e+00  2.7185476148185233e+00  2.3632730954608792e+00  1.7331080619198269e+00  3.3767407442714887e+00  2.7576051383007991e+00  1.9604825267004633e+00  2.4809497050567404e+00  2.2106870130465484e+00  2.1788697600241975e+00  3.2401970623993765e+00  1.9654865545013740e+00  2.1970820473598307e+00  2.6176315538864539e+00  1.5204031956322492e+00  3.0317464301015780e+00  1.6842209636490888e+00  2.1019845673152404e+00  1.5447945680194963e+00  1.4609792539947717e+00  1.7614874942043848e+00  2.8889683765352565e+00  2.1922953099319300e+00  1.5734676313237772e+00  1.3253827676296233e+00  2.8126889134837874e+00  2.0841274717427889e+00  1.5767429449629053e+00  2.3872685583468218e+00  1.7524049030171567e+00  1.4556324397934479e+00  3.3460245949865710e+00  2.4688270264199601e+00  3.3343445198046471e+00  1.8208440727933244e+00  2.2204403982075540e+00  2.2561673455325684e+00  1.5355482401754741e+00  1.3460349557380362e+00  3.4240360730270138e+00  1.9457751697606849e+00  2.9701613505296018e+00  3.0900731005037492e+00  2.4246671798479387e+00  1.7291748172370662e+00  2.6197104939635678e+00  1.8728552516351569e+00  3.3057220247676158e+00  1.5963186625632295e+00  2.0834024490583007e+00  1.8790465509567973e+00  1.5661297909374834e+00  1.8867929606386562e+00  2.2741566935427904e+00  1.6527514970725925e+00  2.2249972973256584e+00  2.3262433463561512e+00  2.3658739247063325e+00  1.1452946631393908e+00  2.3105806446281649e+00  1.5349721432062893e+00  1.4597355621777539e+00  2.1510908570145384e+00  1.8104263987750968e+00  2.1803356731859864e+00  1.5184356503024787e+00  3.1901519772658622e+00  2.8153157718530006e+00  2.5285344469304611e+00  1.3789350900362887e+00  1.9052536116648420e+00  2.2077068438957275e+00  3.2548764904005107e+00  1.8625930383484790e+00  1.9976837336871189e+00  1.5626025222895676e+00  1.5790742687876604e+00  2.2948217619514790e+00  1.7025355099617328e+00  2.0133496434410758e+00  1.8929023938231655e+00  3.0781118389711795e+00  2.8744035173096942e+00  2.3767523931156971e+00  1.1432091536862075e+00  1.8008291310048932e+00  1.5862909073935849e+00  2.4983740997326120e+00  2.7343547143134135e+00  2.1324537283741960e+00  2.0473131461621619e+00  1.5126142215511604e+00  3.5456453030063519e+00  2.1526417813974876e+00  2.4728228145304358e+00  1.9516596132394695e+00  2.6482445371884320e+00  1.5416831707217320e+00  3.1362937959084016e+00  1.3454496695749827e+00  2.2249259923952600e+00  2.7022041635868792e+00  3.3353753986600196e+00  1.5692108782986072e+00  1.8047794755510373e+00  2.2954783069959013e+00  1.9792737274247325e+00  1.7062450840762311e+00  1.5583470674460560e+00  1.8712966526231452e+00  1.7685877221187958e+00  1.5663224031675798e+00  3.3879535724197689e+00  1.6600737771820520e+00  3.5403474534983426e+00  1.8311605672649065e+00  3.5677180944643454e+00  3.5244483812581646e+00  2.0438416928999494e+00  1.4200018012738014e+00  1.6937033506407833e+00  3.5283254043778136e+00  2.5275108178464358e+00  1.4871354173130054e+00  1.4314530193397608e+00  1.4449479556791189e+00  1.4773197077673987e+00  3.2514513464895654e+00  1.5548055442839432e+00  1.4075548157161404e+00  2.4241206971977012e+00  1.6459525676151996e+00  3.2623039855889613e+00  2.4254488689153924e+00  2.6165830868317648e+00  2.1068002704080331e+00  1.4347504964176057e+00  2.1019220030595469e+00  3.2098016971293686e+00  2.5261055801906664e+00  2.2866359888687704e+00  1.7421388254505583e+00  3.0012422731413584e+00  3.3549297046986428e+00  2.6251780701371472e+00  1.9771534267936064e+00  1.4385749720870413e+00  3.2191196066414971e+00  1.4420886355478668e+00  2.0260053217615881e+00  2.4492516988353241e+00  3.0099571227507749e+00  2.5252925560258159e+00  1.6053308332467340e+00  2.5961232941725947e+00  1.7618002419247114e+00  1.4655898254377646e+00  1.4537430979306183e+00  1.3416590053815411e+00  3.2301964401670618e+00  1.6276843040931273e+00  2.4287795400139762e+00  2.3822898208571432e+00  2.4481426457924962e+00  2.3111649357016786e+00  1.5777350878991829e+00  2.2727516408543491e+00  2.0458244568314967e+00  2.7648214121849435e+00  1.3753260420361637e+00  2.4369713024874313e+00  1.7823290941906280e+00  2.1022884262365586e+00  2.5111521728866095e+00  1.7361372757470395e+00  1.4405137950527349e+00  2.3124025551362681e+00  3.1297058768898389e+00  3.5285342470031482e+00  3.2477665992446356e+00  2.1309116022904222e+00  2.1126697583563723e+00  2.4372326291579780e+00  2.1185054406513713e+00  1.2553357541302925e+00  2.6045038768268727e+00  2.4356339176277091e