<?xml version="1.0"?>
<VTKFile type="UnstructuredGrid"  version="0.1"  >
<UnstructuredGrid>
<Piece  NumberOfPoints="572" NumberOfCells="1038">
<Points>
<DataArray  type="Float64"  NumberOfComponents="3"  format="ascii">0 0 0  4 0 0  4 -1 0  0 -1 0  0.09999999999999999 0 0  0.2 0 0  0.3 0 0  0.4 0 0  0.4999999999999998 0 0  0.5999999999999996 0 0  0.6999999999999995 0 0  0.7999999999999994 0 0  0.8999999999999992 0 0  0.999999999999999 0 0  1.099999999999999 0 0  1.199999999999999 0 0  1.299999999999999 0 0  1.399999999999999 0 0  1.499999999999998 0 0  1.599999999999998 0 0  1.699999999999999 0 0  1.799999999999999 0 0  1.899999999999999 0 0  2 0 0  2.1 0 0  2.200000000000001 0 0  2.300000000000001 0 0  2.400000000000002 0 0  2.500000000000002 0 0  2.600000000000002 0 0  2.700000000000003 0 0  2.800000000000003 0 0  2.900000000000004 0 0  3.000000000000004 0 0  3.100000000000005 0 0  3.200000000000005 0 0  3.300000000000005 0 0  3.400000000000004 0 0  3.500000000000004 0 0  3.600000000000003 0 0  3.700000000000002 0 0  3.800000000000002 0 0  3.900000000000001 0 0  4 -0.08333333333333325 0  4 -0.1666666666666665 0  4 -0.2499999999999997 0  4 -0.333333333333333 0  4 -0.4166666666666666 0  4 -0.5000000000000001 0  4 -0.5833333333333337 0  4 -0.6666666666666673 0  4 -0.7500000000000006 0  4 -0.8333333333333337 0  4 -0.9166666666666669 0  3.9 -1 0  3.8 -1 0  3.7 -1 0  3.6 -1 0  3.5 -1 0  3.4 -1 0  3.300000000000001 -1 0  3.200000000000001 -1 0  3.100000000000001 -1 0  3.000000000000001 -1 0  2.900000000000001 -1 0  2.800000000000001 -1 0  2.700000000000001 -1 0  2.600000000000001 -1 0  2.500000000000002 -1 0  2.400000000000002 -1 0  2.300000000000002 -1 0  2.200000000000001 -1 0  2.100000000000001 -1 0  2 -1 0  1.9 -1 0  1.799999999999999 -1 0  1.699999999999999 -1 0  1.599999999999998 -1 0  1.499999999999998 -1 0  1.399999999999998 -1 0  1.299999999999997 -1 0  1.199999999999997 -1 0  1.099999999999996 -1 0  0.9999999999999956 -1 0  0.899999999999995 -1 0  0.7999999999999949 -1 0  0.6999999999999953 -1 0  0.5999999999999956 -1 0  0.499999999999996 -1 0  0.3999999999999968 -1 0  0.2999999999999976 -1 0  0.1999999999999984 -1 0  0.0999999999999992 -1 0  0 -0.9166666666666667 0  0 -0.8333333333333335 0  0 -0.7500000000000002 0  0 -0.666666666666667 0  0 -0.5833333333333335 0  0 -0.4999999999999999 0  0 -0.4166666666666663 0  0 -0.3333333333333327 0  0 -0.2499999999999994 0  0 -0.1666666666666663 0  0 -0.08333333333333315 0  3.491090701185765 -0.499339806301727 0  0.4950203227078167 -0.4989128584675094 0  2.64262313781888 -0.4879297506908338 0  1.449999999999998 -0.5 0  2.058402291097397 -0.5120941233772698 0  0.9749999999999992 -0.4749999999999993 0  3.081769880806683 -0.5597407802610527 0  1.745473944409859 -0.3290615136625714 0  2.347280045777389 -0.6545118286598804 0  2.335768673639667 -0.3237239238763549 0  1.750327526220345 -0.682828817540943 0  3.707492972392909 -0.3028030525063309 0  0.293580296675358 -0.7109385489008262 0  3.71498825372084 -0.7080088716251347 0  0.2918697062415769 -0.2988161261649331 0  3.250413907284768 -0.3098344370860925 0  0.7481958762886598 -0.6907216494845363 0  2.897531957111618 -0.3144800466372323 0  1.202975631932859 -0.6871206495416401 0  0.7276881720430104 -0.301075268817204 0  1.222241507685503 -0.2908020883113388 0  2.821785532795642 -0.7097679058139483 0  3.313580174540806 -0.7110306688463971 0  1.50219738324048 -0.2570217529780842 0  2.109436430026117 -0.7485141141565509 0  2.001923272149049 -0.2612004201407864 0  2.591779594323503 -0.2533220405676498 0  1.508220405676497 -0.7466779594323502 0  2.584305190871683 -0.7502831919469019 0  3.478286033189422 -0.23795222571263 0  0.5261060937617643 -0.7658117832712512 0  3.785135972681774 -0.5040707172464052 0  0.2090645029521114 -0.4969048262114374 0  0.9574438986108131 -0.2423163095862805 0  0.9754244626643473 -0.7628641460288867 0  0.5097271592765806 -0.2292760602594508 0  3.047448237147327 -0.7984168297371277 0  3.522893514415914 -0.785726174019542 0  3.27411286219494 -0.5150314861460955 0  2.876192398366876 -0.5166549013936721 0  3.072152863254761 -0.2028141497170135 0  2.188888454287124 -0.1960738743988359 0  1.911111545712876 -0.8039261256011641 0  0.6968885413728847 -0.4974520678389611 0  1.252104989604988 -0.4970114345114344 0  1.649610740490046 -0.5028202775347195 0  2.446694231298332 -0.485633542353709 0  1.845992484168205 -0.4989419599210881 0  2.246214131289309 -0.4959316037735846 0  2.743080194417513 -0.1797603284198384 0  1.345217800961618 -0.8177514544794908 0  3.831771135951664 -0.1764827624326512 0  0.168177957407361 -0.823589473522286 0  3.837430960455357 -0.8286944021295046 0  0.167391597779325 -0.1752538625856722 0  3.066111254276541 -0.3870061788029396 0  1.358909159394344 -0.1720779287034414 0  1.669284305949535 -0.172759019086266 0  2.264869859182613 -0.8283162784008133 0  2.434165412425708 -0.1697954173687042 0  1.668706113475668 -0.8314479749300888 0  1.842683258862577 -0.1656794186994128 0  3.848464877921415 -0.3616620315967092 0  0.151535122078585 -0.6383379684032905 0  3.848707346075076 -0.6466646759135177 0  0.1509968549082652 -0.3452619778382686 0  2.732975255829699 -0.3508363638623346 0  1.370252652534258 -0.6495109932111033 0  1.11832587037856 -0.1733419061976365 0  2.439737645513045 -0.836456385212641 0  3.331229791744127 -0.165499768727795 0  0.6726591332606813 -0.8336090461037186 0  1.132616756253317 -0.8280723285747189 0  1.950606351728588 -0.6518091391595896 0  2.153824719141371 -0.3536025000168445 0  3.62532407618639 -0.1564302309141494 0  0.3803710983093131 -0.8404803223371928 0  1.377912260103223 -0.3517997484404782 0  0.8924624300191402 -0.6125774599817652 0  3.207249628251628 -0.8375220474312923 0  0.6546785576266954 -0.155978749966339 0  2.719684587363634 -0.8327734580127736 0  3.647699282718985 -0.5637569936419204 0  0.3570156455557587 -0.5653989322146081 0  0.8322251523939386 -0.8403847541693579 0  0.3645988133126639 -0.1519337183240305 0  1.061404500324257 -0.6180105656135877 0  3.396758647231262 -0.3766313243368538 0  0.8148021518360848 -0.1629813466347811 0  0.6093556516052328 -0.6299486913462624 0  0.415997866655875 -0.3680522660477806 0  0.5920160015096863 -0.3645412637424194 0  3.572255424430109 -0.362089200459548 0  1.08043890485706 -0.3398660584513152 0  2.923658429424994 -0.1561137197110593 0  3.653613361778262 -0.8546909554159527 0  3.456739790681186 -0.6487708965425909 0  0.8424839600900655 -0.4190496412612194 0  2.6968241495241 -0.6460539373019687 0  2.90777185621417 -0.8467190841342236 0  3.167421855912535 -0.6853653881872064 0  3.378998015397395 -0.8550267917096944 0  2.549623533286458 -0.6074164390661531 0  1.563854363100012 -0.3870450365840445 0  1.945115925347995 -0.3956210114182645 0  2.206384380497951 -0.6363666106481864 0  2.9679770331043 -0.6663940397605803 0  2.492817266347368 -0.3527603982764793 0  1.545918816851176 -0.6075709531787901 0  2.028456012399734 -0.8701972194942087 0  2.065700499244939 -0.1359115819594244 0  1.113999927383315 -0.4803729266898425 0  3.194766700972084 -0.1349664610116483 0  1.791586588241401 -0.8656156413257059 0  2.307333345265183 -0.1346440826116952 0  2.64093544674549 -0.1331489671463476 0  0.4565707965077976 -0.6534785968762363 0  1.459077473581533 -0.8718776489042938 0  1.56279060907849 -0.1324694119967317 0  0.3144726782861624 -0.406319735913186 0  3.686635179527132 -0.4155119011072678 0  3.583227123430988 -0.6879918386850498 0  3.884530589958141 -0.5337716741137969 0  0.1138901561454064 -0.4712706309748976 0  2.551320204776417 -0.8759992125181354 0  2.968455986624249 -0.4231600805006418 0  1.843995631966074 -0.2713141166917306 0  1.23826657576458 -0.1310261345083986 0  1.632298315745049 -0.7047459448475459 0  3.454977942639006 -0.1019833897113779 0  2.11213131937471 -0.6131325843633801 0  1.631670858552932 -0.3027829344070553 0  0.549999999999996 -0.8847857258099061 0  2.175907031111534 -0.8808902127996396 0  2.440789547527098 -0.7252338716820566 0  0.9499999999999957 -0.8853403742417534 0  0.1192006629558211 -0.7258150973260704 0  0.1086302422397907 -0.2553484983400458 0  3.891615894289125 -0.7428762999771643 0  3.880790852604017 -0.2741969419997524 0  2.58999033724616 -0.3943081590477266 0  0.95310975133633 -0.1100375897447476 0  0.9389274183125247 -0.357418794071099 0  0.5436861363815539 -0.1129935035840732 0  1.237622314162623 -0.8886349339205675 0  2.766143121931948 -0.4669467935657355 0  3.157965388639583 -0.4824178848815803 0  3.732166646772587 -0.1061123528525496 0  0.8463407040907105 -0.2803849511418723 0  0.2658218649297859 -0.8967607408767373 0  3.384357462435764 -0.5450459842617623 0  1.954320722194999 -0.1009956898074866 0  0.8013980381943526 -0.5278489923710374 0  3.744358883260304 -0.603637271636247 0  0.2581863795088786 -0.6001369967359219 0  0.2629966501688439 -0.1025990268626685 0  0.3980883060404261 -0.7330050441066103 0  1.076076863672032 -0.7275728344185368 0  1.749999999999999 -0.5550190100941714 0  2.351512610076122 -0.5440435521440684 0  0.8619623856291254 -0.7246873586411677 0  3.553081028189586 -0.8932001918706867 0  2.806636304103025 -0.6100531542467602 0  2.546714489935151 -0.08818853426728746 0  1.172246975380209 -0.5783812280673658 0  1.560837452008869 -0.9052833905541354 0  3.005913589025749 -0.2858329927011495 0  3.104244827324224 -0.8867193195303111 0  0.6392996137609843 -0.7340215588892431 0  3.370409685921998 -0.2678372406131186 0  1.860045411420065 -0.6863616357695403 0  2.239306624928278 -0.3159929711989559 0  0.620090528303912 -0.2611000972275821 0  1.457468991263225 -0.08750102207080079 0  1.752790718352056 -0.1005001786212033 0  0.394717592657301 -0.2605042194828123 0  3.745581301416776 -0.9074819423317642 0  3.141158115761163 -0.2920724092797614 0  3.257376892791448 -0.6242591031763242 0  2.350280737493299 -0.9013197570937703 0  3.914203942485891 -0.125 0  3.914203942485891 -0.8750000000000003 0  0.08579605751410901 -0.1249999999999997 0  0.08579605751410968 -0.875 0  3.921126745430668 -0.4525
[...]
<PointData  Scalars=" Mohr-Coulomb Fs"> 
<DataArray  type="Float64"  Name=" Mohr-Coulomb Fs"  format="ascii">-6.1643398160797449e+04  -8.9591773689278241e+04  3.7494909755722721e+04  3.5982726713858370e+04  1.5266086112434353e+05  5.5337671198421752e+05  1.1330824098159955e+06  2.1699190030929432e+05  8.6627245945823565e+05  2.5747887559149985e+05  7.0814582283149136e+05  4.9352676787313737e+05  6.7694842907895881e+05  6.7459263157708617e+05  7.2664953469824733e+05  7.4264504668238270e+05  7.3804836233485828e+05  7.4823840490720433e+05  8.3245223800978158e+05  8.3354695234182966e+05  8.2916659850236250e+05  8.4433599866329972e+05  8.4709899208235578e+05  8.5572607582080911e+05  8.5285325024873554e+05  8.4565456920895050e+05  8.3422532458918693e+05  8.3982984250690974e+05  7.9672363862711971e+05  8.0419609783883579e+05  7.8222734554084286e+05  7.8804631124719058e+05  7.6083738101647643e+05  7.8828725704622571e+05  6.6301858793958230e+05  5.5436032188702398e+05  8.9020833481101447e+05  3.8589608174142113e+05  1.4390649234673216e+06  3.8934122746252641e+05  5.7917739951044531e+05  1.2979627205808714e+06  6.8352699143380218e+05  2.9454495813812764e+05  -2.3466238002003127e+04  1.3151200009084633e+05  -4.1195276270895636e+04  -2.3130743672644070e+05  -2.3772824041201304e+04  8.8867446517992445e+04  7.2098927949561248e+03  5.6275256851567574e+04  4.3391427285439575e+04  -1.0217055546609099e+04  2.8955376663981006e+03  6.0548133769395259e+04  7.6962930145613995e+04  1.3854198838639157e+05  5.5420348543905560e+05  4.5805604672624475e+04  7.5138968033349747e+05  8.1278008567149867e+05  1.1920854549313022e+05  1.1292176597819019e+05  7.6910629891285172e+05  3.5512972147793655e+05  8.3135476818798122e+05  6.5298934061044245e+05  6.7407406547694246e+05  7.8284728845063713e+05  8.0348060230482812e+05  8.1093252485193207e+05  8.2853176756410627e+05  7.3125529615508753e+05  7.7507749914431002e+05  8.1164381151619880e+05  7.9684570710875350e+05  7.9196833661515347e+05  7.0600096186886681e+05  7.0010529332665633e+05  7.3765574262101145e+05  7.4637823432850256e+05  8.0886667627146770e+05  7.0381938541110768e+05  7.6353209037658374e+05  4.3491756872247194e+05  8.4670651622050744e+05  1.9747823924169352e+05  9.1768668455641996e+05  2.5295064297434216e+05  1.2834018785325233e+05  1.5429870753153341e+05  7.1384735426355792e+03  2.4705231341134781e+03  5.1164233684011968e+04  3.1595911270434590e+04  -3.3290083918560806e+04  -1.4335719953144397e+04  -1.0728179072007329e+05  4.6326659487477264e+04  3.8548556718810300e+02  5.0357066951718334e+04  6.9518497285295962e+04  1.1700009179029650e+05  8.8800500815760042e+05  2.1977707844317681e+05  6.5082335306671658e+05  6.4512919635778188e+05  7.2575045240256190e+05  5.6030179703625431e+05  5.9177356048392027e+05  7.2424221819677541e+05  7.1656032536086533e+05  7.2697760367106530e+05  7.1056198711928260e+05  6.6892757600094157e+05  2.9411566652159498e+05  6.0726029636956962e+04  1.2065269895149376e+05  6.3415555854122515e+05  5.2839981307416386e+05  6.4240197993208573e+05  6.4078267309368076e+05  3.5411435756933677e+05  6.2209356570289936e+05  6.0493388365092257e+05  5.1193576776172308e+05  6.9324868452660169e+05  7.4631421315016015e+05  7.5657961120218434e+05  7.1386138035674789e+05  6.8070306116040249e+05  6.6344393729739101e+05  6.7379734330038668e+05  3.2236042340006825e+05  -2.2275372962900055e+03  5.0877846574794370e+04  5.6641204553906608e+05  6.1156007722947560e+05  2.7151983816904866e+05  1.0611248003699072e+06  4.4106408559580741e+05  6.1509336403958604e+05  6.5056582887300244e+05  6.1788348571250238e+05  7.7473516327865259e+05  7.6750502388120734e+05  5.1462728806255944e+05  6.1769880600624671e+05  6.9115642255311669e+05  6.9281949955187808e+05  7.2476761444457876e+05  7.2248935905760911e+05  7.2803915681181301e+05  7.1685904821588623e+05  5.4321087143209274e+05  5.4855512437350675e+05  1.5222696376177005e+05  8.6140736775681423e+05  6.1519377768399403e+05  7.1493035100934620e+05  7.6989634600487561e+05  7.5292005933315144e+05  7.6085918147081509e+05  7.6140287047455111e+05  7.8140801956625422e+05  2.6981848982359545e+05  3.3881698014519736e+05  1.0933442923931009e+05  6.0084393865948811e+05  6.7106601860813005e+05  6.6791451187067281e+05  6.6154963388843124e+05  7.8420493093686237e+05  6.9562787698553130e+05  1.8677316005523212e+05  6.8300710760583985e+05  7.3796494815975148e+05  7.3320246117376653e+05  6.3175896760437044e+05  1.1569464408365635e+06  6.5747321500817698e+05  5.3852544198579283e+05  6.8303007868807146e+05  3.4239597852621169e+05  6.5950753201974998e+05  2.0917030887115252e+05  7.0581086410132213e+05  5.6997350228814851e+05  8.2968962498817500e+05  5.8011179527025390e+05  7.3650819018652476e+05  4.9105195375646040e+05  8.2172947016591474e+05  -1.0424237895123393e+05  5.9972278830445430e+04  1.1709590399890181e+05  5.4463003576228290e+05  7.1212687814955239e+05  4.1142940595852787e+05  7.9519773457667965e+04  4.8834791747848038e+05  6.4983258489517414e+05  7.7292168619932630e+05  6.1468278372788965e+05  5.7056998548083310e+05  6.9886487101945351e+05  6.8957729889750259e+05  7.3214510675279191e+05  7.3779238790318230e+05  9.4801365460525977e+05  7.0166635421986564e+05  6.6359814421238739e+05  8.3791833403351728e+05  7.8351776473571034e+05  6.0032132255806867e+05  8.6656734290289890e+05  7.8630497967125359e+05  7.8548471243725473e+05  7.6704106153849815e+05  3.0754936063388461e+05  7.6943161405529594e+05  7.6192483640677924e+05  8.9742600332069059e+05  5.1545990685149003e+05  3.5860323550013112e+04  5.1580251523649582e+05  1.7002392647992275e+05  7.6456074297973129e+05  6.0974693576242460e+05  7.4993754904596356e+05  6.9779550096365984e+05  7.3157341289581882e+05  7.1033637247284269e+05  7.1559908080621669e+05  7.3044635972608614e+05  5.0546553370930982e+05  8.1073981407573854e+05  7.1247133000601525e+05  6.7984031673213001e+05  1.4128167635906077e+05  4.5399366179970844e+05  2.1780968307525682e+05  9.5421649015179719e+05  6.7730923462259572e+05  6.2574339408630971e+05  5.0996197328600049e+05  5.6523392655817477e+05  7.3229706262887467e+05  6.1798018294758175e+05  5.6023179246956029e+05  2.5419910569255933e+05  5.3419582786591782e+05  -3.8168176385931998e+04  4.6859454082764563e+05  8.1013822462772753e+05  5.4399630061823118e+05  1.5149017287178524e+05  3.9863057312055549e+04  3.3606156501835230e+05  3.9446390162002976e+05  6.3841274477616919e+05  7.0476819910043105e+05  6.9813746265091212e+05  6.5105505793172668e+05  4.9277267982066300e+05  6.0527554314091150e+05  7.8008185460312187e+05  5.9464803935120010e+05  7.6815435132213903e+05  6.4192755064045580e+05  5.6697979706863966e+05  7.1982318724575988e+05  5.2474286367110501e+05  7.3665567391275812e+05  7.3822057220415596e+05  5.3515945375135017e+05  7.7136108425195084e+05  7.9579492974728567e+05  5.4954473289459338e+05  9.2664464256242907e+04  5.6880296458117443e+05  5.0350521510512615e+05  8.1362423907233472e+05  1.2949625907366226e+04  6.2023630692117709e+04  9.8601588280655807e+04  3.8275549706271784e+04  5.3899226110681426e+05  4.2240347621787741e+05  6.7728550479239342e+05  7.1249831443658564e+05  7.0022790962313209e+05  7.5843287658377143e+05  7.2779530063167820e+05  6.0995633343671355e+05  6.4178347448000545e+05  1.1284184866611566e+06  7.0030727720636292e+05  5.9079087261759269e+05  9.4332065424161393e+05  7.1808470725873730e+05  6.9787550059039250e+05  3.2701926020737429e+05  -1.8610995969047036e+05  4.7965982058882597e+05  6.1413906721781194e+05  7.2108558649443369e+05  8.1292869128689542e+05  8.1006109251050011e+05  9.6399317296909366e+05  7.5231442251703050e+05  7.1714856786816381e+05  5.6469542180998391e+05  6.3611491913083696e+05  6.0216393525587337e+05  2.7404588561535644e+05  6.1835669283751515e+05  7.2605136712865345e+05  6.8631683477066015e+05  6.9926316373938613e+05  9.4374376735576906e+05  7.2993945329765580e+05  7.2578925537909078e+05  7.1765002027062105e+05  6.7455783553633234e+05  4.3951447769321699e+05  7.3324659722075367e+05  5.8475197764033813e+05  7.3917653990677465e+05  6.9258231703793048e+05  1.2973408579820023e+05  7.5207161818224599e+05  7.4656028679275955e+05  6.6022162941807101e+05  4.3579172910285671e+05  6.3789822275247879e+05  6.8385593915105774e+05  6.4663832611667458e+05  1.9404640417747365e+05  3.8085495073150494e+05  1.9249734301441361e+05  1.0425371907092485e+05  2.9227592320391070e+05  4.4238866811534396e+05  7.2213243675639201e+05  6.5479232806037925e+05  5.9549032370928908e+05  6.8058149976403289e+05  6.4994678111925744e+05  7.2109497737203492e+05  6.2425964293122024e+05  7.5612613640396402e+05  7.3928365784344694e+05  6.6491094140395231e+05  6.1113419644283236e+05  7.2051068907618045e+05  -1.0027500848590300e+04  4.2753761043143511e+05  6.9984150937432295e+05  7.4862924056588474e+05  5.9701959901166998e+05  6.5265970919406589e+05  5.3847045926417434e+05  6.2136393015272147e+05  7.9605367715053482e+05  7.7473383390634693e+05  5.6792715865748876e+05  1.8896982844695458e+05  6.8264080978412225e+04  5.2512500186570233e+05  1.0840358505820802e+05  2.2495986943841977e+04  5.6731730906078091e+05  4.8588387441097235e+05  5.8743134335751354e+05  -4.1931163826965974e+04  3.8635245334684046e+05  3.3145573793672251e+04  4.3632315162831455e+03  2.0768482754730235e+05  2.2467115615787369e+05  6.8030400009569200e+05  5.1639799634913699e+05  6.7652065934994153e+05  5.7166800701281580e+05  6.9252863409221568e+05  7.5738279493396636e+05  8.0745419504525792e+05  7.3574331342563895e+05  5.8368303918335517e+05  9.9874836516416236e+05  6.5845344265232328e+05  7.2662907094072993e+05  6.8269043842425279e+05  6.4863654354743008e+05  3.6245796617822390e+05  6.7020692072691862e+05  3.0824264802110696e+05  1.8630264753084998e+06  7.0249921914552792e+05  6.2195245388070249e+05  5.8378216803571384e+05  8.7619401861008035e+05  2.0230212252124411e+05  8.1704184309031314e+05  7.2463080635342246e+05  8.7520931284296059e+05  5.8031225829615199e+05  5.3309839417400979e+05  1.4519761324909245e+05  7.7347206335452828e+05  7.4298469126102678e+05  7.2885929741376848e+05  5.8659381164862041e+05  7.3199009804752818e+05  7.1344176001114130e+05  4.5841748469308368e+05  6.3778551095292054e+05  5.6068837020942919e+04  5.3503628430798743e+05  7.6035279677314858e+05  5.0487119143179839e+05  6.5026174646419752e+05  5.6989855232817796e+05  2.8908775180331949e+05  1.3404981865799133e+05  6.9073048901500099e+05  7.7013464810010046e+05  6.8848327053736942e+05  6.4556412373318220e+05  2.6454485915065242e+05  6.0993009407667443e+05  1.2410444447842725e+06  3.0094207413948223e+05  1.3683500226575710e+04  -4.9177414718459171e+04  8.4418600405759389e+03  5.9827450023653568e+05  4.9367636639823631e+05  9.0046910113542923e+04  7.0550141511959338e+05  6.9128162644771882e+05  4.8770801236597821e+05  8.1160221117909427e+05  7.6022507175134099e+05  1.5832179331943090e+06  5.9576673326472065e+05  6.8178141582114808e+05  7.4740138260208105e+05  6.9754770794699108e+05  5.8998996742083982e+05  1.2650842480120996e+06  5.6713059068227781e+05  2.3852846041187143e+05  3.2722738308847952e+05  2.2607841160519441e+04  -1.1103829145242466e+05  7.5225449412879170e+04  7.2510722930871940e+05  5.2602625634055468e+05  4.1968418348051381e+05  6.2074485365452711e+05  2.5596223376784180e+05  5.7186617899625143e+05  6.8387979379706155e+05  7.1267934291840624e+05  8.4462603170880233e+04  7.2566117357700539e+05  2.1571027760284357e+06  6.8784696739788703e+05  5.8628351295128849e+05  9.6739183972393235e+04  8.2436303429006817e+04  6.3706426874757581e+05  4.9086524148718023e+05  6.6755995182268019e+05  7.3245552228728775e+05  7.4636939168976515e+05  7.4103891291063488e+05  7.5676374255797453e+05  5.9466521641662926e+05  3.8699123541713564e+05  5.1050841732093168e+05  7.4584251070614089e+05  4.8369500404535217e+05  2.4100044676182288e+05  7.0075833535036596e+05  7.3818213289698178e+05  7.8285285606379947e+05  1.9787765185570851e+05  7.5532216650451079e+05  7.8868739081187072e+04  7.1428861324255634e+05  7.9683517162051564e+05  3.9806637283422373e+05  7.3915350703452004e+05  8.0974449350478593e+05  4.6791047272111216e+04  2.1487010588673223e+05  6.7153927436995332e+05  1.6308491757133784e+05  -1.5931374248402115e+05  8.3365205681207136e+05  7.0168243618799502e+05  5.7531744460487796e+05  5.8192313222752896e+05  6.7226373182730377e+05  4.3009602012731350e+05  7.0457173747386725e+05  7.8259086164719204e+05  7.0352294440897740e+05  6.9086189196458959e+05  5.7291574620749615e+05  7.2731353633943840e+05  6.4389861878030933e+05  4.5975363601601176e+05  4.5108026580228307e+05  2.2259065461742117e+04  2.9109393544369546e+05  6.4680770472680797e+03  3.6309591077747167e+05  6.3533411375269585e+05  6.7794037800145475e+05  7.3770607815751981e+05  6.5901765616409306e+05  5.6782452675997687e+05  6.6745803604890709e+05  -4.1992469698962908e+04  8.1442667063815647e+05  7.7393614680070430e+05  7.6505291954136803e+05  6.5867389633940300e+05  7.2682922167701286e+05  -5.7451869911623922e+04  1.2952529494616413e+05  7.5360394137923676e+05  7.2049978104020644e+05  3.1980086734618864e+05  6.9594687064727757e+05  7.7267760185430688e+05  7.9321021419441339e+05  7.8702901545089448e+05  7.1058120102705876e+05  6.9977861984973238e+05  7.0801085168974800e+05  9.7935178655982774e+05  6.6859818303307914e+05  6.9651716660341970e+05  7.2747177563791396e+05  3.1287142689854751e+05  2.0391979383229656e+05  6.1200354289764713e+05  5.0919753614165128e+05  7.0111918941807537e+05  5.8057491258261190e+05  7.3938986936364067e+05  7.9306445096018061e+05  6.1459615683191246e+05  7.3298671897950920e+05  6.8077222857717774e+05  7.3821152504029451e+05  7.2149214197249105e+05  7.3136450381497317e+05  5.5614664567594428e+05  9.5751786322615144e+05  6.3544881956911390e+05  5.3883274957419210e+05  5.4724601498424995e+05  6.1566507009821897e+05  5.9812808211251430e+05  6.2643234796703258e+05  </DataArray> 
</PointData> 
</Piece>
</UnstructuredGrid>
</VTKFile>