<?xml version="1.0"?>
<VTKFile type="UnstructuredGrid"  version="0.1"  >
<UnstructuredGrid>
<Piece  NumberOfPoints="1855" NumberOfCells="3532">
<Points>
<DataArray  type="Float64"  NumberOfComponents="3"  format="ascii">0 0 0  30 0 0  30 -10 0  0 -10 0  0.1391574078963744 0 0  0.2856388821882616 0 0  0.4398299073010886 0 0  0.6021362569539473 0 0  0.7729850389704483 0 0  0.9528258543586996 0 0  1.142131984380316 0 0  1.34140159760994 0 0  1.551159074717981 0 0  1.771956417032531 0 0  2.004374674080994 0 0  2.249025475789527 0 0  2.506552636773105 0 0  2.777633857742732 0 0  3.062982518028728 0 0  3.363349525995907 0 0  3.679525322337712 0 0  4.01234195575742 0 0  4.362675247811097 0 0  4.731447135329707 0 0  5.119628065610077 0 0  5.528239565804708 0 0  5.958356943167011 0 0  6.411112081475485 0 0  6.887696441559404 0 0  7.389364184530748 0 0  7.917435485335147 0 0  8.473300005202017 0 0  9.058420557070402 0 0  9.674336929103793 0 0  10.32266995225095 0 0  11.00512576896296 0 0  11.72350030646412 0 0  12.47968402994705 0 0  13.27566689579597 0 0  14.1135435963616 0 0  14.9955190732806 0 0  15.92391430904694 0 0  16.90117245730496 0 0  17.92986524844506 0 0  19.01269976086341 0 0  20.15252556282024 0 0  21.35234220269763 0 0  22.61530708683689 0 0  23.94474379751883 0 0  25.34415086349739 0 0  26.81721093579712 0 0  28.3678004819169 0 0  30 -1.111111111111111 0  30 -2.222222222222222 0  30 -3.333333333333333 0  30 -4.444444444444445 0  30 -5.555555555555555 0  30 -6.666666666666666 0  30 -7.777777777777777 0  30 -8.888888888888889 0  28.36780047917311 -10 0  26.8172109305839 -10 0  25.34415085606858 -10 0  23.94474378810899 -10 0  22.61530707566275 -10 0  21.3523421899591 -10 0  20.15252554870171 -10 0  19.01269974553473 -10 0  17.92986523206254 -10 0  16.90117244001232 -10 0  15.92391429097614 -10 0  14.99551905455266 -10 0  14.11354357708742 -10 0  13.27566687607703 -10 0  12.47968400987599 -10 0  11.72350028612546 -10 0  11.00512574843363 -10 0  10.32266993160086 -10 0  9.674336908396342 -10 0  9.058420536362949 -10 0  8.473299984546333 -10 0  7.917435464777824 -10 0  7.389364164113587 -10 0  6.887696420787165 -10 0  6.411112061446698 -10 0  5.95835692337857 -10 0  5.528239546282652 -10 0  5.119628046377237 -10 0  4.731447115907979 -10 0  4.362675229213632 -10 0  4.012341937260036 -10 0  3.679525304434552 -10 0  3.363349508456405 -10 0  3.062982500861274 -10 0  2.777633840953978 -10 0  2.506552620368097 -10 0  2.249025459771861 -10 0  2.004374658452946 -10 0  1.771956401795187 -10 0  1.551159059871345 -10 0  1.341401583153029 -10 0  1.142131970307521 -10 0  0.9528258406748833 -10 0  0.7729850256685147 -10 0  0.6021362439621285 -10 0  0.4398298947504031 -10 0  0.2856388700059078 -10 0  0.1391573960769001 -10 0  0 -9.855072463768115 0  0 -9.710144927536232 0  0 -9.565217391304348 0  0 -9.420289855072463 0  0 -9.27536231884058 0  0 -9.130434782608695 0  0 -8.985507246376812 0  0 -8.840579710144928 0  0 -8.695652173913043 0  0 -8.55072463768116 0  0 -8.405797101449275 0  0 -8.260869565217391 0  0 -8.115942028985508 0  0 -7.971014492753623 0  0 -7.826086956521739 0  0 -7.681159420289855 0  0 -7.536231884057971 0  0 -7.391304347826087 0  0 -7.246376811594203 0  0 -7.101449275362318 0  0 -6.956521739130435 0  0 -6.811594202898551 0  0 -6.666666666666667 0  0 -6.521739130434783 0  0 -6.376811594202898 0  0 -6.231884057971015 0  0 -6.086956521739131 0  0 -5.942028985507246 0  0 -5.797101449275362 0  0 -5.652173913043478 0  0 -5.507246376811594 0  0 -5.36231884057971 0  0 -5.217391304347826 0  0 -5.072463768115941 0  0 -4.927536231884058 0  0 -4.782608695652174 0  0 -4.637681159420289 0  0 -4.492753623188406 0  0 -4.347826086956522 0  0 -4.202898550724638 0  0 -4.057971014492754 0  0 -3.913043478260869 0  0 -3.768115942028985 0  0 -3.623188405797101 0  0 -3.478260869565217 0  0 -3.333333333333334 0  0 -3.188405797101449 0  0 -3.043478260869565 0  0 -2.898550724637681 0  0 -2.753623188405797 0  0 -2.608695652173912 0  0 -2.463768115942029 0  0 -2.318840579710145 0  0 -2.173913043478261 0  0 -2.028985507246377 0  0 -1.884057971014492 0  0 -1.739130434782609 0  0 -1.594202898550725 0  0 -1.44927536231884 0  0 -1.304347826086957 0  0 -1.159420289855072 0  0 -1.014492753623188 0  0 -0.8695652173913047 0  0 -0.72463768115942 0  0 -0.579710144927537 0  0 -0.4347826086956523 0  0 -0.2898550724637676 0  0 -0.1449275362318829 0  5.15859856094262 -4.976557621770688 0  2.816777084926057 -7.160262673925935 0  2.81677708460006 -2.839737326002783 0  2.227649803257325 -5.003121586636773 0  1.518662968975629 -8.46230852045241 0  1.518662969184829 -1.537691480152612 0  9.960740911025725 -5.055901393541221 0  1.491099662214591 -3.691833922963321 0  1.503675657181264 -6.345020369042368 0  5.319208041801049 -7.493850249937013 0  5.291109955459268 -2.489368743223226 0  1.096914507335763 -2.53623188405797 0  1.096914507253562 -7.463768115942029 0  1.089580194952752 -4.71277167923441 0  15.07565076110197 -5.047572991082069 0  7.501630508673601 -5.937500100385354 0  0.8894869418764504 -5.623930488933245 0  2.955144522453978 -1.440834296472408 0  2.955144521140721 -8.559165705576945 0  8.106603955004623 -2.748811534843258 0  3.662152539483591 -4.228178367024407 0  3.662181528265114 -5.771746159989156 0  0.8436558190317136 -0.8541050638451999 0  0.8436558075840921 -9.145894948342754 0  0.7854168197005933 -1.811594202898552 0  0.7894693398152999 -3.286543351392342 0  0.7854168196772591 -8.188405797101449 0  0.7854168196772591 -6.739130434782609 0  20.00078956016804 -4.999999999785771 0  0.7379120031523989 -3.977302749614766 0  6.584332478112232 -3.934875417052907 0  7.295091310194352 -7.969791332537982 0  9.811174303464586 -7.412814499648229 0  4.013376806449688 -2.206189431585293 0  4.013376806983409 -7.793810569017377 0  12.11177433894592 -2.818343737884045 0  2.591152707837148 -3.990098461753838 0  2.58990939378082 -6.025895074707176 0  25.43156400064585 -5.044446479916348 0  2.03262751726143 -2.282125834846944 0  2.032627517335952 -7.717874165160392 0  12.51865094522923 -6.491408052923457 0  0.598175343983641 -6.156971652625402 0  2.126700074935224 -0.8767654465386991 0  2.126700059112423 -9.123234559633019 0  6.617961838548696 -1.617756429129908 0  0.5903949564549755 -4.980060355019413 0  1.676697585305984 -5.547101897225158 0  4.773518305133987 -3.729331162566817 0  4.77931803486508 -6.231222307502165 0  4.878549698409591 -8.72048903376362 0  4.852580875634024 -1.222215410052823 0  0.5487847095754042 -2.675169258708207 0  0.545113423825768 -7.32369553390529 0  1.78738026998851 -4.400451872599477 0  1.68244194111824 -3.010100184333533 0  1.683984276238402 -7.018293626028473 0  9.998503440677371 -2.00585287985007 0  3.693061162502273 -3.243678395563028 0  3.694987482168253 -6.757603268814477 0  6.081763036485869 -5.83414381546261 0  0.5196640460586313 -1.350633211792632 0  0.5196640458460706 -8.649366789040087 0  3.84593363904758 -0.9906418103762418 0  3.845933620847308 -9.009358200471317 0  17.41551885287501 -3.057748733689079 0  17.30725517812527 -7.002961443761516 0  8.117698464370697 -4.451550942597151 0  0.4918476668493152 -0.4789811193757592 0  0.4918476560347713 -9.521018882514893 0  1.463770869328428 -0.6252343353791154 0  1.463770854281917 -9.374765668872765 0  0.5034132782032188 -4.464280853772128 0  3.138906271796685 -4.99999841599503 0  14.61209972381335 -2.388610981020637 0  6.208601124947327 -8.776231214192325 0  14.74910972998159 -7.542186851303819 0  2.243794246335625 -1.632184311040998 0  2.243794245689214 -8.367815689183566 0  0.4590235278399923 -5.431413993025926 0  0.4971508861448406 -2.209632053221267 0  0.4971508861368665 -7.790367946777407 0  0.4644363683211541 -3.560571347760519 0  6.478811279411406 -7.007392971062433 0  1.238895267772762 -4.173677632458826 0  1.293241773632479 -2.02256720952064 0  1.293241773542714 -7.977432790434841 0  0.4324740478030531 -0.942028985507247 0  0.4324740423701829 -9.057971014492754 0  2.117396640811705 -3.472968170680347 0  2.107095929630507 -6.531506384346077 0  8.087741545730886 -1.392783601483453 0  1.028911946384717 -1.352376108341404 0  1.028911946221715 -8.647623891551962 0  4.05691976296832 -4.991522392209158 0  11.51826881314265 -8.065248940008736 0  1.618560396201739 -4.958056164503666 0  2.701984523487646 -2.141781914603403 0  2.70198452396172 -7.858218085853512 0  2.843615645746219 -9.289121726447632 0  2.843615661334342 -0.7108782798429658 0  8.678774612240533 -8.488146490452822 0  6.487906449371135 -2.667543558824978 0  8.369190916679937 -7.129867754908394 0  11.80978191929258 -4.655775487536958 0  0.3792065166453504 -3.113833531412848 0  0.4134714637263563 -6.58827691137208 0  9.551050695080825 -3.49648183875815 0  1.083867845277057 -6.036251777836495 0  0.3756430921870901 -1.80381664325008 0  0.3756430921689482 -8.196183356748573 0  3.113073783220456 -3.503408140759125 0  3.113391383189963 -6.496678880796299 0  22.62850736315072 -3.277987336300344 0  22.59385352108348 -6.800312122582239 0  0.3777114402537816 -4.137047872695438 0  0.9196816123347897 -0.4281025456111269 0  0.9196815944880363 -9.571897460530383 0  0.4052043328723194 -5.827814332459883 0  8.865857694874787 -5.767686953139113 0  1.200388325130726 -5.182186034620629 0  5.65297436943758 -4.325500846767599 0  1.200079167961391 -3.009849046583253 0  1.20883344838 -7.021823297793294 0  1.057642414577487 -3.660996704809145 0  10.88812987788297 -6.333458225047037 0  4.493502926606794 -2.839780197438185 0  4.485862892033458 -7.147606077919463 0  0.3631651408878085 -7.003529808558233 0  1.946748828463205 -6.049056369468467 0  6.918750162798794 -4.993796052442676 0  3.351203216022585 -1.980935554775394 0  3.351203216441711 -8.019064445907297 0  2.281892243515294 -2.856654416292082 0  2.281892243715877 -7.143345583598931 0  5.811143619672087 -0.9953286820321026 0  2.695713766833098 -4.565354125099452 0  2.698172168139827 -5.435483248292925 0  19.86166219288896 -2.493475492328429 0  19.83739102036415 -7.594404063416508
[...]
<PointData  Scalars=" mean stress"> 
<DataArray  type="Float64"  Name=" mean stress"  format="ascii">1.0971472386331191e-01  2.3827936625889757e+02  4.2700763923341319e+03  2.7849117373646459e+02  1.2140426886127920e-01  1.4528819324310571e-01  1.9340181642897172e-01  2.9879674348022417e-01  4.2316863905040153e-01  5.8719119168583833e-01  8.4486869990435209e-01  1.0244643118572248e+00  1.3808672089929821e+00  1.8144670042565314e+00  2.2448572242868754e+00  2.6808736419740122e+00  3.5282381649732311e+00  3.9674123175784484e+00  5.0820507126706813e+00  5.9479957169167328e+00  6.9861509057503826e+00  8.6548032968780273e+00  9.6438147286988372e+00  1.1286062429484636e+01  1.3575648996107782e+01  1.6149445034719879e+01  1.8481321547998594e+01  2.1024549363484507e+01  2.4436821174791927e+01  2.7929636234424891e+01  3.4738325856800081e+01  4.1341794313169572e+01  4.7954096258135337e+01  5.3420763034904425e+01  6.8430786510830714e+01  8.2715611761976319e+01  9.4648953978682641e+01  1.1856650793337286e+02  1.2724664687284428e+02  1.4957917452353007e+02  1.6990879818353466e+02  1.8110061763110215e+02  1.9396505642511065e+02  2.0661700874692249e+02  2.0932444899215906e+02  2.0872366107698136e+02  2.1592913611220760e+02  2.2434335243579883e+02  2.2684330367920990e+02  2.1575460561171317e+02  2.2057986681055937e+02  2.2380790642642864e+02  2.1687179859626380e+02  2.2970756138674449e+02  2.4485148396751168e+02  2.8627621352164556e+02  3.2184157713645124e+02  4.2604208308977849e+02  6.0559525272491135e+02  1.0411882871881062e+03  1.2394244651275903e+03  7.5319849675368334e+02  5.1402252449029413e+02  3.6033425140781065e+02  2.8432042408361224e+02  2.3418824567352462e+02  1.9240407180878083e+02  1.7189122871818270e+02  1.4733625117467585e+02  1.3546853717468341e+02  1.2222010563722500e+02  1.1749922689091468e+02  1.1491790422021826e+02  1.1541497290729789e+02  1.1811766538559073e+02  1.3039988406298718e+02  1.4751877481516232e+02  1.9859246772383744e+02  3.3124745736663584e+02  5.9604528870630816e+02  4.2484856945132515e+02  1.8320168278519384e+02  1.2480095216179319e+02  9.4190653147238990e+01  7.4700454208352610e+01  6.2058430939742152e+01  5.2284011417221429e+01  4.7325600645901112e+01  4.3452523552803605e+01  4.0781298279951827e+01  3.7748166419327667e+01  3.7576126790994628e+01  3.7101912565712176e+01  3.7560205042960746e+01  3.9486963763352406e+01  4.0089905309945301e+01  4.3406304735282774e+01  4.5363788580416291e+01  4.8427063952838942e+01  5.5409101196987109e+01  6.1049218997852762e+01  6.9407341913327144e+01  8.2007519435609495e+01  9.4388709858415396e+01  1.1905949025588662e+02  1.6205215508921131e+02  2.0035914637159877e+02  2.9092767808009302e+02  1.5638729883797973e+02  1.0017896294642520e+02  7.9630148065634785e+01  6.4252794505143584e+01  5.5150041006918855e+01  4.8401523000602651e+01  4.3297605231373367e+01  4.0082734429118631e+01  3.6756305614385788e+01  3.4648764761711298e+01  3.2291072373416803e+01  3.0611959490655675e+01  2.9037726388473143e+01  2.7809474765512810e+01  2.6432006545225541e+01  2.5424198417065131e+01  2.4421005931364089e+01  2.3408824616700667e+01  2.2485685142817186e+01  2.1661785716063733e+01  2.0895221306463270e+01  2.0144557789942798e+01  1.9384324555128899e+01  1.8679973259399528e+01  1.7980204231524741e+01  1.7370287188143237e+01  1.6640424711508583e+01  1.6005577078544370e+01  1.5350219190668502e+01  1.4765974225058700e+01  1.4113231532829072e+01  1.3516784605070429e+01  1.2891119651730616e+01  1.2306629841572288e+01  1.1692093379995933e+01  1.1143275683646610e+01  1.0575143242534725e+01  1.0011257394538980e+01  9.4675158291619042e+00  8.9369604836669847e+00  8.3870596850163111e+00  7.8789267082844461e+00  7.3824813516041861e+00  6.8587053551520203e+00  6.3708897975117686e+00  5.9412083874982340e+00  5.4612022482574423e+00  5.0541815242993264e+00  4.6240236554891609e+00  4.1980286458235900e+00  3.8475678832189550e+00  3.4727602242690900e+00  3.1350961071764600e+00  2.7546604787528803e+00  2.4713136984166812e+00  2.1629861794316234e+00  1.8992341504646204e+00  1.6235695277313242e+00  1.3884643345315830e+00  1.1585871518751816e+00  9.7530584972612178e-01  7.8135793589686298e-01  6.1121710347621294e-01  4.7580496250888649e-01  3.7935240992525066e-01  2.1451992087081193e-01  2.2365294791664553e-01  1.6569655064797759e-01  2.6236279704503943e+01  4.2251689144478014e+01  9.1974495552958064e+00  1.8587373329397526e+01  3.8800441518155473e+01  2.7349947047918399e+00  5.1638904855200785e+01  9.0784337759994926e+00  2.2036426478438212e+01  5.1369884490563365e+01  1.5757536623219899e+01  4.4604856011172851e+00  2.6492221505847208e+01  1.2259284653858904e+01  1.3501490293716867e+02  3.7552726662706682e+01  1.5747106588708105e+01  5.7254444736574301e+00  5.3750785717552851e+01  3.0900689967494763e+01  1.8768189694641649e+01  3.3410246763748503e+01  9.8278099196572621e-01  4.9010706748696670e+01  2.3879138254156689e+00  6.2389329959314779e+00  3.1346096699402171e+01  2.0960924985660021e+01  1.9786005014514922e+02  8.5930651357296206e+00  2.5147042401494911e+01  5.8292018913798600e+01  7.0435401737760003e+01  1.0548541750875696e+01  6.0484194943810273e+01  7.6339105713536028e+01  1.4067324702397919e+01  2.8787059618650165e+01  2.7095534313239875e+02  5.4378825312225976e+00  3.6118136509337404e+01  1.0113775055950725e+02  1.7592717334134150e+01  2.8778437890351021e+00  4.9836904680967983e+01  2.0705884509987776e+01  1.2344984969670310e+01  1.8686305049210816e+01  1.8317159704267915e+01  3.8526133820510488e+01  6.0745363638165621e+01  1.1829409022374392e+01  4.2472656150317727e+00  2.3553756527504014e+01  1.3157559399527372e+01  6.9963859521225471e+00  2.7381578935520817e+01  4.7886278133558022e+01  1.3255214729909049e+01  4.7269007964740410e+01  3.3248411980969301e+01  1.4124544855785734e+00  3.6602310714678801e+01  7.5601011631961503e+00  5.4620208411445574e+01  1.5991612244154527e+02  1.6982860364589357e+02  3.4187698938593485e+01  4.1198348535230578e-01  7.0166771484070779e+01  1.4555597618430274e+00  5.4461123713407275e+01  1.0124636274750650e+01  2.3587747674445691e+01  1.2021725761234391e+02  6.8879605362015695e+01  1.4100327437414606e+02  4.3923453508321000e+00  4.4793615385769684e+01  1.4059118647534318e+01  3.0425343370838025e+00  2.6745169299747701e+01  6.8614782593150467e+00  4.3931081585209292e+01  1.0426375346796396e+01  3.4293891532342209e+00  3.1812519345806873e+01  7.8606592642035400e-01  4.6153541567847988e+01  9.8585361439594781e+00  2.7994676848360207e+01  3.0636909140522008e+01  1.8377919618598957e+00  3.8498048586412743e+01  2.5506542691151548e+01  1.0886927173293878e+02  1.5226185948141341e+01  6.5569675979483160e+00  4.6277590120993494e+01  4.8627423634857585e+01  4.3776410395979450e+00  8.3935675217812602e+01  2.1187895416328701e+01  5.2531113499915961e+01  7.5454662249262668e+01  5.3746246775250421e+00  1.9268863265634995e+01  4.3128769882548298e+01  1.8418021728121133e+01  2.1007592947671383e+00  3.0266575295916734e+01  1.3001803103785365e+01  3.8572871532545179e+01  2.0825823494322279e+02  2.6193691818907229e+02  8.9050095953874955e+00  6.7562481300865507e-01  6.7066654327639327e+01  1.5772826272848102e+01  4.4520352146685973e+01  1.4690732587895976e+01  2.3318161279738039e+01  6.0702916473304578e+00  2.4231090039867077e+01  7.9690909144009279e+00  7.1327666569760950e+01  1.3885127868286498e+01  5.1801868794690854e+01  2.1428627046226048e+01  2.3350364056014012e+01  3.0187577540326210e+01  7.9348072556451354e+00  5.7766668922194945e+01  7.9234836036647138e+00  3.3874707547243943e+01  1.6227633609940803e+01  1.8001303065003860e+01  2.4458028518553530e+01  1.8508990831656513e+02  2.0465595461799762e+02  1.9139179815864772e+01  1.0320328851604064e+02  2.2761756844711829e+02  4.2807551993998999e+02  4.4931432603176347e+01  1.8784717866900909e+00  4.7413577358404160e+00  3.0341373624137201e+01  6.6924963640417502e+01  3.3373492247759500e+00  2.8091372340242362e+01  4.1367137109383634e+01  3.2647364658756999e+01  1.0067996536150616e+01  5.4174216046805725e+01  9.8796521339678776e+01  2.1021923825640862e+01  1.2760008807331741e+02  3.9626840406773360e+00  3.6449546740848731e+01  2.0603761946064711e+01  1.1300543678562935e+01  8.4759065782491390e+01  1.9582756406018760e+00  5.2402354075265031e+01  2.1632274067705183e+01  1.1508876446073687e+02  1.1163896168761436e+01  1.0230257909398395e+01  5.4401726056369057e+01  1.6279863627031142e+02  1.2337129203103034e+01  6.0662292162290356e+01  1.7758453859848579e+01  1.7681769079176210e+01  1.2694594089022058e+01  5.3664727400288982e+01  9.8229657854160504e+00  5.9657968214457085e+01  1.5238657152000835e+01  2.8965497218086491e+00  4.7934944930784390e+01  2.7264995220636923e+00  4.5263733312172768e+01  2.5320332725159133e+01  6.1591484471865222e+01  9.5715660597341419e+00  4.1301465438614144e+01  7.7904856060304839e+00  5.2332028442467564e+00  2.2908050136279435e+01  2.6285139442889143e+01  5.7978361016263689e+00  4.6641042863850608e+01  3.5606924497474983e+00  2.4537152285092120e+01  2.7758045331780771e+01  3.2063469567092319e+01  4.5972278352677600e+00  2.6958752801299890e-01  9.3615411957413784e+01  3.4484591159736347e+01  1.0574463174574579e+01  1.6464831151301524e+01  3.1962849931597134e+01  6.2672260577336196e+01  2.9035399711700842e+02  1.4422317797289355e+02  1.4594755821783922e+01  4.4956346247643182e+01  4.9044245638672734e+01  4.0759266706721853e+00  3.9104644805525204e+01  5.9592838781994011e+01  1.7245548536536702e+01  2.5140996481810793e+00  3.4050923199507515e+01  1.3811061959517751e+01  2.3387403214304410e+01  1.5033753304360945e+02  1.6428708526650095e+01  7.3639162066920347e+00  1.1496808198081260e+01  2.3739610292542629e+01  7.0884615632658639e+00  5.7720825417933341e+01  1.2513642648073974e+02  2.0984688447777279e+02  3.5753272435934758e+02  4.2249194213291034e+01  1.1081985928419671e+00  1.3048183254593104e+01  1.5639037199135826e+00  1.1027711899402293e+00  3.8356819603673422e+01  3.3313498256813240e+01  1.3945074146905759e+02  1.2129584607286793e+01  4.9098571537185681e-01  5.6136164633449042e+01  3.5288242709945990e+01  2.2721855834877676e+01  1.2640441584343980e+01  9.8881653736311872e+00  5.8865741710262100e+01  8.4947580412643617e+00  6.4034145491215014e+01  9.5202046029964538e-01  1.9052630377311928e+01  1.5327722527125141e+02  2.0137615608636935e+01  7.6217473216205676e+00  4.1594747639619264e+01  1.0126736206350738e+02  1.7922775721958853e+01  4.4913040251370523e-01  8.3405117769742688e+01  3.7592546313813116e+01  3.5716122695797289e+01  6.0544875693126423e+00  3.6906667909229705e+00  2.5573854332552859e+01  2.6036645281312714e+00  2.7373159604908370e+01  1.0946066949491701e+01  2.1991800198667889e+01  5.5727621768408895e+00  2.6934784579161562e+01  1.0388397805539642e+00  5.5323193755945610e+01  5.9617124612107474e+01  2.7650580672558046e+01  2.2494008448106730e+01  1.6607630362137098e+01  1.5698024353599589e+01  1.8847910860636075e+00  3.4658201429575392e+01  1.4633981484127977e+01  1.1717465324299265e+02  5.0203051398558330e+01  2.0721628515073598e+00  2.8607446457154559e+01  6.8889140580220580e+00  3.8902069532983646e+01  5.6202642796340330e+00  5.2397599466835892e+01  2.1345206156746599e+01  5.2168523124298083e+01  6.3026601365872779e+00  3.1051118127067433e+01  1.6608177355281575e+02  1.7647645483722826e+02  1.7855789819536565e+01  3.7298253882923561e+01  1.8879354198694127e+01  2.5032274018361527e+01  2.2192236660920452e+02  5.4051918788690640e+00  4.1782366862322959e+01  8.9338005992767808e+00  1.1020423724949238e+01  4.6668260698072771e+01  3.9710771708007648e+01  5.4761137637678550e+00  4.8581404543563451e+01  1.1940363346401583e+01  5.5089590834339710e+01  1.8285584574251718e+02  1.6885391436005587e+01  3.5080257059492377e+00  4.1026596307890799e+01  9.8543532044026136e+01  1.5345060827043230e+01  7.2416651367129348e-01  5.3055811244319912e+01  8.2939205448301898e+00  4.9726201920507847e+01  2.6228196618190196e+01  4.5086468684049912e+01  6.0577784085274729e+01  4.4529498036815632e+01  1.4078078681615909e+00  1.3595427099698647e+00  5.6892165153941377e+01  7.4040617604548205e+00  4.6324431421624126e+01  8.3290364707515053e+01  2.0016847136267533e+01  1.3364001669553971e+02  9.4192520774530077e+00  1.3300487092411717e+02  1.7753027534099743e+02  6.5550149423639510e+01  1.6241975017172386e+01  1.1814262917314886e+02  5.0628283034557997e+00  8.4591922912695821e+01  8.2822277944716465e+00  2.9115959894721748e+01  1.8979360519484739e+01  6.1035710014058438e+01  8.8508410623340339e+00  1.4941508314636788e+01  4.6499632326383761e+01  6.2605129731247580e+01  2.7593006647700921e+01  1.9938791749222435e+01  4.6494711681116407e+01  2.9512367358806126e+00  3.0858893044355543e+01  2.5276150755122857e+00  2.9128182098558934e+01  1.3815311633251254e+01  4.3576753775220034e+01  1.5157448531718005e+01  1.2801115977398143e+02  7.1731376844978600e-01  4.5669774146179904e+01  1.8578008224636686e+00  3.2624599837107432e+01  6.1619940705580181e+00  1.3527794179489270e+01  4.4041772281924390e+00  2.4422322226539123e+01  2.1675400855776136e+01  2.4575241772978885e+02  1.8985416032969565e+02  2.2002087965413473e+01  6.4232707818006801e+01  3.7051409963446616e+01  6.8378191584661456e+00  5.5799487806240876e+01  3.0594575572245777e+01  1.2326939512524532e+02  2.5427317498780344e+01  2.1610221191380774e+01  7.8954409941617314e+00  3.6942056593400467e+00  2.9555341898167043e+01  2.4302973435894700e+01  1.1751069834522742e+01  1.4311730210719958e+02  1.1229602466152215e+01  4.6724923131066291e+01  3.5899657185205878e+00  2.7168905369256045e+01  5.1002887070884690e+01  1.1204685591179206e+02  6.9254350998926570e+00  2.8935714084156199e+01  1.1735172293482883e+01  1.2516483775906728e+02  3.6034110076422086e+00  5.0331906642805684e+01  2.2078249792429330e+02  1.9451883934911953e+02  9.4148091828242642e+00  3.3415405110103556e+01  5.2269489652625353e+01  2.1530793931010265e+02  8.0825060063937838e+02  3.0575206985211889e+01  9.7589448584542442e+00  8.4313240074649173e+01  4.7754544881087542e+00  4.4770005482940981e+01  1.5854526551353466e+01  5.2652969373093867e+00  5.0543299996879021e+01  4.9106788313897987e+01  1.3223601484051972e+01  1.8683876851551936e+01  3.9608590635009868e+01  2.1607932450211642e+00  7.6317529401817637e+01  8.3314835221468414e+01  2.9654724084728244e+01  9.1233677347518721e+01  2.4888602270289162e+01  1.2770845186684388e+01  3.4514929570063238e+01  3.2810237645956830e+00  3.5522090003917732e+01  5.1872989476398942e+01  6.7498655518458932e+00  3.7457013949425757e+01  1.9904178521316769e+01  1.7515251880308309e+01  1.2448322349074513e+01  5.7893791575264856e+01  1.9376104274922389e+02  3.2718287606627581e+02  8.5912584281892848e+01  3.9185248105612001e+00  3.3431165961841685e+01  6.0934046021572985e-01  6.2985074555524832e+01  2.1291221192507084e+01  2.0408227963041949e+00  2.9883356337702601e+01  6.8133095685320288e+00  1.6753552708593162e+01  9.3947720823778820e+00  5.7784036483987578e+01  3.5253475610774579e+01  3.2175617798529950e+00  2.5381271980105520e+01  4.7086932431899875e+00  5.1787979002473492e+01  4.3615235045913423e+01  3.6585532530123053e+00  1.1006087082107621e+00  4.0178785728016493e+01  2.3489486086024318e+01  3.7015989699776917e+01  1.8435196444493965e+01  4.2016117529375236e+00  3.2643139091122968e+01  2.0892801638058238e+01  3.1313432669215956e+01  2.8971451588637048e-01  1.0001826485491388e+02  3.0094274200026538e-01  7.4466989212190711e+01  1.0507902458574049e+01  1.3744898864228077e+01  2.1006272717869159e+01  2.8240419327129828e+01  8.1762822555310350e+00  5.0850349356107101e+00  2.4722240176694626e+01  1.8106344711139482e+01  1.5637844602028839e+01  2.0459913006188390e+01  2.0684677565309460e+01  1.9769021769479082e+01  5.8780471114829176e+00  9.0890050084167751e+00  9.8128031037803638e+01  2.1831365454180542e+01  2.1853936220372699e+01  1.4756454808669760e+01  2.4602785628603421e+00  4.5603761384333573e+01  6.7198362091866144e+01  6.4049082419152981e+01  3.2782123751156583e+01  9.1099092484607560e+00  4.1008029475667300e+01  2.2658915785014111e+02  1.1222248127227601e+01  1.4447286740204067e+01  2.4213752023387695e+01  6.8883636337691811e-01  7.1605928000389738e+01  5.9767599523766002e+01  9.7109632159057604e+00  5.8928626705574267e+01  2.9732481598197133e+01  8.0394670510002697e+01  4.6118600454850034e+00  3.9886969232796318e+01  2.0201364538840370e+01  2.5756034464855798e+01  9.2292459785190388e+01  5.0676306989116469e+01  1.4734694195422182e+00  1.3954055632260841e+02  5.5705560748854310e+01  6.6469208728410054e+00  2.6125871056927986e+02  3.6699657103949096e+02  1.6675770280047622e+01  1.1620341777530615e+02  1.6313406838942691e+02  1.2995666424714813e+01  1.8490857582861821e+01  2.8451894020086752e+02  6.5549091345165692e+01  5.9887723609909393e+01  1.3644291473467710e+01  1.6073972237351864e+01  1.0818669979469574e+01  2.5676167686779195e+02  3.3007254581136704e+02  1.0535835911054534e+01  4.0533261660012307e+01  6.6071237896424497e+00  1.9354607607372313e+02  3.6693507014351717e+01  1.4417063638032582e+01  3.1602508862394131e+01  1.4729161808997475e+01  5.3347064968400218e+01  1.3348192209458907e+00  3.5650706200979918e+01  1.5105522609915809e+01  6.5841168535349199e+00  3.4717702895188154e+01  5.9307676852119982e+01  8.4811155780719290e+00  3.8422450806439862e+01  1.5678325021298198e+00  2.4251073724691401e+00  4.3101166329027883e+01  1.7275550269909868e+01  2.5110833518970377e+01  1.2608597847327829e+02  1.7020317223756504e-01  3.9141760067825322e+00  2.6571969613756874e+01  2.2334276999755794e+01  1.1071356240136785e+01  2.3632255307201032e+01  5.2554974826788829e+01  2.1325275020440563e+02  5.1737810195570000e+02  1.8292489143730904e+02  1.9228825059043552e+02  5.6309537783634937e+01  1.3111269150246054e+01  4.3633965860537472e+01  1.5077655294235629e+02  1.3005574819559777e+02  5.0710841285592295e+01  6.1069892589385184e+01  8.5238408505865637e-01  5.5982628681907869e+01  1.7551250421232990e+02  4.4799248808932850e+00  2.8718886498079844e+01  8.7514164789393831e+00  3.6473747757478833e+01  2.9878343997065606e+00  2.8005715220685222e+01  7.8681990272338194e+00  4.3658816576724718e+01  9.5194530367410728e+00  6.2033149550514203e+01  1.1011775081949645e+01  1.7781271488606155e+01  3.8716022711419477e+01  1.1397764336207413e+01  6.2492262873435711e-01  5.3467479733285380e+01  1.4486947657230113e+01  8.2294733730270320e+00  3.3591752606423498e+01  1.9753508771919201e+01  2.3970200821607747e+01  5.4374332751780425e+00  9.4015606966333714e+00  4.2603619321020147e+01  1.4943961693756822e+02  6.3004541296681644e+01  1.1949040530140646e+01  2.7031214106627233e+00  5.0336172078858077e+01  3.4418351609466109e+00  2.5551967800998732e+01  1.1923542236964947e+01  1.6595392887150314e+01  2.8627446692810938e+01  1.5360754740457156e+02  1.2780960276472889e+02  4.9126005942703141e+00  3.3383751095313137e+01  2.2172867196048323e+01  1.4643117569184145e+01  5.4776319336297789e+01  2.7373138090915482e+01  8.4564323222609907e+00  2.5628560233516362e+00  2.8188705818831824e+01  1.0925233438886369e+01  1.2241902931302063e+02  4.5428947224611932e+01  8.6024663369042464e+00  1.6663782780007082e+01  4.8804917305521078e+00  4.5990352253349862e+01  9.5035892174994552e-01  1.4047137774262222e+02  1.1219240775351640e+01  4.3424227963406196e+01  4.5860290072673727e+01  1.2994337554316346e+00  4.3479716857453276e+01  8.2954305549900358e+00  1.0589057419022804e+01  2.6123191632060077e+01  7.0999500949756481e+01  1.9923455412988691e+01  1.3459242968637511e+01  2.2095643625151151e+00  3.3660394420610288e+01  3.0404220975143900e+01  1.1214001955380484e+01  2.0062743625368157e+02  1.3844870964959910e+02  1.7073097365060903e+01  1.6859749749139024e+02  2.5382842927175894e+01  6.6518791806323314e+00  5.2042529770521341e+01  9.0991348807919259e-01  4.1724167303447409e+01  7.3966103418244785e+01  9.4490257003248690e+00  4.7471133183638671e+01  5.8901972705143635e-01  5.1359065305560812e+01  1.5708190486444585e+02  2.0