<?xml version="1.0"?>
<VTKFile type="UnstructuredGrid"  version="0.1"  >
<UnstructuredGrid>
<Piece  NumberOfPoints="1855" NumberOfCells="3532">
<Points>
<DataArray  type="Float64"  NumberOfComponents="3"  format="ascii">0 0 0  30 0 0  30 -10 0  0 -10 0  0.1391574078963744 0 0  0.2856388821882616 0 0  0.4398299073010886 0 0  0.6021362569539473 0 0  0.7729850389704483 0 0  0.9528258543586996 0 0  1.142131984380316 0 0  1.34140159760994 0 0  1.551159074717981 0 0  1.771956417032531 0 0  2.004374674080994 0 0  2.249025475789527 0 0  2.506552636773105 0 0  2.777633857742732 0 0  3.062982518028728 0 0  3.363349525995907 0 0  3.679525322337712 0 0  4.01234195575742 0 0  4.362675247811097 0 0  4.731447135329707 0 0  5.119628065610077 0 0  5.528239565804708 0 0  5.958356943167011 0 0  6.411112081475485 0 0  6.887696441559404 0 0  7.389364184530748 0 0  7.917435485335147 0 0  8.473300005202017 0 0  9.058420557070402 0 0  9.674336929103793 0 0  10.32266995225095 0 0  11.00512576896296 0 0  11.72350030646412 0 0  12.47968402994705 0 0  13.27566689579597 0 0  14.1135435963616 0 0  14.9955190732806 0 0  15.92391430904694 0 0  16.90117245730496 0 0  17.92986524844506 0 0  19.01269976086341 0 0  20.15252556282024 0 0  21.35234220269763 0 0  22.61530708683689 0 0  23.94474379751883 0 0  25.34415086349739 0 0  26.81721093579712 0 0  28.3678004819169 0 0  30 -1.111111111111111 0  30 -2.222222222222222 0  30 -3.333333333333333 0  30 -4.444444444444445 0  30 -5.555555555555555 0  30 -6.666666666666666 0  30 -7.777777777777777 0  30 -8.888888888888889 0  28.36780047917311 -10 0  26.8172109305839 -10 0  25.34415085606858 -10 0  23.94474378810899 -10 0  22.61530707566275 -10 0  21.3523421899591 -10 0  20.15252554870171 -10 0  19.01269974553473 -10 0  17.92986523206254 -10 0  16.90117244001232 -10 0  15.92391429097614 -10 0  14.99551905455266 -10 0  14.11354357708742 -10 0  13.27566687607703 -10 0  12.47968400987599 -10 0  11.72350028612546 -10 0  11.00512574843363 -10 0  10.32266993160086 -10 0  9.674336908396342 -10 0  9.058420536362949 -10 0  8.473299984546333 -10 0  7.917435464777824 -10 0  7.389364164113587 -10 0  6.887696420787165 -10 0  6.411112061446698 -10 0  5.95835692337857 -10 0  5.528239546282652 -10 0  5.119628046377237 -10 0  4.731447115907979 -10 0  4.362675229213632 -10 0  4.012341937260036 -10 0  3.679525304434552 -10 0  3.363349508456405 -10 0  3.062982500861274 -10 0  2.777633840953978 -10 0  2.506552620368097 -10 0  2.249025459771861 -10 0  2.004374658452946 -10 0  1.771956401795187 -10 0  1.551159059871345 -10 0  1.341401583153029 -10 0  1.142131970307521 -10 0  0.9528258406748833 -10 0  0.7729850256685147 -10 0  0.6021362439621285 -10 0  0.4398298947504031 -10 0  0.2856388700059078 -10 0  0.1391573960769001 -10 0  0 -9.855072463768115 0  0 -9.710144927536232 0  0 -9.565217391304348 0  0 -9.420289855072463 0  0 -9.27536231884058 0  0 -9.130434782608695 0  0 -8.985507246376812 0  0 -8.840579710144928 0  0 -8.695652173913043 0  0 -8.55072463768116 0  0 -8.405797101449275 0  0 -8.260869565217391 0  0 -8.115942028985508 0  0 -7.971014492753623 0  0 -7.826086956521739 0  0 -7.681159420289855 0  0 -7.536231884057971 0  0 -7.391304347826087 0  0 -7.246376811594203 0  0 -7.101449275362318 0  0 -6.956521739130435 0  0 -6.811594202898551 0  0 -6.666666666666667 0  0 -6.521739130434783 0  0 -6.376811594202898 0  0 -6.231884057971015 0  0 -6.086956521739131 0  0 -5.942028985507246 0  0 -5.797101449275362 0  0 -5.652173913043478 0  0 -5.507246376811594 0  0 -5.36231884057971 0  0 -5.217391304347826 0  0 -5.072463768115941 0  0 -4.927536231884058 0  0 -4.782608695652174 0  0 -4.637681159420289 0  0 -4.492753623188406 0  0 -4.347826086956522 0  0 -4.202898550724638 0  0 -4.057971014492754 0  0 -3.913043478260869 0  0 -3.768115942028985 0  0 -3.623188405797101 0  0 -3.478260869565217 0  0 -3.333333333333334 0  0 -3.188405797101449 0  0 -3.043478260869565 0  0 -2.898550724637681 0  0 -2.753623188405797 0  0 -2.608695652173912 0  0 -2.463768115942029 0  0 -2.318840579710145 0  0 -2.173913043478261 0  0 -2.028985507246377 0  0 -1.884057971014492 0  0 -1.739130434782609 0  0 -1.594202898550725 0  0 -1.44927536231884 0  0 -1.304347826086957 0  0 -1.159420289855072 0  0 -1.014492753623188 0  0 -0.8695652173913047 0  0 -0.72463768115942 0  0 -0.579710144927537 0  0 -0.4347826086956523 0  0 -0.2898550724637676 0  0 -0.1449275362318829 0  5.15859856094262 -4.976557621770688 0  2.816777084926057 -7.160262673925935 0  2.81677708460006 -2.839737326002783 0  2.227649803257325 -5.003121586636773 0  1.518662968975629 -8.46230852045241 0  1.518662969184829 -1.537691480152612 0  9.960740911025725 -5.055901393541221 0  1.491099662214591 -3.691833922963321 0  1.503675657181264 -6.345020369042368 0  5.319208041801049 -7.493850249937013 0  5.291109955459268 -2.489368743223226 0  1.096914507335763 -2.53623188405797 0  1.096914507253562 -7.463768115942029 0  1.089580194952752 -4.71277167923441 0  15.07565076110197 -5.047572991082069 0  7.501630508673601 -5.937500100385354 0  0.8894869418764504 -5.623930488933245 0  2.955144522453978 -1.440834296472408 0  2.955144521140721 -8.559165705576945 0  8.106603955004623 -2.748811534843258 0  3.662152539483591 -4.228178367024407 0  3.662181528265114 -5.771746159989156 0  0.8436558190317136 -0.8541050638451999 0  0.8436558075840921 -9.145894948342754 0  0.7854168197005933 -1.811594202898552 0  0.7894693398152999 -3.286543351392342 0  0.7854168196772591 -8.188405797101449 0  0.7854168196772591 -6.739130434782609 0  20.00078956016804 -4.999999999785771 0  0.7379120031523989 -3.977302749614766 0  6.584332478112232 -3.934875417052907 0  7.295091310194352 -7.969791332537982 0  9.811174303464586 -7.412814499648229 0  4.013376806449688 -2.206189431585293 0  4.013376806983409 -7.793810569017377 0  12.11177433894592 -2.818343737884045 0  2.591152707837148 -3.990098461753838 0  2.58990939378082 -6.025895074707176 0  25.43156400064585 -5.044446479916348 0  2.03262751726143 -2.282125834846944 0  2.032627517335952 -7.717874165160392 0  12.51865094522923 -6.491408052923457 0  0.598175343983641 -6.156971652625402 0  2.126700074935224 -0.8767654465386991 0  2.126700059112423 -9.123234559633019 0  6.617961838548696 -1.617756429129908 0  0.5903949564549755 -4.980060355019413 0  1.676697585305984 -5.547101897225158 0  4.773518305133987 -3.729331162566817 0  4.77931803486508 -6.231222307502165 0  4.878549698409591 -8.72048903376362 0  4.852580875634024 -1.222215410052823 0  0.5487847095754042 -2.675169258708207 0  0.545113423825768 -7.32369553390529 0  1.78738026998851 -4.400451872599477 0  1.68244194111824 -3.010100184333533 0  1.683984276238402 -7.018293626028473 0  9.998503440677371 -2.00585287985007 0  3.693061162502273 -3.243678395563028 0  3.694987482168253 -6.757603268814477 0  6.081763036485869 -5.83414381546261 0  0.5196640460586313 -1.350633211792632 0  0.5196640458460706 -8.649366789040087 0  3.84593363904758 -0.9906418103762418 0  3.845933620847308 -9.009358200471317 0  17.41551885287501 -3.057748733689079 0  17.30725517812527 -7.002961443761516 0  8.117698464370697 -4.451550942597151 0  0.4918476668493152 -0.4789811193757592 0  0.4918476560347713 -9.521018882514893 0  1.463770869328428 -0.6252343353791154 0  1.463770854281917 -9.374765668872765 0  0.5034132782032188 -4.464280853772128 0  3.138906271796685 -4.99999841599503 0  14.61209972381335 -2.388610981020637 0  6.208601124947327 -8.776231214192325 0  14.74910972998159 -7.542186851303819 0  2.243794246335625 -1.632184311040998 0  2.243794245689214 -8.367815689183566 0  0.4590235278399923 -5.431413993025926 0  0.4971508861448406 -2.209632053221267 0  0.4971508861368665 -7.790367946777407 0  0.4644363683211541 -3.560571347760519 0  6.478811279411406 -7.007392971062433 0  1.238895267772762 -4.173677632458826 0  1.293241773632479 -2.02256720952064 0  1.293241773542714 -7.977432790434841 0  0.4324740478030531 -0.942028985507247 0  0.4324740423701829 -9.057971014492754 0  2.117396640811705 -3.472968170680347 0  2.107095929630507 -6.531506384346077 0  8.087741545730886 -1.392783601483453 0  1.028911946384717 -1.352376108341404 0  1.028911946221715 -8.647623891551962 0  4.05691976296832 -4.991522392209158 0  11.51826881314265 -8.065248940008736 0  1.618560396201739 -4.958056164503666 0  2.701984523487646 -2.141781914603403 0  2.70198452396172 -7.858218085853512 0  2.843615645746219 -9.289121726447632 0  2.843615661334342 -0.7108782798429658 0  8.678774612240533 -8.488146490452822 0  6.487906449371135 -2.667543558824978 0  8.369190916679937 -7.129867754908394 0  11.80978191929258 -4.655775487536958 0  0.3792065166453504 -3.113833531412848 0  0.4134714637263563 -6.58827691137208 0  9.551050695080825 -3.49648183875815 0  1.083867845277057 -6.036251777836495 0  0.3756430921870901 -1.80381664325008 0  0.3756430921689482 -8.196183356748573 0  3.113073783220456 -3.503408140759125 0  3.113391383189963 -6.496678880796299 0  22.62850736315072 -3.277987336300344 0  22.59385352108348 -6.800312122582239 0  0.3777114402537816 -4.137047872695438 0  0.9196816123347897 -0.4281025456111269 0  0.9196815944880363 -9.571897460530383 0  0.4052043328723194 -5.827814332459883 0  8.865857694874787 -5.767686953139113 0  1.200388325130726 -5.182186034620629 0  5.65297436943758 -4.325500846767599 0  1.200079167961391 -3.009849046583253 0  1.20883344838 -7.021823297793294 0  1.057642414577487 -3.660996704809145 0  10.88812987788297 -6.333458225047037 0  4.493502926606794 -2.839780197438185 0  4.485862892033458 -7.147606077919463 0  0.3631651408878085 -7.003529808558233 0  1.946748828463205 -6.049056369468467 0  6.918750162798794 -4.993796052442676 0  3.351203216022585 -1.980935554775394 0  3.351203216441711 -8.019064445907297 0  2.281892243515294 -2.856654416292082 0  2.281892243715877 -7.143345583598931 0  5.811143619672087 -0.9953286820321026 0  2.695713766833098 -4.565354125099452 0  2.698172168139827 -5.435483248292925 0  19.86166219288896 -2.493475492328429 0  19.83739102036415 -7.594404063416508
[...]
<PointData  Scalars=" mean stress"> 
<DataArray  type="Float64"  Name=" mean stress"  format="ascii">-6.8004119358129750e-02  1.7202636902630875e+03  3.0846288889909458e+04  1.9757490267105431e+03  2.3557954537171541e-01  2.5209335031593133e-01  8.3045049464653442e-01  1.4437733733491580e+00  2.3272978357721459e+00  3.6200413935331381e+00  5.4303653521315516e+00  6.7193866247950096e+00  9.3073500835441187e+00  1.2412236769685508e+01  1.5567306547922612e+01  1.8653478249167129e+01  2.4831478101762524e+01  2.7985976883712631e+01  3.6050310113204574e+01  4.2317297401586544e+01  4.9807877640920488e+01  6.1889382583854143e+01  6.9035334139558515e+01  8.0897503814293017e+01  9.7466891399784714e+01  1.1611856622619868e+02  1.3302302111617482e+02  1.5141673621441217e+02  1.7618802585092695e+02  2.0146109097785666e+02  2.5099426461057291e+02  2.9902981308163015e+02  3.4730172169321042e+02  3.8703554890460180e+02  4.9676008751507055e+02  6.0119004992117186e+02  6.8864919211478832e+02  8.6363195168818277e+02  9.2723618890879902e+02  1.0899835540723273e+03  1.2384611078275509e+03  1.3182629812451646e+03  1.4105985230931010e+03  1.5005344740340261e+03  1.5179537689523461e+03  1.5117275431905982e+03  1.5622591275097705e+03  1.6218710740956199e+03  1.6389144740419815e+03  1.5582979862473073e+03  1.5926592186819103e+03  1.6158682509884038e+03  1.5659468620655389e+03  1.6587756402715711e+03  1.7681819734173732e+03  2.0673934342745356e+03  2.3241541905532617e+03  3.0767672580420472e+03  4.3735514654177887e+03  7.5200044467484677e+03  8.9519230793863371e+03  5.4393184579536928e+03  3.7107391352514637e+03  2.6001524386993628e+03  2.0504259958591979e+03  1.6877382399483727e+03  1.3855547036945275e+03  1.2371210528668184e+03  1.0594611955224559e+03  9.7348627267885638e+02  8.7747805307060935e+02  8.4312152371731622e+02  8.2402114697666605e+02  8.2719423351209934e+02  8.4600953472689844e+02  9.3364699378136243e+02  1.0556649335070103e+03  1.4221902577993153e+03  2.3782396010732596e+03  4.2472124351677812e+03  3.0032741679894953e+03  1.2967069595592000e+03  8.8402070183392425e+02  6.6721585871505283e+02  5.2916347496599474e+02  4.3927710426582712e+02  3.6988799984997075e+02  3.3458119297091650e+02  3.0700201131801140e+02  2.8798165801006093e+02  2.6644092180071800e+02  2.6511551680824874e+02  2.6169664540552873e+02  2.6486018656321988e+02  2.7836922241972974e+02  2.8258273885081644e+02  3.0592942266241170e+02  3.1970503735293022e+02  3.4130892501198440e+02  3.9053397410787085e+02  4.3031276287486895e+02  4.8927957218723651e+02  5.7824332808350664e+02  6.6571519111300222e+02  8.3998825487260012e+02  1.1447304838991085e+03  1.4166352443617723e+03  2.0628782084818363e+03  1.1061231715283072e+03  7.0758142415596080e+02  5.6203235937056957e+02  4.5319328005571242e+02  3.8877775051574815e+02  3.4103739092675630e+02  3.0492338442000693e+02  2.8217105600318496e+02  2.5862448106577193e+02  2.4370031269968484e+02  2.2699411015122001e+02  2.1509349506201090e+02  2.0392378855628408e+02  1.9520722707619908e+02  1.8541794988472066e+02  1.7825832967184093e+02  1.7111700766344637e+02  1.6391098970064184e+02  1.5733280929372043e+02  1.5146456372313858e+02  1.4598945199013804e+02  1.4064346102750932e+02  1.3520609134337795e+02  1.3017537599327719e+02  1.2518186856896310e+02  1.2082032935786070e+02  1.1561253592397662e+02  1.1107934745739267e+02  1.0638666215193793e+02  1.0222776590626732e+02  9.7557881587426110e+01  9.3314953190178613e+01  8.8843314891705205e+01  8.4689338330533744e+01  8.0317599118758778e+01  7.6404012859113095e+01  7.2363043000522580e+01  6.8348897894467754e+01  6.4523305609304614e+01  6.0726490842843212e+01  5.6860788071291672e+01  5.3248343582224386e+01  4.9756353472687664e+01  4.6068417729641347e+01  4.2628530454892434e+01  3.9582584378826390e+01  3.6253164644121576e+01  3.3386691799853359e+01  3.0374978426836918e+01  2.7416299915313996e+01  2.4969141921662725e+01  2.2373502265872432e+01  2.0014028393088736e+01  1.7438026832519039e+01  1.5443541486272805e+01  1.3375123333797697e+01  1.1554367870903953e+01  9.7072070108978501e+00  8.0970347003924150e+00  6.6058342490830828e+00  5.3389888203721547e+00  4.1407638865184602e+00  3.0408734682972383e+00  2.1091888964248002e+00  1.6188744455553330e+00  9.5645803963786236e-01  1.3970343808416971e-01  7.9367929991559283e-01  1.8462067960283980e+02  2.9523544723305213e+02  6.2987474163622899e+01  1.2809965751974909e+02  2.7291563545307969e+02  1.7696296647220048e+01  3.6944946345684781e+02  6.1435593955056106e+01  1.5343161999534911e+02  3.6144385890610670e+02  1.1139477636102620e+02  2.9231583789971737e+01  1.8561736553756032e+02  8.4057735092598477e+01  9.7481555824806640e+02  2.6661360170323741e+02  1.0899935695320778e+02  3.9485710914805992e+01  3.7797266953183225e+02  2.2083766048010628e+02  1.3040142556303618e+02  2.3249746348044931e+02  5.6599113011783908e+00  3.4534502432199002e+02  1.4949849561688159e+01  4.1644223938700598e+01  2.2023136620284259e+02  1.4629610539315487e+02  1.4273908368960110e+03  5.8212877547685380e+01  1.7835670965078367e+02  4.1298209489750758e+02  5.0312727562858282e+02  7.3782460454211687e+01  4.2344108481284832e+02  5.5050149052410177e+02  9.6497394760764863e+01  1.9988132251737611e+02  1.9558921207016290e+03  3.6409044762162665e+01  2.5339222555301623e+02  7.2759918014451171e+02  1.2230015976726055e+02  1.9392897076829549e+01  3.5110433489168526e+02  1.4784594700317010e+02  8.4867895227743702e+01  1.2931137654700058e+02  1.2863355683277487e+02  2.7032410102945062e+02  4.2743606065950405e+02  8.3941841308706614e+01  2.7726454493861656e+01  1.6488564184010608e+02  9.0036800293849069e+01  4.6944530976928569e+01  1.9142566943448517e+02  3.4449032833979089e+02  9.2106570587248640e+01  3.2953873911964780e+02  2.3490896533425033e+02  8.3075479063623376e+00  2.5752169369510881e+02  5.3248943173315745e+01  3.8458071892052152e+02  1.1564303281357259e+03  1.2236654812178681e+03  2.4356183978468016e+02  1.8889440244557021e+00  4.9501191298303593e+02  9.3134558719790590e+00  3.8388019060207324e+02  6.9121883186849047e+01  1.6327118332300569e+02  8.7027761064024526e+02  4.8590102825945098e+02  1.0154916369649760e+03  2.9574860183347518e+01  3.1497760308249337e+02  9.7135651911005240e+01  1.9395473421197241e+01  1.8760667863161964e+02  4.6050533688728976e+01  3.1062589976283056e+02  7.0998670941266241e+01  2.2227091662572956e+01  2.2338063899494921e+02  4.1802060385334041e+00  3.2512650133580149e+02  6.6982689471592224e+01  1.9510960068076673e+02  2.1996584243490324e+02  1.1351453236268139e+01  2.7090211800951425e+02  1.7803776156930343e+02  7.8152895714072145e+02  1.0478824139020959e+02  4.4767125211304382e+01  3.2464427753825692e+02  3.4263828037054077e+02  3.0399606417528329e+01  5.9727072897999460e+02  1.5062660838305769e+02  3.7364362853455270e+02  5.4250807201069119e+02  3.5610179013339646e+01  1.3434917710562462e+02  3.0890131797904297e+02  1.2794278564803797e+02  1.2942207730263041e+01  2.1262848139685732e+02  8.9614813444582282e+01  2.6842972241885502e+02  1.5039010798991517e+03  1.8889059009328319e+03  6.0470135100902368e+01  3.8498216939872418e+00  4.7302303117818082e+02  1.0935944501899139e+02  3.1743151618707924e+02  1.0126001611958760e+02  1.6458443016411658e+02  4.0416672068422621e+01  1.6940794838580842e+02  5.3745882233810832e+01  5.1112373811230964e+02  9.7440658329595905e+01  3.6283146368926913e+02  1.4976718983756734e+02  1.6220339116357459e+02  2.1409529078779704e+02  5.5004968195622602e+01  4.0494260136799670e+02  5.3672822069438574e+01  2.3691607474803536e+02  1.1591251629886099e+02  1.2394408116695273e+02  1.6923769722546231e+02  1.3379585098982673e+03  1.4743978561603697e+03  1.3527669781758965e+02  7.4475676369656912e+02  1.6437694808440165e+03  3.0902841027880663e+03  3.1644530957912428e+02  1.1914103669074432e+01  3.1302836619273542e+01  2.1275373971085418e+02  4.8350185759102595e+02  2.1457426992837330e+01  1.9709069844253261e+02  2.9161851058604350e+02  2.2838722596258054e+02  6.9814337231512411e+01  3.7853408195486082e+02  7.1536759364721343e+02  1.4706664225159227e+02  9.1744589921686133e+02  2.6146772514057869e+01  2.5607736265255664e+02  1.4354123827879943e+02  7.6970354668554663e+01  5.9941259466789222e+02  1.3130042793286306e+01  3.6935085136309556e+02  1.4968348853602581e+02  8.2316857551656562e+02  7.6521140210456622e+01  6.9756073642131810e+01  3.8384593719317911e+02  1.1751532786832217e+03  8.7041177621870460e+01  4.2580728286620234e+02  1.2357604183188765e+02  1.2252120706208262e+02  8.7422055845420147e+01  3.7829786430183862e+02  6.9885730493108198e+01  4.2857891341480337e+02  1.0823369010557577e+02  1.9936307782419181e+01  3.3784442925855757e+02  1.7937941031856464e+01  3.1869610993059194e+02  1.8073711831690562e+02  4.3267929077322987e+02  6.7389547664293033e+01  2.9754298375546989e+02  5.2603929875875771e+01  3.4591452233195135e+01  1.6017648385000504e+02  1.8713787248433664e+02  4.0807855711786807e+01  3.2877656832681566e+02  2.2973213927399204e+01  1.7192900064297004e+02  1.9598210758726313e+02  2.2572614787792867e+02  3.0189005508551652e+01  9.0381540641666280e-01  6.6102640695116099e+02  2.4040183324191617e+02  7.2267810711306211e+01  1.1360057424260869e+02  2.2181590931875874e+02  4.4210153538634859e+02  2.0965917882663257e+03  1.0453949721892552e+03  1.0005136107455215e+02  3.1892228516542906e+02  3.4520314810184675e+02  2.7685932629562739e+01  2.7297650667886711e+02  4.1933323255803515e+02  1.2033341184497523e+02  1.5932417429123957e+01  2.3935418556351792e+02  9.5264241904829206e+01  1.6319647107408443e+02  1.0816082910427124e+03  1.1394202268767941e+02  4.9457296455399351e+01  7.8783775772729172e+01  1.7044256355831482e+02  4.9411659420605162e+01  4.0568956545750456e+02  9.0209575043283041e+02  1.5155571943291125e+03  2.5794707525276644e+03  2.9749404765621711e+02  6.3528482229603211e+00  8.9749612503134500e+01  9.2981594606472324e+00  6.2123070872525084e+00  2.6995184189713473e+02  2.3423497111437277e+02  1.0081776895273613e+03  8.2984192967387244e+01  2.2429426276182740e+00  3.9575666029183088e+02  2.5315336033568732e+02  1.5900193421985756e+02  9.0285190110466914e+01  6.7471478928568459e+01  4.2062488295762722e+02  5.7356372689951058e+01  4.5152568401108135e+02  5.9269174634529191e+00  1.3272734158979378e+02  1.1053208815881121e+03  1.3978331787985059e+02  5.1342720120753029e+01  2.9715624338404450e+02  7.2963547227905167e+02  1.2367929521058849e+02  2.3446224829939610e+00  5.8856725254451374e+02  2.6620890666995308e+02  2.5510438330508569e+02  4.0390291916015599e+01  2.3871861736157470e+01  1.7923767381678124e+02  1.6380799580129224e+01  1.9209751631324357e+02  7.4531596516989723e+01  1.5462541259176356e+02  3.6996376654256260e+01  1.8854341601051470e+02  6.2319681483658913e+00  3.8998832870315624e+02  4.2917598888498765e+02  1.9225549352462036e+02  1.5631578602607578e+02  1.1535378010820175e+02  1.0787599892945101e+02  1.1543499157529544e+01  2.4372671062128993e+02  1.0126166314961442e+02  8.3110418879874658e+02  3.5374203349688298e+02  1.3606655139749007e+01  2.0332103557743596e+02  4.6687078375429792e+01  2.7258023659059882e+02  3.9156673335891789e+01  3.6893782034006864e+02  1.4732215844601993e+02  3.7688800281458873e+02  4.2221113467597718e+01  2.1743306643908906e+02  1.2027281753052632e+03  1.2704241823787595e+03  1.2678268779115589e+02  2.6544623933544671e+02  1.3137320669705355e+02  1.7453198861012368e+02  1.6011644537353413e+03  3.6472377738757359e+01  2.9338056543042194e+02  6.0539741338331218e+01  7.6060520489347610e+01  3.2552093224854212e+02  2.7638170081342889e+02  3.7353605160472384e+01  3.4140392218907255e+02  8.3341464534059710e+01  3.8498334801416416e+02  1.3185528008813235e+03  1.1898458291781286e+02  2.3200486247215295e+01  2.8856185441984877e+02  7.1202847188581995e+02  1.0645701562512393e+02  3.8528602077304179e+00  3.7396328006907817e+02  5.7058052168776520e+01  3.4809559050070652e+02  1.8561855778864674e+02  3.1691218507191098e+02  4.3038007537373579e+02  3.1361205716352509e+02  8.5523402685316192e+00  8.9320084968020677e+00  4.0106181616407611e+02  5.2512426157832515e+01  3.2669805038457184e+02  5.9665638511642169e+02  1.3971239503566764e+02  9.6055201968855204e+02  6.4092875950174019e+01  9.5409244393948222e+02  1.2819703677028288e+03  4.7010887444141974e+02  1.1209000248859869e+02  8.5746950883316731e+02  3.3399165332454757e+01  5.9743218181867280e+02  5.5968985230241429e+01  2.0336362500344831e+02  1.3616632586833640e+02  4.2810923331871930e+02  6.1856977832182324e+01  1.0453209190706384e+02  3.2518287750356558e+02  4.4244349297799533e+02  1.9123345207134105e+02  1.3782323856996047e+02  3.2799041307284654e+02  1.8849652491225569e+01  2.1671374447448437e+02  1.5874763088196291e+01  2.0451971645597249e+02  9.4967235344791419e+01  3.1000051683517808e+02  1.0492148918383857e+02  9.1918639365019521e+02  3.7071860941181765e+00  3.2170681014652416e+02  1.1322346247778579e+01  2.2933636211045746e+02  4.1126451000731926e+01  9.3373114755604092e+01  2.8844433979449473e+01  1.7099868866282517e+02  1.5146640574634969e+02  1.7711938781232279e+03  1.3724154291602426e+03  1.5357993322327275e+02  4.5759679600252809e+02  2.6530430913468314e+02  4.5905121152174040e+01  3.9375290820390819e+02  2.1803985646417021e+02  8.8754649013198366e+02  1.8210979219585045e+02  1.5320571934991261e+02  5.3319516698066693e+01  2.3981228137766976e+01  2.0739052008513954e+02  1.7031003927793319e+02  8.0730660143144704e+01  1.0202464895216950e+03  7.6738052445664451e+01  3.2888954828443940e+02  2.4103399139297402e+01  1.8890603200993351e+02  3.6081802761908779e+02  8.0564678771660306e+02  4.6430318201710435e+01  2.0830138418325234e+02  8.0104523521635528e+01  9.0469436200155894e+02  2.4692506729915920e+01  3.5458143884421867e+02  1.5917508492774525e+03  1.4045080986231449e+03  6.3860958702907148e+01  2.3672717089026844e+02  3.7260765038204079e+02  1.5547252076366181e+03  5.8370060761539462e+03  2.1468233800417232e+02  6.6199649272625649e+01  6.0757252924584122e+02  3.3524855348655116e+01  3.1560432240721610e+02  1.0959179674165105e+02  3.4873223798425578e+01  3.6217061599442195e+02  3.5261059971758482e+02  9.1161074385261657e+01  1.3019200125572868e+02  2.7873420422887273e+02  1.3679871245370599e+01  5.4117202124855328e+02  5.9860445935781479e+02  2.1226633816688397e+02  6.5500871326760887e+02  1.7265457732483119e+02  8.7677992357127678e+01  2.4008702367673328e+02  2.1350956594290412e+01  2.4964490637680629e+02  3.6405467168225806e+02  4.6436343646421321e+01  2.6472740608487885e+02  1.4034808653895590e+02  1.2050636888015109e+02  8.7412200137660136e+01  4.0559684160834360e+02  1.4001318515378775e+03  2.3596838367743867e+03  6.2286603663786173e+02  2.5462468717245251e+01  2.3766759227999580e+02  3.2633118306717690e+00  4.4418430931544140e+02  1.4881049956478543e+02  1.2534949407757646e+01  2.0992024221669513e+02  4.5627087555240387e+01  1.1611616128331741e+02  6.6423753281778801e+01  4.0670448294623554e+02  2.5422849361523819e+02  2.0600782524536445e+01  1.7794317696104127e+02  3.2475375145386529e+01  3.6462845828270758e+02  3.0744323376636089e+02  2.5525802650528192e+01  6.2536112746366959e+00  2.8284577611547240e+02  1.6340682407219799e+02  2.6076481444696498e+02  1.3058374662166000e+02  2.7627631014624040e+01  2.2912907447750538e+02  1.4562418227369037e+02  2.1824333159014193e+02  1.1759936410979976e+00  7.0615171667267623e+02  9.5416471071485087e-01  5.2547543401278438e+02  7.1884006686820470e+01  9.4257319297501283e+01  1.4964798756693031e+02  1.9785819640908397e+02  5.5350846777817416e+01  3.3574729411569258e+01  1.7299020254695856e+02  1.2910992519610278e+02  1.0844223749876608e+02  1.4282493226987847e+02  1.4328993447164939e+02  1.3732852221024811e+02  3.9096940388444708e+01  6.1814326204256155e+01  7.0273393424318522e+02  1.5441863333521079e+02  1.5100476536346343e+02  1.0566781210075797e+02  1.6913704505133538e+01  3.2143376686783881e+02  4.7487960455223111e+02  4.5110115638353318e+02  2.2882133475054405e+02  6.1952503098576116e+01  2.9244204037853558e+02  1.6355815797612111e+03  7.6889306206444601e+01  1.0286706634290091e+02  1.7059580169648632e+02  4.1608309713623903e+00  5.0500679631456643e+02  4.2784781644525310e+02  6.7570483925461005e+01  4.1229766878270306e+02  2.1041374504124093e+02  5.8079671946980102e+02  3.0844873046941661e+01  2.8024182765909001e+02  1.4081409926048457e+02  1.7842729673615173e+02  6.5873761553465818e+02  3.5712689995524931e+02  9.2843395200826304e+00  1.0130673895000455e+03  3.9140654495403106e+02  4.6049535474999715e+01  1.8866800064645488e+03  2.6500811275570663e+03  1.1580493038274957e+02  8.3863219190039797e+02  1.1828649677630906e+03  8.8849127331393788e+01  1.2877268040289650e+02  2.0525301986469640e+03  4.7463156261419385e+02  4.2965493961175395e+02  9.6640035224629756e+01  1.1056005879293743e+02  7.3954776626488439e+01  1.8539802434098697e+03  2.3826109315860726e+03  7.2340033681660600e+01  2.8274214036172270e+02  4.4226622051240419e+01  1.3947017344885194e+03  2.5504758537525598e+02  9.9474391559592235e+01  2.2007016753630685e+02  1.0386559927886924e+02  3.7463744108494245e+02  7.7219748431656079e+00  2.5079389015403362e+02  1.0435348030083318e+02  4.4333565872101232e+01  2.4321114303208418e+02  4.1682240981881051e+02  5.9550901361640648e+01  2.7039080170971249e+02  9.4703442351155935e+00  1.5728111288264376e+01  3.0342137381904553e+02  1.1994302871946864e+02  1.7546723697010452e+02  8.9113992951377338e+02  4.7292567604841929e-01  2.5435062718960786e+01  1.8626207084138693e+02  1.5618663161544214e+02  7.5611354945425532e+01  1.6549418809725026e+02  3.7293134860605835e+02  1.5401640649132796e+03  3.7344169566181490e+03  1.3241962594283875e+03  1.3846361435826475e+03  4.0592529415789375e+02  9.0739711565607379e+01  3.0385908700526073e+02  1.0843667541034342e+03  9.3428632290730206e+02  3.6238367615291560e+02  4.3061897955913810e+02  4.9344187663287116e+00  3.9466383498183473e+02  1.2686652552188782e+03  2.9445790307147913e+01  2.0134093396755159e+02  5.9560128704220482e+01  2.5491246551911914e+02  1.9019512794247639e+01  1.9653263131048715e+02  5.3744282981691576e+01  3.0565302712076550e+02  6.4837243357782512e+01  4.3491968886913304e+02  7.7394959135482367e+01  1.2449990802890417e+02  2.7097931725355346e+02  7.7775863876118549e+01  3.1736399776421704e+00  3.7687207311859999e+02  1.0011833627086818e+02  5.5526162828019821e+01  2.3830696328968949e+02  1.3743525065264708e+02  1.7064797341580498e+02  3.6053127990579718e+01  6.3888727815147604e+01  3.0588468021536562e+02  1.0794102417595504e+03  4.4264246070089496e+02  8.4539535677100432e+01  1.8335355117659045e+01  3.5471807669978534e+02  2.2158015672166076e+01  1.7911762492872384e+02  8.1918050665624349e+01  1.1469361851184205e+02  2.0170613787871349e+02  1.1064793561076865e+03  9.0431931430498821e+02  3.2618855534002329e+01  2.3420286713675139e+02  1.5488328184886672e+02  1.0040369435209028e+02  3.8578911260991953e+02  1.9413533135935106e+02  5.7296059629892483e+01  1.6079673196786636e+01  1.9787743350699787e+02  7.8009675600932795e+01  8.7860989935077350e+02  3.2057017421437303e+02  6.1242269842383017e+01  1.1713957177527328e+02  3.2158217970739969e+01  3.2397511950405584e+02  5.3043434157526850e+00  1.0129786802070606e+03  7.6724664335673225e+01  3.0474175626821932e+02  3.2294083166331581e+02  7.7307419747802024e+00  3.0619936060442853e+02  5.6083652576184939e+01  7.2422302179578850e+01  1.8562922147694502e+02  5.0801557341720877e+02  1.3896777846560417e+02  9.2096034331841636e+01  1.3774571057025661e+01  2.3663190080061787e+02  2.1455360156889432e+02  7.6893497055209707e+01  1.4466334174104429e+03  1.0020414582827523e+03  1.1869514305358086e+02  1.1981550840797238e+03  1.7719708954101003e+02  4.6711913560656768e+01  3.6654061149061181e+02  4.9214676576493694e+00  2.9378698185045465e+02  5.2241736234389180e+02  6.5093119454141146e+01  3.3169085670938904e+02  2.8715759156430654e+00  3.6195812019115340e+02  1.1350249126651006e+03  1.