<?xml version="1.0"?>
<VTKFile type="UnstructuredGrid"  version="0.1"  >
<UnstructuredGrid>
<Piece  NumberOfPoints="6878" NumberOfCells="13164">
<Points>
<DataArray  type="Float64"  NumberOfComponents="3"  format="ascii">0 -4.7 0  0 0 0  30 -4.7 0  30 0 0  0 -7.400000000000001 0  30 -7.4 0  0 -18.5 0  30 -18.5 0  0 -26.2 0  30 -26.2 0  0 -50 0  30 -50 0  0 -4.600000000000001 0  0 -4.5 0  0 -4.400000000000006 0  0 -4.300000000000004 0  0 -4.200000000000003 0  0 -4.100000000000001 0  0 -4 0  0 -3.900000000000006 0  0 -3.800000000000004 0  0 -3.700000000000003 0  0 -3.600000000000001 0  0 -3.5 0  0 -3.399999999999999 0  0 -3.300000000000004 0  0 -3.200000000000003 0  0 -3.100000000000001 0  0 -3 0  0 -2.899999999999999 0  0 -2.800000000000004 0  0 -2.700000000000003 0  0 -2.600000000000001 0  0 -2.5 0  0 -2.399999999999999 0  0 -2.300000000000004 0  0 -2.200000000000003 0  0 -2.100000000000001 0  0 -2 0  0 -1.899999999999999 0  0 -1.800000000000004 0  0 -1.700000000000003 0  0 -1.600000000000001 0  0 -1.5 0  0 -1.399999999999999 0  0 -1.299999999999997 0  0 -1.200000000000003 0  0 -1.100000000000001 0  0 -1 0  0 -0.8999999999999986 0  0 -0.7999999999999972 0  0 -0.7000000000000028 0  0 -0.6000000000000014 0  0 -0.5 0  0 -0.3999999999999986 0  0 -0.2999999999999972 0  0 -0.2000000000000028 0  0 -0.1000000000000014 0  27.20217989386866 -4.7 0  24.65658906909652 -4.7 0  22.34048801472263 -4.7 0  20.23318823704648 -4.7 0  18.31586556845244 -4.7 0  16.57139348071823 -4.7 0  14.98418876757752 -4.7 0  13.54007369188117 -4.7 0  12.22614858325946 -4.7 0  11.030676339135 -4.7 0  9.942978351836206 -4.7 0  8.953338525856648 -4.7 0  8.05291659827531 -4.7 0  7.233669706591556 -4.7 0  6.488279294550789 -4.7 0  5.810087358879393 -4.7 0  5.193035808349475 -4.7 0  4.63161272757354 -4.7 0  4.120803011558468 -4.7 0  3.656043793650667 -4.7 0  3.233183542557395 -4.7 0  2.848444929339642 -4.7 0  2.498391295710253 -4.7 0  2.179895695159122 -4.7 0  1.890113142755961 -4.7 0  1.626455036319303 -4.7 0  1.386566232068105 -4.7 0  1.168303849643234 -4.7 0  0.9697182933451884 -4.7 0  0.7890355808892515 -4.7 0  0.6246417939513229 -4.7 0  0.4750684255735287 -4.7 0  0.3389794053272652 -4.7 0  0.2151590556389955 -4.7 0  0.1025013769923682 -4.7 0  30 -2.350000000000001 0  0.1025013769923625 0 0  0.2151590556389869 0 0  0.3389794053272567 0 0  0.4750684255735099 0 0  0.6246417939512939 0 0  0.7890355808892227 0 0  0.9697182933451539 0 0  1.168303849643196 0 0  1.38656623206806 0 0  1.626455036319255 0 0  1.890113142755908 0 0  2.179895695159067 0 0  2.498391295710194 0 0  2.848444929339589 0 0  3.23318354255733 0 0  3.656043793650604 0 0  4.120803011558392 0 0  4.631612727573458 0 0  5.193035808349383 0 0  5.810087358879279 0 0  6.488279294550655 0 0  7.233669706591403 0 0  8.052916598275138 0 0  8.953338525856477 0 0  9.94297835183602 0 0  11.03067633913478 0 0  12.22614858325929 0 0  13.54007369188101 0 0  14.98418876757734 0 0  16.57139348071805 0 0  18.31586556845233 0 0  20.23318823704643 0 0  22.34048801472261 0 0  24.65658906909657 0 0  27.20217989386881 0 0  0 -7.299999999999997 0  0 -7.199999999999996 0  0 -7.100000000000001 0  0 -7 0  0 -6.899999999999999 0  0 -6.799999999999997 0  0 -6.700000000000003 0  0 -6.600000000000001 0  0 -6.5 0  0 -6.399999999999999 0  0 -6.299999999999997 0  0 -6.200000000000003 0  0 -6.100000000000001 0  0 -6 0  0 -5.899999999999999 0  0 -5.800000000000004 0  0 -5.700000000000003 0  0 -5.600000000000001 0  0 -5.5 0  0 -5.399999999999999 0  0 -5.300000000000004 0  0 -5.200000000000003 0  0 -5.100000000000001 0  0 -5 0  0 -4.900000000000006 0  0 -4.800000000000004 0  27.20217989386866 -7.4 0  24.65658906909652 -7.4 0  22.34048801472263 -7.4 0  20.23318823704648 -7.4 0  18.31586556845244 -7.4 0  16.57139348071823 -7.4 0  14.98418876757752 -7.4 0  13.54007369188117 -7.4 0  12.22614858325946 -7.4 0  11.030676339135 -7.4 0  9.942978351836206 -7.4 0  8.953338525856648 -7.4 0  8.05291659827531 -7.4 0  7.233669706591556 -7.4 0  6.488279294550789 -7.4 0  5.810087358879393 -7.4 0  5.193035808349475 -7.4 0  4.63161272757354 -7.4 0  4.120803011558468 -7.4 0  3.656043793650667 -7.4 0  3.233183542557395 -7.4 0  2.848444929339642 -7.4 0  2.498391295710253 -7.4 0  2.179895695159122 -7.4 0  1.890113142755961 -7.4 0  1.626455036319303 -7.4 0  1.386566232068105 -7.4 0  1.168303849643234 -7.4 0  0.9697182933451884 -7.4 0  0.7890355808892515 -7.4 0  0.6246417939513229 -7.4 0  0.4750684255735287 -7.4 0  0.3389794053272652 -7.4 0  0.2151590556389955 -7.4 0  0.1025013769923682 -7.4 0  0 -18.4 0  0 -18.3 0  0 -18.2 0  0 -18.1 0  0 -18 0  0 -17.9 0  0 -17.8 0  0 -17.7 0  0 -17.6 0  0 -17.5 0  0 -17.4 0  0 -17.3 0  0 -17.2 0  0 -17.1 0  0 -17 0  0 -16.9 0  0 -16.8 0  0 -16.7 0  0 -16.6 0  0 -16.5 0  0 -16.4 0  0 -16.3 0  0 -16.2 0  0 -16.1 0  0 -16 0  0 -15.9 0  0 -15.8 0  0 -15.7 0  0 -15.6 0  0 -15.5 0  0 -15.4 0  0 -15.3 0  0 -15.2 0  0 -15.1 0  0 -15 0  0 -14.9 0  0 -14.8 0  0 -14.7 0  0 -14.6 0  0 -14.5 0  0 -14.4 0  0 -14.3 0  0 -14.2 0  0 -14.1 0  0 -14 0  0 -13.9 0  0 -13.8 0  0 -13.7 0  0 -13.6 0  0 -13.5 0  0 -13.4 0  0 -13.3 0  0 -13.2 0  0 -13.1 0  0 -13 0  0 -12.9 0  0 -12.8 0  0 -12.7 0  0 -12.6 0  0 -12.5 0  0 -12.4 0  0 -12.3 0  0 -12.2 0  0 -12.1 0  0 -12 0  0 -11.9 0  0 -11.8 0  0 -11.7 0  0 -11.6 0  0 -11.5 0  0 -11.4 0  0 -11.3 0  0 -11.2 0  0 -11.1 0  0 -11 0  0 -10.9 0  0 -10.8 0  0 -10.7 0  0 -10.6 0  0 -10.5 0  0 -10.4 0  0 -10.3 0  0 -10.2 0  0 -10.1 0  0 -10 0  0 -9.899999999999999 0  0 -9.799999999999997 0  0 -9.699999999999996 0  0 -9.600000000000001 0  0 -9.5 0  0 -9.399999999999999 0  0 -9.299999999999997 0  0 -9.199999999999996 0  0 -9.100000000000001 0  0 -9 0  0 -8.899999999999999 0  0 -8.799999999999997 0  0 -8.699999999999996 0  0 -8.599999999999994 0  0 -8.5 0  0 -8.399999999999999 0  0 -8.299999999999997 0  0 -8.199999999999996 0  0 -8.099999999999994 0  0 -8 0  0 -7.899999999999999 0  0 -7.799999999999997 0  0 -7.699999999999996 0  0 -7.599999999999994 0  0 -7.5 0  27.20217989386866 -18.5 0  24.65658906909652 -18.5 0  22.34048801472263 -18.5 0  20.23318823704648 -18.5 0  18.31586556845244 -18.5 0  16.57139348071823 -18.5 0  14.98418876757752 -18.5 0  13.54007369188117 -18.5 0  12.22614858325946 -18.5 0  11.030676339135 -18.5 0  9.942978351836206 -18.5 0  8.953338525856648 -18.5 0  8.05291659827531 -18.5 0  7.233669706591556 -18.5 0  6.488279294550789 -18.5 0  5.810087358879393 -18.5 0  5.193035808349475 -18.5 0  4.63161272757354 -18.5 0  4.120803011558468 -18.5 0  3.656043793650667 -18.5 0  3.233183542557395 -18.5 0  2.848444929339642 -18.5 0  2.498391295710253 -18.5 0  2.179895695159122 -18.5 0  1.890113142755961 -18.5 0  1.626455036319303 -18.5 0  1.386566232068105 -18.5 0  1.168303849643234 -18.5 0  0.9697182933451884 -18.5 0  0.7890355808892515 -18.5 0  0.6246417939513229 -18.5 0  0.4750684255735287 -18.5 0  0.3389794053272652 -18.5 0  0.2151590556389955 -18.5 0  0.1025013769923682 -18.5 0  30 -10.175 0  30 -12.95000000000001 0  30 -15.72500000000001 0  0 -26.1 0  0 -26 0  0 -25.9 0  0 -25.8 0  0 -25.7 0  0 -25.6 0  0 -25.5 0  0 -25.4 0  0 -25.3 0  0 -25.2 0  0 -25.1 0  0 -25 0  0 -24.9 0  0 -24.8 0  0 -24.7 0  0 -24.6 0  0 -24.5 0  0 -24.4 0  0 -24.3 0  0 -24.2 0  0 -24.1 0  0 -24 0  0 -23.9 0  0 -23.8 0  0 -23.7 0  0 -23.6 0  0 -23.5 0  0 -23.4 0  0 -23.3 0  0 -23.2 0  0 -23.1 0  0 -23 0  0 -22.9 0  0 -22.8 0  0 -22.7 0  0 -22.6 0  0 -22.5 0  0 -22.4 0  0 -22.3 0  0 -22.2 0  0 -22.1 0  0 -22 0  0 -21.9 0  0 -21.8 0  0 -21.7 0  0 -21.6 0  0 -21.5 0  0 -21.4 0  0 -21.3 0  0 -21.2 0  0 -21.1 0  0 -21 0  0 -20.9 0  0 -20.8 0  0 -20.7 0  0 -20.6 0  0 -20.5 0  0 -20.4 0  0 -20.3 0  0 -20.2 0  0 -20.1 0  0 -20 0  0 -19.9 0  0 -19.8 0  0 -19.7 0  0 -19.6 0  0 -19.5 0  0 -19.4 0  0 -19.3 0  0 -19.2 0  0 -19.1 0  0 -19 0  0 -18.9 0  0 -18.8 0  0 -18.7 0  0 -18.6 0  27.20217989386866 -26.2 0  24.65658906909652 -26.2 0  22.34048801472263 -26.2 0  20.23318823704648 -26.2 0  18.31586556845244 -26.2 0  16.57139348071823 -26.2 0  14.98418876757752 -26.2 0  13.54007369188117 -26.2 0  12.22614858325946 -26.2 0  11.030676339135 -26.2 0  9.942978351836206 -26.2 0  8.953338525856648 -26.2 0  8.05291659827531 -26.2 0  7.233669706591556 -26.2 0  6.488279294550789 -26.2 0  5.810087358879393 -26.2 0  5.193035808349475 -26.2 0  4.63161272757354 -26.2 0  4.120803011558468 -26.2 0  3.656043793650667 -26.2 0  3.233183542557395 -26.2 0  2.848444929339642 -26.2 0  2.498391295710253 -26.2 0  2.179895695159122 -26.2 0  1.890113142755961 -26.2 0  1.626455036319303 -26.2 0  1.386566232068105 -26.2 0  1.168303849643234 -26.2 0  0.9697182933451884 -26.2 0  0.7890355808892515 -26.2 0  0.6246417939513229 -26.2 0  0.4750684255735287 -26.2 0  0.3389794053272652 -26.2 0  0.2151590556389955 -26.2 0  0.1025013769923682 -26.2 0  30 -21.06666666666667 0  30 -23.63333333333334 0  0 -49.9 0  0 -49.8 0  0 -49.7 0  0 -49.6 0  0 -49.5 0  0 -49.4 0  0 -49.3 0  0 -49.2 0  0 -49.1 0  0 -49 0  0 -48.9 0  0 -48.8 0  0 -48.7 0  0 -48.6 0  0 -48.5 0  0 -48.40000000000001 0  0 -48.3 0  0 -48.2 0  0 -48.1 0  0 -48 0  0 -47.90000000000001 0  0 -47.8 0  0 -47.7 0  0 -47.6 0  0 -47.5 0  0 -47.40000000000001 0  0 -47.3 0  0 -47.2 0  0 -47.1 0  0 -47.00000000000001 0  0 -46.90000000000001 0  0 -46.8 0  0 -46.7 0  0 -46.6 0  0 -46.50000000000001 0  0 -46.40000000000001 0  0 -46.3 0  0 -46.2 0  0 -46.10000000000001 0  0 -46.00000000000001 0  0 -45.90000000000001 0  0 -45.8 0  0 -45.7 0  0 -45.60000000000001 0  0 -45.50000000000001 0  0 -45.40000000000001 0  0 -45.3 0  0 -45.2 0  0 -45.10000000000001 0  0 -45.00000000000001 0  0 -44.90000000000001 0  0 -44.8 0  0 -44.70000000000001 0  0 -44.60000000000001 0  0 -44.50000000000001 0  0 -44.40000000000001 0  0 -44.30000000000001 0  0 -44.20000000000001 0  0 -44.10000000000001 0  0 -44.00000000000001 0  0 -43.90000000000001 0  0 -43.80000000000001 0  0 -43.70000000000001 0  0 -43.60000000000001 0  0 -43.50000000000001 0  0 -43.40000000000001 0  0 -43.30000000000001 0  0 -43.20000000000001 0  0 -43.10000000000002 0  
[...]
<PointData  Scalars="pressure_head"> 
<DataArray  type="Float64"  Name="pressure_head"  format="ascii">4.7000071901523386e+00  1.1105014233315025e-05  4.7000000140670650e+00  1.7249703121414517e-08  7.4000063338134296e+00  7.3999999959664891e+00  1.8500000482993325e+01  1.8499999999668844e+01  2.6200000091074962e+01  2.6199999999574111e+01  4.9999999999999723e+01  5.0000000000203201e+01  4.6000072757235113e+00  4.5000073666778864e+00  4.4000074622694338e+00  4.3000075626684993e+00  4.2000076680756493e+00  4.1000077783121363e+00  4.0000078957844902e+00  3.9000080166117099e+00  3.8000081453724799e+00  3.7000082803242313e+00  3.6000084231639717e+00  3.5000085743657317e+00  3.4000087347824688e+00  3.3000089047495584e+00  3.2000090894513469e+00  3.1000092842628590e+00  3.0000094924675968e+00  2.9000097257986166e+00  2.8000099761102977e+00  2.7000102570571949e+00  2.6000105679409091e+00  2.5000109231085976e+00  2.4000113420147771e+00  2.3000118613358107e+00  2.2000124980594600e+00  2.1000135543293372e+00  2.0000154396272469e+00  1.9000161720665050e+00  1.8000145558475542e+00  1.7000131784809058e+00  1.6000126361961811e+00  1.5000122089577794e+00  1.4000119142290852e+00  1.3000116901501686e+00  1.2000115175718138e+00  1.1000113823136612e+00  1.0000112830993919e+00  9.0001120753160502e-01  8.0001115130959932e-01  7.0001111493038315e-01  6.0001109327212154e-01  5.0001108392161853e-01  4.0001108139727615e-01  3.0001108676277616e-01  2.0001109548642856e-01  1.0001110235674023e-01  4.6999997214836950e+00  4.6999993655551169e+00  4.6999990364466004e+00  4.6999987614938386e+00  4.6999985600575176e+00  4.6999984404532968e+00  4.6999984051409971e+00  4.6999984556215049e+00  4.6999985870237966e+00  4.6999987952820179e+00  4.6999990737741584e+00  4.6999994167860670e+00  4.6999998161151488e+00  4.7000002634958031e+00  4.7000007497923777e+00  4.7000012651384528e+00  4.7000017997015782e+00  4.7000023430670685e+00  4.7000028852699520e+00  4.7000034175278040e+00  4.7000039294254989e+00  4.7000044172528099e+00  4.7000048716185248e+00  4.7000052886914290e+00  4.7000056636290681e+00  4.7000059936337575e+00  4.7000062779836576e+00  4.7000065163571731e+00  4.7000067110275676e+00  4.7000068651379197e+00  4.7000069823532753e+00  4.7000070684458972e+00  4.7000071276799540e+00  4.7000071648975466e+00  4.7000071845119793e+00  2.3500000031776742e+00  1.1077205166303808e-05  1.0984338924329977e-05  1.0810611327057115e-05  1.0540893201179016e-05  1.0167513283570899e-05  9.6870061993991591e-06  9.1043440531265101e-06  8.4395993342210934e-06  7.7140933348980575e-06  6.9593498160467010e-06  6.2023216521592008e-06  5.4697604002046059e-06  4.7773369283238225e-06  4.1386047842578970e-06  3.5519954993588984e-06  3.0145085983133172e-06  2.5212841581709323e-06  2.0597052028476529e-06  1.6225906104316217e-06  1.2025683722889238e-06  7.9396860501622013e-07  3.9750488091405991e-07  1.5882209332997494e-08  -3.4299394752738140e-07  -6.6916288926339097e-07  -9.4969110899375676e-07  -1.1710771623200066e-06  -1.3222691784853347e-06  -1.3935746379020108e-06  -1.3799365621939229e-06  -1.2795765574386737e-06  -1.0949976715920263e-06  -8.3764619413893426e-07  -5.2563197202393030e-07  -2.0088739828383058e-07  7.3000063584826318e+00  7.2000063824895291e+00  7.1000064061621098e+00  7.0000064295364703e+00  6.9000064528998619e+00  6.8000064764207915e+00  6.7000065000357427e+00  6.6000065241886245e+00  6.5000065488516725e+00  6.4000065741308854e+00  6.3000066000957986e+00  6.2000066269442122e+00  6.1000066547395022e+00  6.0000066836141359e+00  5.9000067137369756e+00  5.8000067449808252e+00  5.7000067776303807e+00  5.6000068114349828e+00  5.5000068466131911e+00  5.4000068836509687e+00  5.3000069221159993e+00  5.2000069621821128e+00  5.1000070040817027e+00  5.0000070477835337e+00  4.9000070932814728e+00  4.8000071405630944e+00  7.3999996415914167e+00  7.3999993042089889e+00  7.3999989913274336e+00  7.3999987355972001e+00  7.3999985509717217e+00  7.3999984508296563e+00  7.3999984334825601e+00  7.3999985033658824e+00  7.3999986547297647e+00  7.3999988831180996e+00  7.3999991859716490e+00  7.3999995545921404e+00  7.3999999815100690e+00  7.4000004572460982e+00  7.4000009702736858e+00  7.4000015065811429e+00  7.4000020538399820e+00  7.4000025956414204e+00  7.4000031201373924e+00  7.4000036148099264e+00  7.4000040710955775e+00  7.4000044816387760e+00  7.4000048443275350e+00  7.4000051570096508e+00  7.4000054219668847e+00  7.4000056418291464e+00  7.4000058213677313e+00  7.4000059643726193e+00  7.4000060763395545e+00  7.4000061617554129e+00  7.4000062252179593e+00  7.4000062707742247e+00  7.4000063016396780e+00  7.4000063208538425e+00  7.4000063308277166e+00  1.8400000507861424e+01  1.8300000533061564e+01  1.8200000558579010e+01  1.8100000584411568e+01  1.8000000610557553e+01  1.7900000637017182e+01  1.7800000663788868e+01  1.7700000690867942e+01  1.7600000718253970e+01  1.7500000745952203e+01  1.7400000773963146e+01  1.7300000802273875e+01  1.7200000830893238e+01  1.7100000859822234e+01  1.7000000889063077e+01  1.6900000918613372e+01  1.6800000948474167e+01  1.6700000978646667e+01  1.6600001009130985e+01  1.6500001039933341e+01  1.6400001071056771e+01  1.6300001102500492e+01  1.6200001134262120e+01  1.6100001166340537e+01  1.6000001198758305e+01  1.5900001231509918e+01  1.5800001264595288e+01  1.5700001298014723e+01  1.5600001331779215e+01  1.5500001365889231e+01  1.5400001400346595e+01  1.5300001435157666e+01  1.5200001470334009e+01  1.5100001505866013e+01  1.5000001541778973e+01  1.4900001578065718e+01  1.4800001614725300e+01  1.4700001651777866e+01  1.4600001689228797e+01  1.4500001727051940e+01  1.4400001765304943e+01  1.4300001803966422e+01  1.4200001843050302e+01  1.4100001882561672e+01  1.4000001922504993e+01  1.3900001962907284e+01  1.3800002003728897e+01  1.3700002045004437e+01  1.3600002086779851e+01  1.3500002129029740e+01  1.3400002171758624e+01  1.3300002214989046e+01  1.3200002258714207e+01  1.3100002302971307e+01  1.3000002347758654e+01  1.2900002393062984e+01  1.2800002438961478e+01  1.2700002485393245e+01  1.2600002532379776e+01  1.2500002579995471e+01  1.2400002628202405e+01  1.2300002677021274e+01  1.2200002726479086e+01  1.2100002776584851e+01  1.2000002827341493e+01  1.1900002878782415e+01  1.1800002930914662e+01  1.1700002983759251e+01  1.1600003037322894e+01  1.1500003091632149e+01  1.1400003146726370e+01  1.1300003202572439e+01  1.1200003259250481e+01  1.1100003316778668e+01  1.1000003375121413e+01  1.0900003434350186e+01  1.0800003494465390e+01  1.0700003555497405e+01  1.0600003617474975e+01  1.0500003680403246e+01  1.0400003744386714e+01  1.0300003809402094e+01  1.0200003875445892e+01  1.0100003942599036e+01  1.0000004010877236e+01  9.9000040802905254e+00  9.8000041508970401e+00  9.7000042227141652e+00  9.6000042958828438e+00  9.5000043703122508e+00  9.4000044460153696e+00  9.3000045232162449e+00  9.2000046018987405e+00  9.1000046820027034e+00  9.0000047635701321e+00  8.9000048468294359e+00  8.8000049318025013e+00  8.7000050184055322e+00  8.6000051067763579e+00  8.5000051970234534e+00  8.4000052891651631e+00  8.3000053832906815e+00  8.2000054794396693e+00  8.1000055777571678e+00  8.0000056782720943e+00  7.9000057811193027e+00  7.8000058864201600e+00  7.7000059941620087e+00  7.6000061044958294e+00  7.5000062175114266e+00  1.8499999866704545e+01  1.8499999789039933e+01  1.8499999748816197e+01  1.8499999737199570e+01  1.8499999747102823e+01  1.8499999774635342e+01  1.8499999815850835e+01  1.8499999866247890e+01  1.8499999923317795e+01  1.8499999983294693e+01  1.8500000043365617e+01  1.8500000101791944e+01  1.8500000156314105e+01  1.8500000206267625e+01  1.8500000251189956e+01  1.8500000290849766e+01  1.8500000324979968e+01  1.8500000354448190e+01  1.8500000379259799e+01  1.8500000400072274e+01  1.8500000417335389e+01  1.8500000431502890e+01  1.8500000443058031e+01  1.8500000452343119e+01  1.8500000459844291e+01  1.8500000465797811e+01  1.8500000470458410e+01  1.8500000474068660e+01  1.8500000476841642e+01  1.8500000478923031e+01  1.8500000480430533e+01  1.8500000481506163e+01  1.8500000482240399e+01  1.8500000482691206e+01  1.8500000482929408e+01  1.0174999990847391e+01  1.2949999990027617e+01  1.5724999994570474e+01  2.6100000094479963e+01  2.6000000097929988e+01  2.5900000101422915e+01  2.5800000104959125e+01  2.5700000108536805e+01  2.5600000112156231e+01  2.5500000115818942e+01  2.5400000119523796e+01  2.5300000123270479e+01  2.5200000127059344e+01  2.5100000130889843e+01  2.5000000134761823e+01  2.4900000138676031e+01  2.4800000142631752e+01  2.4700000146629094e+01  2.4600000150668144e+01  2.4500000154748882e+01  2.4400000158871819e+01  2.4300000163035783e+01  2.4200000167242049e+01  2.4100000171489960e+01  2.4000000175779526e+01  2.3900000180111931e+01  2.3800000184485949e+01  2.3700000188902614e+01  2.3600000193360739e+01  2.3500000197861841e+01  2.3400000202405220e+01  2.3300000206991996e+01  2.3200000211621337e+01  2.3100000216294504e+01  2.3000000221010019e+01  2.2900000225768043e+01  2.2800000230572927e+01  2.2700000235420021e+01  2.2600000240311328e+01  2.2500000245246646e+01  2.2400000250227393e+01  2.2300000255252066e+01  2.2200000260322643e+01  2.2100000265438354e+01  2.2000000270600889e+01  2.1900000275808434e+01  2.1800000281060509e+01  2.1700000286362076e+01  2.1600000291708167e+01  2.1500000297106887e+01  2.1400000302545962e+01  2.1300000308037390e+01  2.1200000313576517e+01  2.1100000319165737e+01  2.1000000324802198e+01  2.0900000330488016e+01  2.0800000336224663e+01  2.0700000342010572e+01  2.0600000347850425e+01  2.0500000353739491e+01  2.0400000359680217e+01  2.0300000365671348e+01  2.0200000371713617e+01  2.0100000377814389e+01  2.0000000383967357e+01  1.9900000390170550e+01  1.9800000396429631e+01  1.9700000402744884e+01  1.9600000409115378e+01  1.9500000415541678e+01  1.9400000422024107e+01  1.9300000428563120e+01  1.9200000435159939e+01  1.9100000441814782e+01  1.9000000448530947e+01  1.8900000455305591e+01  1.8800000462137387e+01  1.8700000469030694e+01  1.8600000475983926e+01  2.6199999952333293e+01  2.6199999921786556e+01  2.6199999905589802e+01  2.6199999901022554e+01  2.6199999905000865e+01  2.6199999915073803e+01  2.6199999929004484e+01  2.6199999945080446e+01  2.6199999961921403e+01  2.6199999978591595e+01  2.6199999994407875e+01  2.6200000008984762e+01  2.6200000022066060e+01  2.6200000033597259e+01  2.6200000043571965e+01  2.6200000052201624e+01  2.6200000059470412e+01  2.6200000065576273e+01  2.6200000070649516e+01  2.6200000074848781e+01  2.6200000078288411e+01  2.6200000081089204e+01  2.6200000083356912e+01  2.6200000085173784e+01  2.6200000086626016e+01  2.6200000087768963e+01  2.6200000088667533e+01  2.6200000089365520e+01  2.6200000089895944e+01  2.6200000090293742e+01  2.6200000090584044e+01  2.6200000090789999e+01  2.6200000090930523e+01  2.6200000091017156e+01  2.6200000091062339e+01  2.1066666665314102e+01  2.3633333332836720e+01  4.9899999999732778e+01  4.9799999999470060e+01  4.9699999999211592e+01  4.9599999998957244e+01  4.9499999998707089e+01  4.9399999998461176e+01  4.9299999998219356e+01  4.9199999997981749e+01  4.9099999997748320e+01  4.8999999997518962e+01  4.8899999997293875e+01  4.8799999997072739e+01  4.8699999996855865e+01  4.8599999996643099e+01  4.8499999996434383e+01  4.8399999996229916e+01  4.8299999996029420e+01  4.8199999995833124e+01  4.8099999995640886e+01  4.7999999995452789e+01  4.7899999995268807e+01  4.7799999995088896e+01  4.7699999994913142e+01  4.7599999994741552e+01  4.7499999994573955e+01  4.7399999994410550e+01  4.7299999994251209e+01  4.7199999994096018e+01  4.7099999993944948e+01  4.6999999993798056e+01  4.6899999993655271e+01  4.6799999993516614e+01  4.6699999993382121e+01  4.6599999993251778e+01  4.6499999993125606e+01  4.6399999993003632e+01  4.6299999992885773e+01  4.6199999992772135e+01  4.6099999992662696e+01  4.5999999992557434e+01  4.5899999992456451e+01  4.5799999992359695e+01  4.5699999992267088e+01  4.5599999992178802e+01  4.5499999992094715e+01  4.5399999992014990e+01  4.5299999991939472e+01  4.5199999991868268e+01  4.5099999991801376e+01  4.4999999991738854e+01  4.4899999991680616e+01  4.4799999991626777e+01  4.4699999991577279e+01  4.4599999991532236e+01  4.4499999991491485e+01  4.4399999991455267e+01  4.4299999991423483e+01  4.4199999991395991e+01  4.4099999991373068e+01  4.3999999991354642e+01  4.3899999991340763e+01  4.3799999991331198e+01  4.3699999991326649e+01  4.3599999991326072e+01  4.3499999991330434e+01  4.3399999991339385e+01  4.3299999991352841e+01  4.3199999991371051e+01  4.3099999991393837e+01  4.2999999991421362e+01  4.2899999991453548e+01  4.2799999991490544e+01  4.2699999991532188e+01  4.2599999991578784e+01  4.2499999991629970e+01  4.2399999991686073e+01  4.2299999991747036e+01  4.2199999991812774e+01  4.2099999991883514e+01  4.1999999991959164e+01  4.1899999992039746e+01  4.1799999992125272e+01  4.1699999992216000e+01  4.1599999992311517e+01  4.1499999992412228e+01  4.1399999992517905e+01  4.1299999992628621e+01  4.1199999992744594e+01  4.1099999992865733e+01  4.0999999992992009e+01  4.0899999993123565e+01  4.0799999993260400e+01  4.0699999993402436e+01  4.0599999993549744e+01  4.0499999993702474e+01  4.0399999993860561e+01  4.0299999994024056e+01  4.0199999994193000e+01  4.0099999994367089e+01  3.9999999994546961e+01  3.9899999994732411e+01  3.9799999994923276e+01  3.9699999995119740e+01  3.9599999995321809e+01  3.9499999995529663e+01  3.9399999995743080e+01  3.9299999995962438e+01  3.9199999996187401e+01  3.9099999996418134e+01  3.8999999996654587e+01  3.8899999996896973e+01  3.8799999997145420e+01  3.8699999997399665e+01  3.8599999997659687e+01  3.8499999997925954e+01  3.8399999998198254e+01  3.8299999998476586e+01  3.8199999998761065e+01  3.8099999999051612e+01  3.7999999999348425e+01  3.7899999999651463e+01  3.7799999999960725e+01  3.7700000000276475e+01  3.7600000000598520e+01  3.7500000000926633e+01  3.7400000001261354e+01  3.7300000001602463e+01  3.7200000001950208e+01  3.7100000002304519e+01  3.7000000002665381e+01  3.6900000003032879e+01  3.6800000003407071e+01  3.6700000003787949e+01  3.6600000004175556e+01  3.6500000004569962e+01  3.6400000004971162e+01  3.6300000005379289e+01  3.6200000005794308e+01  3.6100000006216376e+01  3.6000000006645493e+01  3.5900000007081601e+01  3.5800000007524858e+01  3.5700000007975191e+01  3.5600000008432929e+01  3.5500000008897928e+01  3.5400000009369748e+01  3.5300000009849128e+01  3.5200000010336026e+01  3.5100000010830222e+01  3.5000000011331956e+01  3.4900000011841165e+01  3.4800000012357891e+01  3.4700000012882263e+01  3.4600000013414466e+01  3.4500000013954313e+01  3.4400000014501707e+01  3.4300000015057158e+01  3.4200000015620475e+01  3.4100000016191579e+01  3.4000000016770841e+01  3.3900000017358138e+01  3.3800000017953472e+01  3.3700000018556921e+01  3.3600000019168412e+01  3.3500000019787983e+01  3.3400000020416059e+01  3.3300000021052377e+01  3.3200000021697193e+01  3.3100000022350301e+01  3.3000000023011779e+01  3.2900000023681955e+01  3.2800000024360926e+01  3.2700000025048595e+01  3.2600000025744869e+01  3.2500000026449754e+01  3.2400000027163344e+01  3.2300000027885901e+01  3.2200000028617495e+01  3.2100000029358000e+01  3.2000000030107564e+01  3.1900000030866313e+01  3.1800000031634031e+01  3.1700000032411197e+01  3.1600000033197489e+01  3.1500000033992794e+01  3.1400000034797841e+01  3.1300000035612211e+01  3.1200000036436233e+01  3.1100000037269922e+01  3.1000000038112812e+01  3.0900000038965558e+01  3.0800000039827840e+01  3.0700000040700068e+01  3.0600000041582273e+01  3.0500000042474049e+01  3.0400000043376235e+01  3.0300000044288272e+01  3.0200000045210473e+01  3.0100000046142569e+01  3.0000000047085269e+01  2.9900000048037974e+01  2.9800000049001021e+01  2.9700000049974477e+01  2.9600000050958382e+01  2.9500000051952874e+01  2.9400000052957850e+01  2.9300000053973175e+01  2.9200000054999620e+01  2.9100000056036599e+01  2.9000000057084531e+01  2.8900000058143785e+01  2.8800000059213797e+01  2.8700000060294617e+01  2.8600000061386421e+01  2.8500000062489377e+01  2.8400000063603521e+01  2.8300000064728756e+01  2.8200000065865371e+01  2.8100000067013699e+01  2.8000000068174099e+01  2.7900000069345342e+01  2.7800000070527609e+01  2.7700000071721959e+01  2.7600000072927969e+01  2.7500000074145774e+01  2.7400000075375456e+01  2.7300000076616975e+01  2.7200000077870371e+01  2.7100000079136034e+01  2.7000000080413486e+01  2.6900000081703219e+01  2.6800000083005340e+01  2.6700000084319150e+01  2.6600000085645462e+01  2.6500000086984329e+01  2.6400000088335489e+01  2.6300000089699328e+01  4.9999999999942112e+01  5.0000000000005258e+01  4.9999999999959577e+01  4.9999999999975927e+01  4.9999999999987580e+01  4.9999999999983224e+01  4.9999999999984865e+01  4.9999999999980233e+01  4.9999999999991971e+01  4.9999999999983274e+01  4.9999999999985839e+01  4.9999999999979615e+01  4.9999999999985498e+01  4.9999999999988901e+01  4.9999999999988987e+01  4.9999999999991161e+01  4.9999999999993712e+01  4.9999999999994571e+01  4.9999999999994188e+01  4.9999999999995524e+01  4.9999999999996987e+01  4.9999999999997357e+01  4.9999999999997208e+01  4.9999999999997669e+01  4.9999999999997669e+01  4.9999999999997996e+01  4.9999999999998771e+01  4.9999999999999012e+01  4.9999999999999154e+01  4.9999999999999297e+01  4.9999999999999403e+01  4.9999999999999517e+01  4.9999999999999574e+01  4.9999999999999687e+01  4.9999999999999758e+01  2.9174999999709872e+01  3.2149999999747536e+01  3.5124999999447432e+01  3.8099999999634797e+01  4.1074999999714407e+01  4.4049999999756210e+01  4.7024999999755650e+01  2.4573344350761781e+00  2.9648124944707925e+00  1.9500117304442974e+00  1.4500119230850166e+00  2.6339713426633443e-01  3.4492482638525348e+00  1.0511534300326282e+00  4.4657214412383848e+00  2.1098527543208079e-01  3.8394865023532061e+00  4.5248771867827369e+00  4.3901407550002514e+00  3.3316529675956225e-01  6.4989873151710253e-01  4.1489970185017491e+00  1.4886941705182921e-01  4.2775687581320998e+00  4.5640552511170576e+00  4.2646835273722689e-01  4.1458774279885091e+00  1.1672299005217758e-01  7.0492074825435158e-01  4.5988824119987104e+00  5.3830151721194208e-01  4.0224921555059074e+00  4.3500075066608437e+00  4.4429327398913265e-01  8.5369636003991922e-01  3.6500083408490243e+00  3.2521968751227726e+00  1.2467823340978950e+00  1.6500125261316234e+00  7.7748128755085677e-01  2.7500100630270272e+00  2.1500124460908703e+00  1.0285015825264285e+00  3.8318895608129062e+00  2.4735797939312937e-01  3.5245272451121914e+00  3.7113569724982916e+00  4.6142710112330354e+00  3.3168009365554818e+00  1.2747841656910448e+00  8.6595667327841533e-02  2.9969273173739666e+00  1.5856023739311307e+00  2.5135921655024966e+00  1.7249924088181627e+00  4.1789410382274479e+00  3.6304745077819280e+00  3.5658619285831867e+00  3.0555628881175765e+00  3.1289878857442317e+00  2.9683126490904970e+00  2.5686728496936486e+00  2.6382047061221430e+00  2.0987371583606804e+00  2.1867683541351548e+00  2.6762971267149243e+00  2.2419183678535406e+00  2.6856429905743573e+00  2.3233647959866550e+00  2.7125319249300941e+00  2.3711037743245287e+00  2.7246000202688325e+00  2.4251544215792364e+00  2.7443373230571768e+00  2.4792849908901631e+00  2.7805527823170855e+00  2.5240258906862638e+00  2.8075022069634255e+00  2.5666106016715604e+00  2.8251254616410288e+00  2.6055032826067941e+00  2.3614977789290541e+00  2.8525573424003969e+00  2.4035281635959862e+00  2.1716779092348437e+00  2.2068282426636436e+00  1.9913079526902491e+00  1.9461236271963884e+00  2.0189642118064071e+00  1.8183745377558471e+00  2.2294433643383536e+00  1.8446142390203504e+00  1.6509276134632336e+00  1.6812364042397496e+00  1.4942456737642371e+00  1.4598146045357649e+00  1.3056574342994220e+00  1.2676652770677368e+00  1.8573960321530658e+00  1.3398379688576449e+00  2.1629199671833366e+00  3.0536353717172560e+00  3.0864537703879060e+00  1.1587468438143762e+00  1.1912101314887216e+00  1.37302323536