<?xml version="1.0"?>
<VTKFile type="UnstructuredGrid"  version="0.1"  >
<UnstructuredGrid>
<Piece  NumberOfPoints="1855" NumberOfCells="3532">
<Points>
<DataArray  type="Float64"  NumberOfComponents="3"  format="ascii">0 0 0  30 0 0  30 -10 0  0 -10 0  0.1391574078963744 0 0  0.2856388821882616 0 0  0.4398299073010886 0 0  0.6021362569539473 0 0  0.7729850389704483 0 0  0.9528258543586996 0 0  1.142131984380316 0 0  1.34140159760994 0 0  1.551159074717981 0 0  1.771956417032531 0 0  2.004374674080994 0 0  2.249025475789527 0 0  2.506552636773105 0 0  2.777633857742732 0 0  3.062982518028728 0 0  3.363349525995907 0 0  3.679525322337712 0 0  4.01234195575742 0 0  4.362675247811097 0 0  4.731447135329707 0 0  5.119628065610077 0 0  5.528239565804708 0 0  5.958356943167011 0 0  6.411112081475485 0 0  6.887696441559404 0 0  7.389364184530748 0 0  7.917435485335147 0 0  8.473300005202017 0 0  9.058420557070402 0 0  9.674336929103793 0 0  10.32266995225095 0 0  11.00512576896296 0 0  11.72350030646412 0 0  12.47968402994705 0 0  13.27566689579597 0 0  14.1135435963616 0 0  14.9955190732806 0 0  15.92391430904694 0 0  16.90117245730496 0 0  17.92986524844506 0 0  19.01269976086341 0 0  20.15252556282024 0 0  21.35234220269763 0 0  22.61530708683689 0 0  23.94474379751883 0 0  25.34415086349739 0 0  26.81721093579712 0 0  28.3678004819169 0 0  30 -1.111111111111111 0  30 -2.222222222222222 0  30 -3.333333333333333 0  30 -4.444444444444445 0  30 -5.555555555555555 0  30 -6.666666666666666 0  30 -7.777777777777777 0  30 -8.888888888888889 0  28.36780047917311 -10 0  26.8172109305839 -10 0  25.34415085606858 -10 0  23.94474378810899 -10 0  22.61530707566275 -10 0  21.3523421899591 -10 0  20.15252554870171 -10 0  19.01269974553473 -10 0  17.92986523206254 -10 0  16.90117244001232 -10 0  15.92391429097614 -10 0  14.99551905455266 -10 0  14.11354357708742 -10 0  13.27566687607703 -10 0  12.47968400987599 -10 0  11.72350028612546 -10 0  11.00512574843363 -10 0  10.32266993160086 -10 0  9.674336908396342 -10 0  9.058420536362949 -10 0  8.473299984546333 -10 0  7.917435464777824 -10 0  7.389364164113587 -10 0  6.887696420787165 -10 0  6.411112061446698 -10 0  5.95835692337857 -10 0  5.528239546282652 -10 0  5.119628046377237 -10 0  4.731447115907979 -10 0  4.362675229213632 -10 0  4.012341937260036 -10 0  3.679525304434552 -10 0  3.363349508456405 -10 0  3.062982500861274 -10 0  2.777633840953978 -10 0  2.506552620368097 -10 0  2.249025459771861 -10 0  2.004374658452946 -10 0  1.771956401795187 -10 0  1.551159059871345 -10 0  1.341401583153029 -10 0  1.142131970307521 -10 0  0.9528258406748833 -10 0  0.7729850256685147 -10 0  0.6021362439621285 -10 0  0.4398298947504031 -10 0  0.2856388700059078 -10 0  0.1391573960769001 -10 0  0 -9.855072463768115 0  0 -9.710144927536232 0  0 -9.565217391304348 0  0 -9.420289855072463 0  0 -9.27536231884058 0  0 -9.130434782608695 0  0 -8.985507246376812 0  0 -8.840579710144928 0  0 -8.695652173913043 0  0 -8.55072463768116 0  0 -8.405797101449275 0  0 -8.260869565217391 0  0 -8.115942028985508 0  0 -7.971014492753623 0  0 -7.826086956521739 0  0 -7.681159420289855 0  0 -7.536231884057971 0  0 -7.391304347826087 0  0 -7.246376811594203 0  0 -7.101449275362318 0  0 -6.956521739130435 0  0 -6.811594202898551 0  0 -6.666666666666667 0  0 -6.521739130434783 0  0 -6.376811594202898 0  0 -6.231884057971015 0  0 -6.086956521739131 0  0 -5.942028985507246 0  0 -5.797101449275362 0  0 -5.652173913043478 0  0 -5.507246376811594 0  0 -5.36231884057971 0  0 -5.217391304347826 0  0 -5.072463768115941 0  0 -4.927536231884058 0  0 -4.782608695652174 0  0 -4.637681159420289 0  0 -4.492753623188406 0  0 -4.347826086956522 0  0 -4.202898550724638 0  0 -4.057971014492754 0  0 -3.913043478260869 0  0 -3.768115942028985 0  0 -3.623188405797101 0  0 -3.478260869565217 0  0 -3.333333333333334 0  0 -3.188405797101449 0  0 -3.043478260869565 0  0 -2.898550724637681 0  0 -2.753623188405797 0  0 -2.608695652173912 0  0 -2.463768115942029 0  0 -2.318840579710145 0  0 -2.173913043478261 0  0 -2.028985507246377 0  0 -1.884057971014492 0  0 -1.739130434782609 0  0 -1.594202898550725 0  0 -1.44927536231884 0  0 -1.304347826086957 0  0 -1.159420289855072 0  0 -1.014492753623188 0  0 -0.8695652173913047 0  0 -0.72463768115942 0  0 -0.579710144927537 0  0 -0.4347826086956523 0  0 -0.2898550724637676 0  0 -0.1449275362318829 0  5.15859856094262 -4.976557621770688 0  2.816777084926057 -7.160262673925935 0  2.81677708460006 -2.839737326002783 0  2.227649803257325 -5.003121586636773 0  1.518662968975629 -8.46230852045241 0  1.518662969184829 -1.537691480152612 0  9.960740911025725 -5.055901393541221 0  1.491099662214591 -3.691833922963321 0  1.503675657181264 -6.345020369042368 0  5.319208041801049 -7.493850249937013 0  5.291109955459268 -2.489368743223226 0  1.096914507335763 -2.53623188405797 0  1.096914507253562 -7.463768115942029 0  1.089580194952752 -4.71277167923441 0  15.07565076110197 -5.047572991082069 0  7.501630508673601 -5.937500100385354 0  0.8894869418764504 -5.623930488933245 0  2.955144522453978 -1.440834296472408 0  2.955144521140721 -8.559165705576945 0  8.106603955004623 -2.748811534843258 0  3.662152539483591 -4.228178367024407 0  3.662181528265114 -5.771746159989156 0  0.8436558190317136 -0.8541050638451999 0  0.8436558075840921 -9.145894948342754 0  0.7854168197005933 -1.811594202898552 0  0.7894693398152999 -3.286543351392342 0  0.7854168196772591 -8.188405797101449 0  0.7854168196772591 -6.739130434782609 0  20.00078956016804 -4.999999999785771 0  0.7379120031523989 -3.977302749614766 0  6.584332478112232 -3.934875417052907 0  7.295091310194352 -7.969791332537982 0  9.811174303464586 -7.412814499648229 0  4.013376806449688 -2.206189431585293 0  4.013376806983409 -7.793810569017377 0  12.11177433894592 -2.818343737884045 0  2.591152707837148 -3.990098461753838 0  2.58990939378082 -6.025895074707176 0  25.43156400064585 -5.044446479916348 0  2.03262751726143 -2.282125834846944 0  2.032627517335952 -7.717874165160392 0  12.51865094522923 -6.491408052923457 0  0.598175343983641 -6.156971652625402 0  2.126700074935224 -0.8767654465386991 0  2.126700059112423 -9.123234559633019 0  6.617961838548696 -1.617756429129908 0  0.5903949564549755 -4.980060355019413 0  1.676697585305984 -5.547101897225158 0  4.773518305133987 -3.729331162566817 0  4.77931803486508 -6.231222307502165 0  4.878549698409591 -8.72048903376362 0  4.852580875634024 -1.222215410052823 0  0.5487847095754042 -2.675169258708207 0  0.545113423825768 -7.32369553390529 0  1.78738026998851 -4.400451872599477 0  1.68244194111824 -3.010100184333533 0  1.683984276238402 -7.018293626028473 0  9.998503440677371 -2.00585287985007 0  3.693061162502273 -3.243678395563028 0  3.694987482168253 -6.757603268814477 0  6.081763036485869 -5.83414381546261 0  0.5196640460586313 -1.350633211792632 0  0.5196640458460706 -8.649366789040087 0  3.84593363904758 -0.9906418103762418 0  3.845933620847308 -9.009358200471317 0  17.41551885287501 -3.057748733689079 0  17.30725517812527 -7.002961443761516 0  8.117698464370697 -4.451550942597151 0  0.4918476668493152 -0.4789811193757592 0  0.4918476560347713 -9.521018882514893 0  1.463770869328428 -0.6252343353791154 0  1.463770854281917 -9.374765668872765 0  0.5034132782032188 -4.464280853772128 0  3.138906271796685 -4.99999841599503 0  14.61209972381335 -2.388610981020637 0  6.208601124947327 -8.776231214192325 0  14.74910972998159 -7.542186851303819 0  2.243794246335625 -1.632184311040998 0  2.243794245689214 -8.367815689183566 0  0.4590235278399923 -5.431413993025926 0  0.4971508861448406 -2.209632053221267 0  0.4971508861368665 -7.790367946777407 0  0.4644363683211541 -3.560571347760519 0  6.478811279411406 -7.007392971062433 0  1.238895267772762 -4.173677632458826 0  1.293241773632479 -2.02256720952064 0  1.293241773542714 -7.977432790434841 0  0.4324740478030531 -0.942028985507247 0  0.4324740423701829 -9.057971014492754 0  2.117396640811705 -3.472968170680347 0  2.107095929630507 -6.531506384346077 0  8.087741545730886 -1.392783601483453 0  1.028911946384717 -1.352376108341404 0  1.028911946221715 -8.647623891551962 0  4.05691976296832 -4.991522392209158 0  11.51826881314265 -8.065248940008736 0  1.618560396201739 -4.958056164503666 0  2.701984523487646 -2.141781914603403 0  2.70198452396172 -7.858218085853512 0  2.843615645746219 -9.289121726447632 0  2.843615661334342 -0.7108782798429658 0  8.678774612240533 -8.488146490452822 0  6.487906449371135 -2.667543558824978 0  8.369190916679937 -7.129867754908394 0  11.80978191929258 -4.655775487536958 0  0.3792065166453504 -3.113833531412848 0  0.4134714637263563 -6.58827691137208 0  9.551050695080825 -3.49648183875815 0  1.083867845277057 -6.036251777836495 0  0.3756430921870901 -1.80381664325008 0  0.3756430921689482 -8.196183356748573 0  3.113073783220456 -3.503408140759125 0  3.113391383189963 -6.496678880796299 0  22.62850736315072 -3.277987336300344 0  22.59385352108348 -6.800312122582239 0  0.3777114402537816 -4.137047872695438 0  0.9196816123347897 -0.4281025456111269 0  0.9196815944880363 -9.571897460530383 0  0.4052043328723194 -5.827814332459883 0  8.865857694874787 -5.767686953139113 0  1.200388325130726 -5.182186034620629 0  5.65297436943758 -4.325500846767599 0  1.200079167961391 -3.009849046583253 0  1.20883344838 -7.021823297793294 0  1.057642414577487 -3.660996704809145 0  10.88812987788297 -6.333458225047037 0  4.493502926606794 -2.839780197438185 0  4.485862892033458 -7.147606077919463 0  0.3631651408878085 -7.003529808558233 0  1.946748828463205 -6.049056369468467 0  6.918750162798794 -4.993796052442676 0  3.351203216022585 -1.980935554775394 0  3.351203216441711 -8.019064445907297 0  2.281892243515294 -2.856654416292082 0  2.281892243715877 -7.143345583598931 0  5.811143619672087 -0.9953286820321026 0  2.695713766833098 -4.565354125099452 0  2.698172168139827 -5.435483248292925 0  19.86166219288896 -2.493475492328429 0  19.83739102036415 -7.594404063416508
[...]
<PointData  Scalars="pressure"> 
<DataArray  type="Float64"  Name="pressure"  format="ascii">-7.4804831692598992e-11  -2.4911146332671802e-15  1.1919754286921046e+01  -3.7875304607890956e+02  5.3598732802459311e-11  6.6533160584100647e-12  1.0817381772538022e-11  -3.3084267893745226e-12  2.2299255264782519e-12  -3.7006531774251261e-12  -2.4444814482647093e-13  2.7123882713784273e-12  -7.9954475097979085e-13  -5.8705213476393668e-13  3.3281544800309143e-13  1.0275232468216723e-12  2.3981434542835719e-13  -8.3896578039431184e-13  1.9277224309022395e-13  1.6830154464216526e-13  -6.3570953735110649e-14  4.7958513253294333e-14  6.7438944255134835e-14  -8.1657096694437103e-14  3.4432171039029611e-14  2.0567242483927463e-14  -6.9684955467997775e-14  0.0000000000000000e+00  4.6607008513293198e-14  -3.8905888004543281e-14  2.4543809137917301e-14  -3.5898717704816151e-14  -1.7384026033418866e-14  -2.4622460656600816e-14  5.9643199254308276e-15  3.9128190310050114e-14  4.5445052405781756e-14  2.2138767173285022e-15  3.2228549519365149e-15  1.1185117227986744e-14  -1.0471270789955863e-14  -8.5583849251123860e-16  -3.2535772239250126e-15  -3.2075803656023078e-15  -8.1119432030333785e-15  -7.8800370728110537e-15  -5.1505690463491925e-15  -1.1136446856612960e-15  -1.2204605539448754e-14  -1.1301198507091595e-14  1.8540672096351166e-15  1.3227980921438388e-14  2.9694497394634851e+01  2.7752955053275272e+01  2.5007241905134165e+01  2.3626768291187819e+01  2.1610451017302978e+01  1.9484020705352048e+01  1.7129841588971690e+01  1.4611427094134854e+01  1.2040955547928759e+01  1.2387179391924951e+01  1.2982732569407574e+01  1.3973022209592278e+01  1.5659476982386501e+01  1.7977784693338666e+01  2.1280878246590444e+01  2.5557989462107660e+01  3.1000896026636894e+01  3.7648502492653911e+01  4.5385474828678291e+01  5.4171945555022603e+01  6.3577912704209439e+01  7.3745282663429336e+01  8.3582278404050570e+01  9.3038711521651678e+01  1.0137623901809351e+02  1.0786571669649732e+02  1.1271134210648184e+02  1.1377944656339966e+02  1.1180349066303702e+02  1.0598224491075662e+02  9.6301289002238562e+01  8.2583001413771356e+01  6.5123971163218144e+01  4.3572919956837069e+01  1.9133271562045426e+01  -8.2105577348307115e+00  -3.7048829164643792e+01  -6.7974913405503514e+01  -9.8822136749664679e+01  -1.2983521018108371e+02  -1.6026473117641169e+02  -1.8910123663893108e+02  -2.1685676665873817e+02  -2.4236142502892261e+02  -2.6578152407427518e+02  -2.8674405618790894e+02  -3.0503408367142367e+02  -3.2138268551708501e+02  -3.3517137757113017e+02  -3.4684753342888172e+02  -3.5624179476568855e+02  -3.6384656671087532e+02  -3.6968547787149708e+02  -3.7387639383069836e+02  -3.7669529875834462e+02  -3.7831225061300847e+02  -3.6772006598431472e+02  -3.5776561706880847e+02  -3.4870952298171073e+02  -3.4065995726057804e+02  -3.3337195799171212e+02  -3.2696936140328773e+02  -3.2133502073828760e+02  -3.1650000969923917e+02  -3.1242828284054832e+02  -3.0908170795344955e+02  -3.0642295890881439e+02  -3.0450757793007085e+02  -3.0329202991450899e+02  -3.0278008398772846e+02  -3.0297118579031581e+02  -3.0387294677678875e+02  -3.0553561971734450e+02  -3.0787210035238564e+02  -3.1103432276591735e+02  -3.1493418693529424e+02  -3.1966600110121232e+02  -3.2522380242797919e+02  -3.3172799439332937e+02  -3.3904355503114266e+02  -3.4750686685691772e+02  -3.5704317997393775e+02  -3.6766751816341446e+02  -3.7942418938228576e+02  -3.9259493005245855e+02  -4.0722747359443161e+02  -4.2344404291047812e+02  -4.4137240248948524e+02  -4.6121952021149696e+02  -4.8313395147158656e+02  -5.0717991407473261e+02  -5.3439535496097039e+02  -5.6374152144161701e+02  -5.9729429303267875e+02  -6.3412580430700393e+02  -6.7484695508493064e+02  -7.2075493152985950e+02  -7.7219716685850040e+02  -8.3006014965706026e+02  -8.9460635472288220e+02  -9.6907663590537356e+02  -1.0526708532857870e+03  -1.1487784370404411e+03  -1.2591198816156364e+03  -1.3878793858032377e+03  -1.5352168557548287e+03  -1.7064670593428475e+03  -1.9159318660097072e+03  -2.1604799086506123e+03  -2.4557378609156408e+03  -2.8192359114584101e+03  -3.2655378728550145e+03  -3.8300692039277787e+03  -4.5501105477059346e+03  -5.5148681690664534e+03  -6.7785449070075356e+03  -8.5775261660283104e+03  -1.1069910157565195e+04  -1.4935311776208846e+04  -2.1943012921929727e+04  -3.1742292552558360e+04  -6.4658461713473494e+04  -1.0416751880614839e+05  -5.4639504717440566e+05  2.3641158142833426e+01  -1.9059875598227327e+02  1.5270474554871342e+01  -2.7659886465846876e+02  -2.7007991667546753e+02  -2.5897065723492780e+01  8.9239219086777368e+01  -5.3146475062385377e+02  -2.9602557990652252e+02  -2.9102148718947721e+01  2.4956450549180076e+02  -1.0385084529665517e+03  -2.8590386187720162e+02  -4.6797217104609120e+02  5.6432373617377287e+01  6.5872942507949688e+01  -3.8118370801631363e+02  7.2138407459625387e+02  -1.8416793715141537e+02  1.4830512416935284e+02  -4.4577191582320246e+01  -1.1543063470892453e+02  -3.4485906557800342e+02  -3.1416257610632329e+02  -2.0468705149971472e+03  -9.1065768803612082e+02  -2.9360390984269088e+02  -3.1522118298590919e+02  3.3828396162428106e+01  -6.7573248449048629e+02  1.1926848178609696e+02  5.0814443401296550e+01  8.2091001503123806e+01  3.3798606621287615e+02  -1.0910797118452255e+02  7.8546056296049471e+01  -2.0758432622332663e+02  -2.1599901537939979e+02  2.4199463874894246e+01  -1.2216910275299914e+02  -2.3938133130454386e+02  7.3826715513000934e+01  -3.5244722384128295e+02  1.6137105231288217e+03  -2.4862441976488009e+02  2.5014721736367369e+02  -4.7815960619204930e+02  -3.2061457349442401e+02  9.7702170427704900e+01  -4.3687702325222169e+01  -5.0261813786756193e+01  4.5504261625569507e+02  -1.4335540465238607e+03  -3.0384850429664908e+02  -3.8134969036117388e+02  -5.0685472217759593e+02  -2.6574758760310556e+02  1.1247163964242715e+02  8.3548213346227215e+01  -1.2580749524379550e+02  3.0524437269594355e+01  -4.1254060583681785e+03  -3.0659581654080552e+02  7.0404810445019677e+02  -1.2012408027099917e+02  4.1601895143607528e+01  4.2955657434716585e+01  1.0268069935284664e+02  -9.3984619788880977e+01  -3.4103446129476453e+02  3.1968833532945559e+03  -2.9669523747920169e+02  -5.8183468195963121e+02  -1.5150601305468840e+02  5.4143370309831070e+01  2.2354163159230477e+01  5.8952869723536146e+01  5.0521866070079528e+02  -2.2953208816608526e+02  -4.2356154839284460e+02  -2.0479018149646358e+03  -2.9898516386740505e+02  -8.7975605184007270e+02  2.5344174520399964e+01  -5.2635272609504125e+02  -8.4462505767076448e+02  -2.7572442420299853e+02  -7.1555709814011798e+03  -3.2050962104997473e+02  -3.1774117204706715e+02  -2.4789437334392809e+02  1.7797574908956358e+02  -1.1139354405666072e+03  -2.9324730725508374e+02  -5.3670748681248313e+01  8.2479060040615394e+01  -3.6702283854039621e+02  2.5682109364603826e+02  -1.9803867043772235e+02  -1.9930817588989086e+02  1.3006812996296110e+03  8.2216795946858753e+01  1.9587395855507253e+02  7.0201205429578678e+01  7.9632255510989907e+01  -1.1511755540680272e+03  -3.3167943001260858e+02  1.0848166008742635e+02  -3.3796381485433830e+02  -3.1462969569010847e+03  -3.0156736187047534e+02  -4.8935683662734419e+01  -1.6903145929120490e+02  2.9494372167230289e+01  2.4814549355102670e+01  -6.7781361702935590e+02  6.9456545691223264e+03  -3.3116921370681359e+02  -3.8404211355543708e+02  8.2623496702746678e+01  -3.9833930744075775e+02  8.1773625058754334e+01  -8.0409202394607701e+02  -2.8975081969712977e+02  -6.8413113060417288e+02  8.1295981225745891e+01  2.0692987643271056e+02  -7.5305927276070946e+01  -3.1546085979455529e+02  -2.7330131649481956e+02  7.8408837717215548e+01  4.1518809077424936e+02  -1.5462986971483681e+02  -1.7574930047326870e+02  -2.2707067580384881e+02  3.6149103873925935e+02  -2.0548755062815206e+02  -2.0944503177588399e+02  3.3357387694670933e+01  3.0413945936051686e+01  1.5537016155486904e+02  6.6714844886646091e+01  2.3615727078588122e+01  1.8890782494306404e+01  -2.8506267211203988e+02  9.3901825272912379e+02  -6.1037684803181969e+02  -2.6684361239013157e+02  8.8722025908933318e+01  -1.4895596784840302e+03  -2.8998831382886317e+02  -5.1279253838913386e+00  -5.6238436324163047e+01  2.0589177357034464e+02  -1.4350399360176183e+02  6.1751475584222348e+01  1.1271091144529688e+01  7.1004215214036876e+01  -1.4086817630770469e+02  -2.5459792631073682e+02  -3.1381138714024343e+02  -3.8019262871312202e+02  6.1802475131955553e+01  2.6634808933253735e+03  -2.7865929349172757e+02  -2.6739628274189550e+02  9.1923112753905812e+01  -5.2939350236844541e+02  -5.6420059522688427e+02  6.7962928195070118e+00  4.5089824517588681e+01  3.6065595411477034e+02  -6.5476801907833121e+01  -3.5020447846450452e+02  -3.4469206399459364e+02  -4.6745752784388338e+02  -7.2210756935672038e+01  5.4348865719180071e+02  9.0146123154451089e+01  3.2341218807434495e+02  1.8255262148209881e+03  -2.4284763785033240e+02  9.8605220896938238e+02  -2.6050494135078469e+02  1.8526438326698167e+02  -9.7490396489533126e+01  5.1367366797810280e+02  1.2941420909061540e+02  -7.7984775361711922e+02  -1.0664639577792923e+03  -3.0243058998341365e+02  1.4659228984583342e+02  9.3981089805899751e+02  -1.5502724462543344e+02  -1.8163974419891531e+03  -3.0393635412681613e+02  4.8068833078922069e+01  -1.3184750087229422e+00  -1.3750237056690046e+03  -1.1289052981377443e+04  -3.5458907373993145e+02  -2.0908243419717490e+02  -1.4767058555871759e+02  -1.2016398403734250e+02  -1.7203004581100939e+02  -3.8627446128475960e+00  2.2873265887584346e+01  3.9099566737771127e+01  -2.8723024551166321e+02  5.3849755690409644e+01  -2.2221383299180590e+02  9.3302089625779251e+02  -9.0348611181450650e+01  -2.4230425667864793e+01  3.7569846537100517e+01  -1.1221308861825316e+03  -2.8453566228839293e+02  -4.2970777450162257e+02  -2.8947444311128402e+02  4.6860760565388851e+01  -3.7051742803176279e+02  -6.7181132139286740e+02  -5.0960256762916879e+02  2.2721859765593572e+02  6.5162822156157222e+02  -1.4879693356988457e+02  6.3857502370529367e+01  2.4750980613098601e+01  1.9952298786576957e+01  -3.1120609791962988e+02  -3.5773771380473722e+03  -4.4865280941198188e+02  -4.4663051582771805e+03  -6.6513791547359006e+03  -3.1301384104192090e+02  -3.0610960721381304e+02  5.0529741058765431e+01  -4.5225402430203735e+02  -1.4640167040227992e+04  -3.3332359584088510e+02  1.4543084778002230e+02  -3.0951676017551142e+02  4.2040533862381471e+02  -6.0781308265545658e+02  8.1983934023568821e+01  -4.7725701097897974e+02  -3.2251344991115030e+02  5.7749040124821831e+03  -3.3356449591902748e+02  5.1716546450936235e+01  -3.0890385831250632e+02  -7.6861141885485540e+02  9.9195950085898374e+01  7.0122514151326840e+01  -3.1236321871626802e+02  1.2612460906753577e+04  -3.4709395104841491e+02  4.3656014963959038e+01  1.1699075049678486e+02  -1.0209814864203379e+03  -1.5808677387759137e+03  -2.9748449871893820e+02  -2.5556655657555511e+03  -3.0175650455831658e+02  -4.5557767232727133e+02  5.5658374436380122e+01  -7.0905025362012384e+02  -2.7630165792991346e+02  3.0501701449639741e+03  -3.1345596333264217e+02  9.3388283550612897e+01  -1.0544239915321036e+02  -8.3220619984807570e+01  -3.6876737412625602e+02  -3.2985810141193679e+02  -2.3371106242911073e+03  -2.9735879703612420e+02  -4.1026232788252059e+02  8.4503400348281318e+01  -2.7422317343361630e+02  2.0297228937869968e+03  1.0985081227832596e+02  -2.0953044311886448e+01  -2.1899157663040080e+02  9.2458970502705233e+02  -1.7128522788353803e+02  -2.1289575432033814e+02  9.7644937111112256e+01  -3.6878567042751337e+02  -2.5142907620218594e+02  3.1131281346190988e+01  3.4680989576868924e+01  2.4659219729695462e+02  8.5130383490918632e+01  -3.3401087380835452e+02  -2.7250925579035652e+02  2.8972844186019579e+01  1.8767094642303019e+02  -2.2380984645014897e+02  -6.2419588194016615e+02  6.2079167790243019e+01  -1.6040211815532825e+02  -1.3111729953155438e+02  5.0495658173303383e+02  -2.0326648488067960e+02  2.1185808204360771e+02  -1.1019926414465584e+02  3.8402302051146826e+01  1.7339254616450492e+02  3.4657239606610585e+02  -2.5112364465807195e+02  6.5729461600898546e+01  -2.7552910143097047e+00  -2.9868082930023884e+03  -3.2486375681867435e+02  2.0685108302942905e+02  -1.7559014298320020e+02  8.4839784956115835e+01  -3.5933518276364033e+01  6.8139805187366534e+01  -3.0033831775802429e+02  -5.2753074617563179e+01  3.6874936314939787e+03  -3.0391873122499669e+02  7.1451420127308461e+02  -1.1026362105349634e+02  8.2360783175481302e+01  -3.2573744994299483e+02  5.9811634593364488e+01  -6.2558590566006217e+02  9.1442361488280071e+01  3.8255232549047534e+01  8.3407739096244669e+01  -3.5807247489464652e+02  4.4221336407478454e+01  -1.1944757119321303e+03  4.9213841973993837e+01  -3.4795484474585754e+02  -2.4877192257402359e+02  2.5741121944559552e+02  -1.2502298375045245e+02  4.7206153821871050e+02  1.2607807112505603e+02  -8.4647994532285921e+01  3.4149729920688472e+01  -1.5995714718787599e+02  -1.3779037741583201e+02  3.0262706969227099e-01  -1.3639646090987983e+03  -2.8585198868522201e+02  -2.2985571316151963e+03  -2.9711915215611282e+02  -4.1298177976742733e+02  7.2292787544480817e+01  -3.9591441588212206e+02  8.1291666811883744e+01  -1.1060434900312304e+04  -3.2319453201816196e+02  -3.1321390427993019e+03  -3.0085228068281384e+02  -9.7136669430019890e+02  -4.4006119053145653e+02  -1.2502717901679539e+03  -2.9711543879915519e+02  -3.1171204722030654e+02  2.4487941300626701e+01  2.8402887574998442e+01  -3.0399485811773400e+02  7.7655322427305151e+01  1.2697738195256821e+02  -8.9384140838088274e+02  -2.8951409250965607e+01  1.2395331822669409e+02  6.7820055372815631e+01  2.1672084119468497e+02  1.5441235794042578e+02  -7.5674878084566240e+02  -1.0440549273035103e+03  -2.8042162640076731e+02  -2.5199938369026298e+00  -5.0302192673493272e+02  9.6062673844363019e+01  -5.0115927468562728e+02  -2.3848992513091613e+02  9.0227564775650319e+02  -2.4354565900643919e+02  3.2881740275819432e+01  7.5591945063449486e+01  -7.7861233710596377e+02  1.7020277735335642e+02  -2.8423308881128196e+02  5.7102844837173777e+01  1.4398057935210247e+03  -2.2368696993589398e+02  2.9451494898446562e+01  3.1713649974181596e+01  -5.5514414086835620e+02  5.7042410580401956e+01  7.7760392320829098e+01  3.0800544275718618e+01  1.5865326792952589e+01  -1.7043587480028556e+01  -4.2480308457503816e+02  7.5241813827258426e+01  1.0979765757772682e+03  -1.8014909191776988e+02  -3.7688533467239779e+02  -1.1875879143653153e+03  9.5844434915138478e+01  1.0524601459167297e+02  -4.4776486897963758e+02  -3.3916211734394699e+02  -2.8248472138575937e+02  -1.8141840578166472e+02  6.7034749088520442e+01  7.7686958606110366e+01  1.6902779353249690e+02  7.8766323057671428e+01  -2.4817955497005354e+02  -1.3568263553719748e+02  -1.9558864448296015e+02  -3.9558255464664745e+02  -2.6828886173841158e+02  -1.7946860027455463e+02  4.1463910392718299e+02  2.3968366642163183e+01  1.1532688910004227e+02  -2.5297074649768820e+02  2.8753065882333306e+02  -8.0010344470323233e+01  2.4876651340524816e+01  1.9692078901913266e+01  6.1244945609475366e+01  -1.6449682342762051e+03  8.7580801342517532e+01  3.2779447803827711e+03  -3.3160994379553944e+02  -3.1659524632560777e+02  -3.3943999623466107e+03  -3.0306823835656957e+02  -6.1516123846242033e+02  -3.6380924120283714e+02  5.7585512395851845e+02  -8.5883562452255191e+01  1.3340859559656212e+02  -2.0523978415208153e+03  -3.0327804212604610e+02  1.0321187630220777e+03  -1.9681378945736571e+02  -2.1650955053232997e+02  1.7982693857616762e+03  -5.2834510901436370e+03  -3.1256432315680769e+02  -2.7756238040440047e+02  -6.2783832687024388e+00  2.0328110765099515e+02  -4.9574569476029228e+02  -2.6378516081315053e+02  -2.9148704452085195e+01  -8.7533853187856636e+01  1.4578045451011858e+04  -3.5642559415822586e+02  -3.1850702705891181e+04  -3.4605153623283468e+02  -5.6598280053354938e+02  -3.8566689518408145e+02  2.2473895494422217e+02  -3.0295165389008233e+01  -7.3946333154395893e+02  -9.6461723571993957e+02  -2.9075266714010070e+02  2.8910701036110402e+02  -3.8589061681530131e+02  -3.2105865443396169e+02  -2.9027284256326209e+02  -3.1747455597336943e+02  -9.0225152169132161e+02  -6.6225778474572382e+02  8.6363335924231578e+01  1.2272701486544828e+02  -2.4503988507529132e+02  3.5521747778149665e+02  2.6300347758381286e+03  -2.6218583507398426e+02  2.9616346160709188e+01  -1.5498047552013295e+01  -2.2691857107177492e+02  -2.1295742927028505e+02  9.0589350788330634e+01  2.7687961221513099e+01  -5.2640441696751304e+02  3.7099315317752439e+02  5.3369108239861191e+01  7.5516252601958422e+03  -3.3647735221035680e+02  8.4283915009155592e+01  3.1867887967453834e+02  -1.3364544159592162e+02  5.9430015418281975e+01  7.3887486023769071e+01  1.4924972460753838e+02  -2.3763231341270759e+02  -3.1985214160911556e+02  -2.2120700334787702e+02  8.7339502709170389e+01  -2.9581124320677316e+02  2.2861427367708566e+03  5.3542898502688537e+01  -1.6637561290403497e+02  6.1766982775011775e+02  2.4961617414120102e+01  2.0637448354341188e+01  -3.6675202595851113e+02  6.3602117058357891e+01  4.5534923662270842e+01  -3.4134020948467190e+02  -3.4025557309354025e+02  2.3557934185413593e+01  7.8872261640668896e+01  8.7548384758781722e+01  3.5719550747285405e+02  -1.9029726223368525e+02  -5.4004284661896452e+02  2.5636889866095213e+01  2.1633791769512374e+01  -3.2057993569050637e+01  -1.8368579818779733e+02  -8.8722200309059076e+02  3.5319566310757949e+01  -1.5810751022793235e+02  -4.1131803188681630e+02  -2.2208985315380897e+02  2.5506164599235655e+02  -4.8532090817964274e+01  -5.8486454405161194e+03  -3.1019094053124354e+02  -6.9357852967796859e+01  -1.8498589552691229e+02  -2.3512264072777455e+02  -1.1811376508047528e+02  5.8115492530058475e+02  -3.0012428101166881e+02  -2.0086539405288715e+03  6.8810247959566686e+02  -2.7047140535540944e+02  -3.5625833097771857e+02  -2.8089560349614294e+02  -3.6338569792939722e+02  -4.5935343754633468e+04  -1.3030325813588606e+03  -2.9056844437676949e+02  -3.0911992147851862e+02  -2.1137830062299636e+02  -3.0679266326784330e+02  5.6592796995392668e+01  3.7474290929832804e+01  1.6562409267955701e+01  4.2095384361122186e+01  2.8354011208224929e+01  1.0073172808197749e+02  2.1319144596869286e+01  -1.4763696213899871e+02  3.8334909336058800e+01  5.1894183551864280e+01  8.6235926543057246e+01  7.2402339269921212e+00  2.8648328763455179e+03  -3.1996989091865044e+02  3.7719881856140432e+01  -8.0725374573627039e+02  -2.7495517400905300e+02  -1.2182542723788329e+02  -2.1569979454207578e+02  -1.9232977325719303e+03  -2.9526402256850389e+02  8.8272593045621960e+01  -1.9724511079368020e+02  -6.2355823681968911e+02  -8.7936778121337483e+01  3.8384182312953561e+02  6.7408728004257881e+01  -6.7333146060113151e+01  -4.6163721032624528e+02  -7.7108593991908856e+03  -3.2827839335886546e+02  -4.1157921234271657e+02  -6.2103109869823265e+02  6.8420889275193900e+01  -3.2107411608104525e+02  1.7382052599403505e+02  -1.0835324677196797e+03  -6.1017026167016274e+02  1.2237083452507729e+02  5.0479058296299385e+01  -5.8964745706268843e+01  4.1665846895002790e+02  2.1500273983445472e+03  -2.5366491449958781e+02  -1.7890554246140043e+03  -2.9972492606268185e+02  -4.9608471569551995e+02  -3.5893154047773396e+02  2.4190763121095067e+01  5.1100623677253068e+01  8.3306882822060672e+01  -3.2995737788781241e+02  -2.5377957321332417e+02  -3.0502581421414527e+02  -3.2499037012032358e+02  -1.2758658475158857e+01  9.7538917542592586e+01  -7.0165155646780670e+02  -2.5729170441079932e+03  -3.0026604134676893e+02  5.9248496782235895e+02  6.8433024652300674e+01  -8.2818876661478740e+01  7.4553655649213999e+02  1.4494426919335012e+02  -1.3049109846577487e+03  -3.1685042383399991e+02  -3.6572766654286897e+03  5.7902765838379580e+01  -5.1444313612417761e+02  -5.0390721033482819e+01  -1.8767791862997548e+01  -1.1029277472029910e+03  -3.0519022519578891e+02  -6.9027252292221897e+02  -5.6476748538834750e+02  1.2956625507823796e+02  8.2059538775318856e+01  -3.2512914412646472e+02