<?xml version="1.0"?>
<VTKFile type="UnstructuredGrid"  version="0.1"  >
<UnstructuredGrid>
<Piece  NumberOfPoints="1855" NumberOfCells="3532">
<Points>
<DataArray  type="Float64"  NumberOfComponents="3"  format="ascii">0 0 0  30 0 0  30 -10 0  0 -10 0  0.1391574078963744 0 0  0.2856388821882616 0 0  0.4398299073010886 0 0  0.6021362569539473 0 0  0.7729850389704483 0 0  0.9528258543586996 0 0  1.142131984380316 0 0  1.34140159760994 0 0  1.551159074717981 0 0  1.771956417032531 0 0  2.004374674080994 0 0  2.249025475789527 0 0  2.506552636773105 0 0  2.777633857742732 0 0  3.062982518028728 0 0  3.363349525995907 0 0  3.679525322337712 0 0  4.01234195575742 0 0  4.362675247811097 0 0  4.731447135329707 0 0  5.119628065610077 0 0  5.528239565804708 0 0  5.958356943167011 0 0  6.411112081475485 0 0  6.887696441559404 0 0  7.389364184530748 0 0  7.917435485335147 0 0  8.473300005202017 0 0  9.058420557070402 0 0  9.674336929103793 0 0  10.32266995225095 0 0  11.00512576896296 0 0  11.72350030646412 0 0  12.47968402994705 0 0  13.27566689579597 0 0  14.1135435963616 0 0  14.9955190732806 0 0  15.92391430904694 0 0  16.90117245730496 0 0  17.92986524844506 0 0  19.01269976086341 0 0  20.15252556282024 0 0  21.35234220269763 0 0  22.61530708683689 0 0  23.94474379751883 0 0  25.34415086349739 0 0  26.81721093579712 0 0  28.3678004819169 0 0  30 -1.111111111111111 0  30 -2.222222222222222 0  30 -3.333333333333333 0  30 -4.444444444444445 0  30 -5.555555555555555 0  30 -6.666666666666666 0  30 -7.777777777777777 0  30 -8.888888888888889 0  28.36780047917311 -10 0  26.8172109305839 -10 0  25.34415085606858 -10 0  23.94474378810899 -10 0  22.61530707566275 -10 0  21.3523421899591 -10 0  20.15252554870171 -10 0  19.01269974553473 -10 0  17.92986523206254 -10 0  16.90117244001232 -10 0  15.92391429097614 -10 0  14.99551905455266 -10 0  14.11354357708742 -10 0  13.27566687607703 -10 0  12.47968400987599 -10 0  11.72350028612546 -10 0  11.00512574843363 -10 0  10.32266993160086 -10 0  9.674336908396342 -10 0  9.058420536362949 -10 0  8.473299984546333 -10 0  7.917435464777824 -10 0  7.389364164113587 -10 0  6.887696420787165 -10 0  6.411112061446698 -10 0  5.95835692337857 -10 0  5.528239546282652 -10 0  5.119628046377237 -10 0  4.731447115907979 -10 0  4.362675229213632 -10 0  4.012341937260036 -10 0  3.679525304434552 -10 0  3.363349508456405 -10 0  3.062982500861274 -10 0  2.777633840953978 -10 0  2.506552620368097 -10 0  2.249025459771861 -10 0  2.004374658452946 -10 0  1.771956401795187 -10 0  1.551159059871345 -10 0  1.341401583153029 -10 0  1.142131970307521 -10 0  0.9528258406748833 -10 0  0.7729850256685147 -10 0  0.6021362439621285 -10 0  0.4398298947504031 -10 0  0.2856388700059078 -10 0  0.1391573960769001 -10 0  0 -9.855072463768115 0  0 -9.710144927536232 0  0 -9.565217391304348 0  0 -9.420289855072463 0  0 -9.27536231884058 0  0 -9.130434782608695 0  0 -8.985507246376812 0  0 -8.840579710144928 0  0 -8.695652173913043 0  0 -8.55072463768116 0  0 -8.405797101449275 0  0 -8.260869565217391 0  0 -8.115942028985508 0  0 -7.971014492753623 0  0 -7.826086956521739 0  0 -7.681159420289855 0  0 -7.536231884057971 0  0 -7.391304347826087 0  0 -7.246376811594203 0  0 -7.101449275362318 0  0 -6.956521739130435 0  0 -6.811594202898551 0  0 -6.666666666666667 0  0 -6.521739130434783 0  0 -6.376811594202898 0  0 -6.231884057971015 0  0 -6.086956521739131 0  0 -5.942028985507246 0  0 -5.797101449275362 0  0 -5.652173913043478 0  0 -5.507246376811594 0  0 -5.36231884057971 0  0 -5.217391304347826 0  0 -5.072463768115941 0  0 -4.927536231884058 0  0 -4.782608695652174 0  0 -4.637681159420289 0  0 -4.492753623188406 0  0 -4.347826086956522 0  0 -4.202898550724638 0  0 -4.057971014492754 0  0 -3.913043478260869 0  0 -3.768115942028985 0  0 -3.623188405797101 0  0 -3.478260869565217 0  0 -3.333333333333334 0  0 -3.188405797101449 0  0 -3.043478260869565 0  0 -2.898550724637681 0  0 -2.753623188405797 0  0 -2.608695652173912 0  0 -2.463768115942029 0  0 -2.318840579710145 0  0 -2.173913043478261 0  0 -2.028985507246377 0  0 -1.884057971014492 0  0 -1.739130434782609 0  0 -1.594202898550725 0  0 -1.44927536231884 0  0 -1.304347826086957 0  0 -1.159420289855072 0  0 -1.014492753623188 0  0 -0.8695652173913047 0  0 -0.72463768115942 0  0 -0.579710144927537 0  0 -0.4347826086956523 0  0 -0.2898550724637676 0  0 -0.1449275362318829 0  5.15859856094262 -4.976557621770688 0  2.816777084926057 -7.160262673925935 0  2.81677708460006 -2.839737326002783 0  2.227649803257325 -5.003121586636773 0  1.518662968975629 -8.46230852045241 0  1.518662969184829 -1.537691480152612 0  9.960740911025725 -5.055901393541221 0  1.491099662214591 -3.691833922963321 0  1.503675657181264 -6.345020369042368 0  5.319208041801049 -7.493850249937013 0  5.291109955459268 -2.489368743223226 0  1.096914507335763 -2.53623188405797 0  1.096914507253562 -7.463768115942029 0  1.089580194952752 -4.71277167923441 0  15.07565076110197 -5.047572991082069 0  7.501630508673601 -5.937500100385354 0  0.8894869418764504 -5.623930488933245 0  2.955144522453978 -1.440834296472408 0  2.955144521140721 -8.559165705576945 0  8.106603955004623 -2.748811534843258 0  3.662152539483591 -4.228178367024407 0  3.662181528265114 -5.771746159989156 0  0.8436558190317136 -0.8541050638451999 0  0.8436558075840921 -9.145894948342754 0  0.7854168197005933 -1.811594202898552 0  0.7894693398152999 -3.286543351392342 0  0.7854168196772591 -8.188405797101449 0  0.7854168196772591 -6.739130434782609 0  20.00078956016804 -4.999999999785771 0  0.7379120031523989 -3.977302749614766 0  6.584332478112232 -3.934875417052907 0  7.295091310194352 -7.969791332537982 0  9.811174303464586 -7.412814499648229 0  4.013376806449688 -2.206189431585293 0  4.013376806983409 -7.793810569017377 0  12.11177433894592 -2.818343737884045 0  2.591152707837148 -3.990098461753838 0  2.58990939378082 -6.025895074707176 0  25.43156400064585 -5.044446479916348 0  2.03262751726143 -2.282125834846944 0  2.032627517335952 -7.717874165160392 0  12.51865094522923 -6.491408052923457 0  0.598175343983641 -6.156971652625402 0  2.126700074935224 -0.8767654465386991 0  2.126700059112423 -9.123234559633019 0  6.617961838548696 -1.617756429129908 0  0.5903949564549755 -4.980060355019413 0  1.676697585305984 -5.547101897225158 0  4.773518305133987 -3.729331162566817 0  4.77931803486508 -6.231222307502165 0  4.878549698409591 -8.72048903376362 0  4.852580875634024 -1.222215410052823 0  0.5487847095754042 -2.675169258708207 0  0.545113423825768 -7.32369553390529 0  1.78738026998851 -4.400451872599477 0  1.68244194111824 -3.010100184333533 0  1.683984276238402 -7.018293626028473 0  9.998503440677371 -2.00585287985007 0  3.693061162502273 -3.243678395563028 0  3.694987482168253 -6.757603268814477 0  6.081763036485869 -5.83414381546261 0  0.5196640460586313 -1.350633211792632 0  0.5196640458460706 -8.649366789040087 0  3.84593363904758 -0.9906418103762418 0  3.845933620847308 -9.009358200471317 0  17.41551885287501 -3.057748733689079 0  17.30725517812527 -7.002961443761516 0  8.117698464370697 -4.451550942597151 0  0.4918476668493152 -0.4789811193757592 0  0.4918476560347713 -9.521018882514893 0  1.463770869328428 -0.6252343353791154 0  1.463770854281917 -9.374765668872765 0  0.5034132782032188 -4.464280853772128 0  3.138906271796685 -4.99999841599503 0  14.61209972381335 -2.388610981020637 0  6.208601124947327 -8.776231214192325 0  14.74910972998159 -7.542186851303819 0  2.243794246335625 -1.632184311040998 0  2.243794245689214 -8.367815689183566 0  0.4590235278399923 -5.431413993025926 0  0.4971508861448406 -2.209632053221267 0  0.4971508861368665 -7.790367946777407 0  0.4644363683211541 -3.560571347760519 0  6.478811279411406 -7.007392971062433 0  1.238895267772762 -4.173677632458826 0  1.293241773632479 -2.02256720952064 0  1.293241773542714 -7.977432790434841 0  0.4324740478030531 -0.942028985507247 0  0.4324740423701829 -9.057971014492754 0  2.117396640811705 -3.472968170680347 0  2.107095929630507 -6.531506384346077 0  8.087741545730886 -1.392783601483453 0  1.028911946384717 -1.352376108341404 0  1.028911946221715 -8.647623891551962 0  4.05691976296832 -4.991522392209158 0  11.51826881314265 -8.065248940008736 0  1.618560396201739 -4.958056164503666 0  2.701984523487646 -2.141781914603403 0  2.70198452396172 -7.858218085853512 0  2.843615645746219 -9.289121726447632 0  2.843615661334342 -0.7108782798429658 0  8.678774612240533 -8.488146490452822 0  6.487906449371135 -2.667543558824978 0  8.369190916679937 -7.129867754908394 0  11.80978191929258 -4.655775487536958 0  0.3792065166453504 -3.113833531412848 0  0.4134714637263563 -6.58827691137208 0  9.551050695080825 -3.49648183875815 0  1.083867845277057 -6.036251777836495 0  0.3756430921870901 -1.80381664325008 0  0.3756430921689482 -8.196183356748573 0  3.113073783220456 -3.503408140759125 0  3.113391383189963 -6.496678880796299 0  22.62850736315072 -3.277987336300344 0  22.59385352108348 -6.800312122582239 0  0.3777114402537816 -4.137047872695438 0  0.9196816123347897 -0.4281025456111269 0  0.9196815944880363 -9.571897460530383 0  0.4052043328723194 -5.827814332459883 0  8.865857694874787 -5.767686953139113 0  1.200388325130726 -5.182186034620629 0  5.65297436943758 -4.325500846767599 0  1.200079167961391 -3.009849046583253 0  1.20883344838 -7.021823297793294 0  1.057642414577487 -3.660996704809145 0  10.88812987788297 -6.333458225047037 0  4.493502926606794 -2.839780197438185 0  4.485862892033458 -7.147606077919463 0  0.3631651408878085 -7.003529808558233 0  1.946748828463205 -6.049056369468467 0  6.918750162798794 -4.993796052442676 0  3.351203216022585 -1.980935554775394 0  3.351203216441711 -8.019064445907297 0  2.281892243515294 -2.856654416292082 0  2.281892243715877 -7.143345583598931 0  5.811143619672087 -0.9953286820321026 0  2.695713766833098 -4.565354125099452 0  2.698172168139827 -5.435483248292925 0  19.86166219288896 -2.493475492328429 0  19.83739102036415 -7.594404063416508
[...]
<PointData  Scalars="pressure"> 
<DataArray  type="Float64"  Name="pressure"  format="ascii">-3.7402415846299496e-11  -1.9928917066137441e-14  2.9345306567226764e+01  -9.2526427431896059e+02  5.2433542958927591e-11  3.9919896350460387e-11  -3.1562596881349625e-11  2.6059635182555218e-12  0.0000000000000000e+00  6.6628459715075580e-12  -8.2493152946219610e-13  0.0000000000000000e+00  4.3970382763858470e-13  2.0943481564551252e-12  7.4796080237656203e-13  2.1645380473869753e-12  -9.9047448459078709e-13  -1.6326767478002679e-12  -1.9277224309022395e-13  -3.1668576849688694e-13  8.1052966012266069e-13  1.6646433455614978e-13  -1.4986432056696628e-13  -2.6089154825796477e-14  -2.7545736831223689e-13  3.4594171314275954e-13  -1.4633840648279533e-13  -8.9349278211333801e-14  -7.5320922340296153e-14  5.2973476936556568e-14  -8.4480171480992713e-15  -5.6461622401240094e-14  -6.3966464724910208e-14  -1.3131979016853769e-13  8.2118209794618004e-15  2.2358965891457206e-14  6.1809722526881653e-14  2.7485423868400184e-14  0.0000000000000000e+00  4.0586720092530359e-14  -3.1413812369867593e-14  -1.2235320670716225e-15  -7.2656813761985147e-16  3.6658061321169234e-15  1.6629789732468525e-15  2.2884630014478320e-14  4.3665814791391727e-15  -2.6297134695574674e-14  1.5893461732911454e-14  -5.1493040749132745e-15  -1.4832537677080933e-14  4.0243650776811446e-14  7.3046445797035858e+01  6.8276781709359867e+01  6.1527666114913728e+01  5.8135741004285372e+01  5.3178986435415140e+01  4.7950719417636222e+01  4.2161510279754417e+01  3.5967405606446775e+01  2.9645684640967151e+01  3.0502604519187503e+01  3.1975333745900148e+01  3.4419089430836763e+01  3.8571164807568501e+01  4.4273396816358115e+01  5.2387047831899217e+01  6.2884593027417338e+01  7.6229488501522255e+01  9.2516389275069685e+01  1.1145634341647720e+02  1.3294907725370109e+02  1.5593549664348706e+02  1.8076178029255291e+02  2.0475318668750515e+02  2.2778131184772772e+02  2.4804744238823145e+02  2.6375916120331135e+02  2.7542715693180344e+02  2.7784293504209370e+02  2.7280154288372643e+02  2.5835916805670934e+02  2.3448542781883253e+02  2.0076126116137016e+02  1.5792550501511761e+02  1.0512088658338702e+02  4.5295239878716728e+01  -2.1582380108819432e+01  -9.2068455538145059e+01  -1.6761127997943709e+02  -2.4292966737343068e+02  -3.1861583110031813e+02  -3.9285130777584050e+02  -4.6318027239338016e+02  -5.3084870325354962e+02  -5.9301966867211547e+02  -6.5009280270621866e+02  -7.0117125077035496e+02  -7.4572943450367620e+02  -7.8555246742541920e+02  -8.1913623649012254e+02  -8.4757261943170431e+02  -8.7045019517732635e+02  -8.8896831404764919e+02  -9.0318588166971949e+02  -9.1339049570732470e+02  -9.2025393112993015e+02  -9.2419102350598052e+02  -8.9841405286212432e+02  -8.7419025322375592e+02  -8.5215431723396011e+02  -8.3257035854766207e+02  -8.1484142840403081e+02  -7.9927005062961916e+02  -7.8557062963378166e+02  -7.7381921784200813e+02  -7.6392835383534043e+02  -7.5580495158119845e+02  -7.4935831178221702e+02  -7.4472409778275653e+02  -7.4179606310790984e+02  -7.4058327295228764e+02  -7.4108490746218024e+02  -7.4331934802569708e+02  -7.4740857652409761e+02  -7.5314084983349278e+02  -7.6088571965831568e+02  -7.7042950276125362e+02  -7.8200042614712311e+02  -7.9558457734784577e+02  -8.1147447311740984e+02  -8.2934207661887717e+02  -8.5000525327526418e+02  -8.7327993771927845e+02  -8.9920413742265544e+02  -9.2788696474965627e+02  -9.6000922390150254e+02  -9.9568821310367673e+02  -1.0352207702066644e+03  -1.0789144094348708e+03  -1.1272745676853012e+03  -1.1806559237817478e+03  -1.2392204248222447e+03  -1.3054740751619868e+03  -1.3769089842982637e+03  -1.4585418673377590e+03  -1.5481283146688681e+03  -1.6471468342489206e+03  -1.7587314032459935e+03  -1.8837246857354025e+03  -2.0242485847798202e+03  -2.1809679709479069e+03  -2.3616534393919610e+03  -2.5644051588232091e+03  -2.7973569213775709e+03  -3.0646901341474472e+03  -3.3763268355055420e+03  -3.7328624995401151e+03  -4.1469393557972844e+03  -4.6527808094883740e+03  -5.2429842857592439e+03  -5.9548706957529830e+03  -6.8301850462859666e+03  -7.9038150357293562e+03  -9.2600399926901009e+03  -1.0986881508176839e+04  -1.3297080498689456e+04  -1.6319327739742323e+04  -2.0601092493433971e+04  -2.6574117891887028e+04  -3.5612258504621866e+04  -5.2486232505760890e+04  -7.8639222194291506e+04  -1.0768906865856603e+05  -5.0286333082545811e+05  -3.2320119629622903e+05  5.6036540531129795e+01  -4.6711760266688810e+02  2.6877401517704641e+01  -6.7825596385549716e+02  -6.6073090276127732e+02  -1.2199494069729595e+02  2.1855798441179493e+02  -1.3010179562948945e+03  -7.2459360724219505e+02  -7.2308809899182648e+01  6.0885241567310379e+02  -2.5384137018313399e+03  -6.9956014784770332e+02  -1.1442730491180257e+03  1.3861333731044360e+02  1.6056813736200897e+02  -9.3234774358549157e+02  1.7455351701488512e+03  -4.5113248651712854e+02  3.6354920987704452e+02  -1.1269249713100488e+02  -2.8413061431447881e+02  -1.0939333380798621e+03  -7.6805788545576524e+02  -4.9889003047985525e+03  -2.2215666370717572e+03  -7.1815657318797298e+02  -7.7123097861612200e+02  8.3216188861254025e+01  -1.6498859997235886e+03  2.9104387662438216e+02  1.2350234886211780e+02  2.0068121965561110e+02  8.2051692219599556e+02  -2.6793013119898831e+02  1.9305842932252924e+02  -5.1191669648707699e+02  -5.2960363333040004e+02  5.9550660822464941e+01  -3.1902721443500434e+02  -5.8602049883478833e+02  1.8095548001011130e+02  -8.6211833011154272e+02  3.8873177894079040e+03  -6.0830265129724830e+02  6.1332156144843111e+02  -1.1686708685459628e+03  -7.8495724600739129e+02  2.3612566137824368e+02  -1.0830013043080486e+02  -1.2408445346988411e+02  1.1135353505519549e+03  -3.4891107528958705e+03  -7.4334900951123348e+02  -9.3423964600601437e+02  -1.2454091907577770e+03  -6.5053178853999191e+02  2.7641400944275705e+02  1.9847223224756007e+02  -3.0899317312637851e+02  7.3556781022599154e+01  -1.0001472562289964e+04  -7.4972164575341196e+02  1.7195878518487195e+03  -2.9478318585275520e+02  1.0237730076797516e+02  1.0553815598822598e+02  2.5113429316841626e+02  -1.7885430197332219e+03  -8.3346539341918105e+02  7.6163718636917811e+03  -7.2545268472277792e+02  -1.4210892781382620e+03  -3.7304914968692162e+02  1.3325436053906535e+02  5.3573563377649528e+01  1.4463797126397836e+02  1.1992255104686083e+03  -5.6184993486557539e+02  -1.0355630150000020e+03  -4.9757172949021005e+03  -7.3137466094646231e+02  -2.1453300438140241e+03  6.1060284272494521e+01  -1.2870841817590995e+03  -2.0826294969214700e+03  -6.7460676181300119e+02  -1.7299779827156104e+04  -7.8354330959283061e+02  -7.8245200984106509e+02  -6.0716468764264118e+02  4.3720649982632972e+02  -2.7861626281320960e+03  -7.1717998597978010e+02  -1.3368498465134687e+02  2.0189932548177148e+02  -8.9850338639169968e+02  6.0991799012709134e+02  -4.8510016792556246e+02  -4.8802504821324936e+02  3.1684972281686046e+03  2.0062016491802609e+02  4.7911183758909192e+02  1.7128203016882287e+02  1.9534518831614085e+02  -2.8037018733339032e+03  -8.1138076929023828e+02  2.6602981758981514e+02  -8.2690667100393387e+02  -7.6226520795548113e+03  -7.3757148712147637e+02  -1.2584204905530979e+02  -4.1470234858389750e+02  7.2584063560722839e+01  6.1061738635449764e+01  -1.6544960117438143e+03  1.6155066765891288e+04  -8.0942508872645726e+02  -9.3918319057934366e+02  2.0198699270109120e+02  -9.7443825333682378e+02  1.9845651364382306e+02  -1.9658676623031565e+03  -7.0906190271632988e+02  -1.6713733771868074e+03  1.9905619614859265e+02  5.0219409608384041e+02  -1.8540615171714995e+02  -7.7173848098751614e+02  -6.6934948094756817e+02  1.9109381523667574e+02  1.0037237794841533e+03  -3.7909522226417778e+02  -4.4079076461262565e+02  -5.5614467026546549e+02  8.8683368696010450e+02  -5.0549197427585136e+02  -5.1405057195511870e+02  8.2112406091368712e+01  7.4797763964700820e+01  3.7855902867745760e+02  1.6387268966811669e+02  5.8105982072350407e+01  4.6494806610688215e+01  -6.9717087988079163e+02  2.1609422789576906e+03  -1.5050170815604363e+03  -6.5303891154919188e+02  2.1839296598943065e+02  -3.6335204945326032e+03  -7.0943454501638473e+02  -1.3693707052443463e+01  -1.3935563759256527e+02  4.9489393514409903e+02  -3.5204211923105612e+02  1.5206949627710111e+02  2.4708268836558730e+01  1.7402148189220068e+02  -3.7613743267649647e+02  -6.2305702829354789e+02  -7.6789613912827224e+02  -9.3260516223821344e+02  1.5022584024520143e+02  6.4394661029289764e+03  -6.8147901310269629e+02  -6.5529307869732634e+02  2.2466680309710381e+02  -1.2933638954557391e+03  -1.3785525283583256e+03  1.5589207712018029e+01  1.1083820165882346e+02  8.7978576468410427e+02  -1.6126272379095892e+02  -8.5660189270924025e+02  -8.4346509085882906e+02  -1.1425011669041426e+03  -1.7778973726240417e+02  1.3320231849669972e+03  2.2124039710400169e+02  7.9133601326350254e+02  4.4434247414383608e+03  -5.9419009303303062e+02  2.3340878298124831e+03  -6.3731816658176388e+02  4.5402782013495852e+02  -2.3949405341985056e+02  1.2531336820493048e+03  3.1825892916732863e+02  -1.9024240249530226e+03  -2.6010465701100684e+03  -7.3995964270792649e+02  3.5867731134349998e+02  2.2973827086593210e+03  -3.7999849591854604e+02  -4.4135688153886731e+03  -7.4350918322342091e+02  1.1623720611751818e+02  -4.6900521606046581e+00  -3.3457011089876401e+03  -3.5416317371805264e+04  -8.6645690189171137e+02  -5.1240944592867709e+02  -3.6842164768735540e+02  -2.9804581236633379e+02  -4.2235600005916052e+02  -1.0695525203722791e+01  5.6285160584428994e+01  9.6292787493178352e+01  -7.0527795159077880e+02  1.3105316252600693e+02  -5.4394132658425269e+02  2.2449316484806882e+03  -2.2254886821911981e+02  -6.0381086274163131e+01  8.8012484493316890e+01  -2.7701185049775536e+03  -6.9601933365482444e+02  -1.0506381954821354e+03  -7.0849697658788762e+02  1.1506556881632628e+02  -9.0625258064068976e+02  -1.6429120313758006e+03  -1.2453846193414759e+03  5.5824352937471406e+02  1.5839034513832328e+03  -3.6479287649024673e+02  1.5667719738028023e+02  6.0904751242303540e+01  4.9109529503265684e+01  -7.6090121372655096e+02  -8.7475346758601245e+03  -1.0969498697892618e+03  -1.0791624224152372e+04  -1.6021171617770742e+04  -7.6534006751546269e+02  -7.4858083135013544e+02  1.2426269368337229e+02  -1.1064270098605034e+03  -3.5250590109164528e+04  -8.1471733342819607e+02  3.5707646970337879e+02  -7.5718473091281317e+02  1.0315777266300558e+03  -1.4841951981972043e+03  2.0053661689614341e+02  -1.1707417032296141e+03  -7.8832789162402889e+02  1.3752095739990074e+04  -8.1601880492370572e+02  1.2700056901499796e+02  -7.5618080330843736e+02  -1.8758810019603918e+03  2.4290433081857717e+02  1.7205067680216155e+02  -7.6514776082848948e+02  2.8808026327047337e+04  -8.4819796805336330e+02  1.0594801845552627e+02  2.8659288626097617e+02  -2.4877250068019844e+03  -3.8478441410990131e+03  -7.2777042675874202e+02  -6.1969790061968479e+03  -7.3810197739844580e+02  -1.1154800082725944e+03  1.3393317448738480e+02  -1.7385428396466573e+03  -6.7619932504632675e+02  7.0634301015478177e+03  -7.6630310884155074e+02  2.2948508983276349e+02  -2.6012710698920847e+02  -2.0641759510811477e+02  -9.0190011543343360e+02  -8.0832062065679168e+02  -5.7065142473230953e+03  -7.2724382684739408e+02  -1.0030984594486807e+03  2.0597435070265158e+02  -6.7070593969049867e+02  4.8504233863524696e+03  2.6836607198825379e+02  -6.6979689335861295e+01  -5.3632170158543613e+02  2.2500316821801307e+03  -4.1966323441832134e+02  -5.2291481428821396e+02  2.4034034373933360e+02  -9.1355620311276004e+02  -6.1551241244521350e+02  7.6664670087983509e+01  8.5248781353255168e+01  6.0304376696995769e+02  2.0799027441143798e+02  -8.1716991548865462e+02  -6.6718111209760434e+02  7.1290242530395986e+01  4.3398900096943572e+02  -5.4796756707038367e+02  -1.5251051911180768e+03  1.4379834812210993e+02  -3.9343978981445520e+02  -3.2216645536435868e+02  1.2108385304419744e+03  -4.9778199321255352e+02  5.1217788991325051e+02  -2.7069154849229341e+02  9.4416985879985674e+01  4.2170375776398396e+02  7.9879101803750780e+02  -6.1451021148322695e+02  1.6163653399644511e+02  -1.1666122812201927e+01  -7.4993782007640302e+03  -7.9411607403700771e+02  4.9321470795820272e+02  -4.3035819767261296e+02  2.0647725589963935e+02  -8.9118332879600132e+01  1.6610738284952447e+02  -7.3440202756766689e+02  -2.8995236149537050e+02  8.8853394170356187e+03  -7.4302306347134402e+02  1.7505245057034949e+03  -2.7075505930846822e+02  2.0153655167144260e+02  -7.9684778234453461e+02  1.4671497890691171e+02  -1.5276531299240494e+03  2.2371771887079743e+02  9.4110078214846354e+01  2.0439051464865460e+02  -8.7639383188845045e+02  1.0895650588874058e+02  -2.9096459139916569e+03  1.1923071749553571e+02  -8.5801028246863177e+02  -6.0917739117323470e+02  6.3225627209611343e+02  -3.0676590969325133e+02  1.1472573894301925e+03  3.0413241282673647e+02  -2.0837327685800659e+02  8.2572632888081500e+01  -3.9323462753818268e+02  -3.4015645916275116e+02  -3.1861049116294438e-01  -3.3395442611855592e+03  -6.9928860650272657e+02  -5.5854352761771179e+03  -7.2676519813826530e+02  -1.0103470555896272e+03  1.7645609506910540e+02  -9.6817860682521064e+02  1.9908311238121081e+02  -2.6499559958067857e+04  -7.9008644062020937e+02  -7.6014002497917500e+03  -7.3578403321865255e+02  -2.3679799288107547e+03  -1.0757324885936987e+03  -3.0475998258575405e+03  -7.2692838225182925e+02  -7.6261522800031696e+02  6.0254365548794858e+01  6.9914792330384984e+01  -7.4386867960639529e+02  1.8959999847971986e+02  3.1145622777196485e+02  -2.1791797998650491e+03  -7.2109248384461168e+01  3.0336483637816303e+02  1.6628587799784245e+02  5.3194036070764707e+02  3.7695464335533961e+02  -1.8465796810972652e+03  -2.5595190094185373e+03  -6.8610273481390573e+02  -8.4957743785433184e+00  -1.2291106986009763e+03  2.3456785160837526e+02  -1.2253528726797945e+03  -5.8364521147874711e+02  2.1570036997502061e+03  -5.9671174290291594e+02  7.9542266427555901e+01  1.8519130737265630e+02  -1.9015722173434524e+03  4.1848353695183113e+02  -6.9947582341916097e+02  1.4036671003553448e+02  3.4915801539801787e+03  -5.4748686157275972e+02  7.2451782563119323e+01  7.8043363214195338e+01  -1.3577202441926909e+03  1.3871639793352895e+02  1.8999205092077636e+02  7.5770921383783204e+01  3.9052595745679831e+01  -4.3399739136207245e+01  -1.0421260451820633e+03  1.8475748339666788e+02  2.6841206534390162e+03  -4.4129796003275140e+02  -9.2200716974009345e+02  -2.8915766535888120e+03  2.3497982170090526e+02  2.5839461825382546e+02  -1.0945757654511813e+03  -8.2963679852375503e+02  -6.9094278616052077e+02  -5.2262786576387043e+02  1.6321842047685419e+02  1.9040315337821841e+02  4.1470539360429717e+02  1.9290673697494384e+02  -6.0818643295186280e+02  -3.3753586261225342e+02  -4.7961240503836387e+02  -1.0029935157444883e+03  -6.5642316608532371e+02  -4.3973356253761290e+02  9.9771789269314343e+02  5.7604821643374599e+01  2.8012866747866485e+02  -6.2113083156920356e+02  6.9925154519242381e+02  -1.9683287593918936e+02  6.1221997549861022e+01  4.8472482147894823e+01  1.5090957070705267e+02  -3.9985273893057588e+03  2.1386695341564015e+02  7.1488247469280204e+03  -8.1051622938643357e+02  -7.7449872503886138e+02  -8.2154549879638362e+03  -7.4123222946836552e+02  -1.5074649398532270e+03  -8.8997637437900983e+02  1.4077545396326320e+03  -2.1115126775362492e+02  3.2815436106068864e+02  -4.9828398153264006e+03  -7.4187274785283546e+02  2.5036936570166999e+03  -4.8195575202312830e+02  -5.2997652635044949e+02  4.3982587955800118e+03  -1.2789872508578483e+04  -7.6422575520238206e+02  -6.7964198788070485e+02  -1.6613173912735252e+01  4.9623146174371010e+02  -1.2328932456196599e+03  -6.4551628683762090e+02  -7.4445352990551910e+01  -2.1606757860762804e+02  3.2757586159419709e+04  -8.7091730267225819e+02  -7.4583788765482212e+04  -8.4568492476256699e+02  -1.3823820609624397e+03  -9.4429775250169087e+02  5.5037317988356915e+02  -7.6111960643530125e+01  -1.8042436236738592e+03  -2.3564284792051449e+03  -7.1145506618324509e+02  7.0852123900989068e+02  -9.4366495162682963e+02  -7.8544144053508455e+02  -7.1094671641476839e+02  -7.7700706419426399e+02  -2.2026203806425965e+03  -1.6165704249156292e+03  2.1123227949128869e+02  2.9895613599349679e+02  -6.0099820378569552e+02  8.7228158990118709e+02  6.4209205948131803e+03  -6.4132508297254913e+02  7.1167880460309590e+01  -3.9079991165858509e+01  -5.5587515117436374e+02  -5.2889872892451115e+02  2.2158168974476806e+02  6.8134505796582516e+01  -1.2861699889141553e+03  9.0890312082906246e+02  1.2876512361888726e+02  1.7923355326772005e+04  -8.2233309254728101e+02  2.0635786082355958e+02  7.7089054965123705e+02  -3.2789095530946099e+02  1.4437115283700868e+02  1.8177644591392232e+02  3.3401022909661879e+02  -5.8166655057027128e+02  -7.8258168940166217e+02  -5.4254311642990353e+02  2.1336626189207854e+02  -7.2332209429886768e+02  5.3773807306389635e+03  1.3207640776509405e+02  -4.0771945915823085e+02  1.4965594736454639e+03  6.1417963566454326e+01  5.0787669438682435e+01  -8.9700364711674627e+02  1.5616868097682681e+02  1.1225562580659076e+02  -8.3735333014098774e+02  -8.3233390636115780e+02  5.7974432416321392e+01  1.9427169003304670e+02  2.1466549082920230e+02  8.7302150622403303e+02  -4.6908096991445444e+02  -1.3195730516708052e+03  6.3083273584587047e+01  5.3240638796923236e+01  -8.6481027098765225e+01  -4.5034482242037137e+02  -2.1641789417688292e+03  8.6835971283901785e+01  -3.8818348714399775e+02  -1.0059002796400969e+03  -5.4423063520826236e+02  6.2145745069180759e+02  -1.1985953253429479e+02  -1.4099298335716876e+04  -7.5849159152609082e+02  -1.7453839270587534e+02  -4.6660090168459249e+02  -5.7571222555037741e+02  -2.8987009250925649e+02  1.4165040734089002e+03  -7.3393530480613151e+02  -4.9477113843945635e+03  1.5942593882634299e+03  -6.6162960555626364e+02  -8.7147990737776752e+02  -6.8749945355654427e+02  -8.8786475614892413e+02  -4.9935500032926189e+04  -3.1789392425381170e+03  -7.1090305628274211e+02  -7.5625255195900388e+02  -5.2297490324870296e+02  -7.5050404116704044e+02  1.3775867430753351e+02  9.2195718549330692e+01  4.0771945098108873e+01  1.0369060627477754e+02  6.9737200307791397e+01  2.4774350536239623e+02  4.5896811298305678e+01  -3.6238427107797031e+02  9.4192990584978958e+01  1.2736704987559179e+02  2.1105428098553901e+02  1.6640566063925192e+01  6.5092496406508963e+03  -7.8217267325034402e+02  9.2840282003951486e+01  -1.9811997405980001e+03  -6.7282987246668984e+02  -3.0813228754305709e+02  -5.2841813598844237e+02  -4.6790363612235697e+03  -7.2227931312361522e+02  2.0213040356260365e+02  -4.8325177897155766e+02  -1.5225825719382874e+03  -2.1616712400765505e+02  9.3485663095455618e+02  1.6149040360668565e+02  -1.6621917140680904e+02  -1.1296808823584888e+03  -1.8703410918534431e+04  -8.0243608053254866e+02  -1.0063990325183892e+03  -1.5186349118457863e+03  1.6670889909171689e+02  -7.8567171417516352e+02  4.2541749370616367e+02  -2.6406217245464127e+03  -1.4905629736304061e+03  3.0050083395402243e+02  1.2406180419744197e+02  -1.4534186630929773e+02  1.0182431105851313e+03  5.2100084410157297e+03  -6.2056797349465774e+02  -4.3493956898494462e+03  -7.3321971363328225e+02  -1.2122704992084530e+03  -8.7833199363187600e+02  5.7644699459913063e+01  1.2545433003051760e+02  2.0286725959418783e+02  -8.2618475123005283e+02  -6.2114387128213889e+02  -7.4633935861802138e+02  -7.9686390328595701e+02  -3.2294054141043077e+01  2.3790025392215534e+02  -1.7125902167033018e+03  -6.2410241347355759e+03  -7.3444849596315817e+02  1.4546760139755490e+03  1.6776221241056760e+02  -2.0375392133515319e+02  1.8298063135867339e+03  3.5154475329643606e+02  -3.1756448715665110e+03  -7.7462538997059028e+02  -8.9918496693439756e+03  1.4212009344339526e+02  -1.2574173549466698e+03  -1.2456328082108951e+02  -4.7047762290413736e+01  -2.8281888036927239e+03  -7.4623192614682648e+02  -1.6855704521007194e+03  -1.3794837001365829e+03  3.1663092198305776e+02  2.0076338690052171e+02  -7.9540193158331601e+02