<?xml version="1.0"?>
<VTKFile type="UnstructuredGrid"  version="0.1"  >
<UnstructuredGrid>
<Piece  NumberOfPoints="1855" NumberOfCells="3532">
<Points>
<DataArray  type="Float64"  NumberOfComponents="3"  format="ascii">0 0 0  30 0 0  30 -10 0  0 -10 0  0.1391574078963744 0 0  0.2856388821882616 0 0  0.4398299073010886 0 0  0.6021362569539473 0 0  0.7729850389704483 0 0  0.9528258543586996 0 0  1.142131984380316 0 0  1.34140159760994 0 0  1.551159074717981 0 0  1.771956417032531 0 0  2.004374674080994 0 0  2.249025475789527 0 0  2.506552636773105 0 0  2.777633857742732 0 0  3.062982518028728 0 0  3.363349525995907 0 0  3.679525322337712 0 0  4.01234195575742 0 0  4.362675247811097 0 0  4.731447135329707 0 0  5.119628065610077 0 0  5.528239565804708 0 0  5.958356943167011 0 0  6.411112081475485 0 0  6.887696441559404 0 0  7.389364184530748 0 0  7.917435485335147 0 0  8.473300005202017 0 0  9.058420557070402 0 0  9.674336929103793 0 0  10.32266995225095 0 0  11.00512576896296 0 0  11.72350030646412 0 0  12.47968402994705 0 0  13.27566689579597 0 0  14.1135435963616 0 0  14.9955190732806 0 0  15.92391430904694 0 0  16.90117245730496 0 0  17.92986524844506 0 0  19.01269976086341 0 0  20.15252556282024 0 0  21.35234220269763 0 0  22.61530708683689 0 0  23.94474379751883 0 0  25.34415086349739 0 0  26.81721093579712 0 0  28.3678004819169 0 0  30 -1.111111111111111 0  30 -2.222222222222222 0  30 -3.333333333333333 0  30 -4.444444444444445 0  30 -5.555555555555555 0  30 -6.666666666666666 0  30 -7.777777777777777 0  30 -8.888888888888889 0  28.36780047917311 -10 0  26.8172109305839 -10 0  25.34415085606858 -10 0  23.94474378810899 -10 0  22.61530707566275 -10 0  21.3523421899591 -10 0  20.15252554870171 -10 0  19.01269974553473 -10 0  17.92986523206254 -10 0  16.90117244001232 -10 0  15.92391429097614 -10 0  14.99551905455266 -10 0  14.11354357708742 -10 0  13.27566687607703 -10 0  12.47968400987599 -10 0  11.72350028612546 -10 0  11.00512574843363 -10 0  10.32266993160086 -10 0  9.674336908396342 -10 0  9.058420536362949 -10 0  8.473299984546333 -10 0  7.917435464777824 -10 0  7.389364164113587 -10 0  6.887696420787165 -10 0  6.411112061446698 -10 0  5.95835692337857 -10 0  5.528239546282652 -10 0  5.119628046377237 -10 0  4.731447115907979 -10 0  4.362675229213632 -10 0  4.012341937260036 -10 0  3.679525304434552 -10 0  3.363349508456405 -10 0  3.062982500861274 -10 0  2.777633840953978 -10 0  2.506552620368097 -10 0  2.249025459771861 -10 0  2.004374658452946 -10 0  1.771956401795187 -10 0  1.551159059871345 -10 0  1.341401583153029 -10 0  1.142131970307521 -10 0  0.9528258406748833 -10 0  0.7729850256685147 -10 0  0.6021362439621285 -10 0  0.4398298947504031 -10 0  0.2856388700059078 -10 0  0.1391573960769001 -10 0  0 -9.855072463768115 0  0 -9.710144927536232 0  0 -9.565217391304348 0  0 -9.420289855072463 0  0 -9.27536231884058 0  0 -9.130434782608695 0  0 -8.985507246376812 0  0 -8.840579710144928 0  0 -8.695652173913043 0  0 -8.55072463768116 0  0 -8.405797101449275 0  0 -8.260869565217391 0  0 -8.115942028985508 0  0 -7.971014492753623 0  0 -7.826086956521739 0  0 -7.681159420289855 0  0 -7.536231884057971 0  0 -7.391304347826087 0  0 -7.246376811594203 0  0 -7.101449275362318 0  0 -6.956521739130435 0  0 -6.811594202898551 0  0 -6.666666666666667 0  0 -6.521739130434783 0  0 -6.376811594202898 0  0 -6.231884057971015 0  0 -6.086956521739131 0  0 -5.942028985507246 0  0 -5.797101449275362 0  0 -5.652173913043478 0  0 -5.507246376811594 0  0 -5.36231884057971 0  0 -5.217391304347826 0  0 -5.072463768115941 0  0 -4.927536231884058 0  0 -4.782608695652174 0  0 -4.637681159420289 0  0 -4.492753623188406 0  0 -4.347826086956522 0  0 -4.202898550724638 0  0 -4.057971014492754 0  0 -3.913043478260869 0  0 -3.768115942028985 0  0 -3.623188405797101 0  0 -3.478260869565217 0  0 -3.333333333333334 0  0 -3.188405797101449 0  0 -3.043478260869565 0  0 -2.898550724637681 0  0 -2.753623188405797 0  0 -2.608695652173912 0  0 -2.463768115942029 0  0 -2.318840579710145 0  0 -2.173913043478261 0  0 -2.028985507246377 0  0 -1.884057971014492 0  0 -1.739130434782609 0  0 -1.594202898550725 0  0 -1.44927536231884 0  0 -1.304347826086957 0  0 -1.159420289855072 0  0 -1.014492753623188 0  0 -0.8695652173913047 0  0 -0.72463768115942 0  0 -0.579710144927537 0  0 -0.4347826086956523 0  0 -0.2898550724637676 0  0 -0.1449275362318829 0  5.15859856094262 -4.976557621770688 0  2.816777084926057 -7.160262673925935 0  2.81677708460006 -2.839737326002783 0  2.227649803257325 -5.003121586636773 0  1.518662968975629 -8.46230852045241 0  1.518662969184829 -1.537691480152612 0  9.960740911025725 -5.055901393541221 0  1.491099662214591 -3.691833922963321 0  1.503675657181264 -6.345020369042368 0  5.319208041801049 -7.493850249937013 0  5.291109955459268 -2.489368743223226 0  1.096914507335763 -2.53623188405797 0  1.096914507253562 -7.463768115942029 0  1.089580194952752 -4.71277167923441 0  15.07565076110197 -5.047572991082069 0  7.501630508673601 -5.937500100385354 0  0.8894869418764504 -5.623930488933245 0  2.955144522453978 -1.440834296472408 0  2.955144521140721 -8.559165705576945 0  8.106603955004623 -2.748811534843258 0  3.662152539483591 -4.228178367024407 0  3.662181528265114 -5.771746159989156 0  0.8436558190317136 -0.8541050638451999 0  0.8436558075840921 -9.145894948342754 0  0.7854168197005933 -1.811594202898552 0  0.7894693398152999 -3.286543351392342 0  0.7854168196772591 -8.188405797101449 0  0.7854168196772591 -6.739130434782609 0  20.00078956016804 -4.999999999785771 0  0.7379120031523989 -3.977302749614766 0  6.584332478112232 -3.934875417052907 0  7.295091310194352 -7.969791332537982 0  9.811174303464586 -7.412814499648229 0  4.013376806449688 -2.206189431585293 0  4.013376806983409 -7.793810569017377 0  12.11177433894592 -2.818343737884045 0  2.591152707837148 -3.990098461753838 0  2.58990939378082 -6.025895074707176 0  25.43156400064585 -5.044446479916348 0  2.03262751726143 -2.282125834846944 0  2.032627517335952 -7.717874165160392 0  12.51865094522923 -6.491408052923457 0  0.598175343983641 -6.156971652625402 0  2.126700074935224 -0.8767654465386991 0  2.126700059112423 -9.123234559633019 0  6.617961838548696 -1.617756429129908 0  0.5903949564549755 -4.980060355019413 0  1.676697585305984 -5.547101897225158 0  4.773518305133987 -3.729331162566817 0  4.77931803486508 -6.231222307502165 0  4.878549698409591 -8.72048903376362 0  4.852580875634024 -1.222215410052823 0  0.5487847095754042 -2.675169258708207 0  0.545113423825768 -7.32369553390529 0  1.78738026998851 -4.400451872599477 0  1.68244194111824 -3.010100184333533 0  1.683984276238402 -7.018293626028473 0  9.998503440677371 -2.00585287985007 0  3.693061162502273 -3.243678395563028 0  3.694987482168253 -6.757603268814477 0  6.081763036485869 -5.83414381546261 0  0.5196640460586313 -1.350633211792632 0  0.5196640458460706 -8.649366789040087 0  3.84593363904758 -0.9906418103762418 0  3.845933620847308 -9.009358200471317 0  17.41551885287501 -3.057748733689079 0  17.30725517812527 -7.002961443761516 0  8.117698464370697 -4.451550942597151 0  0.4918476668493152 -0.4789811193757592 0  0.4918476560347713 -9.521018882514893 0  1.463770869328428 -0.6252343353791154 0  1.463770854281917 -9.374765668872765 0  0.5034132782032188 -4.464280853772128 0  3.138906271796685 -4.99999841599503 0  14.61209972381335 -2.388610981020637 0  6.208601124947327 -8.776231214192325 0  14.74910972998159 -7.542186851303819 0  2.243794246335625 -1.632184311040998 0  2.243794245689214 -8.367815689183566 0  0.4590235278399923 -5.431413993025926 0  0.4971508861448406 -2.209632053221267 0  0.4971508861368665 -7.790367946777407 0  0.4644363683211541 -3.560571347760519 0  6.478811279411406 -7.007392971062433 0  1.238895267772762 -4.173677632458826 0  1.293241773632479 -2.02256720952064 0  1.293241773542714 -7.977432790434841 0  0.4324740478030531 -0.942028985507247 0  0.4324740423701829 -9.057971014492754 0  2.117396640811705 -3.472968170680347 0  2.107095929630507 -6.531506384346077 0  8.087741545730886 -1.392783601483453 0  1.028911946384717 -1.352376108341404 0  1.028911946221715 -8.647623891551962 0  4.05691976296832 -4.991522392209158 0  11.51826881314265 -8.065248940008736 0  1.618560396201739 -4.958056164503666 0  2.701984523487646 -2.141781914603403 0  2.70198452396172 -7.858218085853512 0  2.843615645746219 -9.289121726447632 0  2.843615661334342 -0.7108782798429658 0  8.678774612240533 -8.488146490452822 0  6.487906449371135 -2.667543558824978 0  8.369190916679937 -7.129867754908394 0  11.80978191929258 -4.655775487536958 0  0.3792065166453504 -3.113833531412848 0  0.4134714637263563 -6.58827691137208 0  9.551050695080825 -3.49648183875815 0  1.083867845277057 -6.036251777836495 0  0.3756430921870901 -1.80381664325008 0  0.3756430921689482 -8.196183356748573 0  3.113073783220456 -3.503408140759125 0  3.113391383189963 -6.496678880796299 0  22.62850736315072 -3.277987336300344 0  22.59385352108348 -6.800312122582239 0  0.3777114402537816 -4.137047872695438 0  0.9196816123347897 -0.4281025456111269 0  0.9196815944880363 -9.571897460530383 0  0.4052043328723194 -5.827814332459883 0  8.865857694874787 -5.767686953139113 0  1.200388325130726 -5.182186034620629 0  5.65297436943758 -4.325500846767599 0  1.200079167961391 -3.009849046583253 0  1.20883344838 -7.021823297793294 0  1.057642414577487 -3.660996704809145 0  10.88812987788297 -6.333458225047037 0  4.493502926606794 -2.839780197438185 0  4.485862892033458 -7.147606077919463 0  0.3631651408878085 -7.003529808558233 0  1.946748828463205 -6.049056369468467 0  6.918750162798794 -4.993796052442676 0  3.351203216022585 -1.980935554775394 0  3.351203216441711 -8.019064445907297 0  2.281892243515294 -2.856654416292082 0  2.281892243715877 -7.143345583598931 0  5.811143619672087 -0.9953286820321026 0  2.695713766833098 -4.565354125099452 0  2.698172168139827 -5.435483248292925 0  19.86166219288896 -2.493475492328429 0  19.83739102036415 -7.594404063416508
[...]
<PointData  Scalars="pressure"> 
<DataArray  type="Float64"  Name="pressure"  format="ascii">1.2467471948766499e-11  -4.9822292665343603e-15  7.1565873758795746e+00  -2.2814913588269067e+02  5.1850948037161727e-11  0.0000000000000000e+00  4.9544238403600065e-12  -4.4091118695179003e-12  0.0000000000000000e+00  8.4280897390735372e-13  1.0569869244711951e-12  3.8748403876834676e-13  5.8819308341104308e-13  6.5845036737036139e-13  2.0317436165670685e-14  1.7913614529333732e-13  -3.3992986550680979e-14  -1.5564929364279110e-13  9.6386121545111977e-14  2.2771789827911581e-14  4.3042833258147833e-14  -1.8015272650948656e-13  1.8733040070870785e-14  1.3203657625250656e-14  -6.8864342078059223e-14  -2.2588005585087573e-14  1.3065929150249584e-14  4.4674639105666901e-14  -5.1467803714464448e-14  -1.4436195218478230e-14  3.8980711494332851e-14  -2.0550042485494372e-14  3.1223736079441654e-15  -8.2074868855336054e-15  -5.5659748986542158e-15  -2.7948707364321508e-15  1.0292575090093374e-14  5.3548857121430642e-15  3.2228549519365149e-15  1.2030489905404699e-14  -2.3560359277400692e-14  -1.0325004628172621e-14  2.3954043287154479e-15  -1.2085704591822983e-14  -1.3184430215388162e-15  -1.4712802257618547e-15  -3.3618875796472328e-15  4.1803860722266995e-15  8.4911374080276638e-16  2.7861458349260215e-15  -4.6351680240877915e-15  1.4815892777060822e-14  1.7834532479370282e+01  1.6667779075516741e+01  1.5018168228623804e+01  1.4188646087617933e+01  1.2977308487055449e+01  1.1699904334809180e+01  1.0285787291071372e+01  8.7731234821913588e+00  7.2291488744096029e+00  7.4365462109981522e+00  7.7934316141928672e+00  8.3873911491400790e+00  9.3998953158728895e+00  1.0792313553976667e+01  1.2777332613542340e+01  1.5348591992121445e+01  1.8622134878594117e+01  2.2621434546383746e+01  2.7277769302501397e+01  3.2567425009693068e+01  3.8232289428052681e+01  4.4357891669557070e+01  5.0287392939311353e+01  5.5991169901608686e+01  6.1023958584002834e+01  6.4947728325439641e+01  6.7884243699654277e+01  6.8547869724563753e+01  6.7380072681180877e+01  6.3896807701637385e+01  5.8088880783060105e+01  4.9847734205100011e+01  3.9350503613405316e+01  2.6385507847614544e+01  1.1676786384063828e+01  -4.7858046265348335e+00  -2.2153073043599964e+01  -4.0782565648516879e+01  -5.9367930473177040e+01  -7.8057165456112116e+01  -9.6397557963004800e+01  -1.1377996909708907e+02  -1.3051334579617858e+02  -1.4589075754421796e+02  -1.6001308934018792e+02  -1.7265412646683248e+02  -1.8368445052963912e+02  -1.9354452352948283e+02  -2.0186107212168895e+02  -2.0890368400532324e+02  -2.1457009778411475e+02  -2.1915729773609445e+02  -2.2267939070889892e+02  -2.2520741047648320e+02  -2.2690785842446402e+02  -2.2788323559384409e+02  -2.2149248356017628e+02  -2.1548638836924667e+02  -2.1002214843733051e+02  -2.0516493969295493e+02  -2.0076704871031515e+02  -1.9690307064361761e+02  -1.9350237822343558e+02  -1.9058367448704917e+02  -1.8812518430700726e+02  -1.8610393092380608e+02  -1.8449737936524258e+02  -1.8333898936941759e+02  -1.8260252598417216e+02  -1.8229027506551358e+02  -1.8240184713201842e+02  -1.8294185003522358e+02  -1.8394063844869888e+02  -1.8534563299568714e+02  -1.8724852666266665e+02  -1.8959608853021885e+02  -1.9244535727985726e+02  -1.9579267308192897e+02  -1.9971073811711892e+02  -2.0411802670971284e+02  -2.0921758442097189e+02  -2.1496453950552441e+02  -2.2136780620969080e+02  -2.2845398557995887e+02  -2.3639358499350678e+02  -2.4521529024439718e+02  -2.5499291756499690e+02  -2.6580392354838472e+02  -2.7777301175564025e+02  -2.9099055021234051e+02  -3.0549469242339688e+02  -3.2191387017426536e+02  -3.3961917159961104e+02  -3.5986695520250095e+02  -3.8209591406142255e+02  -4.0667555085423840e+02  -4.3439108332752096e+02  -4.6545251234153653e+02  -5.0039861218861984e+02  -5.3938500949179570e+02  -5.8437997849085377e+02  -6.3489567231170554e+02  -6.9298994284761682e+02  -7.5970187060118747e+02  -8.3758514171945274e+02  -9.2671409764436009e+02  -1.0303455336399302e+03  -1.1571756961371036e+03  -1.3052921140755725e+03  -1.4842054212056053e+03  -1.7046012832660351e+03  -1.9753361440723309e+03  -2.3180187036194056e+03  -2.7554745310011881e+03  -3.3420600996751086e+03  -4.1110511599553392e+03  -5.2079182392597422e+03  -6.7248321936057728e+03  -9.1044913139950768e+03  -1.3327351971631864e+04  -1.9372195221684731e+04  -4.1560301902773077e+04  -4.8590790089445873e+04  -4.4100125254273077e+05  1.4420772090393616e+01  -1.1465370755131885e+02  1.0309471068068413e+01  -1.6634674514785465e+02  -1.6258882087424109e+02  -9.1041802266551564e+00  5.3696746452561165e+01  -3.1985291765966650e+02  -1.7816855580540653e+02  -1.7402956825736666e+01  1.5041072678879735e+02  -6.2539085042918623e+02  -1.7210328154021357e+02  -2.8178636374000308e+02  3.3914490437164815e+01  3.9716559995125600e+01  -2.2949663912208220e+02  4.3626993710861035e+02  -1.1080856950935122e+02  8.9202488649210522e+01  -2.6451235581745006e+01  -6.9306505194196532e+01  -1.7719064941103511e+02  -1.8918082709337853e+02  -1.2340806527301647e+03  -5.4889839799161621e+02  -1.7676364626380615e+02  -1.8975861794075786e+02  2.0317224122663536e+01  -4.0714552410115323e+02  7.1876052479731186e+01  3.0675024304071499e+01  4.9434065205003542e+01  2.0412617739455416e+02  -6.5577682970953646e+01  4.7190938077805669e+01  -1.2453177087487471e+02  -1.2990823644266308e+02  1.4531964854657682e+01  -7.1362052726544405e+01  -1.4406730446849772e+02  4.4407742633952843e+01  -2.1218901417853829e+02  9.7767048344719660e+02  -1.4966572585064807e+02  1.5044412244148666e+02  -2.8797605351366610e+02  -1.9294927331990664e+02  5.9120126924559976e+01  -2.6150867767669361e+01  -3.0139947405930368e+01  2.7389101367344011e+02  -8.6495551383552731e+02  -1.8291799427731189e+02  -2.2943627843817467e+02  -3.0453216202636548e+02  -1.5993945192722438e+02  6.7576426784347575e+01  5.0920741797878691e+01  -7.5608829083477673e+01  1.8492846373302093e+01  -2.4931090402813397e+03  -1.8460751906621348e+02  4.2409869174623935e+02  -7.2219374004556187e+01  2.4981967956694234e+01  2.5812460043500241e+01  6.1820372548656891e+01  1.4175121482057378e+02  -2.0539254587664087e+02  1.9456238318991361e+03  -1.7865186472112703e+02  -3.5052016733755471e+02  -9.0953227879990635e+01  3.2511619700672988e+01  1.3573768704540619e+01  3.5446408089095911e+01  3.0805368370105896e+02  -1.3814561829578116e+02  -2.5505779342231429e+02  -1.2365825353066793e+03  -1.7999790840229829e+02  -5.3036858500990888e+02  1.5355775003397417e+01  -3.1693207950696683e+02  -5.0659053712348469e+02  -1.6598010962756163e+02  -4.3282675666268015e+03  -1.9300627602181086e+02  -1.9072951317368759e+02  -1.4915908801272812e+02  1.0695247477992446e+02  -6.6332339772568503e+02  -1.7655959944016524e+02  -3.2058800450847741e+01  4.9639581499571356e+01  -2.2088590270022632e+02  1.5655691206611792e+02  -1.1915544378527295e+02  -1.1993816028887407e+02  7.8431252652231069e+02  4.9548255279819436e+01  1.1792233174004036e+02  4.2309044220289216e+01  4.7883272287240224e+01  -6.9437845944902176e+02  -1.9967889457067724e+02  6.5239214831214284e+01  -2.0344634046230311e+02  -1.9022936772738124e+03  -1.8156475634731433e+02  -2.8808932670558789e+01  -1.0163345172329439e+02  1.7711232246125327e+01  1.4901561105778878e+01  -4.0845136011375303e+02  4.2696878846323953e+03  -1.9944366483367958e+02  -2.3123421301704860e+02  4.9754361695088647e+01  -2.3981153594462111e+02  4.9394621978648772e+01  -4.8419300005827591e+02  -1.7440992758490879e+02  -4.1209737080310003e+02  4.8922153872041299e+01  1.2499361980893602e+02  -4.5210938101513740e+01  -1.8991106130213049e+02  -1.6445131805802922e+02  4.7277975996474552e+01  2.5119703365625858e+02  -9.3003031129268166e+01  -1.0463473592800750e+02  -1.3663099016619566e+02  2.1735312819085712e+02  -1.2340889333549922e+02  -1.2591153244467162e+02  2.0028709296276897e+01  1.8268445176458247e+01  9.3692915236828213e+01  4.0093701670547325e+01  1.4182284441880267e+01  1.1343248124366161e+01  -1.7163075388874171e+02  5.8020166321790100e+02  -3.6613273607221231e+02  -1.6061733907512436e+02  5.3271152998936721e+01  -8.9780344368684405e+02  -1.7457434151974974e+02  -2.9666911221077195e+00  -3.3669283640316557e+01  1.2487379371007157e+02  -8.6287890651567537e+01  3.7070640177459964e+01  7.0867474423409336e+00  4.2711514394576490e+01  -8.1354716166410455e+01  -1.5324758623166215e+02  -1.8889797172304679e+02  -2.2860977799780312e+02  3.7306267024804882e+01  1.6108821618432155e+03  -1.6777827683748384e+02  -1.6085493818058967e+02  5.5359925943778677e+01  -3.1888902106047243e+02  -3.3983874476637880e+02  4.1999331388616552e+00  2.7089090949905319e+01  2.1737170637019281e+02  -3.9304029497257623e+01  -2.1084193635908287e+02  -2.0748641473282873e+02  -2.8153203232619842e+02  -4.3352135697227432e+01  3.2690881412917503e+02  5.4194473742604842e+01  1.9467425858334707e+02  1.1010680267811279e+03  -1.4618573985895864e+02  6.0194616062374689e+02  -1.5682320932372883e+02  1.1144489525080863e+02  -5.8585348441711211e+01  3.0958418157004104e+02  7.7734409137203812e+01  -4.7005982760983630e+02  -6.4287066458004495e+02  -1.8205619408769564e+02  8.8242330590516701e+01  5.6589172528913525e+02  -9.3249069304291510e+01  -1.0967727078265616e+03  -1.8297648229106051e+02  2.9079762370458937e+01  -6.4013459646661730e-01  -8.2975305286853848e+02  -5.4904316353160666e+03  -2.1357013093535414e+02  -1.2577334960388261e+02  -8.8132619962716419e+01  -7.1906712177632599e+01  -1.0340490955396568e+02  -2.1948892645957838e+00  1.3735781511805371e+01  2.3471725133027643e+01  -1.7263759124579457e+02  3.2489217780379249e+01  -1.3374037154630591e+02  5.6560659939606990e+02  -5.4230509908866416e+01  -1.4471185853295280e+01  2.3027790774388713e+01  -6.7256626555258435e+02  -1.7129941891422189e+02  -2.5875371352337856e+02  -1.7423196255441354e+02  2.8165961778949988e+01  -2.2307544601022892e+02  -4.0449565141684388e+02  -3.0692737206567813e+02  1.3653635483361293e+02  3.9332856317611009e+02  -8.9494882517488406e+01  3.8394834027854998e+01  1.4863486285936624e+01  1.1980424059203600e+01  -1.8739317388321874e+02  -2.1521596895122116e+03  -2.7016260581661692e+02  -2.7037894292371948e+03  -4.0324249827769072e+03  -1.8847983297691115e+02  -1.8430984147529392e+02  3.0351886262277375e+01  -2.7225821576459907e+02  -8.8797016575060115e+03  -2.0073851885077403e+02  8.7414164764402273e+01  -1.8633370390527782e+02  2.5275192142272243e+02  -3.6620795874734495e+02  4.9357418993471029e+01  -2.8696510242618609e+02  -1.9422454113475300e+02  3.5136169002418142e+03  -2.0081102172323608e+02  3.1083414645710405e+01  -1.8591285704000484e+02  -4.6319106521258203e+02  5.9691849687543225e+01  4.2161532045009501e+01  -1.8794156900635102e+02  7.8018760270477223e+03  -2.0904987616475290e+02  2.6370121761247187e+01  7.0387960445498905e+01  -6.1572561700487097e+02  -9.5380568593976420e+02  -1.7908760480795033e+02  -1.5446139229208666e+03  -1.8167171710475358e+02  -2.7415859580635180e+02  3.3740283479363384e+01  -4.2640557977805116e+02  -1.6630904992576396e+02  1.8798131160724326e+03  -1.8875805978384818e+02  5.6113723804031011e+01  -6.3247738424385410e+01  -4.9800741157028774e+01  -2.2202939573270865e+02  -1.9843330839081639e+02  -1.4077371408381948e+03  -1.7903429810564913e+02  -2.4704385504475016e+02  5.0949826984152708e+01  -1.6509958994809517e+02  1.2338795582627420e+03  6.6168952641261157e+01  -1.0926470947335273e+01  -1.3177332682077326e+02  5.5779345660956471e+02  -1.0304802879305443e+02  -1.2794371676556733e+02  5.8630263554640457e+01  -2.2077059296205249e+02  -1.5131840673655819e+02  1.8688779731929031e+01  2.0835899819201554e+01  1.4846860698315325e+02  5.1277006599979899e+01  -2.0107356192972222e+02  -1.6399885736293257e+02  1.7399104618473562e+01  1.1567013034765711e+02  -1.3468869936352823e+02  -3.7597886784449202e+02  3.8227026262786872e+01  -9.6454559797730084e+01  -7.8785961658647238e+01  3.0656773369120117e+02  -1.2231380018539777e+02  1.2817940696123154e+02  -6.6225018462988118e+01  2.3069514570638788e+01  1.0464126275396708e+02  2.1393621241933138e+02  -1.5116083485821017e+02  3.9482430388418898e+01  -1.1378849506349211e+00  -1.7667865518301055e+03  -1.9563569401850970e+02  1.2588204630445453e+02  -1.0562280781918950e+02  5.1185916931145201e+01  -2.1505198307326989e+01  4.1081816161784779e+01  -1.8084142420437462e+02  -1.3197650437036101e+01  2.2329755302263261e+03  -1.8301089181325432e+02  4.2983998415146453e+02  -6.6273270617525469e+01  4.9576089540607832e+01  -1.9610122752660359e+02  3.5965794435260136e+01  -3.7690931682125768e+02  5.5046782323649722e+01  2.2975546388220351e+01  5.0175951496346400e+01  -2.1552070856926323e+02  2.6541129626658751e+01  -7.2043947194554369e+02  2.9748736479733783e+01  -2.0873711726363126e+02  -1.4970148578483617e+02  1.5469555321231672e+02  -7.5168907972829018e+01  2.8496483592366366e+02  7.6351120039941932e+01  -5.0822998600204237e+01  2.0659760097564440e+01  -9.6092988807575736e+01  -8.2625836820732246e+01  2.9304899787467459e-01  -8.2067810360404565e+02  -1.7208687840809338e+02  -1.3878225666270253e+03  -1.7887903699826077e+02  -2.4861694330752368e+02  4.3562219830287518e+01  -2.3838681930059738e+02  4.8915462752320920e+01  -6.7209969706764668e+03  -1.9462526810087002e+02  -1.8921005623512826e+03  -1.8113813670746072e+02  -5.8567730661473411e+02  -2.6501177980625073e+02  -7.5385624774091218e+02  -1.7885918401812430e+02  -1.8764919862630686e+02  1.4705783856736071e+01  1.7054073685938874e+01  -1.8298941810724182e+02  4.6787784573504617e+01  7.6354861328463855e+01  -5.3891520752597353e+02  -1.7294324107327530e+01  7.4606537519235744e+01  4.0789098394355598e+01  1.3028160035455278e+02  9.3038981843414987e+01  -4.5608130378220000e+02  -6.2786632931833662e+02  -1.6880748419632314e+02  -1.2719769250275095e+00  -3.0298480011590544e+02  5.7875507231708816e+01  -3.0177668250431543e+02  -1.4355066905367323e+02  5.4848074566047762e+02  -1.4652147383860674e+02  1.9888948739246377e+01  4.5478944501948391e+01  -4.6907501891190947e+02  1.0224270138352090e+02  -1.7066767358323062e+02  3.4306415892989740e+01  8.6985609849092714e+02  -1.3463311455543226e+02  1.7688199937324374e+01  1.9044111460290459e+01  -3.3424191328915009e+02  3.4426629173304384e+01  4.6836984470234434e+01  1.8498445577977481e+01  9.5261429894510545e+00  -1.0081355992868801e+01  -2.5542204951650774e+02  4.5224360712275967e+01  6.6110289276192043e+02  -1.0838909414519318e+02  -2.2689024562379609e+02  -7.1643203847975553e+02  5.7645691311448246e+01  6.3262250693373502e+01  -2.6964982618408987e+02  -2.0418891952306524e+02  -1.7007072721753673e+02  -1.0035956522873357e+02  4.0435953491980463e+01  4.6731214203181679e+01  1.0162935534390040e+02  4.7395198200770267e+01  -1.4929643586350772e+02  -8.1084618467521267e+01  -1.1762734035553719e+02  -2.3421299363882116e+02  -1.6150298420735510e+02  -1.0796944011263921e+02  2.5136450196552892e+02  1.4536972760456461e+01  6.9636658879044674e+01  -1.5204976448550002e+02  1.7352560359154140e+02  -4.8051659429773537e+01  1.4938132166458836e+01  1.1823805935829006e+01  3.6757459927235686e+01  -9.9309566337827846e+02  5.2764453569709538e+01  2.0745073719818733e+03  -1.9970771008111430e+02  -1.9059554251277044e+02  -2.0532965752490331e+03  -1.8246946271616955e+02  -3.7004702076576871e+02  -2.1902265365324189e+02  3.4675169401783012e+02  -5.1592461728411642e+01  8.0126001765036264e+01  -1.2397454760009300e+03  -1.8258279984661326e+02  6.2350305404085088e+02  -1.1843322662145118e+02  -1.3030692667913431e+02  1.0824745905388484e+03  -3.1946544835277127e+03  -1.8821069560508650e+02  -1.6703049610429326e+02  -3.6482092593496636e+00  1.2248583455951147e+02  -2.9620671950038223e+02  -1.5878023153633180e+02  -1.7216926815357493e+01  -5.2493142654736765e+01  9.2024654533274352e+03  -2.1467907449387721e+02  -1.9322827702613999e+04  -2.0841856038818338e+02  -3.4096949364309040e+02  -2.3208975715728965e+02  1.3523110938849047e+02  -1.8027772317204974e+01  -4.4568135885465171e+02  -5.8105588141246619e+02  -1.7501904613733279e+02  1.7390831075116728e+02  -2.3235134696429108e+02  -1.9328028388511592e+02  -1.7466004796357598e+02  -1.9108752739528504e+02  -5.4365699650638521e+02  -3.9907268871679929e+02  5.1995582881189030e+01  7.4015472980910388e+01  -1.4735376294157689e+02  2.1349340635457338e+02  1.5842330012513207e+03  -1.5784561651133160e+02  1.7963653783270725e+01  -9.2077806871829200e+00  -1.3652866516708738e+02  -1.2735013778838916e+02  5.4538601846918503e+01  1.6626904823152501e+01  -3.1707669526764505e+02  2.2319477596350868e+02  3.2316622710450730e+01  4.5990509161841601e+03  -2.0264725098111197e+02  5.0721735461310907e+01  1.9275764357792798e+02  -8.0356459078701960e+01  3.5883472043037997e+01  4.4374618639324311e+01  9.3202369510363013e+01  -1.4302211897643176e+02  -1.9254436841792827e+02  -1.3302234705410146e+02  5.2609750735675973e+01  -1.7811643641436518e+02  1.3993426407901384e+03  3.2120135814064881e+01  -1.0008554861220846e+02  3.7334049491679679e+02  1.4990503705178780e+01  1.2392693768632560e+01  -2.2081251995656598e+02  3.8229071241972974e+01  2.7323204773142180e+01  -2.0524346944966234e+02  -2.0484491722513189e+02  1.4146452094270604e+01  4.7344177195311516e+01  5.2653493682430593e+01  2.1511074250535171e+02  -1.1418381656881628e+02  -3.2528284885654881e+02  1.5395637107857109e+01  1.2990882297260500e+01  -1.8441656797791353e+01  -1.1047742270442139e+02  -5.3479745553641408e+02  2.1217777219875636e+01  -9.5035425263904401e+01  -2.4765593070384290e+02  -1.3360396594897378e+02  1.5380821988232896e+02  -2.9097993723167658e+01  -3.5446379880878803e+03  -1.8677448220676837e+02  -4.1238166368904487e+01  -1.0984246381156959e+02  -1.4149205127780058e+02  -7.1008738179207555e+01  3.5038297656382809e+02  -1.8070676781416699e+02  -1.2046395383003794e+03  4.2391874070039103e+02  -1.6283053869164010e+02  -2.1447938213608001e+02  -1.6906834936886256e+02  -2.1887748402691207e+02  -3.2058745399129490e+04  -7.8535009062592439e+02  -1.7491855532086413e+02  -1.8609082602887480e+02  -1.2662354355162574e+02  -1.8469536602930089e+02  3.4141028417768055e+01  2.2505898632043380e+01  9.9443308975130211e+00  2.5268190828147034e+01  1.7030533405391239e+01  6.0503958505717485e+01  1.3496711063125810e+01  -8.8751586706810272e+01  2.3034967402205790e+01  3.1197290438690452e+01  5.1905069452346822e+01  4.4708180980073378e+00  1.7807862903213650e+03  -1.9268643084518908e+02  2.2649169712551334e+01  -4.8523909031861382e+02  -1.6550620808985130e+02  -7.2256343440756424e+01  -1.2977600660769281e+02  -1.1606351199693818e+03  -1.7775681848051138e+02  5.4613034083169303e+01  -1.1866802545411009e+02  -3.7570074402261537e+02  -5.2829366297280906e+01  2.3150172999859541e+02  4.0939466474074472e+01  -4.0377765075423852e+01  -2.7787428071791766e+02  -4.6547629036194339e+03  -1.9769486064777914e+02  -2.4782820845885769e+02  -3.7393362175303781e+02  4.1260088537864796e+01  -1.9326947452327778e+02  1.0461981221587342e+02  -6.5339123891853023e+02  -3.6756102031351782e+02  7.3549162128856779e+01  3.0329315727607185e+01  -3.5382661227294783e+01  2.5093069831244497e+02  1.2992373031389466e+03  -1.5270689494870766e+02  -1.0800001371246931e+03  -1.8043966913364164e+02  -2.9879437317517687e+02  -2.1605540187537005e+02  1.4723867954281102e+01  3.0716683365874982e+01  5.0248361713873592e+01  -1.9655432766540801e+02  -1.5274576072845360e+02  -1.8361543020876115e+02  -1.9545420058385866e+02  -7.5675325171380345e+00  5.8793447698025943e+01  -4.2282585802600352e+02  -1.5547686588841450e+03  -1.8077513726560579e+02  3.5611645029503575e+02  4.1160391619372724e+01  -4.9736823332166253e+01  4.4816867214950753e+02  8.7575251187627643e+01  -7.8738525169543846e+02  -1.9079983917945717e+02  -2.1931113038544818e+03  3.4808992982402216e+01  -3.0982062492930754e+02  -3.0200355408167635e+01  -1.1179447027883347e+01  -6.4816588404569768e+02  -1.8376650779119356e+02  -4.1588571989720856e+02  -3.4022973068408044e+02  7.8033969503618849e+01  4.9398547539157306e+01  -1.9573061883823618e+02  -1.7