<?xml version="1.0"?>
<VTKFile type="UnstructuredGrid"  version="0.1"  >
<UnstructuredGrid>
<Piece  NumberOfPoints="1855" NumberOfCells="3532">
<Points>
<DataArray  type="Float64"  NumberOfComponents="3"  format="ascii">0 0 0  30 0 0  30 -10 0  0 -10 0  0.1391574078963744 0 0  0.2856388821882616 0 0  0.4398299073010886 0 0  0.6021362569539473 0 0  0.7729850389704483 0 0  0.9528258543586996 0 0  1.142131984380316 0 0  1.34140159760994 0 0  1.551159074717981 0 0  1.771956417032531 0 0  2.004374674080994 0 0  2.249025475789527 0 0  2.506552636773105 0 0  2.777633857742732 0 0  3.062982518028728 0 0  3.363349525995907 0 0  3.679525322337712 0 0  4.01234195575742 0 0  4.362675247811097 0 0  4.731447135329707 0 0  5.119628065610077 0 0  5.528239565804708 0 0  5.958356943167011 0 0  6.411112081475485 0 0  6.887696441559404 0 0  7.389364184530748 0 0  7.917435485335147 0 0  8.473300005202017 0 0  9.058420557070402 0 0  9.674336929103793 0 0  10.32266995225095 0 0  11.00512576896296 0 0  11.72350030646412 0 0  12.47968402994705 0 0  13.27566689579597 0 0  14.1135435963616 0 0  14.9955190732806 0 0  15.92391430904694 0 0  16.90117245730496 0 0  17.92986524844506 0 0  19.01269976086341 0 0  20.15252556282024 0 0  21.35234220269763 0 0  22.61530708683689 0 0  23.94474379751883 0 0  25.34415086349739 0 0  26.81721093579712 0 0  28.3678004819169 0 0  30 -1.111111111111111 0  30 -2.222222222222222 0  30 -3.333333333333333 0  30 -4.444444444444445 0  30 -5.555555555555555 0  30 -6.666666666666666 0  30 -7.777777777777777 0  30 -8.888888888888889 0  28.36780047917311 -10 0  26.8172109305839 -10 0  25.34415085606858 -10 0  23.94474378810899 -10 0  22.61530707566275 -10 0  21.3523421899591 -10 0  20.15252554870171 -10 0  19.01269974553473 -10 0  17.92986523206254 -10 0  16.90117244001232 -10 0  15.92391429097614 -10 0  14.99551905455266 -10 0  14.11354357708742 -10 0  13.27566687607703 -10 0  12.47968400987599 -10 0  11.72350028612546 -10 0  11.00512574843363 -10 0  10.32266993160086 -10 0  9.674336908396342 -10 0  9.058420536362949 -10 0  8.473299984546333 -10 0  7.917435464777824 -10 0  7.389364164113587 -10 0  6.887696420787165 -10 0  6.411112061446698 -10 0  5.95835692337857 -10 0  5.528239546282652 -10 0  5.119628046377237 -10 0  4.731447115907979 -10 0  4.362675229213632 -10 0  4.012341937260036 -10 0  3.679525304434552 -10 0  3.363349508456405 -10 0  3.062982500861274 -10 0  2.777633840953978 -10 0  2.506552620368097 -10 0  2.249025459771861 -10 0  2.004374658452946 -10 0  1.771956401795187 -10 0  1.551159059871345 -10 0  1.341401583153029 -10 0  1.142131970307521 -10 0  0.9528258406748833 -10 0  0.7729850256685147 -10 0  0.6021362439621285 -10 0  0.4398298947504031 -10 0  0.2856388700059078 -10 0  0.1391573960769001 -10 0  0 -9.855072463768115 0  0 -9.710144927536232 0  0 -9.565217391304348 0  0 -9.420289855072463 0  0 -9.27536231884058 0  0 -9.130434782608695 0  0 -8.985507246376812 0  0 -8.840579710144928 0  0 -8.695652173913043 0  0 -8.55072463768116 0  0 -8.405797101449275 0  0 -8.260869565217391 0  0 -8.115942028985508 0  0 -7.971014492753623 0  0 -7.826086956521739 0  0 -7.681159420289855 0  0 -7.536231884057971 0  0 -7.391304347826087 0  0 -7.246376811594203 0  0 -7.101449275362318 0  0 -6.956521739130435 0  0 -6.811594202898551 0  0 -6.666666666666667 0  0 -6.521739130434783 0  0 -6.376811594202898 0  0 -6.231884057971015 0  0 -6.086956521739131 0  0 -5.942028985507246 0  0 -5.797101449275362 0  0 -5.652173913043478 0  0 -5.507246376811594 0  0 -5.36231884057971 0  0 -5.217391304347826 0  0 -5.072463768115941 0  0 -4.927536231884058 0  0 -4.782608695652174 0  0 -4.637681159420289 0  0 -4.492753623188406 0  0 -4.347826086956522 0  0 -4.202898550724638 0  0 -4.057971014492754 0  0 -3.913043478260869 0  0 -3.768115942028985 0  0 -3.623188405797101 0  0 -3.478260869565217 0  0 -3.333333333333334 0  0 -3.188405797101449 0  0 -3.043478260869565 0  0 -2.898550724637681 0  0 -2.753623188405797 0  0 -2.608695652173912 0  0 -2.463768115942029 0  0 -2.318840579710145 0  0 -2.173913043478261 0  0 -2.028985507246377 0  0 -1.884057971014492 0  0 -1.739130434782609 0  0 -1.594202898550725 0  0 -1.44927536231884 0  0 -1.304347826086957 0  0 -1.159420289855072 0  0 -1.014492753623188 0  0 -0.8695652173913047 0  0 -0.72463768115942 0  0 -0.579710144927537 0  0 -0.4347826086956523 0  0 -0.2898550724637676 0  0 -0.1449275362318829 0  5.15859856094262 -4.976557621770688 0  2.816777084926057 -7.160262673925935 0  2.81677708460006 -2.839737326002783 0  2.227649803257325 -5.003121586636773 0  1.518662968975629 -8.46230852045241 0  1.518662969184829 -1.537691480152612 0  9.960740911025725 -5.055901393541221 0  1.491099662214591 -3.691833922963321 0  1.503675657181264 -6.345020369042368 0  5.319208041801049 -7.493850249937013 0  5.291109955459268 -2.489368743223226 0  1.096914507335763 -2.53623188405797 0  1.096914507253562 -7.463768115942029 0  1.089580194952752 -4.71277167923441 0  15.07565076110197 -5.047572991082069 0  7.501630508673601 -5.937500100385354 0  0.8894869418764504 -5.623930488933245 0  2.955144522453978 -1.440834296472408 0  2.955144521140721 -8.559165705576945 0  8.106603955004623 -2.748811534843258 0  3.662152539483591 -4.228178367024407 0  3.662181528265114 -5.771746159989156 0  0.8436558190317136 -0.8541050638451999 0  0.8436558075840921 -9.145894948342754 0  0.7854168197005933 -1.811594202898552 0  0.7894693398152999 -3.286543351392342 0  0.7854168196772591 -8.188405797101449 0  0.7854168196772591 -6.739130434782609 0  20.00078956016804 -4.999999999785771 0  0.7379120031523989 -3.977302749614766 0  6.584332478112232 -3.934875417052907 0  7.295091310194352 -7.969791332537982 0  9.811174303464586 -7.412814499648229 0  4.013376806449688 -2.206189431585293 0  4.013376806983409 -7.793810569017377 0  12.11177433894592 -2.818343737884045 0  2.591152707837148 -3.990098461753838 0  2.58990939378082 -6.025895074707176 0  25.43156400064585 -5.044446479916348 0  2.03262751726143 -2.282125834846944 0  2.032627517335952 -7.717874165160392 0  12.51865094522923 -6.491408052923457 0  0.598175343983641 -6.156971652625402 0  2.126700074935224 -0.8767654465386991 0  2.126700059112423 -9.123234559633019 0  6.617961838548696 -1.617756429129908 0  0.5903949564549755 -4.980060355019413 0  1.676697585305984 -5.547101897225158 0  4.773518305133987 -3.729331162566817 0  4.77931803486508 -6.231222307502165 0  4.878549698409591 -8.72048903376362 0  4.852580875634024 -1.222215410052823 0  0.5487847095754042 -2.675169258708207 0  0.545113423825768 -7.32369553390529 0  1.78738026998851 -4.400451872599477 0  1.68244194111824 -3.010100184333533 0  1.683984276238402 -7.018293626028473 0  9.998503440677371 -2.00585287985007 0  3.693061162502273 -3.243678395563028 0  3.694987482168253 -6.757603268814477 0  6.081763036485869 -5.83414381546261 0  0.5196640460586313 -1.350633211792632 0  0.5196640458460706 -8.649366789040087 0  3.84593363904758 -0.9906418103762418 0  3.845933620847308 -9.009358200471317 0  17.41551885287501 -3.057748733689079 0  17.30725517812527 -7.002961443761516 0  8.117698464370697 -4.451550942597151 0  0.4918476668493152 -0.4789811193757592 0  0.4918476560347713 -9.521018882514893 0  1.463770869328428 -0.6252343353791154 0  1.463770854281917 -9.374765668872765 0  0.5034132782032188 -4.464280853772128 0  3.138906271796685 -4.99999841599503 0  14.61209972381335 -2.388610981020637 0  6.208601124947327 -8.776231214192325 0  14.74910972998159 -7.542186851303819 0  2.243794246335625 -1.632184311040998 0  2.243794245689214 -8.367815689183566 0  0.4590235278399923 -5.431413993025926 0  0.4971508861448406 -2.209632053221267 0  0.4971508861368665 -7.790367946777407 0  0.4644363683211541 -3.560571347760519 0  6.478811279411406 -7.007392971062433 0  1.238895267772762 -4.173677632458826 0  1.293241773632479 -2.02256720952064 0  1.293241773542714 -7.977432790434841 0  0.4324740478030531 -0.942028985507247 0  0.4324740423701829 -9.057971014492754 0  2.117396640811705 -3.472968170680347 0  2.107095929630507 -6.531506384346077 0  8.087741545730886 -1.392783601483453 0  1.028911946384717 -1.352376108341404 0  1.028911946221715 -8.647623891551962 0  4.05691976296832 -4.991522392209158 0  11.51826881314265 -8.065248940008736 0  1.618560396201739 -4.958056164503666 0  2.701984523487646 -2.141781914603403 0  2.70198452396172 -7.858218085853512 0  2.843615645746219 -9.289121726447632 0  2.843615661334342 -0.7108782798429658 0  8.678774612240533 -8.488146490452822 0  6.487906449371135 -2.667543558824978 0  8.369190916679937 -7.129867754908394 0  11.80978191929258 -4.655775487536958 0  0.3792065166453504 -3.113833531412848 0  0.4134714637263563 -6.58827691137208 0  9.551050695080825 -3.49648183875815 0  1.083867845277057 -6.036251777836495 0  0.3756430921870901 -1.80381664325008 0  0.3756430921689482 -8.196183356748573 0  3.113073783220456 -3.503408140759125 0  3.113391383189963 -6.496678880796299 0  22.62850736315072 -3.277987336300344 0  22.59385352108348 -6.800312122582239 0  0.3777114402537816 -4.137047872695438 0  0.9196816123347897 -0.4281025456111269 0  0.9196815944880363 -9.571897460530383 0  0.4052043328723194 -5.827814332459883 0  8.865857694874787 -5.767686953139113 0  1.200388325130726 -5.182186034620629 0  5.65297436943758 -4.325500846767599 0  1.200079167961391 -3.009849046583253 0  1.20883344838 -7.021823297793294 0  1.057642414577487 -3.660996704809145 0  10.88812987788297 -6.333458225047037 0  4.493502926606794 -2.839780197438185 0  4.485862892033458 -7.147606077919463 0  0.3631651408878085 -7.003529808558233 0  1.946748828463205 -6.049056369468467 0  6.918750162798794 -4.993796052442676 0  3.351203216022585 -1.980935554775394 0  3.351203216441711 -8.019064445907297 0  2.281892243515294 -2.856654416292082 0  2.281892243715877 -7.143345583598931 0  5.811143619672087 -0.9953286820321026 0  2.695713766833098 -4.565354125099452 0  2.698172168139827 -5.435483248292925 0  19.86166219288896 -2.493475492328429 0  19.83739102036415 -7.594404063416508
[...]
<PointData  Scalars="pressure"> 
<DataArray  type="Float64"  Name="pressure"  format="ascii">-3.8960849839895309e-12  -1.5569466457919876e-16  1.3748560029461088e-01  -4.4631453652704050e+00  1.5839299435509375e-12  2.0791612682531452e-13  -1.9530303872786033e-13  1.3528341518450003e-13  3.4842586351222687e-14  4.2036839095358413e-14  1.5311836857324844e-14  2.4217752423021672e-14  7.1388809788112761e-15  1.4874631793005152e-15  2.5119708779840939e-15  1.6412160623197861e-14  1.4147618924196093e-15  8.5669383841305773e-15  3.0120662982847493e-15  -6.1246102004115193e-16  6.9323793949420790e-16  3.4530990972248570e-15  1.0537335039864818e-15  -7.3660639193231795e-16  -1.0760053449696754e-15  -1.0022216711334241e-15  -7.8939988616091235e-16  3.4902061801302266e-16  6.5366158558602876e-16  -4.8844094301576784e-16  2.2117009365388591e-16  -1.0175971953367555e-16  3.8809908443337532e-16  2.5648396517292517e-16  2.5166670136541864e-16  -4.3669855256752356e-17  -8.6254688786880741e-17  1.5825248257950293e-16  5.0357108624008045e-17  1.3096320358526124e-16  8.1806803046530182e-17  -1.5221510225604977e-17  1.2469481718591610e-17  9.0392192222609685e-17  6.2741662871823098e-17  -5.5433686630710877e-17  3.6508240000894122e-17  3.1167256672271872e-17  4.8882976723416432e-17  -1.1529459309088397e-16  -5.7939600301097394e-17  1.0240533276290046e-16  3.4326832782924560e-01  3.2074034058272261e-01  2.8893233928325551e-01  2.7292232724308207e-01  2.4957115239700278e-01  2.2495560027386985e-01  1.9771653181883428e-01  1.6859068349044817e-01  1.3885732305926368e-01  1.4279071752405770e-01  1.4957354968732148e-01  1.6091892482606154e-01  1.8036605652557472e-01  2.0717091148143726e-01  2.4550387470739055e-01  2.9525398974477879e-01  3.5874720758074652e-01  4.3644682687288666e-01  5.2708892957846232e-01  6.3024178916091922e-01  7.4095320956644128e-01  8.6090159703441482e-01  9.7732468218342272e-01  1.0897080688942631e+00  1.1892868768937204e+00  1.2676187583787621e+00  1.3269533124125092e+00  1.3420998984007393e+00  1.3216574587504974e+00  1.2560061845159871e+00  1.1449119109840811e+00  9.8608367520992213e-01  7.8282402548252994e-01  5.3098320101857921e-01  2.4463252958139042e-01  -7.6507377009107175e-02  -4.1582331156756158e-01  -7.8032243731261985e-01  -1.1443194299274926e+00  -1.5107727727470617e+00  -1.8706877076309598e+00  -2.2120336005322114e+00  -2.5409087335595162e+00  -2.8432462307813626e+00  -3.1210949137607891e+00  -3.3698661823638503e+00  -3.5870340182338678e+00  -3.7812237526993968e+00  -3.9450564955946250e+00  -4.0838171198760671e+00  -4.1954789189005641e+00  -4.2858916966762957e+00  -4.3553179062645269e+00  -4.4051509032436611e+00  -4.4386753530435845e+00  -4.4579032025424485e+00  -4.3317778176751824e+00  -4.2132312203301385e+00  -4.1053610023179345e+00  -4.0094438228749025e+00  -3.9225733708165142e+00  -3.8462089104156174e+00  -3.7789622040169468e+00  -3.7211975445728167e+00  -3.6724822759643172e+00  -3.6323661585766853e+00  -3.6004029127938200e+00  -3.5772473929924171e+00  -3.5623852303448116e+00  -3.5558627946203925e+00  -3.5576665237588774e+00  -3.5678890131593652e+00  -3.5871330547112072e+00  -3.6143582525626012e+00  -3.6513768048604955e+00  -3.6971300365045594e+00  -3.7527583992327971e+00  -3.8181830233251044e+00  -3.8948448426369917e+00  -3.9811284136450316e+00  -4.0810506323700952e+00  -4.1937503115124679e+00  -4.3193873273252299e+00  -4.4584725714843483e+00  -4.6144269524911179e+00  -4.7878044291017652e+00  -4.9800696635253781e+00  -5.1927908693880145e+00  -5.4284110251284448e+00  -5.6887923910453848e+00  -5.9746247162942661e+00  -6.2985444581513477e+00  -6.6479063325208925e+00  -7.0479202683020361e+00  -7.4873501357735694e+00  -7.9735864194265078e+00  -8.5223998964732992e+00  -9.1379754793245951e+00  -9.8313643424654913e+00  -1.0605345602733763e+01  -1.1500144060468736e+01  -1.2505588588543525e+01  -1.3663664885083369e+01  -1.4994989534574763e+01  -1.6553076212015462e+01  -1.8337027731095638e+01  -2.0415186522781450e+01  -2.2966363143492874e+01  -2.5950338801666799e+01  -2.9563606241910879e+01  -3.4028684250111255e+01  -3.9527775144142211e+01  -4.6512427254921967e+01  -5.5468623458680717e+01  -6.7526180198233547e+01  -8.3402979973188451e+01  -1.0627418785704536e+02  -1.3761525522538139e+02  -1.8965084001398770e+02  -2.7243536580119485e+02  -4.0588425126513459e+02  -1.0924493299606863e+03  5.6387633394972954e+02  -2.0594601656837927e+04  3.0136826959479796e-01  -2.2260963180453182e+00  3.2053108863783425e-01  -3.2254862924195815e+00  -3.1700395628586095e+00  5.1676394934543279e-01  1.0442110181544133e+00  -6.2265996704544717e+00  -3.4695606824359144e+00  -3.2682769328050681e-01  2.9510366339587519e+00  -1.2215473504148676e+01  -3.3543043867294080e+00  -5.5011197654565285e+00  6.5503746401492657e-01  7.8088108657129707e-01  -4.4770265699396221e+00  8.7196080747403180e+00  -2.1539345156763914e+00  1.7309007121997071e+00  -4.7458512494982685e-01  -1.3316950666305467e+00  -1.9898659062801494e-01  -3.6943054561042978e+00  -2.4260229810054700e+01  -1.0774821864813612e+01  -3.4478358479589355e+00  -3.6992024826138952e+00  3.9103969177488968e-01  -7.9759933191865491e+00  1.4095347144881523e+00  6.0713484265742623e-01  9.6544247417967388e-01  4.0503043807466446e+00  -1.2672823400123270e+00  9.1003343664796743e-01  -2.3815163046750198e+00  -2.5196116884019499e+00  2.7946138061018400e-01  -1.1575771706127456e+00  -2.8045437181785631e+00  8.6196220524259204e-01  -4.1386987498172720e+00  1.9726916864977863e+01  -2.9173433394918944e+00  2.9177125668299424e+00  -5.6278847885993049e+00  -3.7553979299233871e+00  1.1851329986758719e+00  -4.9389526948353069e-01  -5.7503766432768033e-01  5.3352226787197692e+00  -1.7073247962751527e+01  -3.5664453789727144e+00  -4.4586926266889879e+00  -5.8737814856934891e+00  -3.1139637017274686e+00  1.3034485867325378e+00  1.0596637990727729e+00  -1.4605062387124312e+00  3.7309004242537919e-01  -4.9636851555930065e+01  -3.6032010447482623e+00  8.2965886027825384e+00  -1.3978438538734665e+00  4.8039210218601403e-01  4.9824612881133629e-01  1.2060056760092959e+00  2.3993567622582781e+01  -4.0141120693951127e+00  4.0192076402206574e+01  -3.4875658586517906e+00  -6.8613950694243728e+00  -1.7461739746887748e+00  6.2502157415773196e-01  2.7712241789188985e-01  6.8646555460995351e-01  6.4248226399697108e+00  -2.6898987777258472e+00  -4.9807070012200576e+00  -2.4510361061390647e+01  -3.5103313696115341e+00  -1.0421360766566643e+01  3.0994116283533119e-01  -6.1864156712523197e+00  -9.6763278513030073e+00  -3.2354411766286235e+00  -8.6593983839451994e+01  -3.7693741873391842e+00  -3.6596714702864199e+00  -2.9002775788491801e+00  2.0650088873226133e+00  -1.2154942958102755e+01  -3.4449952336413099e+00  -5.9817756403091482e-01  9.6644201393834528e-01  -4.2999504121475756e+00  3.2611603782968568e+00  -2.3163179335822299e+00  -2.3335559486090158e+00  1.5431004157997421e+01  9.7178589229270018e-01  2.2997739690955004e+00  8.3002077775335070e-01  9.2764673009948417e-01  -1.3684897554543625e+01  -3.8939448489601483e+00  1.2648120687087647e+00  -3.9657116928886422e+00  -3.7968866019512440e+01  -3.5422034692558335e+00  -4.9206688490564815e-01  -1.9683097443415492e+00  3.4056198596825771e-01  2.8659398188245255e-01  -8.0071256274214342e+00  9.2708324487207037e+01  -3.8970572167865347e+00  -4.5127035176636028e+00  9.7165880137105654e-01  -4.6767667869512115e+00  9.8090306639294655e-01  -9.4540922042921238e+00  -3.3982894153130689e+00  -8.0613912452951322e+00  9.5189632078104836e-01  2.4821314132985663e+00  -8.6827815369491568e-01  -3.7030478920087320e+00  -3.1981329521361399e+00  9.2988958009533451e-01  5.0317520693691966e+00  -1.8042547546731496e+00  -1.9151945618327351e+00  -2.6568511468280542e+00  4.2093823049113466e+00  -2.3745436001949392e+00  -2.4362074679130608e+00  3.8488281130620311e-01  3.5181437650992398e-01  1.8438482834741006e+00  7.7435240489481472e-01  2.7282882033133143e-01  2.1805259372415148e-01  -3.3487170061809759e+00  1.2908382257726531e+01  -6.9977523354056297e+00  -3.1291157041452085e+00  1.0236843509133924e+00  -1.7620822082626862e+01  -3.4037902327765317e+00  -4.4961582853771380e-02  -6.3650631511761957e-01  2.5338639671961305e+00  -1.6714723353524457e+00  7.1165372140866767e-01  1.7044790800175816e-01  8.2920340309718721e-01  -1.2170805024276656e+00  -2.9856591902898004e+00  -3.6811435545179654e+00  -4.4286683135655567e+00  7.3818353181548402e-01  3.2206319993751343e+01  -3.2738582784080688e+00  -3.1235674174839563e+00  1.0817196430640235e+00  -6.2380994323683163e+00  -6.6461084063099287e+00  9.3506430102136051e-02  5.2226527688766522e-01  4.2655460409338586e+00  -7.5420677764234612e-01  -4.1127620346276190e+00  -4.0433743164830238e+00  -5.5021002762839206e+00  -8.3251807419231594e-01  6.3446322704644578e+00  1.0487525313161923e+00  3.7933992816273401e+00  2.1692238825811259e+01  -2.8492417386771338e+00  1.2629062819354091e+01  -3.0574704871794376e+00  2.1638001873113466e+00  -1.1311088420279298e+00  6.0736511713629850e+00  1.4970604984222573e+00  -9.2279813426603958e+00  -1.2625916456660145e+01  -3.5487635813245171e+00  1.7197773552591771e+00  1.1046524647159300e+01  -1.8097815861025679e+00  -2.1736967286592360e+01  -3.5681854091780303e+00  5.8219752675146874e-01  3.9598977253418929e-03  -1.6390423716679535e+01  3.2707354987061592e+01  -4.1754444567582016e+00  -2.4420875992094540e+00  -1.6364091966783696e+00  -1.3557082275911330e+00  -1.9992411028972881e+00  -2.8826024689863314e-02  2.6417253870792173e-01  4.5053601775131746e-01  -3.3364437754717855e+00  6.4110736123910628e-01  -2.6040472174780196e+00  1.1447992532724355e+01  -1.0402642193351186e+00  -2.6977522783942237e-01  4.9293573374062383e-01  -1.2796420937412526e+01  -3.3407503915412811e+00  -5.0523259203614419e+00  -3.3935794275417632e+00  5.4441339267476030e-01  -4.3518238757762910e+00  -7.8933581797219583e+00  -5.9998002031672124e+00  2.6353439076977496e+00  7.7808737868691420e+00  -1.7362080345189048e+00  7.4350484512805248e-01  2.8587236391422777e-01  2.3027672664458790e-01  -3.6586112732421268e+00  -4.1808104335103629e+01  -5.2751891015262142e+00  -5.4328809976305024e+01  -8.1648184589365485e+01  -3.6796261481571197e+00  -3.5968642514250191e+00  5.8459117380201642e-01  -5.3083052968255950e+00  -1.8022508366846151e+02  -3.9220796593898393e+00  1.6898245783444665e+00  -3.6334068664646177e+00  4.8923081159160908e+00  -7.1724800535687283e+00  9.6264309095489731e-01  -5.5581222735208629e+00  -3.7944067229167686e+00  7.2478267992238443e+01  -3.9157305718327744e+00  6.0068103596983347e-01  -3.6196483001848350e+00  -9.0828775609851338e+00  1.1612196359258804e+00  8.1642545306421788e-01  -3.6534403279901628e+00  1.7450241163140402e+02  -4.0864371243277464e+00  5.2368160339132064e-01  1.3680085527601420e+00  -1.2121872590864395e+01  -1.8823454412104269e+01  -3.4918444149474150e+00  -3.0768356749084472e+01  -3.5435499286977081e+00  -5.3346035085695158e+00  6.8286982279802755e-01  -8.2661637218397974e+00  -3.2398683406027229e+00  4.1318587566304828e+01  -3.6863426078925587e+00  1.0826896181605923e+00  -1.2086606187884661e+00  -9.3904903419104424e-01  -4.3322301473224618e+00  -3.8536947887869131e+00  -2.7531649172341542e+01  -3.4931992012820405e+00  -4.8236250086104997e+00  1.0017919881314206e+00  -3.2207608159695060e+00  2.5339776026933421e+01  1.2942329240092585e+00  -3.2421458218487881e-02  -2.5627795778376585e+00  1.1002623407432781e+01  -2.0020774786578057e+00  -2.4709955111113193e+00  1.1268338027630129e+00  -4.1717622310696756e+00  -2.9457415179737505e+00  3.5877841732974386e-01  4.0173179478834536e-01  2.8968163338348210e+00  1.0027905030065680e+00  -3.9201878183720247e+00  -3.1919189675731765e+00  3.3467261907450357e-01  2.5433825066960236e+00  -2.6212015122122461e+00  -7.3531833048280379e+00  8.3686633088895734e-01  -1.8690475028762672e+00  -1.5203768064732430e+00  6.2536788944071562e+00  -2.3790959897492376e+00  2.5676873499817177e+00  -1.2788732548250048e+00  4.4457202959257786e-01  2.0678897140468133e+00  4.7383631170421223e+00  -2.9454843811914064e+00  7.6050023578877268e-01  3.3562991310384149e-02  -3.1099243867498711e+01  -3.8215202317066521e+00  2.5996303489492059e+00  -2.0504812876020932e+00  1.0099901858933966e+00  -4.0571187608026432e-01  8.0756397083839515e-01  -3.5298726224940800e+00  1.7293774420570498e+00  4.4938633981371453e+01  -3.5736752099103133e+00  8.3486564644830974e+00  -1.2808319232548757e+00  9.6602950264073462e-01  -3.8241280568928571e+00  6.9684989464131741e-01  -7.3813491898250323e+00  1.0730740609297491e+00  4.4215845450490060e-01  9.7447019498541088e-01  -4.1978001801410691e+00  5.0889162485863881e-01  -1.4192395903078237e+01  5.9306513734150568e-01  -3.9913846231174155e+00  -2.9123633205438146e+00  2.9875963224123701e+00  -1.4553925420013931e+00  5.6398048149519937e+00  1.5369998265543325e+00  -9.7642547520903777e-01  4.1367744665633133e-01  -1.8519682389234704e+00  -1.5762614706179865e+00  1.7581131820134367e-02  -1.5954727819720881e+01  -3.3555714428841021e+00  -2.7496046019702238e+01  -3.4889951768201155e+00  -4.8474421179230873e+00  8.5381606795764964e-01  -4.6527431548570881e+00  9.5132764732086394e-01  -1.3774053169328477e+02  -3.8012257822332716e+00  -3.7591365241922233e+01  -3.5342988517625340e+00  -1.1516736598319392e+01  -5.1770474988327448e+00  -1.4825455430695079e+01  -3.4867222694356093e+00  -3.6584052712944359e+00  2.8286695181906168e-01  3.2774040888574546e-01  -3.5660523101819579e+00  9.1641728271589851e-01  1.4795216594786336e+00  -1.0595190004282301e+01  -3.2279496040869204e-01  1.4531594311576799e+00  7.9112814259769226e-01  2.5203427022818974e+00  1.8228204167824231e+00  -8.9476367429097650e+00  -1.2171305796497803e+01  -3.2905294449369973e+00  1.4324427577166766e-03  -5.9249636478621666e+00  1.1332879825696309e+00  -5.8921177433607879e+00  -2.7966108866142450e+00  1.1262110814462002e+01  -2.8467450331601643e+00  3.9784823009034143e-01  8.8376069738854779e-01  -9.1829738899923328e+00  1.9699244604210666e+00  -3.2803071722232282e+00  6.6142654579088211e-01  1.7290505368547283e+01  -2.6220859731755728e+00  3.4041048881325947e-01  3.6621425984889799e-01  -6.5214832700564909e+00  6.8053271778934732e-01  9.1587233370929111e-01  3.5600623030995393e-01  1.8307647534727406e-01  -1.7740601012377880e-01  -4.9467953758102725e+00  8.7410812150305228e-01  1.2902349507010207e+01  -2.1067484899507729e+00  -4.4242007149461244e+00  -1.4129144947524706e+01  1.1182703926194633e+00  1.2231520224527956e+00  -5.2675208482810669e+00  -3.9824590348125692e+00  -3.3174343760079865e+00  -1.0088973154746983e+00  7.9704632361096983e-01  9.0722023269296348e-01  1.9680276099838874e+00  9.2168652248950733e-01  -2.8992804718949889e+00  -1.5170585868617106e+00  -2.2808313981066419e+00  -4.1459723936258142e+00  -3.1480533711755987e+00  -2.0974963501615775e+00  5.0883202216485692e+00  2.9498698668650597e-01  1.3801580809483502e+00  -2.9389422936838603e+00  3.4294542238991266e+00  -9.2459038657397263e-01  2.8721983196032813e-01  2.2722683868050753e-01  7.0466468411845740e-01  -1.9664572227133775e+01  1.0331071161997876e+00  5.1277401202723340e+01  -3.9020688554791154e+00  -3.7165622763413810e+00  -4.1089015058391702e+01  -3.5599685324056032e+00  -7.1847598011821612e+00  -4.2712590901792602e+00  6.7698551731377483e+00  -9.9417334269060431e-01  1.5422943631052128e+00  -2.4620875625567589e+01  -3.5607904579895773e+00  1.2388343369188499e+01  -2.3038599040457313e+00  -2.5371630656739610e+00  2.1095855468309129e+01  -6.3785990096734764e+01  -3.6745364376427125e+00  -3.2499191837769854e+00  -5.7065381842469627e-02  2.3999229281292211e+00  -5.5361457152240989e+00  -3.0937347358074176e+00  -3.0028740432139223e-01  -1.0018007721062354e+00  2.2507072960081024e+02  -4.1974247988987416e+00  -3.9265133512111402e+02  -4.0737236366766982e+00  -6.6743480592163849e+00  -4.5162631450212327e+00  2.6299663254139407e+00  -3.2901385135030370e-01  -8.7455020647715820e+00  -1.1366876564142483e+01  -3.4108082277064540e+00  3.3763018947850179e+00  -4.5349480972864464e+00  -3.7686674310969099e+00  -3.3963004945358959e+00  -3.7221553296781731e+00  -1.0653268280130874e+01  -7.8227663812127020e+00  1.0142676908282455e+00  1.4573891130756329e+00  -2.8557749683761604e+00  4.1252413718656351e+00  3.0989403023328574e+01  -3.0785291011760378e+00  3.6464340313917215e-01  -1.6645838390438936e-01  -2.6537045703794324e+00  -2.3919096935674000e+00  1.0637369129094572e+00  3.1975631520737652e-01  -6.2013843897802312e+00  4.3362681596655728e+00  6.5024010280425226e-01  9.5337171166915837e+01  -3.9603825627141704e+00  9.8707292208449893e-01  3.8558852121290155e+00  -1.5561940753783441e+00  7.1102435877156545e-01  8.5385464324925553e-01  2.1761755841322632e+00  -2.7849926589638656e+00  -3.7532923743145550e+00  -2.5780685004898380e+00  1.0290803035133673e+00  -3.4767773516290941e+00  2.9753779808087419e+01  6.1417760639856722e-01  -1.9435808258523075e+00  7.4398625265459826e+00  2.8837171268742429e-01  2.3829429752903430e-01  -4.3081157225444429e+00  7.3898625171921839e-01  5.2320785119655266e-01  -3.9755455249664271e+00  -3.9950066955264130e+00  2.7201876910095529e-01  9.0840364216887415e-01  1.0211551767191054e+00  4.2024348550732391e+00  -2.1860645702785320e+00  -6.3609306581808758e+00  2.9612273665704508e-01  2.4978470426801419e-01  -2.6779014560004694e-01  -2.1431002337934482e+00  -1.0500684144419134e+01  4.0890467633794603e-01  -1.8373347538058358e+00  -4.8330474964832950e+00  -2.5947757139498364e+00  3.0267196761647854e+00  -5.5465219341841721e-01  -7.1651778825768531e+01  -3.6457387706106901e+00  -7.4885752707730224e-01  -1.9789742629614357e+00  -2.7531012001965269e+00  -1.3741947074107652e+00  6.8878384680116138e+00  -3.5266257308117508e+00  -2.2997427248828078e+01  9.3013536630791549e+00  -3.1753990049374918e+00  -4.1829341672945759e+00  -3.2929962398433501e+00  -4.2801824541947244e+00  -1.0966400912574197e+03  -1.5410780925028519e+01  -3.4099634346659116e+00  -3.6282453856177828e+00  -2.4017255088789060e+00  -3.6016323963682901e+00  6.7336589760135301e-01  4.3305310538039887e-01  1.9107397854425626e-01  4.8481029916305846e-01  3.2791121486015828e-01  1.1650183517101487e+00  3.3406814010630637e-01  -1.7168999416441948e+00  4.4454321745954062e-01  6.0364394402976584e-01  1.0110243820654259e+00  9.9176647866744030e-02  4.0730866625573789e+01  -3.7636811883521979e+00  4.3535674861641138e-01  -9.3827231136661471e+00  -3.2250441585451957e+00  -1.2928871677831757e+00  -2.5221611158466164e+00  -2.2929462193975123e+01  -3.4665341962082534e+00  1.2224474370227039e+00  -2.3057770014189423e+00  -7.3590793679619750e+00  -1.0183820291180656e+00  4.5594618315528708e+00  8.3666165503549350e-01  -7.7045446053072053e-01  -5.4143096486224209e+00  -9.2125918140167173e+01  -3.8620479983243734e+00  -4.8380170550171302e+00  -7.2983164965163585e+00  8.1200949868746275e-01  -3.7663032659091980e+00  2.0375963427421588e+00  -1.2857295152889236e+01  -7.1917998484550765e+00  1.4213343989898584e+00  5.8500109555785296e-01  -6.7763373838965191e-01  4.9032988253163445e+00  2.5857722789872113e+01  -2.9773633964555768e+00  -2.1376485789629491e+01  -3.5185614966912442e+00  -5.8417409021591080e+00  -4.2101020849250332e+00  3.0430547541184610e-01  5.9396492335557516e-01  9.9013216221994982e-01  -3.6095311916921280e+00  -2.9748928647129773e+00  -3.5788330706574807e+00  -3.7903950913316642e+00  -1.3542761257906191e-01  1.1543150252640710e+00  -8.2899577758234368e+00  -3.0941651772888353e+01  -3.5261421652022529e+00  6.8832442938597458e+00  7.9861184692112497e-01  -9.5684921238646081e-01  8.6688880734487164e+00  1.7415635784610888e+00  -1.5547265898185982e+01  -3.7259703379044753e+00  -4.1841396069523299e+01  6.7347574136814969e-01  -6.0539861867068883e+00  -5.7437490995153773e-01  -2.0525071925711522e-01  -1.0946246937384448e+01  -3.5873557842804549e+00  -8.1450176186923890e+00  -6.6590533623408064e+00  1.5251690237450417e+00  9.6297552692297461e-01  -3.8164304602817549e+00  -3.351374601035