<?xml version="1.0"?>
<VTKFile type="UnstructuredGrid"  version="0.1"  >
<UnstructuredGrid>
<Piece  NumberOfPoints="258" NumberOfCells="458">
<Points>
<DataArray  type="Float64"  NumberOfComponents="3"  format="ascii">0 0 0  0.02 0 0  0.02 -0.01 0  0 -0.01 0  0.001111111111111112 0 0  0.002222222222222224 0 0  0.003333333333333336 0 0  0.004444444444444449 0 0  0.005555555555555562 0 0  0.006666666666666676 0 0  0.007777777777777791 0 0  0.008888888888888904 0 0  0.01000000000000001 0 0  0.01111111111111112 0 0  0.01222222222222222 0 0  0.01333333333333333 0 0  0.01444444444444444 0 0  0.01555555555555554 0 0  0.01666666666666665 0 0  0.01777777777777776 0 0  0.01888888888888888 0 0  0.02 -0.001000000000000001 0  0.02 -0.002000000000000002 0  0.02 -0.003000000000000004 0  0.02 -0.004000000000000007 0  0.02 -0.005000000000000004 0  0.02 -0.006000000000000002 0  0.02 -0.006999999999999998 0  0.02 -0.007999999999999995 0  0.02 -0.008999999999999998 0  0.01888888888888889 -0.01 0  0.01777777777777778 -0.01 0  0.01666666666666666 -0.01 0  0.01555555555555555 -0.01 0  0.01444444444444444 -0.01 0  0.01333333333333333 -0.01 0  0.01222222222222221 -0.01 0  0.0111111111111111 -0.01 0  0.009999999999999988 -0.01 0  0.008888888888888882 -0.01 0  0.007777777777777776 -0.01 0  0.00666666666666667 -0.01 0  0.005555555555555562 -0.01 0  0.004444444444444456 -0.01 0  0.003333333333333351 -0.01 0  0.002222222222222243 -0.01 0  0.001111111111111122 -0.01 0  0 -0.008999999999999999 0  0 -0.007999999999999998 0  0 -0.006999999999999996 0  0 -0.005999999999999993 0  0 -0.004999999999999996 0  0 -0.003999999999999998 0  0 -0.003000000000000002 0  0 -0.002000000000000005 0  0 -0.001000000000000003 0  0.01498974182289273 -0.004918276791097375 0  0.005019656586820622 -0.005006055319004614 0  0.009938248771598631 -0.005191494956574482 0  0.007524456808445023 -0.006883076533133015 0  0.01247554319155498 -0.006883076533133017 0  0.01249658919534514 -0.003105348164782396 0  0.007503410804654862 -0.003105348164782395 0  0.01703357732866516 -0.002936344362611124 0  0.002966593140385592 -0.00706229017463884 0  0.01709400364911892 -0.007163163546349576 0  0.002906179363792998 -0.002836413387238692 0  0.009874090200665188 -0.007490256993166783 0  0.0100829378283495 -0.002423749825725481 0  0.005220398020346936 -0.007619443493247051 0  0.01473766398185989 -0.007634458332411952 0  0.01479052694498747 -0.002371211115453641 0  0.005250483408611244 -0.002354937238180013 0  0.01779261854055247 -0.004999999999999998 0  0.002207381459447523 -0.005000000000000001 0  0.006987941703230102 -0.004912391108608303 0  0.0129389408988793 -0.004918004195709647 0  0.01828900839521447 -0.001678501957159747 0  0.001711857946249841 -0.008321118350688208 0  0.01828814205375015 -0.008321118350688207 0  0.001710991604785529 -0.001678501957159748 0  0.00850075826038321 -0.001596511755988787 0  0.01153936118911106 -0.008451844077337015 0  0.00849898121822517 -0.008324254228143466 0  0.01152936010064349 -0.001647896565517065 0  0.01845598344329623 -0.006566088655201623 0  0.001544126526341724 -0.003433831972430031 0  0.001486781084665193 -0.006499999999999994 0  0.01851321891533481 -0.003500000000000006 0  0.006737119605302873 -0.008395308136492162 0  0.01325720701765709 -0.008393512281383294 0  0.003843142509140586 -0.008446446261748038 0  0.01615685749085941 -0.008446446261748041 0  0.0132772756929753 -0.001612463294290029 0  0.0067287589905824 -0.001585989425547508 0  0.01616819830447626 -0.001552040617515654 0  0.003831801695523739 -0.001552040617515652 0  0.008573725661057081 -0.00555658339741137 0  0.01150082657401379 -0.005586882144836689 0  0.008970355534477323 -0.003704299669493514 0  0.01638242038138735 -0.004328324828625271 0  0.003617579618612651 -0.005671675171374726 0  0.01104298974512352 -0.003764278905247957 0  0.01400366056757168 -0.003738393799187923 0  0.005986283861422147 -0.003758126358142104 0  0.006048112704462369 -0.006363497878677439 0  0.01399009336414258 -0.006240227518389605 0  0.004235408937378148 -0.00370004525625568 0  0.01576394462441348 -0.006297649187769606 0  0.01532610311363127 -0.003367490501158054 0  0.004679596353692431 -0.006627754762526607 0  0.01114460549642141 -0.006869337004414902 0  0.003186973624504246 -0.004175923419628189 0  0.0168138768658954 -0.005824377588571924 0  0.009636493198834398 -0.006224426140553369 0  0.009646212708316285 -0.008753428657619921 0  0.01047924499909832 -0.001209475649891089 0  0.005024439444722647 -0.008864890458042875 0  0.01497556055527735 -0.008864890458042873 0  0.01499079905617032 -0.00112645109513069 0  0.005009200943829686 -0.00112645109513069 0  0.00110369072972376 -0.004607125002276339 0  0.01889630927027623 -0.005392874997723661 0  0.008663771332856922 -0.007312174261938267 0  0.01722093555378493 -0.009007301413813937 0  0.002779064446215076 -0.009007301413813935 0  0.008061230622102154 -0.004499590376753161 0  0.01722395482449578 -0.000991837154298748 0  0.002776045175504216 -0.0009918371542987471 0  0.01906083906785833 -0.002579136953734805 0  0.0009473531380954567 -0.002569684378367664 0  0.01905253880878649 -0.007430250040986565 0  0.0009392846952079956 -0.007420808804529191 0  0.01210387181243397 -0.004193443061531885 0  0.01745148127446439 -0.00391220778399122 0  0.00254838491600046 -0.006087644990731817 0  0.004013575339399186 -0.007379882091621721 0  0.01599021691030505 -0.002615396989234728 0  0.006362462624654836 -0.007314070914878941 0  0.01361127424892196 -0.00729154291044508 0  0.01365845940143225 -0.002691419356122654 0  0.006357993994129938 -0.002712430248374568 0  0.01916306608318646 -0.004282889371166543 0  0.0008369339168135398 -0.005717110628833458 0  0.01145635623140296 -0.002743380648875194 0  0.003964348749059936 -0.002610035420417098 0  0.01603620742457817 -0.007388105652611868 0  0.007660435214884671 -0.001147309939283351 0  0.009294121977281659 -0.0009093943786670014 0  0.01234751093896343 -0.008859127378623868 0  0.008504683320619266 -0.00270353947250481 0  0.01073141629620846 -0.009074799088672956 0  0.007653443972196878 -0.008833521519106123 0  0.01794482242889765 -0.002769776334219589 0  0.002001035442808625 -0.002637659045426274 0  0.00205531153129666 -0.007229772396451103 0  0.01799891645079987 -0.007362115471673525 0  0.01590637062987302 -0.005234629101727275 0  0.004116570691468413 -0.004764897734596652 0  0.01236993601504054 -0.00115821179307511 0  0.01900475334276948 -0.009011454331472265 0  0.0009952466572305165 -0.0009885456685277379 0  0.0009952466572305165 -0.009011454331472268 0  0.01900475334276948 -0.0009885456685277327 0  0.009976959323078557 -0.004010791699896373 0  0.006032752539442024 -0.009084911221778447 0  0.01396724746055798 -0.009084911221778447 0  0.01398568003022479 -0.0009182340659203278 0  0.006014319969775216 -0.000918234065920326 0  0.007514849628688934 -0.00577182127880937 0  0.01252855093182635 -0.005813536074400641 0  0.007002525547397925 -0.003945305141838441 0  0.005980565270449495 -0.004725544095926435 0  0.01401587243542007 -0.00471483350754015 0  0.009148008714115767 -0.004738379222839122 0  0.007542673430875725 -0.002141854834413571 0  0.01068906262886624 -0.005998433649754653 0  0.01106005240392428 -0.00483034554181602 0  0.002244198635085699 -0.004129715660862733 0  0.01775624450385364 -0.005870108669246817 0  0.01241494392848163 -0.007879509896403143 0  0.007603421070882208 -0.007858961791952564 0  0.002865067005245843 -0.002051081263676035 0  0.01710829636534239 -0.002090649569173265 0  0.00289492415211449 -0.007907801781493641 0  0.01713251043714857 -0.007948041782814191 0  0.01242523844205139 -0.002137586367973918 0  0.01308213087351087 -0.003901931219283501 0  0.01479296489586759 -0.006707271799833874 0  0.005204165998989954 -0.003282451758878301 0  0.001790604698664388 -0.00924773299658334 0  0.0182099503887892 -0.0007520896999824661 0  0.01820939530133561 -0.009247732996583338 0  0.001790049611210785 -0.0007520896999824687 0  0.01934549878221665 -0.003480289474985911 0  0.01929802841878513 -0.00648417338484455 0  0.0007019718550034231 -0.003515805907582005 0  0.0006545188982213929 -0.006519702776194659 0  0.01635106796146199 -0.003447678741540338 0  0.01067646960595661 -0.00792658637023657 0  0.009419366621182878 -0.001878309557352541 0  0.00364671834871939 -0.006551262938243338 0  0.01154237488962314 -0.0008031168016966522 0  0.008493060913080998 -0.009182240880973903 0  0.01693785803177374 -0.004978380180496402 0  0.003062087055483058 -0.005021735110127215 0  0.005090441891088131 -0.004206186753800631 0  0.003888888888888905 -0.009321883781130472 0  0.01611111111111111 -0.009321883781130474 0  0.0161111111111111 -0.0006776391761328469 0  0.003888888888888891 -0.0006776391761328425 0  0.01474467878449904 -0.005747961733532679 0  0.008476473094136624 -0.0007720693087695917 0  0.005875434446893863 -0.008255724844887895 0  0.01410979065285485 -0.008253863040812329 0  0.01836333881676287 -0.004417594430576285 0  0.001636634421330095 -0.005582376124368322 0  0.009196276014710174 -0.007976014835399144 0  0.01414054822515803 -0.001743955785383468 0  0.005872151461385697 -0.001739608414630622 0  0.008248900444000585 -0.006413263560764449 0  0.01155608212326407 -0.00925602934537112 0  0.0107909604828648 -0.001985724058758457 0  0.01473819677601053 -0.004086720759317552 0  0.004394408000838183 -0.005737647929444476 0  0.009456991225985645 -0.002950832871577755 0  0.005413917666862517 -0.005826479431171546 0  0.01925000298078292 -0.008257397543598095 0  0.0007499970192170694 -0.001742602456401905 0  0.01925000298078292 -0.001742602456401907 0  0.0007499970192170729 -0.0082573975435981 0  0.01559506941160885 -0.004274213913517568 0  0.006814178022516365 -0.006373162752655252 0  0.01317974484821467 -0.006368856921632421 0  0.01206700836654116 -0.005068057109719298 0  0.008128823711972547 -0.003611784931050804 0  0.01180926821016927 -0.006363256740837327 0  0.0145771329668782 -0.003164008624768109 0  0.00696959172393735 -0.0007303066861502373 0  0.005427486860032686 -0.006825475510207893 0  0.004581624137909489 -0.008121919970521224 0  0.0154190905820417 -0.00812403717170153 0  0.01542903816682291 -0.001870445260913915 0  0.004570558773133702 -0.001868474101466824 0  0.01308374019941707 -0.009230530225629955 0  0.003383266661064323 -0.003362641967009174 0  0.01661700373193678 -0.006636674564685831 0  0.006427833325760735 -0.005615644023766716 0  0.01362999254858828 -0.005534397911727056 0  0.01043812202371452 -0.003163384897918471 0  0.01164701505510902 -0.00750999072517171 0  0.006934962568508238 -0.00924592331452645 0  0.00933652288239558 -0.005439090731504941 0  0.0117749517460764 -0.003451612695109358 0  0.01308178394266936 -0.0007530545574381204 0  0.01034983884458146 -0.006785675364252577 0  0.01752574480644429 -0.006605508880227706 0  0.002474486057318899 -0.003394285061032913 0  </DataArray>
</Points>
<Cells>
<DataArray  type="UInt32"  Name="connectivity"  format="ascii">91 136 184  95 137 183  64 136 184  63 137 183  38 39 115  2 29 160  0 55 161  1 21 163  3 47 162  97 126 169  75 126 169  62 141 171  12 13 116  92 146 185  39 115 203  96 145 182  87 135 155  88 134 153  70 146 188  0 4 161  2 30 160  1 20 163  3 46 162  104 141 171  64 135 155  63 134 153  67 114 123  72 145 189  25 26 122  51 52 121  62 141 175  69 110 136  71 109 137  13 116 202  65 146 185  66 145 182  60 139 180  108 146 188  97 114 220  59 138 181  61 140 187  94 141 175  107 145 189  111 199 255  52 121 196  26 122 195  61 140 186  59 123 181  114 123 220  83 123 181  67 199 255  86 121 178  90 139 180  85 122 179  108 157 211  74 121 178  107 158 206  73 122 179  42 43 117  33 34 118  25 122 142  51 121 143  103 140 187  69 110 239  71 109 237  16 17 119  7 8 120  89 138 181  58 176 177  74 121 216  73 122 215  93 140 186  107 112 158  108 113 157  58 114 176  83 115 203  58 114 252  38 115 151  111 199 250  12 116 148  121 143 216  122 142 215  84 116 202  112 245 257  113 246 256  44 45 125  31 32 124  18 19 127  5 6 128  107 112 245  86 121 196  85 122 195  108 113 246  66 245 257  65 246 256  27 28 131  53 54 130  22 23 129  48 49 132  91 125 184  92 124 185  56 157 211  102 133 177  144 222 249  57 158 206  173 211 248  24 25 142  50 51 143  100 134 198  96 128 182  95 127 183  101 135 201  133 177 234  70 146 241  98 176 177  33 118 208  43 117 207  97 114 252  56 173 211  91 117 207  92 118 208  76 173 187  72 145 243  70 139 188  95 119 209  96 120 210  106 139 188  67 114 255  99 164 174  7 120 210  17 119 209  75 126 171  68 116 200  63 134 198  73 179 204  64 135 201  74 178 205  68 222 249  72 141 189  104 141 189  67 115 199  58 164 174  113 179 204  112 178 205  100 134 204  101 135 205  18 127 209  6 128 210  44 125 207  32 124 208  103 173 187  95 127 209  96 128 210  37 38 151  91 125 207  92 124 208  67 115 217  42 117 165  34 118 166  112 178 257  83 115 217  113 179 256  11 12 148  104 171 172  16 119 167  8 120 168  75 171 172  58 164 177  68 116 222  102 164 177  172 226 247  84 116 222  126 171 235  73 134 204  74 135 205  81 150 200  71 119 218  72 120 219  69 117 213  70 118 214  59 138 232  60 139 233  57 172 226  69 136 240  109 198 231  69 117 240  70 118 241  150 200 225  71 119 242  72 120 243  91 117 240  92 118 241  95 119 242  96 120 243  88 129 153  86 130 154  87 132 155  85 131 156  110 201 224  67 123 217  23 129 194  27 131 195  53 130 196  49 132 197  71 137 242  99 126 174  79 124 185  78 125 184  77 127 183  80 128 182  14 15 254  87 132 197  88 129 194  85 131 195  86 130 196  164 225 249  100 198 231  76 133 187  83 123 217  97 126 174  101 201 224  9 10 238  78 132 155  80 130 154  79 131 156  77 129 153  59 123 220  40 41 251  15 16 167  8 9 168  14 159 254  35 36 244  98 177 234  10 147 238  41 42 165  34 35 166  98 176 236  111 176 236  99 164 225  61 144 186  62 171 235  84 144 186  36 149 244  169 232 247  170 233 248  40 152 251  75 169 247  76 170 248  79 124 192  78 125 190  77 127 191  80 128 193  61 133 187  21 22 229  28 29 227  54 55 228  47 48 230  62 150 175  45 125 190  31 124 192  110 136 201  116 148 200  81 150 175  109 137 198  99 126 235  5 128 193  19 127 191  89 152 181  93 159 186  30 31 192  4 5 193  19 20 191  45 46 190  83 152 181  84 159 186  82 199 250  90 149 180  82 149 180  102 144 249  78 132 230  80 130 228  79 131 227  77 129 229  94 147 175  81 147 175  60 236 250  29 160 227  21 163 229  55 161 228  47 162 230  28 131 227  54 130 228  22 129 229  48 132 230  115 151 199  105 138 232  106 139 233  77 153 183  80 154 182  79 156 185  78 155 184  102 133 253  30 160 192  4 161 193  20 163 191  46 162 190  69 138 213  70 139 214  61 133 253  24 142 194  50 143 197  76 133 234  39 40 203  69 138 239  87 135 216  88 134 215  89 138 213  90 139 214  105 138 239  71 140 218  72 141 219  10 11 212  91 136 240  71 140 237  95 137 242  93 140 218  94 141 219  103 140 237  64 136 201  63 137 198  87 143 197  88 142 194  106 211 248  73 134 215  74 135 216  13 14 202  36 37 221  119 167 218  120 168 219  117 165 213  118 166 214  10 147 212  66 154 182  63 153 183  65 156 185  64 155 184  84 144 222  111 236 250  113 157 204  112 158 205  40 152 203  100 157 204  101 158 205  36 149 221  92 146 241  23 24 194  26 27 195  49 50 197  52 53 196  96 145 243  68 225 249  88 142 215  87 143 216  66 145 245  14 159 202  78 162 230  80 161 228  77 163 229  79 160 227  65 146 246  43 44 207  32 33 208  17 18 209  6 7 210  9 168 238  101 158 224  107 145 245  81 147 212  108 188 211  108 146 246  15 167 254  100 157 231  107 189 206  81 148 212  81 148 200  57 158 224  82 149 221  105 226 247  35 166 244  56 157 231  104 172 206  57 172 206  82 151 221  82 151 199  41 165 251  60 180 250  78 162 190  77 163 191  79 160 192  80 161 193  102 144 253  61 144 253  99 150 235  62 150 235  11 148 212  83 152 203  84 159 202  94 147 238  37 151 221  103 173 223  56 173 223  99 150 225  90 149 244  97 169 220  68 200 225  59 169 220  89 165 213  90 166 214  110 226 239  89 152 251  109 223 237  93 167 218  94 168 219  103 223 237  85 156 256  86 154 257  105 226 239  93 159 254  98 170 234  76 170 234  65 156 256  66 154 257  90 166 244  89 165 251  94 168 238  59 169 232  60 170 233  102 164 249  60 170 236  93 167 254  98 170 236  114 176 255  106 233 248  105 232 247  97 174 252  86 178 257  85 179 256  75 172 247  76 173 248  104 189 206  106 188 211  58 174 252  82 180 250  111 176 255  109 223 231  110 224 226  57 224 226  56 223 231  </DataArray>
<DataArray  type="UInt32"  Name="offsets"  format="ascii">3 6 9 12 15 18 21 24 27 30 33 36 39 42 45 48 51 54 57 60 63 66 69 72 75 78 81 84 87 90 93 96 99 102 105 108 111 114 117 120 123 126 129 132 135 138 141 144 147 150 153 156 159 162 165 168 171 174 177 180 183 186 189 192 195 198 201 204 207 210 213 216 219 222 225 228 231 234 237 240 243 246 249 252 255 258 261 264 267 270 273 276 279 282 285 288 291 294 297 300 303 306 309 312 315 318 321 324 327 330 333 336 339 342 345 348 351 354 357 360 363 366 369 372 375 378 381 384 387 390 393 396 399 402 405 408 411 414 417 420 423 426 429 432 435 438 441 444 447 450 453 456 459 462 465 468 471 474 477 480 483 486 489 492 495 498 501 504 507 510 513 516 519 522 525 528 531 534 537 540 543 546 549 552 555 558 561 564 567 570 573 576 579 582 585 588 591 594 597 600 603 606 609 612 615 618 621 624 627 630 633 636 639 642 645 648 651 654 657 660 663 666 669 672 675 678 681 684 687 690 693 696 699 702 705 708 711 714 717 720 723 726 729 732 735 738 741 744 747 750 753 756 759 762 765 768 771 774 777 780 783 786 789 792 795 798 801 804 807 810 813 816 819 822 825 828 831 834 837 840 843 846 849 852 855 858 861 864 867 870 873 876 879 882 885 888 891 894 897 900 903 906 909 912 915 918 921 924 927 930 933 936 939 942 945 948 951 954 957 960 963 966 969 972 975 978 981 984 987 990 993 996 999 1002 1005 1008 1011 1014 1017 1020 1023 1026 1029 1032 1035 1038 1041 1044 1047 1050 1053 1056 1059 1062 1065 1068 1071 1074 1077 1080 1083 1086 1089 1092 1095 1098 1101 1104 1107 1110 1113 1116 1119 1122 1125 1128 1131 1134 1137 1140 1143 1146 1149 1152 1155 1158 1161 1164 1167 1170 1173 1176 1179 1182 1185 1188 1191 1194 1197 1200 1203 1206 1209 1212 1215 1218 1221 1224 1227 1230 1233 1236 1239 1242 1245 1248 1251 1254 1257 1260 1263 1266 1269 1272 1275 1278 1281 1284 1287 1290 1293 1296 1299 1302 1305 1308 1311 1314 1317 1320 1323 1326 1329 1332 1335 1338 1341 1344 1347 1350 1353 1356 1359 1362 1365 1368 1371 1374 </DataArray>
<DataArray  type="UInt8"  Name="types"  format="ascii">5 5 5 5 5 5 5 5 5 5 5 5 5 5 5 5 5 5 5 5 5 5 5 5 5 5 5 5 5 5 5 5 5 5 5 5 5 5 5 5 5 5 5 5 5 5 5 5 5 5 5 5 5 5 5 5 5 5 5 5 5 5 5 5 5 5 5 5 5 5 5 5 5 5 5 5 5 5 5 5 5 5 5 5 5 5 5 5 5 5 5 5 5 5 5 5 5 5 5 5 5 5 5 5 5 5 5 5 5 5 5 5 5 5 5 5 5 5 5 5 5 5 5 5 5 5 5 5 5 5 5 5 5 5 5 5 5 5 5 5 5 5 5 5 5 5 5 5 5 5 5 5 5 5 5 5 5 5 5 5 5 5 5 5 5 5 5 5 5 5 5 5 5 5 5 5 5 5 5 5 5 5 5 5 5 5 5 5 5 5 5 5 5 5 5 5 5 5 5 5 5 5 5 5 5 5 5 5 5 5 5 5 5 5 5 5 5 5 5 5 5 5 5 5 5 5 5 5 5 5 5 5 5 5 5 5 5 5 5 5 5 5 5 5 5 5 5 5 5 5 5 5 5 5 5 5 5 5 5 5 5 5 5 5 5 5 5 5 5 5 5 5 5 5 5 5 5 5 5 5 5 5 5 5 5 5 5 5 5 5 5 5 5 5 5 5 5 5 5 5 5 5 5 5 5 5 5 5 5 5 5 5 5 5 5 5 5 5 5 5 5 5 5 5 5 5 5 5 5 5 5 5 5 5 5 5 5 5 5 5 5 5 5 5 5 5 5 5 5 5 5 5 5 5 5 5 5 5 5 5 5 5 5 5 5 5 5 5 5 5 5 5 5 5 5 5 5 5 5 5 5 5 5 5 5 5 5 5 5 5 5 5 5 5 5 5 5 5 5 5 5 5 5 5 5 5 5 5 5 5 5 5 5 5 5 5 5 5 5 5 5 5 5 5 5 5 5 5 5 5 5 5 5 5 5 5 5 5 5 5 5 5 5 5 5 5 5 5 5 5 5 5 5 5 5 5 5 5 </DataArray>
</Cells>
<PointData  Scalars="pressure"> 
<DataArray  type="Float64"  Name="pressure"  format="ascii">9.8809855535247451e+00  9.8886033764103782e+00  9.8795982971470639e+00  9.8871973378900346e+00  6.6425122820597489e+00  6.2434529151439673e+00  5.7403352333105264e+00  6.6490217227119173e+00  8.4924414392891592e+00  5.6971355124517986e+00  8.9424696127076579e+00  5.3394720205751947e+00  8.8887381401534089e+00  7.6949948411840019e+00  8.6944313156153488e+00  5.7146832222165855e+00  8.4526442207408667e+00  6.7121379284857134e+00  5.7138134944227712e+00  6.2397176371644845e+00  6.6992827270895532e+00  3.7479705151867357e+01  6.5048096993029347e+01  8.3180341183986357e+01  9.5652492635427379e+01  9.9662927222133121e+01  9.6246758856410324e+01  8.3123952158997341e+01  6.5018977815442099e+01  3.7443201649355657e+01  6.6411415294143019e+00  6.2551835674130070e+00  5.7088613190088227e+00  6.7622582200106631e+00  8.4604226811795264e+00  5.7982374733404765e+00  9.1439753662909915e+00  5.0827293581968958e+00  8.5387086446159639e+00  7.9147577786324392e+00  8.7792648984758603e+00  5.7063272104940905e+00  8.5207123287059190e+00  6.8077334116378925e+00  5.6836373469383386e+00  6.2511355307808625e+00  6.6982358459149065e+00  3.7478310286550872e+01  6.5048503763409144e+01  8.3180199927893625e+01  9.5652476989562544e+01  9.9662817267247561e+01  9.6246784635235500e+01  8.3123922485761582e+01  6.5018552377897890e+01  3.7444893983874060e+01  9.9813263048618126e+01  9.9861422241938996e+01  9.9461591483111718e+01  8.5166744524775240e+01  8.5225914163769630e+01  8.5580152601100409e+01  8.4949586690821562e+01  8.3420655758056256e+01  8.3459161395190691e+01  8.0886480383534021e+01  8.0865248934298037e+01  7.5634502909483572e+01  7.1285846230511439e+01  7.2458246423719828e+01  7.1766931125167005e+01  7.2230803763600093e+01  7.1492932906768488e+01  9.9803117321270335e+01  9.9802922602672638e+01  9.9751898091992743e+01  9.9667755987254623e+01  5.7839891677785943e+01  5.7849633365538303e+01  5.7348116639363667e+01  5.7340577608563486e+01  5.5159669038660631e+01  5.3633340216206605e+01  5.6691413651804112e+01  5.6259930605529128e+01  9.0261365727028135e+01  9.0260630485724803e+01  9.1038877501741155e+01  9.1038512410960493e+01  5.5077158154697429e+01  5.5166576999706585e+01  5.3306713320919968e+01  5.3022786003608438e+01  5.5052837773961613e+01  5.4498059707451247e+01  5.3223968113902174e+01  5.2951428291089734e+01  9.8539034926219671e+01  9.8394156791293895e+01  9.3256562020770190e+01  9.8001133101966147e+01  9.7996557923114196e+01  9.4226827737712426e+01  9.3222327874526655e+01  9.3652235690472395e+01  9.2214325890153674e+01  9.3202638119596131e+01  9.3072566251980732e+01  9.3163303079394638e+01  8.8638358834981176e+01  8.8864040078539631e+01  8.5208302972174650e+01  9.6720480294032470e+01  9.6706264058148705e+01  9.2393827773109706e+01  3.9388934186261558e+01  3.7865694067294257e+01  3.5949469998052074e+01  3.6044798231914001e+01  3.5836433549404227e+01  3.5920698548347858e+01  9.8420267667125174e+01  9.8420198168161491e+01  7.8739555380147749e+01  3.3483801958098901e+01  3.3592117346166958e+01  9.8623167429417066e+01  3.3557235237406587e+01  3.3449430648642178e+01  7.5829536429162644e+01  7.5711895631758878e+01  7.5712810586785068e+01  7.5830840596105560e+01  9.6932531443180125e+01  9.4451358516102857e+01  9.4460367943802638e+01  7.5914500938622879e+01  7.5866885770297344e+01  7.7111027836141048e+01  7.8086270978366286e+01  7.7837406383906554e+01  7.8631445997640910e+01  9.7856324279193444e+01  9.7856582106967366e+01  7.7933080419099568e+01  7.6935855686418890e+01  7.6944439756911891e+01  3.8996709005506197e+01  3.0652020749541101e+01  3.8780141976963812e+01  7.7272077558437857e+01  3.1896557098868492e+01  3.9388289110510101e+01  7.9141954450168896e+01  7.6789314720498894e+01  7.9145860695640835e+01  7.6793821048803920e+01  9.9312236039364592e+01  9.9339342488940119e+01  3.9201311647437713e+01  2.9285616204076881e+01  2.9281027100485492e+01  2.9223775054675361e+01  2.9219459755635263e+01  9.5902367683765007e+01  2.9582723607607953e+01  2.9653305988833214e+01  2.9667049301784175e+01  2.9492292618726331e+01  9.7220628792344357e+01  9.7061881840443959e+01  9.4867453253610663e+01  9.9229685809162206e+01  9.9240431337373678e+01  9.9122404616188774e+01  6.7217054256016795e+01  9.6366813628603509e+01  9.9097342018731851e+01  9.7082824521336846e+01  9.7084708926895431e+01  6.6473281025656604e+01  6.7553326045066115e+01  6.4217010858733715e+01  6.5037453193830302e+01  6.5061585917696732e+01  6.4224243602850777e+01  6.7485072063154675e+01  9.4594335862942714e+01  8.7503227451143147e+01  8.7235568547552688e+01  2.5690121073759837e+01  2.5683478478564886e+01  2.5814048906510916e+01  2.5806835327776653e+01  9.0467945801625021e+01  9.1146377175731885e+01  9.1145936822846934e+01  9.0467946428700685e+01  9.0880234365210697e+01  6.5671246504644870e+01  6.2264662722117819e+01  9.0851850997984343e+01  2.6248073143848838e+01  2.6813537711359686e+01  9.9659632680794701e+01  9.9654912254397402e+01  9.7281286297305755e+01  2.4760128928235449e+01  2.4825144676434459e+01  2.4699984971607133e+01  2.4768176839591305e+01  9.7685928967201392e+01  2.4329388071568037e+01  5.8983857382958178e+01  5.8931997116952068e+01  9.8426434417712059e+01  9.8424924851591811e+01  6.4862392059830825e+01  5.8854304856045381e+01  5.8719460569925168e+01  9.2197465354450316e+01  2.3535048403717862e+01  6.7146301917947255e+01  9.6365661918380226e+01  9.7311743447913599e+01  8.3465669524093371e+01  9.6931598603257243e+01  5.6806358038249478e+01  5.6804999672395041e+01  5.6740902622077009e+01  5.6741611070552537e+01  9.7317302050374138e+01  9.2317589195126132e+01  9.2397998551755592e+01  9.9961533485975565e+01  9.2466980830155222e+01  9.1847992482617343e+01  8.6682498659969326e+01  2.4101689829246677e+01  8.6906760532645251e+01  6.2252989493438278e+01  6.2072465734704508e+01  6.2046690746815564e+01  6.1877421646385791e+01  2.4525765750826530e+01  8.9108445398305975e+01  8.9110075690140903e+01  9.8299978999670770e+01  9.8581938699475870e+01  8.4886493760534037e+01  7.4913948803857181e+01  2.4526899732015512e+01  9.9527240991136594e+01  9.0482631503643162e+01  2.4582203160192044e+01  8.6135227235889801e+01  8.9833556360726945e+01  8.9829731822898864e+01  </DataArray> 
</PointData> 
</Piece>
</UnstructuredGrid>
</VTKFile>