<?xml version="1.0"?>
<VTKFile type="UnstructuredGrid"  version="0.1"  >
<UnstructuredGrid>
<Piece  NumberOfPoints="1121" NumberOfCells="2112">
<Points>
<DataArray  type="Float64"  NumberOfComponents="3"  format="ascii">0 0 0  0.5 0 0  0.5 -0.22 0  0 -0.22 0  0.0125 0 0  0.025 0 0  0.03750000000000001 0 0  0.05 0 0  0.0625 0 0  0.07500000000000001 0 0  0.08750000000000001 0 0  0.1 0 0  0.1125 0 0  0.125 0 0  0.1375 0 0  0.15 0 0  0.1625 0 0  0.175 0 0  0.1875 0 0  0.2 0 0  0.2125 0 0  0.225 0 0  0.2375 0 0  0.25 0 0  0.2625 0 0  0.275 0 0  0.2875 0 0  0.3 0 0  0.3124999999999999 0 0  0.325 0 0  0.3375 0 0  0.35 0 0  0.3625 0 0  0.375 0 0  0.3875 0 0  0.4 0 0  0.4125 0 0  0.425 0 0  0.4375 0 0  0.45 0 0  0.4625 0 0  0.475 0 0  0.4875 0 0  0.5 -0.00916666666666667 0  0.5 -0.01833333333333334 0  0.5 -0.02750000000000001 0  0.5 -0.03666666666666668 0  0.5 -0.04583333333333335 0  0.5 -0.05500000000000002 0  0.5 -0.06416666666666669 0  0.5 -0.07333333333333336 0  0.5 -0.08250000000000002 0  0.5 -0.09166666666666669 0  0.5 -0.1008333333333334 0  0.5 -0.11 0  0.5 -0.1191666666666667 0  0.5 -0.1283333333333334 0  0.5 -0.1375 0  0.5 -0.1466666666666667 0  0.5 -0.1558333333333333 0  0.5 -0.165 0  0.5 -0.1741666666666667 0  0.5 -0.1833333333333333 0  0.5 -0.1925 0  0.5 -0.2016666666666667 0  0.5 -0.2108333333333333 0  0.4875 -0.22 0  0.475 -0.22 0  0.4625 -0.22 0  0.45 -0.22 0  0.4375 -0.22 0  0.425 -0.22 0  0.4125 -0.22 0  0.4 -0.22 0  0.3875 -0.22 0  0.375 -0.22 0  0.3625 -0.22 0  0.35 -0.22 0  0.3375 -0.22 0  0.325 -0.22 0  0.3125 -0.22 0  0.3 -0.22 0  0.2875 -0.22 0  0.275 -0.22 0  0.2625 -0.22 0  0.25 -0.22 0  0.2375 -0.22 0  0.225 -0.22 0  0.2125 -0.22 0  0.2 -0.22 0  0.1875000000000001 -0.22 0  0.175 -0.22 0  0.1625 -0.22 0  0.15 -0.22 0  0.1375 -0.22 0  0.125 -0.22 0  0.1125 -0.22 0  0.09999999999999998 -0.22 0  0.08749999999999997 -0.22 0  0.07499999999999996 -0.22 0  0.0625 -0.22 0  0.04999999999999999 -0.22 0  0.03750000000000003 -0.22 0  0.02500000000000002 -0.22 0  0.01250000000000001 -0.22 0  0 -0.2108333333333333 0  0 -0.2016666666666667 0  0 -0.1925 0  0 -0.1833333333333333 0  0 -0.1741666666666666 0  0 -0.165 0  0 -0.1558333333333333 0  0 -0.1466666666666666 0  0 -0.1375 0  0 -0.1283333333333333 0  0 -0.1191666666666666 0  0 -0.11 0  0 -0.1008333333333333 0  0 -0.09166666666666665 0  0 -0.08249999999999999 0  0 -0.07333333333333333 0  0 -0.06416666666666668 0  0 -0.05499999999999999 0  0 -0.04583333333333331 0  0 -0.03666666666666665 0  0 -0.0275 0  0 -0.01833333333333334 0  0 -0.009166666666666684 0  0.1054583333333335 -0.1054166666666667 0  0.3942676334017064 -0.1137728325038039 0  0.2847879184121186 -0.1095588156798053 0  0.1945032948335413 -0.1282408799476467 0  0.06153506715537374 -0.1512727221728088 0  0.4399056412223469 -0.06797859302281792 0  0.05788181883779472 -0.06001948808334377 0  0.4421098014386607 -0.1599837267347342 0  0.3413511741034609 -0.06957267157055583 0  0.2288650014326337 -0.07000139022125416 0  0.3374198095657364 -0.153292781564552 0  0.1625149941501948 -0.06635759941053934 0  0.1410798075665959 -0.1547982873744018 0  0.2480541718311375 -0.1584999930406966 0  0.4521112869309225 -0.1144576824167908 0  0.04769384748510372 -0.1054790589784799 0  0.2872553124970689 -0.0549183148201307 0  0.3883603170589741 -0.1667590078701163 0  0.1113816725357426 -0.05349980002187416 0  0.388663619148569 -0.05083099728992514 0  0.2924675002385118 -0.1733355444551434 0  0.03957129721715399 -0.1820306497250263 0  0.463886478278041 -0.04123097885421483 0  0.1819898664669143 -0.1745112248447572 0  0.1501955722423063 -0.1126410264576243 0  0.2381168692527681 -0.1138631020717532 0  0.09896708868237117 -0.1743617443889283 0  0.351521105495953 -0.110482033201648 0  0.1944214316144394 -0.04364751139729321 0  0.4676096572335854 -0.17875 0  0.0323903427664145 -0.04125 0  0.03139627442974444 -0.07791666666666666 0  0.4686037255702555 -0.1420833333333333 0  0.03146427625974824 -0.1353922207127977 0  0.4687538427589449 -0.08499498352404596 0  0.1945393885069078 -0.08884182758867265 0  0.2525813348104176 -0.03744007417230172 0  0.3217010222371471 -0.03764154129720884 0  0.4222469886470394 -0.03586904090069724 0  0.09663319060065351 -0.1401271138728219 0  0.2193792666828137 -0.183158231426584 0  0.3560154827479793 -0.1838943099753877 0  0.1434582748922029 -0.03603411582704523 0  0.3765333185963097 -0.08241017292348579 0  0.07538111331820632 -0.08899587837746269 0  0.423855991190923 -0.1306886077643884 0  0.3185210010305527 -0.09753607818954631 0  0.3569762884570115 -0.03650734503769727 0  0.4254213410091923 -0.0987078979590463 0  0.2610082403268991 -0.0817800662321487 0  0.0828105113527246 -0.0341734786714956 0  0.4171399376253134 -0.185803221952863 0  0.3057870365127394 -0.1382026892003179 0  0.12895829204953 -0.08335230948371621 0  0.06875298785225953 -0.187362820013113 0  0.3717868049890677 -0.1386048615715364 0  0.321448533906611 -0.1855116827647124 0  0.26298072168791 -0.1839420817131204 0  0.07484000163200957 -0.1198633334100699 0  0.1547686158654376 -0.1863750548878711 0  0.216059367308573 -0.1515159536473182 0  0.2699691944498949 -0.1417527519042215 0  0.1656185503016955 -0.1403556565429203 0  0.4083071195762781 -0.07378364169239227 0  0.1267131755037155 -0.1278660972450704 0  0.4735015828166597 -0.0640900788079139 0  0.02554956908977171 -0.1556408100003981 0  0.4768150825846236 -0.1145833333333333 0  0.02318491741537634 -0.1054166666666667 0  0.223953700752457 -0.0304451531933032 0  0.1244872804067221 -0.1907232817427361 0  0.4438735214118281 -0.1930008132865749 0  0.05574102313663398 -0.02865323925202035 0  0.4137204188713657 -0.1553454939163003 0  0.08893893095617791 -0.06579816339826482 0  0.1717694871603352 -0.02800139159048265 0  0.3128492556460914 -0.06943040619515532 0  0.2797695783739821 -0.02590934499649085 0  0.02258333333333329 -0.1970833333333333 0  0.4762493762769904 -0.02160603458451191 0  0.4793770768812318 -0.1979934752448725 0  0.02062142143957255 -0.02200567641944876 0  0.1164030865048185 -0.02740272745133866 0  0.3830675041448486 -0.1925667518381948 0  0.4791226873505327 -0.1610342148373401 0  0.02087731264946724 -0.05896578516265992 0  0.3274724693986852 -0.1225305077389053 0  0.3972801610854721 -0.02625449066011495 0  0.2900140160514686 -0.08365001034985962 0  0.1709547781797311 -0.09465470820062212 0  0.2138438311308281 -0.1099941211103435 0  0.4450205721789285 -0.02492933314930469 0  0.05420467580227878 -0.08349945672846135 0  0.4461329107542346 -0.1367113815538408 0  0.3659666316461785 -0.05978339436610505 0  0.44602790301578 -0.09307279226297782 0  0.1051970245947556 -0.08027435556391044 0  0.05333928713341426 -0.1272409570081178 0  0.3959065276465774 -0.1392957050603055 0  0.1954280839215327 -0.1956301054107469 0  0.1114114251973984 -0.1581699686077357 0  0.1861203385256373 -0.06601416834570389 0  0.2411653975579025 -0.1955923650394697 0  0.3655092946697883 -0.1617364087021952 0  0.135090011654307 -0.05852644219278214 0  0.301466572149827 -0.195730962509487 0  0.3171403096460815 -0.1628017925003279 0  0.2583110626374412 -0.1046341192205865 0  0.4408293443687437 -0.04585722764353674 0  0.2712011044137034 -0.1640374945295207 0  0.2411933721253841 -0.08983355018053346 0  0.2501709838730871 -0.1314559421109842 0  0.4829353992284747 -0.03936718280336758 0  0.01826814268142685 -0.17875 0  0.08176459786747367 -0.1581134879103219 0  0.09090727073593149 -0.1966179220907174 0  0.1938567422944586 -0.1528508759815354 0  0.1733129361306733 -0.1172649579021292 0  0.1296640686621583 -0.1060858859555111 0  0.05006156132458137 -0.1998033571646454 0  0.162505650870633 -0.1635353305739766 0  0.30277270753554 -0.02336446206680166 0  0.04392010531002208 -0.1476919574928456 0  0.4570380569409145 -0.07105832940298668 0  0.2509935571465481 -0.06292905082461901 0  0.3948833058972995 -0.09019561948060845 0  0.4598195232581849 -0.1577532743262658 0  0.04018055885339097 -0.06224663359087233 0  0.1730418602576066 -0.1983511585214162 0  0.354008461825654 -0.08842076759065362 0  0.373211974938222 -0.1031515537153039 0  0.3385725936424656 -0.02355841481827918 0  0.05693481862827446 -0.1711111761535942 0  0.2226017506701603 -0.1306213423698554 0  0.4834446118625366 -0.09366667033152501 0  0.01655538813746335 -0.126333329668475 0  0.4825096030146118 -0.1326572162395438 0  0.01749039698538812 -0.08734278376045618 0  0.3772923679603625 -0.01999366789017346 0  0.01651090378487999 -0.1420833333333333 0  0.48348909621512 -0.07791666666666669 0  0.2083850969976113 -0.06098599897318754 0  0.3496303726904554 -0.1333395240176083 0  0.3051888980043784 -0.1167126520442686 0  0.2175622493287656 -0.08816391583608728 0  0.421331648509181 -0.05567865783938017 0  0.2036856364456695 -0.0217459550834085 0  0.3419325538888507 -0.04719577702332296 0  0.3412491916251918 -0.1996737604301947 0  0.4838834006315611 -0.1786454571355643 0  0.01611659936843887 -0.0413545428644357 0  0.172916357627664 -0.04916537131395513 0  0.4024134926805814 -0.2009331510593763 0  0.2424815730009992 -0.02045273553971888 0  0.1462759520833398 -0.1337233768065287 0  0.2346404539413744 -0.0484884977905098 0  0.09697638824467633 -0.01835062747588986 0  0.3376316573341132 -0.1736137832302001 0  0.1473441332611047 -0.09306137774954895 0  0.434705037373379 -0.114505364151485 0  0.0768089501139663 -0.1390499296181859 0  0.2037322897871967 -0.1695319781453501 0  0.2796822656650553 -0.2007669332776081 0  0.2910707535484897 -0.1516548901144321 0  0.414355300365443 -0.1140560482952263 0  0.09372496308173206 -0.1210763918452149 0  0.3897041267298961 -0.06995384811683555 0  0.4607061536274312 -0.2009522278863767 0  0.03767528917450519 -0.01920779542340162 0  0.06550910726222195 -0.1022565085744684 0  0.05021276002452402 -0.04427151993747909 0  0.4497875067624045 -0.1757266867012744 0  0.2685456651208211 -0.05149244248160013 0  0.1924991911245588 -0.1082791409797235 0  0.4653652048205058 -0.1036696603203247 0  0.03478864406010496 -0.1162949466270758 0  0.03530598512279109
[...]
<PointData  Scalars="pressure"> 
<DataArray  type="Float64"  Name="pressure"  format="ascii">6.0115138080626276e-19  -1.7398832163188747e-19  2.1120524671727872e-20  2.3231039491111830e-19  1.8888127116571134e-03  3.6663199472001359e-03  5.3349025074246968e-03  6.9147992969996091e-03  8.3998716274914717e-03  9.7909774006254575e-03  1.1092652389517670e-02  1.2295379517989254e-02  1.3409198526837727e-02  1.4419157388401164e-02  1.5339771966577849e-02  1.6164087712620109e-02  1.6892734563350671e-02  1.7526034462563553e-02  1.8060007848659861e-02  1.8502497500749764e-02  1.8839712093735857e-02  1.9082005663106326e-02  1.9227725266230487e-02  1.9276586053085992e-02  1.9230073396722724e-02  1.9086907892245118e-02  1.8838643413140097e-02  1.8499074041315875e-02  1.8059423100805591e-02  1.7524625235723398e-02  1.6893065077633666e-02  1.6164020143406191e-02  1.5339499645726198e-02  1.4420648476975204e-02  1.3407486865009074e-02  1.2297892668102311e-02  1.1088470788696117e-02  9.7906703775431595e-03  8.3999921646411690e-03  6.9161555511282518e-03  5.3357661120508543e-03  3.6669213949360449e-03  1.8904260579554744e-03  2.6392139992094666e-19  -1.1056543271557860e-19  1.7392004989545527e-19  -1.7247920837404750e-19  -2.2155460389112482e-19  7.9296958442638168e-20  -2.6168653957088162e-19  3.2851730735623261e-19  -8.6130451139996752e-19  -4.9801946235365775e-19  7.9497420509259302e-20  -2.3321340201834629e-19  1.2766027320334746e-19  -1.2282812449169165e-19  -8.2867365872046822e-19  -2.2022331640201498e-19  -1.9656138818112018e-19  4.4452195644412804e-19  -2.5173426001314023e-19  -1.5367453447352636e-19  -2.2089645792495113e-19  -1.8736872022639285e-19  4.3981872766761986e-19  1.6814651016448530e-03  3.2827170991910036e-03  4.8097489139090560e-03  6.2642165290127316e-03  7.6446116047626383e-03  8.9452221395055799e-03  1.0168255811503815e-02  1.1307311698476942e-02  1.2363434533267170e-02  1.3334481554718242e-02  1.4214981438509664e-02  1.5007460519754653e-02  1.5710297885613622e-02  1.6321351941803282e-02  1.6838173628523655e-02  1.7262272199875438e-02  1.7594269112031161e-02  1.7831951783534319e-02  1.7973786769412876e-02  1.8022636342064410e-02  1.7974764693400685e-02  1.7832962438620654e-02  1.7596065825934679e-02  1.7264148103303404e-02  1.6840084486387186e-02  1.6321699640978630e-02  1.5709348925520467e-02  1.5007413407739608e-02  1.4214392038976478e-02  1.3333411957307388e-02  1.2363101891901403e-02  1.1309451471399503e-02  1.0164331105502271e-02  8.9480615920568031e-03  7.6439868137166515e-03  6.2645006357531100e-03  4.8103950630803893e-03  3.2837224210467367e-03  1.6825802194211975e-03  -2.2574697100435788e-19  -1.3909184076560378e-19  -8.5527316030242625e-20  -2.5954643445259296e-19  9.3809634890020059e-20  3.1777088929633193e-19  -3.4069759217466010e-19  -5.9730419519316409e-20  -3.3958345908207294e-19  -3.5522176591847767e-19  -5.5523732233005145e-20  -9.3935808537016776e-20  -1.1981431472446572e-19  -1.6480998695660958e-20  -7.0584757970406489e-19  -2.2205238681079240e-19  -2.2667940156234295e-19  3.8458508258090128e-19  -1.1766864128376191e-19  5.2446555535896621e-19  -4.2528565632712331e-20  -1.8737446473994782e-19  8.8347041578096162e-20  1.2189731528504921e-02  1.2155289171227513e-02  1.8177612629001447e-02  1.7450222614540534e-02  7.6155304526839005e-03  7.8462398596120409e-03  7.6345275152803907e-03  7.1941262093959558e-03  1.6315613270036184e-02  1.8760315372741268e-02  1.5895826123782281e-02  1.6553330683218459e-02  1.4615312141485400e-02  1.8193826316443111e-02  6.1885770469462358e-03  6.2016989807514153e-03  1.8588531385941083e-02  1.2380017699026191e-02  1.3081500527241637e-02  1.3097418538204569e-02  1.7575180621582257e-02  5.0595546127143679e-03  5.0477979512198751e-03  1.6714683943594003e-02  1.5462904859802446e-02  1.8471667370820410e-02  1.1272297218072569e-02  1.5375001536437989e-02  1.8146189548631262e-02  4.1912171663627965e-03  4.5575916638204280e-03  4.2919084373569264e-03  4.1115952050292739e-03  4.1322427794406652e-03  4.2469254877640396e-03  1.7783159884327899e-02  1.9144511689775413e-02  1.7546761734473726e-02  9.9807468310028191e-03  1.1191481681634018e-02  1.7799090115731889e-02  1.4685462354039532e-02  1.5625873071397973e-02  1.3846857221647973e-02  9.3981624880724972e-03  9.2455822509851585e-03  1.7200830823782168e-02  1.5594379714052699e-02  9.2529114406193578e-03  1.8753819510051974e-02  1.0513598016046800e-02  9.7462884403320526e-03  1.7368937243718654e-02  1.4259186103623910e-02  8.3197244475538244e-03  1.3804220864326328e-02  1.6529648720388961e-02  1.8032174082034776e-02  9.1642711439184343e-03  1.5329074883322641e-02  1.7885836584949775e-02  1.8177125223828857e-02  1.6128867580632644e-02  1.1146554052003184e-02  1.3759221885662152e-02  3.6962154431400222e-03  3.3586514864792239e-03  3.1208756044292987e-03  3.1406219357846452e-03  1.8975618904434617e-02  1.3322828523410346e-02  6.9556426123699704e-03  7.5429932379187025e-03  1.0153324468484650e-02  1.0933981908849009e-02  1.7293874161367535e-02  1.7680359107439380e-02  1.8933327279795055e-02  2.9701015796044462e-03  3.4545457382666317e-03  2.7248852052161069e-03  3.0214388782121540e-03  1.3658744479729930e-02  1.2738653295726475e-02  2.7607653470430931e-03  2.9546368817835685e-03  1.6601159541457852e-02  1.2482230865502078e-02  1.8280335938069464e-02  1.6751900765427614e-02  1.8143937574091405e-02  7.4650703301374893e-03  7.0786003495730910e-03  6.8059315605757996e-03  1.4819265618024815e-02  7.0005235199421499e-03  1.2345660384698857e-02  6.7793848797869623e-03  1.1860174126982257e-02  1.7146950461977669e-02  1.2399884827029787e-02  1.7665725149665391e-02  1.8025365930092570e-02  1.4134318692547616e-02  1.4899967321142942e-02  1.7246387893532479e-02  1.6800704388343430e-02  1.8571754778864229e-02  7.8637891682888442e-03  1.8029779781411372e-02  1.8701214929793306e-02  1.8375305735668236e-02  2.4772012182649491e-03  2.4198956446210302e-03  9.7091202540008272e-03  1.0498083782171643e-02  1.7264412929643307e-02  1.6679850859661585e-02  1.4131449601116158e-02  6.2725686835223282e-03  1.5842483732842631e-02  1.8357264651885821e-02  5.6188825528790416e-03  5.7821081837784692e-03  1.8960554321003985e-02  1.2268350911976708e-02  5.1557849937527364e-03  5.4775014081184055e-03  1.6249365275284224e-02  1.5398607929912198e-02  1.3942037814463359e-02  1.6779693986942373e-02  7.0697627050339022e-03  1.8147620886215441e-02  2.2865758487433125e-03  2.2340935492216460e-03  2.3493858999696329e-03  2.4255227602962394e-03  1.4202311735912734e-02  2.2104286803806099e-03  2.3110147740937207e-03  1.8440010277903922e-02  1.5325411576141940e-02  1.7551850690209453e-02  1.8416431279766051e-02  9.9597183503230043e-03  1.8559084034140468e-02  1.6454959098782442e-02  1.5527317183158942e-02  2.1401318220697521e-03  2.3375859514662262e-03  1.7218738623656239e-02  1.1106057626223570e-02  1.9217740338185775e-02  1.5065972175213046e-02  1.8996791061784261e-02  1.1983476210576894e-02  1.5790573368830906e-02  1.5443117641339668e-02  8.1715093770847128e-03  9.2801372104076435e-03  1.7486443056372349e-02  1.7772682234677956e-02  1.7722578027194277e-02  1.0289727154856374e-02  1.1025592639976184e-02  1.2868747814363049e-02  5.0225193237984815e-03  5.3292216133552775e-03  8.2581813118714452e-03  6.8052166999553396e-03  6.3047454077785779e-03  1.8942853990578996e-02  1.7540292252188710e-02  4.6124932732520187e-03  4.5924895665475571e-03  4.7315676340063031e-03  4.6024485505088896e-03  1.8053752018884095e-02  1.6349739435584314e-02  1.9194467862147950e-02  1.0345131225626913e-02  1.8033304643579454e-02  1.3532734396071690e-02  1.2049592501984946e-02  8.7212757843582300e-03  9.5118352762610381e-03  8.2304560584208035e-03  8.8520689598783394e-03  1.4105138868369000e-02  1.7929159316671411e-02  1.0757303130709488e-02  1.4405374024606425e-02  1.6281778132159922e-02  1.5109510202793981e-02  9.4697269350462517e-03  1.2129678911722260e-02  1.7742047701291234e-02  1.1602551135143939e-02  1.1324300536906643e-02  1.8196579594940827e-02  1.9435914343597740e-03  2.0462959233176464e-03  5.5619468796413518e-03  1.8327552431158120e-02  8.7417020147671949e-03  1.7693489085357509e-02  9.0013291647827315e-03  1.4303949915092663e-02  1.6173212424819210e-02  1.6960201166430787e-02  1.3488677389741315e-02  1.4327329084573718e-02  1.6631564998205357e-02  1.5720044432107099e-02  9.7977297902358436e-03  1.8657185550941677e-02  1.7863030670592674e-02  1.7963940337445888e-02  1.8476233087665946e-02  6.1252598560334907e-03  1.3578182634760254e-02  4.8628807592467601e-03  1.7238931357902148e-02  1.8016457456559210e-02  1.3324073365781709e-02  1.2984615740230007e-02  1.9168957361135296e-03  2.0811960257748827e-03  1.3284610704401723e-02  1.5384446591369023e-02  1.2546499425807487e-02  1.8542849194271356e-02  1.8675023761345094e-02  1.6711921010447845e-02  1.6785759779500077e-03  1.7007482266581998e-03  7.7075466167015085e-03  1.6487198554481077e-02  1.7748645547393405e-02  1.1163515764833850e-02  1.5444223301916657e-02  1.8455839951926001e-02  1.4658975588850588e-02  1.7952548498131944e-02  1.2614914896252671e-02  1.7211391383319424e-02  1.4671193717953864e-02  9.1435804332837649e-03  1.8104786908311760e-02  1.4979204057805423e-02  1.0677376141319242e-02  1.6217893345392977e-03  1.8130135343772914e-03  1.7122369249383276e-02  1.6027586438621216e-02  1.0358396628841925e-02  1.3952465852577495e-02  1.6898311145980668e-02  1.6575865906145084e-03  1.6522886063529587e-03  1.5621360911179610e-03  1.5878295068752540e-03  1.7795283270576601e-02  1.1533589291330130e-02  1.8962224891013381e-02  8.3993855129969545e-03  1.1201959866003754e-02  1.8214741900464782e-02  1.8198650843514578e-02  1.5998395556434487e-02  1.7689379288196513e-02  1.1997564710643265e-02  1.1216067054808918e-02  4.4752549211498141e-03  1.8452608306478976e-02  1.1808635928202568e-02  1.0619714525463753e-02  5.7854632022920870e-03  5.5265567689991545e-03  1.8294614516174128e-02  1.4515512208467429e-02  1.4979967550030825e-02  1.7389446637113858e-03  1.6414853239220754e-03  1.1088863209607478e-02  1.5377654313380302e-02  1.8778360118086253e-02  6.1472594852500185e-03  5.3736817941839122e-03  4.0688706677717195e-03  1.8314659678838232e-03  1.6809133127133375e-03  1.2774631997827709e-02  7.8540630919499352e-03  6.3491342529192040e-03  1.8844166924829285e-02  3.3626428533666559e-03  8.9323549667438360e-03  3.7545229711012599e-03  3.9661418441637964e-03  1.7325535410571701e-02  9.4734890433420919e-03  7.2374496453081793e-03  7.0718066536822055e-03  1.6314338109322591e-03  1.7641282504343048e-03  1.4868710154247230e-02  1.6570245266881320e-02  1.5643540631607781e-02  5.6478053382796227e-03  1.0648116767525282e-02  7.2274294380076029e-03  1.1306883699843938e-02  1.7137426607221971e-02  1.3325582498304161e-02  1.6897830921314238e-03  1.8649101207077880e-03  1.3171021470119296e-02  1.4257769273710247e-03  1.3801344425845234e-03  1.6241299219126221e-02  1.8345387596919976e-02  1.7923090791284603e-02  6.5429405365191474e-03  1.6830064415995792e-02  6.8912601664053563e-03  9.2374701108150058e-03  7.1462209331130374e-03  1.7671473558029512e-02  1.7333963695352478e-02  1.8998665085007509e-02  4.1657540137686353e-03  1.8780877201768239e-02  1.9134184062520845e-02  1.3313038191435943e-02  6.5232764041883969e-03  7.6478106925138853e-03  1.3364236914442475e-02  1.2454542053341873e-02  1.5879643463807824e-02  1.6326008806244841e-02  1.7472095031831149e-02  8.5046093079250915e-03  1.0022087335512180e-02  1.7917665075641270e-02  1.4540109628083128e-02  1.3607839423625517e-02  3.9017434900822435e-03  4.1965107513238092e-03  1.4288918426110258e-02  1.6802674021193866e-02  1.3163023239733031e-02  1.6800857384931686e-02  1.0905143726211481e-02  5.9818036427368619e-03  7.1379093989298401e-03  1.8606626399723991e-02  1.9063155037869619e-02  1.8772453159891490e-02  4.7142779245768441e-03  1.7522128025063845e-02  1.7153617451064855e-02  1.1459803726214078e-02  1.8876265296367687e-02  8.4134323676846486e-03  1.6161404605703606e-02  1.8122425388047043e-02  3.9279948992495210e-03  4.1648161375764823e-03  1.5910957413286602e-03  1.6966460616573194e-03  1.8297151712345614e-02  1.6144475477819532e-02  1.7493083148156414e-02  4.6453918844818060e-03  4.6025886455284652e-03  9.1383713084623158e-03  8.4335449654394153e-03  1.8084075411794340e-02  1.6276381507151140e-02  8.6772613833240309e-03  1.2091557913940829e-02  7.0071335951382620e-03  7.3565459176570822e-03  4.0615115235460358e-03  4.4658956203938761e-03  3.7924076574906563e-03  1.7742828773029483e-02  4.0841741386768047e-03  1.1310027201039432e-02  1.6363079432080027e-02  1.8695065315077350e-02  1.5471601452169841e-02  1.4768302816891725e-02  1.8665927251281619e-02  1.9153041256527992e-02  1.2520500984279301e-02  9.4095709938728008e-03  3.3973784471198918e-03  3.4205068238238735e-03  3.3293222196487866e-03  3.4055316652716132e-03  1.3390608382409491e-02  5.6618549396749325e-03  5.4893235188924376e-03  6.7982461011984116e-03  1.8148931508706247e-02  1.8176584959302629e-02  1.7918484930391991e-02  1.6360698972984658e-02  9.2112109437798191e-03  1.4664233577399578e-02  1.8072746127755154e-02  1.2917220842039039e-02  7.8718085864415300e-03  1.5698353064903688e-02  1.3345565384148201e-02  4.1108583421995849e-03  1.7141946614623899e-02  8.2195832830660853e-03  9.9972524273362010e-03  1.7913492008771566e-02  5.9980594925009073e-03  8.4072363479678197e-03  5.0139373248845737e-03  1.7080026259552843e-02  1.4818792788923667e-02  1.8318330694681327e-02  1.6447551099920427e-02  1.4993216054584221e-02  1.3278771311374223e-02  5.9897756991796128e-03  1.3922201451266884e-02  1.2143890682983294e-02  1.2265283851455925e-02  1.1121932382965650e-02  1.7247956786577315e-02  1.7548530690705819e-02  1.6489234996428508e-02  1.7809777220995669e-02  1.8011616132071782e-02  6.9037517448085686e-03  8.0843050775099342e-03  1.7630455094360793e-02  1.8023706693025002e-02  1.2238973305634171e-02  1.0168226969802817e-02  2.9193156662783086e-03  2.8272124008900737e-03  9.5611218427589240e-03  1.8587989894912105e-02  8.1791972694289089e-03  1.1521270003103739e-03  1.0752435271179914e-03  1.4313173571001635e-02  1.8172973984178321e-02  1.5988887613824741e-02  9.2256459330656519e-03  1.5318518144409900e-02  1.1887014344322757e-02  1.3263978991766057e-02  1.7475382175460834e-02  1.6438106748791276e-02  1.3556069119749024e-02  1.7168565268094058e-02  1.3800239437569715e-02  1.8538288867018662e-02  1.4267002193331364e-02  1.8212134438882276e-02  3.1132755183879541e-03  1.1619904952631975e-02  1.9072500907284101e-02  1.4949799063645143e-02  1.8937747659276364e-02  2.7770906749197723e-03  3.0030594410721204e-03  5.1274214481331383e-03  1.7066162601337954e-02  1.5455838762062014e-02  1.3482181436073339e-03  1.4080283009170944e-03  5.5871431765026599e-03  5.1901418200142550e-03  1.2154381175778004e-02  1.3979713276956129e-02  1.9258821862900181e-02  1.7251552519603936e-02  1.7967773862290599e-02  1.4666772994919265e-02  1.5796460199934366e-02  1.4565489883721040e-02  1.4320015990714962e-02  5.9076725202773179e-03  1.8095356971574345e-02  3.7295497600880944e-03  1.7729759825466936e-02  1.8403535909935178e-02  1.8370988152269455e-02  1.8551981562815258e-02  1.7222095893548273e-02  1.1766821803461070e-02  1.7619122731833671e-02  1.5064568743486443e-02  1.8269205181376293e-02  1.5630302538778357e-02  5.7214786643520902e-03  6.6939292055256698e-03  1.6393544761640660e-02  1.8147215100435366e-02  2.7874628648350999e-03  3.0643212892052791e-03  1.0626578626448563e-02  1.7158645762821757e-02  1.3309467813897236e-02  1.7379977010624419e-02  2.7195805438914368e-03  2.8391145005847111e-03  1.7538008519039253e-02  1.8063336304465900e-02  1.2988931439912104e-02  1.7915101829915153e-02  9.2843626376636883e-03  1.3161168208400655e-02  1.1854160439343942e-02  1.2328531277787367e-03  1.2119110264275710e-03  6.2419359236794616e-03  6.6669569200319160e-03  7.2076076225074748e-03  1.4892688530131974e-02  1.2245661667052592e-02  1.5117223501052225e-02  7.8665148130359769e-03  8.3041894268703342e-03  7.2902935755322570e-03  1.5655067242702284e-02  1.7382698618045797e-02  3.8290600296183477e-03  1.5964421124632588e-02  9.2672904154111006e-03  1.9209619808503893e-02  9.9879590737906926e-04  1.0474525441362588e-03  9.5445222328645139e-03  1.4812240958814175e-02  4.5305349961519796e-03  1.6871388722180043e-02  1.6695096948365653e-02  1.4638313280673061e-02  8.2920505860051008e-03  1.2702967384222842e-02  6.2162971895678041e-03  7.9583444324468362e-03  1.5660634316762619e-02  1.6133970720851373e-02  1.0720173948456922e-02  1.7121155021154633e-02  1.8887927404743751e-02  1.4605840435033143e-02  6.0489370224130704e-03  1.5866317771338130e-02  1.8655333700042128e-02  9.2655376434578312e-03  5.1112096328612654e-03  1.0538766253100237e-02  1.2377274498864643e-03  1.2032435407107603e-03  1.6981719604106191e-02  1.3085421597576509e-02  1.6147177467200253e-02  9.9546395877602042e-04  1.0653964654069054e-03  1.7487340213840907e-02  1.3479930776374155e-02  1.8739895714288402e-02  1.1241661817669561e-02  1.1688000257747940e-02  1.0180255285136938e-02  1.1535876576297430e-02  1.0714038145068961e-02  1.7042418953434658e-02  9.8043127467297331e-04  1.0737755682520629e-03  3.5849430995972824e-03  3.5419714313624949e-03  1.2451125810574884e-02  1.8755022240925609e-02  1.5025059255344949e-02  9.9728458264002895e-03  1.7874316593169605e-02  1.6854947802242025e-02  1.0860321531697062e-02  1.8860988658572362e-02  8.2710425032750060e-03  1.5147429336142514e-02  9.3234559704369908e-03  1.0711841503356627e-03  1.1932544380396037e-03  1.6692853197932168e-02  1.1614564276450589e-03  1.0819413157419624e-03  7.2284225269684012e-03  9.7252917431135102e-04  9.7904988784953853e-04  7.7473777795950211e-03  1.3977915321817521e-02  1.6715183293347008e-02  1.7638507231631424e-02  1.8036332055520764e-02  1.8163495362945977e-02  1.5721233969704887e-02  1.7743187547820716e-02  6.3833777502609367e-03  1.5756297081846161e-02  1.5556859655157351e-02  1.6049483034753925e-02  1.2284202773684787e-02  3.7453441157964669e-03  3.6287759100492954e-03  8.2769740746640435e-03  5.1251920282931011e-03  1.6060289591340100e-02  1.8000540113568730e-02  1.8418538895824562e-02  1.8803408449613826e-02  1.7959636716992522e-02  1.7059984819490465e-02  1.5481493584806296e-02  1.9012489676105925e-02  1.0879359678228893e-02  1.4871043728135091e-02  1.1345762821708256e-02  1.0195639296913745e-02  1.3954415973873008e-02  1.7738823017498521e-02  9.1397804608695497e-04  9.9112649422211652e-04  1.1815564085404105e-02  6.3794424762313121e-03  1.0530834168989265e-02  9.7325567548553205e-03  1.9119659209320256e-02  8.9144310721484335e-03  2.7399553462199590e-03  2.9154080749803058e-03  5.4571427143936284e-03  1.5238269463328624e-02  7.4830874355605159e-03  1.7263499256339368e-02  1.6530254923105937e-02  1.8787559328345489e-02  1.6054187915310457e-02  1.4372504407656420e-02  1.0193538527539733e-02  1.7662258855070202e-02  1.7544628723772136e-02  1.7629231773272257e-02  1.1983331439318566e-02  9.2791802867416805e-03  1.4092614761202431e-02  8.6280012326760466e-03  1.7689348674690675e-02  1.0296867782612507e-02  1.5258124801423809e-02  1.7753161198685908e-02  6.2341000762864435e-03  6.5945952250228267e-03  1.5687412161243190e-02  1.8390299910048966e-02  5.1500206570741719e-03  1.8581293283351570e-02  6.3735648994601886e-03  5.4112192280396211e-03  3.0211923521107570e-03  2.8579072632017883e-03  4.7887520971906239e-03  9.4394974752667546e-03  1.4071372504292488e-02  1.7748341610296956e-02  1.8297334547489354e-02  1.8059136151984762e-02  1.7967995473101721e-02  6.8242343623374814e-03  1.0313088676282800e-02  1.2037764362906074e-02  8.2609946908209185e-03  1.8173065983515185e-02  1.2716526283656016e-02  1.9248668611511775e-02  8.9250176664972380e-03  1.3737431410979219e-02  1.7123606464548097e-02  1.7961524285695828e-02  1.6158732306268891e-02  1.7294981809642857e-02  1.2832866028198088e-02  7.1892080504376002e-03  3.0767958216072195e-03  1.0975815722518205e-02  9