<?xml version="1.0"?>
<VTKFile type="UnstructuredGrid"  version="0.1"  >
<UnstructuredGrid>
<Piece  NumberOfPoints="7491" NumberOfCells="14390">
<Points>
<DataArray  type="Float64"  NumberOfComponents="3"  format="ascii">0 -4.7 0  0 0 0  30 -4.7 0  30 0 0  0 -7.4 0  30 -7.4 0  0 -18.5 0  30 -18.5 0  0 -26.2 0  30 -26.2 0  0 -50 0  30 -50 0  0 -4.600000000000001 0  0 -4.5 0  0 -4.400000000000006 0  0 -4.300000000000004 0  0 -4.200000000000003 0  0 -4.100000000000001 0  0 -4 0  0 -3.900000000000006 0  0 -3.800000000000004 0  0 -3.700000000000003 0  0 -3.600000000000001 0  0 -3.5 0  0 -3.399999999999999 0  0 -3.300000000000004 0  0 -3.200000000000003 0  0 -3.100000000000001 0  0 -3 0  0 -2.899999999999999 0  0 -2.800000000000004 0  0 -2.700000000000003 0  0 -2.600000000000001 0  0 -2.5 0  0 -2.399999999999999 0  0 -2.300000000000004 0  0 -2.200000000000003 0  0 -2.100000000000001 0  0 -2 0  0 -1.899999999999999 0  0 -1.800000000000004 0  0 -1.700000000000003 0  0 -1.600000000000001 0  0 -1.5 0  0 -1.399999999999999 0  0 -1.299999999999997 0  0 -1.200000000000003 0  0 -1.100000000000001 0  0 -1 0  0 -0.8999999999999986 0  0 -0.7999999999999972 0  0 -0.7000000000000028 0  0 -0.6000000000000014 0  0 -0.5 0  0 -0.3999999999999986 0  0 -0.2999999999999972 0  0 -0.2000000000000028 0  0 -0.1000000000000014 0  27.20217989386866 -4.7 0  24.65658906909652 -4.7 0  22.34048801472263 -4.7 0  20.23318823704648 -4.7 0  18.31586556845244 -4.7 0  16.57139348071823 -4.7 0  14.98418876757752 -4.7 0  13.54007369188117 -4.7 0  12.22614858325946 -4.7 0  11.030676339135 -4.7 0  9.942978351836206 -4.7 0  8.953338525856648 -4.7 0  8.05291659827531 -4.7 0  7.233669706591556 -4.7 0  6.488279294550789 -4.7 0  5.810087358879393 -4.7 0  5.193035808349475 -4.7 0  4.63161272757354 -4.7 0  4.120803011558468 -4.7 0  3.656043793650667 -4.7 0  3.233183542557395 -4.7 0  2.848444929339642 -4.7 0  2.498391295710253 -4.7 0  2.179895695159122 -4.7 0  1.890113142755961 -4.7 0  1.626455036319303 -4.7 0  1.386566232068105 -4.7 0  1.168303849643234 -4.7 0  0.9697182933451884 -4.7 0  0.7890355808892515 -4.7 0  0.6246417939513229 -4.7 0  0.4750684255735287 -4.7 0  0.3389794053272652 -4.7 0  0.2151590556389955 -4.7 0  0.1025013769923682 -4.7 0  30 -2.350000000000001 0  0.1025013769923625 0 0  0.2151590556389869 0 0  0.3389794053272567 0 0  0.4750684255735099 0 0  0.6246417939512939 0 0  0.7890355808892227 0 0  0.9697182933451539 0 0  1.168303849643196 0 0  1.38656623206806 0 0  1.626455036319255 0 0  1.890113142755908 0 0  2.179895695159067 0 0  2.498391295710194 0 0  2.848444929339589 0 0  3.23318354255733 0 0  3.656043793650604 0 0  4.120803011558392 0 0  4.631612727573458 0 0  5.193035808349383 0 0  5.810087358879279 0 0  6.488279294550655 0 0  7.233669706591403 0 0  8.052916598275138 0 0  8.953338525856477 0 0  9.94297835183602 0 0  11.03067633913478 0 0  12.22614858325929 0 0  13.54007369188101 0 0  14.98418876757734 0 0  16.57139348071805 0 0  18.31586556845233 0 0  20.23318823704643 0 0  22.34048801472261 0 0  24.65658906909657 0 0  27.20217989386881 0 0  0 -7.299999999999997 0  0 -7.199999999999996 0  0 -7.100000000000001 0  0 -7 0  0 -6.899999999999999 0  0 -6.799999999999997 0  0 -6.700000000000003 0  0 -6.600000000000001 0  0 -6.5 0  0 -6.399999999999999 0  0 -6.299999999999997 0  0 -6.200000000000003 0  0 -6.100000000000001 0  0 -6 0  0 -5.899999999999999 0  0 -5.800000000000004 0  0 -5.700000000000003 0  0 -5.600000000000001 0  0 -5.5 0  0 -5.399999999999999 0  0 -5.300000000000004 0  0 -5.200000000000003 0  0 -5.100000000000001 0  0 -5 0  0 -4.900000000000006 0  0 -4.800000000000004 0  27.20217989386866 -7.4 0  24.65658906909652 -7.4 0  22.34048801472263 -7.4 0  20.23318823704648 -7.4 0  18.31586556845244 -7.4 0  16.57139348071823 -7.4 0  14.98418876757752 -7.4 0  13.54007369188117 -7.4 0  12.22614858325946 -7.4 0  11.030676339135 -7.4 0  9.942978351836206 -7.4 0  8.953338525856648 -7.4 0  8.05291659827531 -7.4 0  7.233669706591556 -7.4 0  6.488279294550789 -7.4 0  5.810087358879393 -7.4 0  5.193035808349475 -7.4 0  4.63161272757354 -7.4 0  4.120803011558468 -7.4 0  3.656043793650667 -7.4 0  3.233183542557395 -7.4 0  2.848444929339642 -7.4 0  2.498391295710253 -7.4 0  2.179895695159122 -7.4 0  1.890113142755961 -7.4 0  1.626455036319303 -7.4 0  1.386566232068105 -7.4 0  1.168303849643234 -7.4 0  0.9697182933451884 -7.4 0  0.7890355808892515 -7.4 0  0.6246417939513229 -7.4 0  0.4750684255735287 -7.4 0  0.3389794053272652 -7.4 0  0.2151590556389955 -7.4 0  0.1025013769923682 -7.4 0  0 -18.4 0  0 -18.3 0  0 -18.2 0  0 -18.1 0  0 -18 0  0 -17.9 0  0 -17.8 0  0 -17.7 0  0 -17.6 0  0 -17.5 0  0 -17.4 0  0 -17.3 0  0 -17.2 0  0 -17.1 0  0 -17 0  0 -16.9 0  0 -16.8 0  0 -16.7 0  0 -16.6 0  0 -16.5 0  0 -16.4 0  0 -16.3 0  0 -16.2 0  0 -16.1 0  0 -16 0  0 -15.9 0  0 -15.8 0  0 -15.7 0  0 -15.6 0  0 -15.5 0  0 -15.4 0  0 -15.3 0  0 -15.2 0  0 -15.1 0  0 -15 0  0 -14.9 0  0 -14.8 0  0 -14.7 0  0 -14.6 0  0 -14.5 0  0 -14.4 0  0 -14.3 0  0 -14.2 0  0 -14.1 0  0 -14 0  0 -13.9 0  0 -13.8 0  0 -13.7 0  0 -13.6 0  0 -13.5 0  0 -13.4 0  0 -13.3 0  0 -13.2 0  0 -13.1 0  0 -13 0  0 -12.9 0  0 -12.8 0  0 -12.7 0  0 -12.6 0  0 -12.5 0  0 -12.4 0  0 -12.3 0  0 -12.2 0  0 -12.1 0  0 -12 0  0 -11.9 0  0 -11.8 0  0 -11.7 0  0 -11.6 0  0 -11.5 0  0 -11.4 0  0 -11.3 0  0 -11.2 0  0 -11.1 0  0 -11 0  0 -10.9 0  0 -10.8 0  0 -10.7 0  0 -10.6 0  0 -10.5 0  0 -10.4 0  0 -10.3 0  0 -10.2 0  0 -10.1 0  0 -10 0  0 -9.899999999999999 0  0 -9.799999999999997 0  0 -9.699999999999996 0  0 -9.600000000000001 0  0 -9.5 0  0 -9.399999999999999 0  0 -9.299999999999997 0  0 -9.199999999999996 0  0 -9.100000000000001 0  0 -9 0  0 -8.899999999999999 0  0 -8.799999999999997 0  0 -8.699999999999996 0  0 -8.599999999999994 0  0 -8.5 0  0 -8.399999999999999 0  0 -8.299999999999997 0  0 -8.199999999999996 0  0 -8.099999999999994 0  0 -8 0  0 -7.899999999999999 0  0 -7.799999999999997 0  0 -7.699999999999996 0  0 -7.599999999999994 0  0 -7.5 0  27.20217989386866 -18.5 0  24.65658906909652 -18.5 0  22.34048801472263 -18.5 0  20.23318823704648 -18.5 0  18.31586556845244 -18.5 0  16.57139348071823 -18.5 0  14.98418876757752 -18.5 0  13.54007369188117 -18.5 0  12.22614858325946 -18.5 0  11.030676339135 -18.5 0  9.942978351836206 -18.5 0  8.953338525856648 -18.5 0  8.05291659827531 -18.5 0  7.233669706591556 -18.5 0  6.488279294550789 -18.5 0  5.810087358879393 -18.5 0  5.193035808349475 -18.5 0  4.63161272757354 -18.5 0  4.120803011558468 -18.5 0  3.656043793650667 -18.5 0  3.233183542557395 -18.5 0  2.848444929339642 -18.5 0  2.498391295710253 -18.5 0  2.179895695159122 -18.5 0  1.890113142755961 -18.5 0  1.626455036319303 -18.5 0  1.386566232068105 -18.5 0  1.168303849643234 -18.5 0  0.9697182933451884 -18.5 0  0.7890355808892515 -18.5 0  0.6246417939513229 -18.5 0  0.4750684255735287 -18.5 0  0.3389794053272652 -18.5 0  0.2151590556389955 -18.5 0  0.1025013769923682 -18.5 0  30 -10.175 0  30 -12.95000000000001 0  30 -15.72500000000001 0  0 -26.1 0  0 -26 0  0 -25.9 0  0 -25.8 0  0 -25.7 0  0 -25.6 0  0 -25.5 0  0 -25.4 0  0 -25.3 0  0 -25.2 0  0 -25.1 0  0 -25 0  0 -24.9 0  0 -24.8 0  0 -24.7 0  0 -24.6 0  0 -24.5 0  0 -24.4 0  0 -24.3 0  0 -24.2 0  0 -24.1 0  0 -24 0  0 -23.9 0  0 -23.8 0  0 -23.7 0  0 -23.6 0  0 -23.5 0  0 -23.4 0  0 -23.3 0  0 -23.2 0  0 -23.1 0  0 -23 0  0 -22.9 0  0 -22.8 0  0 -22.7 0  0 -22.6 0  0 -22.5 0  0 -22.4 0  0 -22.3 0  0 -22.2 0  0 -22.1 0  0 -22 0  0 -21.9 0  0 -21.8 0  0 -21.7 0  0 -21.6 0  0 -21.5 0  0 -21.4 0  0 -21.3 0  0 -21.2 0  0 -21.1 0  0 -21 0  0 -20.9 0  0 -20.8 0  0 -20.7 0  0 -20.6 0  0 -20.5 0  0 -20.4 0  0 -20.3 0  0 -20.2 0  0 -20.1 0  0 -20 0  0 -19.9 0  0 -19.8 0  0 -19.7 0  0 -19.6 0  0 -19.5 0  0 -19.4 0  0 -19.3 0  0 -19.2 0  0 -19.1 0  0 -19 0  0 -18.9 0  0 -18.8 0  0 -18.7 0  0 -18.6 0  27.20217989386866 -26.2 0  24.65658906909652 -26.2 0  22.34048801472263 -26.2 0  20.23318823704648 -26.2 0  18.31586556845244 -26.2 0  16.57139348071823 -26.2 0  14.98418876757752 -26.2 0  13.54007369188117 -26.2 0  12.22614858325946 -26.2 0  11.030676339135 -26.2 0  9.942978351836206 -26.2 0  8.953338525856648 -26.2 0  8.05291659827531 -26.2 0  7.233669706591556 -26.2 0  6.488279294550789 -26.2 0  5.810087358879393 -26.2 0  5.193035808349475 -26.2 0  4.63161272757354 -26.2 0  4.120803011558468 -26.2 0  3.656043793650667 -26.2 0  3.233183542557395 -26.2 0  2.848444929339642 -26.2 0  2.498391295710253 -26.2 0  2.179895695159122 -26.2 0  1.890113142755961 -26.2 0  1.626455036319303 -26.2 0  1.386566232068105 -26.2 0  1.168303849643234 -26.2 0  0.9697182933451884 -26.2 0  0.7890355808892515 -26.2 0  0.6246417939513229 -26.2 0  0.4750684255735287 -26.2 0  0.3389794053272652 -26.2 0  0.2151590556389955 -26.2 0  0.1025013769923682 -26.2 0  30 -21.06666666666667 0  30 -23.63333333333334 0  0 -49.9 0  0 -49.8 0  0 -49.7 0  0 -49.6 0  0 -49.5 0  0 -49.4 0  0 -49.3 0  0 -49.2 0  0 -49.1 0  0 -49 0  0 -48.9 0  0 -48.8 0  0 -48.7 0  0 -48.6 0  0 -48.5 0  0 -48.40000000000001 0  0 -48.3 0  0 -48.2 0  0 -48.1 0  0 -48 0  0 -47.90000000000001 0  0 -47.8 0  0 -47.7 0  0 -47.6 0  0 -47.5 0  0 -47.40000000000001 0  0 -47.3 0  0 -47.2 0  0 -47.1 0  0 -47.00000000000001 0  0 -46.90000000000001 0  0 -46.8 0  0 -46.7 0  0 -46.6 0  0 -46.50000000000001 0  0 -46.40000000000001 0  0 -46.3 0  0 -46.2 0  0 -46.10000000000001 0  0 -46.00000000000001 0  0 -45.90000000000001 0  0 -45.8 0  0 -45.7 0  0 -45.60000000000001 0  0 -45.50000000000001 0  0 -45.40000000000001 0  0 -45.3 0  0 -45.2 0  0 -45.10000000000001 0  0 -45.00000000000001 0  0 -44.90000000000001 0  0 -44.8 0  0 -44.70000000000001 0  0 -44.60000000000001 0  0 -44.50000000000001 0  0 -44.40000000000001 0  0 -44.30000000000001 0  0 -44.20000000000001 0  0 -44.10000000000001 0  0 -44.00000000000001 0  0 -43.90000000000001 0  0 -43.80000000000001 0  0 -43.70000000000001 0  0 -43.60000000000001 0  0 -43.50000000000001 0  0 -43.40000000000001 0  0 -43.30000000000001 0  0 -43.20000000000001 0  0 -43.10000000000002 0  0 -43.00000000
[...]
<PointData  Scalars="pressure_head"> 
<DataArray  type="Float64"  Name="pressure_head"  format="ascii">4.7000000000000055e+00  9.2557482887211735e-18  4.7000000000000011e+00  0.0000000000000000e+00  7.4000000000000012e+00  7.4000000000000083e+00  1.8500000000000014e+01  1.8500000000000000e+01  2.6200000000000006e+01  2.6200000000000042e+01  5.0000000000000036e+01  5.0000000000000021e+01  4.6000000000000041e+00  4.5000000000000018e+00  4.4000000000000092e+00  4.3000000000000060e+00  4.2000000000000020e+00  4.1000000000000014e+00  4.0000000000000018e+00  3.9000000000000097e+00  3.8000000000000052e+00  3.7000000000000046e+00  3.6000000000000019e+00  3.5000000000000018e+00  3.3999999999999999e+00  3.3000000000000047e+00  3.2000000000000042e+00  3.1000000000000028e+00  3.0000000000000004e+00  2.9000000000000004e+00  2.8000000000000056e+00  2.7000000000000051e+00  2.6000000000000005e+00  2.4999999999999996e+00  2.3999999999999990e+00  2.3000000000000052e+00  2.2000000000000055e+00  2.1000000000000005e+00  2.0000000000000022e+00  1.8999999999999990e+00  1.8000000000000040e+00  1.7000000000000042e+00  1.6000000000000005e+00  1.4999999999999998e+00  1.4000000000000001e+00  1.2999999999999974e+00  1.2000000000000033e+00  1.1000000000000010e+00  1.0000000000000000e+00  8.9999999999999836e-01  7.9999999999999705e-01  7.0000000000000284e-01  6.0000000000000142e-01  5.0000000000000022e-01  3.9999999999999836e-01  2.9999999999999732e-01  2.0000000000000270e-01  1.0000000000000143e-01  4.7000000000000046e+00  4.6999999999999975e+00  4.7000000000000028e+00  4.6999999999999993e+00  4.7000000000000028e+00  4.7000000000000055e+00  4.7000000000000028e+00  4.7000000000000046e+00  4.6999999999999993e+00  4.6999999999999957e+00  4.6999999999999975e+00  4.6999999999999984e+00  4.7000000000000037e+00  4.7000000000000028e+00  4.7000000000000037e+00  4.7000000000000046e+00  4.7000000000000011e+00  4.7000000000000020e+00  4.7000000000000002e+00  4.7000000000000020e+00  4.7000000000000002e+00  4.7000000000000037e+00  4.7000000000000020e+00  4.7000000000000028e+00  4.7000000000000020e+00  4.7000000000000002e+00  4.7000000000000037e+00  4.7000000000000002e+00  4.7000000000000020e+00  4.6999999999999993e+00  4.6999999999999993e+00  4.7000000000000020e+00  4.7000000000000064e+00  4.6999999999999993e+00  4.7000000000000011e+00  2.3500000000000019e+00  -1.7501069514122208e-17  3.7060984787754514e-17  -4.6243547523695648e-18  1.0514227468290046e-17  6.0725215413799127e-19  3.3407402907378263e-17  2.3356404040383091e-17  1.4852688159101419e-17  5.8720445396885279e-17  0.0000000000000000e+00  2.5515652217770389e-17  -6.3229890646696363e-17  7.4322072853486552e-17  5.6417701902598848e-17  8.7676216568348768e-17  1.3312392451512269e-16  1.0937687545740549e-16  -9.8815980002930278e-17  4.7044737617650136e-17  -5.9497193749007692e-17  -1.2687662454651041e-16  4.6271315330640823e-16  0.0000000000000000e+00  1.9710611074098824e-16  7.9601359597346792e-19  0.0000000000000000e+00  3.4652556648801476e-16  4.8750555114560493e-16  -9.1563552780171326e-17  -3.3316255992141314e-16  5.8532945580981304e-16  -5.4175387378011247e-16  7.7061297655169667e-16  -4.9681569132973189e-16  -5.7435697155115510e-17  7.2999999999999980e+00  7.1999999999999984e+00  7.1000000000000023e+00  7.0000000000000018e+00  6.9000000000000048e+00  6.7999999999999954e+00  6.7000000000000020e+00  6.6000000000000005e+00  6.4999999999999991e+00  6.4000000000000012e+00  6.2999999999999972e+00  6.2000000000000091e+00  6.1000000000000032e+00  5.9999999999999964e+00  5.8999999999999986e+00  5.8000000000000087e+00  5.7000000000000037e+00  5.6000000000000005e+00  5.5000000000000027e+00  5.3999999999999995e+00  5.3000000000000069e+00  5.2000000000000037e+00  5.1000000000000041e+00  5.0000000000000053e+00  4.9000000000000066e+00  4.8000000000000060e+00  7.4000000000000030e+00  7.4000000000000004e+00  7.4000000000000057e+00  7.4000000000000021e+00  7.4000000000000030e+00  7.4000000000000030e+00  7.4000000000000030e+00  7.4000000000000110e+00  7.4000000000000021e+00  7.4000000000000066e+00  7.4000000000000039e+00  7.3999999999999995e+00  7.4000000000000039e+00  7.4000000000000039e+00  7.4000000000000030e+00  7.4000000000000066e+00  7.3999999999999906e+00  7.4000000000000075e+00  7.3999999999999977e+00  7.4000000000000012e+00  7.4000000000000030e+00  7.4000000000000066e+00  7.4000000000000066e+00  7.4000000000000057e+00  7.3999999999999986e+00  7.4000000000000057e+00  7.4000000000000004e+00  7.4000000000000039e+00  7.4000000000000012e+00  7.3999999999999977e+00  7.4000000000000048e+00  7.4000000000000004e+00  7.4000000000000004e+00  7.4000000000000039e+00  7.4000000000000012e+00  1.8399999999999995e+01  1.8300000000000011e+01  1.8199999999999989e+01  1.8100000000000016e+01  1.8000000000000011e+01  1.7900000000000006e+01  1.7800000000000008e+01  1.7700000000000006e+01  1.7600000000000016e+01  1.7500000000000000e+01  1.7399999999999999e+01  1.7299999999999997e+01  1.7200000000000006e+01  1.7100000000000005e+01  1.7000000000000007e+01  1.6900000000000002e+01  1.6800000000000001e+01  1.6700000000000003e+01  1.6600000000000005e+01  1.6500000000000000e+01  1.6399999999999991e+01  1.6300000000000008e+01  1.6200000000000010e+01  1.6099999999999998e+01  1.6000000000000007e+01  1.5900000000000007e+01  1.5800000000000002e+01  1.5700000000000010e+01  1.5600000000000007e+01  1.5500000000000005e+01  1.5400000000000006e+01  1.5300000000000011e+01  1.5200000000000008e+01  1.5100000000000001e+01  1.5000000000000007e+01  1.4900000000000000e+01  1.4800000000000006e+01  1.4699999999999998e+01  1.4600000000000003e+01  1.4500000000000009e+01  1.4399999999999990e+01  1.4300000000000004e+01  1.4200000000000006e+01  1.4100000000000000e+01  1.4000000000000000e+01  1.3900000000000009e+01  1.3800000000000004e+01  1.3700000000000005e+01  1.3599999999999993e+01  1.3500000000000009e+01  1.3400000000000000e+01  1.3300000000000002e+01  1.3200000000000001e+01  1.3100000000000005e+01  1.3000000000000009e+01  1.2900000000000007e+01  1.2800000000000006e+01  1.2700000000000006e+01  1.2600000000000010e+01  1.2500000000000000e+01  1.2400000000000000e+01  1.2300000000000006e+01  1.2200000000000010e+01  1.2099999999999993e+01  1.2000000000000004e+01  1.1900000000000004e+01  1.1800000000000001e+01  1.1700000000000003e+01  1.1600000000000000e+01  1.1500000000000005e+01  1.1400000000000000e+01  1.1300000000000001e+01  1.1200000000000006e+01  1.1100000000000005e+01  1.1000000000000002e+01  1.0900000000000006e+01  1.0799999999999999e+01  1.0700000000000003e+01  1.0600000000000005e+01  1.0500000000000007e+01  1.0400000000000006e+01  1.0300000000000008e+01  1.0200000000000001e+01  1.0100000000000003e+01  1.0000000000000000e+01  9.9000000000000128e+00  9.7999999999999989e+00  9.7000000000000046e+00  9.6000000000000050e+00  9.4999999999999982e+00  9.3999999999999968e+00  9.3000000000000043e+00  9.1999999999999975e+00  9.1000000000000068e+00  9.0000000000000000e+00  8.8999999999999986e+00  8.8000000000000025e+00  8.6999999999999957e+00  8.6000000000000032e+00  8.5000000000000000e+00  8.4000000000000075e+00  8.2999999999999989e+00  8.2000000000000011e+00  8.0999999999999979e+00  7.9999999999999982e+00  7.9000000000000048e+00  7.7999999999999980e+00  7.7000000000000002e+00  7.5999999999999979e+00  7.5000000000000018e+00  1.8500000000000011e+01  1.8500000000000018e+01  1.8499999999999996e+01  1.8500000000000007e+01  1.8500000000000011e+01  1.8500000000000011e+01  1.8499999999999996e+01  1.8499999999999996e+01  1.8500000000000011e+01  1.8500000000000004e+01  1.8500000000000021e+01  1.8499999999999993e+01  1.8500000000000014e+01  1.8499999999999996e+01  1.8500000000000007e+01  1.8500000000000004e+01  1.8500000000000011e+01  1.8500000000000007e+01  1.8499999999999996e+01  1.8500000000000011e+01  1.8499999999999993e+01  1.8500000000000007e+01  1.8500000000000000e+01  1.8500000000000014e+01  1.8500000000000004e+01  1.8500000000000007e+01  1.8500000000000004e+01  1.8500000000000004e+01  1.8500000000000018e+01  1.8500000000000004e+01  1.8499999999999975e+01  1.8500000000000014e+01  1.8500000000000004e+01  1.8500000000000004e+01  1.8500000000000004e+01  1.0175000000000010e+01  1.2950000000000006e+01  1.5725000000000014e+01  2.6100000000000012e+01  2.6000000000000014e+01  2.5900000000000002e+01  2.5800000000000011e+01  2.5699999999999992e+01  2.5600000000000005e+01  2.5500000000000014e+01  2.5400000000000013e+01  2.5300000000000011e+01  2.5200000000000003e+01  2.5100000000000001e+01  2.5000000000000021e+01  2.4900000000000016e+01  2.4799999999999997e+01  2.4700000000000028e+01  2.4600000000000019e+01  2.4500000000000014e+01  2.4399999999999999e+01  2.4299999999999990e+01  2.4200000000000010e+01  2.4100000000000016e+01  2.4000000000000004e+01  2.3899999999999995e+01  2.3800000000000004e+01  2.3699999999999996e+01  2.3600000000000005e+01  2.3500000000000018e+01  2.3400000000000002e+01  2.3299999999999976e+01  2.3200000000000006e+01  2.3100000000000019e+01  2.2999999999999996e+01  2.2900000000000006e+01  2.2800000000000015e+01  2.2700000000000014e+01  2.2599999999999994e+01  2.2500000000000021e+01  2.2400000000000006e+01  2.2300000000000004e+01  2.2200000000000006e+01  2.2100000000000005e+01  2.2000000000000011e+01  2.1899999999999999e+01  2.1800000000000008e+01  2.1700000000000006e+01  2.1600000000000005e+01  2.1500000000000004e+01  2.1399999999999999e+01  2.1300000000000018e+01  2.1199999999999992e+01  2.1100000000000012e+01  2.1000000000000004e+01  2.0900000000000002e+01  2.0800000000000001e+01  2.0700000000000006e+01  2.0600000000000001e+01  2.0500000000000014e+01  2.0399999999999999e+01  2.0300000000000004e+01  2.0200000000000010e+01  2.0100000000000001e+01  2.0000000000000011e+01  1.9900000000000016e+01  1.9800000000000008e+01  1.9700000000000024e+01  1.9600000000000016e+01  1.9500000000000018e+01  1.9400000000000002e+01  1.9300000000000015e+01  1.9200000000000006e+01  1.9100000000000016e+01  1.9000000000000007e+01  1.8900000000000009e+01  1.8800000000000004e+01  1.8700000000000017e+01  1.8600000000000005e+01  2.6200000000000003e+01  2.6200000000000003e+01  2.6200000000000010e+01  2.6200000000000006e+01  2.6200000000000014e+01  2.6200000000000003e+01  2.6200000000000017e+01  2.6199999999999932e+01  2.6200000000000028e+01  2.6200000000000010e+01  2.6200000000000021e+01  2.6200000000000028e+01  2.6199999999999999e+01  2.6199999999999985e+01  2.6200000000000021e+01  2.6199999999999989e+01  2.6200000000000010e+01  2.6200000000000010e+01  2.6200000000000006e+01  2.6200000000000017e+01  2.6200000000000014e+01  2.6200000000000010e+01  2.6200000000000021e+01  2.6199999999999996e+01  2.6200000000000003e+01  2.6200000000000017e+01  2.6200000000000028e+01  2.6199999999999982e+01  2.6200000000000006e+01  2.6200000000000010e+01  2.6200000000000024e+01  2.6199999999999985e+01  2.6200000000000017e+01  2.6200000000000010e+01  2.6200000000000006e+01  2.1066666666666695e+01  2.3633333333333326e+01  4.9900000000000041e+01  4.9800000000000004e+01  4.9700000000000053e+01  4.9600000000000037e+01  4.9500000000000007e+01  4.9400000000000006e+01  4.9300000000000026e+01  4.9199999999999996e+01  4.9100000000000016e+01  4.9000000000000036e+01  4.8899999999999970e+01  4.8800000000000004e+01  4.8700000000000060e+01  4.8600000000000016e+01  4.8500000000000014e+01  4.8399999999999991e+01  4.8300000000000011e+01  4.8200000000000017e+01  4.8100000000000016e+01  4.8000000000000014e+01  4.7900000000000041e+01  4.7799999999999976e+01  4.7699999999999996e+01  4.7600000000000009e+01  4.7500000000000028e+01  4.7399999999999999e+01  4.7300000000000018e+01  4.7200000000000010e+01  4.7100000000000009e+01  4.7000000000000028e+01  4.6900000000000041e+01  4.6799999999999983e+01  4.6699999999999996e+01  4.6600000000000023e+01  4.6499999999999964e+01  4.6400000000000013e+01  4.6300000000000026e+01  4.6199999999999989e+01  4.6100000000000016e+01  4.6000000000000036e+01  4.5899999999999984e+01  4.5800000000000018e+01  4.5700000000000038e+01  4.5600000000000016e+01  4.5500000000000028e+01  4.5400000000000027e+01  4.5300000000000018e+01  4.5200000000000024e+01  4.5100000000000001e+01  4.5000000000000043e+01  4.4900000000000006e+01  4.4800000000000018e+01  4.4700000000000003e+01  4.4600000000000023e+01  4.4500000000000014e+01  4.4400000000000020e+01  4.4300000000000018e+01  4.4200000000000038e+01  4.4100000000000044e+01  4.4000000000000014e+01  4.3900000000000048e+01  4.3800000000000026e+01  4.3700000000000003e+01  4.3600000000000023e+01  4.3500000000000000e+01  4.3400000000000006e+01  4.3300000000000018e+01  4.3200000000000003e+01  4.3100000000000051e+01  4.3000000000000000e+01  4.2900000000000041e+01  4.2800000000000004e+01  4.2700000000000024e+01  4.2600000000000016e+01  4.2500000000000000e+01  4.2400000000000041e+01  4.2300000000000026e+01  4.2200000000000017e+01  4.2100000000000030e+01  4.2000000000000014e+01  4.1900000000000034e+01  4.1800000000000026e+01  4.1700000000000060e+01  4.1600000000000044e+01  4.1499999999999986e+01  4.1400000000000041e+01  4.1300000000000011e+01  4.1200000000000053e+01  4.1100000000000051e+01  4.1000000000000021e+01  4.0900000000000013e+01  4.0800000000000047e+01  4.0700000000000017e+01  4.0600000000000044e+01  4.0500000000000021e+01  4.0400000000000034e+01  4.0300000000000026e+01  4.0200000000000060e+01  4.0100000000000009e+01  4.0000000000000036e+01  3.9900000000000041e+01  3.9799999999999990e+01  3.9700000000000045e+01  3.9600000000000044e+01  3.9500000000000021e+01  3.9399999999999999e+01  3.9300000000000047e+01  3.9200000000000017e+01  3.9100000000000044e+01  3.9000000000000014e+01  3.8900000000000048e+01  3.8800000000000018e+01  3.8700000000000024e+01  3.8600000000000037e+01  3.8500000000000021e+01  3.8400000000000027e+01  3.8300000000000047e+01  3.8200000000000024e+01  3.8100000000000030e+01  3.8000000000000028e+01  3.7900000000000041e+01  3.7800000000000054e+01  3.7700000000000031e+01  3.7600000000000044e+01  3.7500000000000043e+01  3.7400000000000034e+01  3.7300000000000040e+01  3.7200000000000060e+01  3.7100000000000030e+01  3.7000000000000036e+01  3.6900000000000048e+01  3.6800000000000040e+01  3.6700000000000053e+01  3.6600000000000037e+01  3.6500000000000036e+01  3.6400000000000041e+01  3.6300000000000047e+01  3.6200000000000045e+01  3.6100000000000037e+01  3.6000000000000071e+01  3.5900000000000034e+01  3.5800000000000054e+01  3.5700000000000024e+01  3.5600000000000058e+01  3.5500000000000043e+01  3.5400000000000048e+01  3.5300000000000054e+01  3.5200000000000074e+01  3.5100000000000044e+01  3.5000000000000057e+01  3.4900000000000034e+01  3.4800000000000040e+01  3.4700000000000045e+01  3.4600000000000051e+01  3.4500000000000014e+01  3.4400000000000048e+01  3.4300000000000061e+01  3.4200000000000031e+01  3.4100000000000051e+01  3.4000000000000050e+01  3.3900000000000041e+01  3.3800000000000047e+01  3.3700000000000038e+01  3.3600000000000023e+01  3.3500000000000028e+01  3.3400000000000013e+01  3.3300000000000047e+01  3.3200000000000031e+01  3.3100000000000044e+01  3.3000000000000043e+01  3.2900000000000034e+01  3.2800000000000040e+01  3.2700000000000045e+01  3.2600000000000044e+01  3.2500000000000036e+01  3.2400000000000055e+01  3.2300000000000011e+01  3.2200000000000045e+01  3.2100000000000023e+01  3.2000000000000028e+01  3.1900000000000041e+01  3.1800000000000047e+01  3.1700000000000038e+01  3.1600000000000026e+01  3.1500000000000057e+01  3.1400000000000023e+01  3.1300000000000029e+01  3.1200000000000010e+01  3.1100000000000044e+01  3.1000000000000039e+01  3.0900000000000041e+01  3.0800000000000018e+01  3.0700000000000021e+01  3.0600000000000019e+01  3.0500000000000078e+01  3.0400000000000023e+01  3.0300000000000029e+01  3.0200000000000028e+01  3.0100000000000016e+01  3.0000000000000032e+01  2.9900000000000034e+01  2.9800000000000026e+01  2.9700000000000024e+01  2.9600000000000012e+01  2.9500000000000028e+01  2.9400000000000020e+01  2.9299999999999997e+01  2.9200000000000017e+01  2.9100000000000012e+01  2.9000000000000014e+01  2.8900000000000038e+01  2.8800000000000036e+01  2.8700000000000021e+01  2.8600000000000023e+01  2.8500000000000032e+01  2.8400000000000034e+01  2.8300000000000018e+01  2.8200000000000017e+01  2.8100000000000016e+01  2.8000000000000018e+01  2.7900000000000009e+01  2.7800000000000033e+01  2.7700000000000010e+01  2.7600000000000005e+01  2.7500000000000007e+01  2.7400000000000016e+01  2.7300000000000004e+01  2.7200000000000017e+01  2.7099999999999998e+01  2.7000000000000025e+01  2.6900000000000023e+01  2.6799999999999994e+01  2.6700000000000006e+01  2.6600000000000019e+01  2.6499999999999993e+01  2.6400000000000016e+01  2.6300000000000004e+01  5.0000000000000036e+01  4.9999999999999986e+01  5.0000000000000057e+01  5.0000000000000021e+01  5.0000000000000014e+01  5.0000000000000021e+01  5.0000000000000028e+01  5.0000000000000021e+01  5.0000000000000007e+01  5.0000000000000000e+01  5.0000000000000014e+01  5.0000000000000028e+01  4.9999999999999993e+01  5.0000000000000114e+01  5.0000000000000000e+01  5.0000000000000007e+01  5.0000000000000021e+01  5.0000000000000057e+01  5.0000000000000007e+01  4.9999999999999993e+01  4.9999999999999993e+01  5.0000000000000028e+01  5.0000000000000007e+01  5.0000000000000043e+01  5.0000000000000000e+01  5.0000000000000014e+01  5.0000000000000064e+01  5.0000000000000000e+01  5.0000000000000021e+01  5.0000000000000000e+01  5.0000000000000007e+01  5.0000000000000028e+01  4.9999999999999993e+01  5.0000000000000000e+01  5.0000000000000021e+01  2.9175000000000018e+01  3.2150000000000020e+01  3.5125000000000007e+01  3.8100000000000030e+01  4.1075000000000031e+01  4.4050000000000026e+01  4.7024999999999984e+01  2.4431092318308116e+00  1.3499999999996901e+00  3.4499999999999873e+00  2.4465745228028641e+00  7.5732174415805542e-01  4.0497864024456209e+00  2.3500000000000059e+00  1.8664674334751017e+00  3.0870055209914673e+00  1.2474828255745143e+00  1.2551459063622736e+00  3.5499999999999217e+00  3.5999314739652055e+00  2.3549424106986927e+00  4.6100787412244065e-01  2.3051433030808255e+00  2.8745805269430180e+00  2.7491410762147250e+00  6.9137339907481288e-01  4.0935149398763135e+00  4.3473178790331852e+00  2.0332034980405225e+00  8.5000000000013687e-01  2.8364088601360904e+00  1.6474826589375697e+00  1.2417792156261167e+00  3.8499999999999264e+00  3.2411513692146308e+00  2.0606732065605518e+00  2.2880452466986791e+00  1.9982408528603333e+00  1.0533693897583019e+00  1.4463086057910925e+00  3.7009083012676389e+00  3.7491030389334097e+00  3.6168856798651787e+00  3.1854063870989364e+00  1.8927380097590323e+00  3.7526675748015128e+00  2.9233341928716605e+00  1.2785355052557890e+00  3.8773826543929973e-01  1.1530666931735354e+00  2.5707605602108441e-01  2.4548663104171315e+00  1.1005156792567166e+00  2.9488413812138794e+00  4.3728500093436802e+00  3.5499999999999186e+00  1.7975618112818117e+00  2.6820722400263288e+00  4.1050441887984190e+00  1.4336582907356756e+00  6.5550435900267356e-01  3.3745495222723094e+00  2.3677134418461998e+00  5.3630381038838260e-01  2.1784975605707335e+00  2.9645910864488823e+00  1.8556118413665970e+00  4.2616531042145152e+00  7.7838383045812110e-01  6.0584859370909094e-01  4.1551071778702369e+00  1.5483626112355862e+00  4.3616198931732928e+00  3.2480905198445269e+00  2.4348061790883504e+00  2.2537148528201882e+00  2.6499999999998933e+00  3.8038299228844641e-01  2.3499999999999850e+00  1.1825062717227308e+00  1.5641792483795471e+00  4.5838685296081078e-01  8.3763884375782682e-01  2.1059520582822531e+00  9.5000000000004980e-01  9.8063415893630512e-01  2.2132186364319235e+00  3.7898863530372342e+00  4.5037716547909863e+00  1.4747480483461977e+00  3.2338375840681568e+00  4.0255153390926708e+00  2.2408538629579777e-01  1.4279460817670468e+00  1.8627055164793742e+00  3.5449417854406904e+00  3.7391342394067220e+00  3.3621274611024026e+00  3.1500000000000030e+00  1.6288261736152025e+00  3.0502749816353836e+00  3.1488070930521999e+00  3.3163192957274603e+00  3.9465127148915182e+00  4.2494661711783728e+00  2.111371337830