<?xml version="1.0"?>
<VTKFile type="UnstructuredGrid"  version="0.1"  >
<UnstructuredGrid>
<Piece  NumberOfPoints="1855" NumberOfCells="3532">
<Points>
<DataArray  type="Float64"  NumberOfComponents="3"  format="ascii">0 0 0  30 0 0  30 -10 0  0 -10 0  0.1391574078963744 0 0  0.2856388821882616 0 0  0.4398299073010886 0 0  0.6021362569539473 0 0  0.7729850389704483 0 0  0.9528258543586996 0 0  1.142131984380316 0 0  1.34140159760994 0 0  1.551159074717981 0 0  1.771956417032531 0 0  2.004374674080994 0 0  2.249025475789527 0 0  2.506552636773105 0 0  2.777633857742732 0 0  3.062982518028728 0 0  3.363349525995907 0 0  3.679525322337712 0 0  4.01234195575742 0 0  4.362675247811097 0 0  4.731447135329707 0 0  5.119628065610077 0 0  5.528239565804708 0 0  5.958356943167011 0 0  6.411112081475485 0 0  6.887696441559404 0 0  7.389364184530748 0 0  7.917435485335147 0 0  8.473300005202017 0 0  9.058420557070402 0 0  9.674336929103793 0 0  10.32266995225095 0 0  11.00512576896296 0 0  11.72350030646412 0 0  12.47968402994705 0 0  13.27566689579597 0 0  14.1135435963616 0 0  14.9955190732806 0 0  15.92391430904694 0 0  16.90117245730496 0 0  17.92986524844506 0 0  19.01269976086341 0 0  20.15252556282024 0 0  21.35234220269763 0 0  22.61530708683689 0 0  23.94474379751883 0 0  25.34415086349739 0 0  26.81721093579712 0 0  28.3678004819169 0 0  30 -1.111111111111111 0  30 -2.222222222222222 0  30 -3.333333333333333 0  30 -4.444444444444445 0  30 -5.555555555555555 0  30 -6.666666666666666 0  30 -7.777777777777777 0  30 -8.888888888888889 0  28.36780047917311 -10 0  26.8172109305839 -10 0  25.34415085606858 -10 0  23.94474378810899 -10 0  22.61530707566275 -10 0  21.3523421899591 -10 0  20.15252554870171 -10 0  19.01269974553473 -10 0  17.92986523206254 -10 0  16.90117244001232 -10 0  15.92391429097614 -10 0  14.99551905455266 -10 0  14.11354357708742 -10 0  13.27566687607703 -10 0  12.47968400987599 -10 0  11.72350028612546 -10 0  11.00512574843363 -10 0  10.32266993160086 -10 0  9.674336908396342 -10 0  9.058420536362949 -10 0  8.473299984546333 -10 0  7.917435464777824 -10 0  7.389364164113587 -10 0  6.887696420787165 -10 0  6.411112061446698 -10 0  5.95835692337857 -10 0  5.528239546282652 -10 0  5.119628046377237 -10 0  4.731447115907979 -10 0  4.362675229213632 -10 0  4.012341937260036 -10 0  3.679525304434552 -10 0  3.363349508456405 -10 0  3.062982500861274 -10 0  2.777633840953978 -10 0  2.506552620368097 -10 0  2.249025459771861 -10 0  2.004374658452946 -10 0  1.771956401795187 -10 0  1.551159059871345 -10 0  1.341401583153029 -10 0  1.142131970307521 -10 0  0.9528258406748833 -10 0  0.7729850256685147 -10 0  0.6021362439621285 -10 0  0.4398298947504031 -10 0  0.2856388700059078 -10 0  0.1391573960769001 -10 0  0 -9.855072463768115 0  0 -9.710144927536232 0  0 -9.565217391304348 0  0 -9.420289855072463 0  0 -9.27536231884058 0  0 -9.130434782608695 0  0 -8.985507246376812 0  0 -8.840579710144928 0  0 -8.695652173913043 0  0 -8.55072463768116 0  0 -8.405797101449275 0  0 -8.260869565217391 0  0 -8.115942028985508 0  0 -7.971014492753623 0  0 -7.826086956521739 0  0 -7.681159420289855 0  0 -7.536231884057971 0  0 -7.391304347826087 0  0 -7.246376811594203 0  0 -7.101449275362318 0  0 -6.956521739130435 0  0 -6.811594202898551 0  0 -6.666666666666667 0  0 -6.521739130434783 0  0 -6.376811594202898 0  0 -6.231884057971015 0  0 -6.086956521739131 0  0 -5.942028985507246 0  0 -5.797101449275362 0  0 -5.652173913043478 0  0 -5.507246376811594 0  0 -5.36231884057971 0  0 -5.217391304347826 0  0 -5.072463768115941 0  0 -4.927536231884058 0  0 -4.782608695652174 0  0 -4.637681159420289 0  0 -4.492753623188406 0  0 -4.347826086956522 0  0 -4.202898550724638 0  0 -4.057971014492754 0  0 -3.913043478260869 0  0 -3.768115942028985 0  0 -3.623188405797101 0  0 -3.478260869565217 0  0 -3.333333333333334 0  0 -3.188405797101449 0  0 -3.043478260869565 0  0 -2.898550724637681 0  0 -2.753623188405797 0  0 -2.608695652173912 0  0 -2.463768115942029 0  0 -2.318840579710145 0  0 -2.173913043478261 0  0 -2.028985507246377 0  0 -1.884057971014492 0  0 -1.739130434782609 0  0 -1.594202898550725 0  0 -1.44927536231884 0  0 -1.304347826086957 0  0 -1.159420289855072 0  0 -1.014492753623188 0  0 -0.8695652173913047 0  0 -0.72463768115942 0  0 -0.579710144927537 0  0 -0.4347826086956523 0  0 -0.2898550724637676 0  0 -0.1449275362318829 0  5.15859856094262 -4.976557621770688 0  2.816777084926057 -7.160262673925935 0  2.81677708460006 -2.839737326002783 0  2.227649803257325 -5.003121586636773 0  1.518662968975629 -8.46230852045241 0  1.518662969184829 -1.537691480152612 0  9.960740911025725 -5.055901393541221 0  1.491099662214591 -3.691833922963321 0  1.503675657181264 -6.345020369042368 0  5.319208041801049 -7.493850249937013 0  5.291109955459268 -2.489368743223226 0  1.096914507335763 -2.53623188405797 0  1.096914507253562 -7.463768115942029 0  1.089580194952752 -4.71277167923441 0  15.07565076110197 -5.047572991082069 0  7.501630508673601 -5.937500100385354 0  0.8894869418764504 -5.623930488933245 0  2.955144522453978 -1.440834296472408 0  2.955144521140721 -8.559165705576945 0  8.106603955004623 -2.748811534843258 0  3.662152539483591 -4.228178367024407 0  3.662181528265114 -5.771746159989156 0  0.8436558190317136 -0.8541050638451999 0  0.8436558075840921 -9.145894948342754 0  0.7854168197005933 -1.811594202898552 0  0.7894693398152999 -3.286543351392342 0  0.7854168196772591 -8.188405797101449 0  0.7854168196772591 -6.739130434782609 0  20.00078956016804 -4.999999999785771 0  0.7379120031523989 -3.977302749614766 0  6.584332478112232 -3.934875417052907 0  7.295091310194352 -7.969791332537982 0  9.811174303464586 -7.412814499648229 0  4.013376806449688 -2.206189431585293 0  4.013376806983409 -7.793810569017377 0  12.11177433894592 -2.818343737884045 0  2.591152707837148 -3.990098461753838 0  2.58990939378082 -6.025895074707176 0  25.43156400064585 -5.044446479916348 0  2.03262751726143 -2.282125834846944 0  2.032627517335952 -7.717874165160392 0  12.51865094522923 -6.491408052923457 0  0.598175343983641 -6.156971652625402 0  2.126700074935224 -0.8767654465386991 0  2.126700059112423 -9.123234559633019 0  6.617961838548696 -1.617756429129908 0  0.5903949564549755 -4.980060355019413 0  1.676697585305984 -5.547101897225158 0  4.773518305133987 -3.729331162566817 0  4.77931803486508 -6.231222307502165 0  4.878549698409591 -8.72048903376362 0  4.852580875634024 -1.222215410052823 0  0.5487847095754042 -2.675169258708207 0  0.545113423825768 -7.32369553390529 0  1.78738026998851 -4.400451872599477 0  1.68244194111824 -3.010100184333533 0  1.683984276238402 -7.018293626028473 0  9.998503440677371 -2.00585287985007 0  3.693061162502273 -3.243678395563028 0  3.694987482168253 -6.757603268814477 0  6.081763036485869 -5.83414381546261 0  0.5196640460586313 -1.350633211792632 0  0.5196640458460706 -8.649366789040087 0  3.84593363904758 -0.9906418103762418 0  3.845933620847308 -9.009358200471317 0  17.41551885287501 -3.057748733689079 0  17.30725517812527 -7.002961443761516 0  8.117698464370697 -4.451550942597151 0  0.4918476668493152 -0.4789811193757592 0  0.4918476560347713 -9.521018882514893 0  1.463770869328428 -0.6252343353791154 0  1.463770854281917 -9.374765668872765 0  0.5034132782032188 -4.464280853772128 0  3.138906271796685 -4.99999841599503 0  14.61209972381335 -2.388610981020637 0  6.208601124947327 -8.776231214192325 0  14.74910972998159 -7.542186851303819 0  2.243794246335625 -1.632184311040998 0  2.243794245689214 -8.367815689183566 0  0.4590235278399923 -5.431413993025926 0  0.4971508861448406 -2.209632053221267 0  0.4971508861368665 -7.790367946777407 0  0.4644363683211541 -3.560571347760519 0  6.478811279411406 -7.007392971062433 0  1.238895267772762 -4.173677632458826 0  1.293241773632479 -2.02256720952064 0  1.293241773542714 -7.977432790434841 0  0.4324740478030531 -0.942028985507247 0  0.4324740423701829 -9.057971014492754 0  2.117396640811705 -3.472968170680347 0  2.107095929630507 -6.531506384346077 0  8.087741545730886 -1.392783601483453 0  1.028911946384717 -1.352376108341404 0  1.028911946221715 -8.647623891551962 0  4.05691976296832 -4.991522392209158 0  11.51826881314265 -8.065248940008736 0  1.618560396201739 -4.958056164503666 0  2.701984523487646 -2.141781914603403 0  2.70198452396172 -7.858218085853512 0  2.843615645746219 -9.289121726447632 0  2.843615661334342 -0.7108782798429658 0  8.678774612240533 -8.488146490452822 0  6.487906449371135 -2.667543558824978 0  8.369190916679937 -7.129867754908394 0  11.80978191929258 -4.655775487536958 0  0.3792065166453504 -3.113833531412848 0  0.4134714637263563 -6.58827691137208 0  9.551050695080825 -3.49648183875815 0  1.083867845277057 -6.036251777836495 0  0.3756430921870901 -1.80381664325008 0  0.3756430921689482 -8.196183356748573 0  3.113073783220456 -3.503408140759125 0  3.113391383189963 -6.496678880796299 0  22.62850736315072 -3.277987336300344 0  22.59385352108348 -6.800312122582239 0  0.3777114402537816 -4.137047872695438 0  0.9196816123347897 -0.4281025456111269 0  0.9196815944880363 -9.571897460530383 0  0.4052043328723194 -5.827814332459883 0  8.865857694874787 -5.767686953139113 0  1.200388325130726 -5.182186034620629 0  5.65297436943758 -4.325500846767599 0  1.200079167961391 -3.009849046583253 0  1.20883344838 -7.021823297793294 0  1.057642414577487 -3.660996704809145 0  10.88812987788297 -6.333458225047037 0  4.493502926606794 -2.839780197438185 0  4.485862892033458 -7.147606077919463 0  0.3631651408878085 -7.003529808558233 0  1.946748828463205 -6.049056369468467 0  6.918750162798794 -4.993796052442676 0  3.351203216022585 -1.980935554775394 0  3.351203216441711 -8.019064445907297 0  2.281892243515294 -2.856654416292082 0  2.281892243715877 -7.143345583598931 0  5.811143619672087 -0.9953286820321026 0  2.695713766833098 -4.565354125099452 0  2.698172168139827 -5.435483248292925 0  19.86166219288896 -2.493475492328429 0  19.83739102036415 -7.594404063416508
[...]
<PointData  Scalars="pressure"> 
<DataArray  type="Float64"  Name="pressure"  format="ascii">-4.9869887795065995e-11  0.0000000000000000e+00  1.4783454689226298e+01  -4.6929317671164000e+02  9.5545567169601380e-11  3.3266580292050321e-11  -2.4835661811399975e-11  5.9191689693383372e-12  4.4598510529565039e-12  -5.0694338238939827e-13  1.8813479122967905e-12  -1.5499361550733870e-12  -7.8193388372543876e-13  2.0150167868924312e-12  7.4429955256007322e-13  4.8637775659685728e-13  -5.2709314314949225e-13  6.6439391196048497e-13  0.0000000000000000e+00  -7.8558408944510159e-14  -7.2841717821480943e-14  2.0109131447608150e-13  2.9972864113393258e-14  5.0489612012774986e-14  -6.8864342078059223e-14  5.1534591293433767e-14  -2.9616106073899055e-14  1.3402391731700070e-13  -6.2155637676068876e-15  1.2298325149663333e-13  3.5404798509044994e-14  1.0344853381805047e-14  0.0000000000000000e+00  -8.2074868855336054e-15  -2.2110805803790846e-14  1.6769224418592904e-14  -1.9982564507499662e-14  1.7009430413483147e-14  -1.2891419807746060e-14  -1.5210992182236731e-15  0.0000000000000000e+00  -5.5735161086380046e-15  9.3226059811269503e-15  -7.7898380307484617e-15  -1.0998798694846118e-14  5.7111947429952311e-15  -1.5055248263063517e-14  -5.7285529558448541e-15  -1.0413702764061431e-14  4.3058617448856694e-16  -1.2978470467445816e-14  2.0665619768769355e-14  3.6824872644604035e+01  3.4417521465410303e+01  3.1012820453449091e+01  2.9301110265155714e+01  2.6800830599266554e+01  2.4163956039579297e+01  2.1244600084341844e+01  1.8121515157144422e+01  1.4933900590141869e+01  1.5363592933325764e+01  1.6102642486854403e+01  1.7331217260995452e+01  1.9422863141028124e+01  2.2297827808059509e+01  2.6393356666490728e+01  3.1696030767385572e+01  3.8443153938328877e+01  4.6682907405208603e+01  5.6271929081038870e+01  6.7160638160331445e+01  7.8815689207160517e+01  9.1412881136463710e+01  1.0359895467761513e+02  1.1531135359095200e+02  1.2563554545993422e+02  1.3366736565297265e+02  1.3966057807720389e+02  1.4097169591046108e+02  1.3850972354519686e+02  1.3128275687444747e+02  1.1927323742292772e+02  1.0226203540999137e+02  8.0617563934412715e+01  5.3904622355328364e+01  2.3614836985473101e+01  -1.0270640717617436e+01  -4.6005082712424645e+01  -8.4323631349555214e+01  -1.2254241362855853e+02  -1.6096427818618102e+02  -1.9866146785410012e+02  -2.3438386041410757e+02  -2.6876558776086398e+02  -3.0035844408173415e+02  -3.2936807017095759e+02  -3.5533322052214623e+02  -3.7798754451286004e+02  -3.9823683369724711e+02  -4.1531519324617273e+02  -4.2977687735306523e+02  -4.4141219211521059e+02  -4.5083102309649320e+02  -4.5806272411170585e+02  -4.6325331484767389e+02  -4.6674459649860347e+02  -4.6874724045375979e+02  -4.5562931381008929e+02  -4.4330126525921889e+02  -4.3208588688681135e+02  -4.2211720144085388e+02  -4.1309178425850541e+02  -4.0516307434241554e+02  -3.9818595878216729e+02  -3.9219894839361274e+02  -3.8715741915782871e+02  -3.8301412775894073e+02  -3.7972285629191720e+02  -3.7735242252443356e+02  -3.7584889092581204e+02  -3.7521692222561654e+02  -3.7545586336185403e+02  -3.7657513133356605e+02  -3.7863694065763889e+02  -3.8153343220075021e+02  -3.8545275457872532e+02  -3.9028584634005648e+02  -3.9614941978930000e+02  -4.0303612808131987e+02  -4.1109505054253060e+02  -4.2015900568155354e+02  -4.3064453260437085e+02  -4.4245891812851647e+02  -4.5562085999199115e+02  -4.7018531189196221e+02  -4.8650087324193498e+02  -5.0462672908274988e+02  -5.2471420214884984e+02  -5.4692129752048572e+02  -5.7150443871508810e+02  -5.9864715591114930e+02  -6.2842934022409895e+02  -6.6213510846497979e+02  -6.9847934241540054e+02  -7.4003056003882762e+02  -7.8564054523509083e+02  -8.3606531053645313e+02  -8.9290980104180085e+02  -9.5660406723319193e+02  -1.0282436035506398e+03  -1.1081551382854057e+03  -1.2003444643008258e+03  -1.3038237394319026e+03  -1.4227828023817540e+03  -1.5593517855020104e+03  -1.7186948947021576e+03  -1.9010236333907928e+03  -2.1129217126333524e+03  -2.3720604641796381e+03  -2.6745759356358794e+03  -3.0397710155663663e+03  -3.4892899025728138e+03  -4.0411270808000527e+03  -4.7390127581743636e+03  -5.6289155291420375e+03  -6.8209889872184831e+03  -8.3820151006871693e+03  -1.0603011825455498e+04  -1.3681754919503466e+04  -1.8440080628662807e+04  -2.7121672247565151e+04  -3.9181481375600844e+04  -7.8493286559904940e+04  -1.3782714179762325e+05  -6.0899343978601717e+05  2.9182935604046644e+01  -2.3625660646998594e+02  1.8244883214073408e+01  -3.4288226810623121e+02  -3.3470220438803295e+02  -3.6036874739383450e+01  1.1060709058750187e+02  -6.5868373838304967e+02  -3.6688004042098640e+02  -3.6136421815040244e+01  3.0917316554632345e+02  -1.2868676782228893e+03  -3.5431942627796968e+02  -5.7990428701763039e+02  6.9970274560287379e+01  8.1597370816622103e+01  -4.7237592156553222e+02  8.9277594899695259e+02  -2.2827111111622526e+02  1.8383744716360962e+02  -5.5477107543585113e+01  -1.4316122839030217e+02  -4.4583506028413797e+02  -3.8929961894987497e+02  -2.5354945722699044e+03  -1.1281379915614625e+03  -3.6384670378095780e+02  -3.9064774836766787e+02  4.1951500213258967e+01  -8.3720109926629061e+02  1.4775963059200376e+02  6.2921373096921599e+01  1.0172382076643443e+02  4.1845596560111460e+02  -1.3527861247229120e+02  9.7397061274027450e+01  -2.5751761587551886e+02  -2.6775661950452161e+02  3.0011715125863311e+01  -1.5272902938168565e+02  -2.9668322479603023e+02  9.1513297456836099e+01  -4.3676860528997901e+02  1.9960420124397449e+03  -3.0811718096231675e+02  3.1008849833156785e+02  -5.9249471528377558e+02  -3.9736580766549781e+02  1.2089494935447732e+02  -5.4231731820687280e+01  -6.2359699539120314e+01  5.6394884557104024e+02  -1.7753746006815593e+03  -3.7655040690537811e+02  -4.7267911545636900e+02  -6.2849259162533292e+02  -3.2935841504608470e+02  1.3946305739298350e+02  1.0315883908094774e+02  -1.5598724324806005e+02  3.7756804553032389e+01  -5.1066517375886833e+03  -3.7993337200549280e+02  8.7234779779640905e+02  -1.4892448980304158e+02  5.1594056229158774e+01  5.3262282871143150e+01  1.2724535631509769e+02  -2.3676056322223045e+02  -4.2258000182168149e+02  3.9489637519583343e+03  -3.6766111445358666e+02  -7.2089627715943095e+02  -1.8791144261957893e+02  6.7148728939475205e+01  2.7631955725005977e+01  7.3084979995876608e+01  6.2372337858186927e+02  -2.8447272422815115e+02  -5.2486339002277123e+02  -2.5356306125326460e+03  -3.7051874510070633e+02  -1.0897981028392926e+03  3.1348338503340027e+01  -6.5225331988040421e+02  -1.0478590919310111e+03  -3.4170137212239797e+02  -8.8551452170303946e+03  -3.9716258310562199e+02  -3.9410289866155176e+02  -3.0725333263255419e+02  2.2067544504884719e+02  -1.3848812328476740e+03  -3.6339830408370176e+02  -6.6665429825904781e+01  1.0222183113515231e+02  -4.5487899543615566e+02  3.1708444224000073e+02  -2.4546274602109901e+02  -2.4702475966937294e+02  1.6111045955932343e+03  1.0185630335010777e+02  2.4273741688171569e+02  8.6969259303772262e+01  9.8719756590893510e+01  -1.4257866325695456e+03  -4.1103645347849886e+02  1.3447896697489097e+02  -4.1883410888085365e+02  -3.8941197621708147e+03  -3.7371126379118334e+02  -6.1040364979478561e+01  -2.0955120653557313e+02  3.6578582530293673e+01  3.0774390434441827e+01  -8.3974796683474642e+02  8.5537627473677949e+03  -4.1036035725102687e+02  -4.7590803563840160e+02  1.0238388978007873e+02  -4.9364415803428443e+02  1.0123822506270737e+02  -9.9641023808594082e+02  -3.5909247167671879e+02  -8.4767262516242977e+02  1.0075884930390869e+02  2.5618575400908873e+02  -9.3399569420788779e+01  -3.9093980689138380e+02  -3.3874113646832728e+02  9.7123748278532972e+01  5.1376806256841689e+02  -1.9167977164824418e+02  -2.1851077505427290e+02  -2.8144236512501107e+02  4.4814682551427592e+02  -2.5483435257903542e+02  -2.5966560272444679e+02  4.1370817208882599e+01  3.7715974371192061e+01  1.9244853074825468e+02  8.2719655131579017e+01  2.9287253602644451e+01  2.3428484104648302e+01  -3.5325633938058621e+02  1.1546309014685478e+03  -7.5722212141560590e+02  -3.3070568230058689e+02  1.1003569108210175e+02  -1.8453076907081311e+03  -3.5937373651436087e+02  -6.4281273591454866e+00  -6.9808103721935353e+01  2.5459191346012742e+02  -1.7790234611331113e+02  7.6590063846933461e+01  1.3784438069670472e+01  8.8013673567054596e+01  -1.7667080738985453e+02  -3.1552862696045383e+02  -3.8890789970952414e+02  -4.7132423575976060e+02  7.6528527618681153e+01  3.2962277190163459e+03  -3.4531936853635693e+02  -3.3144846987306045e+02  1.1390426647442398e+02  -6.5594480282177381e+02  -6.9908279623948977e+02  8.3563821924410551e+00  5.5912051995570771e+01  4.4679461468828714e+02  -8.1212381490949795e+01  -4.3398737249149616e+02  -4.2717853108211824e+02  -5.7923275596995984e+02  -8.9561075121264366e+01  6.7369551565268659e+02  1.1176034962183016e+02  4.0080787435341455e+02  2.2610424711345568e+03  -3.0095960870951285e+02  1.2169116103664494e+03  -3.2283709587219477e+02  2.2964433524022945e+02  -1.2088039033956493e+02  6.3636684850734389e+02  1.6048474365871533e+02  -9.6608421611263316e+02  -1.3211167638672514e+03  -3.7479822625773835e+02  1.8167158017020978e+02  1.1646046790138769e+03  -1.9216807278565065e+02  -2.2490039082062494e+03  -3.7665586540995326e+02  5.9483761356782594e+01  -1.7274254168973133e+00  -1.7028197079807908e+03  -1.4778954173527523e+04  -4.3936708344151810e+02  -2.5916750715409904e+02  -1.8346956354343007e+02  -1.4917879510379964e+02  -2.1328777319295918e+02  -4.8664090281828543e+00  2.8366862560782774e+01  4.8495327861358170e+01  -3.5612389885277582e+02  6.6690904290658750e+01  -2.7540320054743626e+02  1.1538763117324049e+03  -1.1206353705510213e+02  -3.0098416924084177e+01  4.6309316983916020e+01  -1.3924212634618668e+03  -3.5261180130806287e+02  -5.3248273919952112e+02  -3.5875701828599699e+02  5.8100168225226710e+01  -4.5915754761957339e+02  -8.3251762525820845e+02  -6.3144733446439534e+02  2.8173745531933406e+02  8.0690658717917063e+02  -1.8444917680627876e+02  7.9165691128545760e+01  3.0695494103364670e+01  2.4745122352442475e+01  -3.8564051790844422e+02  -4.4341879431643856e+03  -5.5595838046659662e+02  -5.5258064767175829e+03  -8.2256747855045815e+03  -3.8788178084887818e+02  -3.7933385825824013e+02  6.2660917347256749e+01  -5.6046525470827544e+02  -1.8102877401896982e+04  -4.1303149458195696e+02  1.8031074808933261e+02  -3.8357284134452584e+02  5.2119881409686991e+02  -7.5306092061411152e+02  1.0159855631661328e+02  -5.9166050911957859e+02  -3.9963858957701910e+02  7.1340579962267984e+03  -4.1337419752704312e+02  6.4121299216409142e+01  -3.8284486479227678e+02  -9.5222286474308078e+02  1.2294549205911721e+02  8.6932693977374413e+01  -3.8716470091959610e+02  1.5502903362373796e+04  -4.3008356773563708e+02  5.4047408955231035e+01  1.4500805481623649e+02  -1.2646085597589799e+03  -1.9578344977577196e+03  -3.6866321486393196e+02  -3.1634553499247409e+03  -3.7394986693179766e+02  -5.6464525429231367e+02  6.8833514988994807e+01  -8.7897553679735131e+02  -3.4242801890396373e+02  3.7534717576264334e+03  -3.8842234098518259e+02  1.1579807207898676e+02  -1.3081097999794144e+02  -1.0331441904910447e+02  -4.5698420040886208e+02  -4.0887007017474980e+02  -2.8958279101681610e+03  -3.6849381679714321e+02  -5.0838677855707346e+02  1.0467479085481008e+02  -3.3982676483823616e+02  2.5080837200558390e+03  1.3611149677861602e+02  -2.6992960700134457e+01  -2.7142653374546626e+02  1.1450934158367900e+03  -2.1230905508755643e+02  -2.6396945746967623e+02  1.2110120564634823e+02  -4.5777907866277604e+02  -3.1161466557906505e+02  3.8611951286473676e+01  4.3004798515023261e+01  3.0558266351601122e+02  1.0548238889708811e+02  -4.1393114239628409e+02  -3.3774473366203563e+02  3.5931151510342971e+01  2.3093760397769040e+02  -2.7738869054319053e+02  -7.7341933129053029e+02  7.6412523488209246e+01  -1.9884738143365070e+02  -1.6257932476384033e+02  6.2420642371604424e+02  -2.5193460821283233e+02  2.6215987249309745e+02  -1.3663687837162917e+02  4.7620546656013474e+01  2.1472299872571648e+02  4.2627406435310411e+02  -3.1122014203350847e+02  8.1509497442922253e+01  -3.7314722725252034e+00  -3.7203689806425887e+03  -4.0255353515104082e+02  2.5551870180185091e+02  -2.1765423485118242e+02  1.0507122216068443e+02  -4.4608583910693724e+01  8.4406262528472212e+01  -3.7217806299356033e+02  -7.6650909662485262e+01  4.5618204391444433e+03  -3.7660660960836731e+02  8.8565854006157031e+02  -1.3671084252258007e+02  1.0207056114161941e+02  -4.0367308023740821e+02  7.4147755876712367e+01  -7.7508500072633456e+02  1.1332292882662976e+02  4.7441595031284450e+01  1.0338653356454478e+02  -4.4377310991087211e+02  5.4851058135289691e+01  -1.4794507369490423e+03  6.0915105454556354e+01  -4.3165594465778184e+02  -3.0833226637138472e+02  3.1916452923287432e+02  -1.5499532870125691e+02  5.8453571520815967e+02  1.5596992917315427e+02  -1.0498415671492990e+02  4.2258969990185108e+01  -1.9835295478494359e+02  -1.7095697253182016e+02  3.0755954993707252e-01  -1.6905830134091793e+03  -3.5424611469834713e+02  -2.8460503240056578e+03  -3.6820352665697152e+02  -5.1179586659401718e+02  8.9564925481596177e+01  -4.9061772241415179e+02  1.0075599217240071e+02  -1.3668832827487573e+04  -4.0048829138491413e+02  -3.8775874682444341e+03  -3.7282273292607306e+02  -1.2032318790258987e+03  -5.4529804810239034e+02  -1.5487020079332274e+03  -3.6820965247628311e+02  -3.8629709600367039e+02  3.0369121893901816e+01  3.5225987460716837e+01  -3.7674193481490397e+02  9.6212198742894273e+01  1.5741163472332676e+02  -1.1072128170636697e+03  -3.5960499459546959e+01  1.5362006987000956e+02  8.4071012158704747e+01  2.6868837484981447e+02  1.9130862036354537e+02  -9.3750264915149216e+02  -1.2942659317840489e+03  -3.4752269523314283e+02  -3.2720984843419481e+00  -6.2328058665762182e+02  1.1901996686918821e+02  -6.2102504543580596e+02  -2.9556635779435697e+02  1.1149335810013865e+03  -3.0187607044945725e+02  4.0692139055896298e+01  9.3695702625458594e+01  -9.6469976653305639e+02  2.1106114687905776e+02  -3.5251034742121254e+02  7.0808292823326283e+01  1.7824277081411096e+03  -2.7722521653437747e+02  3.6523752970548472e+01  3.9330775394504826e+01  -6.8794746393694550e+02  7.0638080778436816e+01  9.6350962618714064e+01  3.8196739363318393e+01  1.9676551488681202e+01  -2.1230519096879242e+01  -5.2663502089466772e+02  9.3288461192917325e+01  1.3606175341232490e+03  -2.2329074097494285e+02  -4.6706048588168863e+02  -1.4708304029042365e+03  1.1880942813885456e+02  1.3048683820656677e+02  -5.5484474362928859e+02  -4.2030622996504161e+02  -3.5006648758578984e+02  -2.3020863458040859e+02  8.3025000304860271e+01  9.6297431177055017e+01  2.0954780613731251e+02  9.7626409638082933e+01  -3.0762764090072056e+02  -1.6851058980237949e+02  -2.4245886557304223e+02  -4.9262226499881490e+02  -3.3248723937814185e+02  -2.2245351767088042e+02  5.1278476086007072e+02  2.9637596214064974e+01  1.4279370630440877e+02  -3.1364491015073378e+02  3.5606577962361064e+02  -9.9224352996658936e+01  3.0851848049009575e+01  2.4422618006915371e+01  7.5967356499334201e+01  -2.0368462504814238e+03  1.0851164024578024e+02  4.0008033730682923e+03  -4.1090731846821842e+02  -3.9234465921145545e+02  -4.2005878193123053e+03  -3.7557054168843916e+02  -7.6252268742482147e+02  -4.5085307490149575e+02  7.1358829949791607e+02  -1.0649975022530511e+02  1.6544280532447547e+02  -2.5409252813938265e+03  -3.7583844083677457e+02  1.2777564416117289e+03  -2.4393555320482614e+02  -2.6833370955366212e+02  2.2285944072480370e+03  -6.5391024457311369e+03  -3.8732380884478511e+02  -3.4401322697583970e+02  -7.8605873992752677e+00  2.5185334717515894e+02  -6.1572107023502292e+02  -3.2691294205102304e+02  -3.6324371814011833e+01  -1.0860137876374563e+02  1.7808068520262146e+04  -4.4164098828552534e+02  -3.9378782916572643e+04  -4.2879403484550676e+02  -7.0125624584759873e+02  -4.7799614683645746e+02  2.7855036680833479e+02  -3.7671719993206416e+01  -9.1607768785855490e+02  -1.1952067638591354e+03  -3.6033037749646951e+02  3.5836395825874359e+02  -4.7819619775391641e+02  -3.9787739835815336e+02  -3.5977843040411125e+02  -3.9345710226313236e+02  -1.1178304187924334e+03  -8.2047860381389000e+02  1.0702475357066017e+02  1.5201076918465526e+02  -3.0376873122476326e+02  4.4042271676085414e+02  3.2587452028511175e+03  -3.2491377893053806e+02  3.6620793806736721e+01  -1.9280584520913916e+01  -2.8126041336928728e+02  -2.6442951952857948e+02  1.1226257303033614e+02  3.4338040305787167e+01  -6.5224835483666891e+02  4.5984864013624110e+02  6.6024193881841128e+01  9.3262241408920745e+03  -4.1693366480982900e+02  1.0446119903964139e+02  3.9437431368127153e+02  -1.6568283325376933e+02  7.3585102588541844e+01  9.1631043479930085e+01  1.8292085908452296e+02  -2.9451101258534163e+02  -3.9638804014126180e+02  -2.7422357336051959e+02  1.0821835094030452e+02  -3.6656759213501073e+02  2.8191100688136785e+03  6.6422845357388184e+01  -2.0622890045285084e+02  7.6454612049342268e+02  3.0956400158838292e+01  2.5594325443108279e+01  -4.5448884683823280e+02  7.8856517240793835e+01  5.6484251562424610e+01  -4.2316161305958360e+02  -4.2166269734893160e+02  2.9216265926585930e+01  9.7827577026993538e+01  1.0852712950709855e+02  4.4261438258046371e+02  -2.3605843138817835e+02  -6.6915262825265506e+02  3.1794087214642563e+01  2.6830046657845216e+01  -4.0250177896265185e+01  -2.2769850370575412e+02  -1.0990903433534804e+03  4.3797719403439821e+01  -1.9602672688302533e+02  -5.0970935478902186e+02  -2.7528715426680128e+02  3.1593192952483651e+02  -6.0216503830235439e+01  -7.2336311307222013e+03  -3.8438706874344462e+02  -8.6266811584708520e+01  -2.3017190529577829e+02  -2.9141255913090890e+02  -1.4643342185347450e+02  7.1988790299218306e+02  -3.7191634884447080e+02  -2.4920387024191987e+03  8.4685849069116068e+02  -3.3518368673005750e+02  -4.4149399142690163e+02  -3.4812497910067162e+02  -4.5026132556820534e+02  -5.4219338628996222e+04  -1.6142498418660828e+03  -3.6009573624213652e+02  -3.8308347380063765e+02  -2.6233628923502795e+02  -3.8019598642002137e+02  7.0089975459956548e+01  4.6473504841809209e+01  2.0541312789376946e+01  5.2212235123903845e+01  3.5161833245166555e+01  1.2491717838206191e+02  2.6017045509054096e+01  -1.8303903965368502e+02  4.7533360749874291e+01  6.4337214836374358e+01  1.0687526790761741e+02  8.9043353890303312e+00  3.5161763042982407e+03  -3.9649062091175239e+02  4.6780643294379644e+01  -1.0008494915748079e+03  -3.4075464478910658e+02  -1.5163348665661550e+02  -2.6735665413638492e+02  -2.3817807411290969e+03  -3.6590782153081204e+02  1.0849763364312027e+02  -2.4448521080156848e+02  -7.7256481853239234e+02  -1.0904371671010135e+02  4.7542345165284877e+02  8.3319051818715010e+01  -8.3539542109199914e+01  -5.7211341281644923e+02  -9.5480023483611658e+03  -4.0678303692747090e+02  -5.1002387478022371e+02  -7.6958245706937851e+02  8.4749088741120588e+01  -3.9790880400657767e+02  2.1542325021804581e+02  -1.3421201858861552e+03  -7.5602221718135013e+02  1.5172268669452498e+02  6.2593273403836555e+01  -7.3142844568738326e+01  5.1629101085051877e+02  2.6614713513030511e+03  -3.1435959307263960e+02  -2.2153096631191765e+03  -3.7143769004425889e+02  -6.1469214387247041e+02  -4.4482705844455137e+02  2.9880943496308724e+01  6.3355534592917373e+01  1.0318051392849748e+02  -4.1017196056091444e+02  -3.1452005138213622e+02  -3.7801629790668255e+02  -4.0286726816325501e+02  -1.5880340403206807e+01  1.2083163783745580e+02  -8.6927503601563592e+02  -3.1849745615165411e+03  -3.7210236264321071e+02  7.3459071629153311e+02  8.4829255210379557e+01  -1.0270827762900946e+02  9.2431484507604262e+02  1.7943141400809054e+02  -1.6160282106997086e+03  -3.9263003114274170e+02  -4.5375312469070395e+03  7.1786813169691058e+01  -6.3745874937754070e+02  -6.2529914759048800e+01  -2.3330692312626162e+01  -1.3764161278093748e+03  -3.7818832161204108e+02  -8.5522801315317531e+02  -6.9975509167760811e+02  1.6054654016899431e+02  1.0169492028843129e+02  -4.0292190702675867e+02  