<?xml version="1.0"?>
<VTKFile type="UnstructuredGrid"  version="0.1"  >
<UnstructuredGrid>
<Piece  NumberOfPoints="1855" NumberOfCells="3532">
<Points>
<DataArray  type="Float64"  NumberOfComponents="3"  format="ascii">0 0 0  30 0 0  30 -10 0  0 -10 0  0.1391574078963744 0 0  0.2856388821882616 0 0  0.4398299073010886 0 0  0.6021362569539473 0 0  0.7729850389704483 0 0  0.9528258543586996 0 0  1.142131984380316 0 0  1.34140159760994 0 0  1.551159074717981 0 0  1.771956417032531 0 0  2.004374674080994 0 0  2.249025475789527 0 0  2.506552636773105 0 0  2.777633857742732 0 0  3.062982518028728 0 0  3.363349525995907 0 0  3.679525322337712 0 0  4.01234195575742 0 0  4.362675247811097 0 0  4.731447135329707 0 0  5.119628065610077 0 0  5.528239565804708 0 0  5.958356943167011 0 0  6.411112081475485 0 0  6.887696441559404 0 0  7.389364184530748 0 0  7.917435485335147 0 0  8.473300005202017 0 0  9.058420557070402 0 0  9.674336929103793 0 0  10.32266995225095 0 0  11.00512576896296 0 0  11.72350030646412 0 0  12.47968402994705 0 0  13.27566689579597 0 0  14.1135435963616 0 0  14.9955190732806 0 0  15.92391430904694 0 0  16.90117245730496 0 0  17.92986524844506 0 0  19.01269976086341 0 0  20.15252556282024 0 0  21.35234220269763 0 0  22.61530708683689 0 0  23.94474379751883 0 0  25.34415086349739 0 0  26.81721093579712 0 0  28.3678004819169 0 0  30 -1.111111111111111 0  30 -2.222222222222222 0  30 -3.333333333333333 0  30 -4.444444444444445 0  30 -5.555555555555555 0  30 -6.666666666666666 0  30 -7.777777777777777 0  30 -8.888888888888889 0  28.36780047917311 -10 0  26.8172109305839 -10 0  25.34415085606858 -10 0  23.94474378810899 -10 0  22.61530707566275 -10 0  21.3523421899591 -10 0  20.15252554870171 -10 0  19.01269974553473 -10 0  17.92986523206254 -10 0  16.90117244001232 -10 0  15.92391429097614 -10 0  14.99551905455266 -10 0  14.11354357708742 -10 0  13.27566687607703 -10 0  12.47968400987599 -10 0  11.72350028612546 -10 0  11.00512574843363 -10 0  10.32266993160086 -10 0  9.674336908396342 -10 0  9.058420536362949 -10 0  8.473299984546333 -10 0  7.917435464777824 -10 0  7.389364164113587 -10 0  6.887696420787165 -10 0  6.411112061446698 -10 0  5.95835692337857 -10 0  5.528239546282652 -10 0  5.119628046377237 -10 0  4.731447115907979 -10 0  4.362675229213632 -10 0  4.012341937260036 -10 0  3.679525304434552 -10 0  3.363349508456405 -10 0  3.062982500861274 -10 0  2.777633840953978 -10 0  2.506552620368097 -10 0  2.249025459771861 -10 0  2.004374658452946 -10 0  1.771956401795187 -10 0  1.551159059871345 -10 0  1.341401583153029 -10 0  1.142131970307521 -10 0  0.9528258406748833 -10 0  0.7729850256685147 -10 0  0.6021362439621285 -10 0  0.4398298947504031 -10 0  0.2856388700059078 -10 0  0.1391573960769001 -10 0  0 -9.855072463768115 0  0 -9.710144927536232 0  0 -9.565217391304348 0  0 -9.420289855072463 0  0 -9.27536231884058 0  0 -9.130434782608695 0  0 -8.985507246376812 0  0 -8.840579710144928 0  0 -8.695652173913043 0  0 -8.55072463768116 0  0 -8.405797101449275 0  0 -8.260869565217391 0  0 -8.115942028985508 0  0 -7.971014492753623 0  0 -7.826086956521739 0  0 -7.681159420289855 0  0 -7.536231884057971 0  0 -7.391304347826087 0  0 -7.246376811594203 0  0 -7.101449275362318 0  0 -6.956521739130435 0  0 -6.811594202898551 0  0 -6.666666666666667 0  0 -6.521739130434783 0  0 -6.376811594202898 0  0 -6.231884057971015 0  0 -6.086956521739131 0  0 -5.942028985507246 0  0 -5.797101449275362 0  0 -5.652173913043478 0  0 -5.507246376811594 0  0 -5.36231884057971 0  0 -5.217391304347826 0  0 -5.072463768115941 0  0 -4.927536231884058 0  0 -4.782608695652174 0  0 -4.637681159420289 0  0 -4.492753623188406 0  0 -4.347826086956522 0  0 -4.202898550724638 0  0 -4.057971014492754 0  0 -3.913043478260869 0  0 -3.768115942028985 0  0 -3.623188405797101 0  0 -3.478260869565217 0  0 -3.333333333333334 0  0 -3.188405797101449 0  0 -3.043478260869565 0  0 -2.898550724637681 0  0 -2.753623188405797 0  0 -2.608695652173912 0  0 -2.463768115942029 0  0 -2.318840579710145 0  0 -2.173913043478261 0  0 -2.028985507246377 0  0 -1.884057971014492 0  0 -1.739130434782609 0  0 -1.594202898550725 0  0 -1.44927536231884 0  0 -1.304347826086957 0  0 -1.159420289855072 0  0 -1.014492753623188 0  0 -0.8695652173913047 0  0 -0.72463768115942 0  0 -0.579710144927537 0  0 -0.4347826086956523 0  0 -0.2898550724637676 0  0 -0.1449275362318829 0  5.15859856094262 -4.976557621770688 0  2.816777084926057 -7.160262673925935 0  2.81677708460006 -2.839737326002783 0  2.227649803257325 -5.003121586636773 0  1.518662968975629 -8.46230852045241 0  1.518662969184829 -1.537691480152612 0  9.960740911025725 -5.055901393541221 0  1.491099662214591 -3.691833922963321 0  1.503675657181264 -6.345020369042368 0  5.319208041801049 -7.493850249937013 0  5.291109955459268 -2.489368743223226 0  1.096914507335763 -2.53623188405797 0  1.096914507253562 -7.463768115942029 0  1.089580194952752 -4.71277167923441 0  15.07565076110197 -5.047572991082069 0  7.501630508673601 -5.937500100385354 0  0.8894869418764504 -5.623930488933245 0  2.955144522453978 -1.440834296472408 0  2.955144521140721 -8.559165705576945 0  8.106603955004623 -2.748811534843258 0  3.662152539483591 -4.228178367024407 0  3.662181528265114 -5.771746159989156 0  0.8436558190317136 -0.8541050638451999 0  0.8436558075840921 -9.145894948342754 0  0.7854168197005933 -1.811594202898552 0  0.7894693398152999 -3.286543351392342 0  0.7854168196772591 -8.188405797101449 0  0.7854168196772591 -6.739130434782609 0  20.00078956016804 -4.999999999785771 0  0.7379120031523989 -3.977302749614766 0  6.584332478112232 -3.934875417052907 0  7.295091310194352 -7.969791332537982 0  9.811174303464586 -7.412814499648229 0  4.013376806449688 -2.206189431585293 0  4.013376806983409 -7.793810569017377 0  12.11177433894592 -2.818343737884045 0  2.591152707837148 -3.990098461753838 0  2.58990939378082 -6.025895074707176 0  25.43156400064585 -5.044446479916348 0  2.03262751726143 -2.282125834846944 0  2.032627517335952 -7.717874165160392 0  12.51865094522923 -6.491408052923457 0  0.598175343983641 -6.156971652625402 0  2.126700074935224 -0.8767654465386991 0  2.126700059112423 -9.123234559633019 0  6.617961838548696 -1.617756429129908 0  0.5903949564549755 -4.980060355019413 0  1.676697585305984 -5.547101897225158 0  4.773518305133987 -3.729331162566817 0  4.77931803486508 -6.231222307502165 0  4.878549698409591 -8.72048903376362 0  4.852580875634024 -1.222215410052823 0  0.5487847095754042 -2.675169258708207 0  0.545113423825768 -7.32369553390529 0  1.78738026998851 -4.400451872599477 0  1.68244194111824 -3.010100184333533 0  1.683984276238402 -7.018293626028473 0  9.998503440677371 -2.00585287985007 0  3.693061162502273 -3.243678395563028 0  3.694987482168253 -6.757603268814477 0  6.081763036485869 -5.83414381546261 0  0.5196640460586313 -1.350633211792632 0  0.5196640458460706 -8.649366789040087 0  3.84593363904758 -0.9906418103762418 0  3.845933620847308 -9.009358200471317 0  17.41551885287501 -3.057748733689079 0  17.30725517812527 -7.002961443761516 0  8.117698464370697 -4.451550942597151 0  0.4918476668493152 -0.4789811193757592 0  0.4918476560347713 -9.521018882514893 0  1.463770869328428 -0.6252343353791154 0  1.463770854281917 -9.374765668872765 0  0.5034132782032188 -4.464280853772128 0  3.138906271796685 -4.99999841599503 0  14.61209972381335 -2.388610981020637 0  6.208601124947327 -8.776231214192325 0  14.74910972998159 -7.542186851303819 0  2.243794246335625 -1.632184311040998 0  2.243794245689214 -8.367815689183566 0  0.4590235278399923 -5.431413993025926 0  0.4971508861448406 -2.209632053221267 0  0.4971508861368665 -7.790367946777407 0  0.4644363683211541 -3.560571347760519 0  6.478811279411406 -7.007392971062433 0  1.238895267772762 -4.173677632458826 0  1.293241773632479 -2.02256720952064 0  1.293241773542714 -7.977432790434841 0  0.4324740478030531 -0.942028985507247 0  0.4324740423701829 -9.057971014492754 0  2.117396640811705 -3.472968170680347 0  2.107095929630507 -6.531506384346077 0  8.087741545730886 -1.392783601483453 0  1.028911946384717 -1.352376108341404 0  1.028911946221715 -8.647623891551962 0  4.05691976296832 -4.991522392209158 0  11.51826881314265 -8.065248940008736 0  1.618560396201739 -4.958056164503666 0  2.701984523487646 -2.141781914603403 0  2.70198452396172 -7.858218085853512 0  2.843615645746219 -9.289121726447632 0  2.843615661334342 -0.7108782798429658 0  8.678774612240533 -8.488146490452822 0  6.487906449371135 -2.667543558824978 0  8.369190916679937 -7.129867754908394 0  11.80978191929258 -4.655775487536958 0  0.3792065166453504 -3.113833531412848 0  0.4134714637263563 -6.58827691137208 0  9.551050695080825 -3.49648183875815 0  1.083867845277057 -6.036251777836495 0  0.3756430921870901 -1.80381664325008 0  0.3756430921689482 -8.196183356748573 0  3.113073783220456 -3.503408140759125 0  3.113391383189963 -6.496678880796299 0  22.62850736315072 -3.277987336300344 0  22.59385352108348 -6.800312122582239 0  0.3777114402537816 -4.137047872695438 0  0.9196816123347897 -0.4281025456111269 0  0.9196815944880363 -9.571897460530383 0  0.4052043328723194 -5.827814332459883 0  8.865857694874787 -5.767686953139113 0  1.200388325130726 -5.182186034620629 0  5.65297436943758 -4.325500846767599 0  1.200079167961391 -3.009849046583253 0  1.20883344838 -7.021823297793294 0  1.057642414577487 -3.660996704809145 0  10.88812987788297 -6.333458225047037 0  4.493502926606794 -2.839780197438185 0  4.485862892033458 -7.147606077919463 0  0.3631651408878085 -7.003529808558233 0  1.946748828463205 -6.049056369468467 0  6.918750162798794 -4.993796052442676 0  3.351203216022585 -1.980935554775394 0  3.351203216441711 -8.019064445907297 0  2.281892243515294 -2.856654416292082 0  2.281892243715877 -7.143345583598931 0  5.811143619672087 -0.9953286820321026 0  2.695713766833098 -4.565354125099452 0  2.698172168139827 -5.435483248292925 0  19.86166219288896 -2.493475492328429 0  19.83739102036415 -7.594404063416508
[...]
<PointData  Scalars="pressure"> 
<DataArray  type="Float64"  Name="pressure"  format="ascii">9.8181341596536171e-11  -9.9644585330687207e-15  4.6158551786203965e+01  -1.4437922996468110e+03  3.2625315618888280e-11  1.3306632116820129e-11  1.8749882126985181e-11  1.5769583637365321e-11  -2.2299255264782520e-11  -2.0693910136631745e-11  -7.2080358680999918e-12  -3.0998723101467741e-12  -1.6274104969856100e-12  4.4425566955108720e-12  1.3244992340646596e-12  4.7564559753244828e-12  -2.6417792376093983e-12  -1.7122706602406112e-13  2.6988114032631353e-12  1.1904181966831355e-12  -6.4100711682903233e-13  1.1212407090707250e-12  8.6921305928840447e-13  5.0058871745482283e-13  -4.1318605246835534e-13  -7.3556578296575844e-14  1.1846442429559622e-13  -1.7869855642266760e-13  6.9361995984802955e-14  1.5857678223131611e-13  1.2142467103583574e-13  -4.4794450958902983e-14  -7.7299843915590696e-14  -6.5659895084268843e-14  -7.7874300264321711e-15  6.7076897674371616e-14  2.1325748561949074e-13  -7.0199922917038769e-14  -1.2891419807746060e-14  -1.0775042362508917e-14  -1.0471270789955863e-14  1.9800510308222977e-14  -5.2676189977439237e-15  2.6577094457847695e-14  3.2299335759818743e-14  -2.9208787826395336e-14  -2.6450688795362910e-15  1.5929562504797512e-14  -3.8002399463221395e-14  -1.4565632710346582e-14  -2.2248806515621399e-14  1.7068937827805011e-14  1.1480097838330458e+02  1.0731536061911538e+02  9.6716717346329943e+01  9.1392332012937743e+01  8.3607521599354925e+01  7.5395003759042680e+01  6.6299830417770892e+01  5.6566935412075672e+01  4.6634212143740264e+01  4.7989321861895164e+01  5.0316124134701411e+01  5.4168750423489350e+01  6.0698942145906543e+01  6.9658170644434918e+01  8.2388580092090550e+01  9.8845202204811415e+01  1.1974295936728909e+02  1.4522883394485530e+02  1.7484047584732258e+02  2.0841682731951533e+02  2.4429183621866756e+02  2.8300481081365388e+02  3.2037090823426746e+02  3.5618068926025273e+02  3.8763608662761783e+02  4.1192322892092000e+02  4.2985786821270125e+02  4.3332022710697089e+02  4.2511612558490185e+02  4.0223415811772537e+02  3.6463453969819625e+02  3.1168636777962297e+02  2.4456387885080107e+02  1.6193124116730178e+02  6.8399238339109061e+01  -3.6069698250952619e+01  -1.4610430853792786e+02  -2.6396179547697847e+02  -3.8142124476678265e+02  -4.9939817526803051e+02  -6.1507384750364110e+02  -7.2463231625709409e+02  -8.3000991423236655e+02  -9.2681218189398601e+02  -1.0156525217171493e+03  -1.0951531354114259e+03  -1.1644931452595247e+03  -1.2264563596613514e+03  -1.2787061915283921e+03  -1.3229446430034977e+03  -1.3585332044639990e+03  -1.3873378395621999e+03  -1.4094522160554170e+03  -1.4253245561377998e+03  -1.4359993724604267e+03  -1.4421230417013821e+03  -1.4020575572071725e+03  -1.3644083885338450e+03  -1.3301628997592702e+03  -1.2997330021356361e+03  -1.2721894596036966e+03  -1.2480043507492996e+03  -1.2267329302241244e+03  -1.2084940995932157e+03  -1.1931523168039853e+03  -1.1805624371230599e+03  -1.1705837009156130e+03  -1.1634277930257376e+03  -1.1589291132992491e+03  -1.1571016083270638e+03  -1.1579448700792977e+03  -1.1614872781003667e+03  -1.1679180437974292e+03  -1.1769083704728789e+03  -1.1890325571545902e+03  -1.2039595557201621e+03  -1.2220422741329046e+03  -1.2432600716593706e+03  -1.2680670991815698e+03  -1.2959542087910500e+03  -1.3281920468516601e+03  -1.3644912029632328e+03  -1.4049131268376530e+03  -1.4496296163923623e+03  -1.4996920372438935e+03  -1.5552847777862553e+03  -1.6168688093682999e+03  -1.6849173102312229e+03  -1.7602195098936181e+03  -1.8433167865474707e+03  -1.9344700850136335e+03  -2.0375478109662331e+03  -2.1486795214485687e+03  -2.2756169738282433e+03  -2.4148906022621236e+03  -2.5687887806554272e+03  -2.7421547541413138e+03  -2.9362979704526847e+03  -3.1544693953881060e+03  -3.3977453267719857e+03  -3.6780524126586174e+03  -3.9925088549018860e+03  -4.3536134553018856e+03  -4.7678807181446618e+03  -5.2503984409258310e+03  -5.8024092484778339e+03  -6.4431291834725316e+03  -7.2251137747382381e+03  -8.1372017562422734e+03  -9.2366463336939523e+03  -1.0587462748520888e+04  -1.2243522401697959e+04  -1.4334280414805098e+04  -1.6994095016284373e+04  -2.0552609412206381e+04  -2.5205079164372390e+04  -3.1807081979770552e+04  -4.0999456899081524e+04  -5.5068931937940950e+04  -8.1353887797942109e+04  -1.2135138025213956e+05  -1.9619881701108182e+05  -7.6506992117639142e+05  -3.2798559528609920e+04  8.4747260030364330e+01  -7.3126528193844547e+02  2.6472042946009250e+01  -1.0623316280696820e+03  -1.0325180891942653e+03  -2.6644300871385593e+02  3.4190350397501771e+02  -2.0342605229607932e+03  -1.1329881702962016e+03  -1.1474485167443989e+02  9.4856089183948916e+02  -3.9621780588382248e+03  -1.0934174106050466e+03  -1.7874599138728345e+03  2.1749888516964342e+02  2.4997552822527729e+02  -1.4568370651804805e+03  2.6964599815775678e+03  -7.0587435021799581e+02  5.6921741070860037e+02  -1.8165896010261082e+02  -4.4669614428864713e+02  -1.9224030114320749e+03  -1.1994119409651544e+03  -7.7634018156494121e+03  -3.4628102456684192e+03  -1.1220782737971749e+03  -1.2053779501201770e+03  1.3078132738798777e+02  -2.5738238486218256e+03  4.5359302648130529e+02  1.9169628198517648e+02  3.1334354269616017e+02  1.2719514243601370e+03  -4.2026158718028790e+02  3.0313203347082867e+02  -8.0601898432275800e+02  -8.2944731394413282e+02  9.3625585363228424e+01  -5.2663999209143174e+02  -9.1639305897631152e+02  2.8331267990445713e+02  -1.3471708728312126e+03  5.9752371505742030e+03  -9.5066202050402933e+02  9.6039242027867624e+02  -1.8248480177349322e+03  -1.2276451310888124e+03  3.6443553778064745e+02  -1.7145927204961785e+02  -1.9566397901795918e+02  1.7398882814836193e+03  -5.4275543989559419e+03  -1.1616872426843133e+03  -1.4619100128299092e+03  -1.9534609063453813e+03  -1.0172416792056633e+03  4.3394617519834276e+02  3.0105895193809266e+02  -4.8475312388086888e+02  1.1317725339223453e+02  -1.5491399271256068e+04  -1.1710489113137508e+03  2.6810067881301293e+03  -4.6206114457673755e+02  1.6095837250107044e+02  1.6564386535814958e+02  3.9230792225094052e+02  -2.6114412683940432e+03  -1.3010948921170307e+03  1.1575865862051576e+04  -1.1330216511986303e+03  -2.2175972387195143e+03  -5.8662679758230684e+02  2.0952267699725638e+02  8.1951716807952451e+01  2.2667659598425038e+02  1.8196065690199384e+03  -8.7848794886527219e+02  -1.6174840890430069e+03  -7.7285824501733141e+03  -1.1428348162719790e+03  -3.3429550004711032e+03  9.3923993037201228e+01  -2.0105756399724496e+03  -3.2725849941921310e+03  -1.0543235422037237e+03  -2.6624370702284283e+04  -1.2235493933606522e+03  -1.2300729102778976e+03  -9.4994725527140270e+02  6.8601918556081887e+02  -4.4107052632133909e+03  -1.1203723604210368e+03  -2.1258484771088010e+02  3.1567301214006073e+02  -1.4051033855976671e+03  9.2557891245679070e+02  -7.5902043862715709e+02  -7.6328027844191092e+02  4.9244683461612767e+03  3.1265789848951283e+02  7.4844506457803243e+02  2.6691216528163881e+02  3.0610206995251332e+02  -4.3640916214420276e+03  -1.2679615738547841e+03  4.1671251177892947e+02  -1.2924700403016323e+03  -1.1813824390600721e+04  -1.1523152584246623e+03  -2.0583523310099969e+02  -6.4989004810873155e+02  1.1412263851031452e+02  9.5995469241870524e+01  -2.5803917843306876e+03  2.4018673052670580e+04  -1.2636710550524829e+03  -1.4672857883388638e+03  3.1539252302551068e+02  -1.5227945505496421e+03  3.0758770357469569e+02  -3.0697748335693232e+03  -1.1084217324621879e+03  -2.6086193140537957e+03  3.1131908689455031e+02  7.7830799711135217e+02  -2.9157045147721351e+02  -1.2060408663014671e+03  -1.0471785494526914e+03  2.9744684254364205e+02  1.5495026102935474e+03  -5.9366180219995624e+02  -7.0429477748717409e+02  -8.7008791322908883e+02  1.3893908471128127e+03  -7.9412472824625240e+02  -8.0585898131370811e+02  1.2913909155355910e+02  1.1751758439737152e+02  5.8905005830374478e+02  2.5713715261755851e+02  9.1341363157039709e+01  7.3112231379035663e+01  -1.0891153329323261e+03  3.1944366919575114e+03  -2.3665904284071225e+03  -1.0208749132474079e+03  3.4343133596294251e+02  -5.6606719271777274e+03  -1.1086541346084880e+03  -2.3206709335407453e+01  -2.2052219386122124e+02  7.5976485424800399e+02  -5.5164761864490458e+02  2.3925052374368011e+02  3.4173720214721044e+01  2.7242532355616885e+02  -6.3022179862341045e+02  -9.7396874577951723e+02  -1.2003476947175645e+03  -1.4610142085537677e+03  2.3320095881537398e+02  9.9195045208917418e+03  -1.0645307635830893e+03  -1.0257926740106989e+03  3.5070675146729582e+02  -2.0187995471855409e+03  -2.1519594706064622e+03  2.2720321868583579e+01  1.7405751985472912e+02  1.3703855595920688e+03  -2.5369248670776685e+02  -1.3385004305099899e+03  -1.3184988141679094e+03  -1.7839674176322119e+03  -2.7959171205244223e+02  2.0843102740598620e+03  3.4684362774001835e+02  1.2364653552633010e+03  6.8954267857673976e+03  -9.2862602107066982e+02  3.5330716390489347e+03  -9.9593784858764559e+02  7.1065935361228412e+02  -3.7579950084209906e+02  1.9517889582051464e+03  4.9996000765523996e+02  -2.9654853677298624e+03  -4.0531795600630003e+03  -1.1565222225852810e+03  5.6051075397899479e+02  3.5839719558435299e+03  -5.9494373293486774e+02  -6.8565128566506601e+03  -1.1618439676835660e+03  1.7949278173395123e+02  -9.6243267833994270e+00  -5.2035363052442799e+03  -3.7704666700817521e+04  -1.3523829116699287e+03  -8.0216096085811125e+02  -5.8620709840270160e+02  -4.7188359011446272e+02  -6.6233097696960385e+02  -1.8676054367523054e+01  8.8488707619622403e+01  1.5151243446548483e+02  -1.1060006097575877e+03  2.0369560199111925e+02  -8.5048549985330089e+02  3.4488182204662899e+03  -3.5013350963346358e+02  -9.6092822351074233e+01  1.3151853551057025e+02  -4.3523855678639156e+03  -1.0875523890563049e+03  -1.6411015473202601e+03  -1.1077182368694612e+03  1.8048464364196965e+02  -1.4160480044091166e+03  -2.5663406931044560e+03  -1.9444339190151672e+03  8.7600326928556478e+02  2.4577424612147015e+03  -5.7125454175905134e+02  2.4555692519770261e+02  9.5750042054557014e+01  7.7226519991143491e+01  -1.1883554461291383e+03  -1.3584158611141893e+04  -1.7134258081072155e+03  -1.6695262161863611e+04  -2.4738066468101031e+04  -1.1953234341699115e+03  -1.1693494013407333e+03  1.9522502407123679e+02  -1.7291684549547783e+03  -5.3718585225716146e+04  -1.2719852752073737e+03  5.6001033844016251e+02  -1.1832658471824207e+03  1.6163609680961483e+03  -2.3155936120212573e+03  3.1330791870436735e+02  -1.8338940475123870e+03  -1.2308208537637217e+03  2.0833876132497258e+04  -1.2752550711253834e+03  1.9922793413288548e+02  -1.1824827025539796e+03  -2.9252419018329056e+03  3.7992330984982055e+02  2.6965566496627048e+02  -1.1972387540855302e+03  4.1948484649456645e+04  -1.3239682605988064e+03  1.6420602639884328e+02  4.4842946570699308e+02  -3.8738019088200899e+03  -5.9852772814382424e+03  -1.1373149643445890e+03  -9.6115341255426774e+03  -1.1532617309352988e+03  -1.7445807717304747e+03  2.0579446764866043e+02  -2.7213420358337398e+03  -1.0571156077334524e+03  1.0505737740773424e+04  -1.1966222239114888e+03  3.6023327935288899e+02  -4.0983675606900277e+02  -3.2688993843057744e+02  -1.4091357940672829e+03  -1.2652367862527794e+03  -8.8847870808863318e+03  -1.1361147759904554e+03  -1.5668462144092980e+03  3.2064194853178054e+02  -1.0478322222856571e+03  7.3990770177808708e+03  4.1873655026108366e+02  -1.2735490700170253e+02  -8.3901321901599295e+02  3.4945751745681287e+03  -6.5676405012977671e+02  -8.2033053268585581e+02  3.7790663001690399e+02  -1.4430544250869193e+03  -9.6251982109699475e+02  1.2062382434222579e+02  1.3386495536248702e+02  9.4180108609621516e+02  3.2456567319285392e+02  -1.2771479133402058e+03  -1.0434355846330577e+03  1.1207002840686418e+02  6.4170129316347970e+02  -8.5698408465687760e+02  -2.3806168085143458e+03  2.1250865058433928e+02  -6.1643028391535120e+02  -5.0561807435289614e+02  1.8546984846662394e+03  -7.7866416834483346e+02  7.9075676509438233e+02  -4.2471996694825174e+02  1.4829922774378505e+02  6.5497644747333163e+02  1.1791801168404704e+03  -9.6052877703437366e+02  2.5392890576891227e+02  -2.5728508848809575e+01  -1.1585865421540220e+04  -1.2399412453220148e+03  7.5128367967182328e+02  -6.7375154729094891e+02  3.2093222089519992e+02  -1.4116068176091829e+02  2.5861593771592015e+02  -1.1470793444929270e+03  -6.2934243237885880e+02  1.3627646809365302e+04  -1.1603105250121910e+03  2.7376050873748804e+03  -4.2465404654480619e+02  3.1499175166301882e+02  -1.2452460671538208e+03  2.2987943579913249e+02  -2.3834613532773215e+03  3.4958389002256177e+02  1.4790879661291734e+02  3.1992602610884296e+02  -1.3702464137395248e+03  1.7151712813756220e+02  -4.5294796015313723e+03  1.8445963638848460e+02  -1.3503003032297524e+03  -9.5288338404684532e+02  9.9182673540227552e+02  -4.8079166228762875e+02  1.7801935791922551e+03  4.6852569864976499e+02  -3.2763238830846075e+02  1.2748780910931579e+02  -6.1744356441138746e+02  -5.3620424411242345e+02  -2.1688134257521430e+00  -5.2164748875130072e+03  -1.0927470843389035e+03  -8.6750599425624368e+03  -1.1355519393142336e+03  -1.5790341839613855e+03  2.7508951869781777e+02  -1.5125341548344820e+03  3.1141062935935003e+02  -4.0846689901089732e+04  -1.2337352652746063e+03  -1.1789998674985914e+04  -1.1494551654701077e+03  -3.6888259000129569e+03  -1.6799816652885827e+03  -4.7464272364338030e+03  -1.1361020057767905e+03  -1.1918573658865196e+03  9.4718817767637177e+01  1.0995396412293270e+02  -1.1627681809282483e+03  2.9566283427354773e+02  4.8797039087871099e+02  -3.3950539238816523e+03  -1.1469216731263724e+02  4.7421238106408356e+02  2.6042969086661566e+02  8.3391729627459108e+02  5.8770574946949478e+02  -2.8791137789715108e+03  -4.0036422551358046e+03  -1.0723024734855678e+03  -1.6895920892092086e+01  -1.9187587464460914e+03  3.6581603790572865e+02  -1.9139967962719729e+03  -9.1235341179223497e+02  3.2941577634870928e+03  -9.3389543070005948e+02  1.2286722725230210e+02  2.8979461844443324e+02  -2.9669280884353188e+03  6.5723506347353714e+02  -1.0990813210537549e+03  2.2042501585434829e+02  5.4018212410917631e+03  -8.5592299801580987e+02  1.1386792314546035e+02  1.2270162809541948e+02  -2.1211944014123210e+03  2.1543959458692746e+02  2.9649329394682911e+02  1.1908887206832749e+02  6.1416628663318889e+01  -7.0478710635212352e+01  -1.6326261315223371e+03  2.8980823515712405e+02  4.1866774750019267e+03  -6.9048037915723569e+02  -1.4409332461228150e+03  -4.4998444157400800e+03  3.6798468758352499e+02  4.0523804320123247e+02  -1.7094274496590847e+03  -1.2964225296613397e+03  -1.0795148798667549e+03  -9.1243921634328115e+02  2.5380617468058500e+02  2.9808270176491425e+02  6.4987700471667767e+02  3.0177130145685243e+02  -9.5203627094709884e+02  -5.3576396769128201e+02  -7.5123515857453117e+02  -1.6115770937721265e+03  -1.0259101400857373e+03  -6.8822153667067562e+02  1.5333079615887000e+03  8.8386101439584479e+01  4.3454635911910486e+02  -9.7405050955556840e+02  1.0858953410934869e+03  -3.0929896868091492e+02  9.6262247757996079e+01  7.6229705007222762e+01  2.3756552386090075e+02  -6.2137718948747834e+03  3.3355942320696630e+02  1.0347536708570202e+04  -1.2654007648791674e+03  -1.2103312706556076e+03  -1.2725211224733255e+04  -1.1580194017446511e+03  -2.3588668282778772e+03  -1.3908101025584861e+03  2.1971015697441771e+03  -3.3158897930951213e+02  5.1561122286286104e+02  -7.7358409268434270e+03  -1.1592408257929744e+03  3.8760307556733183e+03  -7.5385612876706955e+02  -8.2862280723973561e+02  6.8611362466581486e+03  -1.9764832659311305e+04  -1.1935560629961358e+03  -1.0630641634521667e+03  -2.7930374075409123e+01  7.7359933043036517e+02  -1.9521728061023073e+03  -1.0090481893648932e+03  -1.2115237420281922e+02  -3.4061831940937452e+02  4.8780106161149699e+04  -1.3592990241101693e+03  -1.0934379652592169e+05  -1.3201057644752439e+03  -2.1572172646609838e+03  -1.4769199618429861e+03  8.6079508570155338e+02  -1.2204108930782313e+02  -2.8129173975969070e+03  -3.6767966633551518e+03  -1.1120675361779715e+03  1.1089044666283414e+03  -1.4742301066867494e+03  -1.2274789322626325e+03  -1.1123039725919666e+03  -1.2148192983596236e+03  -3.4352256603503197e+03  -2.5213133070604194e+03  3.2998435969557454e+02  4.6508984549412355e+02  -9.4153189456919529e+02  1.3679114986175059e+03  9.9910991634238126e+03  -1.0020055399401381e+03  1.0917499901139632e+02  -6.2904225888622740e+01  -8.6982835332888737e+02  -8.3789421060329721e+02  3.4617957521328810e+02  1.0711956708697231e+02  -2.0077223785609842e+03  1.4219343228649768e+03  1.9838669136857243e+02  2.7025976910530622e+04  -1.2837141453128504e+03  3.2271621504788425e+02  1.1908471820115822e+03  -5.1385430817933025e+02  2.2398252470468427e+02  2.8569250871392910e+02  4.7776601983684020e+02  -9.0946303820493006e+02  -1.2231572508281527e+03  -8.4996522587367338e+02  3.3291307789038876e+02  -1.1297478092481967e+03  8.0948112059599634e+03  2.0816683457922250e+02  -6.3821439068363384e+02  2.3150004530917131e+03  9.6548411253616450e+01  7.9852848679674949e+01  -1.4015337903116338e+03  2.4495393382303115e+02  1.7682115464120375e+02  -1.3119276447327932e+03  -1.3006745448605213e+03  9.1150670653512776e+01  3.0570037656996720e+02  3.3621510626239223e+02  1.3625019836166982e+03  -7.3831603922670399e+02  -2.0599689301167928e+03  9.9172340665083851e+01  8.3710983373113038e+01  -1.4711716969985261e+02  -7.0527030278960217e+02  -3.3731223902808410e+03  1.3638822598137884e+02  -6.0876194221977835e+02  -1.5715458887463960e+03  -8.5189062943311785e+02  9.6693001098980392e+02  -1.8907425270652544e+02  -2.1787816014160970e+04  -1.1847160347789070e+03  -2.8007231517585734e+02  -7.4889974893219994e+02  -9.0046100077878850e+02  -4.5439671804616631e+02  2.2041551623380478e+03  -1.1464481584588086e+03  -7.7398685779121706e+03  2.3685892614094460e+03  -1.0338215010554488e+03  -1.3618631566725630e+03  -1.0748799903017548e+03  -1.3856583088001771e+03  -2.9153946602174285e+04  -4.9538356638577607e+03  -1.1110339837153642e+03  -1.1818739500025436e+03  -8.2579470508588088e+02  -1.1727925615432332e+03  2.1416332249383501e+02  1.4491557365436137e+02  6.4125873918148528e+01  1.6319113062375575e+02  1.0957439588359966e+02  3.8923629539973081e+02  6.2235106563221564e+01  -5.6816621092996536e+02  1.4784677150470634e+02  1.9968270140305114e+02  3.2992777678527483e+02  2.4308076379719662e+01  9.5749036074283231e+03  -1.2213181852889541e+03  1.4599198414646315e+02  -3.1028264424095100e+03  -1.0517229561639826e+03  -4.9613904523816581e+02  -8.2689895209009455e+02  -7.2740818784664434e+03  -1.1286291486845766e+03  2.9541143412549076e+02  -7.5628144065781862e+02  -2.3753909341855983e+03  -3.3942149167404779e+02  1.4538136955335233e+03  2.4703540419446097e+02  -2.6207470672495128e+02  -1.7659130864420883e+03  -2.8659505698280518e+04  -1.2528908409741914e+03  -1.5721215478237045e+03  -2.3721867119663025e+03  2.5942419812707823e+02  -1.2281456592558682e+03  6.6497846734025597e+02  -4.1123662766961697e+03  -2.3263486557219439e+03  4.7136404806712693e+02  1.9478381177400038e+02  -2.2882949011180651e+02  1.5888882166227602e+03  8.0498250503324598e+03  -9.6971842270890352e+02  -6.7592381434160125e+03  -1.1457800839261565e+03  -1.8926262574586131e+03  -1.3730373952928305e+03  8.7666512816627503e+01  1.9674549277601261e+02  3.1550282577516168e+02  -1.3164287806949801e+03  -9.7112677398299638e+02  -1.1665466773055623e+03  -1.2479767396715322e+03  -5.2169187738860089e+01  3.7058835348559552e+02  -2.6708535296006585e+03  -9.6815714531841913e+03  -1.1475374703852872e+03  2.2805264954808995e+03  2.6269179423079771e+02  -3.2017711321241347e+02  2.8672004872006064e+03  5.4450767783553169e+02  -4.9398207049368302e+03  -1.2096658607165950e+03  -1.3955916160114481e+04  2.2282818110714834e+02  -1.9634994649387070e+03  -1.9666503705707478e+02  -7.5303776645127357e+01  -4.5290259076478169e+03  -1.1655048492251394e+03  -2.6297175661302117e+03  -2.1527913360749403e+03  4.9419402513857392e+02  3.1372758477246799e+02  -1.2430550189746129e+