<?xml version="1.0"?>
<VTKFile type="UnstructuredGrid"  version="0.1"  >
<UnstructuredGrid>
<Piece  NumberOfPoints="1855" NumberOfCells="3532">
<Points>
<DataArray  type="Float64"  NumberOfComponents="3"  format="ascii">0 0 0  30 0 0  30 -10 0  0 -10 0  0.1391574078963744 0 0  0.2856388821882616 0 0  0.4398299073010886 0 0  0.6021362569539473 0 0  0.7729850389704483 0 0  0.9528258543586996 0 0  1.142131984380316 0 0  1.34140159760994 0 0  1.551159074717981 0 0  1.771956417032531 0 0  2.004374674080994 0 0  2.249025475789527 0 0  2.506552636773105 0 0  2.777633857742732 0 0  3.062982518028728 0 0  3.363349525995907 0 0  3.679525322337712 0 0  4.01234195575742 0 0  4.362675247811097 0 0  4.731447135329707 0 0  5.119628065610077 0 0  5.528239565804708 0 0  5.958356943167011 0 0  6.411112081475485 0 0  6.887696441559404 0 0  7.389364184530748 0 0  7.917435485335147 0 0  8.473300005202017 0 0  9.058420557070402 0 0  9.674336929103793 0 0  10.32266995225095 0 0  11.00512576896296 0 0  11.72350030646412 0 0  12.47968402994705 0 0  13.27566689579597 0 0  14.1135435963616 0 0  14.9955190732806 0 0  15.92391430904694 0 0  16.90117245730496 0 0  17.92986524844506 0 0  19.01269976086341 0 0  20.15252556282024 0 0  21.35234220269763 0 0  22.61530708683689 0 0  23.94474379751883 0 0  25.34415086349739 0 0  26.81721093579712 0 0  28.3678004819169 0 0  30 -1.111111111111111 0  30 -2.222222222222222 0  30 -3.333333333333333 0  30 -4.444444444444445 0  30 -5.555555555555555 0  30 -6.666666666666666 0  30 -7.777777777777777 0  30 -8.888888888888889 0  28.36780047917311 -10 0  26.8172109305839 -10 0  25.34415085606858 -10 0  23.94474378810899 -10 0  22.61530707566275 -10 0  21.3523421899591 -10 0  20.15252554870171 -10 0  19.01269974553473 -10 0  17.92986523206254 -10 0  16.90117244001232 -10 0  15.92391429097614 -10 0  14.99551905455266 -10 0  14.11354357708742 -10 0  13.27566687607703 -10 0  12.47968400987599 -10 0  11.72350028612546 -10 0  11.00512574843363 -10 0  10.32266993160086 -10 0  9.674336908396342 -10 0  9.058420536362949 -10 0  8.473299984546333 -10 0  7.917435464777824 -10 0  7.389364164113587 -10 0  6.887696420787165 -10 0  6.411112061446698 -10 0  5.95835692337857 -10 0  5.528239546282652 -10 0  5.119628046377237 -10 0  4.731447115907979 -10 0  4.362675229213632 -10 0  4.012341937260036 -10 0  3.679525304434552 -10 0  3.363349508456405 -10 0  3.062982500861274 -10 0  2.777633840953978 -10 0  2.506552620368097 -10 0  2.249025459771861 -10 0  2.004374658452946 -10 0  1.771956401795187 -10 0  1.551159059871345 -10 0  1.341401583153029 -10 0  1.142131970307521 -10 0  0.9528258406748833 -10 0  0.7729850256685147 -10 0  0.6021362439621285 -10 0  0.4398298947504031 -10 0  0.2856388700059078 -10 0  0.1391573960769001 -10 0  0 -9.855072463768115 0  0 -9.710144927536232 0  0 -9.565217391304348 0  0 -9.420289855072463 0  0 -9.27536231884058 0  0 -9.130434782608695 0  0 -8.985507246376812 0  0 -8.840579710144928 0  0 -8.695652173913043 0  0 -8.55072463768116 0  0 -8.405797101449275 0  0 -8.260869565217391 0  0 -8.115942028985508 0  0 -7.971014492753623 0  0 -7.826086956521739 0  0 -7.681159420289855 0  0 -7.536231884057971 0  0 -7.391304347826087 0  0 -7.246376811594203 0  0 -7.101449275362318 0  0 -6.956521739130435 0  0 -6.811594202898551 0  0 -6.666666666666667 0  0 -6.521739130434783 0  0 -6.376811594202898 0  0 -6.231884057971015 0  0 -6.086956521739131 0  0 -5.942028985507246 0  0 -5.797101449275362 0  0 -5.652173913043478 0  0 -5.507246376811594 0  0 -5.36231884057971 0  0 -5.217391304347826 0  0 -5.072463768115941 0  0 -4.927536231884058 0  0 -4.782608695652174 0  0 -4.637681159420289 0  0 -4.492753623188406 0  0 -4.347826086956522 0  0 -4.202898550724638 0  0 -4.057971014492754 0  0 -3.913043478260869 0  0 -3.768115942028985 0  0 -3.623188405797101 0  0 -3.478260869565217 0  0 -3.333333333333334 0  0 -3.188405797101449 0  0 -3.043478260869565 0  0 -2.898550724637681 0  0 -2.753623188405797 0  0 -2.608695652173912 0  0 -2.463768115942029 0  0 -2.318840579710145 0  0 -2.173913043478261 0  0 -2.028985507246377 0  0 -1.884057971014492 0  0 -1.739130434782609 0  0 -1.594202898550725 0  0 -1.44927536231884 0  0 -1.304347826086957 0  0 -1.159420289855072 0  0 -1.014492753623188 0  0 -0.8695652173913047 0  0 -0.72463768115942 0  0 -0.579710144927537 0  0 -0.4347826086956523 0  0 -0.2898550724637676 0  0 -0.1449275362318829 0  5.15859856094262 -4.976557621770688 0  2.816777084926057 -7.160262673925935 0  2.81677708460006 -2.839737326002783 0  2.227649803257325 -5.003121586636773 0  1.518662968975629 -8.46230852045241 0  1.518662969184829 -1.537691480152612 0  9.960740911025725 -5.055901393541221 0  1.491099662214591 -3.691833922963321 0  1.503675657181264 -6.345020369042368 0  5.319208041801049 -7.493850249937013 0  5.291109955459268 -2.489368743223226 0  1.096914507335763 -2.53623188405797 0  1.096914507253562 -7.463768115942029 0  1.089580194952752 -4.71277167923441 0  15.07565076110197 -5.047572991082069 0  7.501630508673601 -5.937500100385354 0  0.8894869418764504 -5.623930488933245 0  2.955144522453978 -1.440834296472408 0  2.955144521140721 -8.559165705576945 0  8.106603955004623 -2.748811534843258 0  3.662152539483591 -4.228178367024407 0  3.662181528265114 -5.771746159989156 0  0.8436558190317136 -0.8541050638451999 0  0.8436558075840921 -9.145894948342754 0  0.7854168197005933 -1.811594202898552 0  0.7894693398152999 -3.286543351392342 0  0.7854168196772591 -8.188405797101449 0  0.7854168196772591 -6.739130434782609 0  20.00078956016804 -4.999999999785771 0  0.7379120031523989 -3.977302749614766 0  6.584332478112232 -3.934875417052907 0  7.295091310194352 -7.969791332537982 0  9.811174303464586 -7.412814499648229 0  4.013376806449688 -2.206189431585293 0  4.013376806983409 -7.793810569017377 0  12.11177433894592 -2.818343737884045 0  2.591152707837148 -3.990098461753838 0  2.58990939378082 -6.025895074707176 0  25.43156400064585 -5.044446479916348 0  2.03262751726143 -2.282125834846944 0  2.032627517335952 -7.717874165160392 0  12.51865094522923 -6.491408052923457 0  0.598175343983641 -6.156971652625402 0  2.126700074935224 -0.8767654465386991 0  2.126700059112423 -9.123234559633019 0  6.617961838548696 -1.617756429129908 0  0.5903949564549755 -4.980060355019413 0  1.676697585305984 -5.547101897225158 0  4.773518305133987 -3.729331162566817 0  4.77931803486508 -6.231222307502165 0  4.878549698409591 -8.72048903376362 0  4.852580875634024 -1.222215410052823 0  0.5487847095754042 -2.675169258708207 0  0.545113423825768 -7.32369553390529 0  1.78738026998851 -4.400451872599477 0  1.68244194111824 -3.010100184333533 0  1.683984276238402 -7.018293626028473 0  9.998503440677371 -2.00585287985007 0  3.693061162502273 -3.243678395563028 0  3.694987482168253 -6.757603268814477 0  6.081763036485869 -5.83414381546261 0  0.5196640460586313 -1.350633211792632 0  0.5196640458460706 -8.649366789040087 0  3.84593363904758 -0.9906418103762418 0  3.845933620847308 -9.009358200471317 0  17.41551885287501 -3.057748733689079 0  17.30725517812527 -7.002961443761516 0  8.117698464370697 -4.451550942597151 0  0.4918476668493152 -0.4789811193757592 0  0.4918476560347713 -9.521018882514893 0  1.463770869328428 -0.6252343353791154 0  1.463770854281917 -9.374765668872765 0  0.5034132782032188 -4.464280853772128 0  3.138906271796685 -4.99999841599503 0  14.61209972381335 -2.388610981020637 0  6.208601124947327 -8.776231214192325 0  14.74910972998159 -7.542186851303819 0  2.243794246335625 -1.632184311040998 0  2.243794245689214 -8.367815689183566 0  0.4590235278399923 -5.431413993025926 0  0.4971508861448406 -2.209632053221267 0  0.4971508861368665 -7.790367946777407 0  0.4644363683211541 -3.560571347760519 0  6.478811279411406 -7.007392971062433 0  1.238895267772762 -4.173677632458826 0  1.293241773632479 -2.02256720952064 0  1.293241773542714 -7.977432790434841 0  0.4324740478030531 -0.942028985507247 0  0.4324740423701829 -9.057971014492754 0  2.117396640811705 -3.472968170680347 0  2.107095929630507 -6.531506384346077 0  8.087741545730886 -1.392783601483453 0  1.028911946384717 -1.352376108341404 0  1.028911946221715 -8.647623891551962 0  4.05691976296832 -4.991522392209158 0  11.51826881314265 -8.065248940008736 0  1.618560396201739 -4.958056164503666 0  2.701984523487646 -2.141781914603403 0  2.70198452396172 -7.858218085853512 0  2.843615645746219 -9.289121726447632 0  2.843615661334342 -0.7108782798429658 0  8.678774612240533 -8.488146490452822 0  6.487906449371135 -2.667543558824978 0  8.369190916679937 -7.129867754908394 0  11.80978191929258 -4.655775487536958 0  0.3792065166453504 -3.113833531412848 0  0.4134714637263563 -6.58827691137208 0  9.551050695080825 -3.49648183875815 0  1.083867845277057 -6.036251777836495 0  0.3756430921870901 -1.80381664325008 0  0.3756430921689482 -8.196183356748573 0  3.113073783220456 -3.503408140759125 0  3.113391383189963 -6.496678880796299 0  22.62850736315072 -3.277987336300344 0  22.59385352108348 -6.800312122582239 0  0.3777114402537816 -4.137047872695438 0  0.9196816123347897 -0.4281025456111269 0  0.9196815944880363 -9.571897460530383 0  0.4052043328723194 -5.827814332459883 0  8.865857694874787 -5.767686953139113 0  1.200388325130726 -5.182186034620629 0  5.65297436943758 -4.325500846767599 0  1.200079167961391 -3.009849046583253 0  1.20883344838 -7.021823297793294 0  1.057642414577487 -3.660996704809145 0  10.88812987788297 -6.333458225047037 0  4.493502926606794 -2.839780197438185 0  4.485862892033458 -7.147606077919463 0  0.3631651408878085 -7.003529808558233 0  1.946748828463205 -6.049056369468467 0  6.918750162798794 -4.993796052442676 0  3.351203216022585 -1.980935554775394 0  3.351203216441711 -8.019064445907297 0  2.281892243515294 -2.856654416292082 0  2.281892243715877 -7.143345583598931 0  5.811143619672087 -0.9953286820321026 0  2.695713766833098 -4.565354125099452 0  2.698172168139827 -5.435483248292925 0  19.86166219288896 -2.493475492328429 0  19.83739102036415 -7.594404063416508
[...]
<PointData  Vectors="displacement"> 
<DataArray  type="Float64"  Name="displacement"  NumberOfComponents="3" format="ascii">1.2974146406231110e-01 6.4056408010237889e-02 0.0000000000000000e+00  2.1147043455034567e-07 1.5400721319982455e-04 0.0000000000000000e+00  -3.0710850433735774e-07 -1.5759176051971517e-07 0.0000000000000000e+00  2.0023309541426014e-07 -1.9247009650024962e-07 0.0000000000000000e+00  6.7544014600604496e-02 1.1133905133373419e-02 0.0000000000000000e+00  3.8165376683744805e-02 3.7457532156694221e-03 0.0000000000000000e+00  2.6212504767048967e-02 1.2907122612593584e-03 0.0000000000000000e+00  1.8547957196612529e-02 6.6669916368953305e-04 0.0000000000000000e+00  1.4782974068541489e-02 8.7714025761393053e-05 0.0000000000000000e+00  1.1842888796938445e-02 -1.6284845342507635e-04 0.0000000000000000e+00  9.9397997086664424e-03 -3.0459256467258052e-04 0.0000000000000000e+00  8.4697305023196355e-03 -4.2836666882069990e-04 0.0000000000000000e+00  7.2520441701981091e-03 -4.7646697908342977e-04 0.0000000000000000e+00  6.3213841427535375e-03 -5.3198656281749001e-04 0.0000000000000000e+00  5.5148714336220881e-03 -5.4574352955375123e-04 0.0000000000000000e+00  4.9173651871031688e-03 -5.3568270027537143e-04 0.0000000000000000e+00  4.3505288471984141e-03 -5.5313162516752474e-04 0.0000000000000000e+00  3.9039660311580640e-03 -5.5727962539539393e-04 0.0000000000000000e+00  3.4739491854442659e-03 -5.4583301813931786e-04 0.0000000000000000e+00  3.1250465648580876e-03 -5.3020539625583040e-04 0.0000000000000000e+00  2.8104476056977591e-03 -5.0947301077568349e-04 0.0000000000000000e+00  2.5351140518104368e-03 -4.8591907816319030e-04 0.0000000000000000e+00  2.2943048871912506e-03 -4.6355168997633934e-04 0.0000000000000000e+00  2.0711097657355355e-03 -4.3811019236126740e-04 0.0000000000000000e+00  1.8658000502944369e-03 -4.0320803076388206e-04 0.0000000000000000e+00  1.6873681981855872e-03 -3.6440855908871406e-04 0.0000000000000000e+00  1.5344818280676670e-03 -3.2949277000054870e-04 0.0000000000000000e+00  1.3849816814465504e-03 -2.8774646511711428e-04 0.0000000000000000e+00  1.2571546903885065e-03 -2.4701566277194150e-04 0.0000000000000000e+00  1.1351296048922957e-03 -2.0237785203042162e-04 0.0000000000000000e+00  1.0271973581110090e-03 -1.5616166956999953e-04 0.0000000000000000e+00  9.3314613975690477e-04 -1.0899984535935969e-04 0.0000000000000000e+00  8.5411634178381558e-04 -6.5710687454734922e-05 0.0000000000000000e+00  7.7675177480596700e-04 -2.0932406678176614e-05 0.0000000000000000e+00  7.1028314722059198e-04 2.0865097935424728e-05 0.0000000000000000e+00  6.5210179352323202e-04 6.0774999214602679e-05 0.0000000000000000e+00  6.0356152671581264e-04 9.5368417524105661e-05 0.0000000000000000e+00  5.5769351195753946e-04 1.2674690265482007e-04 0.0000000000000000e+00  5.1879672942983194e-04 1.5195995295427190e-04 0.0000000000000000e+00  4.7981165171798727e-04 1.7366961749401658e-04 0.0000000000000000e+00  4.4752995203744910e-04 1.8831647561507755e-04 0.0000000000000000e+00  4.1315083466923714e-04 1.9910746212991408e-04 0.0000000000000000e+00  3.8208160463206018e-04 2.0401030778872354e-04 0.0000000000000000e+00  3.4873090013285573e-04 2.0535815326297322e-04 0.0000000000000000e+00  3.1760173410029757e-04 2.0237255859091547e-04 0.0000000000000000e+00  2.8218344891392907e-04 1.9688696991965762e-04 0.0000000000000000e+00  2.4706445441985474e-04 1.8972104277536475e-04 0.0000000000000000e+00  2.0956150915378769e-04 1.8171944555781522e-04 0.0000000000000000e+00  1.7373304842696936e-04 1.7312315235995458e-04 0.0000000000000000e+00  1.3275420543955378e-04 1.6448700523720056e-04 0.0000000000000000e+00  8.9072489095690384e-05 1.5809054101322592e-04 0.0000000000000000e+00  4.4355464462748587e-05 1.5458419892440582e-04 0.0000000000000000e+00  5.0927629353712415e-07 1.2883756897815937e-04 0.0000000000000000e+00  -1.3408479812803404e-07 1.0178759366670451e-04 0.0000000000000000e+00  -6.2292644413497165e-08 7.6857743285545376e-05 0.0000000000000000e+00  1.3901383173351772e-07 5.4712484722439305e-05 0.0000000000000000e+00  -1.8143791891085943e-07 3.5421810595712540e-05 0.0000000000000000e+00  1.4833112477053961e-07 1.9723409631511986e-05 0.0000000000000000e+00  -1.1187879686773141e-07 8.1741597129704914e-06 0.0000000000000000e+00  -1.0832680414125465e-08 1.2792199016574785e-06 0.0000000000000000e+00  -1.6005383585257429e-07 -6.9146127632808953e-07 0.0000000000000000e+00  -1.8073581494665364e-09 -7.6389582861836445e-07 0.0000000000000000e+00  6.0975947200063794e-07 -8.4841802260053063e-07 0.0000000000000000e+00  8.6382390475281791e-08 -2.6945935377420480e-07 0.0000000000000000e+00  1.3698330755744239e-07 -4.3442208823997221e-07 0.0000000000000000e+00  7.0156727538412464e-07 -6.1127713830979632e-07 0.0000000000000000e+00  2.3347263894060875e-07 -8.2736830725432188e-07 0.0000000000000000e+00  1.1439784613865631e-06 -7.7411411617903819e-07 0.0000000000000000e+00  3.5952325992600643e-07 -4.8924724299951007e-07 0.0000000000000000e+00  1.1225716270681685e-06 -5.6180349429936139e-07 0.0000000000000000e+00  5.9298336906402023e-07 -2.2456501461841687e-07 0.0000000000000000e+00  8.4781876452922539e-07 -2.8435502438438719e-07 0.0000000000000000e+00  8.6915035540233121e-07 5.8318784332056859e-08 0.0000000000000000e+00  1.0136748799593131e-06 6.1213707520381021e-08 0.0000000000000000e+00  2.9716448289419659e-07 1.3509951902675786e-07 0.0000000000000000e+00  6.2917217557767066e-07 4.6631656897226963e-07 0.0000000000000000e+00  -2.6977260501529575e-08 1.3741125233753326e-07 0.0000000000000000e+00  9.2579870163838898e-07 1.2255136108767413e-06 0.0000000000000000e+00  2.9716843193804651e-07 8.5838253854749201e-07 0.0000000000000000e+00  6.5245320962508468e-07 7.9580920515264593e-07 0.0000000000000000e+00  -5.6851528455714461e-07 7.7605015146149085e-07 0.0000000000000000e+00  1.0812097417151721e-07 1.1854171050648048e-06 0.0000000000000000e+00  -7.6524511292788071e-07 1.6184665784801715e-06 0.0000000000000000e+00  -9.1145070559976422e-07 9.9223360749091281e-07 0.0000000000000000e+00  -8.9264491304652658e-07 4.8296318706918358e-07 0.0000000000000000e+00  -2.5142307888783578e-06 1.2312125074810829e-06 0.0000000000000000e+00  -9.8413058423469421e-07 5.6640866586772001e-07 0.0000000000000000e+00  -1.7434174361009492e-06 6.7098742376071534e-07 0.0000000000000000e+00  -1.0905253627166918e-06 4.1398083750909483e-07 0.0000000000000000e+00  -2.6164619445460303e-06 6.5322061181421366e-07 0.0000000000000000e+00  -2.5152579064077598e-07 -2.4060313318239403e-08 0.0000000000000000e+00  -1.0736998475964120e-06 4.2608619093287043e-08 0.0000000000000000e+00  -8.9272449142906565e-07 1.7469980556654039e-08 0.0000000000000000e+00  -6.4785063459093110e-07 -5.4986761216635646e-08 0.0000000000000000e+00  -1.4661273184175549e-06 -2.9631671268605199e-07 0.0000000000000000e+00  -3.5003302570298428e-07 -1.1911328505582461e-07 0.0000000000000000e+00  -1.2027551530785437e-06 -4.1165925044365405e-07 0.0000000000000000e+00  -1.7032372713658361e-07 -1.0003898967294665e-07 0.0000000000000000e+00  -2.1115734706088076e-07 -3.2382540602038408e-07 0.0000000000000000e+00  -5.2501698458392899e-07 -2.8520144444153459e-07 0.0000000000000000e+00  -2.8636214867742338e-07 -3.0417667606970401e-07 0.0000000000000000e+00  -7.1860736440461387e-08 -1.0825426461333841e-07 0.0000000000000000e+00  -1.6861300249122226e-07 -1.6142014042396710e-07 0.0000000000000000e+00  -1.5426620130323011e-08 -2.0556955298679499e-07 0.0000000000000000e+00  5.3243894284075857e-10 -1.0992625745934728e-07 0.0000000000000000e+00  -2.4273589811629610e-07 -1.9276173764381835e-07 0.0000000000000000e+00  5.7279075930746967e-08 -1.9261473909499640e-07 0.0000000000000000e+00  -5.8438264043866898e-08 -6.3944132658161378e-08 0.0000000000000000e+00  -4.8531370197490872e-08 5.5623421280293713e-06 0.0000000000000000e+00  7.1726341642513053e-08 1.4123190435377671e-05 0.0000000000000000e+00  -8.9443287514439000e-08 2.5119956503675213e-05 0.0000000000000000e+00  8.2514419469980424e-09 3.8598867987461947e-05 0.0000000000000000e+00  -4.1913136634382993e-08 5.4076223601191120e-05 0.0000000000000000e+00  -3.3394837751437894e-08 7.1725322049230405e-05 0.0000000000000000e+00  7.5887754240900331e-08 9.1166950241849766e-05 0.0000000000000000e+00  -7.0574105991265536e-08 1.1240541248951881e-04 0.0000000000000000e+00  6.4415696743983232e-08 1.3534712636259006e-04 0.0000000000000000e+00  -8.5356488368108737e-08 1.5985640707682079e-04 0.0000000000000000e+00  5.2497781932598016e-08 1.8587067775057000e-04 0.0000000000000000e+00  -3.3792180342019073e-08 2.1337481559540459e-04 0.0000000000000000e+00  3.7990267462079039e-08 2.4230853748443597e-04 0.0000000000000000e+00  -7.0342988804889451e-08 2.7260370557605820e-04 0.0000000000000000e+00  4.3283487750138801e-08 3.0429684556272592e-04 0.0000000000000000e+00  -5.2039233026054388e-08 3.3733255450829928e-04 0.0000000000000000e+00  -3.3515759645697325e-08 3.7179865989929548e-04 0.0000000000000000e+00  1.6671850210974649e-08 4.0750146321422387e-04 0.0000000000000000e+00  3.9958508837581101e-08 4.4472602054337603e-04 0.0000000000000000e+00  -1.9229095334646227e-08 4.8329454547376132e-04 0.0000000000000000e+00  2.8594177617382540e-08 5.2333530164673135e-04 0.0000000000000000e+00  -7.5301054284717464e-08 5.6483438269295367e-04 0.0000000000000000e+00  2.0980225029200242e-08 6.0804178986728771e-04 0.0000000000000000e+00  9.0115099580271063e-09 6.5253601714898406e-04 0.0000000000000000e+00  -1.2200827133547816e-08 6.9916832028187731e-04 0.0000000000000000e+00  -9.0709744840239128e-08 7.4757937395170115e-04 0.0000000000000000e+00  -4.4031664048052079e-08 7.9769600358370796e-04 0.0000000000000000e+00  -4.5183821164790692e-08 8.4962488470159757e-04 0.0000000000000000e+00  6.2740380832060945e-08 9.0394697941897310e-04 0.0000000000000000e+00  -1.1439773896393557e-07 9.6060856203699784e-04 0.0000000000000000e+00  3.8412266734097818e-08 1.0198186793769813e-03 0.0000000000000000e+00  -1.2653633904188647e-07 1.0816292912831135e-03 0.0000000000000000e+00  4.6820983976889296e-08 1.1464842635000492e-03 0.0000000000000000e+00  -9.8748846479950074e-08 1.2141708845315937e-03 0.0000000000000000e+00  -5.1533855571177272e-08 1.2849565698647800e-03 0.0000000000000000e+00  -6.6724937890031840e-08 1.3607756782425303e-03 0.0000000000000000e+00  -1.2380929147888919e-08 1.4386781052245993e-03 0.0000000000000000e+00  1.5223973320079390e-07 1.5231811431694637e-03 0.0000000000000000e+00  -3.7817099641117316e-07 1.6113112750080656e-03 0.0000000000000000e+00  2.0166865569740661e-07 1.7042596516882655e-03 0.0000000000000000e+00  -2.1708109190967280e-07 1.8037780351643610e-03 0.0000000000000000e+00  1.4667268121728114e-07 1.9101818220478659e-03 0.0000000000000000e+00  -2.2096139078799716e-07 2.0236966106909186e-03 0.0000000000000000e+00  -1.5064689524409457e-07 2.1445670534434688e-03 0.0000000000000000e+00  -5.2982583369989353e-08 2.2768389759068950e-03 0.0000000000000000e+00  5.5361533919833217e-07 2.4173548129283766e-03 0.0000000000000000e+00  -3.7923719907497571e-07 2.5702629929823966e-03 0.0000000000000000e+00  8.9373670946391339e-09 2.7371681495333027e-03 0.0000000000000000e+00  1.6774156455122331e-07 2.9201847035077015e-03 0.0000000000000000e+00  -1.5570066964718250e-07 3.1180934723918667e-03 0.0000000000000000e+00  -1.8109220493109815e-07 3.3340103055095852e-03 0.0000000000000000e+00  -9.6191764437413308e-07 3.5823968321274445e-03 0.0000000000000000e+00  9.5941824640668782e-07 3.8526840604056760e-03 0.0000000000000000e+00  -1.4063240978807945e-06 4.1556733959921995e-03 0.0000000000000000e+00  1.8320218515250791e-06 4.5028705624835319e-03 0.0000000000000000e+00  -2.4933818825851912e-06 4.8960051274365589e-03 0.0000000000000000e+00  6.6928808227528778e-07 5.3527595000238282e-03 0.0000000000000000e+00  -4.3221184707394546e-06 5.8826900164107186e-03 0.0000000000000000e+00  1.6429812749691201e-06 6.5319891897820453e-03 0.0000000000000000e+00  -1.2042301475773127e-05 7.2793142860765152e-03 0.0000000000000000e+00  3.1911439472998451e-06 8.2147177258748531e-03 0.0000000000000000e+00  -1.7736227913314179e-05 9.3441290250243676e-03 0.0000000000000000e+00  -8.4221021519159392e-06 1.0875691622901747e-02 0.0000000000000000e+00  -2.5812515592236057e-05 1.3045971647708354e-02 0.0000000000000000e+00  -8.9153751557063333e-05 1.5788069221203693e-02 0.0000000000000000e+00  -1.0902482967249342e-04 2.0150824258992586e-02 0.0000000000000000e+00  -9.4778466397402733e-05 2.8797900616132868e-02 0.0000000000000000e+00  1.3571426571077116e-05 4.2173311002433780e-02 0.0000000000000000e+00  -8.8368738428399189e-05 -5.0967431424277015e-04 0.0000000000000000e+00  -4.5156142935051587e-04 1.2354089784728992e-04 0.0000000000000000e+00  -4.0188939039694631e-05 -6.2476797882884570e-04 0.0000000000000000e+00  -5.9410455267743770e-04 4.0163151183265412e-04 0.0000000000000000e+00  -2.1558280462976616e-04 1.3401205943998690e-04 0.0000000000000000e+00  1.4027354549936915e-04 -5.0739624645386114e-04 0.0000000000000000e+00  3.7314861959089548e-04 -2.2383551221779997e-04 0.0000000000000000e+00  -7.2843252121039342e-04 1.0273029518407971e-03 0.0000000000000000e+00  -3.9072736577905657e-04 5.0570973207840454e-04 0.0000000000000000e+00  -2.9713501666748772e-04 -1.4172457522284481e-04 0.0000000000000000e+00  9.2715120296549909e-04 -9.2453151436031782e-04 0.0000000000000000e+00  -9.7430244745400399e-04 1.7278318840090816e-03 0.0000000000000000e+00  -2.3023488433395115e-04 3.3524714081243956e-04 0.0000000000000000e+00  -4.7174973565463409e-04 1.0886708297667982e-03 0.0000000000000000e+00  3.4491926613246422e-04 2.9066398082353823e-05 0.0000000000000000e+00  8.5036000085812058e-05 -3.4035254860931405e-04 0.0000000000000000e+00  -3.0804730502561505e-04 8.5305552468905796e-04 0.0000000000000000e+00  1.8111304209884238e-03 -1.4487573307062807e-03 0.0000000000000000e+00  -3.0542440219949939e-04 4.4461648188954856e-05 0.0000000000000000e+00  7.5778835964151548e-04 -4.5664620691403506e-04 0.0000000000000000e+00  -2.6936867060512354e-04 -4.2200554523168557e-04 0.0000000000000000e+00  -4.6457662394668281e-04 -1.1153077644554548e-04 0.0000000000000000e+00  5.3327024302261296e-04 -1.8402338904813470e-04 0.0000000000000000e+00  -8.2689317913228167e-05 6.4671783336171175e-05 0.0000000000000000e+00  -1.2809054252089936e-03 2.7361188988657401e-03 0.0000000000000000e+00  -6.3751431065866529e-04 1.9700010536337774e-03 0.0000000000000000e+00  -1.3444443719876068e-04 2.1199252093346925e-04 0.0000000000000000e+00  -2.0583820621351270e-04 5.3939708143032673e-04 0.0000000000000000e+00  2.1704316824882136e-04 6.4364643962044830e-05 0.0000000000000000e+00  -4.5267140909627007e-04 1.6119898902133719e-03 0.0000000000000000e+00  4.2141156789992604e-04 -6.3584047737332179e-04 0.0000000000000000e+00  -9.3342517711710499e-05 -1.1883348252200805e-04 0.0000000000000000e+00  1.2666253824525150e-04 -1.0787502771848661e-04 0.0000000000000000e+00  1.0256349668748780e-03 -1.1443223403845531e-03 0.0000000000000000e+00  -3.8576169443965230e-04 -3.0532728583866970e-05 0.0000000000000000e+00  5.5163304114124422e-04 -3.5229933821826761e-05 0.0000000000000000e+00  -5.4801735510923502e-04 5.5396555125836639e-05 0.0000000000000000e+00  -5.2707444351599811e-04 2.2383213505186412e-04 0.0000000000000000e+00  8.9196018675570928e-05 4.9203158045588840e-05 0.0000000000000000e+00  -2.1447647657390191e-04 -3.3320105191244422e-04 0.0000000000000000e+00  -3.4547530472884191e-04 1.9058382139469968e-04 0.0000000000000000e+00  2.7995310527407412e-04 -4.9194456706450426e-05 0.0000000000000000e+00  -1.8551442497680097e-04 7.3341882485725726e-04 0.0000000000000000e+00  3.1815677150626950e-03 -1.7985337807114199e-03 0.0000000000000000e+00  -1.8212003821744914e-04 4.2917953504292547e-05 0.0000000000000000e+00  1.1641600712144302e-03 -6.1320467541205030e-04 0.0000000000000000e+00  -2.5901584100529028e-04 1.1786590016998821e-03 0.0000000000000000e+00  -4.9843194440530052e-04 6.0747648731148340e-04 0.0000000000000000e+00  2.2163658236783350e-04 -7.6426057582042433e-04 0.0000000000000000e+00  -3.3203574941198418e-04 -2.5239499741986314e-04 0.0000000000000000e+00  -2.4664742083987712e-04 -3.2689921734107197e-05 0.0000000000000000e+00  1.6968087435232022e-03 -9.0659523968527494e-04 0.0000000000000000e+00  -6.7663696771742745e-04 2.7787076233530203e-03 0.0000000000000000e+00  -1.2447218812183038e-04 4.0931762794667407e-04 0.0000000000000000e+00  -6.4440302752883554e-04 7.0587440508981109e-04 0.0000000000000000e+00  -7.7079048840026970e-04 7.1253144783203889e-04 0.0000000000000000e+00  -3.6350940527820236e-04 3.4212654099964135e-04 0.0000000000000000e+00  7.2553581140451435e-04 -1.7089097407621000e-04 0.0000000000000000e+00  1.3690638058439788e-04 -7.7873896962524876e-04 0.0000000000000000e+00  -4.5952958573538427e-04 -3.5479286918837820e-05 0.0000000000000000e+00  -8.6452269886805021e-05 -3.9125871903113597e-04 0.0000000000000000e+00  -1.6230264446403222e-03 4.4169738612265756e-03 0.0000000000000000e+00  -7.3417566031576867e-05 1.3875383429815227e-04 0.0000000000000000e+00  2.2192144447227137e-03 -1.1068418140381749e-03 0.0000000000000000e+00  -2.3681389558606329e-04 1.8092805707734315e-06 0.0000000000000000e+00  3.4050820174842108e-04 1.1251101353712038e-04 0.0000000000000000e+00  2.0051713826271390e-04 2.0003694555751256e-05 0.0000000000000000e+00  3.9977477071777203e-04 -4.2826957054137673e-04 0.0000000000000000e+00  1.9201019218189057e-03 -1.2096107115253102e-05 0.0000000000000000e+00  -3.0308023964239276e-05 2.8314958986749234e-05 0.0000000000000000e+00  4.5774259562278838e-03 -2.2165759403326123e-03 0.0000000000000000e+00  -1.0502568441753594e-04 3.4474654833639179e-05 0.0000000000000000e+00  -2.6771144490594771e-04 1.4557648989900419e-03 0.0000000000000000e+00  -5.0787422051702224e-04 -4.1972683991059054e-05 0.0000000000000000e+00  4.5672424672981262e-04 9.2453716155853523e-05 0.0000000000000000e+00  -1.5702460660495260e-04 -4.9140073467898872e-05 0.0000000000000000e+00  2.0201275079995682e-04 -2.0479047533593657e-06 0.0000000000000000e+00  1.0342477065163713e-03 -1.2786433422625281e-03 0.0000000000000000e+00  -2.9506863911018107e-04 1.0144200978954713e-04 0.0000000000000000e+00  -1.7712533661218242e-04 1.0148444136162448e-03 0.0000000000000000e+00  -8.4834792712238716e-04 3.4340481438833803e-03 0.0000000000000000e+00  -9.9352894998739854e-05 3.0330031142534867e-04 0.0000000000000000e+00  -3.6547782995005444e-04 2.0575821896985547e-03 0.0000000000000000e+00  -1.4883668713391011e-04 -2.2958023245057418e-04 0.0000000000000000e+00  -6.0199456209410337e-04 1.1663537111467651e-03 0.0000000000000000e+00  -8.7123204830863400e-04 9.4559232707326277e-04 0.0000000000000000e+00  -2.2752136625278351e-04 2.2173069633392393e-04 0.0000000000000000e+00  -2.0792342038481724e-03 5.4133650423821749e-03 0.0000000000000000e+00  -4.6835969752065584e-05 7.9534252797925430e-05 0.0000000000000000e+00  -6.4307756176196955e-04 3.1466906251616114e-04 0.0000000000000000e+00  -4.5923995345239691e-04 3.2432284309784001e-04 0.0000000000000000e+00  9.7731780280863696e-04 -3.4563608142279068e-04 0.0000000000000000e+00  -7.0279781845348274e-04 8.1371441470296511e-04 0.0000000000000000e+00  -1.4078635102361206e-04 1.2715820780805334e-04 0.0000000000000000e+00  -3.2517743795319460e-04 -3.4283715250082319e-04 0.0000000000000000e+00  1.4483315057928903e-04 -3.8598214372262989e-05 0.0000000000000000e+00  -5.5707779869582476e-04 7.3985120485193991e-04 0.0000000000000000e+00  5.6395279835637943e-04 -1.0450152401559687e-03 0.0000000000000000e+00  -3.8136907534967274e-04 1.0136684371190861e-04 0.0000000000000000e+00  -1.7742817717860331e-04 1.9203623865659185e-05 0.0000000000000000e+00  3.1564221926706970e-03 -1.3270717610412491e-03 0.0000000000000000e+00  4.1444040741912378e-06 -6.1151057809208034e-05 0.0000000000000000e+00  8.4415133241834254e-04 -7.1581837095429854e-04 0.0000000000000000e+00  4.5910465810359488e-05 -1.7831511199281096e-04 0.0000000000000000e+00  4.2712862920387139e-04 -9.420708