<?xml version="1.0"?>
<VTKFile type="UnstructuredGrid"  version="0.1"  >
<UnstructuredGrid>
<Piece  NumberOfPoints="1855" NumberOfCells="3532">
<Points>
<DataArray  type="Float64"  NumberOfComponents="3"  format="ascii">0 0 0  30 0 0  30 -10 0  0 -10 0  0.1391574078963744 0 0  0.2856388821882616 0 0  0.4398299073010886 0 0  0.6021362569539473 0 0  0.7729850389704483 0 0  0.9528258543586996 0 0  1.142131984380316 0 0  1.34140159760994 0 0  1.551159074717981 0 0  1.771956417032531 0 0  2.004374674080994 0 0  2.249025475789527 0 0  2.506552636773105 0 0  2.777633857742732 0 0  3.062982518028728 0 0  3.363349525995907 0 0  3.679525322337712 0 0  4.01234195575742 0 0  4.362675247811097 0 0  4.731447135329707 0 0  5.119628065610077 0 0  5.528239565804708 0 0  5.958356943167011 0 0  6.411112081475485 0 0  6.887696441559404 0 0  7.389364184530748 0 0  7.917435485335147 0 0  8.473300005202017 0 0  9.058420557070402 0 0  9.674336929103793 0 0  10.32266995225095 0 0  11.00512576896296 0 0  11.72350030646412 0 0  12.47968402994705 0 0  13.27566689579597 0 0  14.1135435963616 0 0  14.9955190732806 0 0  15.92391430904694 0 0  16.90117245730496 0 0  17.92986524844506 0 0  19.01269976086341 0 0  20.15252556282024 0 0  21.35234220269763 0 0  22.61530708683689 0 0  23.94474379751883 0 0  25.34415086349739 0 0  26.81721093579712 0 0  28.3678004819169 0 0  30 -1.111111111111111 0  30 -2.222222222222222 0  30 -3.333333333333333 0  30 -4.444444444444445 0  30 -5.555555555555555 0  30 -6.666666666666666 0  30 -7.777777777777777 0  30 -8.888888888888889 0  28.36780047917311 -10 0  26.8172109305839 -10 0  25.34415085606858 -10 0  23.94474378810899 -10 0  22.61530707566275 -10 0  21.3523421899591 -10 0  20.15252554870171 -10 0  19.01269974553473 -10 0  17.92986523206254 -10 0  16.90117244001232 -10 0  15.92391429097614 -10 0  14.99551905455266 -10 0  14.11354357708742 -10 0  13.27566687607703 -10 0  12.47968400987599 -10 0  11.72350028612546 -10 0  11.00512574843363 -10 0  10.32266993160086 -10 0  9.674336908396342 -10 0  9.058420536362949 -10 0  8.473299984546333 -10 0  7.917435464777824 -10 0  7.389364164113587 -10 0  6.887696420787165 -10 0  6.411112061446698 -10 0  5.95835692337857 -10 0  5.528239546282652 -10 0  5.119628046377237 -10 0  4.731447115907979 -10 0  4.362675229213632 -10 0  4.012341937260036 -10 0  3.679525304434552 -10 0  3.363349508456405 -10 0  3.062982500861274 -10 0  2.777633840953978 -10 0  2.506552620368097 -10 0  2.249025459771861 -10 0  2.004374658452946 -10 0  1.771956401795187 -10 0  1.551159059871345 -10 0  1.341401583153029 -10 0  1.142131970307521 -10 0  0.9528258406748833 -10 0  0.7729850256685147 -10 0  0.6021362439621285 -10 0  0.4398298947504031 -10 0  0.2856388700059078 -10 0  0.1391573960769001 -10 0  0 -9.855072463768115 0  0 -9.710144927536232 0  0 -9.565217391304348 0  0 -9.420289855072463 0  0 -9.27536231884058 0  0 -9.130434782608695 0  0 -8.985507246376812 0  0 -8.840579710144928 0  0 -8.695652173913043 0  0 -8.55072463768116 0  0 -8.405797101449275 0  0 -8.260869565217391 0  0 -8.115942028985508 0  0 -7.971014492753623 0  0 -7.826086956521739 0  0 -7.681159420289855 0  0 -7.536231884057971 0  0 -7.391304347826087 0  0 -7.246376811594203 0  0 -7.101449275362318 0  0 -6.956521739130435 0  0 -6.811594202898551 0  0 -6.666666666666667 0  0 -6.521739130434783 0  0 -6.376811594202898 0  0 -6.231884057971015 0  0 -6.086956521739131 0  0 -5.942028985507246 0  0 -5.797101449275362 0  0 -5.652173913043478 0  0 -5.507246376811594 0  0 -5.36231884057971 0  0 -5.217391304347826 0  0 -5.072463768115941 0  0 -4.927536231884058 0  0 -4.782608695652174 0  0 -4.637681159420289 0  0 -4.492753623188406 0  0 -4.347826086956522 0  0 -4.202898550724638 0  0 -4.057971014492754 0  0 -3.913043478260869 0  0 -3.768115942028985 0  0 -3.623188405797101 0  0 -3.478260869565217 0  0 -3.333333333333334 0  0 -3.188405797101449 0  0 -3.043478260869565 0  0 -2.898550724637681 0  0 -2.753623188405797 0  0 -2.608695652173912 0  0 -2.463768115942029 0  0 -2.318840579710145 0  0 -2.173913043478261 0  0 -2.028985507246377 0  0 -1.884057971014492 0  0 -1.739130434782609 0  0 -1.594202898550725 0  0 -1.44927536231884 0  0 -1.304347826086957 0  0 -1.159420289855072 0  0 -1.014492753623188 0  0 -0.8695652173913047 0  0 -0.72463768115942 0  0 -0.579710144927537 0  0 -0.4347826086956523 0  0 -0.2898550724637676 0  0 -0.1449275362318829 0  5.15859856094262 -4.976557621770688 0  2.816777084926057 -7.160262673925935 0  2.81677708460006 -2.839737326002783 0  2.227649803257325 -5.003121586636773 0  1.518662968975629 -8.46230852045241 0  1.518662969184829 -1.537691480152612 0  9.960740911025725 -5.055901393541221 0  1.491099662214591 -3.691833922963321 0  1.503675657181264 -6.345020369042368 0  5.319208041801049 -7.493850249937013 0  5.291109955459268 -2.489368743223226 0  1.096914507335763 -2.53623188405797 0  1.096914507253562 -7.463768115942029 0  1.089580194952752 -4.71277167923441 0  15.07565076110197 -5.047572991082069 0  7.501630508673601 -5.937500100385354 0  0.8894869418764504 -5.623930488933245 0  2.955144522453978 -1.440834296472408 0  2.955144521140721 -8.559165705576945 0  8.106603955004623 -2.748811534843258 0  3.662152539483591 -4.228178367024407 0  3.662181528265114 -5.771746159989156 0  0.8436558190317136 -0.8541050638451999 0  0.8436558075840921 -9.145894948342754 0  0.7854168197005933 -1.811594202898552 0  0.7894693398152999 -3.286543351392342 0  0.7854168196772591 -8.188405797101449 0  0.7854168196772591 -6.739130434782609 0  20.00078956016804 -4.999999999785771 0  0.7379120031523989 -3.977302749614766 0  6.584332478112232 -3.934875417052907 0  7.295091310194352 -7.969791332537982 0  9.811174303464586 -7.412814499648229 0  4.013376806449688 -2.206189431585293 0  4.013376806983409 -7.793810569017377 0  12.11177433894592 -2.818343737884045 0  2.591152707837148 -3.990098461753838 0  2.58990939378082 -6.025895074707176 0  25.43156400064585 -5.044446479916348 0  2.03262751726143 -2.282125834846944 0  2.032627517335952 -7.717874165160392 0  12.51865094522923 -6.491408052923457 0  0.598175343983641 -6.156971652625402 0  2.126700074935224 -0.8767654465386991 0  2.126700059112423 -9.123234559633019 0  6.617961838548696 -1.617756429129908 0  0.5903949564549755 -4.980060355019413 0  1.676697585305984 -5.547101897225158 0  4.773518305133987 -3.729331162566817 0  4.77931803486508 -6.231222307502165 0  4.878549698409591 -8.72048903376362 0  4.852580875634024 -1.222215410052823 0  0.5487847095754042 -2.675169258708207 0  0.545113423825768 -7.32369553390529 0  1.78738026998851 -4.400451872599477 0  1.68244194111824 -3.010100184333533 0  1.683984276238402 -7.018293626028473 0  9.998503440677371 -2.00585287985007 0  3.693061162502273 -3.243678395563028 0  3.694987482168253 -6.757603268814477 0  6.081763036485869 -5.83414381546261 0  0.5196640460586313 -1.350633211792632 0  0.5196640458460706 -8.649366789040087 0  3.84593363904758 -0.9906418103762418 0  3.845933620847308 -9.009358200471317 0  17.41551885287501 -3.057748733689079 0  17.30725517812527 -7.002961443761516 0  8.117698464370697 -4.451550942597151 0  0.4918476668493152 -0.4789811193757592 0  0.4918476560347713 -9.521018882514893 0  1.463770869328428 -0.6252343353791154 0  1.463770854281917 -9.374765668872765 0  0.5034132782032188 -4.464280853772128 0  3.138906271796685 -4.99999841599503 0  14.61209972381335 -2.388610981020637 0  6.208601124947327 -8.776231214192325 0  14.74910972998159 -7.542186851303819 0  2.243794246335625 -1.632184311040998 0  2.243794245689214 -8.367815689183566 0  0.4590235278399923 -5.431413993025926 0  0.4971508861448406 -2.209632053221267 0  0.4971508861368665 -7.790367946777407 0  0.4644363683211541 -3.560571347760519 0  6.478811279411406 -7.007392971062433 0  1.238895267772762 -4.173677632458826 0  1.293241773632479 -2.02256720952064 0  1.293241773542714 -7.977432790434841 0  0.4324740478030531 -0.942028985507247 0  0.4324740423701829 -9.057971014492754 0  2.117396640811705 -3.472968170680347 0  2.107095929630507 -6.531506384346077 0  8.087741545730886 -1.392783601483453 0  1.028911946384717 -1.352376108341404 0  1.028911946221715 -8.647623891551962 0  4.05691976296832 -4.991522392209158 0  11.51826881314265 -8.065248940008736 0  1.618560396201739 -4.958056164503666 0  2.701984523487646 -2.141781914603403 0  2.70198452396172 -7.858218085853512 0  2.843615645746219 -9.289121726447632 0  2.843615661334342 -0.7108782798429658 0  8.678774612240533 -8.488146490452822 0  6.487906449371135 -2.667543558824978 0  8.369190916679937 -7.129867754908394 0  11.80978191929258 -4.655775487536958 0  0.3792065166453504 -3.113833531412848 0  0.4134714637263563 -6.58827691137208 0  9.551050695080825 -3.49648183875815 0  1.083867845277057 -6.036251777836495 0  0.3756430921870901 -1.80381664325008 0  0.3756430921689482 -8.196183356748573 0  3.113073783220456 -3.503408140759125 0  3.113391383189963 -6.496678880796299 0  22.62850736315072 -3.277987336300344 0  22.59385352108348 -6.800312122582239 0  0.3777114402537816 -4.137047872695438 0  0.9196816123347897 -0.4281025456111269 0  0.9196815944880363 -9.571897460530383 0  0.4052043328723194 -5.827814332459883 0  8.865857694874787 -5.767686953139113 0  1.200388325130726 -5.182186034620629 0  5.65297436943758 -4.325500846767599 0  1.200079167961391 -3.009849046583253 0  1.20883344838 -7.021823297793294 0  1.057642414577487 -3.660996704809145 0  10.88812987788297 -6.333458225047037 0  4.493502926606794 -2.839780197438185 0  4.485862892033458 -7.147606077919463 0  0.3631651408878085 -7.003529808558233 0  1.946748828463205 -6.049056369468467 0  6.918750162798794 -4.993796052442676 0  3.351203216022585 -1.980935554775394 0  3.351203216441711 -8.019064445907297 0  2.281892243515294 -2.856654416292082 0  2.281892243715877 -7.143345583598931 0  5.811143619672087 -0.9953286820321026 0  2.695713766833098 -4.565354125099452 0  2.698172168139827 -5.435483248292925 0  19.86166219288896 -2.493475492328429 0  19.83739102036415 -7.594404063416508
[...]
<PointData  Vectors="displacement"> 
<DataArray  type="Float64"  Name="displacement"  NumberOfComponents="3" format="ascii">3.7441775811148784e-02 2.0153896913751509e-02 0.0000000000000000e+00  3.1199671182876490e-08 2.2630149162847301e-05 0.0000000000000000e+00  -4.5084799128245442e-08 -2.3129553469833703e-08 0.0000000000000000e+00  3.0337275623875719e-08 -2.9161182023354396e-08 0.0000000000000000e+00  1.5275124967049112e-02 -5.6172897453696784e-03 0.0000000000000000e+00  5.7446638536329912e-03 3.5323473456675629e-04 0.0000000000000000e+00  4.2178185628436518e-03 -3.0620151263884227e-04 0.0000000000000000e+00  2.7707729716536862e-03 -1.2415867925460048e-04 0.0000000000000000e+00  2.2109662453590031e-03 -1.2467294611455190e-04 0.0000000000000000e+00  1.7570170640165085e-03 -1.2289825992329895e-04 0.0000000000000000e+00  1.4694411304369186e-03 -1.1323764245439528e-04 0.0000000000000000e+00  1.2493818650558665e-03 -1.1323179876581265e-04 0.0000000000000000e+00  1.0679713033586041e-03 -1.0818253144652932e-04 0.0000000000000000e+00  9.3015243658433916e-04 -1.0789055421077223e-04 0.0000000000000000e+00  8.1047194794121717e-04 -1.0378060474762950e-04 0.0000000000000000e+00  7.2220165872773111e-04 -9.7574297576967528e-05 0.0000000000000000e+00  6.3864261136364279e-04 -9.6840203389371874e-05 0.0000000000000000e+00  5.7288088256418721e-04 -9.4741459969901448e-05 0.0000000000000000e+00  5.0952405462915973e-04 -9.0980844547383646e-05 0.0000000000000000e+00  4.5817024135479421e-04 -8.7006378459751588e-05 0.0000000000000000e+00  4.1187394632125675e-04 -8.2588413597869389e-05 0.0000000000000000e+00  3.7138183593178104e-04 -7.8015575629327466e-05 0.0000000000000000e+00  3.3598031250741170e-04 -7.3788207761436004e-05 0.0000000000000000e+00  3.0319324164960478e-04 -6.9262436171341519e-05 0.0000000000000000e+00  2.7302179682750727e-04 -6.3465518549807968e-05 0.0000000000000000e+00  2.4681038053596404e-04 -5.7181755500311942e-05 0.0000000000000000e+00  2.2436958254077439e-04 -5.1544506612810323e-05 0.0000000000000000e+00  2.0242492242063799e-04 -4.4960381041270846e-05 0.0000000000000000e+00  1.8367816834490865e-04 -3.8578927552959362e-05 0.0000000000000000e+00  1.6579376397930586e-04 -3.1662685982480932e-05 0.0000000000000000e+00  1.4998641993458039e-04 -2.4562109796965603e-05 0.0000000000000000e+00  1.3622160918173417e-04 -1.7349423064583884e-05 0.0000000000000000e+00  1.2467042532183909e-04 -1.0735700461196847e-05 0.0000000000000000e+00  1.1337478832207057e-04 -3.9305776096928794e-06 0.0000000000000000e+00  1.0368413193009844e-04 2.4018869611666371e-06 0.0000000000000000e+00  9.5210760817452040e-05 8.4346872227203510e-06 0.0000000000000000e+00  8.8155795679731682e-05 1.3661462621137172e-05 0.0000000000000000e+00  8.1493494957867783e-05 1.8389379469943460e-05 0.0000000000000000e+00  7.5851335814483537e-05 2.2191119575835830e-05 0.0000000000000000e+00  7.0195584549294129e-05 2.5453748250433156e-05 0.0000000000000000e+00  6.5516284121504441e-05 2.7659676607767400e-05 0.0000000000000000e+00  6.0522970780976793e-05 2.9281223263138479e-05 0.0000000000000000e+00  5.6007854112908899e-05 3.0023477062834902e-05 0.0000000000000000e+00  5.1148857936114979e-05 3.0230439229956941e-05 0.0000000000000000e+00  4.6606772852023129e-05 2.9793299134846404e-05 0.0000000000000000e+00  4.1427090539985965e-05 2.8981706082811722e-05 0.0000000000000000e+00  3.6284961684322312e-05 2.7919918895936912e-05 0.0000000000000000e+00  3.0785759498639569e-05 2.6733705906331211e-05 0.0000000000000000e+00  2.5527378233334557e-05 2.5460549610821410e-05 0.0000000000000000e+00  1.9508708933352039e-05 2.4182655685756151e-05 0.0000000000000000e+00  1.3090834467273260e-05 2.3235980096973930e-05 0.0000000000000000e+00  6.5192689829483321e-06 2.2716320715884494e-05 0.0000000000000000e+00  7.4850079717247880e-08 1.8931399345354195e-05 0.0000000000000000e+00  -1.9712049613865966e-08 1.4956776359183837e-05 0.0000000000000000e+00  -9.1493196193828277e-09 1.1293960355064266e-05 0.0000000000000000e+00  2.0411996392490560e-08 8.0401825678388655e-06 0.0000000000000000e+00  -2.6657614931079612e-08 5.2056049123123186e-06 0.0000000000000000e+00  2.1791059337699988e-08 2.8987548400846480e-06 0.0000000000000000e+00  -1.6447563809821753e-08 1.2014746909725128e-06 0.0000000000000000e+00  -1.5995037726220676e-09 1.8819429150493957e-07 0.0000000000000000e+00  -2.3620152326146438e-08 -1.0162101915424336e-07 0.0000000000000000e+00  -3.9142733807030830e-10 -1.1235453339702467e-07 0.0000000000000000e+00  8.9488732463604381e-08 -1.2483871823432394e-07 0.0000000000000000e+00  1.2717929358151491e-08 -3.9744338636085503e-08 0.0000000000000000e+00  2.0165960339466245e-08 -6.4176816298175119e-08 0.0000000000000000e+00  1.0355787767494700e-07 -9.0358101941072600e-08 0.0000000000000000e+00  3.4580362315306796e-08 -1.2273965936976083e-07 0.0000000000000000e+00  1.6969272069718641e-07 -1.1483886092966712e-07 0.0000000000000000e+00  5.3515287891051855e-08 -7.2950661067735323e-08 0.0000000000000000e+00  1.6719275838007832e-07 -8.3733200856744786e-08 0.0000000000000000e+00  8.8509340481500132e-08 -3.3888419512564925e-08 0.0000000000000000e+00  1.2700618783584132e-07 -4.2766478181548238e-08 0.0000000000000000e+00  1.3026478944474379e-07 8.0898044945631922e-09 0.0000000000000000e+00  1.5288199988937509e-07 8.3583302397652510e-09 0.0000000000000000e+00  4.5258225279894139e-08 1.9769392242969541e-08 0.0000000000000000e+00  9.5707479545877121e-08 6.9040125000746294e-08 0.0000000000000000e+00  -3.4656855985408101e-09 2.0277125836527569e-08 0.0000000000000000e+00  1.4154100848091538e-07 1.8276639246663869e-07 0.0000000000000000e+00  4.6237483041637206e-08 1.2821641551135608e-07 0.0000000000000000e+00  9.9346049240882274e-08 1.1919939421984434e-07 0.0000000000000000e+00  -8.3490195579894209e-08 1.1605123461299723e-07 0.0000000000000000e+00  1.8792315430039413e-08 1.7813777252213961e-07 0.0000000000000000e+00  -1.1121189722546944e-07 2.4343467902718588e-07 0.0000000000000000e+00  -1.3500286498014941e-07 1.4942851686431978e-07 0.0000000000000000e+00  -1.3345506242721241e-07 7.2714241319420994e-08 0.0000000000000000e+00  -3.7607683711990421e-07 1.8571410862041414e-07 0.0000000000000000e+00  -1.4691144991183208e-07 8.5788694360749403e-08 0.0000000000000000e+00  -2.6157088370290807e-07 1.0152801890178171e-07 0.0000000000000000e+00  -1.6330437078444125e-07 6.2980852554658845e-08 0.0000000000000000e+00  -3.9297876505772639e-07 9.9412122245005454e-08 0.0000000000000000e+00  -3.7518463745823698e-08 -3.4368640310184637e-09 0.0000000000000000e+00  -1.6136067446929317e-07 6.8397366377559046e-09 0.0000000000000000e+00  -1.3453294202519982e-07 2.9584364017138054e-09 0.0000000000000000e+00  -9.7706140835506688e-08 -8.0710862564267865e-09 0.0000000000000000e+00  -2.2094331146835050e-07 -4.4369387003461320e-08 0.0000000000000000e+00  -5.2773004225616225e-08 -1.7917363745047488e-08 0.0000000000000000e+00  -1.8152234775521870e-07 -6.2102651643026122e-08 0.0000000000000000e+00  -2.5710476624911546e-08 -1.5089313550789389e-08 0.0000000000000000e+00  -3.1920266486614356e-08 -4.8895447152393677e-08 0.0000000000000000e+00  -7.9354476810662481e-08 -4.3138248952964865e-08 0.0000000000000000e+00  -4.3278140325626177e-08 -4.6007789698233908e-08 0.0000000000000000e+00  -1.0856156152201317e-08 -1.6385103081219300e-08 0.0000000000000000e+00  -2.5509655074041053e-08 -2.4439246058369342e-08 0.0000000000000000e+00  -2.3167372977338378e-09 -3.1126994020775756e-08 0.0000000000000000e+00  9.4023139166134636e-11 -1.6649956883742574e-08 0.0000000000000000e+00  -3.6765027808754699e-08 -2.9201782678706423e-08 0.0000000000000000e+00  8.6871243377805979e-09 -2.9180452713124594e-08 0.0000000000000000e+00  -8.8527805566281175e-09 -9.6886938075460213e-09 0.0000000000000000e+00  -7.3542772990984169e-09 8.3581673232872547e-07 0.0000000000000000e+00  1.0869677296760538e-08 2.1259933385389279e-06 0.0000000000000000e+00  -1.3559292577987913e-08 3.7853650366406017e-06 0.0000000000000000e+00  1.2421958962522811e-09 5.8210888295770929e-06 0.0000000000000000e+00  -6.3527599974231482e-09 8.1599571864381813e-06 0.0000000000000000e+00  -5.0829874660526227e-09 1.0828440659766418e-05 0.0000000000000000e+00  1.1533049464816280e-08 1.3769220738591774e-05 0.0000000000000000e+00  -1.0738744167998054e-08 1.6983147805846040e-05 0.0000000000000000e+00  9.8101052402131690e-09 2.0456298438380422e-05 0.0000000000000000e+00  -1.3025605561077433e-08 2.4168286730008107e-05 0.0000000000000000e+00  8.0249347513883091e-09 2.8109895595745065e-05 0.0000000000000000e+00  -5.1806839961396767e-09 3.2279145244936386e-05 0.0000000000000000e+00  5.8203680436003038e-09 3.6667190693508916e-05 0.0000000000000000e+00  -1.0805858057559775e-08 4.1263966694920003e-05 0.0000000000000000e+00  6.6587166483733776e-09 4.6075475311756109e-05 0.0000000000000000e+00  -8.0286456037406578e-09 5.1093588869509504e-05 0.0000000000000000e+00  -5.1676211782904161e-09 5.6332219184397515e-05 0.0000000000000000e+00  2.5799637125000604e-09 6.1762185911055169e-05 0.0000000000000000e+00  6.2252971524125135e-09 6.7427515635601711e-05 0.0000000000000000e+00  -2.9979504570217279e-09 7.3301654608614149e-05 0.0000000000000000e+00  4.4664447525663804e-09 7.9404659790596074e-05 0.0000000000000000e+00  -1.1772047947952831e-08 8.5735024608128881e-05 0.0000000000000000e+00  3.3249859954704835e-09 9.2331815396558658e-05 0.0000000000000000e+00  1.4264285078911293e-09 9.9131085569382414e-05 0.0000000000000000e+00  -1.9373166985024651e-09 1.0626432098931187e-04 0.0000000000000000e+00  -1.4264332733542878e-08 1.1367700326381689e-04 0.0000000000000000e+00  -6.9004398899143152e-09 1.2135919899836699e-04 0.0000000000000000e+00  -7.1839042658750056e-09 1.2932853544454889e-04 0.0000000000000000e+00  9.9953637642955575e-09 1.3767497886382190e-04 0.0000000000000000e+00  -1.8190581679082437e-08 1.4639208090405973e-04 0.0000000000000000e+00  6.1596495514228327e-09 1.5551384967246078e-04 0.0000000000000000e+00  -2.0205520605389371e-08 1.6504946841424648e-04 0.0000000000000000e+00  7.6386665620709460e-09 1.7507044426473808e-04 0.0000000000000000e+00  -1.5801152462806407e-08 1.8554529061315839e-04 0.0000000000000000e+00  -8.3259907918014125e-09 1.9651869943040996e-04 0.0000000000000000e+00  -1.0556797291165942e-08 2.0829313375819860e-04 0.0000000000000000e+00  -2.0106946540213262e-09 2.2041478837889826e-04 0.0000000000000000e+00  2.5046665277126391e-08 2.3358978259204916e-04 0.0000000000000000e+00  -6.1594681888403649e-08 2.4736000377469536e-04 0.0000000000000000e+00  3.3101628533962464e-08 2.6191629092794184e-04 0.0000000000000000e+00  -3.5601989227428548e-08 2.7753922691373096e-04 0.0000000000000000e+00  2.4261703479607687e-08 2.9428731514248249e-04 0.0000000000000000e+00  -3.6448974191524819e-08 3.1220292069125986e-04 0.0000000000000000e+00  -2.5091622226169248e-08 3.3133896749734865e-04 0.0000000000000000e+00  -7.9718908461779848e-09 3.5234391482107433e-04 0.0000000000000000e+00  9.3653394515787543e-08 3.7474051180929192e-04 0.0000000000000000e+00  -6.3557241922127082e-08 3.9920019274080438e-04 0.0000000000000000e+00  1.6375620677887849e-09 4.2601170364809239e-04 0.0000000000000000e+00  3.1914258044119670e-08 4.5553148366789476e-04 0.0000000000000000e+00  -2.5566582636077740e-08 4.8762620908320779e-04 0.0000000000000000e+00  -3.0324636267695616e-08 5.2282080693602517e-04 0.0000000000000000e+00  -1.6377286175651850e-07 5.6353483233845237e-04 0.0000000000000000e+00  1.7515611026924455e-07 6.0814626164785806e-04 0.0000000000000000e+00  -2.5241863180852777e-07 6.5852172951058119e-04 0.0000000000000000e+00  3.3904799058549545e-07 7.1671951869850027e-04 0.0000000000000000e+00  -4.5310228785551655e-07 7.8323034068829669e-04 0.0000000000000000e+00  1.2839102381951680e-07 8.6134255035367959e-04 0.0000000000000000e+00  -8.0455313326397032e-07 9.5304999778331634e-04 0.0000000000000000e+00  3.9718842817325946e-07 1.0670517828555955e-03 0.0000000000000000e+00  -2.3158962370570548e-06 1.2005865808463636e-03 0.0000000000000000e+00  7.5361158179898156e-07 1.3711940365427927e-03 0.0000000000000000e+00  -3.4961075754529148e-06 1.5828539531452675e-03 0.0000000000000000e+00  -4.0184347671942187e-06 1.8768718966237041e-03 0.0000000000000000e+00  4.2666265344755961e-06 2.3136611225652061e-03 0.0000000000000000e+00  -4.2244945218743049e-05 2.9045903333656978e-03 0.0000000000000000e+00  -1.1668571540091204e-04 3.8864847222642661e-03 0.0000000000000000e+00  1.2467223742155082e-03 5.7753604090634509e-03 0.0000000000000000e+00  -1.0923173816155084e-02 1.2512870433374939e-02 0.0000000000000000e+00  -1.4761144131575496e-05 -7.7369712919932857e-05 0.0000000000000000e+00  -6.8767010680719317e-05 1.8486768193250536e-05 0.0000000000000000e+00  -1.1602724813679797e-05 -9.8124761952854067e-05 0.0000000000000000e+00  -9.2114772051141597e-05 6.0556192787681883e-05 0.0000000000000000e+00  -3.2716556126251207e-05 2.0221731778250888e-05 0.0000000000000000e+00  1.2062144039593468e-06 -9.1135471539243294e-05 0.0000000000000000e+00  5.4864619834869651e-05 -3.3464934700971973e-05 0.0000000000000000e+00  -1.1561061086134821e-04 1.5675853261871238e-04 0.0000000000000000e+00  -5.9882254571714417e-05 7.6645684780688651e-05 0.0000000000000000e+00  -4.5132615585947167e-05 -2.1512489423930430e-05 0.0000000000000000e+00  1.3613949269304307e-04 -1.4024064269089749e-04 0.0000000000000000e+00  -1.6092060368989039e-04 2.6654145643487234e-04 0.0000000000000000e+00  -3.5071630722017349e-05 5.0744403584820688e-05 0.0000000000000000e+00  -7.3551286862951132e-05 1.6621431769012204e-04 0.0000000000000000e+00  5.0805370329818439e-05 4.3401552974497596e-06 0.0000000000000000e+00  1.1952976358329187e-05 -5.1191133983280232e-05 0.0000000000000000e+00  -4.7530161799244976e-05 1.2985342411698757e-04 0.0000000000000000e+00  2.6654667930188351e-04 -2.2584456950838354e-04 0.0000000000000000e+00  -4.6279214813568858e-05 6.6333263106172173e-06 0.0000000000000000e+00  1.1129378428952407e-04 -6.8651612549635991e-05 0.0000000000000000e+00  -4.3226276960849744e-05 -6.5028185547250770e-05 0.0000000000000000e+00  -7.1402817877690004e-05 -1.7362693811228261e-05 0.0000000000000000e+00  1.3256157935032150e-05 -6.8876391407827450e-05 0.0000000000000000e+00  -1.2535738238925333e-05 9.7570032290696453e-06 0.0000000000000000e+00  -2.2227908490163209e-04 4.2908354029859121e-04 0.0000000000000000e+00  -1.0231004633780737e-04 3.0429032416115633e-04 0.0000000000000000e+00  -2.0427127112796938e-05 3.2057562883852045e-05 0.0000000000000000e+00  -3.1483973363150331e-05 8.1835763550188996e-05 0.0000000000000000e+00  3.1931653069611610e-05 9.5235724058576221e-06 0.0000000000000000e+00  -7.1482582938756854e-05 2.4767224745034596e-04 0.0000000000000000e+00  6.1479256075946606e-05 -9.5894720616998216e-05 0.0000000000000000e+00  -1.4260870402306151e-05 -1.7889881577759673e-05 0.0000000000000000e+00  1.8617480684189729e-05 -1.6121821174851137e-05 0.0000000000000000e+00  1.5027042271831387e-04 -1.7530663511511197e-04 0.0000000000000000e+00  -5.8523331515161841e-05 -4.7735404606949896e-06 0.0000000000000000e+00  8.1003819029117175e-05 -5.3491835246398609e-06 0.0000000000000000e+00  -8.6674273105521275e-05 7.1630097620563729e-06 0.0000000000000000e+00  -8.0855548917454673e-05 3.3591909912710592e-05 0.0000000000000000e+00  1.3109040357725587e-05 7.2429374286318302e-06 0.0000000000000000e+00  -4.2757224635848819e-05 -5.6360154680980741e-05 0.0000000000000000e+00  -5.2531004775862603e-05 2.8737571046558343e-05 0.0000000000000000e+00  4.1322920936488664e-05 -7.2938051668076830e-06 0.0000000000000000e+00  -2.8496599131601959e-05 1.1150100359342688e-04 0.0000000000000000e+00  4.7079702029652722e-04 -2.8897129535988397e-04 0.0000000000000000e+00  -2.7586681262697568e-05 6.4489382780899841e-06 0.0000000000000000e+00  1.7099451396631880e-04 -9.2754005387954175e-05 0.0000000000000000e+00  -4.0265782563570038e-05 1.8007633104683227e-04 0.0000000000000000e+00  -7.6881508657989153e-05 9.2156727858679256e-05 0.0000000000000000e+00  3.1008711600037906e-05 -1.1629602392855700e-04 0.0000000000000000e+00  -5.0911533116418924e-05 -3.8423727389288309e-05 0.0000000000000000e+00  -3.7282509865919585e-05 -4.9949587241775985e-06 0.0000000000000000e+00  2.4970161268920445e-04 -1.3832611887504585e-04 0.0000000000000000e+00  -1.1093226097316729e-04 4.3360810662938120e-04 0.0000000000000000e+00  -1.8978450525021329e-05 6.2029860978018764e-05 0.0000000000000000e+00  -1.0082760433274535e-04 1.0715549524291857e-04 0.0000000000000000e+00  -1.2517125155204930e-04 1.0747236082215418e-04 0.0000000000000000e+00  -5.5467767951907817e-05 5.1737908443025668e-05 0.0000000000000000e+00  1.0641566740565024e-04 -2.5785907677128647e-05 0.0000000000000000e+00  1.7140756527593560e-05 -1.1979971348408324e-04 0.0000000000000000e+00  -7.0072968538911645e-05 -5.6581523940848610e-06 0.0000000000000000e+00  -1.3931335306006782e-05 -5.9135075985649185e-05 0.0000000000000000e+00  -2.9708914899013566e-04 7.1076422227420773e-04 0.0000000000000000e+00  -1.1141883728801625e-05 2.0968464124031884e-05 0.0000000000000000e+00  3.2714554318964082e-04 -1.7057375282284013e-04 0.0000000000000000e+00  -3.5811576158752198e-05 2.1852425401189060e-07 0.0000000000000000e+00  5.0031514241843250e-05 1.6639891593550120e-05 0.0000000000000000e+00  2.9577521705235847e-05 2.9864300322307339e-06 0.0000000000000000e+00  5.8570529796857179e-05 -6.4302904141690562e-05 0.0000000000000000e+00  8.3426464014233501e-05 -1.1409561538265335e-04 0.0000000000000000e+00  -4.5930217784793587e-06 4.2670699020599772e-06 0.0000000000000000e+00  6.7889540046884190e-04 -3.7582060270253530e-04 0.0000000000000000e+00  -1.5911543592696749e-05 5.1897120993948364e-06 0.0000000000000000e+00  -4.1926755026955960e-05 2.2313344483080672e-04 0.0000000000000000e+00  -7.8778156961377147e-05 -7.0869599101835136e-06 0.0000000000000000e+00  6.7041998173319821e-05 1.3642043430390954e-05 0.0000000000000000e+00  -2.3718171570539296e-05 -7.4323354912776465e-06 0.0000000000000000e+00  2.9853742548978723e-05 -2.7860575543897746e-07 0.0000000000000000e+00  1.4681389009636316e-04 -2.0435087920928465e-04 0.0000000000000000e+00  -4.4763777055891412e-05 1.5259630489634992e-05 0.0000000000000000e+00  -2.7394616290099563e-05 1.5475305635717965e-04 0.0000000000000000e+00  -1.4233873573179856e-04 5.4092781444131123e-04 0.0000000000000000e+00  -1.5118064946800244e-05 4.5918000506932207e-05 0.0000000000000000e+00  -5.8264683033456844e-05 3.1774941787577623e-04 0.0000000000000000e+00  -2.2874255469306149e-05 -3.4653350156346425e-05 0.0000000000000000e+00  -9.4637108610457618e-05 1.7831306353758951e-04 0.0000000000000000e+00  -1.5140667622758400e-04 1.4168796259521940e-04 0.0000000000000000e+00  -3.4583532724244842e-05 3.3511254731130386e-05 0.0000000000000000e+00  -4.2222315190130935e-04 8.9259002991614949e-04 0.0000000000000000e+00  -7.1022226021020353e-06 1.2007910522742792e-05 0.0000000000000000e+00  -1.0298991698377658e-04 4.6439685627248010e-05 0.0000000000000000e+00  -7.0240626514139767e-05 4.8968357924771123e-05 0.0000000000000000e+00  1.4329970931900463e-04 -5.2299913733568763e-05 0.0000000000000000e+00  -1.4558161474675151e-04 1.1409366080595102e-04 0.0000000000000000e+00  -2.1361976266718014e-05 1.9202759587956062e-05 0.0000000000000000e+00  -5.0786334852688422e-05 -5.2544854015491921e-05 0.0000000000000000e+00  2.1430182094895657e-05 -5.7382521810773992e-06 0.0000000000000000e+00  -8.6497975040724195e-05 1.1243979843574188e-04 0.0000000000000000e+00  7.8390209667257108e-05 -1.6417681195654628e-04 0.0000000000000000e+00  -5.7920416880057758e-05 1.5195685475340895e-05 0.0000000000000000e+00  -2.6849867512985191e-05 2.8665775364865756e-06 0.0000000000000000e+00  4.6643759723186286e-04 -2.0885067724452349e-04 0.0000000000000000e+00  4.7555949432963994e-07 -9.1666535954553524e-06 0.0000000000000000e+00  1.2399200465513214e-04 -1.0803093802066169e-04 0.0000000000000000e+00  6.4549663590964648e-06 -2.6754910015521504e-05 0.0000000000000000e+00  6.2872046735674037e-05 -1.403