<?xml version="1.0"?>
<VTKFile type="UnstructuredGrid"  version="0.1"  >
<UnstructuredGrid>
<Piece  NumberOfPoints="1855" NumberOfCells="3532">
<Points>
<DataArray  type="Float64"  NumberOfComponents="3"  format="ascii">0 0 0  30 0 0  30 -10 0  0 -10 0  0.1391574078963744 0 0  0.2856388821882616 0 0  0.4398299073010886 0 0  0.6021362569539473 0 0  0.7729850389704483 0 0  0.9528258543586996 0 0  1.142131984380316 0 0  1.34140159760994 0 0  1.551159074717981 0 0  1.771956417032531 0 0  2.004374674080994 0 0  2.249025475789527 0 0  2.506552636773105 0 0  2.777633857742732 0 0  3.062982518028728 0 0  3.363349525995907 0 0  3.679525322337712 0 0  4.01234195575742 0 0  4.362675247811097 0 0  4.731447135329707 0 0  5.119628065610077 0 0  5.528239565804708 0 0  5.958356943167011 0 0  6.411112081475485 0 0  6.887696441559404 0 0  7.389364184530748 0 0  7.917435485335147 0 0  8.473300005202017 0 0  9.058420557070402 0 0  9.674336929103793 0 0  10.32266995225095 0 0  11.00512576896296 0 0  11.72350030646412 0 0  12.47968402994705 0 0  13.27566689579597 0 0  14.1135435963616 0 0  14.9955190732806 0 0  15.92391430904694 0 0  16.90117245730496 0 0  17.92986524844506 0 0  19.01269976086341 0 0  20.15252556282024 0 0  21.35234220269763 0 0  22.61530708683689 0 0  23.94474379751883 0 0  25.34415086349739 0 0  26.81721093579712 0 0  28.3678004819169 0 0  30 -1.111111111111111 0  30 -2.222222222222222 0  30 -3.333333333333333 0  30 -4.444444444444445 0  30 -5.555555555555555 0  30 -6.666666666666666 0  30 -7.777777777777777 0  30 -8.888888888888889 0  28.36780047917311 -10 0  26.8172109305839 -10 0  25.34415085606858 -10 0  23.94474378810899 -10 0  22.61530707566275 -10 0  21.3523421899591 -10 0  20.15252554870171 -10 0  19.01269974553473 -10 0  17.92986523206254 -10 0  16.90117244001232 -10 0  15.92391429097614 -10 0  14.99551905455266 -10 0  14.11354357708742 -10 0  13.27566687607703 -10 0  12.47968400987599 -10 0  11.72350028612546 -10 0  11.00512574843363 -10 0  10.32266993160086 -10 0  9.674336908396342 -10 0  9.058420536362949 -10 0  8.473299984546333 -10 0  7.917435464777824 -10 0  7.389364164113587 -10 0  6.887696420787165 -10 0  6.411112061446698 -10 0  5.95835692337857 -10 0  5.528239546282652 -10 0  5.119628046377237 -10 0  4.731447115907979 -10 0  4.362675229213632 -10 0  4.012341937260036 -10 0  3.679525304434552 -10 0  3.363349508456405 -10 0  3.062982500861274 -10 0  2.777633840953978 -10 0  2.506552620368097 -10 0  2.249025459771861 -10 0  2.004374658452946 -10 0  1.771956401795187 -10 0  1.551159059871345 -10 0  1.341401583153029 -10 0  1.142131970307521 -10 0  0.9528258406748833 -10 0  0.7729850256685147 -10 0  0.6021362439621285 -10 0  0.4398298947504031 -10 0  0.2856388700059078 -10 0  0.1391573960769001 -10 0  0 -9.855072463768115 0  0 -9.710144927536232 0  0 -9.565217391304348 0  0 -9.420289855072463 0  0 -9.27536231884058 0  0 -9.130434782608695 0  0 -8.985507246376812 0  0 -8.840579710144928 0  0 -8.695652173913043 0  0 -8.55072463768116 0  0 -8.405797101449275 0  0 -8.260869565217391 0  0 -8.115942028985508 0  0 -7.971014492753623 0  0 -7.826086956521739 0  0 -7.681159420289855 0  0 -7.536231884057971 0  0 -7.391304347826087 0  0 -7.246376811594203 0  0 -7.101449275362318 0  0 -6.956521739130435 0  0 -6.811594202898551 0  0 -6.666666666666667 0  0 -6.521739130434783 0  0 -6.376811594202898 0  0 -6.231884057971015 0  0 -6.086956521739131 0  0 -5.942028985507246 0  0 -5.797101449275362 0  0 -5.652173913043478 0  0 -5.507246376811594 0  0 -5.36231884057971 0  0 -5.217391304347826 0  0 -5.072463768115941 0  0 -4.927536231884058 0  0 -4.782608695652174 0  0 -4.637681159420289 0  0 -4.492753623188406 0  0 -4.347826086956522 0  0 -4.202898550724638 0  0 -4.057971014492754 0  0 -3.913043478260869 0  0 -3.768115942028985 0  0 -3.623188405797101 0  0 -3.478260869565217 0  0 -3.333333333333334 0  0 -3.188405797101449 0  0 -3.043478260869565 0  0 -2.898550724637681 0  0 -2.753623188405797 0  0 -2.608695652173912 0  0 -2.463768115942029 0  0 -2.318840579710145 0  0 -2.173913043478261 0  0 -2.028985507246377 0  0 -1.884057971014492 0  0 -1.739130434782609 0  0 -1.594202898550725 0  0 -1.44927536231884 0  0 -1.304347826086957 0  0 -1.159420289855072 0  0 -1.014492753623188 0  0 -0.8695652173913047 0  0 -0.72463768115942 0  0 -0.579710144927537 0  0 -0.4347826086956523 0  0 -0.2898550724637676 0  0 -0.1449275362318829 0  5.15859856094262 -4.976557621770688 0  2.816777084926057 -7.160262673925935 0  2.81677708460006 -2.839737326002783 0  2.227649803257325 -5.003121586636773 0  1.518662968975629 -8.46230852045241 0  1.518662969184829 -1.537691480152612 0  9.960740911025725 -5.055901393541221 0  1.491099662214591 -3.691833922963321 0  1.503675657181264 -6.345020369042368 0  5.319208041801049 -7.493850249937013 0  5.291109955459268 -2.489368743223226 0  1.096914507335763 -2.53623188405797 0  1.096914507253562 -7.463768115942029 0  1.089580194952752 -4.71277167923441 0  15.07565076110197 -5.047572991082069 0  7.501630508673601 -5.937500100385354 0  0.8894869418764504 -5.623930488933245 0  2.955144522453978 -1.440834296472408 0  2.955144521140721 -8.559165705576945 0  8.106603955004623 -2.748811534843258 0  3.662152539483591 -4.228178367024407 0  3.662181528265114 -5.771746159989156 0  0.8436558190317136 -0.8541050638451999 0  0.8436558075840921 -9.145894948342754 0  0.7854168197005933 -1.811594202898552 0  0.7894693398152999 -3.286543351392342 0  0.7854168196772591 -8.188405797101449 0  0.7854168196772591 -6.739130434782609 0  20.00078956016804 -4.999999999785771 0  0.7379120031523989 -3.977302749614766 0  6.584332478112232 -3.934875417052907 0  7.295091310194352 -7.969791332537982 0  9.811174303464586 -7.412814499648229 0  4.013376806449688 -2.206189431585293 0  4.013376806983409 -7.793810569017377 0  12.11177433894592 -2.818343737884045 0  2.591152707837148 -3.990098461753838 0  2.58990939378082 -6.025895074707176 0  25.43156400064585 -5.044446479916348 0  2.03262751726143 -2.282125834846944 0  2.032627517335952 -7.717874165160392 0  12.51865094522923 -6.491408052923457 0  0.598175343983641 -6.156971652625402 0  2.126700074935224 -0.8767654465386991 0  2.126700059112423 -9.123234559633019 0  6.617961838548696 -1.617756429129908 0  0.5903949564549755 -4.980060355019413 0  1.676697585305984 -5.547101897225158 0  4.773518305133987 -3.729331162566817 0  4.77931803486508 -6.231222307502165 0  4.878549698409591 -8.72048903376362 0  4.852580875634024 -1.222215410052823 0  0.5487847095754042 -2.675169258708207 0  0.545113423825768 -7.32369553390529 0  1.78738026998851 -4.400451872599477 0  1.68244194111824 -3.010100184333533 0  1.683984276238402 -7.018293626028473 0  9.998503440677371 -2.00585287985007 0  3.693061162502273 -3.243678395563028 0  3.694987482168253 -6.757603268814477 0  6.081763036485869 -5.83414381546261 0  0.5196640460586313 -1.350633211792632 0  0.5196640458460706 -8.649366789040087 0  3.84593363904758 -0.9906418103762418 0  3.845933620847308 -9.009358200471317 0  17.41551885287501 -3.057748733689079 0  17.30725517812527 -7.002961443761516 0  8.117698464370697 -4.451550942597151 0  0.4918476668493152 -0.4789811193757592 0  0.4918476560347713 -9.521018882514893 0  1.463770869328428 -0.6252343353791154 0  1.463770854281917 -9.374765668872765 0  0.5034132782032188 -4.464280853772128 0  3.138906271796685 -4.99999841599503 0  14.61209972381335 -2.388610981020637 0  6.208601124947327 -8.776231214192325 0  14.74910972998159 -7.542186851303819 0  2.243794246335625 -1.632184311040998 0  2.243794245689214 -8.367815689183566 0  0.4590235278399923 -5.431413993025926 0  0.4971508861448406 -2.209632053221267 0  0.4971508861368665 -7.790367946777407 0  0.4644363683211541 -3.560571347760519 0  6.478811279411406 -7.007392971062433 0  1.238895267772762 -4.173677632458826 0  1.293241773632479 -2.02256720952064 0  1.293241773542714 -7.977432790434841 0  0.4324740478030531 -0.942028985507247 0  0.4324740423701829 -9.057971014492754 0  2.117396640811705 -3.472968170680347 0  2.107095929630507 -6.531506384346077 0  8.087741545730886 -1.392783601483453 0  1.028911946384717 -1.352376108341404 0  1.028911946221715 -8.647623891551962 0  4.05691976296832 -4.991522392209158 0  11.51826881314265 -8.065248940008736 0  1.618560396201739 -4.958056164503666 0  2.701984523487646 -2.141781914603403 0  2.70198452396172 -7.858218085853512 0  2.843615645746219 -9.289121726447632 0  2.843615661334342 -0.7108782798429658 0  8.678774612240533 -8.488146490452822 0  6.487906449371135 -2.667543558824978 0  8.369190916679937 -7.129867754908394 0  11.80978191929258 -4.655775487536958 0  0.3792065166453504 -3.113833531412848 0  0.4134714637263563 -6.58827691137208 0  9.551050695080825 -3.49648183875815 0  1.083867845277057 -6.036251777836495 0  0.3756430921870901 -1.80381664325008 0  0.3756430921689482 -8.196183356748573 0  3.113073783220456 -3.503408140759125 0  3.113391383189963 -6.496678880796299 0  22.62850736315072 -3.277987336300344 0  22.59385352108348 -6.800312122582239 0  0.3777114402537816 -4.137047872695438 0  0.9196816123347897 -0.4281025456111269 0  0.9196815944880363 -9.571897460530383 0  0.4052043328723194 -5.827814332459883 0  8.865857694874787 -5.767686953139113 0  1.200388325130726 -5.182186034620629 0  5.65297436943758 -4.325500846767599 0  1.200079167961391 -3.009849046583253 0  1.20883344838 -7.021823297793294 0  1.057642414577487 -3.660996704809145 0  10.88812987788297 -6.333458225047037 0  4.493502926606794 -2.839780197438185 0  4.485862892033458 -7.147606077919463 0  0.3631651408878085 -7.003529808558233 0  1.946748828463205 -6.049056369468467 0  6.918750162798794 -4.993796052442676 0  3.351203216022585 -1.980935554775394 0  3.351203216441711 -8.019064445907297 0  2.281892243515294 -2.856654416292082 0  2.281892243715877 -7.143345583598931 0  5.811143619672087 -0.9953286820321026 0  2.695713766833098 -4.565354125099452 0  2.698172168139827 -5.435483248292925 0  19.86166219288896 -2.493475492328429 0  19.83739102036415 -7.594404063416508
[...]
<PointData  Vectors="displacement"> 
<DataArray  type="Float64"  Name="displacement"  NumberOfComponents="3" format="ascii">2.9182560558689494e-02 1.5708184359247500e-02 0.0000000000000000e+00  2.4317390774890913e-08 1.7638204494571924e-05 0.0000000000000000e+00  -3.5139622849955311e-08 -1.8027446086782324e-08 0.0000000000000000e+00  2.3645229530373446e-08 -2.2728568341733040e-08 0.0000000000000000e+00  1.1905612106670627e-02 -4.3781817133028136e-03 0.0000000000000000e+00  4.4774585918021916e-03 2.7531530782409465e-04 0.0000000000000000e+00  3.2874174092751961e-03 -2.3865706132145123e-04 0.0000000000000000e+00  2.1595730514359611e-03 -9.6770735301376858e-05 0.0000000000000000e+00  1.7232531030003933e-03 -9.7171560942222219e-05 0.0000000000000000e+00  1.3694397704834516e-03 -9.5788349646094275e-05 0.0000000000000000e+00  1.1452997046052437e-03 -8.8258750736511891e-05 0.0000000000000000e+00  9.7378292423471585e-04 -8.8254196096879931e-05 0.0000000000000000e+00  8.3238939820597037e-04 -8.4318737745084642e-05 0.0000000000000000e+00  7.2497175204367401e-04 -8.4091167252510810e-05 0.0000000000000000e+00  6.3169137118947681e-04 -8.0887824288589587e-05 0.0000000000000000e+00  5.6289246930249644e-04 -7.6050555464396910e-05 0.0000000000000000e+00  4.9776556473930984e-04 -7.5478393818183466e-05 0.0000000000000000e+00  4.4651009964561653e-04 -7.3842608505950301e-05 0.0000000000000000e+00  3.9712904257861091e-04 -7.0911540603105927e-05 0.0000000000000000e+00  3.5710327635005943e-04 -6.7813794975982202e-05 0.0000000000000000e+00  3.2101939933862616e-04 -6.4370381186573743e-05 0.0000000000000000e+00  2.8945937212329902e-04 -6.0806257475797892e-05 0.0000000000000000e+00  2.6186700827783544e-04 -5.7511397225824992e-05 0.0000000000000000e+00  2.3631237952101484e-04 -5.3983957604134079e-05 0.0000000000000000e+00  2.1279640046849757e-04 -4.9465771810880779e-05 0.0000000000000000e+00  1.9236691424126491e-04 -4.4568132963479688e-05 0.0000000000000000e+00  1.7487629227442577e-04 -4.0174394859985344e-05 0.0000000000000000e+00  1.5777236600431923e-04 -3.5042649929226920e-05 0.0000000000000000e+00  1.4316092532764757e-04 -3.0068870004513050e-05 0.0000000000000000e+00  1.2922161016033993e-04 -2.4678269956934089e-05 0.0000000000000000e+00  1.1690118024312756e-04 -1.9143997341753058e-05 0.0000000000000000e+00  1.0617272480340952e-04 -1.3522344447397212e-05 0.0000000000000000e+00  9.7169596206726192e-05 -8.3675312418159384e-06 0.0000000000000000e+00  8.8365643839259967e-05 -3.0635384310849961e-06 0.0000000000000000e+00  8.0812632239634559e-05 1.8720589550257391e-06 0.0000000000000000e+00  7.4208387107718552e-05 6.5740944530017953e-06 0.0000000000000000e+00  6.8709664279790079e-05 1.0647904690003245e-05 0.0000000000000000e+00  6.3516988717160546e-05 1.4332898704513844e-05 0.0000000000000000e+00  5.9119423502464110e-05 1.7296019669400625e-05 0.0000000000000000e+00  5.4711264428125255e-05 1.9838950842248615e-05 0.0000000000000000e+00  5.1064162624112728e-05 2.1558277356053403e-05 0.0000000000000000e+00  4.7172315461642711e-05 2.2822129896269125e-05 0.0000000000000000e+00  4.3653180411531082e-05 2.3400651240150253e-05 0.0000000000000000e+00  3.9866021626677114e-05 2.3561959988054199e-05 0.0000000000000000e+00  3.6325867075840857e-05 2.3221247855100376e-05 0.0000000000000000e+00  3.2288761744400243e-05 2.2588682682191059e-05 0.0000000000000000e+00  2.8280926018662430e-05 2.1761113257126859e-05 0.0000000000000000e+00  2.3994783138644988e-05 2.0836564897581235e-05 0.0000000000000000e+00  1.9896338917157336e-05 1.9844251902551676e-05 0.0000000000000000e+00  1.5205317256876997e-05 1.8848246343309724e-05 0.0000000000000000e+00  1.0203150393609838e-05 1.8110396252052950e-05 0.0000000000000000e+00  5.0811949425919695e-06 1.7705367616792080e-05 0.0000000000000000e+00  5.8339032720793652e-08 1.4755355372114028e-05 0.0000000000000000e+00  -1.5363803375535341e-08 1.1657487456422556e-05 0.0000000000000000e+00  -7.1310873504014572e-09 8.8026455708587941e-06 0.0000000000000000e+00  1.5909350129451605e-08 6.2666128837566872e-06 0.0000000000000000e+00  -2.0777258696273964e-08 4.0573097110669210e-06 0.0000000000000000e+00  1.6984208013209014e-08 2.2593236253600557e-06 0.0000000000000000e+00  -1.2819424734125270e-08 9.3644350914033071e-07 0.0000000000000000e+00  -1.2466720580717207e-09 1.4668084484943895e-07 0.0000000000000000e+00  -1.8409824607142117e-08 -7.9204617870217100e-08 0.0000000000000000e+00  -3.0508307232165152e-10 -8.7570445147678112e-08 0.0000000000000000e+00  6.9748570890753678e-08 -9.7300765682627426e-08 0.0000000000000000e+00  9.9125037644392174e-09 -3.0977205113419871e-08 0.0000000000000000e+00  1.5717586735174437e-08 -5.0020165644164609e-08 0.0000000000000000e+00  8.0714228187827581e-08 -7.0426167689358752e-08 0.0000000000000000e+00  2.6952341216345613e-08 -9.5664734508789694e-08 0.0000000000000000e+00  1.3226050289633555e-07 -8.9506759254004397e-08 0.0000000000000000e+00  4.1710444973905483e-08 -5.6858603479254222e-08 0.0000000000000000e+00  1.3031200285507072e-07 -6.5262641844242677e-08 0.0000000000000000e+00  6.8985221257631939e-08 -2.6413032855378233e-08 0.0000000000000000e+00  9.8990116989699036e-08 -3.3332696229731376e-08 0.0000000000000000e+00  1.0152990942016937e-07 6.3052887972383205e-09 0.0000000000000000e+00  1.1915802932555079e-07 6.5145809221598521e-09 0.0000000000000000e+00  3.5274793232852276e-08 1.5408496895248293e-08 0.0000000000000000e+00  7.4595535528398273e-08 5.3810685662353123e-08 0.0000000000000000e+00  -2.7011961282712952e-09 1.5804230431418908e-08 0.0000000000000000e+00  1.1031872719835806e-07 1.4245027648135416e-07 0.0000000000000000e+00  3.6038038253040525e-08 9.9933382677971386e-08 0.0000000000000000e+00  7.7431479555390376e-08 9.2905410200763367e-08 0.0000000000000000e+00  -6.5073240672563669e-08 9.0451697566009658e-08 0.0000000000000000e+00  1.4646951732233576e-08 1.3884267564226867e-07 0.0000000000000000e+00  -8.6679861072798807e-08 1.8973585277119350e-07 0.0000000000000000e+00  -1.0522282123451907e-07 1.1646634402660198e-07 0.0000000000000000e+00  -1.0401644571533949e-07 5.6674335146027943e-08 0.0000000000000000e+00  -2.9311871128461334e-07 1.4474776113061124e-07 0.0000000000000000e+00  -1.1450451243128575e-07 6.6864717663503410e-08 0.0000000000000000e+00  -2.0387142406255215e-07 7.9132132379323733e-08 0.0000000000000000e+00  -1.2728134781728438e-07 4.9088017432309263e-08 0.0000000000000000e+00  -3.0629227276559937e-07 7.7482977632150498e-08 0.0000000000000000e+00  -2.9242332037175692e-08 -2.6787322594593267e-09 0.0000000000000000e+00  -1.2576640804225089e-07 5.3309712029511461e-09 0.0000000000000000e+00  -1.0485655775492883e-07 2.3058401366415580e-09 0.0000000000000000e+00  -7.6153315651206459e-08 -6.2906995822385306e-09 0.0000000000000000e+00  -1.7220581629150506e-07 -3.4582022223277989e-08 0.0000000000000000e+00  -4.1131900352314476e-08 -1.3965004095413905e-08 0.0000000000000000e+00  -1.4148065339746336e-07 -4.8403537310010230e-08 0.0000000000000000e+00  -2.0039047957653756e-08 -1.1760788502823155e-08 0.0000000000000000e+00  -2.4879031232216945e-08 -3.8109686751128027e-08 0.0000000000000000e+00  -6.1849812808310182e-08 -3.3622458742756669e-08 0.0000000000000000e+00  -3.3731491724384364e-08 -3.5859012558917867e-08 0.0000000000000000e+00  -8.4614158245090578e-09 -1.2770742107424281e-08 0.0000000000000000e+00  -1.9882525278299055e-08 -1.9048235898435921e-08 0.0000000000000000e+00  -1.8056923055856542e-09 -2.4260745339722869e-08 0.0000000000000000e+00  7.3282740819882007e-11 -1.2977172277032069e-08 0.0000000000000000e+00  -2.8655095203881533e-08 -2.2760212970170449e-08 0.0000000000000000e+00  6.7708469103282539e-09 -2.2743588144054750e-08 0.0000000000000000e+00  -6.8999613161948917e-09 -7.5514819382357429e-09 0.0000000000000000e+00  -5.7320102478274337e-09 6.5144539431504887e-07 0.0000000000000000e+00  8.4719543636497780e-09 1.6570242197436094e-06 0.0000000000000000e+00  -1.0568272156374092e-08 2.9503580432640567e-06 0.0000000000000000e+00  9.6818209561031287e-10 4.5370251171704648e-06 0.0000000000000000e+00  -4.9514158803539759e-09 6.3599666306063489e-06 0.0000000000000000e+00  -3.9617402308888870e-09 8.4398140436416108e-06 0.0000000000000000e+00  8.9889944358068688e-09 1.0731892634490830e-05 0.0000000000000000e+00  -8.3699035426930088e-09 1.3236865201615472e-05 0.0000000000000000e+00  7.6461114372452218e-09 1.5943879665208537e-05 0.0000000000000000e+00  -1.0152310216727468e-08 1.8837047010153650e-05 0.0000000000000000e+00  6.2547285562265060e-09 2.1909183331978074e-05 0.0000000000000000e+00  -4.0378860558239251e-09 2.5158745558553702e-05 0.0000000000000000e+00  4.5364633280852762e-09 2.8578839805235342e-05 0.0000000000000000e+00  -8.4222128977954240e-09 3.2161621100452793e-05 0.0000000000000000e+00  5.1898820935836743e-09 3.5911767522398761e-05 0.0000000000000000e+00  -6.2576208381811520e-09 3.9822944265941831e-05 0.0000000000000000e+00  -4.0277047419076101e-09 4.3905994364310449e-05 0.0000000000000000e+00  2.0108540700265662e-09 4.8138174313028908e-05 0.0000000000000000e+00  4.8520698394657219e-09 5.2553798951278281e-05 0.0000000000000000e+00  -2.3366378561918092e-09 5.7132171974361680e-05 0.0000000000000000e+00  3.4811995865653347e-09 6.1888926013259698e-05 0.0000000000000000e+00  -9.1752726653696870e-09 6.6822886826924807e-05 0.0000000000000000e+00  2.5915332024981444e-09 7.1964503176730524e-05 0.0000000000000000e+00  1.1117751606561480e-09 7.7263934340843541e-05 0.0000000000000000e+00  -1.5099674266842978e-09 8.2823661947553401e-05 0.0000000000000000e+00  -1.1117788748072532e-08 8.8601193720329113e-05 0.0000000000000000e+00  -5.3782840318223584e-09 9.4588787454611239e-05 0.0000000000000000e+00  -5.5992195014860282e-09 1.0080018203766513e-04 0.0000000000000000e+00  7.7905041104419848e-09 1.0730549823209774e-04 0.0000000000000000e+00  -1.4177953367612879e-08 1.1409971011640075e-04 0.0000000000000000e+00  4.8009033269072937e-09 1.2120932400941962e-04 0.0000000000000000e+00  -1.5748420471713503e-08 1.2864149744051695e-04 0.0000000000000000e+00  5.9536665851281342e-09 1.3645196391222385e-04 0.0000000000000000e+00  -1.2315604125452963e-08 1.4461618238966893e-04 0.0000000000000000e+00  -6.4893751757669299e-09 1.5316898632076288e-04 0.0000000000000000e+00  -8.2280920065878919e-09 1.6234611895859824e-04 0.0000000000000000e+00  -1.5671590686865530e-09 1.7179387917767250e-04 0.0000000000000000e+00  1.9521665583792488e-08 1.8206262466733517e-04 0.0000000000000000e+00  -4.8007619707376024e-08 1.9279529705969173e-04 0.0000000000000000e+00  2.5799798710235824e-08 2.0414063851736930e-04 0.0000000000000000e+00  -2.7748609251006769e-08 2.1631733862394003e-04 0.0000000000000000e+00  1.8909857123520015e-08 2.2937099562576169e-04 0.0000000000000000e+00  -2.8408759295977230e-08 2.4333462936230988e-04 0.0000000000000000e+00  -1.9556705558641207e-08 2.5824948937293687e-04 0.0000000000000000e+00  -6.2133855128168919e-09 2.7462099243407573e-04 0.0000000000000000e+00  7.2994557489400887e-08 2.9207716361606944e-04 0.0000000000000000e+00  -4.9537262085998136e-08 3.1114132669504143e-04 0.0000000000000000e+00  1.2763351418823062e-09 3.3203853372572426e-04 0.0000000000000000e+00  2.4874348181645048e-08 3.5504659756468711e-04 0.0000000000000000e+00  -1.9926895289477351e-08 3.8006160413838651e-04 0.0000000000000000e+00  -2.3635378267154103e-08 4.0749268775896742e-04 0.0000000000000000e+00  -1.2764649519299852e-07 4.3922567814615290e-04 0.0000000000000000e+00  1.3651873300322552e-07 4.7399635099024844e-04 0.0000000000000000e+00  -1.9673805126351536e-07 5.1325958329501641e-04 0.0000000000000000e+00  2.6425799266235285e-07 5.5861962486795274e-04 0.0000000000000000e+00  -3.5315325376949735e-07 6.1045894200706049e-04 0.0000000000000000e+00  1.0006947444824622e-07 6.7134051718743359e-04 0.0000000000000000e+00  -6.2707817739787354e-07 7.4281838062523805e-04 0.0000000000000000e+00  3.0957333372280636e-07 8.3167271310804602e-04 0.0000000000000000e+00  -1.8050367730007070e-06 9.3575130565967625e-04 0.0000000000000000e+00  5.8737373287157190e-07 1.0687247637760086e-03 0.0000000000000000e+00  -2.7249073749855370e-06 1.2336949928926446e-03 0.0000000000000000e+00  -3.1320153332547484e-06 1.4628560370743651e-03 0.0000000000000000e+00  3.3254589165790319e-06 1.8032946984699472e-03 0.0000000000000000e+00  -3.2926207302843507e-05 2.2638718774762234e-03 0.0000000000000000e+00  -9.0946219356590651e-05 3.0291719158824638e-03 0.0000000000000000e+00  9.7171008578561362e-04 4.5013838482406594e-03 0.0000000000000000e+00  -8.5136501802385214e-03 9.7526784260128160e-03 0.0000000000000000e+00  -1.1505009396671069e-05 -6.0302864481712113e-05 0.0000000000000000e+00  -5.3597817148208774e-05 1.4408804621210631e-05 0.0000000000000000e+00  -9.0433002224289041e-06 -7.6479593875016544e-05 0.0000000000000000e+00  -7.1795337039862029e-05 4.7198209084518441e-05 0.0000000000000000e+00  -2.5499668745461057e-05 1.5761055650695776e-05 0.0000000000000000e+00  9.4013769720159729e-07 -7.1032058699700557e-05 0.0000000000000000e+00  4.2762130165411925e-05 -2.6082963811052166e-05 0.0000000000000000e+00  -9.0108270230169633e-05 1.2217944454105735e-04 0.0000000000000000e+00  -4.6672933710307730e-05 5.9738548432008408e-05 0.0000000000000000e+00  -3.5176891559636587e-05 -1.6767087345122082e-05 0.0000000000000000e+00  1.0610872224604619e-04 -1.0930520680319941e-04 0.0000000000000000e+00  -1.2542341169947526e-04 2.0774554692718376e-04 0.0000000000000000e+00  -2.7335241592161012e-05 3.9550785146993203e-05 0.0000000000000000e+00  -5.7326738290242194e-05 1.2954939467024420e-04 0.0000000000000000e+00  3.9598303345298800e-05 3.3827680994826081e-06 0.0000000000000000e+00  9.3162903969315994e-06 -3.9898972075203863e-05 0.0000000000000000e+00  -3.7045567284706266e-05 1.0120928644412454e-04 0.0000000000000000e+00  2.0774961769117167e-04 -1.7602591446976807e-04 0.0000000000000000e+00  -3.6070564487047083e-05 5.1700925656282823e-06 0.0000000000000000e+00  8.6743684813892299e-05 -5.3507874487216582e-05 0.0000000000000000e+00  -3.3691068807723049e-05 -5.0683732853003220e-05 0.0000000000000000e+00  -5.5652196287024681e-05 -1.3532687823456701e-05 0.0000000000000000e+00  1.0332005449361708e-05 -5.3683069773741615e-05 0.0000000000000000e+00  -9.7705018626919709e-06 7.6047231050102826e-06 0.0000000000000000e+00  -1.7324693382039167e-04 3.3443275935037805e-04 0.0000000000000000e+00  -7.9741653763292398e-05 2.3716745853737556e-04 0.0000000000000000e+00  -1.5921143190856710e-05 2.4986041659473371e-05 0.0000000000000000e+00  -2.4538979238926496e-05 6.3783756884707072e-05 0.0000000000000000e+00  2.4887906068961603e-05 7.4227843751535434e-06 0.0000000000000000e+00  -5.5714366114031685e-05 1.9303866345394898e-04 0.0000000000000000e+00  4.7917655470956221e-05 -7.4741473422072156e-05 0.0000000000000000e+00  -1.1115090166504303e-05 -1.3943584170900943e-05 0.0000000000000000e+00  1.4510683474441063e-05 -1.2565537092163556e-05 0.0000000000000000e+00  1.1712253535397763e-04 -1.3663605383971885e-04 0.0000000000000000e+00  -4.5613773092700803e-05 -3.7205535943649734e-06 0.0000000000000000e+00  6.3135329537399048e-05 -4.1692165706757523e-06 0.0000000000000000e+00  -6.7554948155775841e-05 5.5829340792515612e-06 0.0000000000000000e+00  -6.3019766068017372e-05 2.6181929784907678e-05 0.0000000000000000e+00  1.0217340278815374e-05 5.6452306429041210e-06 0.0000000000000000e+00  -3.3325483907354586e-05 -4.3927767618996681e-05 0.0000000000000000e+00  -4.0943283134128960e-05 2.2398400962759226e-05 0.0000000000000000e+00  3.2207570729909573e-05 -5.6848775564826181e-06 0.0000000000000000e+00  -2.2210584617278313e-05 8.6905193977231232e-05 0.0000000000000000e+00  3.6694473640758732e-04 -2.2522762726578913e-04 0.0000000000000000e+00  -2.1501383925338162e-05 5.0263783638055633e-06 0.0000000000000000e+00  1.3327513588551156e-04 -7.2293563022964765e-05 0.0000000000000000e+00  -3.1383624645135842e-05 1.4035361096297402e-04 0.0000000000000000e+00  -5.9922352336374838e-05 7.1828037889854561e-05 0.0000000000000000e+00  2.4168554629439136e-05 -9.0642489238433718e-05 0.0000000000000000e+00  -3.9681047870151523e-05 -2.9947905171062680e-05 0.0000000000000000e+00  -2.9058426807261505e-05 -3.8931295938442794e-06 0.0000000000000000e+00  1.9462037459599621e-04 -1.0781300441731546e-04 0.0000000000000000e+00  -8.6461909287910833e-05 3.3795925957878683e-04 0.0000000000000000e+00  -1.4792027615090463e-05 4.8346803409338962e-05 0.0000000000000000e+00  -7.8586221024052843e-05 8.3518253645217848e-05 0.0000000000000000e+00  -9.7559946062628200e-05 8.3765222405505195e-05 0.0000000000000000e+00  -4.3232230903693723e-05 4.0325134521770748e-05 0.0000000000000000e+00  8.2941623124990860e-05 -2.0097839807174324e-05 0.0000000000000000e+00  1.3359707293563406e-05 -9.3373306097887395e-05 0.0000000000000000e+00  -5.4615696067094295e-05 -4.4100305424481543e-06 0.0000000000000000e+00  -1.0858246635565766e-05 -4.6090573929991403e-05 0.0000000000000000e+00  -2.3155477788937235e-04 5.5397799677255153e-04 0.0000000000000000e+00  -8.6841152592131457e-06 1.6343067626083962e-05 0.0000000000000000e+00  2.5498108513310103e-04 -1.3294718970015363e-04 0.0000000000000000e+00  -2.7911963770792774e-05 1.7032037445058451e-07 0.0000000000000000e+00  3.8995150806141875e-05 1.2969327271443306e-05 0.0000000000000000e+00  2.3053068387904017e-05 2.3276587015914490e-06 0.0000000000000000e+00  4.5650559988725378e-05 -5.0118439992788721e-05 0.0000000000000000e+00  6.5023567540500792e-05 -8.8927464930590755e-05 0.0000000000000000e+00  -3.5798552096972253e-06 3.3258044824879820e-06 0.0000000000000000e+00  5.2913906213012437e-04 -2.9291899916520834e-04 0.0000000000000000e+00  -1.2401644270778512e-05 4.0449226657048749e-06 0.0000000000000000e+00  -3.2678206123951371e-05 1.7391283200048402e-04 0.0000000000000000e+00  -6.1400622337545797e-05 -5.5236599299948791e-06 0.0000000000000000e+00  5.2253322105674641e-05 1.0632769144274779e-05 0.0000000000000000e+00  -1.8486221959391593e-05 -5.7928497211428454e-06 0.0000000000000000e+00  2.3268358163174102e-05 -2.1714860350396586e-07 0.0000000000000000e+00  1.1442847316333986e-04 -1.5927347938370399e-04 0.0000000000000000e+00  -3.4889414470033677e-05 1.1893535528686396e-05 0.0000000000000000e+00  -2.1351686226106971e-05 1.2061635274898004e-04 0.0000000000000000e+00  -1.1094048520272665e-04 4.2160550243220329e-04 0.0000000000000000e+00  -1.1783197679123883e-05 3.5789029806874117e-05 0.0000000000000000e+00  -4.5412179423136774e-05 2.4765763452082925e-04 0.0000000000000000e+00  -1.7828463821666505e-05 -2.7009228798328914e-05 0.0000000000000000e+00  -7.3761275828740166e-05 1.3897929952194705e-04 0.0000000000000000e+00  -1.1800814470679571e-04 1.1043326496392526e-04 0.0000000000000000e+00  -2.6954812270367856e-05 2.6119066187499195e-05 0.0000000000000000e+00  -3.2908569192308123e-04 6.9569517037583060e-04 0.0000000000000000e+00  -5.5355558516384316e-06 9.3591067309614709e-06 0.0000000000000000e+00  -8.0271552943239039e-05 3.6195637327122150e-05 0.0000000000000000e+00  -5.4746370665433542e-05 3.8166514264896055e-05 0.0000000000000000e+00  1.1168947932216403e-04 -4.0763168057047136e-05 0.0000000000000000e+00  -1.1346802325849953e-04 8.8925941510525582e-05 0.0000000000000000e+00  -1.6649775619648121e-05 1.4966856737671936e-05 0.0000000000000000e+00  -3.9583466870479624e-05 -4.0954077394426908e-05 0.0000000000000000e+00  1.6702936044550451e-05 -4.4724612587809947e-06 0.0000000000000000e+00  -6.7417539369977767e-05 8.7636901721977346e-05 0.0000000000000000e+00  6.1098251652418837e-05 -1.2796133873083500e-04 0.0000000000000000e+00  -4.5143854332987131e-05 1.1843696032251407e-05 0.0000000000000000e+00  -2.0927102620415310e-05 2.2342442563793405e-06 0.0000000000000000e+00  3.6354695078365674e-04 -1.6278067491117066e-04 0.0000000000000000e+00  3.7065666469743055e-07 -7.1445976552813994e-06 0.0000000000000000e+00  9.6640827157674626e-05 -8.4200584045516106e-05 0.0000000000000000e+00  5.0310767210593454e-06 -2.0853091629744921e-05 0.0000000000000000e+00  4.9003212896921397e-05 -1.094