<?xml version="1.0"?>
<VTKFile type="UnstructuredGrid"  version="0.1"  >
<UnstructuredGrid>
<Piece  NumberOfPoints="1855" NumberOfCells="3532">
<Points>
<DataArray  type="Float64"  NumberOfComponents="3"  format="ascii">0 0 0  30 0 0  30 -10 0  0 -10 0  0.1391574078963744 0 0  0.2856388821882616 0 0  0.4398299073010886 0 0  0.6021362569539473 0 0  0.7729850389704483 0 0  0.9528258543586996 0 0  1.142131984380316 0 0  1.34140159760994 0 0  1.551159074717981 0 0  1.771956417032531 0 0  2.004374674080994 0 0  2.249025475789527 0 0  2.506552636773105 0 0  2.777633857742732 0 0  3.062982518028728 0 0  3.363349525995907 0 0  3.679525322337712 0 0  4.01234195575742 0 0  4.362675247811097 0 0  4.731447135329707 0 0  5.119628065610077 0 0  5.528239565804708 0 0  5.958356943167011 0 0  6.411112081475485 0 0  6.887696441559404 0 0  7.389364184530748 0 0  7.917435485335147 0 0  8.473300005202017 0 0  9.058420557070402 0 0  9.674336929103793 0 0  10.32266995225095 0 0  11.00512576896296 0 0  11.72350030646412 0 0  12.47968402994705 0 0  13.27566689579597 0 0  14.1135435963616 0 0  14.9955190732806 0 0  15.92391430904694 0 0  16.90117245730496 0 0  17.92986524844506 0 0  19.01269976086341 0 0  20.15252556282024 0 0  21.35234220269763 0 0  22.61530708683689 0 0  23.94474379751883 0 0  25.34415086349739 0 0  26.81721093579712 0 0  28.3678004819169 0 0  30 -1.111111111111111 0  30 -2.222222222222222 0  30 -3.333333333333333 0  30 -4.444444444444445 0  30 -5.555555555555555 0  30 -6.666666666666666 0  30 -7.777777777777777 0  30 -8.888888888888889 0  28.36780047917311 -10 0  26.8172109305839 -10 0  25.34415085606858 -10 0  23.94474378810899 -10 0  22.61530707566275 -10 0  21.3523421899591 -10 0  20.15252554870171 -10 0  19.01269974553473 -10 0  17.92986523206254 -10 0  16.90117244001232 -10 0  15.92391429097614 -10 0  14.99551905455266 -10 0  14.11354357708742 -10 0  13.27566687607703 -10 0  12.47968400987599 -10 0  11.72350028612546 -10 0  11.00512574843363 -10 0  10.32266993160086 -10 0  9.674336908396342 -10 0  9.058420536362949 -10 0  8.473299984546333 -10 0  7.917435464777824 -10 0  7.389364164113587 -10 0  6.887696420787165 -10 0  6.411112061446698 -10 0  5.95835692337857 -10 0  5.528239546282652 -10 0  5.119628046377237 -10 0  4.731447115907979 -10 0  4.362675229213632 -10 0  4.012341937260036 -10 0  3.679525304434552 -10 0  3.363349508456405 -10 0  3.062982500861274 -10 0  2.777633840953978 -10 0  2.506552620368097 -10 0  2.249025459771861 -10 0  2.004374658452946 -10 0  1.771956401795187 -10 0  1.551159059871345 -10 0  1.341401583153029 -10 0  1.142131970307521 -10 0  0.9528258406748833 -10 0  0.7729850256685147 -10 0  0.6021362439621285 -10 0  0.4398298947504031 -10 0  0.2856388700059078 -10 0  0.1391573960769001 -10 0  0 -9.855072463768115 0  0 -9.710144927536232 0  0 -9.565217391304348 0  0 -9.420289855072463 0  0 -9.27536231884058 0  0 -9.130434782608695 0  0 -8.985507246376812 0  0 -8.840579710144928 0  0 -8.695652173913043 0  0 -8.55072463768116 0  0 -8.405797101449275 0  0 -8.260869565217391 0  0 -8.115942028985508 0  0 -7.971014492753623 0  0 -7.826086956521739 0  0 -7.681159420289855 0  0 -7.536231884057971 0  0 -7.391304347826087 0  0 -7.246376811594203 0  0 -7.101449275362318 0  0 -6.956521739130435 0  0 -6.811594202898551 0  0 -6.666666666666667 0  0 -6.521739130434783 0  0 -6.376811594202898 0  0 -6.231884057971015 0  0 -6.086956521739131 0  0 -5.942028985507246 0  0 -5.797101449275362 0  0 -5.652173913043478 0  0 -5.507246376811594 0  0 -5.36231884057971 0  0 -5.217391304347826 0  0 -5.072463768115941 0  0 -4.927536231884058 0  0 -4.782608695652174 0  0 -4.637681159420289 0  0 -4.492753623188406 0  0 -4.347826086956522 0  0 -4.202898550724638 0  0 -4.057971014492754 0  0 -3.913043478260869 0  0 -3.768115942028985 0  0 -3.623188405797101 0  0 -3.478260869565217 0  0 -3.333333333333334 0  0 -3.188405797101449 0  0 -3.043478260869565 0  0 -2.898550724637681 0  0 -2.753623188405797 0  0 -2.608695652173912 0  0 -2.463768115942029 0  0 -2.318840579710145 0  0 -2.173913043478261 0  0 -2.028985507246377 0  0 -1.884057971014492 0  0 -1.739130434782609 0  0 -1.594202898550725 0  0 -1.44927536231884 0  0 -1.304347826086957 0  0 -1.159420289855072 0  0 -1.014492753623188 0  0 -0.8695652173913047 0  0 -0.72463768115942 0  0 -0.579710144927537 0  0 -0.4347826086956523 0  0 -0.2898550724637676 0  0 -0.1449275362318829 0  5.15859856094262 -4.976557621770688 0  2.816777084926057 -7.160262673925935 0  2.81677708460006 -2.839737326002783 0  2.227649803257325 -5.003121586636773 0  1.518662968975629 -8.46230852045241 0  1.518662969184829 -1.537691480152612 0  9.960740911025725 -5.055901393541221 0  1.491099662214591 -3.691833922963321 0  1.503675657181264 -6.345020369042368 0  5.319208041801049 -7.493850249937013 0  5.291109955459268 -2.489368743223226 0  1.096914507335763 -2.53623188405797 0  1.096914507253562 -7.463768115942029 0  1.089580194952752 -4.71277167923441 0  15.07565076110197 -5.047572991082069 0  7.501630508673601 -5.937500100385354 0  0.8894869418764504 -5.623930488933245 0  2.955144522453978 -1.440834296472408 0  2.955144521140721 -8.559165705576945 0  8.106603955004623 -2.748811534843258 0  3.662152539483591 -4.228178367024407 0  3.662181528265114 -5.771746159989156 0  0.8436558190317136 -0.8541050638451999 0  0.8436558075840921 -9.145894948342754 0  0.7854168197005933 -1.811594202898552 0  0.7894693398152999 -3.286543351392342 0  0.7854168196772591 -8.188405797101449 0  0.7854168196772591 -6.739130434782609 0  20.00078956016804 -4.999999999785771 0  0.7379120031523989 -3.977302749614766 0  6.584332478112232 -3.934875417052907 0  7.295091310194352 -7.969791332537982 0  9.811174303464586 -7.412814499648229 0  4.013376806449688 -2.206189431585293 0  4.013376806983409 -7.793810569017377 0  12.11177433894592 -2.818343737884045 0  2.591152707837148 -3.990098461753838 0  2.58990939378082 -6.025895074707176 0  25.43156400064585 -5.044446479916348 0  2.03262751726143 -2.282125834846944 0  2.032627517335952 -7.717874165160392 0  12.51865094522923 -6.491408052923457 0  0.598175343983641 -6.156971652625402 0  2.126700074935224 -0.8767654465386991 0  2.126700059112423 -9.123234559633019 0  6.617961838548696 -1.617756429129908 0  0.5903949564549755 -4.980060355019413 0  1.676697585305984 -5.547101897225158 0  4.773518305133987 -3.729331162566817 0  4.77931803486508 -6.231222307502165 0  4.878549698409591 -8.72048903376362 0  4.852580875634024 -1.222215410052823 0  0.5487847095754042 -2.675169258708207 0  0.545113423825768 -7.32369553390529 0  1.78738026998851 -4.400451872599477 0  1.68244194111824 -3.010100184333533 0  1.683984276238402 -7.018293626028473 0  9.998503440677371 -2.00585287985007 0  3.693061162502273 -3.243678395563028 0  3.694987482168253 -6.757603268814477 0  6.081763036485869 -5.83414381546261 0  0.5196640460586313 -1.350633211792632 0  0.5196640458460706 -8.649366789040087 0  3.84593363904758 -0.9906418103762418 0  3.845933620847308 -9.009358200471317 0  17.41551885287501 -3.057748733689079 0  17.30725517812527 -7.002961443761516 0  8.117698464370697 -4.451550942597151 0  0.4918476668493152 -0.4789811193757592 0  0.4918476560347713 -9.521018882514893 0  1.463770869328428 -0.6252343353791154 0  1.463770854281917 -9.374765668872765 0  0.5034132782032188 -4.464280853772128 0  3.138906271796685 -4.99999841599503 0  14.61209972381335 -2.388610981020637 0  6.208601124947327 -8.776231214192325 0  14.74910972998159 -7.542186851303819 0  2.243794246335625 -1.632184311040998 0  2.243794245689214 -8.367815689183566 0  0.4590235278399923 -5.431413993025926 0  0.4971508861448406 -2.209632053221267 0  0.4971508861368665 -7.790367946777407 0  0.4644363683211541 -3.560571347760519 0  6.478811279411406 -7.007392971062433 0  1.238895267772762 -4.173677632458826 0  1.293241773632479 -2.02256720952064 0  1.293241773542714 -7.977432790434841 0  0.4324740478030531 -0.942028985507247 0  0.4324740423701829 -9.057971014492754 0  2.117396640811705 -3.472968170680347 0  2.107095929630507 -6.531506384346077 0  8.087741545730886 -1.392783601483453 0  1.028911946384717 -1.352376108341404 0  1.028911946221715 -8.647623891551962 0  4.05691976296832 -4.991522392209158 0  11.51826881314265 -8.065248940008736 0  1.618560396201739 -4.958056164503666 0  2.701984523487646 -2.141781914603403 0  2.70198452396172 -7.858218085853512 0  2.843615645746219 -9.289121726447632 0  2.843615661334342 -0.7108782798429658 0  8.678774612240533 -8.488146490452822 0  6.487906449371135 -2.667543558824978 0  8.369190916679937 -7.129867754908394 0  11.80978191929258 -4.655775487536958 0  0.3792065166453504 -3.113833531412848 0  0.4134714637263563 -6.58827691137208 0  9.551050695080825 -3.49648183875815 0  1.083867845277057 -6.036251777836495 0  0.3756430921870901 -1.80381664325008 0  0.3756430921689482 -8.196183356748573 0  3.113073783220456 -3.503408140759125 0  3.113391383189963 -6.496678880796299 0  22.62850736315072 -3.277987336300344 0  22.59385352108348 -6.800312122582239 0  0.3777114402537816 -4.137047872695438 0  0.9196816123347897 -0.4281025456111269 0  0.9196815944880363 -9.571897460530383 0  0.4052043328723194 -5.827814332459883 0  8.865857694874787 -5.767686953139113 0  1.200388325130726 -5.182186034620629 0  5.65297436943758 -4.325500846767599 0  1.200079167961391 -3.009849046583253 0  1.20883344838 -7.021823297793294 0  1.057642414577487 -3.660996704809145 0  10.88812987788297 -6.333458225047037 0  4.493502926606794 -2.839780197438185 0  4.485862892033458 -7.147606077919463 0  0.3631651408878085 -7.003529808558233 0  1.946748828463205 -6.049056369468467 0  6.918750162798794 -4.993796052442676 0  3.351203216022585 -1.980935554775394 0  3.351203216441711 -8.019064445907297 0  2.281892243515294 -2.856654416292082 0  2.281892243715877 -7.143345583598931 0  5.811143619672087 -0.9953286820321026 0  2.695713766833098 -4.565354125099452 0  2.698172168139827 -5.435483248292925 0  19.86166219288896 -2.493475492328429 0  19.83739102036415 -7.594404063416508
[...]
<PointData  Vectors="displacement"> 
<DataArray  type="Float64"  Name="displacement"  NumberOfComponents="3" format="ascii">4.7754978499758516e-02 2.5199844144190024e-02 0.0000000000000000e+00  4.8830759852632154e-08 3.5472833490397586e-05 0.0000000000000000e+00  -7.0695789629598824e-08 -3.6271905804672156e-08 0.0000000000000000e+00  4.7009562759227998e-08 -4.5187085652657498e-08 0.0000000000000000e+00  2.0760334239341104e-02 -4.4891355485152861e-03 0.0000000000000000e+00  8.9235204969513662e-03 6.7102218451188327e-04 0.0000000000000000e+00  6.3936039593605696e-03 -1.8491693520535102e-04 0.0000000000000000e+00  4.3162427830296772e-03 -6.2447070712905780e-05 0.0000000000000000e+00  3.4426544954505251e-03 -1.1357115500981743e-04 0.0000000000000000e+00  2.7441348479309976e-03 -1.3375343689990085e-04 0.0000000000000000e+00  2.2980784131678375e-03 -1.3675228912809163e-04 0.0000000000000000e+00  1.9555412011043175e-03 -1.4756888288261919e-04 0.0000000000000000e+00  1.6726559053412402e-03 -1.4686431500335903e-04 0.0000000000000000e+00  1.4572585012723688e-03 -1.5143477055462013e-04 0.0000000000000000e+00  1.2703550044904492e-03 -1.4864082496040640e-04 0.0000000000000000e+00  1.1322715604825295e-03 -1.4172571198248788e-04 0.0000000000000000e+00  1.0014512950497010e-03 -1.4253748774580895e-04 0.0000000000000000e+00  8.9845455930879440e-04 -1.4085920955602294e-04 0.0000000000000000e+00  7.9924322216840503e-04 -1.3620128789437017e-04 0.0000000000000000e+00  7.1879671656615803e-04 -1.3096983325280179e-04 0.0000000000000000e+00  6.4626785229525082e-04 -1.2486075146956658e-04 0.0000000000000000e+00  5.8281657238526679e-04 -1.1835435651917011e-04 0.0000000000000000e+00  5.2733439158944573e-04 -1.1228766665749749e-04 0.0000000000000000e+00  4.7593477949601864e-04 -1.0566200168570288e-04 0.0000000000000000e+00  4.2864260406987997e-04 -9.6972987578602032e-05 0.0000000000000000e+00  3.8755151605605030e-04 -8.7469767635975617e-05 0.0000000000000000e+00  3.5236082229107081e-04 -7.8934834788408498e-05 0.0000000000000000e+00  3.1794868375462993e-04 -6.8881863351367306e-05 0.0000000000000000e+00  2.8854141532681511e-04 -5.9114775283280083e-05 0.0000000000000000e+00  2.6048004841732408e-04 -4.8486010686925198e-05 0.0000000000000000e+00  2.3567077425710995e-04 -3.7539980462974929e-05 0.0000000000000000e+00  2.1406149662088280e-04 -2.6402243424607646e-05 0.0000000000000000e+00  1.9591830959805239e-04 -1.6185589363265417e-05 0.0000000000000000e+00  1.7816923445905536e-04 -5.6526021060662843e-06 0.0000000000000000e+00  1.6293364633507190e-04 4.1601136599208187e-06 0.0000000000000000e+00  1.4960643327528340e-04 1.3516371436329318e-05 0.0000000000000000e+00  1.3850155038856081e-04 2.1623945093437486e-05 0.0000000000000000e+00  1.2801217146744137e-04 2.8965294642539420e-05 0.0000000000000000e+00  1.1912438256742421e-04 3.4866887465220569e-05 0.0000000000000000e+00  1.1021565560723778e-04 3.9937890470897418e-05 0.0000000000000000e+00  1.0284261078383794e-04 4.3363744385360682e-05 0.0000000000000000e+00  9.4980809141543469e-05 4.5884164727901414e-05 0.0000000000000000e+00  8.7873440969492750e-05 4.7034666835389130e-05 0.0000000000000000e+00  8.0232178524933999e-05 4.7353780815362730e-05 0.0000000000000000e+00  7.3093343875846390e-05 4.6667628325344085e-05 0.0000000000000000e+00  6.4959443934070710e-05 4.5398743441706080e-05 0.0000000000000000e+00  5.6888232233593211e-05 4.3739631097080860e-05 0.0000000000000000e+00  4.8261335598285141e-05 4.1886451193150765e-05 0.0000000000000000e+00  4.0015039426796940e-05 3.9896724012088522e-05 0.0000000000000000e+00  3.0579059886962529e-05 3.7898904980092196e-05 0.0000000000000000e+00  2.0518538313274791e-05 3.6419013556281699e-05 0.0000000000000000e+00  1.0218034175756684e-05 3.5607081753533074e-05 0.0000000000000000e+00  1.1731826664925322e-07 2.9675190703777480e-05 0.0000000000000000e+00  -3.0893143576362239e-08 2.3444861912494885e-05 0.0000000000000000e+00  -1.4344025201396952e-08 1.7703130166210584e-05 0.0000000000000000e+00  3.2004793206919321e-08 1.2602647896005389e-05 0.0000000000000000e+00  -4.1787839646691929e-08 8.1594170965189859e-06 0.0000000000000000e+00  3.4160552384024568e-08 4.5434776153544371e-06 0.0000000000000000e+00  -2.5776937017954279e-08 1.8831095494758204e-06 0.0000000000000000e+00  -2.5026298725726443e-09 2.9486248951525973e-07 0.0000000000000000e+00  -3.6964270962872809e-08 -1.5928163085025055e-07 0.0000000000000000e+00  -5.3867833526964979e-10 -1.7605300007468503e-07 0.0000000000000000e+00  1.4033971095166871e-07 -1.9558373254929329e-07 0.0000000000000000e+00  1.9920689220282039e-08 -6.2210480701785875e-08 0.0000000000000000e+00  3.1587990613602434e-08 -1.0039392536709375e-07 0.0000000000000000e+00  1.6204878963514620e-07 -1.4131784347472587e-07 0.0000000000000000e+00  5.4042153290036099e-08 -1.9170196747182672e-07 0.0000000000000000e+00  2.6504536642916855e-07 -1.7936237316625035e-07 0.0000000000000000e+00  8.3477094367422071e-08 -1.1371988791163941e-07 0.0000000000000000e+00  2.6074251048585486e-07 -1.3054957376692719e-07 0.0000000000000000e+00  1.3792045280069366e-07 -5.2590416372287554e-08 0.0000000000000000e+00  1.9763913156196887e-07 -6.6451829252468434e-08 0.0000000000000000e+00  2.0267316123462414e-07 1.2966223012123105e-08 0.0000000000000000e+00  2.3730428662614102e-07 1.3480475459559466e-08 0.0000000000000000e+00  6.9994978505965945e-08 3.1037630308926492e-08 0.0000000000000000e+00  1.4808460910989406e-07 1.0791205564887727e-07 0.0000000000000000e+00  -5.7290454234126532e-09 3.1733513195359227e-08 0.0000000000000000e+00  2.1859201556965513e-07 2.8488818192951863e-07 0.0000000000000000e+00  7.0947620964153390e-08 1.9973969073290524e-07 0.0000000000000000e+00  1.5365859666298135e-07 1.8549977922680239e-07 0.0000000000000000e+00  -1.3090010896861228e-07 1.8071064680810109e-07 0.0000000000000000e+00  2.7728565843667785e-08 2.7688112915653851e-07 0.0000000000000000e+00  -1.7505979820316185e-07 3.7824429123817209e-07 0.0000000000000000e+00  -2.1097935080093257e-07 2.3207115085798919e-07 0.0000000000000000e+00  -2.0782986401462054e-07 1.1294052630541184e-07 0.0000000000000000e+00  -5.8555636949899248e-07 2.8825302963190726e-07 0.0000000000000000e+00  -2.2891488935140928e-07 1.3295113256542354e-07 0.0000000000000000e+00  -4.0680634293759553e-07 1.5740104523308880e-07 0.0000000000000000e+00  -2.5415918880693474e-07 9.7443593238569544e-08 0.0000000000000000e+00  -6.1093161289779823e-07 1.5378994892223155e-07 0.0000000000000000e+00  -5.8477854032375368e-08 -5.4459720162578989e-09 0.0000000000000000e+00  -2.5079785483195692e-07 1.0376942160816897e-08 0.0000000000000000e+00  -2.0888502579107403e-07 4.4044858756740115e-09 0.0000000000000000e+00  -1.5166140824551940e-07 -1.2656682314552010e-08 0.0000000000000000e+00  -3.4305225712912893e-07 -6.9056486032812702e-08 0.0000000000000000e+00  -8.1925461644696753e-08 -2.7838823526475765e-08 0.0000000000000000e+00  -2.8168848593901801e-07 -9.6386581044031966e-08 0.0000000000000000e+00  -3.9895000391480729e-08 -2.3420859705283876e-08 0.0000000000000000e+00  -4.9504140945381244e-08 -7.5863178342395221e-08 0.0000000000000000e+00  -1.2307494869918952e-07 -6.6887371895544911e-08 0.0000000000000000e+00  -6.7124898824436690e-08 -7.1337022254369645e-08 0.0000000000000000e+00  -1.6840462602909753e-08 -2.5399282389263529e-08 0.0000000000000000e+00  -3.9550129368797535e-08 -3.7880277494535261e-08 0.0000000000000000e+00  -3.6017911450290302e-09 -4.8244135849926556e-08 0.0000000000000000e+00  1.3798870262321030e-10 -2.5803036207132581e-08 0.0000000000000000e+00  -5.6976610951561752e-08 -4.5252068354776080e-08 0.0000000000000000e+00  1.3456190007689530e-08 -4.5218472716193323e-08 0.0000000000000000e+00  -1.3718639870546824e-08 -1.5012948568840762e-08 0.0000000000000000e+00  -1.1395176606270104e-08 1.2991526387345168e-06 0.0000000000000000e+00  1.6841860583474554e-08 3.3023323839692797e-06 0.0000000000000000e+00  -2.1006520017567113e-08 5.8775288642154324e-06 0.0000000000000000e+00  1.9294668593410783e-09 9.0357439860018955e-06 0.0000000000000000e+00  -9.8425627935264006e-09 1.2663492978349698e-05 0.0000000000000000e+00  -7.8629457041605893e-09 1.6801670110660304e-05 0.0000000000000000e+00  1.7850825076167773e-08 2.1361378180299509e-05 0.0000000000000000e+00  -1.6613785719823399e-08 2.6343820508183690e-05 0.0000000000000000e+00  1.5172248883564196e-08 3.1727274560016415e-05 0.0000000000000000e+00  -2.0130194108725369e-08 3.7480051992117053e-05 0.0000000000000000e+00  1.2394175768497136e-08 4.3587718027129339e-05 0.0000000000000000e+00  -7.9926944178332408e-09 5.0047025109590673e-05 0.0000000000000000e+00  8.9818296259756675e-09 5.6844100874573207e-05 0.0000000000000000e+00  -1.6658843957598381e-08 6.3963199507978589e-05 0.0000000000000000e+00  1.0259913571665232e-08 7.1413351475470041e-05 0.0000000000000000e+00  -1.2357690906131387e-08 7.9181808675900061e-05 0.0000000000000000e+00  -7.9558222014817185e-09 8.7289779168659129e-05 0.0000000000000000e+00  3.9666480748314048e-09 9.5691949824141826e-05 0.0000000000000000e+00  9.5477049449620283e-09 1.0445605918486986e-04 0.0000000000000000e+00  -4.5967214913123481e-09 1.1354073968912548e-04 0.0000000000000000e+00  6.8436283119261426e-09 1.2297671091843481e-04 0.0000000000000000e+00  -1.8031945007906928e-08 1.3276129186458132e-04 0.0000000000000000e+00  5.0678644654402568e-09 1.4295433233885860e-04 0.0000000000000000e+00  2.1750843271584927e-09 1.5345679163260596e-04 0.0000000000000000e+00  -2.9507671262994623e-09 1.6447096573409960e-04 0.0000000000000000e+00  -2.1802882841722016e-08 1.7591241936898788e-04 0.0000000000000000e+00  -1.0560399096329755e-08 1.8776509455474896e-04 0.0000000000000000e+00  -1.0936798902332349e-08 2.0005546048553497e-04 0.0000000000000000e+00  1.5205924498446232e-08 2.1292180333667675e-04 0.0000000000000000e+00  -2.7692212201471828e-08 2.2635315474531294e-04 0.0000000000000000e+00  9.3486679566466104e-09 2.4040086467606614e-04 0.0000000000000000e+00  -3.0713023620053293e-08 2.5507840668999467e-04 0.0000000000000000e+00  1.1522187328977708e-08 2.7049412892844163e-04 0.0000000000000000e+00  -2.4000295926165632e-08 2.8659881307877488e-04 0.0000000000000000e+00  -1.2602661651319238e-08 3.0345930233050314e-04 0.0000000000000000e+00  -1.6100293400818081e-08 3.2153886444415039e-04 0.0000000000000000e+00  -3.0378722126860363e-09 3.4013824373923802e-04 0.0000000000000000e+00  3.7668278039764226e-08 3.6033909153966251e-04 0.0000000000000000e+00  -9.2964527304357126e-08 3.8143591624982456e-04 0.0000000000000000e+00  4.9823327678037821e-08 4.0371845188418097e-04 0.0000000000000000e+00  -5.3602446581682588e-08 4.2761272294146620e-04 0.0000000000000000e+00  3.6418168404663925e-08 4.5320319906249550e-04 0.0000000000000000e+00  -5.4765389326801533e-08 4.8055080429534582e-04 0.0000000000000000e+00  -3.7572726333267760e-08 5.0972839684517368e-04 0.0000000000000000e+00  -1.2384981208489947e-08 5.4172033244301874e-04 0.0000000000000000e+00  1.3948071088571478e-07 5.7578641579563057e-04 0.0000000000000000e+00  -9.4966278988544896e-08 6.1294231626709498e-04 0.0000000000000000e+00  2.3739222971549316e-09 6.5360913249722780e-04 0.0000000000000000e+00  4.5702208198673485e-08 6.9831836615482170e-04 0.0000000000000000e+00  -3.8476490642013794e-08 7.4683376405849206e-04 0.0000000000000000e+00  -4.5323674053925775e-08 7.9993823763266673e-04 0.0000000000000000e+00  -2.4336987440490034e-07 8.6124919043132448e-04 0.0000000000000000e+00  2.5422118656269947e-07 9.2826514851873795e-04 0.0000000000000000e+00  -3.6843207268697302e-07 1.0037457835536513e-03 0.0000000000000000e+00  4.8989756640070484e-07 1.0906987214686858e-03 0.0000000000000000e+00  -6.5863824286680529e-07 1.1897523896050250e-03 0.0000000000000000e+00  1.8337588392663153e-07 1.3056506829540017e-03 0.0000000000000000e+00  -1.1603099435877256e-06 1.4411681226314688e-03 0.0000000000000000e+00  5.2990840442284403e-07 1.6088031830047516e-03 0.0000000000000000e+00  -3.3050629389846698e-06 1.8040044461156163e-03 0.0000000000000000e+00  1.0118833381956469e-06 2.0517024584716568e-03 0.0000000000000000e+00  -4.9506335962454490e-06 2.3562859041100464e-03 0.0000000000000000e+00  -4.6441930637178963e-06 2.7761223074367811e-03 0.0000000000000000e+00  1.8922236237505215e-06 3.3906459740256972e-03 0.0000000000000000e+00  -4.8877093262810628e-05 4.2050631687438039e-03 0.0000000000000000e+00  -1.2300582733058859e-04 5.5413849559964807e-03 0.0000000000000000e+00  1.2041110162219152e-03 8.1343200134143760e-03 0.0000000000000000e+00  -1.0621254089446867e-02 1.5855823698355993e-02 0.0000000000000000e+00  -2.2081328642482820e-05 -1.1980333139178297e-04 0.0000000000000000e+00  -1.0635633452445632e-04 2.8779682789178692e-05 0.0000000000000000e+00  -1.4797230928171826e-05 -1.5005025565587753e-04 0.0000000000000000e+00  -1.4152465234115231e-04 9.4005916331433033e-05 0.0000000000000000e+00  -5.0665450430336960e-05 3.1382433386253824e-05 0.0000000000000000e+00  1.3437922229948611e-05 -1.3299091136314981e-04 0.0000000000000000e+00  8.5980619947140688e-05 -5.2114806240589200e-05 0.0000000000000000e+00  -1.7611867289575332e-04 2.4226567210507355e-04 0.0000000000000000e+00  -9.2397121011136458e-05 1.1875259089597536e-04 0.0000000000000000e+00  -6.9870250654889904e-05 -3.3312003618198808e-05 0.0000000000000000e+00  2.1345746938638465e-04 -2.1721665358932586e-04 0.0000000000000000e+00  -2.4167901777335588e-04 4.1027733375697981e-04 0.0000000000000000e+00  -5.4236800892639799e-05 7.8659897416349356e-05 0.0000000000000000e+00  -1.1277407052106182e-04 2.5682686764256916e-04 0.0000000000000000e+00  7.9564874780953539e-05 6.7621047462169879e-06 0.0000000000000000e+00  1.9059074047456933e-05 -7.9540723536348484e-05 0.0000000000000000e+00  -7.3155912112628265e-05 2.0086585854165709e-04 0.0000000000000000e+00  4.1756567947236835e-04 -3.4629981821142044e-04 0.0000000000000000e+00  -7.1710070404760312e-05 1.0338235565334679e-05 0.0000000000000000e+00  1.7448744426974838e-04 -1.0668870462695882e-04 0.0000000000000000e+00  -6.5588626539885304e-05 -1.0013620576638690e-04 0.0000000000000000e+00  -1.1005756634361569e-04 -2.6636442559622677e-05 0.0000000000000000e+00  5.9518055719111042e-05 -8.3070325570319838e-05 0.0000000000000000e+00  -1.9420607706889128e-05 1.5142999971610397e-05 0.0000000000000000e+00  -3.2815624694146616e-04 6.5650465441172471e-04 0.0000000000000000e+00  -1.5523479677846089e-04 4.6816114557321286e-04 0.0000000000000000e+00  -3.1619979102348802e-05 4.9710681364701995e-05 0.0000000000000000e+00  -4.8614776844052870e-05 1.2674525546150633e-04 0.0000000000000000e+00  5.0029844985678919e-05 1.4889140937330661e-05 0.0000000000000000e+00  -1.0909419443851199e-04 3.8179889854063435e-04 0.0000000000000000e+00  9.6633049382822858e-05 -1.4884974281924012e-04 0.0000000000000000e+00  -2.2029714197289866e-05 -2.7787633255894510e-05 0.0000000000000000e+00  2.9179739389913353e-05 -2.5110090223826157e-05 0.0000000000000000e+00  2.3581034918745069e-04 -2.7053478777231739e-04 0.0000000000000000e+00  -9.0641434366712007e-05 -7.3117677439080985e-06 0.0000000000000000e+00  1.2700607556657918e-04 -8.2822658696442880e-06 0.0000000000000000e+00  -1.3220427256171045e-04 1.1809437293765462e-05 0.0000000000000000e+00  -1.2471458918077844e-04 5.2237990329166994e-05 0.0000000000000000e+00  2.0547043861758956e-05 1.1345640353997799e-05 0.0000000000000000e+00  -6.0332950097922026e-05 -8.3942136333187798e-05 0.0000000000000000e+00  -8.1291617276371325e-05 4.4610209587633166e-05 0.0000000000000000e+00  6.4663130615053198e-05 -1.1394346811182350e-05 0.0000000000000000e+00  -4.3932625759136428e-05 1.7255819092961246e-04 0.0000000000000000e+00  7.3601782617643493e-04 -4.3827151246820319e-04 0.0000000000000000e+00  -4.2750968825890236e-05 1.0023950001997455e-05 0.0000000000000000e+00  2.6807591253442996e-04 -1.4381631929755935e-04 0.0000000000000000e+00  -6.1804432468948734e-05 2.7817541638901943e-04 0.0000000000000000e+00  -1.1834558362522162e-04 1.4273463762162400e-04 0.0000000000000000e+00  4.9533942046548518e-05 -1.7991786676221439e-04 0.0000000000000000e+00  -7.8541635310538097e-05 -5.9434193976721439e-05 0.0000000000000000e+00  -5.7821852631814599e-05 -7.7157057078315493e-06 0.0000000000000000e+00  3.9118858856613989e-04 -2.1378656889709061e-04 0.0000000000000000e+00  -1.6704034479788762e-04 6.6462842724660204e-04 0.0000000000000000e+00  -2.9339256316007506e-05 9.6111053003483738e-05 0.0000000000000000e+00  -1.5439548870543735e-04 1.6592395576187283e-04 0.0000000000000000e+00  -1.8911969217940777e-04 1.6681416075821351e-04 0.0000000000000000e+00  -8.5724350857751308e-05 8.0227554670458452e-05 0.0000000000000000e+00  1.6692360561432123e-04 -4.0017952340043400e-05 0.0000000000000000e+00  2.8639349517789485e-05 -1.8459102255883868e-04 0.0000000000000000e+00  -1.0832303859913847e-04 -8.6045306782957721e-06 0.0000000000000000e+00  -2.1106798044957433e-05 -9.1716972739644423e-05 0.0000000000000000e+00  -4.3082025974783565e-04 1.0773969452578830e-03 0.0000000000000000e+00  -1.7254446124386305e-05 3.2523207398361967e-05 0.0000000000000000e+00  5.1217727205088274e-04 -2.6265507318637893e-04 0.0000000000000000e+00  -5.5531614917343126e-05 3.7070364826665508e-07 0.0000000000000000e+00  7.8426639693070308e-05 2.6019248011431554e-05 0.0000000000000000e+00  4.6295561614440096e-05 4.6532458750691614e-06 0.0000000000000000e+00  9.1912576461571644e-05 -9.9978592055724824e-05 0.0000000000000000e+00  2.4901506799326532e-04 -1.1201200548056598e-04 0.0000000000000000e+00  -7.1165718327979966e-06 6.6253289029064683e-06 0.0000000000000000e+00  1.0604347676880536e-03 -5.5928152690929009e-04 0.0000000000000000e+00  -2.4656467580601054e-05 8.0611466034853630e-06 0.0000000000000000e+00  -6.4179981897017019e-05 3.4427604699616214e-04 0.0000000000000000e+00  -1.2101560616056564e-04 -1.0561755529802740e-05 0.0000000000000000e+00  1.0513022907179638e-04 2.1350211564467948e-05 0.0000000000000000e+00  -3.6794728767730381e-05 -1.1524308128941216e-05 0.0000000000000000e+00  4.6694947582675158e-05 -4.4999528086710266e-07 0.0000000000000000e+00  2.3320204164113475e-04 -3.1052384767282375e-04 0.0000000000000000e+00  -6.9330891674698449e-05 2.3709161594893773e-05 0.0000000000000000e+00  -4.2127476444383219e-05 2.3922608880936819e-04 0.0000000000000000e+00  -2.1259581668039046e-04 8.2629360850611623e-04 0.0000000000000000e+00  -2.3388830353350440e-05 7.1173079544430861e-05 0.0000000000000000e+00  -8.8616372833203336e-05 4.8890740683603905e-04 0.0000000000000000e+00  -3.5258130532537457e-05 -5.3772796333376776e-05 0.0000000000000000e+00  -1.4466741335746852e-04 2.7538477275557908e-04 0.0000000000000000e+00  -2.2341499108999196e-04 2.2046559346768389e-04 0.0000000000000000e+00  -5.3524882665208594e-05 5.1975814934261033e-05 0.0000000000000000e+00  -5.9239796482537003e-04 1.3413369561245281e-03 0.0000000000000000e+00  -1.1001822853253717e-05 1.8631446608113754e-05 0.0000000000000000e+00  -1.5638237626224309e-04 7.2674436620276259e-05 0.0000000000000000e+00  -1.0846075646809926e-04 7.5977575523807235e-05 0.0000000000000000e+00  2.2480690559534939e-04 -8.1080946178141617e-05 0.0000000000000000e+00  -2.0302313690337493e-04 1.8210016981795905e-04 0.0000000000000000e+00  -3.3083600039847164e-05 2.9792243814008837e-05 0.0000000000000000e+00  -7.7820222637544045e-05 -8.1074416512848723e-05 0.0000000000000000e+00  3.3503762836887795e-05 -8.9551308185735334e-06 0.0000000000000000e+00  -1.3282503458434745e-04 1.7403355889785950e-04 0.0000000000000000e+00  1.2554160991434980e-04 -2.5102840039149121e-04 0.0000000000000000e+00  -8.9671047207232931e-05 2.3640404893649977e-05 0.0000000000000000e+00  -4.1624204584626685e-05 4.4667383693296556e-06 0.0000000000000000e+00  7.2957980868263556e-04 -3.1913413193535744e-04 0.0000000000000000e+00  8.2483546114468267e-07 -1.4261066510169057e-05 0.0000000000000000e+00  1.9438726931853196e-04 -1.6764475385337471e-04 0.0000000000000000e+00  1.0291464555215902e-05 -4.1609411198976508e-05 0.0000000000000000e+00  9.8487369513426483e-05 -2.188