<?xml version="1.0"?>
<VTKFile type="UnstructuredGrid"  version="0.1"  >
<UnstructuredGrid>
<Piece  NumberOfPoints="572" NumberOfCells="1038">
<Points>
<DataArray  type="Float64"  NumberOfComponents="3"  format="ascii">0 0 0  4 0 0  4 -1 0  0 -1 0  0.09999999999999999 0 0  0.2 0 0  0.3 0 0  0.4 0 0  0.4999999999999998 0 0  0.5999999999999996 0 0  0.6999999999999995 0 0  0.7999999999999994 0 0  0.8999999999999992 0 0  0.999999999999999 0 0  1.099999999999999 0 0  1.199999999999999 0 0  1.299999999999999 0 0  1.399999999999999 0 0  1.499999999999998 0 0  1.599999999999998 0 0  1.699999999999999 0 0  1.799999999999999 0 0  1.899999999999999 0 0  2 0 0  2.1 0 0  2.200000000000001 0 0  2.300000000000001 0 0  2.400000000000002 0 0  2.500000000000002 0 0  2.600000000000002 0 0  2.700000000000003 0 0  2.800000000000003 0 0  2.900000000000004 0 0  3.000000000000004 0 0  3.100000000000005 0 0  3.200000000000005 0 0  3.300000000000005 0 0  3.400000000000004 0 0  3.500000000000004 0 0  3.600000000000003 0 0  3.700000000000002 0 0  3.800000000000002 0 0  3.900000000000001 0 0  4 -0.08333333333333325 0  4 -0.1666666666666665 0  4 -0.2499999999999997 0  4 -0.333333333333333 0  4 -0.4166666666666666 0  4 -0.5000000000000001 0  4 -0.5833333333333337 0  4 -0.6666666666666673 0  4 -0.7500000000000006 0  4 -0.8333333333333337 0  4 -0.9166666666666669 0  3.9 -1 0  3.8 -1 0  3.7 -1 0  3.6 -1 0  3.5 -1 0  3.4 -1 0  3.300000000000001 -1 0  3.200000000000001 -1 0  3.100000000000001 -1 0  3.000000000000001 -1 0  2.900000000000001 -1 0  2.800000000000001 -1 0  2.700000000000001 -1 0  2.600000000000001 -1 0  2.500000000000002 -1 0  2.400000000000002 -1 0  2.300000000000002 -1 0  2.200000000000001 -1 0  2.100000000000001 -1 0  2 -1 0  1.9 -1 0  1.799999999999999 -1 0  1.699999999999999 -1 0  1.599999999999998 -1 0  1.499999999999998 -1 0  1.399999999999998 -1 0  1.299999999999997 -1 0  1.199999999999997 -1 0  1.099999999999996 -1 0  0.9999999999999956 -1 0  0.899999999999995 -1 0  0.7999999999999949 -1 0  0.6999999999999953 -1 0  0.5999999999999956 -1 0  0.499999999999996 -1 0  0.3999999999999968 -1 0  0.2999999999999976 -1 0  0.1999999999999984 -1 0  0.0999999999999992 -1 0  0 -0.9166666666666667 0  0 -0.8333333333333335 0  0 -0.7500000000000002 0  0 -0.666666666666667 0  0 -0.5833333333333335 0  0 -0.4999999999999999 0  0 -0.4166666666666663 0  0 -0.3333333333333327 0  0 -0.2499999999999994 0  0 -0.1666666666666663 0  0 -0.08333333333333315 0  3.491090701185765 -0.499339806301727 0  0.4950203227078167 -0.4989128584675094 0  2.64262313781888 -0.4879297506908338 0  1.449999999999998 -0.5 0  2.058402291097397 -0.5120941233772698 0  0.9749999999999992 -0.4749999999999993 0  3.081769880806683 -0.5597407802610527 0  1.745473944409859 -0.3290615136625714 0  2.347280045777389 -0.6545118286598804 0  2.335768673639667 -0.3237239238763549 0  1.750327526220345 -0.682828817540943 0  3.707492972392909 -0.3028030525063309 0  0.293580296675358 -0.7109385489008262 0  3.71498825372084 -0.7080088716251347 0  0.2918697062415769 -0.2988161261649331 0  3.250413907284768 -0.3098344370860925 0  0.7481958762886598 -0.6907216494845363 0  2.897531957111618 -0.3144800466372323 0  1.202975631932859 -0.6871206495416401 0  0.7276881720430104 -0.301075268817204 0  1.222241507685503 -0.2908020883113388 0  2.821785532795642 -0.7097679058139483 0  3.313580174540806 -0.7110306688463971 0  1.50219738324048 -0.2570217529780842 0  2.109436430026117 -0.7485141141565509 0  2.001923272149049 -0.2612004201407864 0  2.591779594323503 -0.2533220405676498 0  1.508220405676497 -0.7466779594323502 0  2.584305190871683 -0.7502831919469019 0  3.478286033189422 -0.23795222571263 0  0.5261060937617643 -0.7658117832712512 0  3.785135972681774 -0.5040707172464052 0  0.2090645029521114 -0.4969048262114374 0  0.9574438986108131 -0.2423163095862805 0  0.9754244626643473 -0.7628641460288867 0  0.5097271592765806 -0.2292760602594508 0  3.047448237147327 -0.7984168297371277 0  3.522893514415914 -0.785726174019542 0  3.27411286219494 -0.5150314861460955 0  2.876192398366876 -0.5166549013936721 0  3.072152863254761 -0.2028141497170135 0  2.188888454287124 -0.1960738743988359 0  1.911111545712876 -0.8039261256011641 0  0.6968885413728847 -0.4974520678389611 0  1.252104989604988 -0.4970114345114344 0  1.649610740490046 -0.5028202775347195 0  2.446694231298332 -0.485633542353709 0  1.845992484168205 -0.4989419599210881 0  2.246214131289309 -0.4959316037735846 0  2.743080194417513 -0.1797603284198384 0  1.345217800961618 -0.8177514544794908 0  3.831771135951664 -0.1764827624326512 0  0.168177957407361 -0.823589473522286 0  3.837430960455357 -0.8286944021295046 0  0.167391597779325 -0.1752538625856722 0  3.066111254276541 -0.3870061788029396 0  1.358909159394344 -0.1720779287034414 0  1.669284305949535 -0.172759019086266 0  2.264869859182613 -0.8283162784008133 0  2.434165412425708 -0.1697954173687042 0  1.668706113475668 -0.8314479749300888 0  1.842683258862577 -0.1656794186994128 0  3.848464877921415 -0.3616620315967092 0  0.151535122078585 -0.6383379684032905 0  3.848707346075076 -0.6466646759135177 0  0.1509968549082652 -0.3452619778382686 0  2.732975255829699 -0.3508363638623346 0  1.370252652534258 -0.6495109932111033 0  1.11832587037856 -0.1733419061976365 0  2.439737645513045 -0.836456385212641 0  3.331229791744127 -0.165499768727795 0  0.6726591332606813 -0.8336090461037186 0  1.132616756253317 -0.8280723285747189 0  1.950606351728588 -0.6518091391595896 0  2.153824719141371 -0.3536025000168445 0  3.62532407618639 -0.1564302309141494 0  0.3803710983093131 -0.8404803223371928 0  1.377912260103223 -0.3517997484404782 0  0.8924624300191402 -0.6125774599817652 0  3.207249628251628 -0.8375220474312923 0  0.6546785576266954 -0.155978749966339 0  2.719684587363634 -0.8327734580127736 0  3.647699282718985 -0.5637569936419204 0  0.3570156455557587 -0.5653989322146081 0  0.8322251523939386 -0.8403847541693579 0  0.3645988133126639 -0.1519337183240305 0  1.061404500324257 -0.6180105656135877 0  3.396758647231262 -0.3766313243368538 0  0.8148021518360848 -0.1629813466347811 0  0.6093556516052328 -0.6299486913462624 0  0.415997866655875 -0.3680522660477806 0  0.5920160015096863 -0.3645412637424194 0  3.572255424430109 -0.362089200459548 0  1.08043890485706 -0.3398660584513152 0  2.923658429424994 -0.1561137197110593 0  3.653613361778262 -0.8546909554159527 0  3.456739790681186 -0.6487708965425909 0  0.8424839600900655 -0.4190496412612194 0  2.6968241495241 -0.6460539373019687 0  2.90777185621417 -0.8467190841342236 0  3.167421855912535 -0.6853653881872064 0  3.378998015397395 -0.8550267917096944 0  2.549623533286458 -0.6074164390661531 0  1.563854363100012 -0.3870450365840445 0  1.945115925347995 -0.3956210114182645 0  2.206384380497951 -0.6363666106481864 0  2.9679770331043 -0.6663940397605803 0  2.492817266347368 -0.3527603982764793 0  1.545918816851176 -0.6075709531787901 0  2.028456012399734 -0.8701972194942087 0  2.065700499244939 -0.1359115819594244 0  1.113999927383315 -0.4803729266898425 0  3.194766700972084 -0.1349664610116483 0  1.791586588241401 -0.8656156413257059 0  2.307333345265183 -0.1346440826116952 0  2.64093544674549 -0.1331489671463476 0  0.4565707965077976 -0.6534785968762363 0  1.459077473581533 -0.8718776489042938 0  1.56279060907849 -0.1324694119967317 0  0.3144726782861624 -0.406319735913186 0  3.686635179527132 -0.4155119011072678 0  3.583227123430988 -0.6879918386850498 0  3.884530589958141 -0.5337716741137969 0  0.1138901561454064 -0.4712706309748976 0  2.551320204776417 -0.8759992125181354 0  2.968455986624249 -0.4231600805006418 0  1.843995631966074 -0.2713141166917306 0  1.23826657576458 -0.1310261345083986 0  1.632298315745049 -0.7047459448475459 0  3.454977942639006 -0.1019833897113779 0  2.11213131937471 -0.6131325843633801 0  1.631670858552932 -0.3027829344070553 0  0.549999999999996 -0.8847857258099061 0  2.175907031111534 -0.8808902127996396 0  2.440789547527098 -0.7252338716820566 0  0.9499999999999957 -0.8853403742417534 0  0.1192006629558211 -0.7258150973260704 0  0.1086302422397907 -0.2553484983400458 0  3.891615894289125 -0.7428762999771643 0  3.880790852604017 -0.2741969419997524 0  2.58999033724616 -0.3943081590477266 0  0.95310975133633 -0.1100375897447476 0  0.9389274183125247 -0.357418794071099 0  0.5436861363815539 -0.1129935035840732 0  1.237622314162623 -0.8886349339205675 0  2.766143121931948 -0.4669467935657355 0  3.157965388639583 -0.4824178848815803 0  3.732166646772587 -0.1061123528525496 0  0.8463407040907105 -0.2803849511418723 0  0.2658218649297859 -0.8967607408767373 0  3.384357462435764 -0.5450459842617623 0  1.954320722194999 -0.1009956898074866 0  0.8013980381943526 -0.5278489923710374 0  3.744358883260304 -0.603637271636247 0  0.2581863795088786 -0.6001369967359219 0  0.2629966501688439 -0.1025990268626685 0  0.3980883060404261 -0.7330050441066103 0  1.076076863672032 -0.7275728344185368 0  1.749999999999999 -0.5550190100941714 0  2.351512610076122 -0.5440435521440684 0  0.8619623856291254 -0.7246873586411677 0  3.553081028189586 -0.8932001918706867 0  2.806636304103025 -0.6100531542467602 0  2.546714489935151 -0.08818853426728746 0  1.172246975380209 -0.5783812280673658 0  1.560837452008869 -0.9052833905541354 0  3.005913589025749 -0.2858329927011495 0  3.104244827324224 -0.8867193195303111 0  0.6392996137609843 -0.7340215588892431 0  3.370409685921998 -0.2678372406131186 0  1.860045411420065 -0.6863616357695403 0  2.239306624928278 -0.3159929711989559 0  0.620090528303912 -0.2611000972275821 0  1.457468991263225 -0.08750102207080079 0  1.752790718352056 -0.1005001786212033 0  0.394717592657301 -0.2605042194828123 0  3.745581301416776 -0.9074819423317642 0  3.141158115761163 -0.2920724092797614 0  3.257376892791448 -0.6242591031763242 0  2.350280737493299 -0.9013197570937703 0  3.914203942485891 -0.125 0  3.914203942485891 -0.8750000000000003 0  0.08579605751410901 -0.1249999999999997 0  0.08579605751410968 -0.875 0  3.921126745430668 -0.4525
[...]
<PointData  Vectors="displacement"> 
<DataArray  type="Float64"  Name="displacement"  NumberOfComponents="3" format="ascii">-2.9507576792895868e-02 2.7893190300193920e-02 0.0000000000000000e+00  2.0510153921882254e-02 7.0359416910175969e-03 0.0000000000000000e+00  9.6986546200413068e-02 -3.5216823065566408e-02 0.0000000000000000e+00  -7.6122504504450697e-02 -2.4606089060386614e-02 0.0000000000000000e+00  1.2453003986766100e-02 -2.9059695661247234e-02 0.0000000000000000e+00  -1.9990363496507867e-03 -4.3337875509461735e-02 0.0000000000000000e+00  6.1820202179424340e-05 -5.3305676967830153e-02 0.0000000000000000e+00  8.7212848328258952e-04 -5.3423887339059770e-02 0.0000000000000000e+00  -7.0115499764754113e-04 -5.5244485559725283e-02 0.0000000000000000e+00  5.3354510208553075e-04 -5.4993751854969714e-02 0.0000000000000000e+00  -3.0397125853040563e-04 -5.4774467292131250e-02 0.0000000000000000e+00  1.0798683764615988e-04 -5.4009002478266073e-02 0.0000000000000000e+00  -7.3736942513786107e-05 -5.3292733401108509e-02 0.0000000000000000e+00  2.8485518179124066e-05 -5.2445496893232794e-02 0.0000000000000000e+00  -2.7104866485209301e-05 -5.1689499713798270e-02 0.0000000000000000e+00  7.0431287586693951e-05 -5.1048764855563478e-02 0.0000000000000000e+00  -7.4930051884297805e-05 -5.0343199617024548e-02 0.0000000000000000e+00  1.6538371713274032e-05 -4.9663761206401848e-02 0.0000000000000000e+00  4.8281728624334444e-06 -4.9117426269976706e-02 0.0000000000000000e+00  -1.3455442829379579e-05 -4.8695575568161911e-02 0.0000000000000000e+00  4.0610960190496768e-06 -4.8343047086944972e-02 0.0000000000000000e+00  2.0624921126522199e-06 -4.8097242992900607e-02 0.0000000000000000e+00  -3.9089082241961052e-06 -4.7942237090191520e-02 0.0000000000000000e+00  -9.2094721988483609e-06 -4.7862792322935409e-02 0.0000000000000000e+00  5.8518997339837403e-06 -4.7887558209596968e-02 0.0000000000000000e+00  6.5277325198736773e-06 -4.8026743329012279e-02 0.0000000000000000e+00  4.1458194540552823e-06 -4.8246009224509237e-02 0.0000000000000000e+00  -9.5851690383783966e-06 -4.8520752143595865e-02 0.0000000000000000e+00  -8.2458700807504221e-06 -4.8904466960460510e-02 0.0000000000000000e+00  4.0034964979656176e-05 -4.9403291678275313e-02 0.0000000000000000e+00  -3.7879910333855356e-05 -4.9917070835334143e-02 0.0000000000000000e+00  1.5954172625644265e-05 -5.0467301274320100e-02 0.0000000000000000e+00  1.6603727415154526e-05 -5.1055918210211493e-02 0.0000000000000000e+00  -1.5592602439426313e-05 -5.1655251436710792e-02 0.0000000000000000e+00  2.0983180148889983e-04 -5.2347928349256563e-02 0.0000000000000000e+00  -2.9906731868678711e-04 -5.2992032663125362e-02 0.0000000000000000e+00  1.7051153501967210e-04 -5.3013458881682164e-02 0.0000000000000000e+00  -3.8968349324946952e-04 -5.2688981303394916e-02 0.0000000000000000e+00  5.5853911552735357e-04 -5.2621095642720044e-02 0.0000000000000000e+00  -2.3855740171099891e-04 -5.1094661469677963e-02 0.0000000000000000e+00  -6.6809380507055593e-04 -4.9721033266886601e-02 0.0000000000000000e+00  3.2301115904375096e-03 -4.4593770676589005e-02 0.0000000000000000e+00  -8.7140150441637667e-03 -3.7013955019125099e-02 0.0000000000000000e+00  3.4943445894143853e-02 -4.3576685465219284e-02 0.0000000000000000e+00  1.3405815709199798e-02 -1.5423407275725588e-02 0.0000000000000000e+00  3.7815374307825216e-02 -1.6805761682512587e-02 0.0000000000000000e+00  4.1768619125491513e-02 -2.0666654841338099e-02 0.0000000000000000e+00  1.7656485863406852e-02 -1.7339711150717498e-02 0.0000000000000000e+00  4.9452341179842464e-02 1.9080784429608165e-02 0.0000000000000000e+00  3.5571297068488571e-02 -2.8316572605136200e-02 0.0000000000000000e+00  5.6837632069230037e-02 2.6001197128485715e-02 0.0000000000000000e+00  5.5331524533310347e-02 1.3801024052130507e-02 0.0000000000000000e+00  -2.0045820677560246e-02 -6.2759591810975554e-02 0.0000000000000000e+00  7.0043072957180680e-02 1.5341104976378311e-01 0.0000000000000000e+00  -4.8491897591445489e-02 -1.2598529779847636e-01 0.0000000000000000e+00  1.4536453362192994e-02 3.1575262383970494e-02 0.0000000000000000e+00  -4.9731999442248868e-03 -1.2701118233051060e-02 0.0000000000000000e+00  -3.0890951508599916e-03 -2.2049630389308337e-03 0.0000000000000000e+00  2.2436256709413003e-03 1.3447744129253764e-03 0.0000000000000000e+00  -1.4807649188849827e-03 1.8731565495256236e-04 0.0000000000000000e+00  6.2347961208973342e-04 2.4005209578571935e-04 0.0000000000000000e+00  -2.4529047500419923e-04 2.7215070537565619e-04 0.0000000000000000e+00  -1.8878946070903966e-03 2.2498174086857622e-03 0.0000000000000000e+00  1.8039924911903826e-03 2.1262809680287591e-03 0.0000000000000000e+00  3.9221143614964115e-04 9.3822547107750317e-04 0.0000000000000000e+00  -2.3149048026797073e-04 -3.2391789647224416e-04 0.0000000000000000e+00  2.5761383210191511e-04 1.3938869119323595e-04 0.0000000000000000e+00  -2.4173625014462075e-04 2.6171143546538378e-04 0.0000000000000000e+00  1.7147588247852868e-04 4.0885509013951490e-04 0.0000000000000000e+00  -3.9146519491058929e-05 -6.3800964115306408e-05 0.0000000000000000e+00  -4.4648149909678838e-06 6.9089764544428609e-05 0.0000000000000000e+00  1.5844587284461079e-05 1.9706802624111620e-05 0.0000000000000000e+00  1.2033778331761892e-05 5.5153469144966763e-05 0.0000000000000000e+00  -4.2871866410311141e-05 1.7736799797154148e-04 0.0000000000000000e+00  9.8829155536129374e-06 9.0818922085714881e-05 0.0000000000000000e+00  -2.0244332821116557e-06 6.1912226116028624e-05 0.0000000000000000e+00  1.1744261318577184e-05 1.0856830585005659e-04 0.0000000000000000e+00  1.5694274663027398e-05 -1.2066809144226194e-04 0.0000000000000000e+00  -1.2196045619026050e-04 3.3848461116232242e-04 0.0000000000000000e+00  1.0886123169519466e-04 3.1015201999653514e-04 0.0000000000000000e+00  -1.5588809827773749e-05 -2.8058883766413134e-05 0.0000000000000000e+00  -6.4411478496984403e-05 1.4379632172235697e-04 0.0000000000000000e+00  5.8188698669952951e-06 1.7022150713686462e-04 0.0000000000000000e+00  3.2728929543245994e-05 -1.6908287650820982e-04 0.0000000000000000e+00  -2.3293595376850361e-04 2.9115903713125221e-04 0.0000000000000000e+00  3.0600859210608441e-04 1.3372692154475432e-04 0.0000000000000000e+00  -3.6081844222521690e-04 9.6588388694303744e-05 0.0000000000000000e+00  3.9260990147917043e-04 2.7834889323714949e-04 0.0000000000000000e+00  -1.8944172955646409e-03 1.7025756685821599e-03 0.0000000000000000e+00  1.3018983254996018e-03 -3.2062033880789009e-04 0.0000000000000000e+00  6.0843266656420043e-03 -1.6627764134676704e-02 0.0000000000000000e+00  -1.5715231096326818e-02 2.6272886352856652e-02 0.0000000000000000e+00  3.9544810514703689e-02 -9.2213329493968044e-02 0.0000000000000000e+00  -7.7362925239643207e-02 1.1687410938383075e-01 0.0000000000000000e+00  3.3560168738241913e-02 -2.1927328993163062e-02 0.0000000000000000e+00  -5.1739939092597775e-02 -4.5589760200272942e-03 0.0000000000000000e+00  -3.6333658255481842e-02 -8.8971212311021175e-03 0.0000000000000000e+00  -1.9769262546631906e-02 -1.8447096730688724e-02 0.0000000000000000e+00  -7.1022107045401378e-02 -5.6500638340844803e-02 0.0000000000000000e+00  -4.1055528303294925e-02 1.6156102365106072e-02 0.0000000000000000e+00  -4.1179941006032984e-02 -4.9816134470595366e-02 0.0000000000000000e+00  -5.5434910201727625e-02 -1.4738888632437089e-02 0.0000000000000000e+00  -2.4670248198772088e-02 9.9691051959512299e-03 0.0000000000000000e+00  -3.3444792763227073e-02 -5.0156646438287267e-02 0.0000000000000000e+00  1.6508131273040353e-02 -2.3753072783037205e-02 0.0000000000000000e+00  -1.8300513098587167e-02 -2.4360833222533549e-02 0.0000000000000000e+00  3.0111752446069190e-03 -2.5598241795913877e-02 0.0000000000000000e+00  -2.4893304423490876e-03 -2.4807979627025124e-02 0.0000000000000000e+00  1.8713760355254812e-04 -2.3459768994045376e-02 0.0000000000000000e+00  -7.3032216876728557e-03 -2.7272015870899616e-02 0.0000000000000000e+00  7.5647327558712668e-03 -2.2514357631441256e-02 0.0000000000000000e+00  -7.9897677469628170e-04 -3.2658811829734118e-02 0.0000000000000000e+00  1.2314833307707825e-03 -1.6621521370797827e-02 0.0000000000000000e+00  1.0510535889086368e-03 -3.3014328381945769e-02 0.0000000000000000e+00  -7.9036114358208530e-04 -1.5202829950007843e-02 0.0000000000000000e+00  1.6844453647214836e-02 -3.0218309447312235e-02 0.0000000000000000e+00  -1.9767538614718368e-02 -2.0062738328134669e-03 0.0000000000000000e+00  8.8321715728341983e-03 -6.4456214776625999e-03 0.0000000000000000e+00  -1.4857881814967866e-02 -2.6109511690254168e-02 0.0000000000000000e+00  8.4959979403736088e-03 -3.6634760784929651e-02 0.0000000000000000e+00  -8.9938943761821762e-03 -1.4701103056783809e-02 0.0000000000000000e+00  4.2452698658402227e-03 -3.5470032749481330e-02 0.0000000000000000e+00  -3.9048614171192735e-03 -1.5496906323776946e-02 0.0000000000000000e+00  -9.7162027093550679e-03 -3.8117212589944452e-02 0.0000000000000000e+00  -3.3483790677168255e-03 -3.6591777090737500e-02 0.0000000000000000e+00  3.5806203645983381e-03 -1.4296961119334133e-02 0.0000000000000000e+00  9.8075744904804040e-03 -1.3963552877864029e-02 0.0000000000000000e+00  -1.5157351649383664e-03 -3.6904040953753367e-02 0.0000000000000000e+00  2.8761720324006003e-04 -1.1960087512491776e-02 0.0000000000000000e+00  -9.4523898580148067e-06 -3.5684623510647280e-02 0.0000000000000000e+00  1.8148764379027267e-03 -3.7245781897690511e-02 0.0000000000000000e+00  -1.5829422462491870e-03 -1.2239184136462293e-02 0.0000000000000000e+00  2.0465523157016689e-03 -1.2063485858505422e-02 0.0000000000000000e+00  1.0965617604938620e-02 -3.9692619835982011e-02 0.0000000000000000e+00  -6.2066345117288363e-03 -8.7341573000438814e-03 0.0000000000000000e+00  1.5316073279156983e-02 -9.1531352454486525e-03 0.0000000000000000e+00  -2.5813446743803498e-02 -1.8171378987808687e-02 0.0000000000000000e+00  -5.3032267810222099e-03 -4.0616642604611224e-02 0.0000000000000000e+00  -5.2601061158693268e-03 -1.1625933077356747e-02 0.0000000000000000e+00  -1.1926345466567324e-02 -4.1406916946136213e-02 0.0000000000000000e+00  4.6141703294251893e-03 -8.7544093018645242e-03 0.0000000000000000e+00  1.1698299283775733e-02 -8.5377137190749391e-03 0.0000000000000000e+00  1.0926556761036481e-02 -2.4883006274428229e-02 0.0000000000000000e+00  5.0555243366420654e-03 -2.4493529576217310e-02 0.0000000000000000e+00  4.3016696262844429e-03 -4.2120066330873715e-02 0.0000000000000000e+00  3.7705067249472200e-04 -3.8896606886162956e-02 0.0000000000000000e+00  -1.3950766091570718e-04 -9.2194705945094317e-03 0.0000000000000000e+00  -1.2614525198599097e-02 -2.5876018435918972e-02 0.0000000000000000e+00  -3.8987993995595839e-03 -2.5548549969660855e-02 0.0000000000000000e+00  -1.4282369649484853e-03 -2.4238515489050996e-02 0.0000000000000000e+00  1.8184364045592991e-03 -2.5210065949939395e-02 0.0000000000000000e+00  -5.7582878638648026e-04 -2.4182250761447765e-02 0.0000000000000000e+00  8.9158639422599125e-04 -2.4403197691641898e-02 0.0000000000000000e+00  1.9400481479084652e-03 -4.1612816084363992e-02 0.0000000000000000e+00  -1.9007746027055324e-03 -8.6584401831406033e-03 0.0000000000000000e+00  2.1166425219886726e-02 -3.0557172289982847e-02 0.0000000000000000e+00  -1.7216170602941040e-02 -1.2916633791179036e-02 0.0000000000000000e+00  2.2522355145857677e-02 -8.6843414001085729e-03 0.0000000000000000e+00  -2.7656824889782175e-02 -3.3726997354377813e-02 0.0000000000000000e+00  6.7437192253092361e-03 -3.2194182804049787e-02 0.0000000000000000e+00  -1.5293377561841840e-03 -4.1775507032902046e-02 0.0000000000000000e+00  -6.4504357052412196e-04 -4.0390972117046946e-02 0.0000000000000000e+00  5.3708588340664989e-04 -8.0666982502605664e-03 0.0000000000000000e+00  8.4638969380304531e-04 -4.0734178265330052e-02 0.0000000000000000e+00  -7.1374765277423390e-04 -7.9619330785316786e-03 0.0000000000000000e+00  -2.7538952838279240e-04 -4.0340048997585719e-02 0.0000000000000000e+00  2.7919384452649482e-02 -1.1651385426022960e-02 0.0000000000000000e+00  -2.5315625314218812e-02 -2.7036098248053479e-02 0.0000000000000000e+00  3.7822391172974888e-02 -2.5127174206598758e-02 0.0000000000000000e+00  -3.4019138110700571e-02 -7.8748683842565833e-03 0.0000000000000000e+00  3.2082653147826067e-03 -3.2943069755070706e-02 0.0000000000000000e+00  -2.7502895422516975e-03 -1.7253872922998473e-02 0.0000000000000000e+00  -2.7609952888394329e-03 -4.3201704308777969e-02 0.0000000000000000e+00  9.3040430019981761e-04 -7.6970642777313154e-03 0.0000000000000000e+00  6.0136032126925981e-03 -4.4532341460243631e-02 0.0000000000000000e+00  -5.2807032360586738e-03 -7.5794503085881270e-03 0.0000000000000000e+00  -2.9993390636510607e-03 -8.2225882437862007e-03 0.0000000000000000e+00  -1.6344582943105028e-04 -1.6611840156957068e-02 0.0000000000000000e+00  4.6720438646519452e-04 -3.1271315970981574e-02 0.0000000000000000e+00  1.1821801760604263e-02 -4.2814341640015366e-02 0.0000000000000000e+00  -1.1935126113633458e-02 -1.0493655642575110e-02 0.0000000000000000e+00  -2.5933630292451974e-03 -3.2646315596500435e-02 0.0000000000000000e+00  -8.1231557734899439e-03 -1.9650566927494117e-02 0.0000000000000000e+00  5.6445846584063089e-03 -7.7313699281401187e-03 0.0000000000000000e+00  -6.7225821438843102e-03 -4.6551598811877606e-02 0.0000000000000000e+00  1.9112480483882272e-03 -7.9352887236105469e-03 0.0000000000000000e+00  2.0460512275890314e-02 -1.9006494626090064e-02 0.0000000000000000e+00  -1.8224060431234004e-02 -1.8498770642560003e-02 0.0000000000000000e+00  -4.7542636310825923e-03 -7.3571146864059352e-03 0.0000000000000000e+00  -1.5281637761732667e-02 -4.4834893803218145e-02 0.0000000000000000e+00  -5.8386412007319401e-03 -1.9337597054912281e-02 0.0000000000000000e+00  1.2433252885960654e-02 -3.2190455357989950e-02 0.0000000000000000e+00  -5.1762399975336954e-03 -4.5882015739054663e-02 0.0000000000000000e+00  -1.2919125893190614e-02 -1.7657869659692391e-02 0.0000000000000000e+00  -1.5723572782990587e-02 -3.2299171616489486e-02 0.0000000000000000e+00  -1.3266449661688324e-02 -3.3479479174276600e-02 0.0000000000000000e+00  1.6672005399558151e-02 -3.1583958303220139e-02 0.0000000000000000e+00  -5.0282407543101228e-03 -3.4523923171241151e-02 0.0000000000000000e+00  2.5347269835458743e-03 -4.3702966965796286e-02 0.0000000000000000e+00  1.8877674506526772e-02 -4.6720402202457094e-03 0.0000000000000000e+00  1.1873694026089270e-02 -1.5492148264660111e-02 0.0000000000000000e+00  -9.2639979568577523e-03 -3.1088346992121148e-02 0.0000000000000000e+00  3.3058002810128599e-03 -1.7514118457732642e-02 0.0000000000000000e+00  2.5437420180903273e-03 -7.5048456649829988e-03 0.0000000000000000e+00  7.8560705297386624e-03 -1.5573058843907550e-02 0.0000000000000000e+00  5.7206270400167267e-03 -6.0063200628857295e-03 0.0000000000000000e+00  2.3322655420369397e-03 -1.9251787563057770e-02 0.0000000000000000e+00  -1.6436483320346187e-03 -3.0256032500986112e-02 0.0000000000000000e+00  -1.9002758390903137e-04 -2.9191037294029103e-02 0.0000000000000000e+00  6.4756926729668562e-04 -1.7411888200165208e-02 0.0000000000000000e+00  5.2815557463539468e-03 -1.6235710708637094e-02 0.0000000000000000e+00  1.7877740544082154e-03 -3.1994870686068155e-02 0.0000000000000000e+00  -1.8281941695021846e-03 -1.9164289210562065e-02 0.0000000000000000e+00  5.0414066211463113e-05 -6.1339797489435941e-03 0.0000000000000000e+00  8.3632782565137896e-05 -4.1625322605715255e-02 0.0000000000000000e+00  -5.5386180250617976e-03 -2.6884134879473942e-02 0.0000000000000000e+00  3.7292610551989320e-03 -4.5787446828817614e-02 0.0000000000000000e+00  -3.3179805036661014e-04 -6.3595592212883053e-03 0.0000000000000000e+00  4.4921825197527195e-04 -4.2017153093180673e-02 0.0000000000000000e+00  1.1333333980992389e-03 -4.3296436076967065e-02 0.0000000000000000e+00  -1.6103723007854197e-02 -1.7242212807803841e-02 0.0000000000000000e+00  -1.0333321297947393e-03 -6.1094948067983382e-03 0.0000000000000000e+00  -7.0692200374494177e-04 -4.2666816789002047e-02 0.0000000000000000e+00  -3.1940377219194627e-02 -2.9441966394431723e-02 0.0000000000000000e+00  2.0479859866361489e-02 -2.0583358178178808e-02 0.0000000000000000e+00  1.0017123097238456e-02 -1.3428647441095223e-02 0.0000000000000000e+00  3.2643476002727094e-02 -1.3144831373007678e-02 0.0000000000000000e+00  -3.4205070493793427e-02 -3.3072080069146796e-02 0.0000000000000000e+00  1.0291833882393579e-03 -6.0132082904904771e-03 0.0000000000000000e+00  5.7841253426393156e-03 -2.9885657953416994e-02 0.0000000000000000e+00  -4.2036344697888309e-04 -3.5300385330552554e-02 0.0000000000000000e+00  -1.6195585758176179e-03 -4.4413798720359346e-02 0.0000000000000000e+00  -1.2661773220615507e-03 -1.4215331046097667e-02 0.0000000000000000e+00  5.4883590918010823e-03 -4.7535896660058613e-02 0.0000000000000000e+00  3.8827273948138704e-04 -1.8541953345879575e-02 0.0000000000000000e+00  -1.1748028915403910e-03 -3.4199629990650036e-02 0.0000000000000000e+00  -5.6024568653463037e-03 -5.4857959414439670e-03 0.0000000000000000e+00  2.4763711319580341e-04 -5.6132270118599793e-03 0.0000000000000000e+00  1.4681128626984456e-03 -1.3235978065691181e-02 0.0000000000000000e+00  -3.0584219864283751e-03 -5.1788151253399344e-03 0.0000000000000000e+00  -1.2735822200614883e-02 5.4601082525432779e-03 0.0000000000000000e+00  -1.4962325444763051e-02 -3.4680641373171117e-02 0.0000000000000000e+00  -7.6790562248736354e-03 2.0246038473503904e-02 0.0000000000000000e+00  2.0615389019939766e-02 -2.8282227331388247e-02 0.0000000000000000e+00  2.4339706462823941e-03 -3.0167886050348577e-02 0.0000000000000000e+00  -2.6448913832922919e-03 -4.7537817697004180e-02 0.0000000000000000e+00  -6.8043663026273781e-03 -3.4304927228740865e-02 0.0000000000000000e+00  -7.3343087128085573e-03 -4.9251180669906844e-02 0.0000000000000000e+00  -1.5945236045870044e-03 -5.2843327888010272e-03 0.0000000000000000e+00  3.9097993398423073e-03 -2.7006872624772613e-02 0.0000000000000000e+00  8.6473461194905097e-03 -2.6807744413908832e-02 0.0000000000000000e+00  8.7676259169745686e-03 -4.3258801770094321e-02 0.0000000000000000e+00  -7.4058268358331084e-03 -3.8670371076703153e-02 0.0000000000000000e+00  5.3070063292968020e-03 1.4825155757006840e-02 0.0000000000000000e+00  1.2373391179541886e-02 -2.2103183804724081e-02 0.0000000000000000e+00  -5.3972850152599026e-05 -4.3257748969574794e-02 0.0000000000000000e+00  -1.0162695946198542e-02 -2.4236801653463300e-02 0.0000000000000000e+00  9.3195837070796043e-03 -1.3534626765678417e-02 0.0000000000000000e+00  -1.6605366259445763e-02 -2.0544204495726800e-02 0.0000000000000000e+00  -9.3870766203600475e-03 -4.5105224170812197e-02 0.0000000000000000e+00  -4.2786626225981136e-03 -5.8287892710973729e-03 0.0000000000000000e+00  -4.6289106912600873e-03 -1.3384362292556134e-02 0.0000000000000000e+00  -9.2632936732149564e-04 -2.1520293259984152e-02 0.0000000000000000e+00  1.3270782251558763e-03 -2.2160758496671991e-02 0.0000000000000000e+00  -7.1001687340122516e-03 -1.3352375883607132e-02 0.0000000000000000e+00  7.5746203155004413e-04 -1.0787664049569776e-03 0.0000000000000000e+00  4.0815002018060754e-03 -1.9592538784386476e-02 0.0000000000000000e+00  6.4249514478017687e-04 -4.5018688640432833e-02 0.0000000000000000e+00  -4.7200702339738011e-03 -2.1341190463876461e-02 0.0000000000000000e+00  -6.2406600008243227e-04 -4.4702835489186868e-03 0.0000000000000000e+00  4.8761239376448676e-03 -3.7506174207849859e-02 0.0000000000000000e+00  2.3805776579122031e-03 -5.9590667869588677e-03 0.0000000000000000e+00  -1.1058024619241462e-02 -1.1930619073508146e-02 0.0000000000000000e+00  9.3151548116521595e-03 -3.8831288043155811e-02 0.0000000000000000e+00  -4.4346478914714311e-04 -1.4973676274188700e-02 0.0000000000000000e+00  7.0067538212099196e-04 -3.3201152619188934e-02 0.0000000000000000e+00  -1.1350792643728375e-02 -4.0311331012843135e-02 0.0000000000000000e+00  -6.4233109743653898e-04 -4.5283805897776051e-02 0.0000000000000000e+00  -2.8342363044337810e-04 -4.35799973741