<?xml version="1.0"?>
<VTKFile type="UnstructuredGrid"  version="0.1"  >
<UnstructuredGrid>
<Piece  NumberOfPoints="572" NumberOfCells="1038">
<Points>
<DataArray  type="Float64"  NumberOfComponents="3"  format="ascii">0 0 0  4 0 0  4 -1 0  0 -1 0  0.09999999999999999 0 0  0.2 0 0  0.3 0 0  0.4 0 0  0.4999999999999998 0 0  0.5999999999999996 0 0  0.6999999999999995 0 0  0.7999999999999994 0 0  0.8999999999999992 0 0  0.999999999999999 0 0  1.099999999999999 0 0  1.199999999999999 0 0  1.299999999999999 0 0  1.399999999999999 0 0  1.499999999999998 0 0  1.599999999999998 0 0  1.699999999999999 0 0  1.799999999999999 0 0  1.899999999999999 0 0  2 0 0  2.1 0 0  2.200000000000001 0 0  2.300000000000001 0 0  2.400000000000002 0 0  2.500000000000002 0 0  2.600000000000002 0 0  2.700000000000003 0 0  2.800000000000003 0 0  2.900000000000004 0 0  3.000000000000004 0 0  3.100000000000005 0 0  3.200000000000005 0 0  3.300000000000005 0 0  3.400000000000004 0 0  3.500000000000004 0 0  3.600000000000003 0 0  3.700000000000002 0 0  3.800000000000002 0 0  3.900000000000001 0 0  4 -0.08333333333333325 0  4 -0.1666666666666665 0  4 -0.2499999999999997 0  4 -0.333333333333333 0  4 -0.4166666666666666 0  4 -0.5000000000000001 0  4 -0.5833333333333337 0  4 -0.6666666666666673 0  4 -0.7500000000000006 0  4 -0.8333333333333337 0  4 -0.9166666666666669 0  3.9 -1 0  3.8 -1 0  3.7 -1 0  3.6 -1 0  3.5 -1 0  3.4 -1 0  3.300000000000001 -1 0  3.200000000000001 -1 0  3.100000000000001 -1 0  3.000000000000001 -1 0  2.900000000000001 -1 0  2.800000000000001 -1 0  2.700000000000001 -1 0  2.600000000000001 -1 0  2.500000000000002 -1 0  2.400000000000002 -1 0  2.300000000000002 -1 0  2.200000000000001 -1 0  2.100000000000001 -1 0  2 -1 0  1.9 -1 0  1.799999999999999 -1 0  1.699999999999999 -1 0  1.599999999999998 -1 0  1.499999999999998 -1 0  1.399999999999998 -1 0  1.299999999999997 -1 0  1.199999999999997 -1 0  1.099999999999996 -1 0  0.9999999999999956 -1 0  0.899999999999995 -1 0  0.7999999999999949 -1 0  0.6999999999999953 -1 0  0.5999999999999956 -1 0  0.499999999999996 -1 0  0.3999999999999968 -1 0  0.2999999999999976 -1 0  0.1999999999999984 -1 0  0.0999999999999992 -1 0  0 -0.9166666666666667 0  0 -0.8333333333333335 0  0 -0.7500000000000002 0  0 -0.666666666666667 0  0 -0.5833333333333335 0  0 -0.4999999999999999 0  0 -0.4166666666666663 0  0 -0.3333333333333327 0  0 -0.2499999999999994 0  0 -0.1666666666666663 0  0 -0.08333333333333315 0  3.491090701185765 -0.499339806301727 0  0.4950203227078167 -0.4989128584675094 0  2.64262313781888 -0.4879297506908338 0  1.449999999999998 -0.5 0  2.058402291097397 -0.5120941233772698 0  0.9749999999999992 -0.4749999999999993 0  3.081769880806683 -0.5597407802610527 0  1.745473944409859 -0.3290615136625714 0  2.347280045777389 -0.6545118286598804 0  2.335768673639667 -0.3237239238763549 0  1.750327526220345 -0.682828817540943 0  3.707492972392909 -0.3028030525063309 0  0.293580296675358 -0.7109385489008262 0  3.71498825372084 -0.7080088716251347 0  0.2918697062415769 -0.2988161261649331 0  3.250413907284768 -0.3098344370860925 0  0.7481958762886598 -0.6907216494845363 0  2.897531957111618 -0.3144800466372323 0  1.202975631932859 -0.6871206495416401 0  0.7276881720430104 -0.301075268817204 0  1.222241507685503 -0.2908020883113388 0  2.821785532795642 -0.7097679058139483 0  3.313580174540806 -0.7110306688463971 0  1.50219738324048 -0.2570217529780842 0  2.109436430026117 -0.7485141141565509 0  2.001923272149049 -0.2612004201407864 0  2.591779594323503 -0.2533220405676498 0  1.508220405676497 -0.7466779594323502 0  2.584305190871683 -0.7502831919469019 0  3.478286033189422 -0.23795222571263 0  0.5261060937617643 -0.7658117832712512 0  3.785135972681774 -0.5040707172464052 0  0.2090645029521114 -0.4969048262114374 0  0.9574438986108131 -0.2423163095862805 0  0.9754244626643473 -0.7628641460288867 0  0.5097271592765806 -0.2292760602594508 0  3.047448237147327 -0.7984168297371277 0  3.522893514415914 -0.785726174019542 0  3.27411286219494 -0.5150314861460955 0  2.876192398366876 -0.5166549013936721 0  3.072152863254761 -0.2028141497170135 0  2.188888454287124 -0.1960738743988359 0  1.911111545712876 -0.8039261256011641 0  0.6968885413728847 -0.4974520678389611 0  1.252104989604988 -0.4970114345114344 0  1.649610740490046 -0.5028202775347195 0  2.446694231298332 -0.485633542353709 0  1.845992484168205 -0.4989419599210881 0  2.246214131289309 -0.4959316037735846 0  2.743080194417513 -0.1797603284198384 0  1.345217800961618 -0.8177514544794908 0  3.831771135951664 -0.1764827624326512 0  0.168177957407361 -0.823589473522286 0  3.837430960455357 -0.8286944021295046 0  0.167391597779325 -0.1752538625856722 0  3.066111254276541 -0.3870061788029396 0  1.358909159394344 -0.1720779287034414 0  1.669284305949535 -0.172759019086266 0  2.264869859182613 -0.8283162784008133 0  2.434165412425708 -0.1697954173687042 0  1.668706113475668 -0.8314479749300888 0  1.842683258862577 -0.1656794186994128 0  3.848464877921415 -0.3616620315967092 0  0.151535122078585 -0.6383379684032905 0  3.848707346075076 -0.6466646759135177 0  0.1509968549082652 -0.3452619778382686 0  2.732975255829699 -0.3508363638623346 0  1.370252652534258 -0.6495109932111033 0  1.11832587037856 -0.1733419061976365 0  2.439737645513045 -0.836456385212641 0  3.331229791744127 -0.165499768727795 0  0.6726591332606813 -0.8336090461037186 0  1.132616756253317 -0.8280723285747189 0  1.950606351728588 -0.6518091391595896 0  2.153824719141371 -0.3536025000168445 0  3.62532407618639 -0.1564302309141494 0  0.3803710983093131 -0.8404803223371928 0  1.377912260103223 -0.3517997484404782 0  0.8924624300191402 -0.6125774599817652 0  3.207249628251628 -0.8375220474312923 0  0.6546785576266954 -0.155978749966339 0  2.719684587363634 -0.8327734580127736 0  3.647699282718985 -0.5637569936419204 0  0.3570156455557587 -0.5653989322146081 0  0.8322251523939386 -0.8403847541693579 0  0.3645988133126639 -0.1519337183240305 0  1.061404500324257 -0.6180105656135877 0  3.396758647231262 -0.3766313243368538 0  0.8148021518360848 -0.1629813466347811 0  0.6093556516052328 -0.6299486913462624 0  0.415997866655875 -0.3680522660477806 0  0.5920160015096863 -0.3645412637424194 0  3.572255424430109 -0.362089200459548 0  1.08043890485706 -0.3398660584513152 0  2.923658429424994 -0.1561137197110593 0  3.653613361778262 -0.8546909554159527 0  3.456739790681186 -0.6487708965425909 0  0.8424839600900655 -0.4190496412612194 0  2.6968241495241 -0.6460539373019687 0  2.90777185621417 -0.8467190841342236 0  3.167421855912535 -0.6853653881872064 0  3.378998015397395 -0.8550267917096944 0  2.549623533286458 -0.6074164390661531 0  1.563854363100012 -0.3870450365840445 0  1.945115925347995 -0.3956210114182645 0  2.206384380497951 -0.6363666106481864 0  2.9679770331043 -0.6663940397605803 0  2.492817266347368 -0.3527603982764793 0  1.545918816851176 -0.6075709531787901 0  2.028456012399734 -0.8701972194942087 0  2.065700499244939 -0.1359115819594244 0  1.113999927383315 -0.4803729266898425 0  3.194766700972084 -0.1349664610116483 0  1.791586588241401 -0.8656156413257059 0  2.307333345265183 -0.1346440826116952 0  2.64093544674549 -0.1331489671463476 0  0.4565707965077976 -0.6534785968762363 0  1.459077473581533 -0.8718776489042938 0  1.56279060907849 -0.1324694119967317 0  0.3144726782861624 -0.406319735913186 0  3.686635179527132 -0.4155119011072678 0  3.583227123430988 -0.6879918386850498 0  3.884530589958141 -0.5337716741137969 0  0.1138901561454064 -0.4712706309748976 0  2.551320204776417 -0.8759992125181354 0  2.968455986624249 -0.4231600805006418 0  1.843995631966074 -0.2713141166917306 0  1.23826657576458 -0.1310261345083986 0  1.632298315745049 -0.7047459448475459 0  3.454977942639006 -0.1019833897113779 0  2.11213131937471 -0.6131325843633801 0  1.631670858552932 -0.3027829344070553 0  0.549999999999996 -0.8847857258099061 0  2.175907031111534 -0.8808902127996396 0  2.440789547527098 -0.7252338716820566 0  0.9499999999999957 -0.8853403742417534 0  0.1192006629558211 -0.7258150973260704 0  0.1086302422397907 -0.2553484983400458 0  3.891615894289125 -0.7428762999771643 0  3.880790852604017 -0.2741969419997524 0  2.58999033724616 -0.3943081590477266 0  0.95310975133633 -0.1100375897447476 0  0.9389274183125247 -0.357418794071099 0  0.5436861363815539 -0.1129935035840732 0  1.237622314162623 -0.8886349339205675 0  2.766143121931948 -0.4669467935657355 0  3.157965388639583 -0.4824178848815803 0  3.732166646772587 -0.1061123528525496 0  0.8463407040907105 -0.2803849511418723 0  0.2658218649297859 -0.8967607408767373 0  3.384357462435764 -0.5450459842617623 0  1.954320722194999 -0.1009956898074866 0  0.8013980381943526 -0.5278489923710374 0  3.744358883260304 -0.603637271636247 0  0.2581863795088786 -0.6001369967359219 0  0.2629966501688439 -0.1025990268626685 0  0.3980883060404261 -0.7330050441066103 0  1.076076863672032 -0.7275728344185368 0  1.749999999999999 -0.5550190100941714 0  2.351512610076122 -0.5440435521440684 0  0.8619623856291254 -0.7246873586411677 0  3.553081028189586 -0.8932001918706867 0  2.806636304103025 -0.6100531542467602 0  2.546714489935151 -0.08818853426728746 0  1.172246975380209 -0.5783812280673658 0  1.560837452008869 -0.9052833905541354 0  3.005913589025749 -0.2858329927011495 0  3.104244827324224 -0.8867193195303111 0  0.6392996137609843 -0.7340215588892431 0  3.370409685921998 -0.2678372406131186 0  1.860045411420065 -0.6863616357695403 0  2.239306624928278 -0.3159929711989559 0  0.620090528303912 -0.2611000972275821 0  1.457468991263225 -0.08750102207080079 0  1.752790718352056 -0.1005001786212033 0  0.394717592657301 -0.2605042194828123 0  3.745581301416776 -0.9074819423317642 0  3.141158115761163 -0.2920724092797614 0  3.257376892791448 -0.6242591031763242 0  2.350280737493299 -0.9013197570937703 0  3.914203942485891 -0.125 0  3.914203942485891 -0.8750000000000003 0  0.08579605751410901 -0.1249999999999997 0  0.08579605751410968 -0.875 0  3.921126745430668 -0.4525
[...]
<PointData  Vectors="displacement"> 
<DataArray  type="Float64"  Name="displacement"  NumberOfComponents="3" format="ascii">-4.3607736833287140e-03 -3.6370459596728251e-02 0.0000000000000000e+00  3.7920623544952545e-03 -3.7772712517052234e-02 0.0000000000000000e+00  1.0637331934562481e-02 -4.6298630910927520e-03 0.0000000000000000e+00  -9.3845293534086504e-03 -3.8911964561532749e-03 0.0000000000000000e+00  1.4957149441551167e-03 -5.2475108596891668e-02 0.0000000000000000e+00  -6.5350008534745382e-04 -5.7937944901962392e-02 0.0000000000000000e+00  1.7387993012827417e-04 -5.9778378720170972e-02 0.0000000000000000e+00  -5.7021149580615467e-05 -5.9963994043342780e-02 0.0000000000000000e+00  -6.2407244974045539e-05 -5.9487625839904079e-02 0.0000000000000000e+00  7.5328881416161325e-05 -5.8441960980375733e-02 0.0000000000000000e+00  -6.7622714162344832e-05 -5.7204027978421952e-02 0.0000000000000000e+00  2.7979054950408228e-05 -5.5905346294152898e-02 0.0000000000000000e+00  -2.8514120806099213e-05 -5.4618616548790647e-02 0.0000000000000000e+00  9.1938522532710070e-06 -5.3399156638750195e-02 0.0000000000000000e+00  -7.4368916136461539e-06 -5.2266925296484724e-02 0.0000000000000000e+00  7.5174788615099349e-06 -5.1265873925334701e-02 0.0000000000000000e+00  -8.0075325669099054e-06 -5.0389029040862940e-02 0.0000000000000000e+00  -1.6466572669060132e-06 -4.9636502192169966e-02 0.0000000000000000e+00  1.5776817251344388e-06 -4.9011332974721898e-02 0.0000000000000000e+00  -2.3119576753374028e-06 -4.8506734594237447e-02 0.0000000000000000e+00  -1.2878033280078687e-06 -4.8125379728588262e-02 0.0000000000000000e+00  2.8810151756364946e-06 -4.7855367698217521e-02 0.0000000000000000e+00  -5.0549558976481059e-06 -4.7693499939640817e-02 0.0000000000000000e+00  2.6859278480842834e-06 -4.7638504406180643e-02 0.0000000000000000e+00  -3.7581039889589232e-06 -4.7688714539995111e-02 0.0000000000000000e+00  4.1587813538650886e-06 -4.7849112233935620e-02 0.0000000000000000e+00  -7.1715012330450272e-08 -4.8125960224586636e-02 0.0000000000000000e+00  -3.1967079808162564e-06 -4.8493838357316646e-02 0.0000000000000000e+00  -6.7815794673157804e-06 -4.8998562422056531e-02 0.0000000000000000e+00  9.9941811817716489e-06 -4.9620478557646980e-02 0.0000000000000000e+00  -2.2718966086412245e-06 -5.0361315496281707e-02 0.0000000000000000e+00  2.8998662781720178e-06 -5.1240210339760818e-02 0.0000000000000000e+00  1.9865111144598032e-05 -5.2229094797597755e-02 0.0000000000000000e+00  3.7950584076131048e-06 -5.3339825583582259e-02 0.0000000000000000e+00  4.2402100110963320e-05 -5.4557992100528488e-02 0.0000000000000000e+00  -6.0250671683477021e-05 -5.5828334747739565e-02 0.0000000000000000e+00  1.9663499587994415e-05 -5.7096574984901845e-02 0.0000000000000000e+00  -3.6961225417532426e-05 -5.8276424022077132e-02 0.0000000000000000e+00  3.9972315238242888e-05 -5.9299254462520490e-02 0.0000000000000000e+00  9.3814067022596139e-05 -5.9799164518232598e-02 0.0000000000000000e+00  -1.7716534424483402e-04 -5.9537555177627384e-02 0.0000000000000000e+00  8.1055842072899121e-04 -5.8077480795124134e-02 0.0000000000000000e+00  -1.2380666644057077e-03 -5.3105846425130845e-02 0.0000000000000000e+00  1.8718681620650834e-02 -4.0580113781578053e-02 0.0000000000000000e+00  2.2902244003035480e-02 -3.5330215457244359e-02 0.0000000000000000e+00  3.0989793624619028e-02 -3.2761857132860298e-02 0.0000000000000000e+00  3.4099001105109210e-02 -3.2476446824668707e-02 0.0000000000000000e+00  3.2960696424223349e-02 -2.9105501690710685e-02 0.0000000000000000e+00  3.6770854524071174e-02 -2.3212108611071695e-02 0.0000000000000000e+00  3.4489203365022134e-02 -2.5751417591606436e-02 0.0000000000000000e+00  3.4107298688997034e-02 -1.7929258282504447e-02 0.0000000000000000e+00  3.0002273778068574e-02 -1.6037120412336608e-02 0.0000000000000000e+00  1.8939775372469003e-02 -1.7976095441976432e-02 0.0000000000000000e+00  2.1552538465230323e-02 5.3886593916954622e-03 0.0000000000000000e+00  -5.4120571394899973e-03 -1.0201082821146510e-02 0.0000000000000000e+00  2.0223109698318336e-03 3.2420975046781307e-03 0.0000000000000000e+00  -8.9388543446287244e-04 -1.2491379651166912e-03 0.0000000000000000e+00  6.6580032778198724e-05 1.4593447525764093e-04 0.0000000000000000e+00  1.2659696617546334e-04 8.0878401879163527e-05 0.0000000000000000e+00  -6.9289155641334707e-05 1.2121355543385508e-04 0.0000000000000000e+00  8.7983770123959126e-05 8.7841388752984192e-05 0.0000000000000000e+00  -5.2532565522937972e-05 7.0912627431154681e-05 0.0000000000000000e+00  -9.1304857650105115e-05 1.7129039446615621e-04 0.0000000000000000e+00  1.2623406047735495e-04 1.5730131204894703e-04 0.0000000000000000e+00  5.3276084752420457e-05 8.3298179660161803e-05 0.0000000000000000e+00  -1.0119586605821768e-05 9.1480316826219389e-06 0.0000000000000000e+00  3.0253832881134666e-05 2.5984879186517802e-05 0.0000000000000000e+00  -2.1612478577931681e-05 3.3267383014164918e-05 0.0000000000000000e+00  1.5723208015366811e-05 4.1921919576820392e-05 0.0000000000000000e+00  -1.3135674962786665e-06 6.1706395838464900e-06 0.0000000000000000e+00  -6.0811425609374540e-06 1.3921817679259206e-05 0.0000000000000000e+00  9.4441578372021059e-06 1.0096424433705094e-05 0.0000000000000000e+00  2.0037987373683468e-06 1.2465166102617333e-05 0.0000000000000000e+00  -1.1372176121803199e-05 1.6673938309157810e-05 0.0000000000000000e+00  -5.8187383550779772e-06 1.4339888543092715e-05 0.0000000000000000e+00  2.3675225999417208e-06 1.5739206964310513e-05 0.0000000000000000e+00  2.3014955597416951e-06 1.5711470325060757e-05 0.0000000000000000e+00  8.0600540000645559e-06 1.9595353035907567e-06 0.0000000000000000e+00  -1.9177272903037689e-05 3.7887038153042030e-05 0.0000000000000000e+00  6.5467033473555682e-06 3.7131962504515455e-05 0.0000000000000000e+00  4.4815011886545725e-06 2.1917890030746579e-05 0.0000000000000000e+00  -2.2524537483750029e-05 4.1824322162965004e-05 0.0000000000000000e+00  -1.2207403834029359e-08 4.3717997407297604e-05 0.0000000000000000e+00  -5.5479666722623832e-06 3.2626204195150591e-05 0.0000000000000000e+00  -7.7097933026698962e-05 8.0514507387980015e-05 0.0000000000000000e+00  2.1586047414610120e-05 7.1490409763292465e-05 0.0000000000000000e+00  -8.0472381678695998e-05 7.1415424947342702e-05 0.0000000000000000e+00  -1.9119991954722336e-05 1.2044203137403858e-04 0.0000000000000000e+00  -1.8921129278590726e-04 1.2867333936777443e-04 0.0000000000000000e+00  -1.6542736646856800e-04 2.6783349857739186e-04 0.0000000000000000e+00  9.0716524075621079e-04 -1.4629460121683847e-03 0.0000000000000000e+00  -2.1408731834479259e-03 3.0339573374834621e-03 0.0000000000000000e+00  4.8494626024154037e-03 -8.3569605596182442e-03 0.0000000000000000e+00  -2.2407639769058456e-02 3.2944828223084601e-03 0.0000000000000000e+00  -1.6950603030851143e-02 -1.4963489434173896e-02 0.0000000000000000e+00  -3.0907957377200451e-02 -1.8251924328577425e-02 0.0000000000000000e+00  -3.2804099018463588e-02 -1.9760704015573307e-02 0.0000000000000000e+00  -3.2492025263968584e-02 -2.4217591782972746e-02 0.0000000000000000e+00  -3.8237251330072067e-02 -3.0406082621038055e-02 0.0000000000000000e+00  -3.5436837621670166e-02 -2.6004961844551547e-02 0.0000000000000000e+00  -3.3872238489613696e-02 -3.4148413482157268e-02 0.0000000000000000e+00  -3.1511158190732226e-02 -3.3324457180663299e-02 0.0000000000000000e+00  -2.4332166241298352e-02 -3.3255415461539255e-02 0.0000000000000000e+00  -1.8362457845040051e-02 -4.0960322670780869e-02 0.0000000000000000e+00  1.7338930319269367e-02 -2.8422098261913574e-02 0.0000000000000000e+00  -1.7843525817156383e-02 -2.8472275088317806e-02 0.0000000000000000e+00  2.6976210768782675e-03 -2.5767876004455386e-02 0.0000000000000000e+00  -2.1169464715145390e-03 -2.4824264562150932e-02 0.0000000000000000e+00  1.6708243152418608e-04 -2.3362819877357215e-02 0.0000000000000000e+00  -6.7422487119858845e-03 -2.8342647855395791e-02 0.0000000000000000e+00  7.5261566429854591e-03 -2.3640022392054760e-02 0.0000000000000000e+00  -6.6893663888577097e-04 -3.2486498829199802e-02 0.0000000000000000e+00  1.0097421467333007e-03 -1.6628354229630007e-02 0.0000000000000000e+00  9.1274575354293862e-04 -3.2947957687702339e-02 0.0000000000000000e+00  -6.4604429639834610e-04 -1.5151682752378754e-02 0.0000000000000000e+00  2.1391953167391359e-02 -4.0685898917709615e-02 0.0000000000000000e+00  -1.9637273445297296e-02 -1.3827130702032833e-02 0.0000000000000000e+00  1.9197286293820674e-02 -1.4297816563239096e-02 0.0000000000000000e+00  -2.1055994590432201e-02 -4.0699981761031200e-02 0.0000000000000000e+00  8.9300220546617085e-03 -3.9748603699626309e-02 0.0000000000000000e+00  -9.2053335858976876e-03 -1.6193841458290364e-02 0.0000000000000000e+00  4.1405251092597904e-03 -3.6456912029189152e-02 0.0000000000000000e+00  -3.4253824474866565e-03 -1.5698385615579975e-02 0.0000000000000000e+00  -9.2343502042057501e-03 -4.0524828946125108e-02 0.0000000000000000e+00  -2.9670727175604189e-03 -3.6833699161705709e-02 0.0000000000000000e+00  3.4469992806115926e-03 -1.4546239077371393e-02 0.0000000000000000e+00  9.9867538283019888e-03 -1.5026128634615658e-02 0.0000000000000000e+00  -1.2981552777440670e-03 -3.6829147827597782e-02 0.0000000000000000e+00  2.2799935300256652e-04 -1.1911118239235002e-02 0.0000000000000000e+00  1.7500719566413254e-06 -3.5468542089590833e-02 0.0000000000000000e+00  1.6564920921510696e-03 -3.7488896985430863e-02 0.0000000000000000e+00  -1.3017667134368460e-03 -1.2219603697157641e-02 0.0000000000000000e+00  1.6872526401099698e-03 -1.2126639022754493e-02 0.0000000000000000e+00  1.1881925056730757e-02 -4.5836770416885941e-02 0.0000000000000000e+00  -1.1251379850827742e-02 -1.1474201043649055e-02 0.0000000000000000e+00  2.7195735338788350e-02 -2.6185243100950072e-02 0.0000000000000000e+00  -2.8322839341277814e-02 -2.7414246981209953e-02 0.0000000000000000e+00  -4.7846211042102699e-03 -4.1729875438036169e-02 0.0000000000000000e+00  -4.8107929374997301e-03 -1.1945714663810961e-02 0.0000000000000000e+00  -1.1811844257250176e-02 -4.6562937761405736e-02 0.0000000000000000e+00  4.4613457487075129e-03 -9.9702977917848230e-03 0.0000000000000000e+00  1.1666592286973552e-02 -1.0340180585574831e-02 0.0000000000000000e+00  1.1389589236949353e-02 -2.7070372882292911e-02 0.0000000000000000e+00  4.8031298119109132e-03 -2.5221167192664550e-02 0.0000000000000000e+00  4.3635506779315901e-03 -4.4122601869610256e-02 0.0000000000000000e+00  3.2050717794744545e-04 -3.8727964227793864e-02 0.0000000000000000e+00  -1.4335015732823588e-04 -9.2425022513183443e-03 0.0000000000000000e+00  -1.2144069362382773e-02 -2.8287113320175167e-02 0.0000000000000000e+00  -3.5406256318724709e-03 -2.5732640684700343e-02 0.0000000000000000e+00  -1.1461690655785145e-03 -2.4158527701289990e-02 0.0000000000000000e+00  1.5633939504619764e-03 -2.5240142782106689e-02 0.0000000000000000e+00  -4.5527643143810406e-04 -2.4065232480377532e-02 0.0000000000000000e+00  7.5184417071239560e-04 -2.4316500153804675e-02 0.0000000000000000e+00  1.8267889694004848e-03 -4.2174283590727557e-02 0.0000000000000000e+00  -1.5842059588436286e-03 -8.7875516110026124e-03 0.0000000000000000e+00  1.9634045147491265e-02 -4.5778897680486742e-02 0.0000000000000000e+00  -1.6897464324725758e-02 -9.2565527089089085e-03 0.0000000000000000e+00  1.6860402484986905e-02 -8.8463575187877792e-03 0.0000000000000000e+00  -1.9882551425091547e-02 -4.5965121164206868e-02 0.0000000000000000e+00  6.8347796789542999e-03 -3.3728036708987039e-02 0.0000000000000000e+00  -1.3584879768650353e-03 -4.1816126251608882e-02 0.0000000000000000e+00  -5.4233736254758705e-04 -4.0201604693650826e-02 0.0000000000000000e+00  4.2512173323864036e-04 -8.1063978826638391e-03 0.0000000000000000e+00  7.5409211935293914e-04 -4.0737566701667366e-02 0.0000000000000000e+00  -5.4562361508000957e-04 -7.9779146153585879e-03 0.0000000000000000e+00  -2.2734915373398966e-04 -4.0107295293775498e-02 0.0000000000000000e+00  2.8997885915685823e-02 -3.3333159743269350e-02 0.0000000000000000e+00  -2.7493622471301334e-02 -2.0688494010543651e-02 0.0000000000000000e+00  2.8026832152331583e-02 -1.9730619704932985e-02 0.0000000000000000e+00  -2.8747702554936413e-02 -3.4107811809019596e-02 0.0000000000000000e+00  3.0068967072938773e-03 -3.3386772356166557e-02 0.0000000000000000e+00  -2.3765152434988171e-03 -1.7333468748230385e-02 0.0000000000000000e+00  -2.4686207060495811e-03 -4.3744551538255211e-02 0.0000000000000000e+00  7.6893105126787042e-04 -7.7680818692292515e-03 0.0000000000000000e+00  6.3947245374140716e-03 -4.8992311010261191e-02 0.0000000000000000e+00  -6.6326438696820865e-03 -8.0675073914392940e-03 0.0000000000000000e+00  -2.5867819680779106e-03 -8.3897315060093621e-03 0.0000000000000000e+00  -1.2534281156809893e-04 -1.6569156807909928e-02 0.0000000000000000e+00  4.0179385699007857e-04 -3.1127359036510729e-02 0.0000000000000000e+00  1.1503553948118106e-02 -5.1294180514106502e-02 0.0000000000000000e+00  -1.0895513757442920e-02 -7.4588741461132559e-03 0.0000000000000000e+00  -2.2743620254857236e-03 -3.2712619209172837e-02 0.0000000000000000e+00  -7.7260141206610842e-03 -2.0600193923866181e-02 0.0000000000000000e+00  5.2268505208246082e-03 -7.9521940469648254e-03 0.0000000000000000e+00  -6.3039888988415619e-03 -4.9767950827572328e-02 0.0000000000000000e+00  1.7408631400600936e-03 -8.0769753173728469e-03 0.0000000000000000e+00  2.2211226868982571e-02 -2.3758156035649541e-02 0.0000000000000000e+00  -2.1832418102178328e-02 -2.3610971226299786e-02 0.0000000000000000e+00  -4.7290096560337561e-03 -7.8019314868087771e-03 0.0000000000000000e+00  -1.1697172268544801e-02 -5.1668360616950154e-02 0.0000000000000000e+00  -5.2776769565315088e-03 -1.9816523546862853e-02 0.0000000000000000e+00  1.3457355875374005e-02 -3.6479720120888619e-02 0.0000000000000000e+00  -4.6955424646445551e-03 -4.7588429570484876e-02 0.0000000000000000e+00  -1.3261766251360593e-02 -1.9923591012370487e-02 0.0000000000000000e+00  -1.9021111576915561e-02 -3.7350381369060506e-02 0.0000000000000000e+00  -1.3638439566453166e-02 -3.7354634416176417e-02 0.0000000000000000e+00  1.8530274273289044e-02 -3.7742620400693011e-02 0.0000000000000000e+00  -4.6024512363496738e-03 -3.5279043490070473e-02 0.0000000000000000e+00  2.4678635606479281e-03 -4.4972841656928497e-02 0.0000000000000000e+00  1.0952357026293815e-02 -6.3603272688057509e-03 0.0000000000000000e+00  1.4453149763658503e-02 -1.8634497100135164e-02 0.0000000000000000e+00  -8.6727994569031110e-03 -3.2497287404571924e-02 0.0000000000000000e+00  2.8440087430983518e-03 -1.7654924952742356e-02 0.0000000000000000e+00  2.5532521799602613e-03 -7.4725304283199227e-03 0.0000000000000000e+00  7.8507763304428192e-03 -1.6457092319867417e-02 0.0000000000000000e+00  6.4893342008890010e-03 -6.8495363354370486e-03 0.0000000000000000e+00  2.0094192308589063e-03 -1.9324947713765132e-02 0.0000000000000000e+00  -1.4106497946852557e-03 -3.0149136436366280e-02 0.0000000000000000e+00  -1.4882545262542350e-04 -2.9019960577172786e-02 0.0000000000000000e+00  5.6524583417239828e-04 -1.7390715078295472e-02 0.0000000000000000e+00  5.2626164832806762e-03 -1.7163057474328867e-02 0.0000000000000000e+00  1.5842892339517061e-03 -3.2060060995928792e-02 0.0000000000000000e+00  -1.5202881578496893e-03 -1.9129559996740209e-02 0.0000000000000000e+00  3.4769038504750466e-05 -6.0942579554004520e-03 0.0000000000000000e+00  7.6278835023740316e-05 -4.1393534147194398e-02 0.0000000000000000e+00  -4.9204400426203299e-03 -2.7300797514972233e-02 0.0000000000000000e+00  3.9391392718375988e-03 -4.9076698383711120e-02 0.0000000000000000e+00  -2.5549972647975831e-04 -6.3169628229495104e-03 0.0000000000000000e+00  3.9046731060987075e-04 -4.1921254837114258e-02 0.0000000000000000e+00  1.0609580009546685e-03 -4.3671345408998474e-02 0.0000000000000000e+00  -1.6889519221037309e-02 -1.8350225638446179e-02 0.0000000000000000e+00  -8.3746309105652277e-04 -6.0932367278997623e-03 0.0000000000000000e+00  -6.0863386832756678e-04 -4.2534966474358803e-02 0.0000000000000000e+00  -2.4295339888623129e-02 -3.4273007007004218e-02 0.0000000000000000e+00  2.3698623382159105e-02 -3.3085690629666369e-02 0.0000000000000000e+00  1.6492935913625929e-02 -1.5941615181938588e-02 0.0000000000000000e+00  3.1028538323783182e-02 -2.4884975717152442e-02 0.0000000000000000e+00  -3.1323893820568258e-02 -2.9142115348941521e-02 0.0000000000000000e+00  8.3997689829486859e-04 -5.9054621038694384e-03 0.0000000000000000e+00  5.6949117129123303e-03 -3.0963125291838332e-02 0.0000000000000000e+00  -3.4347948713310083e-04 -3.5094394148510462e-02 0.0000000000000000e+00  -1.4257662762821696e-03 -4.4728760151910053e-02 0.0000000000000000e+00  -9.8754355253766082e-04 -1.4179655624675987e-02 0.0000000000000000e+00  5.3699836265460807e-03 -5.3771496879089074e-02 0.0000000000000000e+00  3.0861417877541426e-04 -1.8469596455110048e-02 0.0000000000000000e+00  -9.8174361046385957e-04 -3.4071028948419416e-02 0.0000000000000000e+00  -6.0955109584804618e-03 -5.2707394040230849e-03 0.0000000000000000e+00  1.9080595616684779e-04 -5.5888697737538863e-03 0.0000000000000000e+00  1.1952279508393509e-03 -1.3229860149222863e-02 0.0000000000000000e+00  -2.7655636433759146e-03 -5.4620778034691524e-03 0.0000000000000000e+00  -2.3410671224697827e-02 -1.3390896567460682e-02 0.0000000000000000e+00  -2.5326500051462527e-02 -3.9650722386100949e-02 0.0000000000000000e+00  2.1337241861364487e-02 -1.1631524616876937e-02 0.0000000000000000e+00  2.6338087280405448e-02 -3.8556397227660494e-02 0.0000000000000000e+00  2.2040192510231283e-03 -3.0375912288469017e-02 0.0000000000000000e+00  -2.3882966975713165e-03 -4.8709997519737501e-02 0.0000000000000000e+00  -6.5430186381958385e-03 -3.5425148415072792e-02 0.0000000000000000e+00  -6.0297268092299903e-03 -5.3352637565210255e-02 0.0000000000000000e+00  -1.3422303963766386e-03 -5.3064030196724255e-03 0.0000000000000000e+00  3.6540877288157385e-03 -2.7410407020320306e-02 0.0000000000000000e+00  8.9225933563553770e-03 -2.8613689404385238e-02 0.0000000000000000e+00  1.0308420445171440e-02 -5.3598569170259118e-02 0.0000000000000000e+00  -6.8379242376653817e-03 -4.0660331681187073e-02 0.0000000000000000e+00  -7.7446381056666498e-03 -2.6679448133247780e-03 0.0000000000000000e+00  1.3941890582146834e-02 -2.5359779813294282e-02 0.0000000000000000e+00  -3.9022547002955132e-05 -4.3011452569703346e-02 0.0000000000000000e+00  -9.8019951740335245e-03 -2.6002427686135501e-02 0.0000000000000000e+00  2.3711212839053693e-02 -2.0863061094510419e-02 0.0000000000000000e+00  -2.4234060986538419e-02 -2.1549701277387832e-02 0.0000000000000000e+00  -1.0197636834341229e-02 -5.3874260362865654e-02 0.0000000000000000e+00  -1.4986079204956171e-02 -1.2828005949402777e-02 0.0000000000000000e+00  -4.2195717721425410e-03 -1.3727058484899723e-02 0.0000000000000000e+00  -7.6004567769085644e-04 -2.1420667922759654e-02 0.0000000000000000e+00  1.1362509647620724e-03 -2.2112493210061798e-02 0.0000000000000000e+00  -6.8288517415004812e-03 -1.4147860702128664e-02 0.0000000000000000e+00  6.3187501932275908e-03 -4.3400303575745610e-03 0.0000000000000000e+00  3.8885248907051901e-03 -1.9853928229538520e-02 0.0000000000000000e+00  5.6804740818610950e-04 -4.5195592170984171e-02 0.0000000000000000e+00  -4.2064241706377715e-03 -2.1641484856410327e-02 0.0000000000000000e+00  -4.7119448075565531e-04 -4.4551993884594217e-03 0.0000000000000000e+00  4.9340956210950889e-03 -3.8945820209326520e-02 0.0000000000000000e+00  3.0102093478827242e-03 -5.4443850140448698e-03 0.0000000000000000e+00  -1.0349440432991470e-02 -1.3587163132207650e-02 0.0000000000000000e+00  1.0312542977969824e-02 -4.3335863015016497e-02 0.0000000000000000e+00  -3.4371236428318937e-04 -1.4923055321636795e-02 0.0000000000000000e+00  6.0484625724832705e-04 -3.3084596641908069e-02 0.0000000000000000e+00  -1.0471476871125603e-02 -4.3892745773181967e-02 0.0000000000000000e+00  -5.4872518894951252e-04 -4.5218665865031510e-02 0.0000000000000000e+00  -2.3529383963166652e-04 -4.33486