<?xml version="1.0"?>
<VTKFile type="UnstructuredGrid"  version="0.1"  >
<UnstructuredGrid>
<Piece  NumberOfPoints="1855" NumberOfCells="3532">
<Points>
<DataArray  type="Float64"  NumberOfComponents="3"  format="ascii">0 0 0  30 0 0  30 -10 0  0 -10 0  0.1391574078963744 0 0  0.2856388821882616 0 0  0.4398299073010886 0 0  0.6021362569539473 0 0  0.7729850389704483 0 0  0.9528258543586996 0 0  1.142131984380316 0 0  1.34140159760994 0 0  1.551159074717981 0 0  1.771956417032531 0 0  2.004374674080994 0 0  2.249025475789527 0 0  2.506552636773105 0 0  2.777633857742732 0 0  3.062982518028728 0 0  3.363349525995907 0 0  3.679525322337712 0 0  4.01234195575742 0 0  4.362675247811097 0 0  4.731447135329707 0 0  5.119628065610077 0 0  5.528239565804708 0 0  5.958356943167011 0 0  6.411112081475485 0 0  6.887696441559404 0 0  7.389364184530748 0 0  7.917435485335147 0 0  8.473300005202017 0 0  9.058420557070402 0 0  9.674336929103793 0 0  10.32266995225095 0 0  11.00512576896296 0 0  11.72350030646412 0 0  12.47968402994705 0 0  13.27566689579597 0 0  14.1135435963616 0 0  14.9955190732806 0 0  15.92391430904694 0 0  16.90117245730496 0 0  17.92986524844506 0 0  19.01269976086341 0 0  20.15252556282024 0 0  21.35234220269763 0 0  22.61530708683689 0 0  23.94474379751883 0 0  25.34415086349739 0 0  26.81721093579712 0 0  28.3678004819169 0 0  30 -1.111111111111111 0  30 -2.222222222222222 0  30 -3.333333333333333 0  30 -4.444444444444445 0  30 -5.555555555555555 0  30 -6.666666666666666 0  30 -7.777777777777777 0  30 -8.888888888888889 0  28.36780047917311 -10 0  26.8172109305839 -10 0  25.34415085606858 -10 0  23.94474378810899 -10 0  22.61530707566275 -10 0  21.3523421899591 -10 0  20.15252554870171 -10 0  19.01269974553473 -10 0  17.92986523206254 -10 0  16.90117244001232 -10 0  15.92391429097614 -10 0  14.99551905455266 -10 0  14.11354357708742 -10 0  13.27566687607703 -10 0  12.47968400987599 -10 0  11.72350028612546 -10 0  11.00512574843363 -10 0  10.32266993160086 -10 0  9.674336908396342 -10 0  9.058420536362949 -10 0  8.473299984546333 -10 0  7.917435464777824 -10 0  7.389364164113587 -10 0  6.887696420787165 -10 0  6.411112061446698 -10 0  5.95835692337857 -10 0  5.528239546282652 -10 0  5.119628046377237 -10 0  4.731447115907979 -10 0  4.362675229213632 -10 0  4.012341937260036 -10 0  3.679525304434552 -10 0  3.363349508456405 -10 0  3.062982500861274 -10 0  2.777633840953978 -10 0  2.506552620368097 -10 0  2.249025459771861 -10 0  2.004374658452946 -10 0  1.771956401795187 -10 0  1.551159059871345 -10 0  1.341401583153029 -10 0  1.142131970307521 -10 0  0.9528258406748833 -10 0  0.7729850256685147 -10 0  0.6021362439621285 -10 0  0.4398298947504031 -10 0  0.2856388700059078 -10 0  0.1391573960769001 -10 0  0 -9.855072463768115 0  0 -9.710144927536232 0  0 -9.565217391304348 0  0 -9.420289855072463 0  0 -9.27536231884058 0  0 -9.130434782608695 0  0 -8.985507246376812 0  0 -8.840579710144928 0  0 -8.695652173913043 0  0 -8.55072463768116 0  0 -8.405797101449275 0  0 -8.260869565217391 0  0 -8.115942028985508 0  0 -7.971014492753623 0  0 -7.826086956521739 0  0 -7.681159420289855 0  0 -7.536231884057971 0  0 -7.391304347826087 0  0 -7.246376811594203 0  0 -7.101449275362318 0  0 -6.956521739130435 0  0 -6.811594202898551 0  0 -6.666666666666667 0  0 -6.521739130434783 0  0 -6.376811594202898 0  0 -6.231884057971015 0  0 -6.086956521739131 0  0 -5.942028985507246 0  0 -5.797101449275362 0  0 -5.652173913043478 0  0 -5.507246376811594 0  0 -5.36231884057971 0  0 -5.217391304347826 0  0 -5.072463768115941 0  0 -4.927536231884058 0  0 -4.782608695652174 0  0 -4.637681159420289 0  0 -4.492753623188406 0  0 -4.347826086956522 0  0 -4.202898550724638 0  0 -4.057971014492754 0  0 -3.913043478260869 0  0 -3.768115942028985 0  0 -3.623188405797101 0  0 -3.478260869565217 0  0 -3.333333333333334 0  0 -3.188405797101449 0  0 -3.043478260869565 0  0 -2.898550724637681 0  0 -2.753623188405797 0  0 -2.608695652173912 0  0 -2.463768115942029 0  0 -2.318840579710145 0  0 -2.173913043478261 0  0 -2.028985507246377 0  0 -1.884057971014492 0  0 -1.739130434782609 0  0 -1.594202898550725 0  0 -1.44927536231884 0  0 -1.304347826086957 0  0 -1.159420289855072 0  0 -1.014492753623188 0  0 -0.8695652173913047 0  0 -0.72463768115942 0  0 -0.579710144927537 0  0 -0.4347826086956523 0  0 -0.2898550724637676 0  0 -0.1449275362318829 0  5.15859856094262 -4.976557621770688 0  2.816777084926057 -7.160262673925935 0  2.81677708460006 -2.839737326002783 0  2.227649803257325 -5.003121586636773 0  1.518662968975629 -8.46230852045241 0  1.518662969184829 -1.537691480152612 0  9.960740911025725 -5.055901393541221 0  1.491099662214591 -3.691833922963321 0  1.503675657181264 -6.345020369042368 0  5.319208041801049 -7.493850249937013 0  5.291109955459268 -2.489368743223226 0  1.096914507335763 -2.53623188405797 0  1.096914507253562 -7.463768115942029 0  1.089580194952752 -4.71277167923441 0  15.07565076110197 -5.047572991082069 0  7.501630508673601 -5.937500100385354 0  0.8894869418764504 -5.623930488933245 0  2.955144522453978 -1.440834296472408 0  2.955144521140721 -8.559165705576945 0  8.106603955004623 -2.748811534843258 0  3.662152539483591 -4.228178367024407 0  3.662181528265114 -5.771746159989156 0  0.8436558190317136 -0.8541050638451999 0  0.8436558075840921 -9.145894948342754 0  0.7854168197005933 -1.811594202898552 0  0.7894693398152999 -3.286543351392342 0  0.7854168196772591 -8.188405797101449 0  0.7854168196772591 -6.739130434782609 0  20.00078956016804 -4.999999999785771 0  0.7379120031523989 -3.977302749614766 0  6.584332478112232 -3.934875417052907 0  7.295091310194352 -7.969791332537982 0  9.811174303464586 -7.412814499648229 0  4.013376806449688 -2.206189431585293 0  4.013376806983409 -7.793810569017377 0  12.11177433894592 -2.818343737884045 0  2.591152707837148 -3.990098461753838 0  2.58990939378082 -6.025895074707176 0  25.43156400064585 -5.044446479916348 0  2.03262751726143 -2.282125834846944 0  2.032627517335952 -7.717874165160392 0  12.51865094522923 -6.491408052923457 0  0.598175343983641 -6.156971652625402 0  2.126700074935224 -0.8767654465386991 0  2.126700059112423 -9.123234559633019 0  6.617961838548696 -1.617756429129908 0  0.5903949564549755 -4.980060355019413 0  1.676697585305984 -5.547101897225158 0  4.773518305133987 -3.729331162566817 0  4.77931803486508 -6.231222307502165 0  4.878549698409591 -8.72048903376362 0  4.852580875634024 -1.222215410052823 0  0.5487847095754042 -2.675169258708207 0  0.545113423825768 -7.32369553390529 0  1.78738026998851 -4.400451872599477 0  1.68244194111824 -3.010100184333533 0  1.683984276238402 -7.018293626028473 0  9.998503440677371 -2.00585287985007 0  3.693061162502273 -3.243678395563028 0  3.694987482168253 -6.757603268814477 0  6.081763036485869 -5.83414381546261 0  0.5196640460586313 -1.350633211792632 0  0.5196640458460706 -8.649366789040087 0  3.84593363904758 -0.9906418103762418 0  3.845933620847308 -9.009358200471317 0  17.41551885287501 -3.057748733689079 0  17.30725517812527 -7.002961443761516 0  8.117698464370697 -4.451550942597151 0  0.4918476668493152 -0.4789811193757592 0  0.4918476560347713 -9.521018882514893 0  1.463770869328428 -0.6252343353791154 0  1.463770854281917 -9.374765668872765 0  0.5034132782032188 -4.464280853772128 0  3.138906271796685 -4.99999841599503 0  14.61209972381335 -2.388610981020637 0  6.208601124947327 -8.776231214192325 0  14.74910972998159 -7.542186851303819 0  2.243794246335625 -1.632184311040998 0  2.243794245689214 -8.367815689183566 0  0.4590235278399923 -5.431413993025926 0  0.4971508861448406 -2.209632053221267 0  0.4971508861368665 -7.790367946777407 0  0.4644363683211541 -3.560571347760519 0  6.478811279411406 -7.007392971062433 0  1.238895267772762 -4.173677632458826 0  1.293241773632479 -2.02256720952064 0  1.293241773542714 -7.977432790434841 0  0.4324740478030531 -0.942028985507247 0  0.4324740423701829 -9.057971014492754 0  2.117396640811705 -3.472968170680347 0  2.107095929630507 -6.531506384346077 0  8.087741545730886 -1.392783601483453 0  1.028911946384717 -1.352376108341404 0  1.028911946221715 -8.647623891551962 0  4.05691976296832 -4.991522392209158 0  11.51826881314265 -8.065248940008736 0  1.618560396201739 -4.958056164503666 0  2.701984523487646 -2.141781914603403 0  2.70198452396172 -7.858218085853512 0  2.843615645746219 -9.289121726447632 0  2.843615661334342 -0.7108782798429658 0  8.678774612240533 -8.488146490452822 0  6.487906449371135 -2.667543558824978 0  8.369190916679937 -7.129867754908394 0  11.80978191929258 -4.655775487536958 0  0.3792065166453504 -3.113833531412848 0  0.4134714637263563 -6.58827691137208 0  9.551050695080825 -3.49648183875815 0  1.083867845277057 -6.036251777836495 0  0.3756430921870901 -1.80381664325008 0  0.3756430921689482 -8.196183356748573 0  3.113073783220456 -3.503408140759125 0  3.113391383189963 -6.496678880796299 0  22.62850736315072 -3.277987336300344 0  22.59385352108348 -6.800312122582239 0  0.3777114402537816 -4.137047872695438 0  0.9196816123347897 -0.4281025456111269 0  0.9196815944880363 -9.571897460530383 0  0.4052043328723194 -5.827814332459883 0  8.865857694874787 -5.767686953139113 0  1.200388325130726 -5.182186034620629 0  5.65297436943758 -4.325500846767599 0  1.200079167961391 -3.009849046583253 0  1.20883344838 -7.021823297793294 0  1.057642414577487 -3.660996704809145 0  10.88812987788297 -6.333458225047037 0  4.493502926606794 -2.839780197438185 0  4.485862892033458 -7.147606077919463 0  0.3631651408878085 -7.003529808558233 0  1.946748828463205 -6.049056369468467 0  6.918750162798794 -4.993796052442676 0  3.351203216022585 -1.980935554775394 0  3.351203216441711 -8.019064445907297 0  2.281892243515294 -2.856654416292082 0  2.281892243715877 -7.143345583598931 0  5.811143619672087 -0.9953286820321026 0  2.695713766833098 -4.565354125099452 0  2.698172168139827 -5.435483248292925 0  19.86166219288896 -2.493475492328429 0  19.83739102036415 -7.594404063416508
[...]
<PointData  Vectors="displacement"> 
<DataArray  type="Float64"  Name="displacement"  NumberOfComponents="3" format="ascii">1.2323460012877516e-01 6.0972553735154748e-02 0.0000000000000000e+00  1.9856252386005949e-07 1.4459972274669542e-04 0.0000000000000000e+00  -2.8834559047166215e-07 -1.4796320062169754e-07 0.0000000000000000e+00  1.8807249758449320e-07 -1.8078096865520418e-07 0.0000000000000000e+00  6.3831024095742359e-02 9.8939812697315232e-03 0.0000000000000000e+00  3.5844594446697770e-02 3.5017269433553272e-03 0.0000000000000000e+00  2.4639576131518154e-02 1.1735988329684801e-03 0.0000000000000000e+00  1.7418456052677382e-02 6.0883041492742964e-04 0.0000000000000000e+00  1.3882948705597756e-02 7.1739011414466823e-05 0.0000000000000000e+00  1.1120765467652142e-02 -1.6053932512942554e-04 0.0000000000000000e+00  9.3333138915633850e-03 -2.9127190788334192e-04 0.0000000000000000e+00  7.9527313514295220e-03 -4.0608113025418822e-04 0.0000000000000000e+00  6.8092355777491448e-03 -4.5030803748977508e-04 0.0000000000000000e+00  5.9353424251756600e-03 -5.0178403962202519e-04 0.0000000000000000e+00  5.1780050503576654e-03 -5.1422744188760953e-04 0.0000000000000000e+00  4.6169609310221585e-03 -5.0441627263307458e-04 0.0000000000000000e+00  4.0847290414723252e-03 -5.2054478886421013e-04 0.0000000000000000e+00  3.6654333746620874e-03 -5.2423038604306100e-04 0.0000000000000000e+00  3.2616709343906269e-03 -5.1332256335797114e-04 0.0000000000000000e+00  2.9340743546761886e-03 -4.9852003411273446e-04 0.0000000000000000e+00  2.6386873078086698e-03 -4.7894822829107179e-04 0.0000000000000000e+00  2.3801698074116116e-03 -4.5674727485810689e-04 0.0000000000000000e+00  2.1540691335720607e-03 -4.3567359288754291e-04 0.0000000000000000e+00  1.9445085763514481e-03 -4.1172541532352546e-04 0.0000000000000000e+00  1.7517399355147102e-03 -3.7890366225711616e-04 0.0000000000000000e+00  1.5842081440483207e-03 -3.4242928992580016e-04 0.0000000000000000e+00  1.4406627006250795e-03 -3.0960721958688729e-04 0.0000000000000000e+00  1.3002965228995700e-03 -2.7037625862777102e-04 0.0000000000000000e+00  1.1802806209391642e-03 -2.3210289392363545e-04 0.0000000000000000e+00  1.0657129734260242e-03 -1.9016421382855696e-04 0.0000000000000000e+00  9.6437778796387426e-04 -1.4674724979960079e-04 0.0000000000000000e+00  8.7607592998420458e-04 -1.0244448012644321e-04 0.0000000000000000e+00  8.0187840272145287e-04 -6.1780124114142027e-05 0.0000000000000000e+00  7.2924522398478374e-04 -1.9719723775628347e-05 0.0000000000000000e+00  6.6684271064237520e-04 1.9539305532605899e-05 0.0000000000000000e+00  6.1222120937656744e-04 5.7024314470294892e-05 0.0000000000000000e+00  5.6665200478507832e-04 8.9515681616909629e-05 0.0000000000000000e+00  5.2359181826784867e-04 1.1898645757447971e-04 0.0000000000000000e+00  4.8707670190106865e-04 1.4266685251863257e-04 0.0000000000000000e+00  4.5047863615364217e-04 1.6305598836519720e-04 0.0000000000000000e+00  4.2017381384271759e-04 1.7681229059684603e-04 0.0000000000000000e+00  3.8789924534164216e-04 1.8694688297102405e-04 0.0000000000000000e+00  3.5873175037312599e-04 1.9155192358607791e-04 0.0000000000000000e+00  3.2742147778302034e-04 1.9281812370363876e-04 0.0000000000000000e+00  2.9819630630470575e-04 1.9001502444285397e-04 0.0000000000000000e+00  2.6494344851870158e-04 1.8486409480235943e-04 0.0000000000000000e+00  2.3197110345269100e-04 1.7813521645169088e-04 0.0000000000000000e+00  1.9675990807795389e-04 1.7062158886220659e-04 0.0000000000000000e+00  1.6312050803013001e-04 1.6254962630059990e-04 0.0000000000000000e+00  1.2464506690363389e-04 1.5444033061362075e-04 0.0000000000000000e+00  8.3631699351054077e-05 1.4843407058013497e-04 0.0000000000000000e+00  4.1646144598701516e-05 1.4514157057751094e-04 0.0000000000000000e+00  4.7816851362538100e-07 1.2096753895638287e-04 0.0000000000000000e+00  -1.2589498427475049e-07 9.5569916543354551e-05 0.0000000000000000e+00  -5.8487198444295373e-08 7.2162932720518704e-05 0.0000000000000000e+00  1.3052105089810425e-07 5.1370434180658824e-05 0.0000000000000000e+00  -1.7035457928669813e-07 3.3258128571967023e-05 0.0000000000000000e+00  1.3926996823193307e-07 1.8518653122293097e-05 0.0000000000000000e+00  -1.0504531592726763e-07 7.6748700174550244e-06 0.0000000000000000e+00  -1.0171565291778495e-08 1.2010962975192132e-06 0.0000000000000000e+00  -1.5028482276609081e-07 -6.4922479652825858e-07 0.0000000000000000e+00  -1.7066692753386058e-09 -7.1724163587680397e-07 0.0000000000000000e+00  5.7250393540946261e-07 -7.9660577735836695e-07 0.0000000000000000e+00  8.1107652280420867e-08 -2.5301103051448637e-07 0.0000000000000000e+00  1.2861859986349085e-07 -4.0791191658340317e-07 0.0000000000000000e+00  6.5874834794372512e-07 -5.7397878157684874e-07 0.0000000000000000e+00  2.1923212420645246e-07 -7.7691859774776624e-07 0.0000000000000000e+00  1.0742218665487358e-06 -7.2691159689230613e-07 0.0000000000000000e+00  3.3761483408801893e-07 -4.5944348465919103e-07 0.0000000000000000e+00  1.0541724908314765e-06 -5.2757699266983568e-07 0.0000000000000000e+00  5.5686726459864822e-07 -2.1091623697983563e-07 0.0000000000000000e+00  7.9621720635723810e-07 -2.6706112000882290e-07 0.0000000000000000e+00  8.1625533999217428e-07 5.4719374703487467e-08 0.0000000000000000e+00  9.5205816620271916e-07 5.7425355769487925e-08 0.0000000000000000e+00  2.7913515714909109e-07 1.2684063896977768e-07 0.0000000000000000e+00  5.9099062268339042e-07 4.3787176632757156e-07 0.0000000000000000e+00  -2.5290894225496357e-08 1.2902413018340778e-07 0.0000000000000000e+00  8.6967118687104654e-07 1.1508607990555358e-06 0.0000000000000000e+00  2.7921439932108843e-07 8.0610929665743992e-07 0.0000000000000000e+00  6.1286633558046962e-07 7.4737194912678975e-07 0.0000000000000000e+00  -5.3378392141520463e-07 7.2880098442550857e-07 0.0000000000000000e+00  1.0174062430424640e-07 1.1133110752308208e-06 0.0000000000000000e+00  -7.1840500858466844e-07 1.5200362382228931e-06 0.0000000000000000e+00  -8.5585774093316608e-07 9.3190325378988424e-07 0.0000000000000000e+00  -8.3829451232974684e-07 4.5359630923078968e-07 0.0000000000000000e+00  -2.3611613905148451e-06 1.1563744536835467e-06 0.0000000000000000e+00  -9.2419283067245555e-07 5.3200727433573916e-07 0.0000000000000000e+00  -1.6373371906117511e-06 6.3022660006803130e-07 0.0000000000000000e+00  -1.0241470949460384e-06 3.8885883399557680e-07 0.0000000000000000e+00  -2.4572928706057678e-06 6.1358325761648337e-07 0.0000000000000000e+00  -2.3620452583056923e-07 -2.2582984643465323e-08 0.0000000000000000e+00  -1.0083901656310058e-06 4.0050549495450744e-08 0.0000000000000000e+00  -8.3845151796576028e-07 1.6433036534379511e-08 0.0000000000000000e+00  -6.0847053726194572e-07 -5.1627231145066556e-08 0.0000000000000000e+00  -1.3769943770454111e-06 -2.7828018676119141e-07 0.0000000000000000e+00  -3.2875464760309815e-07 -1.1186928017257468e-07 0.0000000000000000e+00  -1.1296546239404963e-06 -3.8663761001511375e-07 0.0000000000000000e+00  -1.5997224088695755e-07 -9.3958185707257922e-08 0.0000000000000000e+00  -1.9832772752789962e-07 -3.0414586414117462e-07 0.0000000000000000e+00  -4.9311682300577584e-07 -2.6787493074741956e-07 0.0000000000000000e+00  -2.6896236694306658e-07 -2.8569733846531914e-07 0.0000000000000000e+00  -6.7494048040650247e-08 -1.0167847237333451e-07 0.0000000000000000e+00  -1.5836991732277712e-07 -1.5161538939782412e-07 0.0000000000000000e+00  -1.4488141639420678e-08 -1.9308340876958151e-07 0.0000000000000000e+00  5.0113336822218158e-10 -1.0324981132821433e-07 0.0000000000000000e+00  -2.2799309754767038e-07 -1.8105462103357925e-07 0.0000000000000000e+00  5.3801069111453851e-08 -1.8091662271572734e-07 0.0000000000000000e+00  -5.4889087522173856e-08 -6.0060705349487673e-08 0.0000000000000000e+00  -4.5584053245807777e-08 5.2239937558631103e-06 0.0000000000000000e+00  6.7370430447348194e-08 1.3264392177329371e-05 0.0000000000000000e+00  -8.4011798030554060e-08 2.3592779706892652e-05 0.0000000000000000e+00  7.7496978924200308e-09 3.6252588304806351e-05 0.0000000000000000e+00  -3.9367852996234894e-08 5.0789498948584588e-05 0.0000000000000000e+00  -3.1368497112771680e-08 6.7366302054105705e-05 0.0000000000000000e+00  7.1281648751620029e-08 8.5626825475060048e-05 0.0000000000000000e+00  -6.6291540890310846e-08 1.0557512741163493e-04 0.0000000000000000e+00  6.0507486596351564e-08 1.2712332860048106e-04 0.0000000000000000e+00  -8.0179798347515571e-08 1.5014399794311390e-04 0.0000000000000000e+00  4.9314956046542509e-08 1.7457837935982046e-04 0.0000000000000000e+00  -3.1744602094108024e-08 2.0041229254097494e-04 0.0000000000000000e+00  3.5688010490936575e-08 2.2758913775349412e-04 0.0000000000000000e+00  -6.6082342388392405e-08 2.5604493525319453e-04 0.0000000000000000e+00  4.0662569164532494e-08 2.8581402857167390e-04 0.0000000000000000e+00  -4.8889904286371323e-08 3.1684440007715613e-04 0.0000000000000000e+00  -3.1487193181843430e-08 3.4921859000003796e-04 0.0000000000000000e+00  1.5663500835150670e-08 3.8275467643723312e-04 0.0000000000000000e+00  3.7544952973294882e-08 4.1772046805460457e-04 0.0000000000000000e+00  -1.8067795823306185e-08 4.5394900533212253e-04 0.0000000000000000e+00  2.6867943545575858e-08 4.9156081031908857e-04 0.0000000000000000e+00  -7.0755886881686824e-08 5.3054286754784308e-04 0.0000000000000000e+00  1.9717339270382333e-08 5.7113008688883964e-04 0.0000000000000000e+00  8.4689364954168015e-09 6.1292655480641432e-04 0.0000000000000000e+00  -1.1466695386670742e-08 6.5673202230189464e-04 0.0000000000000000e+00  -8.5240946268584901e-08 7.0220898073084903e-04 0.0000000000000000e+00  -4.1375214448579464e-08 7.4928878858140924e-04 0.0000000000000000e+00  -4.2465803525277640e-08 7.9807175579556223e-04 0.0000000000000000e+00  5.8967804932746070e-08 8.4910371147593235e-04 0.0000000000000000e+00  -1.0751634795100154e-07 9.0233432336305364e-04 0.0000000000000000e+00  3.6105631910379389e-08 9.5796012265468458e-04 0.0000000000000000e+00  -1.1893131400815903e-07 1.0160300147281009e-03 0.0000000000000000e+00  4.4019492179531819e-08 1.0769612369467465e-03 0.0000000000000000e+00  -9.2816421833132376e-08 1.1405540534639069e-03 0.0000000000000000e+00  -4.8444078275366618e-08 1.2070599613303121e-03 0.0000000000000000e+00  -6.2707108962800873e-08 1.2782965660363085e-03 0.0000000000000000e+00  -1.1639416692921628e-08 1.3514924019321091e-03 0.0000000000000000e+00  1.4314676056923969e-07 1.4308920914528137e-03 0.0000000000000000e+00  -3.5553556235574332e-07 1.5137021195510598e-03 0.0000000000000000e+00  1.8961743918775658e-07 1.6010420961482575e-03 0.0000000000000000e+00  -2.0410659624879595e-07 1.6945585659403197e-03 0.0000000000000000e+00  1.3792232305726243e-07 1.7945485980014062e-03 0.0000000000000000e+00  -2.0777123194117799e-07 1.9012247212944467e-03 0.0000000000000000e+00  -1.4167275485448004e-07 2.0148179537134449e-03 0.0000000000000000e+00  -4.9760551453383078e-08 2.1391311470605519e-03 0.0000000000000000e+00  5.2074751155287166e-07 2.2711985909337150e-03 0.0000000000000000e+00  -3.5667601494050254e-07 2.4149200821319728e-03 0.0000000000000000e+00  8.4164587789674222e-09 2.5718063227844075e-03 0.0000000000000000e+00  1.5805590134902250e-07 2.7438461053050887e-03 0.0000000000000000e+00  -1.4639716337622789e-07 2.9298982574447697e-03 0.0000000000000000e+00  -1.7031692470173688e-07 3.1328934747257044e-03 0.0000000000000000e+00  -9.0489004358331072e-07 3.3664327335801328e-03 0.0000000000000000e+00  9.0345022578218525e-07 3.6205873213670295e-03 0.0000000000000000e+00  -1.3239517149313353e-06 3.9055204108780273e-03 0.0000000000000000e+00  1.7255040511197406e-06 4.2320632735140945e-03 0.0000000000000000e+00  -2.3477673080051167e-06 4.6018580847515056e-03 0.0000000000000000e+00  6.3072362209079143e-07 5.0315603875579666e-03 0.0000000000000000e+00  -4.0711812860462253e-06 5.5301882788091833e-03 0.0000000000000000e+00  1.5546421582568938e-06 6.1412601416251187e-03 0.0000000000000000e+00  -1.1348869845870240e-05 6.8447658860796160e-03 0.0000000000000000e+00  3.0181867560994688e-06 7.7255895300491961e-03 0.0000000000000000e+00  -1.6721498205611183e-05 8.7895383011422721e-03 0.0000000000000000e+00  -8.1222680973001054e-06 1.0232868661356894e-02 0.0000000000000000e+00  -2.3613726765565893e-05 1.2279675959320831e-02 0.0000000000000000e+00  -8.5957191374977867e-05 1.4868783026564024e-02 0.0000000000000000e+00  -1.1013443266122743e-04 1.8991344949231014e-02 0.0000000000000000e+00  8.3080004771460436e-06 2.7157933901631404e-02 0.0000000000000000e+00  -8.3046234454148412e-04 4.0084621533856182e-02 0.0000000000000000e+00  -8.3107832889834645e-05 -4.7873217274666007e-04 0.0000000000000000e+00  -4.2416419960241585e-04 1.1602016649347179e-04 0.0000000000000000e+00  -3.8173724110207974e-05 -5.8709196905321211e-04 0.0000000000000000e+00  -5.5818551296820892e-04 3.7721678203096938e-04 0.0000000000000000e+00  -2.0249412572504970e-04 1.2586685102302384e-04 0.0000000000000000e+00  1.3020722619227153e-04 -4.7768153731967935e-04 0.0000000000000000e+00  3.5035750850805791e-04 -2.1020688475929114e-04 0.0000000000000000e+00  -6.8459808880446901e-04 9.6499840583002443e-04 0.0000000000000000e+00  -3.6705036222604739e-04 4.7499884785757730e-04 0.0000000000000000e+00  -2.7909813047601186e-04 -1.3312040287326963e-04 0.0000000000000000e+00  8.7050884315763148e-04 -8.6839541429912701e-04 0.0000000000000000e+00  -9.1615773081268404e-04 1.6232640625605010e-03 0.0000000000000000e+00  -2.1626678247352936e-04 3.1488307387624129e-04 0.0000000000000000e+00  -4.4325960350117649e-04 1.0226514676934478e-03 0.0000000000000000e+00  3.2385939380297869e-04 2.7296216071549370e-05 0.0000000000000000e+00  7.9799736114514002e-05 -3.1965319741304688e-04 0.0000000000000000e+00  -2.8940513098490252e-04 8.0129444007418405e-04 0.0000000000000000e+00  1.7005300446776242e-03 -1.3612607027304966e-03 0.0000000000000000e+00  -2.8687564570785407e-04 4.1753440837873901e-05 0.0000000000000000e+00  7.1149463619931297e-04 -4.2887180197061534e-04 0.0000000000000000e+00  -2.5319565123486617e-04 -3.9646035955983580e-04 0.0000000000000000e+00  -4.3644019080358242e-04 -1.0479313089904360e-04 0.0000000000000000e+00  4.9567086307789174e-04 -1.7601124115307272e-04 0.0000000000000000e+00  -7.7667991706375846e-05 6.0740927513586935e-05 0.0000000000000000e+00  -1.2052904110607800e-03 2.5710701493058931e-03 0.0000000000000000e+00  -5.9923815876341212e-04 1.8508074101369037e-03 0.0000000000000000e+00  -1.2628376592126761e-04 1.9911300985658262e-04 0.0000000000000000e+00  -1.9336015626355554e-04 5.0664693651216537e-04 0.0000000000000000e+00  2.0378814259301606e-04 6.0438016737860948e-05 0.0000000000000000e+00  -4.2540337618692458e-04 1.5143556845250590e-03 0.0000000000000000e+00  3.9563549500174248e-04 -5.9719041907537807e-04 0.0000000000000000e+00  -8.7682771401042129e-05 -1.1160762146914189e-04 0.0000000000000000e+00  1.1892580817736760e-04 -1.0130638188557726e-04 0.0000000000000000e+00  9.6295047340762122e-04 -1.0749741219232623e-03 0.0000000000000000e+00  -3.6233945157672115e-04 -2.8689795183870413e-05 0.0000000000000000e+00  5.1793248831785786e-04 -3.3091230016097639e-05 0.0000000000000000e+00  -5.1501631681181146e-04 5.1937260059799136e-05 0.0000000000000000e+00  -4.9514112174336121e-04 2.1021355213736369e-04 0.0000000000000000e+00  8.3747687341141424e-05 4.6198593149430709e-05 0.0000000000000000e+00  -2.0224286336152061e-04 -3.1341859829504273e-04 0.0000000000000000e+00  -3.2450834540721698e-04 1.7899861410842466e-04 0.0000000000000000e+00  2.6286659934875503e-04 -4.6194447984603723e-05 0.0000000000000000e+00  -1.7427777424524073e-04 6.8890607613284046e-04 0.0000000000000000e+00  2.9874764540399807e-03 -1.6905764578349735e-03 0.0000000000000000e+00  -1.7105900096415046e-04 4.0307318305697913e-05 0.0000000000000000e+00  1.0930422808430006e-03 -5.7595163127597865e-04 0.0000000000000000e+00  -2.4336414191510470e-04 1.1071920504847333e-03 0.0000000000000000e+00  -4.6826636021640635e-04 5.7059221352657346e-04 0.0000000000000000e+00  2.0797764265979439e-04 -7.1788417033961406e-04 0.0000000000000000e+00  -3.1191716892774212e-04 -2.3708064794024876e-04 0.0000000000000000e+00  -2.3166126463288787e-04 -3.0707841097101068e-05 0.0000000000000000e+00  1.5931880963043858e-03 -8.5161042454335667e-04 0.0000000000000000e+00  -6.3619279129524260e-04 2.6109235601699666e-03 0.0000000000000000e+00  -1.1692195543882840e-04 3.8445996326864256e-04 0.0000000000000000e+00  -6.0551354032062918e-04 6.6302119482568810e-04 0.0000000000000000e+00  -7.2462613949385031e-04 6.6922055203252841e-04 0.0000000000000000e+00  -3.4146297238769039e-04 3.2134090716399164e-04 0.0000000000000000e+00  6.8120150935767321e-04 -1.6050422631937132e-04 0.0000000000000000e+00  1.2831375907117505e-04 -7.3158437065172391e-04 0.0000000000000000e+00  -4.3165605024838031e-04 -3.3346369756890527e-05 0.0000000000000000e+00  -8.1266121327928380e-05 -3.6748556456355755e-04 0.0000000000000000e+00  -1.5284069061567915e-03 4.1519280742449349e-03 0.0000000000000000e+00  -6.8960175562752206e-05 1.3032283216324821e-04 0.0000000000000000e+00  2.0837353040344723e-03 -1.0398428663515222e-03 0.0000000000000000e+00  -2.2242641299330762e-04 1.6951077991461772e-06 0.0000000000000000e+00  3.1970807777577419e-04 1.0564658770174840e-04 0.0000000000000000e+00  1.8827733059221564e-04 1.8785404977919242e-05 0.0000000000000000e+00  3.7534126323712097e-04 -4.0221473097902359e-04 0.0000000000000000e+00  1.7874759810390895e-03 -2.0025940318855545e-05 0.0000000000000000e+00  -2.8467432525236002e-05 2.6593559773745759e-05 0.0000000000000000e+00  4.2982996714231300e-03 -2.0850446376799690e-03 0.0000000000000000e+00  -9.8647175144763255e-05 3.2378344656642751e-05 0.0000000000000000e+00  -2.5155815419095355e-04 1.3675514980381440e-03 0.0000000000000000e+00  -4.7717115588555737e-04 -3.9479753160800415e-05 0.0000000000000000e+00  4.2881995961409640e-04 8.6810580870822664e-05 0.0000000000000000e+00  -1.4748255280834784e-04 -4.6154695266394396e-05 0.0000000000000000e+00  1.8968594102080735e-04 -1.9210865412567318e-06 0.0000000000000000e+00  9.7067265374849523e-04 -1.2018084617395352e-03 0.0000000000000000e+00  -2.7715294486926949e-04 9.5272736123305085e-05 0.0000000000000000e+00  -1.6641122072584856e-04 9.5328740371093765e-04 0.0000000000000000e+00  -7.9789141042064117e-04 3.2270834982185150e-03 0.0000000000000000e+00  -9.3324000979264605e-05 2.8487751524432307e-04 0.0000000000000000e+00  -3.4350469843284586e-04 1.9330841910586731e-03 0.0000000000000000e+00  -1.3982251597507097e-04 -2.1562726133016213e-04 0.0000000000000000e+00  -5.6569875663881497e-04 1.0956418906395270e-03 0.0000000000000000e+00  -8.1981799614842658e-04 8.8804258631091314e-04 0.0000000000000000e+00  -2.1371212152361134e-04 2.0825808669902988e-04 0.0000000000000000e+00  -1.9612313277352507e-03 5.0901882101395046e-03 0.0000000000000000e+00  -4.3991989839461406e-05 7.4700696751114852e-05 0.0000000000000000e+00  -6.0445095973818029e-04 2.9546313982601154e-04 0.0000000000000000e+00  -4.3140033464411913e-04 3.0461290122688484e-04 0.0000000000000000e+00  9.1759471572821734e-04 -3.2463964211766014e-04 0.0000000000000000e+00  -6.6313316118760254e-04 7.6358630002954951e-04 0.0000000000000000e+00  -1.3223851364394822e-04 1.1943075034820839e-04 0.0000000000000000e+00  -3.0554591292814313e-04 -3.2206233218431745e-04 0.0000000000000000e+00  1.3599748488544785e-04 -3.6245588693398821e-05 0.0000000000000000e+00  -5.2340694440126305e-04 6.9494504247463056e-04 0.0000000000000000e+00  5.2915825959113933e-04 -9.8200041160323155e-04 0.0000000000000000e+00  -3.5821843819551096e-04 9.5198078726332669e-05 0.0000000000000000e+00  -1.6665008411558926e-04 1.8034029778649013e-05 0.0000000000000000e+00  2.9638156542589472e-03 -1.2470767111122090e-03 0.0000000000000000e+00  3.8809462477589518e-06 -5.7429629928331877e-05 0.0000000000000000e+00  7.9258275598184983e-04 -6.7231252832724057e-04 0.0000000000000000e+00  4.3083560948840154e-05 -1.6746545319964952e-04 0.0000000000000000e+00  4.0104598954589937e-04 -8.846750