<?xml version="1.0"?>
<VTKFile type="UnstructuredGrid"  version="0.1"  >
<UnstructuredGrid>
<Piece  NumberOfPoints="1855" NumberOfCells="3532">
<Points>
<DataArray  type="Float64"  NumberOfComponents="3"  format="ascii">0 0 0  30 0 0  30 -10 0  0 -10 0  0.1391574078963744 0 0  0.2856388821882616 0 0  0.4398299073010886 0 0  0.6021362569539473 0 0  0.7729850389704483 0 0  0.9528258543586996 0 0  1.142131984380316 0 0  1.34140159760994 0 0  1.551159074717981 0 0  1.771956417032531 0 0  2.004374674080994 0 0  2.249025475789527 0 0  2.506552636773105 0 0  2.777633857742732 0 0  3.062982518028728 0 0  3.363349525995907 0 0  3.679525322337712 0 0  4.01234195575742 0 0  4.362675247811097 0 0  4.731447135329707 0 0  5.119628065610077 0 0  5.528239565804708 0 0  5.958356943167011 0 0  6.411112081475485 0 0  6.887696441559404 0 0  7.389364184530748 0 0  7.917435485335147 0 0  8.473300005202017 0 0  9.058420557070402 0 0  9.674336929103793 0 0  10.32266995225095 0 0  11.00512576896296 0 0  11.72350030646412 0 0  12.47968402994705 0 0  13.27566689579597 0 0  14.1135435963616 0 0  14.9955190732806 0 0  15.92391430904694 0 0  16.90117245730496 0 0  17.92986524844506 0 0  19.01269976086341 0 0  20.15252556282024 0 0  21.35234220269763 0 0  22.61530708683689 0 0  23.94474379751883 0 0  25.34415086349739 0 0  26.81721093579712 0 0  28.3678004819169 0 0  30 -1.111111111111111 0  30 -2.222222222222222 0  30 -3.333333333333333 0  30 -4.444444444444445 0  30 -5.555555555555555 0  30 -6.666666666666666 0  30 -7.777777777777777 0  30 -8.888888888888889 0  28.36780047917311 -10 0  26.8172109305839 -10 0  25.34415085606858 -10 0  23.94474378810899 -10 0  22.61530707566275 -10 0  21.3523421899591 -10 0  20.15252554870171 -10 0  19.01269974553473 -10 0  17.92986523206254 -10 0  16.90117244001232 -10 0  15.92391429097614 -10 0  14.99551905455266 -10 0  14.11354357708742 -10 0  13.27566687607703 -10 0  12.47968400987599 -10 0  11.72350028612546 -10 0  11.00512574843363 -10 0  10.32266993160086 -10 0  9.674336908396342 -10 0  9.058420536362949 -10 0  8.473299984546333 -10 0  7.917435464777824 -10 0  7.389364164113587 -10 0  6.887696420787165 -10 0  6.411112061446698 -10 0  5.95835692337857 -10 0  5.528239546282652 -10 0  5.119628046377237 -10 0  4.731447115907979 -10 0  4.362675229213632 -10 0  4.012341937260036 -10 0  3.679525304434552 -10 0  3.363349508456405 -10 0  3.062982500861274 -10 0  2.777633840953978 -10 0  2.506552620368097 -10 0  2.249025459771861 -10 0  2.004374658452946 -10 0  1.771956401795187 -10 0  1.551159059871345 -10 0  1.341401583153029 -10 0  1.142131970307521 -10 0  0.9528258406748833 -10 0  0.7729850256685147 -10 0  0.6021362439621285 -10 0  0.4398298947504031 -10 0  0.2856388700059078 -10 0  0.1391573960769001 -10 0  0 -9.855072463768115 0  0 -9.710144927536232 0  0 -9.565217391304348 0  0 -9.420289855072463 0  0 -9.27536231884058 0  0 -9.130434782608695 0  0 -8.985507246376812 0  0 -8.840579710144928 0  0 -8.695652173913043 0  0 -8.55072463768116 0  0 -8.405797101449275 0  0 -8.260869565217391 0  0 -8.115942028985508 0  0 -7.971014492753623 0  0 -7.826086956521739 0  0 -7.681159420289855 0  0 -7.536231884057971 0  0 -7.391304347826087 0  0 -7.246376811594203 0  0 -7.101449275362318 0  0 -6.956521739130435 0  0 -6.811594202898551 0  0 -6.666666666666667 0  0 -6.521739130434783 0  0 -6.376811594202898 0  0 -6.231884057971015 0  0 -6.086956521739131 0  0 -5.942028985507246 0  0 -5.797101449275362 0  0 -5.652173913043478 0  0 -5.507246376811594 0  0 -5.36231884057971 0  0 -5.217391304347826 0  0 -5.072463768115941 0  0 -4.927536231884058 0  0 -4.782608695652174 0  0 -4.637681159420289 0  0 -4.492753623188406 0  0 -4.347826086956522 0  0 -4.202898550724638 0  0 -4.057971014492754 0  0 -3.913043478260869 0  0 -3.768115942028985 0  0 -3.623188405797101 0  0 -3.478260869565217 0  0 -3.333333333333334 0  0 -3.188405797101449 0  0 -3.043478260869565 0  0 -2.898550724637681 0  0 -2.753623188405797 0  0 -2.608695652173912 0  0 -2.463768115942029 0  0 -2.318840579710145 0  0 -2.173913043478261 0  0 -2.028985507246377 0  0 -1.884057971014492 0  0 -1.739130434782609 0  0 -1.594202898550725 0  0 -1.44927536231884 0  0 -1.304347826086957 0  0 -1.159420289855072 0  0 -1.014492753623188 0  0 -0.8695652173913047 0  0 -0.72463768115942 0  0 -0.579710144927537 0  0 -0.4347826086956523 0  0 -0.2898550724637676 0  0 -0.1449275362318829 0  5.15859856094262 -4.976557621770688 0  2.816777084926057 -7.160262673925935 0  2.81677708460006 -2.839737326002783 0  2.227649803257325 -5.003121586636773 0  1.518662968975629 -8.46230852045241 0  1.518662969184829 -1.537691480152612 0  9.960740911025725 -5.055901393541221 0  1.491099662214591 -3.691833922963321 0  1.503675657181264 -6.345020369042368 0  5.319208041801049 -7.493850249937013 0  5.291109955459268 -2.489368743223226 0  1.096914507335763 -2.53623188405797 0  1.096914507253562 -7.463768115942029 0  1.089580194952752 -4.71277167923441 0  15.07565076110197 -5.047572991082069 0  7.501630508673601 -5.937500100385354 0  0.8894869418764504 -5.623930488933245 0  2.955144522453978 -1.440834296472408 0  2.955144521140721 -8.559165705576945 0  8.106603955004623 -2.748811534843258 0  3.662152539483591 -4.228178367024407 0  3.662181528265114 -5.771746159989156 0  0.8436558190317136 -0.8541050638451999 0  0.8436558075840921 -9.145894948342754 0  0.7854168197005933 -1.811594202898552 0  0.7894693398152999 -3.286543351392342 0  0.7854168196772591 -8.188405797101449 0  0.7854168196772591 -6.739130434782609 0  20.00078956016804 -4.999999999785771 0  0.7379120031523989 -3.977302749614766 0  6.584332478112232 -3.934875417052907 0  7.295091310194352 -7.969791332537982 0  9.811174303464586 -7.412814499648229 0  4.013376806449688 -2.206189431585293 0  4.013376806983409 -7.793810569017377 0  12.11177433894592 -2.818343737884045 0  2.591152707837148 -3.990098461753838 0  2.58990939378082 -6.025895074707176 0  25.43156400064585 -5.044446479916348 0  2.03262751726143 -2.282125834846944 0  2.032627517335952 -7.717874165160392 0  12.51865094522923 -6.491408052923457 0  0.598175343983641 -6.156971652625402 0  2.126700074935224 -0.8767654465386991 0  2.126700059112423 -9.123234559633019 0  6.617961838548696 -1.617756429129908 0  0.5903949564549755 -4.980060355019413 0  1.676697585305984 -5.547101897225158 0  4.773518305133987 -3.729331162566817 0  4.77931803486508 -6.231222307502165 0  4.878549698409591 -8.72048903376362 0  4.852580875634024 -1.222215410052823 0  0.5487847095754042 -2.675169258708207 0  0.545113423825768 -7.32369553390529 0  1.78738026998851 -4.400451872599477 0  1.68244194111824 -3.010100184333533 0  1.683984276238402 -7.018293626028473 0  9.998503440677371 -2.00585287985007 0  3.693061162502273 -3.243678395563028 0  3.694987482168253 -6.757603268814477 0  6.081763036485869 -5.83414381546261 0  0.5196640460586313 -1.350633211792632 0  0.5196640458460706 -8.649366789040087 0  3.84593363904758 -0.9906418103762418 0  3.845933620847308 -9.009358200471317 0  17.41551885287501 -3.057748733689079 0  17.30725517812527 -7.002961443761516 0  8.117698464370697 -4.451550942597151 0  0.4918476668493152 -0.4789811193757592 0  0.4918476560347713 -9.521018882514893 0  1.463770869328428 -0.6252343353791154 0  1.463770854281917 -9.374765668872765 0  0.5034132782032188 -4.464280853772128 0  3.138906271796685 -4.99999841599503 0  14.61209972381335 -2.388610981020637 0  6.208601124947327 -8.776231214192325 0  14.74910972998159 -7.542186851303819 0  2.243794246335625 -1.632184311040998 0  2.243794245689214 -8.367815689183566 0  0.4590235278399923 -5.431413993025926 0  0.4971508861448406 -2.209632053221267 0  0.4971508861368665 -7.790367946777407 0  0.4644363683211541 -3.560571347760519 0  6.478811279411406 -7.007392971062433 0  1.238895267772762 -4.173677632458826 0  1.293241773632479 -2.02256720952064 0  1.293241773542714 -7.977432790434841 0  0.4324740478030531 -0.942028985507247 0  0.4324740423701829 -9.057971014492754 0  2.117396640811705 -3.472968170680347 0  2.107095929630507 -6.531506384346077 0  8.087741545730886 -1.392783601483453 0  1.028911946384717 -1.352376108341404 0  1.028911946221715 -8.647623891551962 0  4.05691976296832 -4.991522392209158 0  11.51826881314265 -8.065248940008736 0  1.618560396201739 -4.958056164503666 0  2.701984523487646 -2.141781914603403 0  2.70198452396172 -7.858218085853512 0  2.843615645746219 -9.289121726447632 0  2.843615661334342 -0.7108782798429658 0  8.678774612240533 -8.488146490452822 0  6.487906449371135 -2.667543558824978 0  8.369190916679937 -7.129867754908394 0  11.80978191929258 -4.655775487536958 0  0.3792065166453504 -3.113833531412848 0  0.4134714637263563 -6.58827691137208 0  9.551050695080825 -3.49648183875815 0  1.083867845277057 -6.036251777836495 0  0.3756430921870901 -1.80381664325008 0  0.3756430921689482 -8.196183356748573 0  3.113073783220456 -3.503408140759125 0  3.113391383189963 -6.496678880796299 0  22.62850736315072 -3.277987336300344 0  22.59385352108348 -6.800312122582239 0  0.3777114402537816 -4.137047872695438 0  0.9196816123347897 -0.4281025456111269 0  0.9196815944880363 -9.571897460530383 0  0.4052043328723194 -5.827814332459883 0  8.865857694874787 -5.767686953139113 0  1.200388325130726 -5.182186034620629 0  5.65297436943758 -4.325500846767599 0  1.200079167961391 -3.009849046583253 0  1.20883344838 -7.021823297793294 0  1.057642414577487 -3.660996704809145 0  10.88812987788297 -6.333458225047037 0  4.493502926606794 -2.839780197438185 0  4.485862892033458 -7.147606077919463 0  0.3631651408878085 -7.003529808558233 0  1.946748828463205 -6.049056369468467 0  6.918750162798794 -4.993796052442676 0  3.351203216022585 -1.980935554775394 0  3.351203216441711 -8.019064445907297 0  2.281892243515294 -2.856654416292082 0  2.281892243715877 -7.143345583598931 0  5.811143619672087 -0.9953286820321026 0  2.695713766833098 -4.565354125099452 0  2.698172168139827 -5.435483248292925 0  19.86166219288896 -2.493475492328429 0  19.83739102036415 -7.594404063416508
[...]
<PointData  Vectors="displacement"> 
<DataArray  type="Float64"  Name="displacement"  NumberOfComponents="3" format="ascii">2.1995896274831186e-01 1.2249459103726121e-01 0.0000000000000000e+00  5.3575006901325834e-07 3.9086873573049752e-04 0.0000000000000000e+00  -7.7974755844863340e-07 -4.0016859332678753e-07 0.0000000000000000e+00  5.0135488532427059e-07 -4.8191705333722745e-07 0.0000000000000000e+00  1.3958339145654056e-01 4.1967445259606238e-02 0.0000000000000000e+00  9.0607103175553066e-02 1.4239383565200601e-02 0.0000000000000000e+00  6.3582519483039765e-02 6.3678528264638308e-03 0.0000000000000000e+00  4.6384491156130574e-02 3.2939236728050233e-03 0.0000000000000000e+00  3.7045093547521758e-02 1.2587514999447020e-03 0.0000000000000000e+00  2.9846542992612368e-02 3.2397339052291281e-04 0.0000000000000000e+00  2.5107160038238208e-02 -2.5532054725604356e-04 0.0000000000000000e+00  2.1426586909361337e-02 -7.0591632288826106e-04 0.0000000000000000e+00  1.8366730226336996e-02 -9.1898623143583339e-04 0.0000000000000000e+00  1.6019932205465204e-02 -1.1236053198775860e-03 0.0000000000000000e+00  1.3986585338387422e-02 -1.2051877677334377e-03 0.0000000000000000e+00  1.2476099780827012e-02 -1.2157074930733629e-03 0.0000000000000000e+00  1.1041635608454824e-02 -1.2850001854442456e-03 0.0000000000000000e+00  9.9105470522881656e-03 -1.3161347125699337e-03 0.0000000000000000e+00  8.8214723762228310e-03 -1.3029533843873064e-03 0.0000000000000000e+00  7.9372457100508904e-03 -1.2761081400424943e-03 0.0000000000000000e+00  7.1397921414420706e-03 -1.2339697157628946e-03 0.0000000000000000e+00  6.4416080688928182e-03 -1.1826852489771550e-03 0.0000000000000000e+00  5.8308095945192309e-03 -1.1331008822643882e-03 0.0000000000000000e+00  5.2644657907419054e-03 -1.0745404060341596e-03 0.0000000000000000e+00  4.7435693325762734e-03 -9.9106887129897579e-04 0.0000000000000000e+00  4.2907635487982824e-03 -8.9704906685927953e-04 0.0000000000000000e+00  3.9026346494393975e-03 -8.1230071676278884e-04 0.0000000000000000e+00  3.5230981674175682e-03 -7.0978575879459388e-04 0.0000000000000000e+00  3.1984503894784879e-03 -6.0943759134817290e-04 0.0000000000000000e+00  2.8884442084545947e-03 -4.9887406991835676e-04 0.0000000000000000e+00  2.6141504544929528e-03 -3.8394151529139430e-04 0.0000000000000000e+00  2.3750561261899291e-03 -2.6640444250052687e-04 0.0000000000000000e+00  2.1740315641786438e-03 -1.5846707478988170e-04 0.0000000000000000e+00  1.9771483810171638e-03 -4.6542352898117727e-05 0.0000000000000000e+00  1.8078857822507019e-03 5.8081254415125098e-05 0.0000000000000000e+00  1.6596561881849921e-03 1.5808343995138484e-04 0.0000000000000000e+00  1.5358794063572718e-03 2.4478162153375969e-04 0.0000000000000000e+00  1.4188835072201662e-03 3.2352132774168130e-04 0.0000000000000000e+00  1.3196100749189085e-03 3.8676737130537121e-04 0.0000000000000000e+00  1.2201162248326256e-03 4.4130683585370497e-04 0.0000000000000000e+00  1.1376987984980816e-03 4.7806534338300536e-04 0.0000000000000000e+00  1.0500014092425581e-03 5.0517332169140706e-04 0.0000000000000000e+00  9.7076558100891877e-04 5.1744528021797876e-04 0.0000000000000000e+00  8.8580441140972575e-04 5.2079359437702207e-04 0.0000000000000000e+00  8.0655348135080427e-04 5.1320040346924565e-04 0.0000000000000000e+00  7.1647242496080679e-04 4.9931705584308449e-04 0.0000000000000000e+00  6.2719974296389239e-04 4.8119481113982100e-04 0.0000000000000000e+00  5.3192820507367026e-04 4.6096475970980463e-04 0.0000000000000000e+00  4.4094651510255762e-04 4.3922251376771242e-04 0.0000000000000000e+00  3.3691979202159927e-04 4.1737099398730698e-04 0.0000000000000000e+00  2.2604887639417220e-04 4.0118802849774759e-04 0.0000000000000000e+00  1.1256239717592366e-04 3.9232256913483324e-04 0.0000000000000000e+00  1.2924262978287700e-06 3.2699009720838163e-04 0.0000000000000000e+00  -3.4023326701702654e-07 2.5833600146522352e-04 0.0000000000000000e+00  -1.5813468426593362e-07 1.9506084670620671e-04 0.0000000000000000e+00  3.5293679583204873e-07 1.3885415653176411e-04 0.0000000000000000e+00  -4.6051684253352808e-07 8.9894475728761862e-05 0.0000000000000000e+00  3.7650281456359080e-07 5.0053022128173537e-05 0.0000000000000000e+00  -2.8388753405206604e-07 2.0742986591226967e-05 0.0000000000000000e+00  -2.7434177542442787e-08 3.2448562061151645e-06 0.0000000000000000e+00  -4.0545136058418320e-07 -1.7547785028120863e-06 0.0000000000000000e+00  -3.6600639052386848e-09 -1.9379280284599805e-06 0.0000000000000000e+00  1.5483461234874088e-06 -2.1519530859982299e-06 0.0000000000000000e+00  2.1902690033320217e-07 -6.8273803112791493e-07 0.0000000000000000e+00  3.4733500895042484e-07 -1.0999484191237077e-06 0.0000000000000000e+00  1.7769292052438229e-06 -1.5473293239912693e-06 0.0000000000000000e+00  5.9033173264937940e-07 -2.0910305567756787e-06 0.0000000000000000e+00  2.8911892312929383e-06 -1.9564385815732483e-06 0.0000000000000000e+00  9.0711430243804220e-07 -1.2337270520673838e-06 0.0000000000000000e+00  2.8319996221554592e-06 -1.4169533591845802e-06 0.0000000000000000e+00  1.4943861975419502e-06 -5.6332152862470409e-07 0.0000000000000000e+00  2.1333850829272991e-06 -7.1434076304298485e-07 0.0000000000000000e+00  2.1863940217888691e-06 1.5142136062412355e-07 0.0000000000000000e+00  2.5430055433689827e-06 1.5991451837228613e-07 0.0000000000000000e+00  7.4222308561769238e-07 3.4336300098870588e-07 0.0000000000000000e+00  1.5722940295170082e-06 1.1793013496450510e-06 0.0000000000000000e+00  -7.2143454827177534e-08 3.4801085546944449e-07 0.0000000000000000e+00  2.3082598342925709e-06 3.0896140813019806e-06 0.0000000000000000e+00  7.3492711208310996e-07 2.1625779961156065e-06 0.0000000000000000e+00  1.6297697203580771e-06 2.0025209843400263e-06 0.0000000000000000e+00  -1.4429262471085236e-06 1.9541904761207522e-06 0.0000000000000000e+00  2.5281662465016893e-07 2.9786832209272775e-06 0.0000000000000000e+00  -1.9508800770702007e-06 4.0652629121569620e-06 0.0000000000000000e+00  -2.3048522081870046e-06 2.4909545708029115e-06 0.0000000000000000e+00  -2.2481528766376270e-06 1.2125997671885046e-06 0.0000000000000000e+00  -6.3308346977218936e-06 3.0888047269300277e-06 0.0000000000000000e+00  -2.4801944472038265e-06 1.4184558048432453e-06 0.0000000000000000e+00  -4.3841999201644167e-06 1.6810853630249172e-06 0.0000000000000000e+00  -2.7446545055675851e-06 1.0347622055105004e-06 0.0000000000000000e+00  -6.5766255331317670e-06 1.6325466637527283e-06 0.0000000000000000e+00  -6.3405902497541848e-07 -6.1717896146757792e-08 0.0000000000000000e+00  -2.6980699016158480e-06 1.0400334305800252e-07 0.0000000000000000e+00  -2.2406930623613659e-06 4.1575263244399579e-08 0.0000000000000000e+00  -1.6255406467856273e-06 -1.3948946835775791e-07 0.0000000000000000e+00  -3.6798757025979924e-06 -7.4558991597226947e-07 0.0000000000000000e+00  -8.7836316031603542e-07 -2.9915150827448335e-07 0.0000000000000000e+00  -3.0167469225312616e-06 -1.0326103386660717e-06 0.0000000000000000e+00  -4.2718170926038295e-07 -2.5096181702407764e-07 0.0000000000000000e+00  -5.2941350401641426e-07 -8.1196732148119164e-07 0.0000000000000000e+00  -1.3159915572923428e-06 -7.1461302650714778e-07 0.0000000000000000e+00  -7.1787448244545581e-07 -7.6215744666733257e-07 0.0000000000000000e+00  -1.8017566990416844e-07 -2.7116839995824051e-07 0.0000000000000000e+00  -4.2247064923560303e-07 -4.0429597587591370e-07 0.0000000000000000e+00  -3.8807148171213032e-08 -5.1484764894343586e-07 0.0000000000000000e+00  1.2254868903459007e-09 -2.7527405608558045e-07 0.0000000000000000e+00  -6.0787144723193997e-07 -4.8267356225986926e-07 0.0000000000000000e+00  1.4334487226561773e-07 -4.8229805731464793e-07 0.0000000000000000e+00  -1.4633038070821988e-07 -1.6010318335434389e-07 0.0000000000000000e+00  -1.2150514582521009e-07 1.3978727862348581e-05 0.0000000000000000e+00  1.7957251967555514e-07 3.5464829455340903e-05 0.0000000000000000e+00  -2.2389203557051367e-07 6.3049084485700620e-05 0.0000000000000000e+00  2.0719839274058484e-08 9.6846065961786395e-05 0.0000000000000000e+00  -1.0492484325849068e-07 1.3564407273080473e-04 0.0000000000000000e+00  -8.3439475742100441e-08 1.7987538692672273e-04 0.0000000000000000e+00  1.8974239977005523e-07 2.2858952450142872e-04 0.0000000000000000e+00  -1.7635946452355942e-07 2.8179577175521604e-04 0.0000000000000000e+00  1.6090475347418601e-07 3.3925793455712167e-04 0.0000000000000000e+00  -2.1302169542276499e-07 4.0063498885634048e-04 0.0000000000000000e+00  1.3091371321511539e-07 4.6576831983734045e-04 0.0000000000000000e+00  -8.4157763334683290e-08 5.3461775301143026e-04 0.0000000000000000e+00  9.4639189649966142e-08 6.0703024885530859e-04 0.0000000000000000e+00  -1.7502627520192518e-07 6.8283328609671759e-04 0.0000000000000000e+00  1.0762552255303602e-07 7.6211489280168711e-04 0.0000000000000000e+00  -1.2923000462169186e-07 8.4473439659530172e-04 0.0000000000000000e+00  -8.3256843536280556e-08 9.3090728719517630e-04 0.0000000000000000e+00  4.1343011769505585e-08 1.0201473023912974e-03 0.0000000000000000e+00  9.8785378870565431e-08 1.1131621389224593e-03 0.0000000000000000e+00  -4.7525957988224295e-08 1.2095037678739920e-03 0.0000000000000000e+00  7.0603226525307175e-08 1.3094888589287529e-03 0.0000000000000000e+00  -1.8587029462535536e-07 1.4130781803193338e-03 0.0000000000000000e+00  5.1449826589667292e-08 1.5208891073709562e-03 0.0000000000000000e+00  2.2113228768132477e-08 1.6318667110716361e-03 0.0000000000000000e+00  -2.9903542535164185e-08 1.7481243759180916e-03 0.0000000000000000e+00  -2.2331901387729014e-07 1.8687629175752239e-03 0.0000000000000000e+00  -1.0858360992092181e-07 1.9935906041870267e-03 0.0000000000000000e+00  -1.1066967852429058e-07 2.1228639257545477e-03 0.0000000000000000e+00  1.5351248209762714e-07 2.2580237232116955e-03 0.0000000000000000e+00  -2.8018899008187305e-07 2.3989230810714047e-03 0.0000000000000000e+00  9.3697827754529357e-08 2.5460686633559681e-03 0.0000000000000000e+00  -3.0932478503952601e-07 2.6995811047730383e-03 0.0000000000000000e+00  1.1324482751035330e-07 2.8605411813298672e-03 0.0000000000000000e+00  -2.4117659370031061e-07 3.0284109347978906e-03 0.0000000000000000e+00  -1.2528970396108399e-07 3.2038298681952991e-03 0.0000000000000000e+00  -1.6389120147334560e-07 3.3915749134690058e-03 0.0000000000000000e+00  -3.0041239843342025e-08 3.5843070271066755e-03 0.0000000000000000e+00  3.6682410208850314e-07 3.7931836087968180e-03 0.0000000000000000e+00  -9.1607214073264555e-07 4.0108122643733634e-03 0.0000000000000000e+00  4.8663817722130454e-07 4.2401025737445778e-03 0.0000000000000000e+00  -5.2414997571756894e-07 4.4853328051903188e-03 0.0000000000000000e+00  3.5259614591270581e-07 4.7472176309998060e-03 0.0000000000000000e+00  -5.3210298187861411e-07 5.0262640442016518e-03 0.0000000000000000e+00  -3.6110084750313633e-07 5.3229727098166027e-03 0.0000000000000000e+00  -1.3332616569864982e-07 5.6472272015475602e-03 0.0000000000000000e+00  1.3169070888247136e-06 5.9911120535030846e-03 0.0000000000000000e+00  -9.0689884363224242e-07 6.3647156394815675e-03 0.0000000000000000e+00  1.9684298715158217e-08 6.7717413698924643e-03 0.0000000000000000e+00  3.7387105479446334e-07 7.2172379834140139e-03 0.0000000000000000e+00  -3.7726691090498409e-07 7.6977916572443360e-03 0.0000000000000000e+00  -4.3355297143439544e-07 8.2208498643652900e-03 0.0000000000000000e+00  -2.2869385344113661e-06 8.8210701583476114e-03 0.0000000000000000e+00  2.1960522618433462e-06 9.4721363809840455e-03 0.0000000000000000e+00  -3.2542222746930240e-06 1.0199537452963125e-02 0.0000000000000000e+00  4.1680685737976486e-06 1.1030016853484070e-02 0.0000000000000000e+00  -5.7461750378293648e-06 1.1966367237857545e-02 0.0000000000000000e+00  1.4912002076405979e-06 1.3048939735127980e-02 0.0000000000000000e+00  -9.8542508663224622e-06 1.4298121320316916e-02 0.0000000000000000e+00  3.0944404784591745e-06 1.5818962896761660e-02 0.0000000000000000e+00  -2.7152851466808224e-05 1.7554764401150755e-02 0.0000000000000000e+00  6.0757202875753477e-06 1.9708222413675289e-02 0.0000000000000000e+00  -3.8711940139791357e-05 2.2274041243939065e-02 0.0000000000000000e+00  -1.4045467905990788e-05 2.5709231342046387e-02 0.0000000000000000e+00  -7.8606129317446196e-05 3.0553994014662779e-02 0.0000000000000000e+00  -2.1572046475390940e-04 3.6058636879369235e-02 0.0000000000000000e+00  1.3144658496950597e-03 4.6671728440985799e-02 0.0000000000000000e+00  -1.0437058447289264e-02 6.1327566264385604e-02 0.0000000000000000e+00  6.7794771452689959e-02 8.1032710357007723e-02 0.0000000000000000e+00  -2.1054225080353482e-04 -1.2749887494992269e-03 0.0000000000000000e+00  -1.1279030389529775e-03 3.1093578410008768e-04 0.0000000000000000e+00  -5.7621157367809521e-05 -1.5396638232909954e-03 0.0000000000000000e+00  -1.4717131274293342e-03 1.0073415805729108e-03 0.0000000000000000e+00  -5.3936753387664202e-04 3.3613941051043392e-04 0.0000000000000000e+00  5.0903310342087363e-04 -1.1749556776110644e-03 0.0000000000000000e+00  9.4686601422455717e-04 -5.6366357025480545e-04 0.0000000000000000e+00  -1.7850696602613289e-03 2.5628962069425107e-03 0.0000000000000000e+00  -9.7321199839668594e-04 1.2659092994032563e-03 0.0000000000000000e+00  -7.4292625083711874e-04 -3.5457275311032025e-04 0.0000000000000000e+00  2.3541983297353125e-03 -2.3129728119531288e-03 0.0000000000000000e+00  -2.3422695759387417e-03 4.2879220034787247e-03 0.0000000000000000e+00  -5.7505298636707737e-04 8.3973484691315155e-04 0.0000000000000000e+00  -1.1659028061588794e-03 2.7162342139942786e-03 0.0000000000000000e+00  8.7448353539373619e-04 7.3269102632376548e-05 0.0000000000000000e+00  2.2007913592668376e-04 -8.5486517456965009e-04 0.0000000000000000e+00  -7.6496490205956835e-04 2.1313373759888846e-03 0.0000000000000000e+00  4.5955066217916122e-03 -3.5785252081514621e-03 0.0000000000000000e+00  -7.6464044645120318e-04 1.1206220909156086e-04 0.0000000000000000e+00  1.9237418699321065e-03 -1.1470256464734883e-03 0.0000000000000000e+00  -6.5568057754980069e-04 -1.0488658272374465e-03 0.0000000000000000e+00  -1.1553113546113232e-03 -2.7600967998126825e-04 0.0000000000000000e+00  1.8732054349663092e-03 -2.2095712489239374e-04 0.0000000000000000e+00  -2.0698225489958994e-04 1.6223312917345456e-04 0.0000000000000000e+00  -3.0045508422957981e-03 6.7365103599833342e-03 0.0000000000000000e+00  -1.5547862675614650e-03 4.8893983307336519e-03 0.0000000000000000e+00  -3.3619280232741595e-04 5.3124030427580344e-04 0.0000000000000000e+00  -5.1317323178179950e-04 1.3496979637894677e-03 0.0000000000000000e+00  5.5055791703612306e-04 1.6286012197819265e-04 0.0000000000000000e+00  -1.1123055249739912e-03 4.0106889042121627e-03 0.0000000000000000e+00  1.0731390325684758e-03 -1.5950178386813097e-03 0.0000000000000000e+00  -2.3269221161558926e-04 -2.9836494084847391e-04 0.0000000000000000e+00  3.2149697259876791e-04 -2.7171190780459598e-04 0.0000000000000000e+00  2.6073153493025528e-03 -2.8500099527454916e-03 0.0000000000000000e+00  -9.6516444980672216e-04 -7.5402942397640929e-05 0.0000000000000000e+00  1.4004598170258200e-03 -8.8033601612395822e-05 0.0000000000000000e+00  -1.3443498143228866e-03 1.4692787907583349e-04 0.0000000000000000e+00  -1.3121053763319934e-03 5.6258680534547749e-04 0.0000000000000000e+00  2.2635993262026051e-04 1.2477793823600588e-04 0.0000000000000000e+00  -4.5747469899382780e-04 -7.9426934658421468e-04 0.0000000000000000e+00  -8.6356616077524410e-04 4.7816008117874671e-04 0.0000000000000000e+00  7.0913947311551575e-04 -1.2433063839910089e-04 0.0000000000000000e+00  -4.6161859674862394e-04 1.8335085117126139e-03 0.0000000000000000e+00  8.0537694953733158e-03 -4.3761916199187949e-03 0.0000000000000000e+00  -4.5602786214181233e-04 1.0784852520048351e-04 0.0000000000000000e+00  2.9551128206421430e-03 -1.5359331252338525e-03 0.0000000000000000e+00  -6.4103788561961856e-04 2.9400748764476735e-03 0.0000000000000000e+00  -1.2378183001568073e-03 1.5199063255101467e-03 0.0000000000000000e+00  5.7483929526061224e-04 -1.9096589791015321e-03 0.0000000000000000e+00  -8.2652463716811528e-04 -6.3064783305193681e-04 0.0000000000000000e+00  -6.1811104057195180e-04 -8.1548018235499657e-05 0.0000000000000000e+00  4.3035648721946101e-03 -2.2616327628807165e-03 0.0000000000000000e+00  -1.6340661691315360e-03 6.8653060556787739e-03 0.0000000000000000e+00  -3.1076493713763122e-04 1.0247427339126810e-03 0.0000000000000000e+00  -1.5896765367235880e-03 1.7651899401706674e-03 0.0000000000000000e+00  -1.8671992591820072e-03 1.7851961004223215e-03 0.0000000000000000e+00  -9.0720922123729061e-04 8.5727427352040261e-04 0.0000000000000000e+00  1.8428835998557504e-03 -4.2847957632700462e-04 0.0000000000000000e+00  3.7087787391107641e-04 -1.9365124526593961e-03 0.0000000000000000e+00  -1.1470149626452803e-03 -8.6853071048442727e-05 0.0000000000000000e+00  -2.0992736938026669e-04 -9.8064881657378426e-04 0.0000000000000000e+00  -3.7066056231960494e-03 1.0745954988931598e-02 0.0000000000000000e+00  -1.8368605031721639e-04 3.4781555232094784e-04 0.0000000000000000e+00  5.6241586638704913e-03 -2.7480775207814482e-03 0.0000000000000000e+00  -5.9338812125682037e-04 4.9302173027149171e-06 0.0000000000000000e+00  8.6423664426323705e-04 2.8474961003641726e-04 0.0000000000000000e+00  5.0805316624265404e-04 5.0417037934269978e-05 0.0000000000000000e+00  1.0160668382042427e-03 -1.0764486548581306e-03 0.0000000000000000e+00  6.5016887111576209e-03 4.7394121340476892e-04 0.0000000000000000e+00  -7.5878289519008249e-05 7.1066206235934797e-05 0.0000000000000000e+00  1.1582134754225350e-02 -5.2451236443511262e-03 0.0000000000000000e+00  -2.6296882586025175e-04 8.6565226384373374e-05 0.0000000000000000e+00  -6.6034082252169305e-04 3.6260590480526379e-03 0.0000000000000000e+00  -1.2575576127484939e-03 -1.0009094137733420e-04 0.0000000000000000e+00  1.1596988157042284e-03 2.3425117269841353e-04 0.0000000000000000e+00  -3.9360305586565744e-04 -1.2313102643154517e-04 0.0000000000000000e+00  5.1142990742036236e-04 -5.3571899474400745e-06 0.0000000000000000e+00  2.6687000002809220e-03 -3.1239461962789257e-03 0.0000000000000000e+00  -7.3833163877954765e-04 2.5477996757108966e-04 0.0000000000000000e+00  -4.3938830221529172e-04 2.5336390176919923e-03 0.0000000000000000e+00  -2.0265357045385940e-03 8.4482057610657246e-03 0.0000000000000000e+00  -2.4827538719634785e-04 7.5966379063501703e-04 0.0000000000000000e+00  -8.9421022391467857e-04 5.1079113405722515e-03 0.0000000000000000e+00  -3.7002508487670886e-04 -5.7576213794954996e-04 0.0000000000000000e+00  -1.4820651283972868e-03 2.9080498605907096e-03 0.0000000000000000e+00  -2.0363486259496076e-03 2.3713337705506899e-03 0.0000000000000000e+00  -5.6882753299004061e-04 5.5577051334012412e-04 0.0000000000000000e+00  -4.4671205495407625e-03 1.2988272433076604e-02 0.0000000000000000e+00  -1.1722301351742267e-04 1.9945411648390895e-04 0.0000000000000000e+00  -1.5681538184766448e-03 7.9551103514867937e-04 0.0000000000000000e+00  -1.1448610484232162e-03 8.1316585340813542e-04 0.0000000000000000e+00  2.4827181213273367e-03 -8.6556868247819510e-04 0.0000000000000000e+00  -1.4632826618486191e-03 2.0811181853232553e-03 0.0000000000000000e+00  -3.5226463628009358e-04 3.1884340881694495e-04 0.0000000000000000e+00  -8.0232917589320946e-04 -8.5412438520396361e-04 0.0000000000000000e+00  3.6649780133398877e-04 -9.7443159242979407e-05 0.0000000000000000e+00  -1.3792569462148020e-03 1.8495427215975159e-03 0.0000000000000000e+00  1.4677048728255965e-03 -2.5738830523190873e-03 0.0000000000000000e+00  -9.5377066792608201e-04 2.5495422893062657e-04 0.0000000000000000e+00  -4.4446502205539886e-04 4.8394074828008005e-05 0.0000000000000000e+00  7.9903602026745874e-03 -3.2612256935232050e-03 0.0000000000000000e+00  1.1589395724048967e-05 -1.5382437996170427e-04 0.0000000000000000e+00  2.1429738459330622e-03 -1.7949354655267973e-03 0.0000000000000000e+00  1.1882664517252404e-04 -4.4835717590417765e-04 0.0000000000000000e+00  1.0832551313151532e-03 -2.375562841