<?xml version="1.0"?>
<VTKFile type="UnstructuredGrid"  version="0.1"  >
<UnstructuredGrid>
<Piece  NumberOfPoints="1855" NumberOfCells="3532">
<Points>
<DataArray  type="Float64"  NumberOfComponents="3"  format="ascii">0 0 0  30 0 0  30 -10 0  0 -10 0  0.1391574078963744 0 0  0.2856388821882616 0 0  0.4398299073010886 0 0  0.6021362569539473 0 0  0.7729850389704483 0 0  0.9528258543586996 0 0  1.142131984380316 0 0  1.34140159760994 0 0  1.551159074717981 0 0  1.771956417032531 0 0  2.004374674080994 0 0  2.249025475789527 0 0  2.506552636773105 0 0  2.777633857742732 0 0  3.062982518028728 0 0  3.363349525995907 0 0  3.679525322337712 0 0  4.01234195575742 0 0  4.362675247811097 0 0  4.731447135329707 0 0  5.119628065610077 0 0  5.528239565804708 0 0  5.958356943167011 0 0  6.411112081475485 0 0  6.887696441559404 0 0  7.389364184530748 0 0  7.917435485335147 0 0  8.473300005202017 0 0  9.058420557070402 0 0  9.674336929103793 0 0  10.32266995225095 0 0  11.00512576896296 0 0  11.72350030646412 0 0  12.47968402994705 0 0  13.27566689579597 0 0  14.1135435963616 0 0  14.9955190732806 0 0  15.92391430904694 0 0  16.90117245730496 0 0  17.92986524844506 0 0  19.01269976086341 0 0  20.15252556282024 0 0  21.35234220269763 0 0  22.61530708683689 0 0  23.94474379751883 0 0  25.34415086349739 0 0  26.81721093579712 0 0  28.3678004819169 0 0  30 -1.111111111111111 0  30 -2.222222222222222 0  30 -3.333333333333333 0  30 -4.444444444444445 0  30 -5.555555555555555 0  30 -6.666666666666666 0  30 -7.777777777777777 0  30 -8.888888888888889 0  28.36780047917311 -10 0  26.8172109305839 -10 0  25.34415085606858 -10 0  23.94474378810899 -10 0  22.61530707566275 -10 0  21.3523421899591 -10 0  20.15252554870171 -10 0  19.01269974553473 -10 0  17.92986523206254 -10 0  16.90117244001232 -10 0  15.92391429097614 -10 0  14.99551905455266 -10 0  14.11354357708742 -10 0  13.27566687607703 -10 0  12.47968400987599 -10 0  11.72350028612546 -10 0  11.00512574843363 -10 0  10.32266993160086 -10 0  9.674336908396342 -10 0  9.058420536362949 -10 0  8.473299984546333 -10 0  7.917435464777824 -10 0  7.389364164113587 -10 0  6.887696420787165 -10 0  6.411112061446698 -10 0  5.95835692337857 -10 0  5.528239546282652 -10 0  5.119628046377237 -10 0  4.731447115907979 -10 0  4.362675229213632 -10 0  4.012341937260036 -10 0  3.679525304434552 -10 0  3.363349508456405 -10 0  3.062982500861274 -10 0  2.777633840953978 -10 0  2.506552620368097 -10 0  2.249025459771861 -10 0  2.004374658452946 -10 0  1.771956401795187 -10 0  1.551159059871345 -10 0  1.341401583153029 -10 0  1.142131970307521 -10 0  0.9528258406748833 -10 0  0.7729850256685147 -10 0  0.6021362439621285 -10 0  0.4398298947504031 -10 0  0.2856388700059078 -10 0  0.1391573960769001 -10 0  0 -9.855072463768115 0  0 -9.710144927536232 0  0 -9.565217391304348 0  0 -9.420289855072463 0  0 -9.27536231884058 0  0 -9.130434782608695 0  0 -8.985507246376812 0  0 -8.840579710144928 0  0 -8.695652173913043 0  0 -8.55072463768116 0  0 -8.405797101449275 0  0 -8.260869565217391 0  0 -8.115942028985508 0  0 -7.971014492753623 0  0 -7.826086956521739 0  0 -7.681159420289855 0  0 -7.536231884057971 0  0 -7.391304347826087 0  0 -7.246376811594203 0  0 -7.101449275362318 0  0 -6.956521739130435 0  0 -6.811594202898551 0  0 -6.666666666666667 0  0 -6.521739130434783 0  0 -6.376811594202898 0  0 -6.231884057971015 0  0 -6.086956521739131 0  0 -5.942028985507246 0  0 -5.797101449275362 0  0 -5.652173913043478 0  0 -5.507246376811594 0  0 -5.36231884057971 0  0 -5.217391304347826 0  0 -5.072463768115941 0  0 -4.927536231884058 0  0 -4.782608695652174 0  0 -4.637681159420289 0  0 -4.492753623188406 0  0 -4.347826086956522 0  0 -4.202898550724638 0  0 -4.057971014492754 0  0 -3.913043478260869 0  0 -3.768115942028985 0  0 -3.623188405797101 0  0 -3.478260869565217 0  0 -3.333333333333334 0  0 -3.188405797101449 0  0 -3.043478260869565 0  0 -2.898550724637681 0  0 -2.753623188405797 0  0 -2.608695652173912 0  0 -2.463768115942029 0  0 -2.318840579710145 0  0 -2.173913043478261 0  0 -2.028985507246377 0  0 -1.884057971014492 0  0 -1.739130434782609 0  0 -1.594202898550725 0  0 -1.44927536231884 0  0 -1.304347826086957 0  0 -1.159420289855072 0  0 -1.014492753623188 0  0 -0.8695652173913047 0  0 -0.72463768115942 0  0 -0.579710144927537 0  0 -0.4347826086956523 0  0 -0.2898550724637676 0  0 -0.1449275362318829 0  5.15859856094262 -4.976557621770688 0  2.816777084926057 -7.160262673925935 0  2.81677708460006 -2.839737326002783 0  2.227649803257325 -5.003121586636773 0  1.518662968975629 -8.46230852045241 0  1.518662969184829 -1.537691480152612 0  9.960740911025725 -5.055901393541221 0  1.491099662214591 -3.691833922963321 0  1.503675657181264 -6.345020369042368 0  5.319208041801049 -7.493850249937013 0  5.291109955459268 -2.489368743223226 0  1.096914507335763 -2.53623188405797 0  1.096914507253562 -7.463768115942029 0  1.089580194952752 -4.71277167923441 0  15.07565076110197 -5.047572991082069 0  7.501630508673601 -5.937500100385354 0  0.8894869418764504 -5.623930488933245 0  2.955144522453978 -1.440834296472408 0  2.955144521140721 -8.559165705576945 0  8.106603955004623 -2.748811534843258 0  3.662152539483591 -4.228178367024407 0  3.662181528265114 -5.771746159989156 0  0.8436558190317136 -0.8541050638451999 0  0.8436558075840921 -9.145894948342754 0  0.7854168197005933 -1.811594202898552 0  0.7894693398152999 -3.286543351392342 0  0.7854168196772591 -8.188405797101449 0  0.7854168196772591 -6.739130434782609 0  20.00078956016804 -4.999999999785771 0  0.7379120031523989 -3.977302749614766 0  6.584332478112232 -3.934875417052907 0  7.295091310194352 -7.969791332537982 0  9.811174303464586 -7.412814499648229 0  4.013376806449688 -2.206189431585293 0  4.013376806983409 -7.793810569017377 0  12.11177433894592 -2.818343737884045 0  2.591152707837148 -3.990098461753838 0  2.58990939378082 -6.025895074707176 0  25.43156400064585 -5.044446479916348 0  2.03262751726143 -2.282125834846944 0  2.032627517335952 -7.717874165160392 0  12.51865094522923 -6.491408052923457 0  0.598175343983641 -6.156971652625402 0  2.126700074935224 -0.8767654465386991 0  2.126700059112423 -9.123234559633019 0  6.617961838548696 -1.617756429129908 0  0.5903949564549755 -4.980060355019413 0  1.676697585305984 -5.547101897225158 0  4.773518305133987 -3.729331162566817 0  4.77931803486508 -6.231222307502165 0  4.878549698409591 -8.72048903376362 0  4.852580875634024 -1.222215410052823 0  0.5487847095754042 -2.675169258708207 0  0.545113423825768 -7.32369553390529 0  1.78738026998851 -4.400451872599477 0  1.68244194111824 -3.010100184333533 0  1.683984276238402 -7.018293626028473 0  9.998503440677371 -2.00585287985007 0  3.693061162502273 -3.243678395563028 0  3.694987482168253 -6.757603268814477 0  6.081763036485869 -5.83414381546261 0  0.5196640460586313 -1.350633211792632 0  0.5196640458460706 -8.649366789040087 0  3.84593363904758 -0.9906418103762418 0  3.845933620847308 -9.009358200471317 0  17.41551885287501 -3.057748733689079 0  17.30725517812527 -7.002961443761516 0  8.117698464370697 -4.451550942597151 0  0.4918476668493152 -0.4789811193757592 0  0.4918476560347713 -9.521018882514893 0  1.463770869328428 -0.6252343353791154 0  1.463770854281917 -9.374765668872765 0  0.5034132782032188 -4.464280853772128 0  3.138906271796685 -4.99999841599503 0  14.61209972381335 -2.388610981020637 0  6.208601124947327 -8.776231214192325 0  14.74910972998159 -7.542186851303819 0  2.243794246335625 -1.632184311040998 0  2.243794245689214 -8.367815689183566 0  0.4590235278399923 -5.431413993025926 0  0.4971508861448406 -2.209632053221267 0  0.4971508861368665 -7.790367946777407 0  0.4644363683211541 -3.560571347760519 0  6.478811279411406 -7.007392971062433 0  1.238895267772762 -4.173677632458826 0  1.293241773632479 -2.02256720952064 0  1.293241773542714 -7.977432790434841 0  0.4324740478030531 -0.942028985507247 0  0.4324740423701829 -9.057971014492754 0  2.117396640811705 -3.472968170680347 0  2.107095929630507 -6.531506384346077 0  8.087741545730886 -1.392783601483453 0  1.028911946384717 -1.352376108341404 0  1.028911946221715 -8.647623891551962 0  4.05691976296832 -4.991522392209158 0  11.51826881314265 -8.065248940008736 0  1.618560396201739 -4.958056164503666 0  2.701984523487646 -2.141781914603403 0  2.70198452396172 -7.858218085853512 0  2.843615645746219 -9.289121726447632 0  2.843615661334342 -0.7108782798429658 0  8.678774612240533 -8.488146490452822 0  6.487906449371135 -2.667543558824978 0  8.369190916679937 -7.129867754908394 0  11.80978191929258 -4.655775487536958 0  0.3792065166453504 -3.113833531412848 0  0.4134714637263563 -6.58827691137208 0  9.551050695080825 -3.49648183875815 0  1.083867845277057 -6.036251777836495 0  0.3756430921870901 -1.80381664325008 0  0.3756430921689482 -8.196183356748573 0  3.113073783220456 -3.503408140759125 0  3.113391383189963 -6.496678880796299 0  22.62850736315072 -3.277987336300344 0  22.59385352108348 -6.800312122582239 0  0.3777114402537816 -4.137047872695438 0  0.9196816123347897 -0.4281025456111269 0  0.9196815944880363 -9.571897460530383 0  0.4052043328723194 -5.827814332459883 0  8.865857694874787 -5.767686953139113 0  1.200388325130726 -5.182186034620629 0  5.65297436943758 -4.325500846767599 0  1.200079167961391 -3.009849046583253 0  1.20883344838 -7.021823297793294 0  1.057642414577487 -3.660996704809145 0  10.88812987788297 -6.333458225047037 0  4.493502926606794 -2.839780197438185 0  4.485862892033458 -7.147606077919463 0  0.3631651408878085 -7.003529808558233 0  1.946748828463205 -6.049056369468467 0  6.918750162798794 -4.993796052442676 0  3.351203216022585 -1.980935554775394 0  3.351203216441711 -8.019064445907297 0  2.281892243515294 -2.856654416292082 0  2.281892243715877 -7.143345583598931 0  5.811143619672087 -0.9953286820321026 0  2.695713766833098 -4.565354125099452 0  2.698172168139827 -5.435483248292925 0  19.86166219288896 -2.493475492328429 0  19.83739102036415 -7.594404063416508
[...]
<PointData  Vectors="displacement"> 
<DataArray  type="Float64"  Name="displacement"  NumberOfComponents="3" format="ascii">1.0176194914810663e-01 5.0795834627380215e-02 0.0000000000000000e+00  1.5596641858210006e-07 1.1355500425137022e-04 0.0000000000000000e+00  -2.2642797471486823e-07 -1.1618895295823681e-07 0.0000000000000000e+00  1.4794252474626915e-07 -1.4220684676654599e-07 0.0000000000000000e+00  5.1578155429697202e-02 5.8022325197130270e-03 0.0000000000000000e+00  2.8186013064442343e-02 2.6964402447187518e-03 0.0000000000000000e+00  1.9448911634266396e-02 7.8712451960862332e-04 0.0000000000000000e+00  1.3691102277691386e-02 4.1786354401245692e-04 0.0000000000000000e+00  1.0912865007883436e-02 1.9021464069581970e-05 0.0000000000000000e+00  8.7377584810073138e-03 -1.5291920175380355e-04 0.0000000000000000e+00  7.3319106951232789e-03 -2.4731374047885356e-04 0.0000000000000000e+00  6.2466341534921721e-03 -3.3253885298470756e-04 0.0000000000000000e+00  5.3479672226675800e-03 -3.6398353023071975e-04 0.0000000000000000e+00  4.6614047571686837e-03 -4.0211571307700102e-04 0.0000000000000000e+00  4.0663459855850874e-03 -4.1022435258936227e-04 0.0000000000000000e+00  3.6256268859548475e-03 -4.0123706141351255e-04 0.0000000000000000e+00  3.2075896825762324e-03 -4.1300822906328952e-04 0.0000000000000000e+00  2.8782756082253815e-03 -4.1516789618037300e-04 0.0000000000000000e+00  2.5611527059136228e-03 -4.0603806257953943e-04 0.0000000000000000e+00  2.3038660610759242e-03 -3.9395833904052013e-04 0.0000000000000000e+00  2.0718783247746834e-03 -3.7821644609185477e-04 0.0000000000000000e+00  1.8688538008954975e-03 -3.6048032395134133e-04 0.0000000000000000e+00  1.6912911466287351e-03 -3.4367587249451548e-04 0.0000000000000000e+00  1.5267246513839569e-03 -3.2465565109897609e-04 0.0000000000000000e+00  1.3753415567416159e-03 -2.9869924618478364e-04 0.0000000000000000e+00  1.2437799653953478e-03 -2.6989770168817979e-04 0.0000000000000000e+00  1.1310595800645435e-03 -2.4398490322180265e-04 0.0000000000000000e+00  1.0208354996945454e-03 -2.1305457721293330e-04 0.0000000000000000e+00  9.2659619175634162e-04 -1.8289075672422157e-04 0.0000000000000000e+00  8.3663808958734536e-04 -1.4985920776239986e-04 0.0000000000000000e+00  7.5707320647833208e-04 -1.1567966455728193e-04 0.0000000000000000e+00  6.8774423773429786e-04 -8.0811774857815494e-05 0.0000000000000000e+00  6.2949320381566081e-04 -4.8809265090182491e-05 0.0000000000000000e+00  5.7247360627488239e-04 -1.5717870197216658e-05 0.0000000000000000e+00  5.2348926993426670e-04 1.5164190603308135e-05 0.0000000000000000e+00  4.8061528169258348e-04 4.4647054814083083e-05 0.0000000000000000e+00  4.4485058241365913e-04 7.0201653123166214e-05 0.0000000000000000e+00  4.1105622909187365e-04 9.3376988809361046e-05 0.0000000000000000e+00  3.8240061105615600e-04 1.1199962108102588e-04 0.0000000000000000e+00  3.5367968479130534e-04 1.2803101224009617e-04 0.0000000000000000e+00  3.2989855780010783e-04 1.3884848003668386e-04 0.0000000000000000e+00  3.0456900056058232e-04 1.4681697174668933e-04 0.0000000000000000e+00  2.8167723131864613e-04 1.5043925571734895e-04 0.0000000000000000e+00  2.5710038402856710e-04 1.5143602615783728e-04 0.0000000000000000e+00  2.3415839457925625e-04 1.4923516175425301e-04 0.0000000000000000e+00  2.0805144721445509e-04 1.4518860691527816e-04 0.0000000000000000e+00  1.8216304526105242e-04 1.3990198958356990e-04 0.0000000000000000e+00  1.5451462452770423e-04 1.3399866176669998e-04 0.0000000000000000e+00  1.2809912472056166e-04 1.2765699030473145e-04 0.0000000000000000e+00  9.7884909735098654e-05 1.2128630435580756e-04 0.0000000000000000e+00  6.5677093193755178e-05 1.1656771815093627e-04 0.0000000000000000e+00  3.2705389047346719e-05 1.1398089703275957e-04 0.0000000000000000e+00  3.7551283991663220e-07 9.4996439884521437e-05 0.0000000000000000e+00  -9.8868598558934696e-08 7.5051582036300311e-05 0.0000000000000000e+00  -4.5929226745870962e-08 5.6670057855931564e-05 0.0000000000000000e+00  1.0249487414118442e-07 4.0341667392783581e-05 0.0000000000000000e+00  -1.3377955852700546e-07 2.6117977893607088e-05 0.0000000000000000e+00  1.0936815165451440e-07 1.4542956641870948e-05 0.0000000000000000e+00  -8.2494828823751476e-08 6.0272140222540793e-06 0.0000000000000000e+00  -7.9898853880349009e-09 9.4328840386293313e-07 0.0000000000000000e+00  -1.1804707958068166e-07 -5.0984441318882676e-07 0.0000000000000000e+00  -1.3743959906778274e-09 -5.6328279982963461e-07 0.0000000000000000e+00  4.4956066465856625e-07 -6.2562536805920189e-07 0.0000000000000000e+00  6.3701016237423363e-08 -1.9873156375743522e-07 0.0000000000000000e+00  1.0101506447344498e-07 -3.2042835011668918e-07 0.0000000000000000e+00  5.1744588739042568e-07 -4.5089420435812340e-07 0.0000000000000000e+00  1.7223842558367647e-07 -6.1043455637622345e-07 0.0000000000000000e+00  8.4402510358365450e-07 -5.7114328324608945e-07 0.0000000000000000e+00  2.6531702882267939e-07 -3.6109108213614940e-07 0.0000000000000000e+00  8.2845534125041807e-07 -4.1462953729237392e-07 0.0000000000000000e+00  4.3768411986297755e-07 -1.6587527077248290e-07 0.0000000000000000e+00  6.2593206438961659e-07 -2.0999123556950522e-07 0.0000000000000000e+00  6.4170178913871421e-07 4.2841322929217612e-08 0.0000000000000000e+00  7.4872301080590607e-07 4.4923794991582038e-08 0.0000000000000000e+00  2.1963838219026963e-07 9.9586334781754232e-08 0.0000000000000000e+00  4.6499149813229148e-07 3.4400391760002494e-07 0.0000000000000000e+00  -1.9725885514507969e-08 1.0134662707477241e-07 0.0000000000000000e+00  6.8445038813873489e-07 9.0450652004554879e-07 0.0000000000000000e+00  2.1996609168507976e-07 6.3360759842028757e-07 0.0000000000000000e+00  4.8222965123324799e-07 5.8752900424146067e-07 0.0000000000000000e+00  -4.1917042304675660e-07 5.7287873320675035e-07 0.0000000000000000e+00  8.0685469742195049e-08 8.7536117677868152e-07 0.0000000000000000e+00  -5.6383266425200396e-07 1.1952161153738172e-06 0.0000000000000000e+00  -6.7240095753338564e-07 7.3281308657648663e-07 0.0000000000000000e+00  -6.5893818996425139e-07 3.5668561236411132e-07 0.0000000000000000e+00  -1.8560323759154524e-06 9.0940887615156600e-07 0.0000000000000000e+00  -7.2639824391740976e-07 4.1848268228033520e-07 0.0000000000000000e+00  -1.2872723804974757e-06 4.9571588188221338e-07 0.0000000000000000e+00  -8.0509881130304314e-07 3.0595622240090713e-07 0.0000000000000000e+00  -1.9320349266026959e-06 4.8277998876388882e-07 0.0000000000000000e+00  -1.8564435195688306e-07 -1.7707800016706906e-08 0.0000000000000000e+00  -7.9286821514507299e-07 3.1608919822636591e-08 0.0000000000000000e+00  -6.5935070553673672e-07 1.3011121260880095e-08 0.0000000000000000e+00  -4.7851621607625627e-07 -4.0540781908881770e-08 0.0000000000000000e+00  -1.0828556705175445e-06 -2.1875965120909497e-07 0.0000000000000000e+00  -2.5853599987352446e-07 -8.7964064057771631e-08 0.0000000000000000e+00  -8.8842287778493370e-07 -3.0406619660092981e-07 0.0000000000000000e+00  -1.2581233626323435e-07 -7.3891532620488685e-08 0.0000000000000000e+00  -1.5598998306909356e-07 -2.3920337593978606e-07 0.0000000000000000e+00  -3.8784628979785952e-07 -2.1069743555681208e-07 0.0000000000000000e+00  -2.1154308721966156e-07 -2.2471552437083262e-07 0.0000000000000000e+00  -5.3083976321294956e-08 -7.9978357981330538e-08 0.0000000000000000e+00  -1.2456773626691290e-07 -1.1925971101154480e-07 0.0000000000000000e+00  -1.1391162619453044e-08 -1.5187913285278780e-07 0.0000000000000000e+00  3.9782497196216546e-10 -8.1217539095488739e-08 0.0000000000000000e+00  -1.7934185567118194e-07 -1.4242113621978733e-07 0.0000000000000000e+00  4.2323646607795005e-08 -1.4231283866413543e-07 0.0000000000000000e+00  -4.3176805000586608e-08 -4.7245395230856250e-08 0.0000000000000000e+00  -3.5857907305249408e-08 4.1074441277144066e-06 0.0000000000000000e+00  5.2995923503307598e-08 1.0430357925769921e-05 0.0000000000000000e+00  -6.6087882733751553e-08 1.8553096277510141e-05 0.0000000000000000e+00  6.0939425123271655e-09 2.8509865352042692e-05 0.0000000000000000e+00  -3.0968416990319492e-08 3.9943307594982885e-05 0.0000000000000000e+00  -2.4681573005115565e-08 5.2981536070193809e-05 0.0000000000000000e+00  5.6081500637057554e-08 6.7344413744653241e-05 0.0000000000000000e+00  -5.2159076057254095e-08 8.3035186654617307e-05 0.0000000000000000e+00  4.7610393109189936e-08 9.9984795985520196e-05 0.0000000000000000e+00  -6.3096721279659117e-08 1.1809304780188075e-04 0.0000000000000000e+00  3.8811630622626105e-08 1.3731379467034642e-04 0.0000000000000000e+00  -2.4987593875858919e-08 1.5763596646135492e-04 0.0000000000000000e+00  2.8090562486166524e-08 1.7901511864138578e-04 0.0000000000000000e+00  -5.2022209214093822e-08 2.0140099318774265e-04 0.0000000000000000e+00  3.2013537832191778e-08 2.2482073250119992e-04 0.0000000000000000e+00  -3.8497119445448438e-08 2.4923349045438253e-04 0.0000000000000000e+00  -2.4792923851211881e-08 2.7470435933248804e-04 0.0000000000000000e+00  1.2335947894666988e-08 3.0109028007316031e-04 0.0000000000000000e+00  2.9580218620772988e-08 3.2860214484165830e-04 0.0000000000000000e+00  -1.4235507435618547e-08 3.5710872286471380e-04 0.0000000000000000e+00  2.1171371108241421e-08 3.8670498893786528e-04 0.0000000000000000e+00  -5.5756834452283288e-08 4.1738086756897978e-04 0.0000000000000000e+00  1.5549816265844739e-08 4.4932146705996040e-04 0.0000000000000000e+00  6.6784440687181911e-09 4.8221532907593006e-04 0.0000000000000000e+00  -9.0440606223873034e-09 5.1669223896794896e-04 0.0000000000000000e+00  -6.7193910982680076e-08 5.5248668310203830e-04 0.0000000000000000e+00  -3.2608930770819935e-08 5.8954497907382061e-04 0.0000000000000000e+00  -3.3496345314017942e-08 6.2794643040563550e-04 0.0000000000000000e+00  4.6518304464368248e-08 6.6812092726389438e-04 0.0000000000000000e+00  -8.4807757608388051e-08 7.1002933573903286e-04 0.0000000000000000e+00  2.8493736992782458e-08 7.5382688547110505e-04 0.0000000000000000e+00  -9.3834731397463351e-08 7.9955240209656137e-04 0.0000000000000000e+00  3.4774569247942634e-08 8.4753524932084019e-04 0.0000000000000000e+00  -7.3239420497941672e-08 8.9761851094053748e-04 0.0000000000000000e+00  -3.8247813200454327e-08 9.5000115316656311e-04 0.0000000000000000e+00  -4.9448273502122029e-08 1.0061154957557701e-03 0.0000000000000000e+00  -9.1924255911564521e-09 1.0637795810668812e-03 0.0000000000000000e+00  1.1313995088441887e-07 1.1263382207878545e-03 0.0000000000000000e+00  -2.8083862997165698e-07 1.1915919065429369e-03 0.0000000000000000e+00  1.4984842470616944e-07 1.2604241628662240e-03 0.0000000000000000e+00  -1.6129076056848054e-07 1.3341343175009767e-03 0.0000000000000000e+00  1.0904614112902966e-07 1.4129589586480821e-03 0.0000000000000000e+00  -1.6424370774751348e-07 1.4970674862860725e-03 0.0000000000000000e+00  -1.1205809156850314e-07 1.5866459246043547e-03 0.0000000000000000e+00  -3.9127846127578205e-08 1.6846953118676170e-03 0.0000000000000000e+00  4.1228368032499012e-07 1.7888830583513116e-03 0.0000000000000000e+00  -2.8222410729746565e-07 1.9022884763255608e-03 0.0000000000000000e+00  6.6974613346559131e-09 2.0261122945130416e-03 0.0000000000000000e+00  1.2609321278185643e-07 2.1619287312364620e-03 0.0000000000000000e+00  -1.1569559268258712e-07 2.3088540481193427e-03 0.0000000000000000e+00  -1.3475849994659863e-07 2.4692079331388797e-03 0.0000000000000000e+00  -7.1669896097349580e-07 2.6537512083739871e-03 0.0000000000000000e+00  7.1875575772482645e-07 2.8546680825394782e-03 0.0000000000000000e+00  -1.0521228511947289e-06 3.0800155600012396e-03 0.0000000000000000e+00  1.3739953097787002e-06 3.3383992199149445e-03 0.0000000000000000e+00  -1.8672392118868513e-06 3.6311728438908437e-03 0.0000000000000000e+00  5.0346090347787479e-07 3.9716033164206100e-03 0.0000000000000000e+00  -3.2430885765595787e-06 4.3669325447241100e-03 0.0000000000000000e+00  1.2631230731088119e-06 4.8518542827072431e-03 0.0000000000000000e+00  -9.0605454671894116e-06 5.4107561660898338e-03 0.0000000000000000e+00  2.4474280251431316e-06 6.1114664838245215e-03 0.0000000000000000e+00  -1.3372890170190283e-05 6.9593889123313549e-03 0.0000000000000000e+00  -7.1328157170619578e-06 8.1115528882588928e-03 0.0000000000000000e+00  -1.6357723637560660e-05 9.7509001876419921e-03 0.0000000000000000e+00  -7.5408542774098175e-05 1.1835138584253089e-02 0.0000000000000000e+00  -1.1379612252405256e-04 1.5165063227017706e-02 0.0000000000000000e+00  3.4849334116315514e-04 2.1746043743776578e-02 0.0000000000000000e+00  -3.6157737892128831e-03 3.3191946287550025e-02 0.0000000000000000e+00  -6.5746844612564001e-05 -3.7662310580949683e-04 0.0000000000000000e+00  -3.3375334143368140e-04 9.1201753025868653e-05 0.0000000000000000e+00  -3.1523514842897416e-05 -4.6276113679363139e-04 0.0000000000000000e+00  -4.3965268192774866e-04 2.9664817368540503e-04 0.0000000000000000e+00  -1.5930148533948362e-04 9.8987663247044586e-05 0.0000000000000000e+00  9.6988372478859389e-05 -3.7962299717688862e-04 0.0000000000000000e+00  2.7514684193469810e-04 -1.6523241414621040e-04 0.0000000000000000e+00  -5.3994446186491436e-04 7.5939340399446269e-04 0.0000000000000000e+00  -2.8891625050111297e-04 3.7365292992884045e-04 0.0000000000000000e+00  -2.1957640604413595e-04 -1.0472663411967200e-04 0.0000000000000000e+00  6.8358905579167886e-04 -6.8314628409720077e-04 0.0000000000000000e+00  -7.2428016589631751e-04 1.2781902517801712e-03 0.0000000000000000e+00  -1.7017204633413654e-04 2.4768165298678690e-04 0.0000000000000000e+00  -3.4924216739476161e-04 8.0478757285137403e-04 0.0000000000000000e+00  2.5436181511568013e-04 2.1454615435895390e-05 0.0000000000000000e+00  6.2520065009236537e-05 -2.5134533846536439e-04 0.0000000000000000e+00  -2.2788595665054642e-04 6.3048286084509890e-04 0.0000000000000000e+00  1.3355488028519956e-03 -1.0725218304104204e-03 0.0000000000000000e+00  -2.2566474928541948e-04 3.2816356579306079e-05 0.0000000000000000e+00  5.5872534884004576e-04 -3.3721626565732962e-04 0.0000000000000000e+00  -1.9982468731301019e-04 -3.1216124684273731e-04 0.0000000000000000e+00  -3.4358996143134447e-04 -8.2558900595590309e-05 0.0000000000000000e+00  3.7159290926031539e-04 -1.4957115309938019e-04 0.0000000000000000e+00  -6.1097615223762683e-05 4.7769103299058444e-05 0.0000000000000000e+00  -9.5576086437166143e-04 2.0264092757583925e-03 0.0000000000000000e+00  -4.7292685750907105e-04 1.4574683865972197e-03 0.0000000000000000e+00  -9.9353550705539746e-05 1.5661062330285641e-04 0.0000000000000000e+00  -1.5218259142869552e-04 3.9857145828223190e-04 0.0000000000000000e+00  1.6004655792886094e-04 4.7480146898055094e-05 0.0000000000000000e+00  -3.3541886758608005e-04 1.1921628057536165e-03 0.0000000000000000e+00  3.1057445443774431e-04 -4.6964522669216334e-04 0.0000000000000000e+00  -6.9005608575832734e-05 -8.7762279994683232e-05 0.0000000000000000e+00  9.3394598953353827e-05 -7.9629850636975171e-05 0.0000000000000000e+00  7.5609164496567881e-04 -8.4612500100101273e-04 0.0000000000000000e+00  -2.8504605012904150e-04 -2.2608114963881667e-05 0.0000000000000000e+00  4.0672066400068756e-04 -2.6033507457190743e-05 0.0000000000000000e+00  -4.0611289043031133e-04 4.0521586341868938e-05 0.0000000000000000e+00  -3.8976115989365590e-04 1.6527222851950985e-04 0.0000000000000000e+00  6.5768193937524444e-05 3.6283528992109351e-05 0.0000000000000000e+00  -1.6187193976066177e-04 -2.4813650135762884e-04 0.0000000000000000e+00  -2.5531737964585254e-04 1.4076743006371492e-04 0.0000000000000000e+00  2.0648112979520540e-04 -3.6294419202508503e-05 0.0000000000000000e+00  -1.3719682683108889e-04 5.4201400534226120e-04 0.0000000000000000e+00  2.3469752926650140e-03 -1.3343172923427128e-03 0.0000000000000000e+00  -1.3455757802826451e-04 3.1692222150334540e-05 0.0000000000000000e+00  8.5835357261729100e-04 -4.5301658562694314e-04 0.0000000000000000e+00  -1.9171353491748919e-04 8.7135111147473388e-04 0.0000000000000000e+00  -3.6871993239304791e-04 4.4887411003636634e-04 0.0000000000000000e+00  1.6290314162327408e-04 -5.6484203225294063e-04 0.0000000000000000e+00  -2.4552585332973778e-04 -1.8654329465752226e-04 0.0000000000000000e+00  -1.8220694914982029e-04 -2.4166974994981597e-05 0.0000000000000000e+00  1.2512399604823036e-03 -6.7016053457502405e-04 0.0000000000000000e+00  -5.0272700910202741e-04 2.0572361516658878e-03 0.0000000000000000e+00  -9.2006187584921988e-05 3.0242966983113706e-04 0.0000000000000000e+00  -4.7717823253354302e-04 5.2160560095407553e-04 0.0000000000000000e+00  -5.7228378810266682e-04 5.2629459589413217e-04 0.0000000000000000e+00  -2.6870974384899814e-04 2.5274831550634486e-04 0.0000000000000000e+00  5.3489831260310325e-04 -1.2622795872179964e-04 0.0000000000000000e+00  9.9958108077545537e-05 -5.7597419403909711e-04 0.0000000000000000e+00  -3.3967338314126310e-04 -2.6307743122465192e-05 0.0000000000000000e+00  -6.4151831083628691e-05 -2.8903415482054785e-04 0.0000000000000000e+00  -1.2161624291611335e-03 3.2772769772054905e-03 0.0000000000000000e+00  -5.4250787015630228e-05 1.0250052511806388e-04 0.0000000000000000e+00  1.6366541397632814e-03 -8.1874633898557450e-04 0.0000000000000000e+00  -1.7494772043721222e-04 1.3183376527752068e-06 0.0000000000000000e+00  2.5106766866604143e-04 8.2993982445021938e-05 0.0000000000000000e+00  1.4788596527957388e-04 1.4765049371073891e-05 0.0000000000000000e+00  2.9471068855097958e-04 -3.1623376042325607e-04 0.0000000000000000e+00  1.3498103764657090e-03 -4.6194389890753525e-05 0.0000000000000000e+00  -2.2393480776525031e-05 2.0912942370834337e-05 0.0000000000000000e+00  3.3771829315674649e-03 -1.6509913389262617e-03 0.0000000000000000e+00  -7.7598094544612859e-05 2.5460521072554500e-05 0.0000000000000000e+00  -1.9825229483146856e-04 1.0764472748968790e-03 0.0000000000000000e+00  -3.7585104260171758e-04 -3.1253081420952371e-05 0.0000000000000000e+00  3.3673581213223728e-04 6.8188234430223394e-05 0.0000000000000000e+00  -1.1599377527954842e-04 -3.6302947201429202e-05 0.0000000000000000e+00  1.4900746874961586e-04 -1.5025864413177933e-06 0.0000000000000000e+00  7.6087497961451259e-04 -9.4825335601366693e-04 0.0000000000000000e+00  -2.1803115387426008e-04 7.4914133024704392e-05 0.0000000000000000e+00  -1.3105463830094600e-04 7.5014927102341430e-04 0.0000000000000000e+00  -6.3138490530487840e-04 2.5441001675244484e-03 0.0000000000000000e+00  -7.3428650714995141e-05 2.2408228784693735e-04 0.0000000000000000e+00  -2.7099336442605164e-04 1.5222407955470482e-03 0.0000000000000000e+00  -1.1007575115089676e-04 -1.6958245663280014e-04 0.0000000000000000e+00  -4.4592259863635828e-04 8.6229288296563341e-04 0.0000000000000000e+00  -6.5015162401972865e-04 6.9812844179515223e-04 0.0000000000000000e+00  -1.6814161391734029e-04 1.6379847490387812e-04 0.0000000000000000e+00  -1.5718218365626121e-03 4.0237046637386625e-03 0.0000000000000000e+00  -3.4606856127867479e-05 5.8749961796639750e-05 0.0000000000000000e+00  -4.7698317305967385e-04 2.3208359494850841e-04 0.0000000000000000e+00  -3.3952959257679848e-04 2.3957009305272981e-04 0.0000000000000000e+00  7.2050852836283614e-04 -2.5535139241072589e-04 0.0000000000000000e+00  -5.3223979221018634e-04 5.9816352160726603e-04 0.0000000000000000e+00  -1.0403065029105636e-04 9.3930140730719481e-05 0.0000000000000000e+00  -2.4076188034546553e-04 -2.5350542513985063e-04 0.0000000000000000e+00  1.0683978809577370e-04 -2.8481923953146520e-05 0.0000000000000000e+00  -4.1229312522920634e-04 5.4675470662950620e-04 0.0000000000000000e+00  4.1433628166585206e-04 -7.7405147737920745e-04 0.0000000000000000e+00  -2.8182133558677308e-04 7.4841154273930284e-05 0.0000000000000000e+00  -1.3108237700764172e-04 1.4174369291514788e-05 0.0000000000000000e+00  2.3282140775001750e-03 -9.8309304634638375e-04 0.0000000000000000e+00  3.0115354205353308e-06 -4.5148917921440527e-05 0.0000000000000000e+00  6.2240645374142881e-04 -5.2874324765794887e-04 0.0000000000000000e+00  3.3754774905830932e-05 -1.3166157918221639e-04 0.0000000000000000e+00  3.1497327867459606e-04 -6.952690