<?xml version="1.0"?>
<VTKFile type="UnstructuredGrid"  version="0.1"  >
<UnstructuredGrid>
<Piece  NumberOfPoints="1855" NumberOfCells="3532">
<Points>
<DataArray  type="Float64"  NumberOfComponents="3"  format="ascii">0 0 0  30 0 0  30 -10 0  0 -10 0  0.1391574078963744 0 0  0.2856388821882616 0 0  0.4398299073010886 0 0  0.6021362569539473 0 0  0.7729850389704483 0 0  0.9528258543586996 0 0  1.142131984380316 0 0  1.34140159760994 0 0  1.551159074717981 0 0  1.771956417032531 0 0  2.004374674080994 0 0  2.249025475789527 0 0  2.506552636773105 0 0  2.777633857742732 0 0  3.062982518028728 0 0  3.363349525995907 0 0  3.679525322337712 0 0  4.01234195575742 0 0  4.362675247811097 0 0  4.731447135329707 0 0  5.119628065610077 0 0  5.528239565804708 0 0  5.958356943167011 0 0  6.411112081475485 0 0  6.887696441559404 0 0  7.389364184530748 0 0  7.917435485335147 0 0  8.473300005202017 0 0  9.058420557070402 0 0  9.674336929103793 0 0  10.32266995225095 0 0  11.00512576896296 0 0  11.72350030646412 0 0  12.47968402994705 0 0  13.27566689579597 0 0  14.1135435963616 0 0  14.9955190732806 0 0  15.92391430904694 0 0  16.90117245730496 0 0  17.92986524844506 0 0  19.01269976086341 0 0  20.15252556282024 0 0  21.35234220269763 0 0  22.61530708683689 0 0  23.94474379751883 0 0  25.34415086349739 0 0  26.81721093579712 0 0  28.3678004819169 0 0  30 -1.111111111111111 0  30 -2.222222222222222 0  30 -3.333333333333333 0  30 -4.444444444444445 0  30 -5.555555555555555 0  30 -6.666666666666666 0  30 -7.777777777777777 0  30 -8.888888888888889 0  28.36780047917311 -10 0  26.8172109305839 -10 0  25.34415085606858 -10 0  23.94474378810899 -10 0  22.61530707566275 -10 0  21.3523421899591 -10 0  20.15252554870171 -10 0  19.01269974553473 -10 0  17.92986523206254 -10 0  16.90117244001232 -10 0  15.92391429097614 -10 0  14.99551905455266 -10 0  14.11354357708742 -10 0  13.27566687607703 -10 0  12.47968400987599 -10 0  11.72350028612546 -10 0  11.00512574843363 -10 0  10.32266993160086 -10 0  9.674336908396342 -10 0  9.058420536362949 -10 0  8.473299984546333 -10 0  7.917435464777824 -10 0  7.389364164113587 -10 0  6.887696420787165 -10 0  6.411112061446698 -10 0  5.95835692337857 -10 0  5.528239546282652 -10 0  5.119628046377237 -10 0  4.731447115907979 -10 0  4.362675229213632 -10 0  4.012341937260036 -10 0  3.679525304434552 -10 0  3.363349508456405 -10 0  3.062982500861274 -10 0  2.777633840953978 -10 0  2.506552620368097 -10 0  2.249025459771861 -10 0  2.004374658452946 -10 0  1.771956401795187 -10 0  1.551159059871345 -10 0  1.341401583153029 -10 0  1.142131970307521 -10 0  0.9528258406748833 -10 0  0.7729850256685147 -10 0  0.6021362439621285 -10 0  0.4398298947504031 -10 0  0.2856388700059078 -10 0  0.1391573960769001 -10 0  0 -9.855072463768115 0  0 -9.710144927536232 0  0 -9.565217391304348 0  0 -9.420289855072463 0  0 -9.27536231884058 0  0 -9.130434782608695 0  0 -8.985507246376812 0  0 -8.840579710144928 0  0 -8.695652173913043 0  0 -8.55072463768116 0  0 -8.405797101449275 0  0 -8.260869565217391 0  0 -8.115942028985508 0  0 -7.971014492753623 0  0 -7.826086956521739 0  0 -7.681159420289855 0  0 -7.536231884057971 0  0 -7.391304347826087 0  0 -7.246376811594203 0  0 -7.101449275362318 0  0 -6.956521739130435 0  0 -6.811594202898551 0  0 -6.666666666666667 0  0 -6.521739130434783 0  0 -6.376811594202898 0  0 -6.231884057971015 0  0 -6.086956521739131 0  0 -5.942028985507246 0  0 -5.797101449275362 0  0 -5.652173913043478 0  0 -5.507246376811594 0  0 -5.36231884057971 0  0 -5.217391304347826 0  0 -5.072463768115941 0  0 -4.927536231884058 0  0 -4.782608695652174 0  0 -4.637681159420289 0  0 -4.492753623188406 0  0 -4.347826086956522 0  0 -4.202898550724638 0  0 -4.057971014492754 0  0 -3.913043478260869 0  0 -3.768115942028985 0  0 -3.623188405797101 0  0 -3.478260869565217 0  0 -3.333333333333334 0  0 -3.188405797101449 0  0 -3.043478260869565 0  0 -2.898550724637681 0  0 -2.753623188405797 0  0 -2.608695652173912 0  0 -2.463768115942029 0  0 -2.318840579710145 0  0 -2.173913043478261 0  0 -2.028985507246377 0  0 -1.884057971014492 0  0 -1.739130434782609 0  0 -1.594202898550725 0  0 -1.44927536231884 0  0 -1.304347826086957 0  0 -1.159420289855072 0  0 -1.014492753623188 0  0 -0.8695652173913047 0  0 -0.72463768115942 0  0 -0.579710144927537 0  0 -0.4347826086956523 0  0 -0.2898550724637676 0  0 -0.1449275362318829 0  5.15859856094262 -4.976557621770688 0  2.816777084926057 -7.160262673925935 0  2.81677708460006 -2.839737326002783 0  2.227649803257325 -5.003121586636773 0  1.518662968975629 -8.46230852045241 0  1.518662969184829 -1.537691480152612 0  9.960740911025725 -5.055901393541221 0  1.491099662214591 -3.691833922963321 0  1.503675657181264 -6.345020369042368 0  5.319208041801049 -7.493850249937013 0  5.291109955459268 -2.489368743223226 0  1.096914507335763 -2.53623188405797 0  1.096914507253562 -7.463768115942029 0  1.089580194952752 -4.71277167923441 0  15.07565076110197 -5.047572991082069 0  7.501630508673601 -5.937500100385354 0  0.8894869418764504 -5.623930488933245 0  2.955144522453978 -1.440834296472408 0  2.955144521140721 -8.559165705576945 0  8.106603955004623 -2.748811534843258 0  3.662152539483591 -4.228178367024407 0  3.662181528265114 -5.771746159989156 0  0.8436558190317136 -0.8541050638451999 0  0.8436558075840921 -9.145894948342754 0  0.7854168197005933 -1.811594202898552 0  0.7894693398152999 -3.286543351392342 0  0.7854168196772591 -8.188405797101449 0  0.7854168196772591 -6.739130434782609 0  20.00078956016804 -4.999999999785771 0  0.7379120031523989 -3.977302749614766 0  6.584332478112232 -3.934875417052907 0  7.295091310194352 -7.969791332537982 0  9.811174303464586 -7.412814499648229 0  4.013376806449688 -2.206189431585293 0  4.013376806983409 -7.793810569017377 0  12.11177433894592 -2.818343737884045 0  2.591152707837148 -3.990098461753838 0  2.58990939378082 -6.025895074707176 0  25.43156400064585 -5.044446479916348 0  2.03262751726143 -2.282125834846944 0  2.032627517335952 -7.717874165160392 0  12.51865094522923 -6.491408052923457 0  0.598175343983641 -6.156971652625402 0  2.126700074935224 -0.8767654465386991 0  2.126700059112423 -9.123234559633019 0  6.617961838548696 -1.617756429129908 0  0.5903949564549755 -4.980060355019413 0  1.676697585305984 -5.547101897225158 0  4.773518305133987 -3.729331162566817 0  4.77931803486508 -6.231222307502165 0  4.878549698409591 -8.72048903376362 0  4.852580875634024 -1.222215410052823 0  0.5487847095754042 -2.675169258708207 0  0.545113423825768 -7.32369553390529 0  1.78738026998851 -4.400451872599477 0  1.68244194111824 -3.010100184333533 0  1.683984276238402 -7.018293626028473 0  9.998503440677371 -2.00585287985007 0  3.693061162502273 -3.243678395563028 0  3.694987482168253 -6.757603268814477 0  6.081763036485869 -5.83414381546261 0  0.5196640460586313 -1.350633211792632 0  0.5196640458460706 -8.649366789040087 0  3.84593363904758 -0.9906418103762418 0  3.845933620847308 -9.009358200471317 0  17.41551885287501 -3.057748733689079 0  17.30725517812527 -7.002961443761516 0  8.117698464370697 -4.451550942597151 0  0.4918476668493152 -0.4789811193757592 0  0.4918476560347713 -9.521018882514893 0  1.463770869328428 -0.6252343353791154 0  1.463770854281917 -9.374765668872765 0  0.5034132782032188 -4.464280853772128 0  3.138906271796685 -4.99999841599503 0  14.61209972381335 -2.388610981020637 0  6.208601124947327 -8.776231214192325 0  14.74910972998159 -7.542186851303819 0  2.243794246335625 -1.632184311040998 0  2.243794245689214 -8.367815689183566 0  0.4590235278399923 -5.431413993025926 0  0.4971508861448406 -2.209632053221267 0  0.4971508861368665 -7.790367946777407 0  0.4644363683211541 -3.560571347760519 0  6.478811279411406 -7.007392971062433 0  1.238895267772762 -4.173677632458826 0  1.293241773632479 -2.02256720952064 0  1.293241773542714 -7.977432790434841 0  0.4324740478030531 -0.942028985507247 0  0.4324740423701829 -9.057971014492754 0  2.117396640811705 -3.472968170680347 0  2.107095929630507 -6.531506384346077 0  8.087741545730886 -1.392783601483453 0  1.028911946384717 -1.352376108341404 0  1.028911946221715 -8.647623891551962 0  4.05691976296832 -4.991522392209158 0  11.51826881314265 -8.065248940008736 0  1.618560396201739 -4.958056164503666 0  2.701984523487646 -2.141781914603403 0  2.70198452396172 -7.858218085853512 0  2.843615645746219 -9.289121726447632 0  2.843615661334342 -0.7108782798429658 0  8.678774612240533 -8.488146490452822 0  6.487906449371135 -2.667543558824978 0  8.369190916679937 -7.129867754908394 0  11.80978191929258 -4.655775487536958 0  0.3792065166453504 -3.113833531412848 0  0.4134714637263563 -6.58827691137208 0  9.551050695080825 -3.49648183875815 0  1.083867845277057 -6.036251777836495 0  0.3756430921870901 -1.80381664325008 0  0.3756430921689482 -8.196183356748573 0  3.113073783220456 -3.503408140759125 0  3.113391383189963 -6.496678880796299 0  22.62850736315072 -3.277987336300344 0  22.59385352108348 -6.800312122582239 0  0.3777114402537816 -4.137047872695438 0  0.9196816123347897 -0.4281025456111269 0  0.9196815944880363 -9.571897460530383 0  0.4052043328723194 -5.827814332459883 0  8.865857694874787 -5.767686953139113 0  1.200388325130726 -5.182186034620629 0  5.65297436943758 -4.325500846767599 0  1.200079167961391 -3.009849046583253 0  1.20883344838 -7.021823297793294 0  1.057642414577487 -3.660996704809145 0  10.88812987788297 -6.333458225047037 0  4.493502926606794 -2.839780197438185 0  4.485862892033458 -7.147606077919463 0  0.3631651408878085 -7.003529808558233 0  1.946748828463205 -6.049056369468467 0  6.918750162798794 -4.993796052442676 0  3.351203216022585 -1.980935554775394 0  3.351203216441711 -8.019064445907297 0  2.281892243515294 -2.856654416292082 0  2.281892243715877 -7.143345583598931 0  5.811143619672087 -0.9953286820321026 0  2.695713766833098 -4.565354125099452 0  2.698172168139827 -5.435483248292925 0  19.86166219288896 -2.493475492328429 0  19.83739102036415 -7.594404063416508
[...]
<PointData  Vectors="displacement"> 
<DataArray  type="Float64"  Name="displacement"  NumberOfComponents="3" format="ascii">2.0648038131148225e-02 1.1114281386260015e-02 0.0000000000000000e+00  1.7205701019975812e-08 1.2479861670687607e-05 0.0000000000000000e+00  -2.4862940695722677e-08 -1.2755268457629579e-08 0.0000000000000000e+00  1.6730115233754500e-08 -1.6081534204056525e-08 0.0000000000000000e+00  8.4237821509461960e-03 -3.0977700801670814e-03 0.0000000000000000e+00  3.1680131545770295e-03 1.9479856685666766e-04 0.0000000000000000e+00  2.3260028839211262e-03 -1.6886112829348184e-04 0.0000000000000000e+00  1.5279998005443163e-03 -6.8469859883050368e-05 0.0000000000000000e+00  1.2192828558965025e-03 -6.8753462930819110e-05 0.0000000000000000e+00  9.6894323383263153e-04 -6.7774775692989596e-05 0.0000000000000000e+00  8.1035356457918092e-04 -6.2447229294703227e-05 0.0000000000000000e+00  6.8899735205286256e-04 -6.2444006672320940e-05 0.0000000000000000e+00  5.8895476288158151e-04 -5.9659484253596552e-05 0.0000000000000000e+00  5.1295171135165509e-04 -5.9498467395644274e-05 0.0000000000000000e+00  4.4695144187934530e-04 -5.7231951147586150e-05 0.0000000000000000e+00  3.9827297356308608e-04 -5.3809355281411298e-05 0.0000000000000000e+00  3.5219261656083199e-04 -5.3404523927959162e-05 0.0000000000000000e+00  3.1592695729642649e-04 -5.2247128659870189e-05 0.0000000000000000e+00  2.8098753012637586e-04 -5.0173259860688363e-05 0.0000000000000000e+00  2.5266741251183435e-04 -4.7981458709422002e-05 0.0000000000000000e+00  2.2713636745657492e-04 -4.5545081028236643e-05 0.0000000000000000e+00  2.0480615952120151e-04 -4.3023295383819290e-05 0.0000000000000000e+00  1.8528326057394006e-04 -4.0692026339027411e-05 0.0000000000000000e+00  1.6720215532147237e-04 -3.8196196418019576e-05 0.0000000000000000e+00  1.5056349089752173e-04 -3.4999366847322052e-05 0.0000000000000000e+00  1.3610866573674315e-04 -3.1534056342085118e-05 0.0000000000000000e+00  1.2373322566586683e-04 -2.8425279382065215e-05 0.0000000000000000e+00  1.1163139104079124e-04 -2.4794327780113849e-05 0.0000000000000000e+00  1.0129310754314609e-04 -2.1275143871117621e-05 0.0000000000000000e+00  9.1430384547409930e-05 -1.7461040063868443e-05 0.0000000000000000e+00  8.2713099228627586e-05 -1.3545281138032810e-05 0.0000000000000000e+00  7.5122210945808378e-05 -9.5676965429700038e-06 0.0000000000000000e+00  6.8752072787777401e-05 -5.9204230484548362e-06 0.0000000000000000e+00  6.2522861207023306e-05 -2.1675979465226331e-06 0.0000000000000000e+00  5.7178749226156133e-05 1.3245700153479137e-06 0.0000000000000000e+00  5.2505934274328535e-05 4.6514819242935117e-06 0.0000000000000000e+00  4.8615328499851156e-05 7.5338948278323538e-06 0.0000000000000000e+00  4.4941265601764183e-05 1.0141201913570855e-05 0.0000000000000000e+00  4.1829780780045078e-05 1.2237749766085109e-05 0.0000000000000000e+00  3.8710800302918493e-05 1.4036993520458605e-05 0.0000000000000000e+00  3.6130303743475645e-05 1.5253498129282835e-05 0.0000000000000000e+00  3.3376638298331806e-05 1.6147733417171348e-05 0.0000000000000000e+00  3.0886684253441521e-05 1.6557064556709937e-05 0.0000000000000000e+00  2.8207090773592100e-05 1.6671198104755111e-05 0.0000000000000000e+00  2.5702264440453166e-05 1.6430128199363292e-05 0.0000000000000000e+00  2.2845821988962186e-05 1.5982558501550150e-05 0.0000000000000000e+00  2.0010089164147765e-05 1.5397014097023525e-05 0.0000000000000000e+00  1.6977440899984460e-05 1.4742852521873346e-05 0.0000000000000000e+00  1.4077598290441331e-05 1.4040744270673274e-05 0.0000000000000000e+00  1.0758479191186469e-05 1.3336023356115330e-05 0.0000000000000000e+00  7.2192101841578284e-06 1.2813959612301541e-05 0.0000000000000000e+00  3.5951851008905129e-06 1.2527382747730190e-05 0.0000000000000000e+00  4.1277617491128028e-08 1.0440109933099455e-05 0.0000000000000000e+00  -1.0870615595911435e-08 8.2482222569027249e-06 0.0000000000000000e+00  -5.0455806724518288e-09 6.2282869605132828e-06 0.0000000000000000e+00  1.1256615657640727e-08 4.4339242102051823e-06 0.0000000000000000e+00  -1.4700890586980558e-08 2.8707380031133879e-06 0.0000000000000000e+00  1.2017128311234190e-08 1.5985780368113498e-06 0.0000000000000000e+00  -9.0703476892391523e-09 6.6257795458041989e-07 0.0000000000000000e+00  -8.8207928637139074e-10 1.0378361663875585e-07 0.0000000000000000e+00  -1.3025819297505459e-08 -5.6041003210058655e-08 0.0000000000000000e+00  -2.1586066437968507e-10 -6.1960220623354863e-08 0.0000000000000000e+00  4.9350403932141826e-08 -6.8844881379212558e-08 0.0000000000000000e+00  7.0135639842685236e-09 -2.1917833806666611e-08 0.0000000000000000e+00  1.1120934010738076e-08 -3.5391626635021239e-08 0.0000000000000000e+00  5.7109123717801383e-08 -4.9829835629260228e-08 0.0000000000000000e+00  1.9070052747418873e-08 -6.7687312152450032e-08 0.0000000000000000e+00  9.3580544502120783e-08 -6.3330254189149465e-08 0.0000000000000000e+00  2.9512107292856401e-08 -4.0230143971166386e-08 0.0000000000000000e+00  9.2201888812552934e-08 -4.6176397531313513e-08 0.0000000000000000e+00  4.8810298059638360e-08 -1.8688466642954197e-08 0.0000000000000000e+00  7.0040177115354404e-08 -2.3584454879527921e-08 0.0000000000000000e+00  7.1837200061434645e-08 4.4612892433303035e-09 0.0000000000000000e+00  8.4309926409587574e-08 4.6093732939723911e-09 0.0000000000000000e+00  2.4958580117585508e-08 1.0902238369275426e-08 0.0000000000000000e+00  5.2779860043671571e-08 3.8073598346007941e-08 0.0000000000000000e+00  -1.9112236756585213e-09 1.1182238512800695e-08 0.0000000000000000e+00  7.8055703206384675e-08 1.0079028996322236e-07 0.0000000000000000e+00  2.5498611971492134e-08 7.0707582083470431e-08 0.0000000000000000e+00  5.4786424213719013e-08 6.5734960047712069e-08 0.0000000000000000e+00  -4.6042387268324113e-08 6.3998842617458840e-08 0.0000000000000000e+00  1.0363409244506050e-08 9.8237742199722150e-08 0.0000000000000000e+00  -6.1330090381703449e-08 1.3424706564000104e-07 0.0000000000000000e+00  -7.4450109364039349e-08 8.2405432094291345e-08 0.0000000000000000e+00  -7.3596541779727481e-08 4.0099765433516700e-08 0.0000000000000000e+00  -2.0739531458816564e-07 1.0241586872448429e-07 0.0000000000000000e+00  -8.1017343701396554e-08 4.7309941743030664e-08 0.0000000000000000e+00  -1.4424864910085130e-07 5.5989716306123209e-08 0.0000000000000000e+00  -9.0057557417892842e-08 3.4732087805879138e-08 0.0000000000000000e+00  -2.1671623073038408e-07 5.4822861532196048e-08 0.0000000000000000e+00  -2.0690329271586855e-08 -1.8953294288560978e-09 0.0000000000000000e+00  -8.8985666067633668e-08 3.7719135869873930e-09 0.0000000000000000e+00  -7.4190960675657740e-08 1.6314906627322236e-09 0.0000000000000000e+00  -5.3882062960763266e-08 -4.4509666855592055e-09 0.0000000000000000e+00  -1.2184373794210587e-07 -2.4468411950421355e-08 0.0000000000000000e+00  -2.9102759683237109e-08 -9.8808991241207060e-09 0.0000000000000000e+00  -1.0010423589443909e-07 -3.4247785832557483e-08 0.0000000000000000e+00  -1.4178571668148562e-08 -8.3213126199234070e-09 0.0000000000000000e+00  -1.7603088136005589e-08 -2.6964401003155659e-08 0.0000000000000000e+00  -4.3761660005880132e-08 -2.3789475525538540e-08 0.0000000000000000e+00  -2.3866621503099556e-08 -2.5371942848291001e-08 0.0000000000000000e+00  -5.9868508192284475e-09 -9.0359024345001955e-09 0.0000000000000000e+00  -1.4067824489364574e-08 -1.3477525399837960e-08 0.0000000000000000e+00  -1.2776124803659813e-09 -1.7165621702634537e-08 0.0000000000000000e+00  5.1850995862580272e-11 -9.1819615167673696e-09 0.0000000000000000e+00  -2.0274831512180491e-08 -1.6103924271347963e-08 0.0000000000000000e+00  4.7906935686276479e-09 -1.6092161422681310e-08 0.0000000000000000e+00  -4.8820481010806320e-09 -5.3430296732799675e-09 0.0000000000000000e+00  -4.0556676281803130e-09 4.6092834503423460e-07 0.0000000000000000e+00  5.9943073327700273e-09 1.1724227969884141e-06 0.0000000000000000e+00  -7.4775510540388607e-09 2.0875174834415633e-06 0.0000000000000000e+00  6.8503450161392486e-10 3.2101592810168600e-06 0.0000000000000000e+00  -3.5033602927100410e-09 4.4999763895799896e-06 0.0000000000000000e+00  -2.8031180878918455e-09 5.9715665403124797e-06 0.0000000000000000e+00  6.3601375725033472e-09 7.5933202602529825e-06 0.0000000000000000e+00  -5.9221015632158913e-09 9.3657065105769989e-06 0.0000000000000000e+00  5.4099845075045326e-09 1.1281046932930628e-05 0.0000000000000000e+00  -7.1832383609082628e-09 1.3328099299637078e-05 0.0000000000000000e+00  4.4255154878899671e-09 1.5501780659418514e-05 0.0000000000000000e+00  -2.8569948508269386e-09 1.7800999215957838e-05 0.0000000000000000e+00  3.2097617887420272e-09 2.0220877220685475e-05 0.0000000000000000e+00  -5.9591128993779993e-09 2.2755863986169414e-05 0.0000000000000000e+00  3.6720863869833825e-09 2.5409269473395411e-05 0.0000000000000000e+00  -4.4275619137978922e-09 2.8176611508921217e-05 0.0000000000000000e+00  -2.8497910909784128e-09 3.1065562050219586e-05 0.0000000000000000e+00  1.4227741061359899e-09 3.4060028995067648e-05 0.0000000000000000e+00  3.4330682827139418e-09 3.7184291710810023e-05 0.0000000000000000e+00  -1.6532815020014995e-09 4.0423706585633288e-05 0.0000000000000000e+00  2.4631129150131679e-09 4.3789334443344326e-05 0.0000000000000000e+00  -6.4919382066614944e-09 4.7280344453012935e-05 0.0000000000000000e+00  1.8336319829659640e-09 5.0918280549573565e-05 0.0000000000000000e+00  7.8663336844386350e-10 5.4667878071351872e-05 0.0000000000000000e+00  -1.0683731791840126e-09 5.8601647604401322e-05 0.0000000000000000e+00  -7.8663599631552163e-09 6.2689523858723608e-05 0.0000000000000000e+00  -3.8053896451390468e-09 6.6926028859395277e-05 0.0000000000000000e+00  -3.9617119115077840e-09 7.1320883517216461e-05 0.0000000000000000e+00  5.5121491347559228e-09 7.5923701579314499e-05 0.0000000000000000e+00  -1.0031570778965339e-08 8.0730926969151606e-05 0.0000000000000000e+00  3.3968655615072502e-09 8.5761314157608613e-05 0.0000000000000000e+00  -1.1142750333646553e-08 9.1019927434328476e-05 0.0000000000000000e+00  4.2124999423035283e-09 9.6546200881290708e-05 0.0000000000000000e+00  -8.7138708435197418e-09 1.0232277055872799e-04 0.0000000000000000e+00  -4.5915390393507123e-09 1.0837428277412515e-04 0.0000000000000000e+00  -5.8217632123490751e-09 1.1486753699900872e-04 0.0000000000000000e+00  -1.1088389637550786e-09 1.2155227300307013e-04 0.0000000000000000e+00  1.3812499233896126e-08 1.2881789481179479e-04 0.0000000000000000e+00  -3.3967655453514142e-08 1.3641176678751824e-04 0.0000000000000000e+00  1.8254574559048862e-08 1.4443913102644114e-04 0.0000000000000000e+00  -1.9633449941886415e-08 1.5305472072448616e-04 0.0000000000000000e+00  1.3379615889044798e-08 1.6229079879181299e-04 0.0000000000000000e+00  -2.0100537237431723e-08 1.7217072832239043e-04 0.0000000000000000e+00  -1.3837291668911835e-08 1.8272369531104079e-04 0.0000000000000000e+00  -4.3962633348842418e-09 1.9430730596750695e-04 0.0000000000000000e+00  5.1647092562767779e-08 2.0665837048306835e-04 0.0000000000000000e+00  -3.5049949588950770e-08 2.2014716511441535e-04 0.0000000000000000e+00  9.0306731779554983e-10 2.3493292480593770e-04 0.0000000000000000e+00  1.7599774657131465e-08 2.5121221525803330e-04 0.0000000000000000e+00  -1.4099218364859321e-08 2.6891151236206617e-04 0.0000000000000000e+00  -1.6723145000163054e-08 2.8832029794266750e-04 0.0000000000000000e+00  -9.0315916410335952e-08 3.1077288548076972e-04 0.0000000000000000e+00  9.6593443162147467e-08 3.3537477664404464e-04 0.0000000000000000e+00  -1.3920145136654557e-07 3.6315536553892659e-04 0.0000000000000000e+00  1.8697499480850748e-07 3.9524973457638141e-04 0.0000000000000000e+00  -2.4987258521395502e-07 4.3192849670310854e-04 0.0000000000000000e+00  7.0803873431000585e-08 4.7500508291563738e-04 0.0000000000000000e+00  -4.4368738966890152e-07 5.2557904289521557e-04 0.0000000000000000e+00  2.1903773612384988e-07 5.8844767436890249e-04 0.0000000000000000e+00  -1.2771486601423129e-06 6.6208818796675308e-04 0.0000000000000000e+00  4.1559462231425342e-07 7.5617318191698773e-04 0.0000000000000000e+00  -1.9280005011689996e-06 8.7289740063159059e-04 0.0000000000000000e+00  -2.2160485848514317e-06 1.0350396488733693e-03 0.0000000000000000e+00  2.3529190447509193e-06 1.2759160602381688e-03 0.0000000000000000e+00  -2.3296844789746663e-05 1.6017961397237451e-03 0.0000000000000000e+00  -6.4348740110793589e-05 2.1432820159545778e-03 0.0000000000000000e+00  6.8753072107472489e-04 3.1849414020570727e-03 0.0000000000000000e+00  -6.0238090897914102e-03 6.9004800184052908e-03 0.0000000000000000e+00  -8.1403368372677220e-06 -4.2667121095550908e-05 0.0000000000000000e+00  -3.7922983831279994e-05 1.0194908930102000e-05 0.0000000000000000e+00  -6.3985614781341127e-06 -5.4112920194586869e-05 0.0000000000000000e+00  -5.0798587528204748e-05 3.3394959257914278e-05 0.0000000000000000e+00  -1.8042218451977313e-05 1.1151690318888517e-05 0.0000000000000000e+00  6.6519176688737415e-07 -5.0258532098843914e-05 0.0000000000000000e+00  3.0256224173640201e-05 -1.8454927224801127e-05 0.0000000000000000e+00  -6.3755851577950316e-05 8.6447720194144468e-05 0.0000000000000000e+00  -3.3023302153519821e-05 4.2267840871704244e-05 0.0000000000000000e+00  -2.4889310065780860e-05 -1.1863505197020239e-05 0.0000000000000000e+00  7.5076926117485039e-05 -7.7338589719244883e-05 0.0000000000000000e+00  -8.8742979976044295e-05 1.4698977376923416e-04 0.0000000000000000e+00  -1.9340972824642323e-05 2.7984046094570742e-05 0.0000000000000000e+00  -4.0561371431775521e-05 9.1662307549701110e-05 0.0000000000000000e+00  2.8017667461296001e-05 2.3934679949168710e-06 0.0000000000000000e+00  6.5917149034890204e-06 -2.8230404770191474e-05 0.0000000000000000e+00  -2.6211486286348961e-05 7.1610344182164025e-05 0.0000000000000000e+00  1.4699265402677201e-04 -1.2454663759653379e-04 0.0000000000000000e+00  -2.5521625816307076e-05 3.6580843624729023e-06 0.0000000000000000e+00  6.1375248689074299e-05 -3.7859345156049376e-05 0.0000000000000000e+00  -2.3838020382823177e-05 -3.5861131735615297e-05 0.0000000000000000e+00  -3.9376553976668782e-05 -9.5750149694268150e-06 0.0000000000000000e+00  7.3103812141703512e-06 -3.7983304085193351e-05 0.0000000000000000e+00  -6.9130909405839704e-06 5.3807003101487937e-06 0.0000000000000000e+00  -1.2258037770310787e-04 2.3662695237055103e-04 0.0000000000000000e+00  -5.6420981436292003e-05 1.6780716405946432e-04 0.0000000000000000e+00  -1.1264959804851504e-05 1.7678803060948207e-05 0.0000000000000000e+00  -1.7362485310561267e-05 4.5130016663707859e-05 0.0000000000000000e+00  1.7609367501623666e-05 5.2519700767595304e-06 0.0000000000000000e+00  -3.9420542061814860e-05 1.3658395999100221e-04 0.0000000000000000e+00  3.3904001512468325e-05 -5.2883117987314832e-05 0.0000000000000000e+00  -7.8644505895079742e-06 -9.8657435171468912e-06 0.0000000000000000e+00  1.0266993024368465e-05 -8.8907102067195293e-06 0.0000000000000000e+00  8.2869718410832528e-05 -9.6676453188479915e-05 0.0000000000000000e+00  -3.2273896056156460e-05 -2.6324671658241618e-06 0.0000000000000000e+00  4.4671223729291562e-05 -2.9499173849122222e-06 0.0000000000000000e+00  -4.7798312374370150e-05 3.9501892070178896e-06 0.0000000000000000e+00  -4.4589457123597509e-05 1.8524950319510287e-05 0.0000000000000000e+00  7.2292501972749884e-06 3.9942669643189139e-06 0.0000000000000000e+00  -2.3579351821241657e-05 -3.1080967654949855e-05 0.0000000000000000e+00  -2.8969304104336605e-05 1.5847925209499559e-05 0.0000000000000000e+00  2.2788375516445311e-05 -4.0223190258131790e-06 0.0000000000000000e+00  -1.5715036285810200e-05 6.1489524040494071e-05 0.0000000000000000e+00  2.5963070972234936e-04 -1.5935917023522777e-04 0.0000000000000000e+00  -1.5213243343399711e-05 3.5563997857115224e-06 0.0000000000000000e+00  9.4298445202012379e-05 -5.1151105912474997e-05 0.0000000000000000e+00  -2.2205394796086693e-05 9.9306800209651337e-05 0.0000000000000000e+00  -4.2397890804039027e-05 5.0821724922067267e-05 0.0000000000000000e+00  1.7100392426489462e-05 -6.4133836725306870e-05 0.0000000000000000e+00  -2.8076213115673536e-05 -2.1189555545563203e-05 0.0000000000000000e+00  -2.0560207646647401e-05 -2.7545728258331808e-06 0.0000000000000000e+00  1.3770309523301609e-04 -7.6282786144326990e-05 0.0000000000000000e+00  -6.1175879213144654e-05 2.3912211762650048e-04 0.0000000000000000e+00  -1.0466057274828283e-05 3.4207643921702220e-05 0.0000000000000000e+00  -5.5603458271735809e-05 5.9093103994258183e-05 0.0000000000000000e+00  -6.9028263723558051e-05 5.9267846041631535e-05 0.0000000000000000e+00  -3.0588842620538271e-05 2.8531934803139751e-05 0.0000000000000000e+00  5.8685110701644071e-05 -1.4220169674887472e-05 0.0000000000000000e+00  9.4526230850678826e-06 -6.6066018465486289e-05 0.0000000000000000e+00  -3.8643181179548241e-05 -3.1203046290906806e-06 0.0000000000000000e+00  -7.6827216761082385e-06 -3.2611255139144888e-05 0.0000000000000000e+00  -1.6383592775191545e-04 3.9196556375416448e-04 0.0000000000000000e+00  -6.1444211739715828e-06 1.1563491244870795e-05 0.0000000000000000e+00  1.8041114514134461e-04 -9.4066407806712109e-05 0.0000000000000000e+00  -1.9749030969900689e-05 1.2050969890378821e-07 0.0000000000000000e+00  2.7590908589251167e-05 9.1764108052664944e-06 0.0000000000000000e+00  1.6311133293328198e-05 1.6469283265976634e-06 0.0000000000000000e+00  3.2299924520324233e-05 -3.5461160372256251e-05 0.0000000000000000e+00  4.6007241184314357e-05 -6.2920376130135055e-05 0.0000000000000000e+00  -2.5329164219556061e-06 2.3531635489301782e-06 0.0000000000000000e+00  3.7439084584678459e-04 -2.0725400884330847e-04 0.0000000000000000e+00  -8.7747483047961347e-06 2.8619735842251521e-06 0.0000000000000000e+00  -2.3121372257512689e-05 1.2305153207581477e-04 0.0000000000000000e+00  -4.3443836559584684e-05 -3.9082499504678860e-06 0.0000000000000000e+00  3.6971690169109067e-05 7.5231857152886174e-06 0.0000000000000000e+00  -1.3079874027871576e-05 -4.0987144253369086e-06 0.0000000000000000e+00  1.6463460964509817e-05 -1.5364287983770786e-07 0.0000000000000000e+00  8.0963542332551715e-05 -1.1269349956394087e-04 0.0000000000000000e+00  -2.4685906464646557e-05 8.4152374023725372e-06 0.0000000000000000e+00  -1.5107325159981234e-05 8.5341759020505066e-05 0.0000000000000000e+00  -7.8495626322684512e-05 2.9830578002278520e-04 0.0000000000000000e+00  -8.3371681691914477e-06 2.5322426750146864e-05 0.0000000000000000e+00  -3.2131259025804787e-05 1.7522945838737992e-04 0.0000000000000000e+00  -1.2614479119104024e-05 -1.9110303395044068e-05 0.0000000000000000e+00  -5.2189581954297555e-05 9.8334410039113798e-05 0.0000000000000000e+00  -8.3496328801978660e-05 7.8136744078250049e-05 0.0000000000000000e+00  -1.9071801134694382e-05 1.8480471359079737e-05 0.0000000000000000e+00  -2.3284364994557801e-04 4.9223714885082443e-04 0.0000000000000000e+00  -3.9166668761592861e-06 6.6220094794538983e-06 0.0000000000000000e+00  -5.6795910101348702e-05 2.5610120750322712e-05 0.0000000000000000e+00  -3.8735639621769111e-05 2.7004609149690803e-05 0.0000000000000000e+00  7.9025574992096765e-05 -2.8841864191307081e-05 0.0000000000000000e+00  -8.0283978720636806e-05 6.2919298238580288e-05 0.0000000000000000e+00  -1.1780501617675595e-05 1.0589757125711318e-05 0.0000000000000000e+00  -2.8007169955528442e-05 -2.8976941552660422e-05 0.0000000000000000e+00  1.1818115125861068e-05 -3.1644773057412983e-06 0.0000000000000000e+00  -4.7701089176871423e-05 6.2007241784418188e-05 0.0000000000000000e+00  4.3229895037088229e-05 -9.0538683064269460e-05 0.0000000000000000e+00  -3.1941406367679752e-05 8.3799736077251643e-06 0.0000000000000000e+00  -1.4806912231426006e-05 1.5808332002684162e-06 0.0000000000000000e+00  2.5722661612051159e-04 -1.1517500583337462e-04 0.0000000000000000e+00  2.6225707407825038e-07 -5.0551398504349595e-06 0.0000000000000000e+00  6.8377943743637112e-05 -5.9575884937865091e-05 0.0000000000000000e+00  3.5597240950889226e-06 -1.4754545964442209e-05 0.0000000000000000e+00  3.4672084596878015e-05 -7.741