<?xml version="1.0"?>
<VTKFile type="UnstructuredGrid"  version="0.1"  >
<UnstructuredGrid>
<Piece  NumberOfPoints="572" NumberOfCells="1038">
<Points>
<DataArray  type="Float64"  NumberOfComponents="3"  format="ascii">0 0 0  4 0 0  4 -1 0  0 -1 0  0.09999999999999999 0 0  0.2 0 0  0.3 0 0  0.4 0 0  0.4999999999999998 0 0  0.5999999999999996 0 0  0.6999999999999995 0 0  0.7999999999999994 0 0  0.8999999999999992 0 0  0.999999999999999 0 0  1.099999999999999 0 0  1.199999999999999 0 0  1.299999999999999 0 0  1.399999999999999 0 0  1.499999999999998 0 0  1.599999999999998 0 0  1.699999999999999 0 0  1.799999999999999 0 0  1.899999999999999 0 0  2 0 0  2.1 0 0  2.200000000000001 0 0  2.300000000000001 0 0  2.400000000000002 0 0  2.500000000000002 0 0  2.600000000000002 0 0  2.700000000000003 0 0  2.800000000000003 0 0  2.900000000000004 0 0  3.000000000000004 0 0  3.100000000000005 0 0  3.200000000000005 0 0  3.300000000000005 0 0  3.400000000000004 0 0  3.500000000000004 0 0  3.600000000000003 0 0  3.700000000000002 0 0  3.800000000000002 0 0  3.900000000000001 0 0  4 -0.08333333333333325 0  4 -0.1666666666666665 0  4 -0.2499999999999997 0  4 -0.333333333333333 0  4 -0.4166666666666666 0  4 -0.5000000000000001 0  4 -0.5833333333333337 0  4 -0.6666666666666673 0  4 -0.7500000000000006 0  4 -0.8333333333333337 0  4 -0.9166666666666669 0  3.9 -1 0  3.8 -1 0  3.7 -1 0  3.6 -1 0  3.5 -1 0  3.4 -1 0  3.300000000000001 -1 0  3.200000000000001 -1 0  3.100000000000001 -1 0  3.000000000000001 -1 0  2.900000000000001 -1 0  2.800000000000001 -1 0  2.700000000000001 -1 0  2.600000000000001 -1 0  2.500000000000002 -1 0  2.400000000000002 -1 0  2.300000000000002 -1 0  2.200000000000001 -1 0  2.100000000000001 -1 0  2 -1 0  1.9 -1 0  1.799999999999999 -1 0  1.699999999999999 -1 0  1.599999999999998 -1 0  1.499999999999998 -1 0  1.399999999999998 -1 0  1.299999999999997 -1 0  1.199999999999997 -1 0  1.099999999999996 -1 0  0.9999999999999956 -1 0  0.899999999999995 -1 0  0.7999999999999949 -1 0  0.6999999999999953 -1 0  0.5999999999999956 -1 0  0.499999999999996 -1 0  0.3999999999999968 -1 0  0.2999999999999976 -1 0  0.1999999999999984 -1 0  0.0999999999999992 -1 0  0 -0.9166666666666667 0  0 -0.8333333333333335 0  0 -0.7500000000000002 0  0 -0.666666666666667 0  0 -0.5833333333333335 0  0 -0.4999999999999999 0  0 -0.4166666666666663 0  0 -0.3333333333333327 0  0 -0.2499999999999994 0  0 -0.1666666666666663 0  0 -0.08333333333333315 0  3.491090701185765 -0.499339806301727 0  0.4950203227078167 -0.4989128584675094 0  2.64262313781888 -0.4879297506908338 0  1.449999999999998 -0.5 0  2.058402291097397 -0.5120941233772698 0  0.9749999999999992 -0.4749999999999993 0  3.081769880806683 -0.5597407802610527 0  1.745473944409859 -0.3290615136625714 0  2.347280045777389 -0.6545118286598804 0  2.335768673639667 -0.3237239238763549 0  1.750327526220345 -0.682828817540943 0  3.707492972392909 -0.3028030525063309 0  0.293580296675358 -0.7109385489008262 0  3.71498825372084 -0.7080088716251347 0  0.2918697062415769 -0.2988161261649331 0  3.250413907284768 -0.3098344370860925 0  0.7481958762886598 -0.6907216494845363 0  2.897531957111618 -0.3144800466372323 0  1.202975631932859 -0.6871206495416401 0  0.7276881720430104 -0.301075268817204 0  1.222241507685503 -0.2908020883113388 0  2.821785532795642 -0.7097679058139483 0  3.313580174540806 -0.7110306688463971 0  1.50219738324048 -0.2570217529780842 0  2.109436430026117 -0.7485141141565509 0  2.001923272149049 -0.2612004201407864 0  2.591779594323503 -0.2533220405676498 0  1.508220405676497 -0.7466779594323502 0  2.584305190871683 -0.7502831919469019 0  3.478286033189422 -0.23795222571263 0  0.5261060937617643 -0.7658117832712512 0  3.785135972681774 -0.5040707172464052 0  0.2090645029521114 -0.4969048262114374 0  0.9574438986108131 -0.2423163095862805 0  0.9754244626643473 -0.7628641460288867 0  0.5097271592765806 -0.2292760602594508 0  3.047448237147327 -0.7984168297371277 0  3.522893514415914 -0.785726174019542 0  3.27411286219494 -0.5150314861460955 0  2.876192398366876 -0.5166549013936721 0  3.072152863254761 -0.2028141497170135 0  2.188888454287124 -0.1960738743988359 0  1.911111545712876 -0.8039261256011641 0  0.6968885413728847 -0.4974520678389611 0  1.252104989604988 -0.4970114345114344 0  1.649610740490046 -0.5028202775347195 0  2.446694231298332 -0.485633542353709 0  1.845992484168205 -0.4989419599210881 0  2.246214131289309 -0.4959316037735846 0  2.743080194417513 -0.1797603284198384 0  1.345217800961618 -0.8177514544794908 0  3.831771135951664 -0.1764827624326512 0  0.168177957407361 -0.823589473522286 0  3.837430960455357 -0.8286944021295046 0  0.167391597779325 -0.1752538625856722 0  3.066111254276541 -0.3870061788029396 0  1.358909159394344 -0.1720779287034414 0  1.669284305949535 -0.172759019086266 0  2.264869859182613 -0.8283162784008133 0  2.434165412425708 -0.1697954173687042 0  1.668706113475668 -0.8314479749300888 0  1.842683258862577 -0.1656794186994128 0  3.848464877921415 -0.3616620315967092 0  0.151535122078585 -0.6383379684032905 0  3.848707346075076 -0.6466646759135177 0  0.1509968549082652 -0.3452619778382686 0  2.732975255829699 -0.3508363638623346 0  1.370252652534258 -0.6495109932111033 0  1.11832587037856 -0.1733419061976365 0  2.439737645513045 -0.836456385212641 0  3.331229791744127 -0.165499768727795 0  0.6726591332606813 -0.8336090461037186 0  1.132616756253317 -0.8280723285747189 0  1.950606351728588 -0.6518091391595896 0  2.153824719141371 -0.3536025000168445 0  3.62532407618639 -0.1564302309141494 0  0.3803710983093131 -0.8404803223371928 0  1.377912260103223 -0.3517997484404782 0  0.8924624300191402 -0.6125774599817652 0  3.207249628251628 -0.8375220474312923 0  0.6546785576266954 -0.155978749966339 0  2.719684587363634 -0.8327734580127736 0  3.647699282718985 -0.5637569936419204 0  0.3570156455557587 -0.5653989322146081 0  0.8322251523939386 -0.8403847541693579 0  0.3645988133126639 -0.1519337183240305 0  1.061404500324257 -0.6180105656135877 0  3.396758647231262 -0.3766313243368538 0  0.8148021518360848 -0.1629813466347811 0  0.6093556516052328 -0.6299486913462624 0  0.415997866655875 -0.3680522660477806 0  0.5920160015096863 -0.3645412637424194 0  3.572255424430109 -0.362089200459548 0  1.08043890485706 -0.3398660584513152 0  2.923658429424994 -0.1561137197110593 0  3.653613361778262 -0.8546909554159527 0  3.456739790681186 -0.6487708965425909 0  0.8424839600900655 -0.4190496412612194 0  2.6968241495241 -0.6460539373019687 0  2.90777185621417 -0.8467190841342236 0  3.167421855912535 -0.6853653881872064 0  3.378998015397395 -0.8550267917096944 0  2.549623533286458 -0.6074164390661531 0  1.563854363100012 -0.3870450365840445 0  1.945115925347995 -0.3956210114182645 0  2.206384380497951 -0.6363666106481864 0  2.9679770331043 -0.6663940397605803 0  2.492817266347368 -0.3527603982764793 0  1.545918816851176 -0.6075709531787901 0  2.028456012399734 -0.8701972194942087 0  2.065700499244939 -0.1359115819594244 0  1.113999927383315 -0.4803729266898425 0  3.194766700972084 -0.1349664610116483 0  1.791586588241401 -0.8656156413257059 0  2.307333345265183 -0.1346440826116952 0  2.64093544674549 -0.1331489671463476 0  0.4565707965077976 -0.6534785968762363 0  1.459077473581533 -0.8718776489042938 0  1.56279060907849 -0.1324694119967317 0  0.3144726782861624 -0.406319735913186 0  3.686635179527132 -0.4155119011072678 0  3.583227123430988 -0.6879918386850498 0  3.884530589958141 -0.5337716741137969 0  0.1138901561454064 -0.4712706309748976 0  2.551320204776417 -0.8759992125181354 0  2.968455986624249 -0.4231600805006418 0  1.843995631966074 -0.2713141166917306 0  1.23826657576458 -0.1310261345083986 0  1.632298315745049 -0.7047459448475459 0  3.454977942639006 -0.1019833897113779 0  2.11213131937471 -0.6131325843633801 0  1.631670858552932 -0.3027829344070553 0  0.549999999999996 -0.8847857258099061 0  2.175907031111534 -0.8808902127996396 0  2.440789547527098 -0.7252338716820566 0  0.9499999999999957 -0.8853403742417534 0  0.1192006629558211 -0.7258150973260704 0  0.1086302422397907 -0.2553484983400458 0  3.891615894289125 -0.7428762999771643 0  3.880790852604017 -0.2741969419997524 0  2.58999033724616 -0.3943081590477266 0  0.95310975133633 -0.1100375897447476 0  0.9389274183125247 -0.357418794071099 0  0.5436861363815539 -0.1129935035840732 0  1.237622314162623 -0.8886349339205675 0  2.766143121931948 -0.4669467935657355 0  3.157965388639583 -0.4824178848815803 0  3.732166646772587 -0.1061123528525496 0  0.8463407040907105 -0.2803849511418723 0  0.2658218649297859 -0.8967607408767373 0  3.384357462435764 -0.5450459842617623 0  1.954320722194999 -0.1009956898074866 0  0.8013980381943526 -0.5278489923710374 0  3.744358883260304 -0.603637271636247 0  0.2581863795088786 -0.6001369967359219 0  0.2629966501688439 -0.1025990268626685 0  0.3980883060404261 -0.7330050441066103 0  1.076076863672032 -0.7275728344185368 0  1.749999999999999 -0.5550190100941714 0  2.351512610076122 -0.5440435521440684 0  0.8619623856291254 -0.7246873586411677 0  3.553081028189586 -0.8932001918706867 0  2.806636304103025 -0.6100531542467602 0  2.546714489935151 -0.08818853426728746 0  1.172246975380209 -0.5783812280673658 0  1.560837452008869 -0.9052833905541354 0  3.005913589025749 -0.2858329927011495 0  3.104244827324224 -0.8867193195303111 0  0.6392996137609843 -0.7340215588892431 0  3.370409685921998 -0.2678372406131186 0  1.860045411420065 -0.6863616357695403 0  2.239306624928278 -0.3159929711989559 0  0.620090528303912 -0.2611000972275821 0  1.457468991263225 -0.08750102207080079 0  1.752790718352056 -0.1005001786212033 0  0.394717592657301 -0.2605042194828123 0  3.745581301416776 -0.9074819423317642 0  3.141158115761163 -0.2920724092797614 0  3.257376892791448 -0.6242591031763242 0  2.350280737493299 -0.9013197570937703 0  3.914203942485891 -0.125 0  3.914203942485891 -0.8750000000000003 0  0.08579605751410901 -0.1249999999999997 0  0.08579605751410968 -0.875 0  3.921126745430668 -0.4525
[...]
<PointData  Vectors="displacement"> 
<DataArray  type="Float64"  Name="displacement"  NumberOfComponents="3" format="ascii">-1.4583395148512037e-03 -4.4251716365447093e-02 0.0000000000000000e+00  1.4460555570735094e-03 -4.4280718404483131e-02 0.0000000000000000e+00  1.5773420129946527e-03 -1.5035400745329246e-03 0.0000000000000000e+00  -1.5468405693008886e-03 -1.4790471989232358e-03 0.0000000000000000e+00  1.3564452757753413e-04 -5.5487603912363126e-02 0.0000000000000000e+00  -2.5787946164932313e-04 -5.9584545196142986e-02 0.0000000000000000e+00  5.3774010427384829e-06 -6.0851436180344123e-02 0.0000000000000000e+00  -3.5463667387751274e-05 -6.0845596114957698e-02 0.0000000000000000e+00  -3.1920250709024822e-05 -6.0139277031770084e-02 0.0000000000000000e+00  3.3993117831561712e-05 -5.8962187083939105e-02 0.0000000000000000e+00  -3.8927198539967346e-05 -5.7574861525695076e-02 0.0000000000000000e+00  1.6744206064686237e-05 -5.6187484570215211e-02 0.0000000000000000e+00  -2.2703519166291672e-05 -5.4817810068925603e-02 0.0000000000000000e+00  6.4030034808168992e-06 -5.3537878526624165e-02 0.0000000000000000e+00  -5.7194619339647501e-06 -5.2351067164152817e-02 0.0000000000000000e+00  1.1609794885062361e-06 -5.1302630255262494e-02 0.0000000000000000e+00  -1.6531264559051659e-06 -5.0399428599164520e-02 0.0000000000000000e+00  -3.3260664819778950e-06 -4.9632275900293239e-02 0.0000000000000000e+00  1.3466494551844604e-06 -4.8995193549764657e-02 0.0000000000000000e+00  -1.4871128185614948e-06 -4.8479339505697078e-02 0.0000000000000000e+00  -1.7081673958334802e-06 -4.8092308444092798e-02 0.0000000000000000e+00  3.1135883887732750e-06 -4.7818566879896010e-02 0.0000000000000000e+00  -5.3513085716149813e-06 -4.7655049713826662e-02 0.0000000000000000e+00  3.8640538513054193e-06 -4.7601371185803334e-02 0.0000000000000000e+00  -4.6698396288003038e-06 -4.7653696881035906e-02 0.0000000000000000e+00  4.0609704268000250e-06 -4.7816537792339395e-02 0.0000000000000000e+00  -6.1366083097689151e-07 -4.8099387639269894e-02 0.0000000000000000e+00  -2.6180810181187891e-06 -4.8477154078345054e-02 0.0000000000000000e+00  -6.3211362560178941e-06 -4.8995379868909159e-02 0.0000000000000000e+00  6.7807136491565563e-06 -4.9632320329191494e-02 0.0000000000000000e+00  1.3127216334423400e-06 -5.0400086523301427e-02 0.0000000000000000e+00  2.2003981423381054e-06 -5.1316670591667869e-02 0.0000000000000000e+00  1.8460718602494485e-05 -5.2353227288956604e-02 0.0000000000000000e+00  8.0343861200707630e-06 -5.3527893500010790e-02 0.0000000000000000e+00  2.6389498685194800e-05 -5.4816075407593763e-02 0.0000000000000000e+00  -3.5720515938149819e-05 -5.6175627991791738e-02 0.0000000000000000e+00  1.8318361917104111e-06 -5.7586878091973860e-02 0.0000000000000000e+00  -4.9085692323071512e-06 -5.8949570069141109e-02 0.0000000000000000e+00  1.4849856262495503e-05 -6.0121563462917700e-02 0.0000000000000000e+00  4.3610877875240971e-05 -6.0844602453027648e-02 0.0000000000000000e+00  1.5000238139048681e-05 -6.0847063645992537e-02 0.0000000000000000e+00  2.9562648446186549e-04 -5.9595640403538784e-02 0.0000000000000000e+00  -1.2275669620715509e-04 -5.5495134194175233e-02 0.0000000000000000e+00  1.6266568365788877e-02 -4.0698738910242782e-02 0.0000000000000000e+00  2.3825626704472701e-02 -3.8054070451488516e-02 0.0000000000000000e+00  2.9331471456517051e-02 -3.5505747735958909e-02 0.0000000000000000e+00  3.2667578047821430e-02 -3.3424472422048629e-02 0.0000000000000000e+00  3.4286799880791106e-02 -3.0799154157998575e-02 0.0000000000000000e+00  3.4904044201708923e-02 -2.7901601172958930e-02 0.0000000000000000e+00  3.3948046436317415e-02 -2.5664475712109610e-02 0.0000000000000000e+00  3.1698389109280120e-02 -2.2474373959421170e-02 0.0000000000000000e+00  2.7847453290867366e-02 -1.9135076807696071e-02 0.0000000000000000e+00  2.2184813013074390e-02 -1.5412331711483668e-02 0.0000000000000000e+00  1.5178956916258595e-02 -9.4145456852126209e-03 0.0000000000000000e+00  -6.7533335980475508e-04 -1.2630563034008764e-04 0.0000000000000000e+00  2.2571542869063944e-04 2.4525554723420337e-04 0.0000000000000000e+00  -1.1244183515699150e-04 -3.3355220889367400e-05 0.0000000000000000e+00  1.3028257486299893e-04 9.6188285835802301e-05 0.0000000000000000e+00  2.7998235380201189e-05 6.9307690828460713e-05 0.0000000000000000e+00  2.6165471643057418e-05 3.8884296833342007e-05 0.0000000000000000e+00  2.8482249010056657e-05 4.7370390901828216e-05 0.0000000000000000e+00  -2.6629385300967169e-05 4.4574222729351791e-05 0.0000000000000000e+00  8.2751934912138354e-07 4.5081173562726864e-05 0.0000000000000000e+00  3.1701254929071776e-05 3.6361549268676711e-05 0.0000000000000000e+00  3.1173032096836881e-05 2.3519629734856976e-05 0.0000000000000000e+00  5.1966372365795504e-06 2.0885991279521694e-05 0.0000000000000000e+00  1.3675793272732576e-05 1.2434860776540135e-05 0.0000000000000000e+00  -3.4913773508102191e-06 9.9683611529638632e-06 0.0000000000000000e+00  2.4356337028079628e-06 6.0766795835844755e-06 0.0000000000000000e+00  9.8766573820704842e-07 8.4979819907199203e-06 0.0000000000000000e+00  -5.1247682916773298e-06 7.2411362979275475e-06 0.0000000000000000e+00  8.0505408988576634e-06 8.0088950757321403e-06 0.0000000000000000e+00  1.4460055869187552e-06 2.5734081498429105e-06 0.0000000000000000e+00  -8.9997669340393941e-06 4.1404956542131153e-06 0.0000000000000000e+00  -5.6376634615562996e-06 6.4148467799599411e-06 0.0000000000000000e+00  1.8331265908340545e-06 9.9598683000621433e-06 0.0000000000000000e+00  2.7104904127597374e-06 3.0365716687764954e-06 0.0000000000000000e+00  5.8039364748509060e-06 8.3408373350586878e-06 0.0000000000000000e+00  -8.2874781355681785e-06 9.6235908765399429e-06 0.0000000000000000e+00  -2.9029902999204941e-06 7.1396178403279590e-06 0.0000000000000000e+00  5.7027309351610088e-06 2.4257888380500360e-05 0.0000000000000000e+00  -1.6258509990279624e-05 2.5335467732248722e-05 0.0000000000000000e+00  -1.3227655295917174e-06 2.0680414814598129e-05 0.0000000000000000e+00  -9.2256603406034112e-06 4.6537475499606112e-05 0.0000000000000000e+00  -5.9105836397723098e-05 4.7919291340479031e-05 0.0000000000000000e+00  -2.4432735852577163e-06 4.1440603503253864e-05 0.0000000000000000e+00  -5.5760468661211959e-05 5.5425364190174260e-05 0.0000000000000000e+00  -4.4782833785835289e-05 7.6221290248791297e-05 0.0000000000000000e+00  -1.0103674963806710e-04 8.3129070219604487e-05 0.0000000000000000e+00  -9.4624235771038076e-05 7.2895589443952740e-05 0.0000000000000000e+00  6.7403696444851460e-05 -1.4002880073628462e-05 0.0000000000000000e+00  -2.6458885387297001e-04 2.7507395891456161e-04 0.0000000000000000e+00  6.5194063442154248e-04 -1.0753681718804082e-04 0.0000000000000000e+00  -1.5192337857370118e-02 -9.4674657339677091e-03 0.0000000000000000e+00  -2.2028654799029809e-02 -1.5321804269039346e-02 0.0000000000000000e+00  -2.8024596646066376e-02 -1.9482599480650623e-02 0.0000000000000000e+00  -3.1675281367059951e-02 -2.2348870075249740e-02 0.0000000000000000e+00  -3.3750164979881259e-02 -2.5455037159226052e-02 0.0000000000000000e+00  -3.4952688284463226e-02 -2.8517711001834086e-02 0.0000000000000000e+00  -3.4460516343073552e-02 -3.0565564864427075e-02 0.0000000000000000e+00  -3.2655675312599976e-02 -3.3457014528124926e-02 0.0000000000000000e+00  -2.9285644856886055e-02 -3.5721325714509887e-02 0.0000000000000000e+00  -2.3929796525856570e-02 -3.7977166460320781e-02 0.0000000000000000e+00  -1.6255175713158366e-02 -4.0720091363206423e-02 0.0000000000000000e+00  1.7421235805172686e-02 -2.9033003547116482e-02 0.0000000000000000e+00  -1.7849421008799250e-02 -2.9071699394321505e-02 0.0000000000000000e+00  2.6432140099922606e-03 -2.5785544866783135e-02 0.0000000000000000e+00  -2.0620621171461148e-03 -2.4825923920326929e-02 0.0000000000000000e+00  1.6264232484113249e-04 -2.3345541274234966e-02 0.0000000000000000e+00  -6.6636699126428316e-03 -2.8478751299054490e-02 0.0000000000000000e+00  7.4839814158248448e-03 -2.3780135387919569e-02 0.0000000000000000e+00  -6.4903388543192150e-04 -3.2460099366045991e-02 0.0000000000000000e+00  9.7645069377430614e-04 -1.6626096141137869e-02 0.0000000000000000e+00  8.8924396797295468e-04 -3.2930728484472746e-02 0.0000000000000000e+00  -6.2329387672931309e-04 -1.5144656454039541e-02 0.0000000000000000e+00  2.1776462006161908e-02 -4.2096247121989415e-02 0.0000000000000000e+00  -1.9909423524469349e-02 -1.4945299224931497e-02 0.0000000000000000e+00  2.0308844862659183e-02 -1.5151484219679887e-02 0.0000000000000000e+00  -2.1615646657449920e-02 -4.2368230791552580e-02 0.0000000000000000e+00  8.9351575428284254e-03 -4.0135082862478681e-02 0.0000000000000000e+00  -9.1926072668279141e-03 -1.6374376746298259e-02 0.0000000000000000e+00  4.1019866489532307e-03 -3.6566087900554642e-02 0.0000000000000000e+00  -3.3528192291606257e-03 -1.5727577396580070e-02 0.0000000000000000e+00  -9.1716692179656945e-03 -4.0878820548316055e-02 0.0000000000000000e+00  -2.9131093343544821e-03 -3.6872743229112388e-02 0.0000000000000000e+00  3.3948641901811148e-03 -1.4578418247703989e-02 0.0000000000000000e+00  9.9802762331501430e-03 -1.5191998062033323e-02 0.0000000000000000e+00  -1.2660023304689855e-03 -3.6817213160351490e-02 0.0000000000000000e+00  2.1863937621117291e-04 -1.1905964595977160e-02 0.0000000000000000e+00  2.7101512020796589e-06 -3.5434814942535718e-02 0.0000000000000000e+00  1.6259229202494070e-03 -3.7505536702475514e-02 0.0000000000000000e+00  -1.2595946416757728e-03 -1.2219515584152317e-02 0.0000000000000000e+00  1.6372658454190372e-03 -1.2134469592783853e-02 0.0000000000000000e+00  1.1912478678070017e-02 -4.6619394189380353e-02 0.0000000000000000e+00  -1.1586092809856308e-02 -1.1803025836157669e-02 0.0000000000000000e+00  2.8140379416436594e-02 -2.8136537019537250e-02 0.0000000000000000e+00  -2.8450801918663001e-02 -2.8641618783881145e-02 0.0000000000000000e+00  -4.7225554031714839e-03 -4.1891084511110337e-02 0.0000000000000000e+00  -4.7373473263697318e-03 -1.1996031458723437e-02 0.0000000000000000e+00  -1.1803070413864547e-02 -4.7291575887126534e-02 0.0000000000000000e+00  4.4115510480207181e-03 -1.0073237633011264e-02 0.0000000000000000e+00  1.1752844898225359e-02 -1.0566644653731708e-02 0.0000000000000000e+00  1.1402046441694545e-02 -2.7363398548144232e-02 0.0000000000000000e+00  4.7437424852763300e-03 -2.5297934358615867e-02 0.0000000000000000e+00  4.3472940924620838e-03 -4.4357284609309648e-02 0.0000000000000000e+00  3.1122106245485989e-04 -3.8697522360152566e-02 0.0000000000000000e+00  -1.4090801072910589e-04 -9.2440249831863622e-03 0.0000000000000000e+00  -1.2095694068427334e-02 -2.8620155204140203e-02 0.0000000000000000e+00  -3.4770584559350153e-03 -2.5760422987829410e-02 0.0000000000000000e+00  -1.1080541665837559e-03 -2.4145875061751827e-02 0.0000000000000000e+00  1.5224360421222693e-03 -2.5237307593167439e-02 0.0000000000000000e+00  -4.3884593721570467e-04 -2.4046835184063850e-02 0.0000000000000000e+00  7.2923908632621030e-04 -2.4301187713272936e-02 0.0000000000000000e+00  1.8007993989311885e-03 -4.2229093561741204e-02 0.0000000000000000e+00  -1.5358552135544292e-03 -8.8027996174627823e-03 0.0000000000000000e+00  1.9231639159671850e-02 -4.7930965195072527e-02 0.0000000000000000e+00  -1.6771833296283744e-02 -8.9390838440121176e-03 0.0000000000000000e+00  1.6503712645991490e-02 -8.7426248249063560e-03 0.0000000000000000e+00  -1.9134015180079580e-02 -4.7968696301878666e-02 0.0000000000000000e+00  6.8063592497531362e-03 -3.3914797883967451e-02 0.0000000000000000e+00  -1.3322876031962257e-03 -4.1822771132786207e-02 0.0000000000000000e+00  -5.2704079543557548e-04 -4.0172818468315351e-02 0.0000000000000000e+00  4.0754279421098343e-04 -8.1093062245132103e-03 0.0000000000000000e+00  7.3732911354643636e-04 -4.0726018579716597e-02 0.0000000000000000e+00  -5.2208758651558671e-04 -7.9778480443674568e-03 0.0000000000000000e+00  -2.2031604428161976e-04 -4.0071297147878944e-02 0.0000000000000000e+00  2.9051286362094968e-02 -3.5916819688451770e-02 0.0000000000000000e+00  -2.7811350307110166e-02 -2.0480789654441268e-02 0.0000000000000000e+00  2.7545590200543500e-02 -1.9907230664346538e-02 0.0000000000000000e+00  -2.8535610762932668e-02 -3.6930140878865828e-02 0.0000000000000000e+00  2.9626589931540108e-03 -3.3430927490815505e-02 0.0000000000000000e+00  -2.3171832665296070e-03 -1.7345638165753179e-02 0.0000000000000000e+00  -2.4297524310737694e-03 -4.3824617190088108e-02 0.0000000000000000e+00  7.4372243861018283e-04 -7.7746993716562114e-03 0.0000000000000000e+00  6.4065293898660407e-03 -4.9547060510519901e-02 0.0000000000000000e+00  -6.6879244711666487e-03 -8.1495358438091921e-03 0.0000000000000000e+00  -2.5261290453697373e-03 -8.4109315914568227e-03 0.0000000000000000e+00  -1.2010857865666486e-04 -1.6561065737838214e-02 0.0000000000000000e+00  3.9062312435555216e-04 -3.1102179437010744e-02 0.0000000000000000e+00  1.1391913045270128e-02 -5.2398829310507135e-02 0.0000000000000000e+00  -1.0799749486045219e-02 -7.3650883027225047e-03 0.0000000000000000e+00  -2.2252142492314815e-03 -3.2720442128625557e-02 0.0000000000000000e+00  -7.6604926345045718e-03 -2.0731692714984346e-02 0.0000000000000000e+00  5.1740812296129585e-03 -8.0064796322093859e-03 0.0000000000000000e+00  -6.2636166527642104e-03 -5.0249801695235456e-02 0.0000000000000000e+00  1.7011572678650056e-03 -8.0908289572584179e-03 0.0000000000000000e+00  2.2355387619926153e-02 -2.4520822898529502e-02 0.0000000000000000e+00  -2.2163135282384235e-02 -2.4413621113368297e-02 0.0000000000000000e+00  -4.6991813548513516e-03 -7.8584633476693529e-03 0.0000000000000000e+00  -1.1363671673152302e-02 -5.2664694335724134e-02 0.0000000000000000e+00  -5.1950086936242276e-03 -1.9882404054789835e-02 0.0000000000000000e+00  1.3529575396187571e-02 -3.7032835250188315e-02 0.0000000000000000e+00  -4.6393726562471271e-03 -4.7858033579365612e-02 0.0000000000000000e+00  -1.3295824454041044e-02 -2.0246621775106992e-02 0.0000000000000000e+00  -1.9247301051806276e-02 -3.8183344392105759e-02 0.0000000000000000e+00  -1.3637902624294809e-02 -3.7904641654627771e-02 0.0000000000000000e+00  1.8707154220950501e-02 -3.8604452643932342e-02 0.0000000000000000e+00  -4.5391573987637792e-03 -3.5377740808985952e-02 0.0000000000000000e+00  2.4449858726627396e-03 -4.5115113685367816e-02 0.0000000000000000e+00  1.0450720778325606e-02 -6.5830670529902005e-03 0.0000000000000000e+00  1.4646067535353545e-02 -1.9037977160038771e-02 0.0000000000000000e+00  -8.5973266792585910e-03 -3.2709522245897890e-02 0.0000000000000000e+00  2.7784997670996800e-03 -1.7674131480267485e-02 0.0000000000000000e+00  2.5211968529083042e-03 -7.4813820047857638e-03 0.0000000000000000e+00  7.8119731781074644e-03 -1.6579846950461476e-02 0.0000000000000000e+00  6.5452461991169037e-03 -6.9478900897281199e-03 0.0000000000000000e+00  1.9578529903673610e-03 -1.9332975376651962e-02 0.0000000000000000e+00  -1.3739192409407521e-03 -3.0134409097741507e-02 0.0000000000000000e+00  -1.4320149072265129e-04 -2.8993593032107589e-02 0.0000000000000000e+00  5.4840196062904236e-04 -1.7384429468322225e-02 0.0000000000000000e+00  5.2125657490674736e-03 -1.7251674815028616e-02 0.0000000000000000e+00  1.5487748159356330e-03 -3.2058479875049818e-02 0.0000000000000000e+00  -1.4745538842651346e-03 -1.9126098082064200e-02 0.0000000000000000e+00  3.1587087781031062e-05 -6.0893379012424862e-03 0.0000000000000000e+00  7.4623254880503673e-05 -4.1355942563654234e-02 0.0000000000000000e+00  -4.8376397215633520e-03 -2.7363197861179946e-02 0.0000000000000000e+00  3.9384977509248787e-03 -4.9465422326780265e-02 0.0000000000000000e+00  -2.4379617607952288e-04 -6.3138069954371641e-03 0.0000000000000000e+00  3.8064894760346459e-04 -4.1897506580946903e-02 0.0000000000000000e+00  1.0446591465169347e-03 -4.3702504913663377e-02 0.0000000000000000e+00  -1.7015085714761971e-02 -1.8681814741661577e-02 0.0000000000000000e+00  -8.0784622747856070e-04 -6.0909617009606929e-03 0.0000000000000000e+00  -5.9387693860085623e-04 -4.2514113514897249e-02 0.0000000000000000e+00  -2.3781941862318683e-02 -3.5196567676943902e-02 0.0000000000000000e+00  2.3933551305122359e-02 -3.4541711599863793e-02 0.0000000000000000e+00  1.7102239067581460e-02 -1.6394079081094155e-02 0.0000000000000000e+00  3.1334296778167819e-02 -2.6434922165998437e-02 0.0000000000000000e+00  -3.1617102281922028e-02 -2.9671579598140891e-02 0.0000000000000000e+00  8.1005944407828317e-04 -5.8969443773520328e-03 0.0000000000000000e+00  5.6508849489649293e-03 -3.1088033075579120e-02 0.0000000000000000e+00  -3.3251532783579022e-04 -3.5062844886246766e-02 0.0000000000000000e+00  -1.3987818377194884e-03 -4.4773707794179246e-02 0.0000000000000000e+00  -9.4986498008967741e-04 -1.4175633466049874e-02 0.0000000000000000e+00  5.3152473013934722e-03 -5.4537823497387471e-02 0.0000000000000000e+00  2.9737402027778026e-04 -1.8458654233561415e-02 0.0000000000000000e+00  -9.5380026365909682e-04 -3.4050143796269167e-02 0.0000000000000000e+00  -6.0930381919874514e-03 -5.2781501666460933e-03 0.0000000000000000e+00  1.8250933666669541e-04 -5.5866105791418184e-03 0.0000000000000000e+00  1.1550865552121985e-03 -1.3230217927469451e-02 0.0000000000000000e+00  -2.7177167592752792e-03 -5.5040501267742906e-03 0.0000000000000000e+00  -2.4991129832927922e-02 -1.5769189201098124e-02 0.0000000000000000e+00  -2.6404949320835223e-02 -4.0768669693386196e-02 0.0000000000000000e+00  2.4405613739488699e-02 -1.4935155793674056e-02 0.0000000000000000e+00  2.6970765877320571e-02 -4.0044599023381866e-02 0.0000000000000000e+00  2.1607441943716581e-03 -3.0390948663956144e-02 0.0000000000000000e+00  -2.3557283683817917e-03 -4.8877339602970762e-02 0.0000000000000000e+00  -6.4891268368819973e-03 -3.5586763193327868e-02 0.0000000000000000e+00  -5.8938301226804006e-03 -5.3972878402850463e-02 0.0000000000000000e+00  -1.3032782141116823e-03 -5.3162647718881057e-03 0.0000000000000000e+00  3.5991038799671961e-03 -2.7455680950558337e-02 0.0000000000000000e+00  8.9044132530061472e-03 -2.8838204066389452e-02 0.0000000000000000e+00  1.0262299940853046e-02 -5.5020149668179585e-02 0.0000000000000000e+00  -6.7702404558742215e-03 -4.0920317291473086e-02 0.0000000000000000e+00  -8.7561728513716099e-03 -4.2918442251423444e-03 0.0000000000000000e+00  1.4057464742255015e-02 -2.5771490843534108e-02 0.0000000000000000e+00  -3.7352561014987535e-05 -4.2972968086488414e-02 0.0000000000000000e+00  -9.7445787264803536e-03 -2.6233824946771588e-02 0.0000000000000000e+00  2.5100966175122193e-02 -2.1861170835737756e-02 0.0000000000000000e+00  -2.5105794222865671e-02 -2.2095735956996623e-02 0.0000000000000000e+00  -1.0046202951718779e-02 -5.5164743128581710e-02 0.0000000000000000e+00  -1.5891925899791465e-02 -1.3551424361191606e-02 0.0000000000000000e+00  -4.1519058716863689e-03 -1.3778759688489786e-02 0.0000000000000000e+00  -7.3475561544535291e-04 -2.1406698280288169e-02 0.0000000000000000e+00  1.1040322355137294e-03 -2.2103407874574620e-02 0.0000000000000000e+00  -6.7732904558332934e-03 -1.4257138184627309e-02 0.0000000000000000e+00  6.7602236026137940e-03 -4.7087908333465532e-03 0.0000000000000000e+00  3.8302061222102012e-03 -1.9892706438784779e-02 0.0000000000000000e+00  5.5545304164746350e-04 -4.5202057996234030e-02 0.0000000000000000e+00  -4.1299026013965302e-03 -2.1685478078386514e-02 0.0000000000000000e+00  -4.4981727705244027e-04 -4.4572328899002197e-03 0.0000000000000000e+00  4.9098691683999822e-03 -3.9112378845248874e-02 0.0000000000000000e+00  3.0140335021040959e-03 -5.4366408134992293e-03 0.0000000000000000e+00  -1.0312530530842919e-02 -1.3804442694285005e-02 0.0000000000000000e+00  1.0373205462223733e-02 -4.3895776297835976e-02 0.0000000000000000e+00  -3.2951788340462092e-04 -1.4915811824162430e-02 0.0000000000000000e+00  5.8857601508240727e-04 -3.3061399647385373e-02 0.0000000000000000e+00  -1.0374339738031977e-02 -4.4400556358787688e-02 0.0000000000000000e+00  -5.3492763993373657e-04 -4.5208409526251020e-02 0.0000000000000000e+00  -2.2824123163986033e-04 -4.3313754