<?xml version="1.0"?>
<VTKFile type="UnstructuredGrid"  version="0.1"  >
<UnstructuredGrid>
<Piece  NumberOfPoints="1855" NumberOfCells="3532">
<Points>
<DataArray  type="Float64"  NumberOfComponents="3"  format="ascii">0 0 0  30 0 0  30 -10 0  0 -10 0  0.1391574078963744 0 0  0.2856388821882616 0 0  0.4398299073010886 0 0  0.6021362569539473 0 0  0.7729850389704483 0 0  0.9528258543586996 0 0  1.142131984380316 0 0  1.34140159760994 0 0  1.551159074717981 0 0  1.771956417032531 0 0  2.004374674080994 0 0  2.249025475789527 0 0  2.506552636773105 0 0  2.777633857742732 0 0  3.062982518028728 0 0  3.363349525995907 0 0  3.679525322337712 0 0  4.01234195575742 0 0  4.362675247811097 0 0  4.731447135329707 0 0  5.119628065610077 0 0  5.528239565804708 0 0  5.958356943167011 0 0  6.411112081475485 0 0  6.887696441559404 0 0  7.389364184530748 0 0  7.917435485335147 0 0  8.473300005202017 0 0  9.058420557070402 0 0  9.674336929103793 0 0  10.32266995225095 0 0  11.00512576896296 0 0  11.72350030646412 0 0  12.47968402994705 0 0  13.27566689579597 0 0  14.1135435963616 0 0  14.9955190732806 0 0  15.92391430904694 0 0  16.90117245730496 0 0  17.92986524844506 0 0  19.01269976086341 0 0  20.15252556282024 0 0  21.35234220269763 0 0  22.61530708683689 0 0  23.94474379751883 0 0  25.34415086349739 0 0  26.81721093579712 0 0  28.3678004819169 0 0  30 -1.111111111111111 0  30 -2.222222222222222 0  30 -3.333333333333333 0  30 -4.444444444444445 0  30 -5.555555555555555 0  30 -6.666666666666666 0  30 -7.777777777777777 0  30 -8.888888888888889 0  28.36780047917311 -10 0  26.8172109305839 -10 0  25.34415085606858 -10 0  23.94474378810899 -10 0  22.61530707566275 -10 0  21.3523421899591 -10 0  20.15252554870171 -10 0  19.01269974553473 -10 0  17.92986523206254 -10 0  16.90117244001232 -10 0  15.92391429097614 -10 0  14.99551905455266 -10 0  14.11354357708742 -10 0  13.27566687607703 -10 0  12.47968400987599 -10 0  11.72350028612546 -10 0  11.00512574843363 -10 0  10.32266993160086 -10 0  9.674336908396342 -10 0  9.058420536362949 -10 0  8.473299984546333 -10 0  7.917435464777824 -10 0  7.389364164113587 -10 0  6.887696420787165 -10 0  6.411112061446698 -10 0  5.95835692337857 -10 0  5.528239546282652 -10 0  5.119628046377237 -10 0  4.731447115907979 -10 0  4.362675229213632 -10 0  4.012341937260036 -10 0  3.679525304434552 -10 0  3.363349508456405 -10 0  3.062982500861274 -10 0  2.777633840953978 -10 0  2.506552620368097 -10 0  2.249025459771861 -10 0  2.004374658452946 -10 0  1.771956401795187 -10 0  1.551159059871345 -10 0  1.341401583153029 -10 0  1.142131970307521 -10 0  0.9528258406748833 -10 0  0.7729850256685147 -10 0  0.6021362439621285 -10 0  0.4398298947504031 -10 0  0.2856388700059078 -10 0  0.1391573960769001 -10 0  0 -9.855072463768115 0  0 -9.710144927536232 0  0 -9.565217391304348 0  0 -9.420289855072463 0  0 -9.27536231884058 0  0 -9.130434782608695 0  0 -8.985507246376812 0  0 -8.840579710144928 0  0 -8.695652173913043 0  0 -8.55072463768116 0  0 -8.405797101449275 0  0 -8.260869565217391 0  0 -8.115942028985508 0  0 -7.971014492753623 0  0 -7.826086956521739 0  0 -7.681159420289855 0  0 -7.536231884057971 0  0 -7.391304347826087 0  0 -7.246376811594203 0  0 -7.101449275362318 0  0 -6.956521739130435 0  0 -6.811594202898551 0  0 -6.666666666666667 0  0 -6.521739130434783 0  0 -6.376811594202898 0  0 -6.231884057971015 0  0 -6.086956521739131 0  0 -5.942028985507246 0  0 -5.797101449275362 0  0 -5.652173913043478 0  0 -5.507246376811594 0  0 -5.36231884057971 0  0 -5.217391304347826 0  0 -5.072463768115941 0  0 -4.927536231884058 0  0 -4.782608695652174 0  0 -4.637681159420289 0  0 -4.492753623188406 0  0 -4.347826086956522 0  0 -4.202898550724638 0  0 -4.057971014492754 0  0 -3.913043478260869 0  0 -3.768115942028985 0  0 -3.623188405797101 0  0 -3.478260869565217 0  0 -3.333333333333334 0  0 -3.188405797101449 0  0 -3.043478260869565 0  0 -2.898550724637681 0  0 -2.753623188405797 0  0 -2.608695652173912 0  0 -2.463768115942029 0  0 -2.318840579710145 0  0 -2.173913043478261 0  0 -2.028985507246377 0  0 -1.884057971014492 0  0 -1.739130434782609 0  0 -1.594202898550725 0  0 -1.44927536231884 0  0 -1.304347826086957 0  0 -1.159420289855072 0  0 -1.014492753623188 0  0 -0.8695652173913047 0  0 -0.72463768115942 0  0 -0.579710144927537 0  0 -0.4347826086956523 0  0 -0.2898550724637676 0  0 -0.1449275362318829 0  5.15859856094262 -4.976557621770688 0  2.816777084926057 -7.160262673925935 0  2.81677708460006 -2.839737326002783 0  2.227649803257325 -5.003121586636773 0  1.518662968975629 -8.46230852045241 0  1.518662969184829 -1.537691480152612 0  9.960740911025725 -5.055901393541221 0  1.491099662214591 -3.691833922963321 0  1.503675657181264 -6.345020369042368 0  5.319208041801049 -7.493850249937013 0  5.291109955459268 -2.489368743223226 0  1.096914507335763 -2.53623188405797 0  1.096914507253562 -7.463768115942029 0  1.089580194952752 -4.71277167923441 0  15.07565076110197 -5.047572991082069 0  7.501630508673601 -5.937500100385354 0  0.8894869418764504 -5.623930488933245 0  2.955144522453978 -1.440834296472408 0  2.955144521140721 -8.559165705576945 0  8.106603955004623 -2.748811534843258 0  3.662152539483591 -4.228178367024407 0  3.662181528265114 -5.771746159989156 0  0.8436558190317136 -0.8541050638451999 0  0.8436558075840921 -9.145894948342754 0  0.7854168197005933 -1.811594202898552 0  0.7894693398152999 -3.286543351392342 0  0.7854168196772591 -8.188405797101449 0  0.7854168196772591 -6.739130434782609 0  20.00078956016804 -4.999999999785771 0  0.7379120031523989 -3.977302749614766 0  6.584332478112232 -3.934875417052907 0  7.295091310194352 -7.969791332537982 0  9.811174303464586 -7.412814499648229 0  4.013376806449688 -2.206189431585293 0  4.013376806983409 -7.793810569017377 0  12.11177433894592 -2.818343737884045 0  2.591152707837148 -3.990098461753838 0  2.58990939378082 -6.025895074707176 0  25.43156400064585 -5.044446479916348 0  2.03262751726143 -2.282125834846944 0  2.032627517335952 -7.717874165160392 0  12.51865094522923 -6.491408052923457 0  0.598175343983641 -6.156971652625402 0  2.126700074935224 -0.8767654465386991 0  2.126700059112423 -9.123234559633019 0  6.617961838548696 -1.617756429129908 0  0.5903949564549755 -4.980060355019413 0  1.676697585305984 -5.547101897225158 0  4.773518305133987 -3.729331162566817 0  4.77931803486508 -6.231222307502165 0  4.878549698409591 -8.72048903376362 0  4.852580875634024 -1.222215410052823 0  0.5487847095754042 -2.675169258708207 0  0.545113423825768 -7.32369553390529 0  1.78738026998851 -4.400451872599477 0  1.68244194111824 -3.010100184333533 0  1.683984276238402 -7.018293626028473 0  9.998503440677371 -2.00585287985007 0  3.693061162502273 -3.243678395563028 0  3.694987482168253 -6.757603268814477 0  6.081763036485869 -5.83414381546261 0  0.5196640460586313 -1.350633211792632 0  0.5196640458460706 -8.649366789040087 0  3.84593363904758 -0.9906418103762418 0  3.845933620847308 -9.009358200471317 0  17.41551885287501 -3.057748733689079 0  17.30725517812527 -7.002961443761516 0  8.117698464370697 -4.451550942597151 0  0.4918476668493152 -0.4789811193757592 0  0.4918476560347713 -9.521018882514893 0  1.463770869328428 -0.6252343353791154 0  1.463770854281917 -9.374765668872765 0  0.5034132782032188 -4.464280853772128 0  3.138906271796685 -4.99999841599503 0  14.61209972381335 -2.388610981020637 0  6.208601124947327 -8.776231214192325 0  14.74910972998159 -7.542186851303819 0  2.243794246335625 -1.632184311040998 0  2.243794245689214 -8.367815689183566 0  0.4590235278399923 -5.431413993025926 0  0.4971508861448406 -2.209632053221267 0  0.4971508861368665 -7.790367946777407 0  0.4644363683211541 -3.560571347760519 0  6.478811279411406 -7.007392971062433 0  1.238895267772762 -4.173677632458826 0  1.293241773632479 -2.02256720952064 0  1.293241773542714 -7.977432790434841 0  0.4324740478030531 -0.942028985507247 0  0.4324740423701829 -9.057971014492754 0  2.117396640811705 -3.472968170680347 0  2.107095929630507 -6.531506384346077 0  8.087741545730886 -1.392783601483453 0  1.028911946384717 -1.352376108341404 0  1.028911946221715 -8.647623891551962 0  4.05691976296832 -4.991522392209158 0  11.51826881314265 -8.065248940008736 0  1.618560396201739 -4.958056164503666 0  2.701984523487646 -2.141781914603403 0  2.70198452396172 -7.858218085853512 0  2.843615645746219 -9.289121726447632 0  2.843615661334342 -0.7108782798429658 0  8.678774612240533 -8.488146490452822 0  6.487906449371135 -2.667543558824978 0  8.369190916679937 -7.129867754908394 0  11.80978191929258 -4.655775487536958 0  0.3792065166453504 -3.113833531412848 0  0.4134714637263563 -6.58827691137208 0  9.551050695080825 -3.49648183875815 0  1.083867845277057 -6.036251777836495 0  0.3756430921870901 -1.80381664325008 0  0.3756430921689482 -8.196183356748573 0  3.113073783220456 -3.503408140759125 0  3.113391383189963 -6.496678880796299 0  22.62850736315072 -3.277987336300344 0  22.59385352108348 -6.800312122582239 0  0.3777114402537816 -4.137047872695438 0  0.9196816123347897 -0.4281025456111269 0  0.9196815944880363 -9.571897460530383 0  0.4052043328723194 -5.827814332459883 0  8.865857694874787 -5.767686953139113 0  1.200388325130726 -5.182186034620629 0  5.65297436943758 -4.325500846767599 0  1.200079167961391 -3.009849046583253 0  1.20883344838 -7.021823297793294 0  1.057642414577487 -3.660996704809145 0  10.88812987788297 -6.333458225047037 0  4.493502926606794 -2.839780197438185 0  4.485862892033458 -7.147606077919463 0  0.3631651408878085 -7.003529808558233 0  1.946748828463205 -6.049056369468467 0  6.918750162798794 -4.993796052442676 0  3.351203216022585 -1.980935554775394 0  3.351203216441711 -8.019064445907297 0  2.281892243515294 -2.856654416292082 0  2.281892243715877 -7.143345583598931 0  5.811143619672087 -0.9953286820321026 0  2.695713766833098 -4.565354125099452 0  2.698172168139827 -5.435483248292925 0  19.86166219288896 -2.493475492328429 0  19.83739102036415 -7.594404063416508
[...]
<PointData  Vectors="displacement"> 
<DataArray  type="Float64"  Name="displacement"  NumberOfComponents="3" format="ascii">2.6704795982951699e-02 1.4374470592896293e-02 0.0000000000000000e+00  2.2252706652499932e-08 1.6140621094089440e-05 0.0000000000000000e+00  -3.2156069966468450e-08 -1.6496813871867158e-08 0.0000000000000000e+00  2.1637615702322697e-08 -2.0798784237246441e-08 0.0000000000000000e+00  1.0894758248557087e-02 -4.0064493036827643e-03 0.0000000000000000e+00  4.0972970132529532e-03 2.5193947980129078e-04 0.0000000000000000e+00  3.0082970632046607e-03 -2.1839372592623614e-04 0.0000000000000000e+00  1.9762130753706439e-03 -8.8554352115412206e-05 0.0000000000000000e+00  1.5769391602928114e-03 -8.8921145390524731e-05 0.0000000000000000e+00  1.2531665824235363e-03 -8.7655376562935822e-05 0.0000000000000000e+00  1.0480572768557413e-03 -8.0765083221148915e-05 0.0000000000000000e+00  8.9110324198837072e-04 -8.0760915296202674e-05 0.0000000000000000e+00  7.6171482666017914e-04 -7.7159599634653452e-05 0.0000000000000000e+00  6.6341754668147463e-04 -7.6951351165034310e-05 0.0000000000000000e+00  5.7805719816395398e-04 -7.4019990150879674e-05 0.0000000000000000e+00  5.1509971247492518e-04 -6.9593432830627184e-05 0.0000000000000000e+00  4.5550245075201052e-04 -6.9069850946828395e-05 0.0000000000000000e+00  4.0859886477004494e-04 -6.7572953066766196e-05 0.0000000000000000e+00  3.6341053896344602e-04 -6.4890749419824087e-05 0.0000000000000000e+00  3.2678318684863913e-04 -6.2056019930852504e-05 0.0000000000000000e+00  2.9376303524383698e-04 -5.8904971463186117e-05 0.0000000000000000e+00  2.6488263298075481e-04 -5.5643462029739956e-05 0.0000000000000000e+00  2.3963301700896311e-04 -5.2628354065142078e-05 0.0000000000000000e+00  2.1624812088243838e-04 -4.9400414033971931e-05 0.0000000000000000e+00  1.9472878156079530e-04 -4.5265847789202469e-05 0.0000000000000000e+00  1.7603387435285555e-04 -4.0784046202429491e-05 0.0000000000000000e+00  1.6002830519452191e-04 -3.6763361334137423e-05 0.0000000000000000e+00  1.4437659907942435e-04 -3.2067330595613246e-05 0.0000000000000000e+00  1.3100575242247004e-04 -2.7515852739978700e-05 0.0000000000000000e+00  1.1824996401465119e-04 -2.2582945149269692e-05 0.0000000000000000e+00  1.0697560833569247e-04 -1.7518563605188904e-05 0.0000000000000000e+00  9.7158059489912813e-05 -1.2374220862240684e-05 0.0000000000000000e+00  8.8919347472193075e-05 -7.6570804760012272e-06 0.0000000000000000e+00  8.0862900494417341e-05 -2.8034266775022399e-06 0.0000000000000000e+00  7.3951182332495887e-05 1.7131105531839237e-06 0.0000000000000000e+00  6.7907674994799121e-05 6.0159166220866775e-06 0.0000000000000000e+00  6.2875824859808058e-05 9.7438373106635087e-06 0.0000000000000000e+00  5.8124036844948954e-05 1.3115954474885405e-05 0.0000000000000000e+00  5.4099849808858854e-05 1.5827489697470517e-05 0.0000000000000000e+00  5.0065968391775199e-05 1.8154511619793619e-05 0.0000000000000000e+00  4.6728526174895766e-05 1.9727857580539503e-05 0.0000000000000000e+00  4.3167118865842986e-05 2.0884401886208623e-05 0.0000000000000000e+00  3.9946778301118209e-05 2.1413803493345138e-05 0.0000000000000000e+00  3.6481170733846195e-05 2.1561416215483637e-05 0.0000000000000000e+00  3.3241595342986554e-05 2.1249632471176847e-05 0.0000000000000000e+00  2.9547263105724819e-05 2.0670775662005119e-05 0.0000000000000000e+00  2.5879715318964785e-05 1.9913471565484026e-05 0.0000000000000000e+00  2.1957490230646899e-05 1.9067422594956430e-05 0.0000000000000000e+00  1.8207027122304379e-05 1.8159362590070934e-05 0.0000000000000000e+00  1.3914299753934652e-05 1.7247923540575943e-05 0.0000000000000000e+00  9.3368451715109122e-06 1.6572721098576812e-05 0.0000000000000000e+00  4.6497727304851160e-06 1.6202081687064514e-05 0.0000000000000000e+00  5.3385718621859047e-08 1.3502542180142117e-05 0.0000000000000000e+00  -1.4059329504033605e-08 1.0667700785594262e-05 0.0000000000000000e+00  -6.5256176697054214e-09 8.0552511355972286e-06 0.0000000000000000e+00  1.4558556250538933e-08 5.7345419785320776e-06 0.0000000000000000e+00  -1.9013151825833504e-08 3.7128211506933305e-06 0.0000000000000000e+00  1.5542152615862052e-08 2.0674942609426969e-06 0.0000000000000000e+00  -1.1730983011416274e-08 8.5693415459068204e-07 0.0000000000000000e+00  -1.1408225437071180e-09 1.3422681085278952e-07 0.0000000000000000e+00  -1.6846726291441257e-08 -7.2479697485010097e-08 0.0000000000000000e+00  -2.7917979259622320e-10 -8.0135218672875038e-08 0.0000000000000000e+00  6.3826522418898628e-08 -8.9039379917120853e-08 0.0000000000000000e+00  9.0708760863238449e-09 -2.8347065056621095e-08 0.0000000000000000e+00  1.4383074653888179e-08 -4.5773170447961239e-08 0.0000000000000000e+00  7.3861133341689287e-08 -6.4446587413845070e-08 0.0000000000000000e+00  2.4663934886659402e-08 -8.7542257050499214e-08 0.0000000000000000e+00  1.2103083755608217e-07 -8.1907128751303396e-08 0.0000000000000000e+00  3.8168992098758966e-08 -5.2030986202713573e-08 0.0000000000000000e+00  1.1924777619756447e-07 -5.9721474140489065e-08 0.0000000000000000e+00  6.3127985490474382e-08 -2.4170416858223120e-08 0.0000000000000000e+00  9.0585295735857979e-08 -3.0502561644189700e-08 0.0000000000000000e+00  9.2909445412793898e-08 5.7699340880385525e-09 0.0000000000000000e+00  1.0904083815640116e-07 5.9614561268771903e-09 0.0000000000000000e+00  3.2279763618743773e-08 1.4100228290932923e-08 0.0000000000000000e+00  6.8261952323153542e-08 4.9241853860832657e-08 0.0000000000000000e+00  -2.4718492871896008e-09 1.4462361809885268e-08 0.0000000000000000e+00  1.0095204281358953e-07 1.3035544168576758e-07 0.0000000000000000e+00  3.2978204816463665e-08 9.1448472827953958e-08 0.0000000000000000e+00  7.0857108649744513e-08 8.5017214995039390e-08 0.0000000000000000e+00  -5.9548154200364983e-08 8.2771836451914453e-08 0.0000000000000000e+00  1.3403342622893417e-08 1.2705414657830377e-07 0.0000000000000000e+00  -7.9320250226996960e-08 1.7362620489439590e-07 0.0000000000000000e+00  -9.6288808110828982e-08 1.0657769217528665e-07 0.0000000000000000e+00  -9.5184860701774179e-08 5.1862363294008721e-08 0.0000000000000000e+00  -2.6823127353403238e-07 1.3245785688366822e-07 0.0000000000000000e+00  -1.0478243118712670e-07 6.1187524654332487e-08 0.0000000000000000e+00  -1.8656158617044151e-07 7.2413366422586662e-08 0.0000000000000000e+00  -1.1647444092714001e-07 4.4920166895605590e-08 0.0000000000000000e+00  -2.8028632507795211e-07 7.0904234248296313e-08 0.0000000000000000e+00  -2.6759492524584802e-08 -2.4512927279933766e-09 0.0000000000000000e+00  -1.1508812811413731e-07 4.8783415725083467e-09 0.0000000000000000e+00  -9.5953642473854873e-08 2.1100612571201999e-09 0.0000000000000000e+00  -6.9687468095916513e-08 -5.7565835799765377e-09 0.0000000000000000e+00  -1.5758456773845164e-07 -3.1645812789222072e-08 0.0000000000000000e+00  -3.7639569190325084e-08 -1.2779296200523458e-08 0.0000000000000000e+00  -1.2946814509013355e-07 -4.4293803010103997e-08 0.0000000000000000e+00  -1.8337619357475260e-08 -1.0762230988432858e-08 0.0000000000000000e+00  -2.2766660655899068e-08 -3.4873958630749779e-08 0.0000000000000000e+00  -5.6598413607604365e-08 -3.0767721679693570e-08 0.0000000000000000e+00  -3.0867497144011613e-08 -3.2814379417123284e-08 0.0000000000000000e+00  -7.7429937262029724e-09 -1.1686433815285499e-08 0.0000000000000000e+00  -1.8194386339575586e-08 -1.7430932850456016e-08 0.0000000000000000e+00  -1.6523788079401738e-09 -2.2200870735406617e-08 0.0000000000000000e+00  6.7060621315351431e-11 -1.1875336895019786e-08 0.0000000000000000e+00  -2.6222115422420342e-08 -2.0827742057609020e-08 0.0000000000000000e+00  6.1959636820925370e-09 -2.0812528773333108e-08 0.0000000000000000e+00  -6.3141155440647003e-09 -6.9103183774422918e-09 0.0000000000000000e+00  -5.2453301324459173e-09 5.9613399291093868e-07 0.0000000000000000e+00  7.7526374837167001e-09 1.5163334841049987e-06 0.0000000000000000e+00  -9.6709660298896571e-09 2.6998559452510664e-06 0.0000000000000000e+00  8.8597795541758555e-10 4.1518060034484367e-06 0.0000000000000000e+00  -4.5310126452313650e-09 5.8199694638567383e-06 0.0000000000000000e+00  -3.6253660603402997e-09 7.7232260588040955e-06 0.0000000000000000e+00  8.2257779271048151e-09 9.8206942032604576e-06 0.0000000000000000e+00  -7.6592513551022428e-09 1.2112980420346203e-05 0.0000000000000000e+00  6.9969132963554722e-09 1.4590154033256843e-05 0.0000000000000000e+00  -9.2903216134274632e-09 1.7237675094197187e-05 0.0000000000000000e+00  5.7236666976769411e-09 2.0048969652847824e-05 0.0000000000000000e+00  -3.6950466737290070e-09 2.3022625652638683e-05 0.0000000000000000e+00  4.1512919134438991e-09 2.6152334538752995e-05 0.0000000000000000e+00  -7.7071193498706405e-09 2.9430917422112282e-05 0.0000000000000000e+00  4.7492317271419295e-09 3.2862655185591170e-05 0.0000000000000000e+00  -5.7263134085198214e-09 3.6441750884871119e-05 0.0000000000000000e+00  -3.6857298109884709e-09 4.0178126918283826e-05 0.0000000000000000e+00  1.8401211772834240e-09 4.4050970833620580e-05 0.0000000000000000e+00  4.4401016455880284e-09 4.8091683945980828e-05 0.0000000000000000e+00  -2.1382440759494564e-09 5.2281327184085485e-05 0.0000000000000000e+00  3.1856260367654674e-09 5.6634205880058261e-05 0.0000000000000000e+00  -8.3962400805874110e-09 6.1149245492563012e-05 0.0000000000000000e+00  2.3714973645814512e-09 6.5854309510781476e-05 0.0000000000000000e+00  1.0173791564735122e-09 7.0703788972281134e-05 0.0000000000000000e+00  -1.3817626451474130e-09 7.5791464235025035e-05 0.0000000000000000e+00  -1.0173825552442230e-08 8.1078450857281940e-05 0.0000000000000000e+00  -4.9216372743558215e-09 8.6557663991483708e-05 0.0000000000000000e+00  -5.1238140721511808e-09 9.2241676015598900e-05 0.0000000000000000e+00  7.1290462142805788e-09 9.8194654042579565e-05 0.0000000000000000e+00  -1.2974164874116785e-08 1.0441199888010209e-04 0.0000000000000000e+00  4.3932794595333622e-09 1.1091796631050608e-04 0.0000000000000000e+00  -1.4411290431604312e-08 1.1771910614839750e-04 0.0000000000000000e+00  5.4481665920564088e-09 1.2486641980646867e-04 0.0000000000000000e+00  -1.1269939624268311e-08 1.3233744992262108e-04 0.0000000000000000e+00  -5.9383904909779117e-09 1.4016407238786759e-04 0.0000000000000000e+00  -7.5294804211862909e-09 1.4856201451871683e-04 0.0000000000000000e+00  -1.4340983930683724e-09 1.5720760641730353e-04 0.0000000000000000e+00  1.7864165675761661e-08 1.6660447728991947e-04 0.0000000000000000e+00  -4.3931501053057286e-08 1.7642588504518907e-04 0.0000000000000000e+00  2.3609249763107397e-08 1.8680794279419586e-04 0.0000000000000000e+00  -2.5392595258061949e-08 1.9795077213700097e-04 0.0000000000000000e+00  1.7304303216719664e-08 2.0989609977074342e-04 0.0000000000000000e+00  -2.5996694827322483e-08 2.2267414196362268e-04 0.0000000000000000e+00  -1.7896230558395404e-08 2.3632264593561120e-04 0.0000000000000000e+00  -5.6858339127742400e-09 2.5130411571797426e-04 0.0000000000000000e+00  6.6796906381618785e-08 2.6727815915810024e-04 0.0000000000000000e+00  -4.5331268135273210e-08 2.8472366688130985e-04 0.0000000000000000e+00  1.1679670639926825e-09 3.0384658274901059e-04 0.0000000000000000e+00  2.2762375222947531e-08 3.2490113173372191e-04 0.0000000000000000e+00  -1.8234989085541398e-08 3.4779222265493782e-04 0.0000000000000000e+00  -2.1628600867029115e-08 3.7289425200584731e-04 0.0000000000000000e+00  -1.1680858522385442e-07 4.0193293188846031e-04 0.0000000000000000e+00  1.2492751982353069e-07 4.3375137779296224e-04 0.0000000000000000e+00  -1.8003387710009893e-07 4.6968093943034362e-04 0.0000000000000000e+00  2.4182099328549693e-07 5.1118965671878504e-04 0.0000000000000000e+00  -3.2316854354366138e-07 5.5862752240268536e-04 0.0000000000000000e+00  9.1573009636912252e-08 6.1433990723755547e-04 0.0000000000000000e+00  -5.7383569063780288e-07 6.7974889547780994e-04 0.0000000000000000e+00  2.8328880538772673e-07 7.6105899218377590e-04 0.0000000000000000e+00  -1.6517789337837438e-06 8.5630072310366304e-04 0.0000000000000000e+00  5.3750237819356777e-07 9.7798398194596787e-04 0.0000000000000000e+00  -2.4935473148452866e-06 1.1289473048168527e-03 0.0000000000000000e+00  -2.8660895030732617e-06 1.3386512792095560e-03 0.0000000000000000e+00  3.0431086312100330e-06 1.6501847712413616e-03 0.0000000000000000e+00  -3.0130585928073202e-05 2.0716563407093720e-03 0.0000000000000000e+00  -8.3224370543294251e-05 2.7719780739679147e-03 0.0000000000000000e+00  8.8920639925664665e-04 4.1191908799937992e-03 0.0000000000000000e+00  -7.7907930894635527e-03 8.9246208238041701e-03 0.0000000000000000e+00  -1.0528168976198646e-05 -5.5182809950246081e-05 0.0000000000000000e+00  -4.9047059088455001e-05 1.3185415549598319e-05 0.0000000000000000e+00  -8.2754728450524359e-06 -6.9986043451666463e-05 0.0000000000000000e+00  -6.5699506536477363e-05 4.3190813973568471e-05 0.0000000000000000e+00  -2.3334602531223757e-05 1.4422852812429074e-05 0.0000000000000000e+00  8.6031468517531301e-07 -6.5001034847839956e-05 0.0000000000000000e+00  3.9131383264575291e-05 -2.3868372544075971e-05 0.0000000000000000e+00  -8.2457568040815083e-05 1.1180571811775920e-04 0.0000000000000000e+00  -4.2710137451885224e-05 5.4666407527403711e-05 0.0000000000000000e+00  -3.2190174351742667e-05 -1.5343466721479629e-05 0.0000000000000000e+00  9.7099491111948187e-05 -1.0002457603689001e-04 0.0000000000000000e+00  -1.1477425410234962e-04 1.9010677407487478e-04 0.0000000000000000e+00  -2.5014324853203834e-05 3.6192699615644519e-05 0.0000000000000000e+00  -5.2459373718429189e-05 1.1854991776427928e-04 0.0000000000000000e+00  3.6236183249943320e-05 3.0955519400926309e-06 0.0000000000000000e+00  8.5252846085131711e-06 -3.6511323502780895e-05 0.0000000000000000e+00  -3.3900188930344362e-05 9.2616045142264583e-05 0.0000000000000000e+00  1.9011049920795913e-04 -1.6108031795818430e-04 0.0000000000000000e+00  -3.3007969389090197e-05 4.7311224421314970e-06 0.0000000000000000e+00  7.9378654971203532e-05 -4.8964753068490448e-05 0.0000000000000000e+00  -3.0830506361783823e-05 -4.6380397044729512e-05 0.0000000000000000e+00  -5.0927009809824220e-05 -1.2383686027125615e-05 0.0000000000000000e+00  9.4547597036613647e-06 -4.9125073283519330e-05 0.0000000000000000e+00  -8.9409309498218775e-06 6.9590390677923927e-06 0.0000000000000000e+00  -1.5853728849601854e-04 3.0603752506591024e-04 0.0000000000000000e+00  -7.2971135990937142e-05 2.1703059885023912e-04 0.0000000000000000e+00  -1.4569348014274492e-05 2.2864585292159492e-05 0.0000000000000000e+00  -2.2455481001659012e-05 5.8368154885061869e-05 0.0000000000000000e+00  2.2774781968766831e-05 6.7925479659424241e-06 0.0000000000000000e+00  -5.0983901066613647e-05 1.7664858825502803e-04 0.0000000000000000e+00  4.3849175289460166e-05 -6.8395499263594170e-05 0.0000000000000000e+00  -1.0171356095763184e-05 -1.2759694948843293e-05 0.0000000000000000e+00  1.3278644311516987e-05 -1.1498651867357167e-05 0.0000000000000000e+00  1.0717816914467770e-04 -1.2503487945710113e-04 0.0000000000000000e+00  -4.1740905565961841e-05 -3.4046575344660885e-06 0.0000000000000000e+00  5.7774782689884238e-05 -3.8152264844862040e-06 0.0000000000000000e+00  -6.1819150670851161e-05 5.1089113744090503e-06 0.0000000000000000e+00  -5.7669031213185478e-05 2.3958935746566238e-05 0.0000000000000000e+00  9.3498302551424091e-06 5.1659186071858503e-06 0.0000000000000000e+00  -3.0495961688805015e-05 -4.0198051500403020e-05 0.0000000000000000e+00  -3.7466966641608429e-05 2.0496649937619188e-05 0.0000000000000000e+00  2.9472965667936306e-05 -5.2021992733849868e-06 0.0000000000000000e+00  -2.0324780262981024e-05 7.9526451092371678e-05 0.0000000000000000e+00  3.3578905124090520e-04 -2.0610452683756213e-04 0.0000000000000000e+00  -1.9675794724130177e-05 4.5996103895201522e-06 0.0000000000000000e+00  1.2195932246127038e-04 -6.6155430313467618e-05 0.0000000000000000e+00  -2.8718977269605418e-05 1.2843679493781512e-04 0.0000000000000000e+00  -5.4834605439889999e-05 6.5729430899206243e-05 0.0000000000000000e+00  2.2116507538260676e-05 -8.2946428831396989e-05 0.0000000000000000e+00  -3.6311902296270535e-05 -2.7405158505595188e-05 0.0000000000000000e+00  -2.6591201889663699e-05 -3.5625808547442957e-06 0.0000000000000000e+00  1.7809600316803472e-04 -9.8659070079996336e-05 0.0000000000000000e+00  -7.9120803782333364e-05 3.0926460546360575e-04 0.0000000000000000e+00  -1.3536100742111087e-05 4.4241886138734540e-05 0.0000000000000000e+00  -7.1913806031444403e-05 7.6427081165906480e-05 0.0000000000000000e+00  -8.9276554415800911e-05 7.6653080880508955e-05 0.0000000000000000e+00  -3.9561569789229047e-05 3.6901302345393741e-05 0.0000000000000000e+00  7.5899409840793653e-05 -1.8391419446187619e-05 0.0000000000000000e+00  1.2225392523355518e-05 -8.5445383882029374e-05 0.0000000000000000e+00  -4.9978514325548359e-05 -4.0355939869573742e-06 0.0000000000000000e+00  -9.9363200344325142e-06 -4.2177223313294004e-05 0.0000000000000000e+00  -2.1189446655914279e-04 5.0694212912205097e-04 0.0000000000000000e+00  -7.9467847183365361e-06 1.4955448676699435e-05 0.0000000000000000e+00  2.3333174771613996e-04 -1.2165922076334835e-04 0.0000000000000000e+00  -2.5542080054404627e-05 1.5585921058214998e-07 0.0000000000000000e+00  3.5684241775431841e-05 1.1868157974811437e-05 0.0000000000000000e+00  2.1095732392704674e-05 2.1300273023997221e-06 0.0000000000000000e+00  4.1774569046286732e-05 -4.5863100748117888e-05 0.0000000000000000e+00  5.9502698598382776e-05 -8.1377019794976358e-05 0.0000000000000000e+00  -3.2759052390625579e-06 3.0434248566163447e-06 0.0000000000000000e+00  4.8421216062850906e-04 -2.6804851810401250e-04 0.0000000000000000e+00  -1.1348674474202935e-05 3.7014858355978376e-06 0.0000000000000000e+00  -2.9903641453049651e-05 1.5914664815138582e-04 0.0000000000000000e+00  -5.6187361950395372e-05 -5.0546699359389114e-06 0.0000000000000000e+00  4.7816719285381701e-05 9.7299868584402195e-06 0.0000000000000000e+00  -1.6916637076046911e-05 -5.3010039901024351e-06 0.0000000000000000e+00  2.1292742847432969e-05 -1.9871145792341894e-07 0.0000000000000000e+00  1.0471284808343437e-04 -1.4575025943603122e-04 0.0000000000000000e+00  -3.1927105694276005e-05 1.0883707040401623e-05 0.0000000000000000e+00  -1.9538807206909050e-05 1.1037534166651905e-04 0.0000000000000000e+00  -1.0152101004400445e-04 3.8580880882946767e-04 0.0000000000000000e+00  -1.0782737498820847e-05 3.2750338596856387e-05 0.0000000000000000e+00  -4.1556428340040236e-05 2.2663009951434288e-04 0.0000000000000000e+00  -1.6314726327373853e-05 -2.4715992390923645e-05 0.0000000000000000e+00  -6.7498525994224342e-05 1.2717917031725284e-04 0.0000000000000000e+00  -1.0798858525055819e-04 1.0105685567453470e-04 0.0000000000000000e+00  -2.4666196134204466e-05 2.3901409624409567e-05 0.0000000000000000e+00  -3.0114445392961220e-04 6.3662671251372971e-04 0.0000000000000000e+00  -5.0655558264993089e-06 8.5644655934269731e-06 0.0000000000000000e+00  -7.3456043731076888e-05 3.3122422837083007e-05 0.0000000000000000e+00  -5.0098093910820987e-05 3.4925961166933020e-05 0.0000000000000000e+00  1.0220641032311264e-04 -3.7302144354090181e-05 0.0000000000000000e+00  -1.0383394581202288e-04 8.1375625721894884e-05 0.0000000000000000e+00  -1.5236115425527007e-05 1.3696085882586516e-05 0.0000000000000000e+00  -3.6222606475815917e-05 -3.7476844408107739e-05 0.0000000000000000e+00  1.5284762229447245e-05 -4.0927239820920299e-06 0.0000000000000000e+00  -6.1693408668753034e-05 8.0196032707846728e-05 0.0000000000000000e+00  5.5910664247968585e-05 -1.1709669676312286e-04 0.0000000000000000e+00  -4.1310885568865427e-05 1.0838099199324309e-05 0.0000000000000000e+00  -1.9150273152644131e-05 2.0445442723471138e-06 0.0000000000000000e+00  3.3267975684919514e-04 -1.4895967421116560e-04 0.0000000000000000e+00  3.3918581580817554e-07 -6.5379808732292074e-06 0.0000000000000000e+00  8.8435473908438292e-05 -7.7051477852972149e-05 0.0000000000000000e+00  4.6039098296488705e-06 -1.9082546114011853e-05 0.0000000000000000e+00  4.4842562745296205e-05 -1.001