<?xml version="1.0"?>
<VTKFile type="UnstructuredGrid"  version="0.1"  >
<UnstructuredGrid>
<Piece  NumberOfPoints="572" NumberOfCells="1038">
<Points>
<DataArray  type="Float64"  NumberOfComponents="3"  format="ascii">0 0 0  4 0 0  4 -1 0  0 -1 0  0.09999999999999999 0 0  0.2 0 0  0.3 0 0  0.4 0 0  0.4999999999999998 0 0  0.5999999999999996 0 0  0.6999999999999995 0 0  0.7999999999999994 0 0  0.8999999999999992 0 0  0.999999999999999 0 0  1.099999999999999 0 0  1.199999999999999 0 0  1.299999999999999 0 0  1.399999999999999 0 0  1.499999999999998 0 0  1.599999999999998 0 0  1.699999999999999 0 0  1.799999999999999 0 0  1.899999999999999 0 0  2 0 0  2.1 0 0  2.200000000000001 0 0  2.300000000000001 0 0  2.400000000000002 0 0  2.500000000000002 0 0  2.600000000000002 0 0  2.700000000000003 0 0  2.800000000000003 0 0  2.900000000000004 0 0  3.000000000000004 0 0  3.100000000000005 0 0  3.200000000000005 0 0  3.300000000000005 0 0  3.400000000000004 0 0  3.500000000000004 0 0  3.600000000000003 0 0  3.700000000000002 0 0  3.800000000000002 0 0  3.900000000000001 0 0  4 -0.08333333333333325 0  4 -0.1666666666666665 0  4 -0.2499999999999997 0  4 -0.333333333333333 0  4 -0.4166666666666666 0  4 -0.5000000000000001 0  4 -0.5833333333333337 0  4 -0.6666666666666673 0  4 -0.7500000000000006 0  4 -0.8333333333333337 0  4 -0.9166666666666669 0  3.9 -1 0  3.8 -1 0  3.7 -1 0  3.6 -1 0  3.5 -1 0  3.4 -1 0  3.300000000000001 -1 0  3.200000000000001 -1 0  3.100000000000001 -1 0  3.000000000000001 -1 0  2.900000000000001 -1 0  2.800000000000001 -1 0  2.700000000000001 -1 0  2.600000000000001 -1 0  2.500000000000002 -1 0  2.400000000000002 -1 0  2.300000000000002 -1 0  2.200000000000001 -1 0  2.100000000000001 -1 0  2 -1 0  1.9 -1 0  1.799999999999999 -1 0  1.699999999999999 -1 0  1.599999999999998 -1 0  1.499999999999998 -1 0  1.399999999999998 -1 0  1.299999999999997 -1 0  1.199999999999997 -1 0  1.099999999999996 -1 0  0.9999999999999956 -1 0  0.899999999999995 -1 0  0.7999999999999949 -1 0  0.6999999999999953 -1 0  0.5999999999999956 -1 0  0.499999999999996 -1 0  0.3999999999999968 -1 0  0.2999999999999976 -1 0  0.1999999999999984 -1 0  0.0999999999999992 -1 0  0 -0.9166666666666667 0  0 -0.8333333333333335 0  0 -0.7500000000000002 0  0 -0.666666666666667 0  0 -0.5833333333333335 0  0 -0.4999999999999999 0  0 -0.4166666666666663 0  0 -0.3333333333333327 0  0 -0.2499999999999994 0  0 -0.1666666666666663 0  0 -0.08333333333333315 0  3.491090701185765 -0.499339806301727 0  0.4950203227078167 -0.4989128584675094 0  2.64262313781888 -0.4879297506908338 0  1.449999999999998 -0.5 0  2.058402291097397 -0.5120941233772698 0  0.9749999999999992 -0.4749999999999993 0  3.081769880806683 -0.5597407802610527 0  1.745473944409859 -0.3290615136625714 0  2.347280045777389 -0.6545118286598804 0  2.335768673639667 -0.3237239238763549 0  1.750327526220345 -0.682828817540943 0  3.707492972392909 -0.3028030525063309 0  0.293580296675358 -0.7109385489008262 0  3.71498825372084 -0.7080088716251347 0  0.2918697062415769 -0.2988161261649331 0  3.250413907284768 -0.3098344370860925 0  0.7481958762886598 -0.6907216494845363 0  2.897531957111618 -0.3144800466372323 0  1.202975631932859 -0.6871206495416401 0  0.7276881720430104 -0.301075268817204 0  1.222241507685503 -0.2908020883113388 0  2.821785532795642 -0.7097679058139483 0  3.313580174540806 -0.7110306688463971 0  1.50219738324048 -0.2570217529780842 0  2.109436430026117 -0.7485141141565509 0  2.001923272149049 -0.2612004201407864 0  2.591779594323503 -0.2533220405676498 0  1.508220405676497 -0.7466779594323502 0  2.584305190871683 -0.7502831919469019 0  3.478286033189422 -0.23795222571263 0  0.5261060937617643 -0.7658117832712512 0  3.785135972681774 -0.5040707172464052 0  0.2090645029521114 -0.4969048262114374 0  0.9574438986108131 -0.2423163095862805 0  0.9754244626643473 -0.7628641460288867 0  0.5097271592765806 -0.2292760602594508 0  3.047448237147327 -0.7984168297371277 0  3.522893514415914 -0.785726174019542 0  3.27411286219494 -0.5150314861460955 0  2.876192398366876 -0.5166549013936721 0  3.072152863254761 -0.2028141497170135 0  2.188888454287124 -0.1960738743988359 0  1.911111545712876 -0.8039261256011641 0  0.6968885413728847 -0.4974520678389611 0  1.252104989604988 -0.4970114345114344 0  1.649610740490046 -0.5028202775347195 0  2.446694231298332 -0.485633542353709 0  1.845992484168205 -0.4989419599210881 0  2.246214131289309 -0.4959316037735846 0  2.743080194417513 -0.1797603284198384 0  1.345217800961618 -0.8177514544794908 0  3.831771135951664 -0.1764827624326512 0  0.168177957407361 -0.823589473522286 0  3.837430960455357 -0.8286944021295046 0  0.167391597779325 -0.1752538625856722 0  3.066111254276541 -0.3870061788029396 0  1.358909159394344 -0.1720779287034414 0  1.669284305949535 -0.172759019086266 0  2.264869859182613 -0.8283162784008133 0  2.434165412425708 -0.1697954173687042 0  1.668706113475668 -0.8314479749300888 0  1.842683258862577 -0.1656794186994128 0  3.848464877921415 -0.3616620315967092 0  0.151535122078585 -0.6383379684032905 0  3.848707346075076 -0.6466646759135177 0  0.1509968549082652 -0.3452619778382686 0  2.732975255829699 -0.3508363638623346 0  1.370252652534258 -0.6495109932111033 0  1.11832587037856 -0.1733419061976365 0  2.439737645513045 -0.836456385212641 0  3.331229791744127 -0.165499768727795 0  0.6726591332606813 -0.8336090461037186 0  1.132616756253317 -0.8280723285747189 0  1.950606351728588 -0.6518091391595896 0  2.153824719141371 -0.3536025000168445 0  3.62532407618639 -0.1564302309141494 0  0.3803710983093131 -0.8404803223371928 0  1.377912260103223 -0.3517997484404782 0  0.8924624300191402 -0.6125774599817652 0  3.207249628251628 -0.8375220474312923 0  0.6546785576266954 -0.155978749966339 0  2.719684587363634 -0.8327734580127736 0  3.647699282718985 -0.5637569936419204 0  0.3570156455557587 -0.5653989322146081 0  0.8322251523939386 -0.8403847541693579 0  0.3645988133126639 -0.1519337183240305 0  1.061404500324257 -0.6180105656135877 0  3.396758647231262 -0.3766313243368538 0  0.8148021518360848 -0.1629813466347811 0  0.6093556516052328 -0.6299486913462624 0  0.415997866655875 -0.3680522660477806 0  0.5920160015096863 -0.3645412637424194 0  3.572255424430109 -0.362089200459548 0  1.08043890485706 -0.3398660584513152 0  2.923658429424994 -0.1561137197110593 0  3.653613361778262 -0.8546909554159527 0  3.456739790681186 -0.6487708965425909 0  0.8424839600900655 -0.4190496412612194 0  2.6968241495241 -0.6460539373019687 0  2.90777185621417 -0.8467190841342236 0  3.167421855912535 -0.6853653881872064 0  3.378998015397395 -0.8550267917096944 0  2.549623533286458 -0.6074164390661531 0  1.563854363100012 -0.3870450365840445 0  1.945115925347995 -0.3956210114182645 0  2.206384380497951 -0.6363666106481864 0  2.9679770331043 -0.6663940397605803 0  2.492817266347368 -0.3527603982764793 0  1.545918816851176 -0.6075709531787901 0  2.028456012399734 -0.8701972194942087 0  2.065700499244939 -0.1359115819594244 0  1.113999927383315 -0.4803729266898425 0  3.194766700972084 -0.1349664610116483 0  1.791586588241401 -0.8656156413257059 0  2.307333345265183 -0.1346440826116952 0  2.64093544674549 -0.1331489671463476 0  0.4565707965077976 -0.6534785968762363 0  1.459077473581533 -0.8718776489042938 0  1.56279060907849 -0.1324694119967317 0  0.3144726782861624 -0.406319735913186 0  3.686635179527132 -0.4155119011072678 0  3.583227123430988 -0.6879918386850498 0  3.884530589958141 -0.5337716741137969 0  0.1138901561454064 -0.4712706309748976 0  2.551320204776417 -0.8759992125181354 0  2.968455986624249 -0.4231600805006418 0  1.843995631966074 -0.2713141166917306 0  1.23826657576458 -0.1310261345083986 0  1.632298315745049 -0.7047459448475459 0  3.454977942639006 -0.1019833897113779 0  2.11213131937471 -0.6131325843633801 0  1.631670858552932 -0.3027829344070553 0  0.549999999999996 -0.8847857258099061 0  2.175907031111534 -0.8808902127996396 0  2.440789547527098 -0.7252338716820566 0  0.9499999999999957 -0.8853403742417534 0  0.1192006629558211 -0.7258150973260704 0  0.1086302422397907 -0.2553484983400458 0  3.891615894289125 -0.7428762999771643 0  3.880790852604017 -0.2741969419997524 0  2.58999033724616 -0.3943081590477266 0  0.95310975133633 -0.1100375897447476 0  0.9389274183125247 -0.357418794071099 0  0.5436861363815539 -0.1129935035840732 0  1.237622314162623 -0.8886349339205675 0  2.766143121931948 -0.4669467935657355 0  3.157965388639583 -0.4824178848815803 0  3.732166646772587 -0.1061123528525496 0  0.8463407040907105 -0.2803849511418723 0  0.2658218649297859 -0.8967607408767373 0  3.384357462435764 -0.5450459842617623 0  1.954320722194999 -0.1009956898074866 0  0.8013980381943526 -0.5278489923710374 0  3.744358883260304 -0.603637271636247 0  0.2581863795088786 -0.6001369967359219 0  0.2629966501688439 -0.1025990268626685 0  0.3980883060404261 -0.7330050441066103 0  1.076076863672032 -0.7275728344185368 0  1.749999999999999 -0.5550190100941714 0  2.351512610076122 -0.5440435521440684 0  0.8619623856291254 -0.7246873586411677 0  3.553081028189586 -0.8932001918706867 0  2.806636304103025 -0.6100531542467602 0  2.546714489935151 -0.08818853426728746 0  1.172246975380209 -0.5783812280673658 0  1.560837452008869 -0.9052833905541354 0  3.005913589025749 -0.2858329927011495 0  3.104244827324224 -0.8867193195303111 0  0.6392996137609843 -0.7340215588892431 0  3.370409685921998 -0.2678372406131186 0  1.860045411420065 -0.6863616357695403 0  2.239306624928278 -0.3159929711989559 0  0.620090528303912 -0.2611000972275821 0  1.457468991263225 -0.08750102207080079 0  1.752790718352056 -0.1005001786212033 0  0.394717592657301 -0.2605042194828123 0  3.745581301416776 -0.9074819423317642 0  3.141158115761163 -0.2920724092797614 0  3.257376892791448 -0.6242591031763242 0  2.350280737493299 -0.9013197570937703 0  3.914203942485891 -0.125 0  3.914203942485891 -0.8750000000000003 0  0.08579605751410901 -0.1249999999999997 0  0.08579605751410968 -0.875 0  3.921126745430668 -0.4525
[...]
<PointData  Vectors="displacement"> 
<DataArray  type="Float64"  Name="displacement"  NumberOfComponents="3" format="ascii">-2.1661705249436478e-03 -4.2195635069281576e-02 0.0000000000000000e+00  2.0641568484091673e-03 -4.2460618547977398e-02 0.0000000000000000e+00  3.6557871801945101e-03 -2.2099764301775661e-03 0.0000000000000000e+00  -3.4257377229596616e-03 -2.0578720402870247e-03 0.0000000000000000e+00  4.7815054319164888e-04 -5.4629073774941202e-02 0.0000000000000000e+00  -3.8524075534208523e-04 -5.9166305935261634e-02 0.0000000000000000e+00  6.9205873861684632e-05 -6.0516354363180029e-02 0.0000000000000000e+00  -5.5651581624498373e-05 -6.0591813677997139e-02 0.0000000000000000e+00  -3.3181646864142254e-05 -5.9944689347555334e-02 0.0000000000000000e+00  4.1585191910682701e-05 -5.8809998627082645e-02 0.0000000000000000e+00  -4.5103206212618329e-05 -5.7464768062365792e-02 0.0000000000000000e+00  1.9420112461070198e-05 -5.6105997055591182e-02 0.0000000000000000e+00  -2.4059670035781708e-05 -5.4760523625239692e-02 0.0000000000000000e+00  7.1496637371846553e-06 -5.3498920976513049e-02 0.0000000000000000e+00  -6.0018032947002245e-06 -5.2327657580159948e-02 0.0000000000000000e+00  2.5094834116339999e-06 -5.1292059058325429e-02 0.0000000000000000e+00  -2.9269711375074849e-06 -5.0396610136541169e-02 0.0000000000000000e+00  -2.9955195450974385e-06 -4.9634278301905740e-02 0.0000000000000000e+00  1.4120494513907362e-06 -4.9000689967615745e-02 0.0000000000000000e+00  -1.6326504856108201e-06 -4.8487894054439235e-02 0.0000000000000000e+00  -1.6264792355990151e-06 -4.8102618455499617e-02 0.0000000000000000e+00  3.0515657784220383e-06 -4.7829946993046581e-02 0.0000000000000000e+00  -5.2709364242506462e-06 -4.7666948315760696e-02 0.0000000000000000e+00  3.6138724267408497e-06 -4.7613128833755194e-02 0.0000000000000000e+00  -4.4855204937585250e-06 -4.7665007845701761e-02 0.0000000000000000e+00  4.0743623291423739e-06 -4.7827210733310213e-02 0.0000000000000000e+00  -4.9467691226518505e-07 -4.8108591213065703e-02 0.0000000000000000e+00  -2.7443478713100109e-06 -4.8483899507313605e-02 0.0000000000000000e+00  -6.4654602862481386e-06 -4.8998694025825004e-02 0.0000000000000000e+00  7.4711680318595338e-06 -4.9631481402580391e-02 0.0000000000000000e+00  5.4214154455364699e-07 -5.0392164718446306e-02 0.0000000000000000e+00  2.2384327652509634e-06 -5.1299054673912874e-02 0.0000000000000000e+00  1.8945408536529509e-05 -5.2322803807128400e-02 0.0000000000000000e+00  6.8280690924815950e-06 -5.3480131062886446e-02 0.0000000000000000e+00  2.9668655106663941e-05 -5.4748535588131406e-02 0.0000000000000000e+00  -4.0938441403421152e-05 -5.6081769345979485e-02 0.0000000000000000e+00  5.3875694944459294e-06 -5.7455416405894313e-02 0.0000000000000000e+00  -1.0529484451214327e-05 -5.8769877411581899e-02 0.0000000000000000e+00  1.5290099708312147e-05 -5.9896511488741692e-02 0.0000000000000000e+00  6.7158323402050538e-05 -6.0560410739132341e-02 0.0000000000000000e+00  -4.9401967298204382e-05 -6.0470618514288199e-02 0.0000000000000000e+00  4.4881165345458419e-04 -5.9203295493770715e-02 0.0000000000000000e+00  -4.2317865726900031e-04 -5.4754826893294917e-02 0.0000000000000000e+00  1.6955771853023886e-02 -4.0526064378241876e-02 0.0000000000000000e+00  2.3673701425388938e-02 -3.7297886892255661e-02 0.0000000000000000e+00  2.9832770281340629e-02 -3.4701087944920932e-02 0.0000000000000000e+00  3.3103972727674957e-02 -3.3165087590446500e-02 0.0000000000000000e+00  3.4071014107334173e-02 -3.0311171389573528e-02 0.0000000000000000e+00  3.5411329136815210e-02 -2.6755959389941325e-02 0.0000000000000000e+00  3.4184415089083521e-02 -2.5591035895931126e-02 0.0000000000000000e+00  3.2291609375102635e-02 -2.1425758752816070e-02 0.0000000000000000e+00  2.8300932607496155e-02 -1.8380530624419848e-02 0.0000000000000000e+00  2.1639126888730827e-02 -1.5624219267672153e-02 0.0000000000000000e+00  1.6892020717265130e-02 -6.1363642784467640e-03 0.0000000000000000e+00  -1.7925200818206240e-03 -2.0719891411655170e-03 0.0000000000000000e+00  7.0089629339807884e-04 8.9693808709512149e-04 0.0000000000000000e+00  -3.3420107795358289e-04 -2.9587465639496492e-04 0.0000000000000000e+00  1.5159681044347892e-04 1.3641493354508855e-04 0.0000000000000000e+00  3.3488764742670342e-05 6.4070000807345295e-05 0.0000000000000000e+00  1.2807517556715676e-05 6.4299371471315190e-05 0.0000000000000000e+00  4.0726618429259675e-05 5.9318641597269193e-05 0.0000000000000000e+00  -3.2134055326698675e-05 5.3017963482698908e-05 0.0000000000000000e+00  -1.2878380630015729e-05 6.7215670082550508e-05 0.0000000000000000e+00  4.6825898768563933e-05 5.7952352915368726e-05 0.0000000000000000e+00  3.5281369074508920e-05 3.5690176466585883e-05 0.0000000000000000e+00  2.2952758861856923e-06 2.0765678399852328e-05 0.0000000000000000e+00  1.6834453710606369e-05 1.6404643185995421e-05 0.0000000000000000e+00  -7.0420354313169631e-06 1.5237821489985808e-05 0.0000000000000000e+00  5.0109120755906213e-06 1.3763433261401640e-05 0.0000000000000000e+00  7.0009437134827770e-07 8.8611497552146262e-06 0.0000000000000000e+00  -5.4731476933803663e-06 8.9911609229268217e-06 0.0000000000000000e+00  8.4456595053543412e-06 8.7835332757668312e-06 0.0000000000000000e+00  1.5538034455040752e-06 5.1811476153608749e-06 0.0000000000000000e+00  -9.4829853441021368e-06 6.7793614705951796e-06 0.0000000000000000e+00  -5.8374498329348717e-06 8.2423595420243912e-06 0.0000000000000000e+00  2.0314669520993065e-06 1.1466680202295718e-05 0.0000000000000000e+00  2.5042644168814085e-06 6.2652282895117868e-06 0.0000000000000000e+00  6.4554360675706627e-06 7.9305828481228100e-06 0.0000000000000000e+00  -1.0697785967727736e-05 1.5717677207311352e-05 0.0000000000000000e+00  -9.9046201702907107e-07 1.4051621946906638e-05 0.0000000000000000e+00  5.6017822855970103e-06 2.4660602492823062e-05 0.0000000000000000e+00  -1.7916203051544866e-05 3.0189889768186062e-05 0.0000000000000000e+00  -9.5452789170038209e-07 2.7393881473649582e-05 0.0000000000000000e+00  -8.4077284656724317e-06 4.5406743166961799e-05 0.0000000000000000e+00  -6.3480546756083586e-05 5.7198269713409813e-05 0.0000000000000000e+00  2.4083183141230121e-06 5.1239299277671779e-05 0.0000000000000000e+00  -6.0281844232272009e-05 6.1628314959668806e-05 0.0000000000000000e+00  -4.3186794798990704e-05 9.0409688161558182e-05 0.0000000000000000e+00  -1.0718399367538505e-04 8.3913530953396925e-05 0.0000000000000000e+00  -1.3934964503596798e-04 1.4033580679353896e-04 0.0000000000000000e+00  2.9064381292023041e-04 -3.1195956054841660e-04 0.0000000000000000e+00  -7.4847327034323948e-04 9.0182048522204333e-04 0.0000000000000000e+00  1.6762883063864210e-03 -1.7896615326431352e-03 0.0000000000000000e+00  -1.7081499634552855e-02 -6.5032721987396853e-03 0.0000000000000000e+00  -2.1025010453250136e-02 -1.5013765666991689e-02 0.0000000000000000e+00  -2.8768704978722179e-02 -1.9167599149001808e-02 0.0000000000000000e+00  -3.2070439494176817e-02 -2.1552376199757792e-02 0.0000000000000000e+00  -3.3527465488316983e-02 -2.5038579565349942e-02 0.0000000000000000e+00  -3.5707427746811765e-02 -2.8790067895259785e-02 0.0000000000000000e+00  -3.4777874559062179e-02 -2.9465973285014442e-02 0.0000000000000000e+00  -3.3020288781662160e-02 -3.3427047345366487e-02 0.0000000000000000e+00  -2.9785982538742099e-02 -3.5056330051171404e-02 0.0000000000000000e+00  -2.4099500477800795e-02 -3.6841376380692237e-02 0.0000000000000000e+00  -1.6856537740531613e-02 -4.0596261546894719e-02 0.0000000000000000e+00  1.7403635423525309e-02 -2.8862882608949456e-02 0.0000000000000000e+00  -1.7842772234667740e-02 -2.8900057842113254e-02 0.0000000000000000e+00  2.6608608568594429e-03 -2.5781538294742230e-02 0.0000000000000000e+00  -2.0786889039459346e-03 -2.4825862056531037e-02 0.0000000000000000e+00  1.6416670640546644e-04 -2.3351031244132313e-02 0.0000000000000000e+00  -6.6882537450212044e-03 -2.8442183844666076e-02 0.0000000000000000e+00  7.5026629913053627e-03 -2.3741831517286014e-02 0.0000000000000000e+00  -6.5508048176939266e-04 -3.2468263209154656e-02 0.0000000000000000e+00  9.8663232106262081e-04 -1.6627104369976602e-02 0.0000000000000000e+00  8.9672511092058274e-04 -3.2936910444586479e-02 0.0000000000000000e+00  -6.3027644725834964e-04 -1.5146599875118417e-02 0.0000000000000000e+00  2.1696422381080195e-02 -4.1697574814076474e-02 0.0000000000000000e+00  -1.9802850289975787e-02 -1.4688007964317908e-02 0.0000000000000000e+00  2.0047170331976987e-02 -1.4934219913351544e-02 0.0000000000000000e+00  -2.1502423186177448e-02 -4.1928920663185716e-02 0.0000000000000000e+00  8.9419746139080079e-03 -4.0031536301034697e-02 0.0000000000000000e+00  -9.2044570160090110e-03 -1.6325115742944075e-02 0.0000000000000000e+00  4.1167994833749512e-03 -3.6538843838475742e-02 0.0000000000000000e+00  -3.3753068654043595e-03 -1.5718966068514188e-02 0.0000000000000000e+00  -9.1905498436605521e-03 -4.0777865093159747e-02 0.0000000000000000e+00  -2.9294386332763766e-03 -3.6862122871865730e-02 0.0000000000000000e+00  3.4140054163178451e-03 -1.4569021848010228e-02 0.0000000000000000e+00  9.9887666245891977e-03 -1.5141842756230107e-02 0.0000000000000000e+00  -1.2757462027636955e-03 -3.6821406193021627e-02 0.0000000000000000e+00  2.2149216734380532e-04 -1.1907195477043005e-02 0.0000000000000000e+00  2.5373648403920924e-06 -3.5445179888524705e-02 0.0000000000000000e+00  1.6360832358604811e-03 -3.7503354225428047e-02 0.0000000000000000e+00  -1.2723793073899652e-03 -1.2218984663860628e-02 0.0000000000000000e+00  1.6523982715938434e-03 -1.2131899327127245e-02 0.0000000000000000e+00  1.1914422007477297e-02 -4.6406068575579336e-02 0.0000000000000000e+00  -1.1532845898241439e-02 -1.1717322229366309e-02 0.0000000000000000e+00  2.7961749118267570e-02 -2.7636271473939853e-02 0.0000000000000000e+00  -2.8437717828725801e-02 -2.8287855550630184e-02 0.0000000000000000e+00  -4.7404019334385027e-03 -4.1845836538552568e-02 0.0000000000000000e+00  -4.7609625518434335e-03 -1.1980541356858247e-02 0.0000000000000000e+00  -1.1807262759200032e-02 -4.7084878431135922e-02 0.0000000000000000e+00  4.4301831470261264e-03 -1.0049273256827324e-02 0.0000000000000000e+00  1.1724763040003739e-02 -1.0499827699683691e-02 0.0000000000000000e+00  1.1407728754272079e-02 -2.7281600743602440e-02 0.0000000000000000e+00  4.7649140688299152e-03 -2.5278596427471361e-02 0.0000000000000000e+00  4.3559064862257902e-03 -4.4296229850501259e-02 0.0000000000000000e+00  3.1411351561526650e-04 -3.8707406513951791e-02 0.0000000000000000e+00  -1.4206845454836539e-04 -9.2437580557836879e-03 0.0000000000000000e+00  -1.2111281452149859e-02 -2.8527093514268749e-02 0.0000000000000000e+00  -3.4976561114042821e-03 -2.5752716849196104e-02 0.0000000000000000e+00  -1.1191882377110231e-03 -2.4149846439185392e-02 0.0000000000000000e+00  1.5352796338965436e-03 -2.5239102009660237e-02 0.0000000000000000e+00  -4.4363319446890054e-04 -2.4052501345980637e-02 0.0000000000000000e+00  7.3630985578087811e-04 -2.4306121403439917e-02 0.0000000000000000e+00  1.8098379148448779e-03 -4.2216766635440148e-02 0.0000000000000000e+00  -1.5505681235441066e-03 -8.7986588015716415e-03 0.0000000000000000e+00  1.9347933590498533e-02 -4.7310012662250850e-02 0.0000000000000000e+00  -1.6781231406683552e-02 -8.9842000043893096e-03 0.0000000000000000e+00  1.6525691066439800e-02 -8.7634693304361848e-03 0.0000000000000000e+00  -1.9292763085921587e-02 -4.7362044191817172e-02 0.0000000000000000e+00  6.8210793851947388e-03 -3.3865178353844956e-02 0.0000000000000000e+00  -1.3404778667804856e-03 -4.1821586244455443e-02 0.0000000000000000e+00  -5.3166243420367466e-04 -4.0181835365693204e-02 0.0000000000000000e+00  4.1292302780107366e-04 -8.1087009454263153e-03 0.0000000000000000e+00  7.4279040814581305e-04 -4.0731172090288884e-02 0.0000000000000000e+00  -5.2901299552816428e-04 -7.9779413278769536e-03 0.0000000000000000e+00  -2.2242169891834691e-04 -4.0082413027437355e-02 0.0000000000000000e+00  2.9033319134569625e-02 -3.5245186603719406e-02 0.0000000000000000e+00  -2.7710525248427143e-02 -2.0425266226315988e-02 0.0000000000000000e+00  2.7561012548128691e-02 -1.9728093612285873e-02 0.0000000000000000e+00  -2.8535852991464713e-02 -3.6236952979595304e-02 0.0000000000000000e+00  2.9779868817466880e-03 -3.3420809830407107e-02 0.0000000000000000e+00  -2.3356326801384996e-03 -1.7342179499358387e-02 0.0000000000000000e+00  -2.4413357038571932e-03 -4.3802483926031525e-02 0.0000000000000000e+00  7.5164777335220664e-04 -7.7730673814135924e-03 0.0000000000000000e+00  6.4088917761807515e-03 -4.9397732564486187e-02 0.0000000000000000e+00  -6.6866008221782691e-03 -8.1238501640457528e-03 0.0000000000000000e+00  -2.5445627668621938e-03 -8.4046389550813325e-03 0.0000000000000000e+00  -1.2161033905430629e-04 -1.6563674150547835e-02 0.0000000000000000e+00  3.9419418820722839e-04 -3.1110246763097916e-02 0.0000000000000000e+00  1.1420674584351306e-02 -5.2089441427333683e-02 0.0000000000000000e+00  -1.0803284795212302e-02 -7.3540483911584851e-03 0.0000000000000000e+00  -2.2403742021245166e-03 -3.2718968211133917e-02 0.0000000000000000e+00  -7.6832611824951148e-03 -2.0694874948578707e-02 0.0000000000000000e+00  5.1917944551706993e-03 -7.9887231431795738e-03 0.0000000000000000e+00  -6.2748617711263204e-03 -5.0110811153218145e-02 0.0000000000000000e+00  1.7146820207347628e-03 -8.0871128367156399e-03 0.0000000000000000e+00  2.2321271369354745e-02 -2.4292853080927119e-02 0.0000000000000000e+00  -2.2092354714570776e-02 -2.4177867490270101e-02 0.0000000000000000e+00  -4.7127296825671631e-03 -7.8421442987239923e-03 0.0000000000000000e+00  -1.1427364170925672e-02 -5.2372233965561843e-02 0.0000000000000000e+00  -5.2208412596477256e-03 -1.9863903436314282e-02 0.0000000000000000e+00  1.3520343925297919e-02 -3.6880476824162352e-02 0.0000000000000000e+00  -4.6548188282889450e-03 -4.7779057520241204e-02 0.0000000000000000e+00  -1.3291914831970061e-02 -2.0155168412323263e-02 0.0000000000000000e+00  -1.9208294061794889e-02 -3.7937686399234012e-02 0.0000000000000000e+00  -1.3644931427365586e-02 -3.7749580753201971e-02 0.0000000000000000e+00  1.8670100563859534e-02 -3.8358976841650606e-02 0.0000000000000000e+00  -4.5589661454550814e-03 -3.5351303485717217e-02 0.0000000000000000e+00  2.4536465459652351e-03 -4.5079486687896277e-02 0.0000000000000000e+00  1.0506352996762768e-02 -6.5172098731711824e-03 0.0000000000000000e+00  1.4612696646102544e-02 -1.8927097205104233e-02 0.0000000000000000e+00  -8.6204106603789132e-03 -3.2649177205725764e-02 0.0000000000000000e+00  2.7987668345247807e-03 -1.7668792342380134e-02 0.0000000000000000e+00  2.5344005710520277e-03 -7.4769736268869777e-03 0.0000000000000000e+00  7.8296443651979727e-03 -1.6544501809034214e-02 0.0000000000000000e+00  6.5403381727635913e-03 -6.9205986597992170e-03 0.0000000000000000e+00  1.9740216331210606e-03 -1.9331050121833820e-02 0.0000000000000000e+00  -1.3852554914088545e-03 -3.0139030216756992e-02 0.0000000000000000e+00  -1.4480869537994830e-04 -2.9001656734367172e-02 0.0000000000000000e+00  5.5396962894341229e-04 -1.7386652206481869e-02 0.0000000000000000e+00  5.2330399436481441e-03 -1.7229602518390348e-02 0.0000000000000000e+00  1.5602142412809352e-03 -3.2060495443791810e-02 0.0000000000000000e+00  -1.4883839712958849e-03 -1.9127021058602735e-02 0.0000000000000000e+00  3.2505554297264102e-05 -6.0904200615516354e-03 0.0000000000000000e+00  7.5202630943984046e-05 -4.1367640107830790e-02 0.0000000000000000e+00  -4.8625232005304973e-03 -2.7345576982898630e-02 0.0000000000000000e+00  3.9432439210121675e-03 -4.9363950772869869e-02 0.0000000000000000e+00  -2.4726791540468339e-04 -6.3141289591798731e-03 0.0000000000000000e+00  3.8376932539205402e-04 -4.1905928623188156e-02 0.0000000000000000e+00  1.0503628802636131e-03 -4.3696842031429928e-02 0.0000000000000000e+00  -1.6980936910786750e-02 -1.8569445220410194e-02 0.0000000000000000e+00  -8.1680627089395451e-04 -6.0909690135503083e-03 0.0000000000000000e+00  -5.9841517059769529e-04 -4.2520988142349482e-02 0.0000000000000000e+00  -2.3859918633804739e-02 -3.4910813711759220e-02 0.0000000000000000e+00  2.3886253024921311e-02 -3.4162800783456897e-02 0.0000000000000000e+00  1.6973427658229217e-02 -1.6257147184697722e-02 0.0000000000000000e+00  3.1183663541613095e-02 -2.5999633439805186e-02 0.0000000000000000e+00  -3.1464083435076326e-02 -2.9391452816175032e-02 0.0000000000000000e+00  8.1919150858106543e-04 -5.8980141437327714e-03 0.0000000000000000e+00  5.6686630934099881e-03 -3.1055632590324369e-02 0.0000000000000000e+00  -3.3576719308395843e-04 -3.5072553454766613e-02 0.0000000000000000e+00  -1.4068612838472956e-03 -4.4762188575517031e-02 0.0000000000000000e+00  -9.6078686664969129e-04 -1.4176535290507573e-02 0.0000000000000000e+00  5.3319568548997574e-03 -5.4332905947452943e-02 0.0000000000000000e+00  3.0074512527466352e-04 -1.8461982994008922e-02 0.0000000000000000e+00  -9.6217898139693058e-04 -3.4056883835230277e-02 0.0000000000000000e+00  -6.0988573569397599e-03 -5.2660198082508918e-03 0.0000000000000000e+00  1.8502081978012390e-04 -5.5868131107405369e-03 0.0000000000000000e+00  1.1672148972425495e-03 -1.3229780247887993e-02 0.0000000000000000e+00  -2.7331222682444719e-03 -5.4906388604882119e-03 0.0000000000000000e+00  -2.4545144528724396e-02 -1.5145195898621695e-02 0.0000000000000000e+00  -2.6150089492500295e-02 -4.0390664710210980e-02 0.0000000000000000e+00  2.3680799231531414e-02 -1.4149970776099502e-02 0.0000000000000000e+00  2.6803961547159083e-02 -3.9605697024006160e-02 0.0000000000000000e+00  2.1750416635167935e-03 -3.0388587049183572e-02 0.0000000000000000e+00  -2.3650946446592842e-03 -4.8830920017129839e-02 0.0000000000000000e+00  -6.5079554991992854e-03 -3.5541447687501906e-02 0.0000000000000000e+00  -5.9241480627757999e-03 -5.3792891506960691e-02 0.0000000000000000e+00  -1.3152120362502700e-03 -5.3118436427814575e-03 0.0000000000000000e+00  3.6180659308097320e-03 -2.7444447510976851e-02 0.0000000000000000e+00  8.9183157612371475e-03 -2.8777720429740642e-02 0.0000000000000000e+00  1.0317121518040073e-02 -5.4612706214739737e-02 0.0000000000000000e+00  -6.7897874308610650e-03 -4.0849587303883564e-02 0.0000000000000000e+00  -8.6111795021504515e-03 -3.9609771660780689e-03 0.0000000000000000e+00  1.4040996794953402e-02 -2.5658362113057068e-02 0.0000000000000000e+00  -3.7784812874503246e-05 -4.2984828147864938e-02 0.0000000000000000e+00  -9.7646886285751855e-03 -2.6170223523948322e-02 0.0000000000000000e+00  2.4798009407861168e-02 -2.1576550075910902e-02 0.0000000000000000e+00  -2.4898122068614921e-02 -2.1890080032127363e-02 0.0000000000000000e+00  -1.0130257200646985e-02 -5.4783483245155709e-02 0.0000000000000000e+00  -1.5718432282273567e-02 -1.3376399530048945e-02 0.0000000000000000e+00  -4.1739782406799405e-03 -1.3763456558740887e-02 0.0000000000000000e+00  -7.4239814413429642e-04 -2.1410857883187091e-02 0.0000000000000000e+00  1.1142257808579165e-03 -2.2106413746432806e-02 0.0000000000000000e+00  -6.7936221970504090e-03 -1.4225761800282876e-02 0.0000000000000000e+00  6.6880084653937405e-03 -4.6202235660072035e-03 0.0000000000000000e+00  3.8510240924424645e-03 -1.9881805872835081e-02 0.0000000000000000e+00  5.5939597666440687e-04 -4.5202981184237462e-02 0.0000000000000000e+00  -4.1537178343423698e-03 -2.1673147865181659e-02 0.0000000000000000e+00  -4.5599634335493505e-04 -4.4557263606913120e-03 0.0000000000000000e+00  4.9218909236063806e-03 -3.9069504399301389e-02 0.0000000000000000e+00  3.0211574939985435e-03 -5.4318852507241567e-03 0.0000000000000000e+00  -1.0322181872110255e-02 -1.3743420762510724e-02 0.0000000000000000e+00  1.0367884412681549e-02 -4.3744322595272417e-02 0.0000000000000000e+00  -3.3366085254600813e-04 -1.4917906337552708e-02 0.0000000000000000e+00  5.9376245258717321e-04 -3.3069137576214373e-02 0.0000000000000000e+00  -1.0399279977403572e-02 -4.4256294311090537e-02 0.0000000000000000e+00  -5.3907032595896999e-04 -4.5212300224193959e-02 0.0000000000000000e+00  -2.3035745713469782e-04 -4.332450