<?xml version="1.0"?>
<VTKFile type="UnstructuredGrid"  version="0.1"  >
<UnstructuredGrid>
<Piece  NumberOfPoints="1121" NumberOfCells="2112">
<Points>
<DataArray  type="Float64"  NumberOfComponents="3"  format="ascii">0 0 0  0.5 0 0  0.5 -0.22 0  0 -0.22 0  0.0125 0 0  0.025 0 0  0.03750000000000001 0 0  0.05 0 0  0.0625 0 0  0.07500000000000001 0 0  0.08750000000000001 0 0  0.1 0 0  0.1125 0 0  0.125 0 0  0.1375 0 0  0.15 0 0  0.1625 0 0  0.175 0 0  0.1875 0 0  0.2 0 0  0.2125 0 0  0.225 0 0  0.2375 0 0  0.25 0 0  0.2625 0 0  0.275 0 0  0.2875 0 0  0.3 0 0  0.3124999999999999 0 0  0.325 0 0  0.3375 0 0  0.35 0 0  0.3625 0 0  0.375 0 0  0.3875 0 0  0.4 0 0  0.4125 0 0  0.425 0 0  0.4375 0 0  0.45 0 0  0.4625 0 0  0.475 0 0  0.4875 0 0  0.5 -0.00916666666666667 0  0.5 -0.01833333333333334 0  0.5 -0.02750000000000001 0  0.5 -0.03666666666666668 0  0.5 -0.04583333333333335 0  0.5 -0.05500000000000002 0  0.5 -0.06416666666666669 0  0.5 -0.07333333333333336 0  0.5 -0.08250000000000002 0  0.5 -0.09166666666666669 0  0.5 -0.1008333333333334 0  0.5 -0.11 0  0.5 -0.1191666666666667 0  0.5 -0.1283333333333334 0  0.5 -0.1375 0  0.5 -0.1466666666666667 0  0.5 -0.1558333333333333 0  0.5 -0.165 0  0.5 -0.1741666666666667 0  0.5 -0.1833333333333333 0  0.5 -0.1925 0  0.5 -0.2016666666666667 0  0.5 -0.2108333333333333 0  0.4875 -0.22 0  0.475 -0.22 0  0.4625 -0.22 0  0.45 -0.22 0  0.4375 -0.22 0  0.425 -0.22 0  0.4125 -0.22 0  0.4 -0.22 0  0.3875 -0.22 0  0.375 -0.22 0  0.3625 -0.22 0  0.35 -0.22 0  0.3375 -0.22 0  0.325 -0.22 0  0.3125 -0.22 0  0.3 -0.22 0  0.2875 -0.22 0  0.275 -0.22 0  0.2625 -0.22 0  0.25 -0.22 0  0.2375 -0.22 0  0.225 -0.22 0  0.2125 -0.22 0  0.2 -0.22 0  0.1875000000000001 -0.22 0  0.175 -0.22 0  0.1625 -0.22 0  0.15 -0.22 0  0.1375 -0.22 0  0.125 -0.22 0  0.1125 -0.22 0  0.09999999999999998 -0.22 0  0.08749999999999997 -0.22 0  0.07499999999999996 -0.22 0  0.0625 -0.22 0  0.04999999999999999 -0.22 0  0.03750000000000003 -0.22 0  0.02500000000000002 -0.22 0  0.01250000000000001 -0.22 0  0 -0.2108333333333333 0  0 -0.2016666666666667 0  0 -0.1925 0  0 -0.1833333333333333 0  0 -0.1741666666666666 0  0 -0.165 0  0 -0.1558333333333333 0  0 -0.1466666666666666 0  0 -0.1375 0  0 -0.1283333333333333 0  0 -0.1191666666666666 0  0 -0.11 0  0 -0.1008333333333333 0  0 -0.09166666666666665 0  0 -0.08249999999999999 0  0 -0.07333333333333333 0  0 -0.06416666666666668 0  0 -0.05499999999999999 0  0 -0.04583333333333331 0  0 -0.03666666666666665 0  0 -0.0275 0  0 -0.01833333333333334 0  0 -0.009166666666666684 0  0.1054583333333335 -0.1054166666666667 0  0.3942676334017064 -0.1137728325038039 0  0.2847879184121186 -0.1095588156798053 0  0.1945032948335413 -0.1282408799476467 0  0.06153506715537374 -0.1512727221728088 0  0.4399056412223469 -0.06797859302281792 0  0.05788181883779472 -0.06001948808334377 0  0.4421098014386607 -0.1599837267347342 0  0.3413511741034609 -0.06957267157055583 0  0.2288650014326337 -0.07000139022125416 0  0.3374198095657364 -0.153292781564552 0  0.1625149941501948 -0.06635759941053934 0  0.1410798075665959 -0.1547982873744018 0  0.2480541718311375 -0.1584999930406966 0  0.4521112869309225 -0.1144576824167908 0  0.04769384748510372 -0.1054790589784799 0  0.2872553124970689 -0.0549183148201307 0  0.3883603170589741 -0.1667590078701163 0  0.1113816725357426 -0.05349980002187416 0  0.388663619148569 -0.05083099728992514 0  0.2924675002385118 -0.1733355444551434 0  0.03957129721715399 -0.1820306497250263 0  0.463886478278041 -0.04123097885421483 0  0.1819898664669143 -0.1745112248447572 0  0.1501955722423063 -0.1126410264576243 0  0.2381168692527681 -0.1138631020717532 0  0.09896708868237117 -0.1743617443889283 0  0.351521105495953 -0.110482033201648 0  0.1944214316144394 -0.04364751139729321 0  0.4676096572335854 -0.17875 0  0.0323903427664145 -0.04125 0  0.03139627442974444 -0.07791666666666666 0  0.4686037255702555 -0.1420833333333333 0  0.03146427625974824 -0.1353922207127977 0  0.4687538427589449 -0.08499498352404596 0  0.1945393885069078 -0.08884182758867265 0  0.2525813348104176 -0.03744007417230172 0  0.3217010222371471 -0.03764154129720884 0  0.4222469886470394 -0.03586904090069724 0  0.09663319060065351 -0.1401271138728219 0  0.2193792666828137 -0.183158231426584 0  0.3560154827479793 -0.1838943099753877 0  0.1434582748922029 -0.03603411582704523 0  0.3765333185963097 -0.08241017292348579 0  0.07538111331820632 -0.08899587837746269 0  0.423855991190923 -0.1306886077643884 0  0.3185210010305527 -0.09753607818954631 0  0.3569762884570115 -0.03650734503769727 0  0.4254213410091923 -0.0987078979590463 0  0.2610082403268991 -0.0817800662321487 0  0.0828105113527246 -0.0341734786714956 0  0.4171399376253134 -0.185803221952863 0  0.3057870365127394 -0.1382026892003179 0  0.12895829204953 -0.08335230948371621 0  0.06875298785225953 -0.187362820013113 0  0.3717868049890677 -0.1386048615715364 0  0.321448533906611 -0.1855116827647124 0  0.26298072168791 -0.1839420817131204 0  0.07484000163200957 -0.1198633334100699 0  0.1547686158654376 -0.1863750548878711 0  0.216059367308573 -0.1515159536473182 0  0.2699691944498949 -0.1417527519042215 0  0.1656185503016955 -0.1403556565429203 0  0.4083071195762781 -0.07378364169239227 0  0.1267131755037155 -0.1278660972450704 0  0.4735015828166597 -0.0640900788079139 0  0.02554956908977171 -0.1556408100003981 0  0.4768150825846236 -0.1145833333333333 0  0.02318491741537634 -0.1054166666666667 0  0.223953700752457 -0.0304451531933032 0  0.1244872804067221 -0.1907232817427361 0  0.4438735214118281 -0.1930008132865749 0  0.05574102313663398 -0.02865323925202035 0  0.4137204188713657 -0.1553454939163003 0  0.08893893095617791 -0.06579816339826482 0  0.1717694871603352 -0.02800139159048265 0  0.3128492556460914 -0.06943040619515532 0  0.2797695783739821 -0.02590934499649085 0  0.02258333333333329 -0.1970833333333333 0  0.4762493762769904 -0.02160603458451191 0  0.4793770768812318 -0.1979934752448725 0  0.02062142143957255 -0.02200567641944876 0  0.1164030865048185 -0.02740272745133866 0  0.3830675041448486 -0.1925667518381948 0  0.4791226873505327 -0.1610342148373401 0  0.02087731264946724 -0.05896578516265992 0  0.3274724693986852 -0.1225305077389053 0  0.3972801610854721 -0.02625449066011495 0  0.2900140160514686 -0.08365001034985962 0  0.1709547781797311 -0.09465470820062212 0  0.2138438311308281 -0.1099941211103435 0  0.4450205721789285 -0.02492933314930469 0  0.05420467580227878 -0.08349945672846135 0  0.4461329107542346 -0.1367113815538408 0  0.3659666316461785 -0.05978339436610505 0  0.44602790301578 -0.09307279226297782 0  0.1051970245947556 -0.08027435556391044 0  0.05333928713341426 -0.1272409570081178 0  0.3959065276465774 -0.1392957050603055 0  0.1954280839215327 -0.1956301054107469 0  0.1114114251973984 -0.1581699686077357 0  0.1861203385256373 -0.06601416834570389 0  0.2411653975579025 -0.1955923650394697 0  0.3655092946697883 -0.1617364087021952 0  0.135090011654307 -0.05852644219278214 0  0.301466572149827 -0.195730962509487 0  0.3171403096460815 -0.1628017925003279 0  0.2583110626374412 -0.1046341192205865 0  0.4408293443687437 -0.04585722764353674 0  0.2712011044137034 -0.1640374945295207 0  0.2411933721253841 -0.08983355018053346 0  0.2501709838730871 -0.1314559421109842 0  0.4829353992284747 -0.03936718280336758 0  0.01826814268142685 -0.17875 0  0.08176459786747367 -0.1581134879103219 0  0.09090727073593149 -0.1966179220907174 0  0.1938567422944586 -0.1528508759815354 0  0.1733129361306733 -0.1172649579021292 0  0.1296640686621583 -0.1060858859555111 0  0.05006156132458137 -0.1998033571646454 0  0.162505650870633 -0.1635353305739766 0  0.30277270753554 -0.02336446206680166 0  0.04392010531002208 -0.1476919574928456 0  0.4570380569409145 -0.07105832940298668 0  0.2509935571465481 -0.06292905082461901 0  0.3948833058972995 -0.09019561948060845 0  0.4598195232581849 -0.1577532743262658 0  0.04018055885339097 -0.06224663359087233 0  0.1730418602576066 -0.1983511585214162 0  0.354008461825654 -0.08842076759065362 0  0.373211974938222 -0.1031515537153039 0  0.3385725936424656 -0.02355841481827918 0  0.05693481862827446 -0.1711111761535942 0  0.2226017506701603 -0.1306213423698554 0  0.4834446118625366 -0.09366667033152501 0  0.01655538813746335 -0.126333329668475 0  0.4825096030146118 -0.1326572162395438 0  0.01749039698538812 -0.08734278376045618 0  0.3772923679603625 -0.01999366789017346 0  0.01651090378487999 -0.1420833333333333 0  0.48348909621512 -0.07791666666666669 0  0.2083850969976113 -0.06098599897318754 0  0.3496303726904554 -0.1333395240176083 0  0.3051888980043784 -0.1167126520442686 0  0.2175622493287656 -0.08816391583608728 0  0.421331648509181 -0.05567865783938017 0  0.2036856364456695 -0.0217459550834085 0  0.3419325538888507 -0.04719577702332296 0  0.3412491916251918 -0.1996737604301947 0  0.4838834006315611 -0.1786454571355643 0  0.01611659936843887 -0.0413545428644357 0  0.172916357627664 -0.04916537131395513 0  0.4024134926805814 -0.2009331510593763 0  0.2424815730009992 -0.02045273553971888 0  0.1462759520833398 -0.1337233768065287 0  0.2346404539413744 -0.0484884977905098 0  0.09697638824467633 -0.01835062747588986 0  0.3376316573341132 -0.1736137832302001 0  0.1473441332611047 -0.09306137774954895 0  0.434705037373379 -0.114505364151485 0  0.0768089501139663 -0.1390499296181859 0  0.2037322897871967 -0.1695319781453501 0  0.2796822656650553 -0.2007669332776081 0  0.2910707535484897 -0.1516548901144321 0  0.414355300365443 -0.1140560482952263 0  0.09372496308173206 -0.1210763918452149 0  0.3897041267298961 -0.06995384811683555 0  0.4607061536274312 -0.2009522278863767 0  0.03767528917450519 -0.01920779542340162 0  0.06550910726222195 -0.1022565085744684 0  0.05021276002452402 -0.04427151993747909 0  0.4497875067624045 -0.1757266867012744 0  0.2685456651208211 -0.05149244248160013 0  0.1924991911245588 -0.1082791409797235 0  0.4653652048205058 -0.1036696603203247 0  0.03478864406010496 -0.1162949466270758 0  0.03530598512279109
[...]
<PointData  Vectors="displacement"> 
<DataArray  type="Float64"  Name="displacement"  NumberOfComponents="3" format="ascii">-1.1655759334728158e-03 -1.4196168725379161e-03 0.0000000000000000e+00  1.1655885300452425e-03 -1.4195466699630521e-03 0.0000000000000000e+00  7.2814760396860413e-06 -1.0758578959338154e-05 0.0000000000000000e+00  -7.1700007436598825e-06 -1.0757814370646919e-05 0.0000000000000000e+00  -1.1623004447295902e-03 -1.3997437361724604e-03 0.0000000000000000e+00  -1.1525269022672514e-03 -1.3770023974323902e-03 0.0000000000000000e+00  -1.1347479633323596e-03 -1.3494807226147709e-03 0.0000000000000000e+00  -1.1090744425022218e-03 -1.3195976742208177e-03 0.0000000000000000e+00  -1.0757532048589306e-03 -1.2881600863388731e-03 0.0000000000000000e+00  -1.0350921583051392e-03 -1.2560581342129548e-03 0.0000000000000000e+00  -9.8742540118220237e-04 -1.2248272533380501e-03 0.0000000000000000e+00  -9.3343107610848852e-04 -1.1935037025236363e-03 0.0000000000000000e+00  -8.7372558699616782e-04 -1.1654541195103636e-03 0.0000000000000000e+00  -8.0887400370574752e-04 -1.1375701702188966e-03 0.0000000000000000e+00  -7.3959191066461571e-04 -1.1126166405956970e-03 0.0000000000000000e+00  -6.6656405960567871e-04 -1.0899623342902297e-03 0.0000000000000000e+00  -5.8993702744988331e-04 -1.0702557608812900e-03 0.0000000000000000e+00  -5.1092987709182953e-04 -1.0528152937945708e-03 0.0000000000000000e+00  -4.2912966940829669e-04 -1.0377283627887065e-03 0.0000000000000000e+00  -3.4551633634018842e-04 -1.0261018798293168e-03 0.0000000000000000e+00  -2.6034784022853808e-04 -1.0165215168698512e-03 0.0000000000000000e+00  -1.7407062245438775e-04 -1.0098880379931256e-03 0.0000000000000000e+00  -8.7407245402600393e-05 -1.0059114839148986e-03 0.0000000000000000e+00  2.4244480140565924e-08 -1.0046632368153712e-03 0.0000000000000000e+00  8.7076435825592024e-05 -1.0059574074982700e-03 0.0000000000000000e+00  1.7413213928117017e-04 -1.0102030869847619e-03 0.0000000000000000e+00  2.6044693674770269e-04 -1.0164187470441987e-03 0.0000000000000000e+00  3.4561051458647320e-04 -1.0259355566454812e-03 0.0000000000000000e+00  4.2895245881719086e-04 -1.0379499417846672e-03 0.0000000000000000e+00  5.1074516588019213e-04 -1.0527278491580716e-03 0.0000000000000000e+00  5.9008694322821437e-04 -1.0701944418131794e-03 0.0000000000000000e+00  6.6641043631071259e-04 -1.0900599627650810e-03 0.0000000000000000e+00  7.3967601591257896e-04 -1.1125519298033476e-03 0.0000000000000000e+00  8.0882588396264808e-04 -1.1376135954063258e-03 0.0000000000000000e+00  8.7364889158947205e-04 -1.1650742565710063e-03 0.0000000000000000e+00  9.3352459340816953e-04 -1.1940496296392897e-03 0.0000000000000000e+00  9.8745381485716905e-04 -1.2244011052975226e-03 0.0000000000000000e+00  1.0350571463260570e-03 -1.2560527859767350e-03 0.0000000000000000e+00  1.0756728168845409e-03 -1.2881896410891522e-03 0.0000000000000000e+00  1.1091331331146723e-03 -1.3198722868041177e-03 0.0000000000000000e+00  1.1347096899232501e-03 -1.3493452704057011e-03 0.0000000000000000e+00  1.1523549680163955e-03 -1.3768747448769882e-03 0.0000000000000000e+00  1.1622366881858424e-03 -1.3999898376299779e-03 0.0000000000000000e+00  1.1515235401574533e-03 -1.4165975569595565e-03 0.0000000000000000e+00  1.1373076020292734e-03 -1.4090349780761988e-03 0.0000000000000000e+00  1.1222262088308498e-03 -1.3967884380470018e-03 0.0000000000000000e+00  1.1063645877280428e-03 -1.3804113728377871e-03 0.0000000000000000e+00  1.0889901189345894e-03 -1.3598634640739284e-03 0.0000000000000000e+00  1.0699407058729106e-03 -1.3355102413395755e-03 0.0000000000000000e+00  1.0484779043469254e-03 -1.3070234785169709e-03 0.0000000000000000e+00  1.0244139774687781e-03 -1.2747693341269414e-03 0.0000000000000000e+00  9.9764708069520155e-04 -1.2388790147734310e-03 0.0000000000000000e+00  9.6738267187290760e-04 -1.1988846098401854e-03 0.0000000000000000e+00  9.3300062556342660e-04 -1.1544713830418207e-03 0.0000000000000000e+00  8.9508478592003672e-04 -1.1063577284456387e-03 0.0000000000000000e+00  8.5282588974472493e-04 -1.0535150604113611e-03 0.0000000000000000e+00  8.0629302540893713e-04 -9.9621583233148580e-04 0.0000000000000000e+00  7.5550664083376808e-04 -9.3415287743795416e-04 0.0000000000000000e+00  6.9957313411494104e-04 -8.6710102588922794e-04 0.0000000000000000e+00  6.3927913786698928e-04 -7.9459136936714677e-04 0.0000000000000000e+00  5.7359388550594099e-04 -7.1697185589859359e-04 0.0000000000000000e+00  5.0309990357880793e-04 -6.3207313922512040e-04 0.0000000000000000e+00  4.2663702336380341e-04 -5.3962487954703085e-04 0.0000000000000000e+00  3.4456541846511891e-04 -4.3862332039422674e-04 0.0000000000000000e+00  2.5394729222137131e-04 -3.2639450855697158e-04 0.0000000000000000e+00  1.5112050166382794e-04 -1.9473481667909619e-04 0.0000000000000000e+00  -2.9614470258584827e-06 1.7175491504285782e-06 0.0000000000000000e+00  -1.0421326794152475e-06 -9.6991853452671052e-08 0.0000000000000000e+00  -2.2072110856536656e-06 1.3213223714622643e-06 0.0000000000000000e+00  -8.5090391184770960e-07 1.9378413442822989e-07 0.0000000000000000e+00  -1.9453055975896070e-06 1.1310779196170371e-06 0.0000000000000000e+00  -7.7138493655926973e-07 4.2441452346400245e-07 0.0000000000000000e+00  -8.8436521861913279e-07 4.5099780579861859e-07 0.0000000000000000e+00  -5.8465127876736710e-08 -5.4780111728815054e-09 0.0000000000000000e+00  -2.9386713519533316e-07 1.5957734854699838e-07 0.0000000000000000e+00  -4.2139552039688513e-07 2.3388163246914306e-07 0.0000000000000000e+00  -4.5115112655572048e-08 4.7383600177347921e-08 0.0000000000000000e+00  -3.5945184027111615e-07 2.2089239710534401e-07 0.0000000000000000e+00  6.8732638681217243e-08 8.1523013281522228e-08 0.0000000000000000e+00  -3.2052339589083693e-07 2.2823118394784758e-07 0.0000000000000000e+00  -2.5767286074577208e-08 8.3405758704496607e-08 0.0000000000000000e+00  -2.9762249399544007e-08 1.9798727014883580e-07 0.0000000000000000e+00  -1.9254031053382980e-07 2.0015122715211707e-07 0.0000000000000000e+00  1.1997255532856227e-07 1.2369434575666076e-07 0.0000000000000000e+00  -2.1315355063394552e-07 1.3949192904491461e-07 0.0000000000000000e+00  1.1550184082733641e-07 1.4403668836580874e-07 0.0000000000000000e+00  8.3026128817310488e-08 2.6866447621301842e-07 0.0000000000000000e+00  -5.4207707894584458e-08 1.6285354239183195e-07 0.0000000000000000e+00  2.1616849885866124e-07 1.9514100538993040e-07 0.0000000000000000e+00  -2.2141339865717754e-07 7.4086638987308212e-08 0.0000000000000000e+00  2.9439640470510429e-07 2.3752574290309797e-07 0.0000000000000000e+00  3.7529508874851741e-07 2.0616995025455741e-07 0.0000000000000000e+00  7.6920161176240271e-08 1.0691298909089403e-07 0.0000000000000000e+00  2.2597217119926036e-07 1.2823878420326750e-07 0.0000000000000000e+00  4.6647300089062977e-08 5.4911337243626521e-08 0.0000000000000000e+00  4.7096058079324844e-07 2.6124913567445843e-07 0.0000000000000000e+00  1.5580036805522646e-07 7.4752262220915130e-08 0.0000000000000000e+00  1.0596841753972744e-06 6.3567718416467712e-07 0.0000000000000000e+00  2.0943407226252020e-07 7.3072058220682913e-08 0.0000000000000000e+00  -7.6271543036452648e-09 -2.4060651332848376e-07 0.0000000000000000e+00  1.0132372713471110e-06 3.9124126906815624e-07 0.0000000000000000e+00  1.1614018297252760e-06 6.5869987600118427e-07 0.0000000000000000e+00  4.3511921341063707e-07 1.1332643483947626e-09 0.0000000000000000e+00  1.8017747703052626e-06 7.0544154098041414e-07 0.0000000000000000e+00  3.3884721491477576e-06 2.5045822890841330e-06 0.0000000000000000e+00  -1.5106672040617544e-04 -1.9464799108202623e-04 0.0000000000000000e+00  -2.5384924943071193e-04 -3.2624104643358539e-04 0.0000000000000000e+00  -3.4448222102745368e-04 -4.3859152051472735e-04 0.0000000000000000e+00  -4.2682060951725384e-04 -5.3969576079749974e-04 0.0000000000000000e+00  -5.0317652765417408e-04 -6.3193880515986919e-04 0.0000000000000000e+00  -5.7363448210292285e-04 -7.1650942947384488e-04 0.0000000000000000e+00  -6.3914186863862628e-04 -7.9503819719431944e-04 0.0000000000000000e+00  -6.9951139771666331e-04 -8.6743314912123459e-04 0.0000000000000000e+00  -7.5542186765965239e-04 -9.3426260944448549e-04 0.0000000000000000e+00  -8.0658746767919517e-04 -9.9626960517624954e-04 0.0000000000000000e+00  -8.5284611554234770e-04 -1.0534932749816219e-03 0.0000000000000000e+00  -8.9504348236901007e-04 -1.1062235852683404e-03 0.0000000000000000e+00  -9.3307233386532424e-04 -1.1546638303921333e-03 0.0000000000000000e+00  -9.6714875428312644e-04 -1.1987455532757091e-03 0.0000000000000000e+00  -9.9784735699863752e-04 -1.2391339034350070e-03 0.0000000000000000e+00  -1.0246722538034582e-03 -1.2750711029778227e-03 0.0000000000000000e+00  -1.0486889450668246e-03 -1.3071575683346567e-03 0.0000000000000000e+00  -1.0697918850941994e-03 -1.3353497607979453e-03 0.0000000000000000e+00  -1.0889405045335114e-03 -1.3597862780823739e-03 0.0000000000000000e+00  -1.1063773393382751e-03 -1.3803961492988917e-03 0.0000000000000000e+00  -1.1222191031755575e-03 -1.3967985580977738e-03 0.0000000000000000e+00  -1.1373488022519062e-03 -1.4091012509385510e-03 0.0000000000000000e+00  -1.1515272459007627e-03 -1.4165794203058373e-03 0.0000000000000000e+00  -5.7993478508037749e-04 -7.5632875172991086e-04 0.0000000000000000e+00  5.4175963726527446e-04 -7.0344311238585019e-04 0.0000000000000000e+00  1.3833378535635263e-04 -5.6897400539848936e-04 0.0000000000000000e+00  -1.8231078848248965e-04 -4.8189384194312731e-04 0.0000000000000000e+00  -4.7770729691204558e-04 -5.5039369279737962e-04 0.0000000000000000e+00  8.9742640860897152e-04 -1.1020150669011767e-03 0.0000000000000000e+00  -9.3040889137754033e-04 -1.1447248683020706e-03 0.0000000000000000e+00  4.2864162086417664e-04 -4.8958740591843665e-04 0.0000000000000000e+00  4.7277581582076824e-04 -8.3541719652035378e-04 0.0000000000000000e+00  -1.1181146948213084e-04 -7.5930651837846739e-04 0.0000000000000000e+00  2.0451070782414303e-04 -3.6699478733883377e-04 0.0000000000000000e+00  -4.6151862520425621e-04 -8.4379819941073184e-04 0.0000000000000000e+00  -2.4979254863063944e-04 -3.8005222922569151e-04 0.0000000000000000e+00  -4.2653966401843825e-06 -2.9995256352683726e-04 0.0000000000000000e+00  7.4279157426871724e-04 -8.7589116040849037e-04 0.0000000000000000e+00  -7.8794617223655107e-04 -9.3664176322992424e-04 0.0000000000000000e+00  2.1278285025274420e-04 -8.3465845538656337e-04 0.0000000000000000e+00  2.5777201051256312e-04 -3.3864657860594659e-04 0.0000000000000000e+00  -7.4246777498734407e-04 -1.0113602868906319e-03 0.0000000000000000e+00  7.5050552221060977e-04 -1.0225755284334265e-03 0.0000000000000000e+00  6.6740961395904782e-05 -2.2950672888155470e-04 0.0000000000000000e+00  -3.0852983789439025e-04 -3.4586937427007338e-04 0.0000000000000000e+00  1.0433294499209917e-03 -1.2806104977029645e-03 0.0000000000000000e+00  -1.0414955550524767e-04 -2.3336639542025683e-04 0.0000000000000000e+00  -3.8210099640641649e-04 -6.2162806372099630e-04 0.0000000000000000e+00  -4.5794202804421947e-05 -5.3796896071624765e-04 0.0000000000000000e+00  -2.4033168435034493e-04 -3.0241091620182239e-04 0.0000000000000000e+00  3.9572029449425262e-04 -6.3680104116321432e-04 0.0000000000000000e+00  -3.3165236267757459e-04 -8.9658987361679375e-04 0.0000000000000000e+00  3.5620197205783342e-04 -4.0022003220584196e-04 0.0000000000000000e+00  -1.0513690332791879e-03 -1.2912318938882402e-03 0.0000000000000000e+00  -9.4908101203176149e-04 -1.1534014913434463e-03 0.0000000000000000e+00  6.3566206645665892e-04 -7.3499311304169013e-04 0.0000000000000000e+00  -6.7794402613903786e-04 -7.8834895390377652e-04 0.0000000000000000e+00  9.2424380171194774e-04 -1.1183184364863777e-03 0.0000000000000000e+00  -2.5892093944163797e-04 -6.9211469236672804e-04 0.0000000000000000e+00  1.6040157737041201e-05 -8.9082277556141575e-04 0.0000000000000000e+00  4.3452477061974910e-04 -9.3838926374020901e-04 0.0000000000000000e+00  9.3260696685046535e-04 -1.1714386993064965e-03 0.0000000000000000e+00  -4.4034761608910156e-04 -5.4796944726634130e-04 0.0000000000000000e+00  -3.6694837779551283e-05 -1.7600695361829404e-04 0.0000000000000000e+00  1.2673960032774472e-04 -2.0147165478604252e-04 0.0000000000000000e+00  -6.3156331140701652e-04 -1.0031651628086690e-03 0.0000000000000000e+00  5.9613195755225652e-04 -8.4342239336961838e-04 0.0000000000000000e+00  -7.6416443233054464e-04 -9.4126024238140886e-04 0.0000000000000000e+00  5.5813903418105288e-04 -6.6591418297905582e-04 0.0000000000000000e+00  2.9929825488178027e-04 -6.6133213942030271e-04 0.0000000000000000e+00  6.3279694795858102e-04 -1.0024669630396932e-03 0.0000000000000000e+00  7.2537927783168134e-04 -8.8599806951318463e-04 0.0000000000000000e+00  5.4258954825987788e-05 -7.0070107727648379e-04 0.0000000000000000e+00  -9.1811960650805538e-04 -1.1619151082990623e-03 0.0000000000000000e+00  1.9760311214464033e-04 -2.3932722540820651e-04 0.0000000000000000e+00  1.6237656602356590e-04 -4.2692978115873513e-04 0.0000000000000000e+00  -5.6933889552973800e-04 -8.2596033028965569e-04 0.0000000000000000e+00  -2.0841096994657506e-04 -2.4428806186038628e-04 0.0000000000000000e+00  3.5349387987466729e-04 -4.9928189593335612e-04 0.0000000000000000e+00  8.0488342319417556e-05 -1.7532005934485601e-04 0.0000000000000000e+00  1.5303959748016079e-05 -1.6985265682298490e-04 0.0000000000000000e+00  -6.2160114792742601e-04 -7.4637907530544605e-04 0.0000000000000000e+00  -1.0510376068611666e-04 -1.8125613922663245e-04 0.0000000000000000e+00  -8.1376494791984675e-05 -3.4280832016686210e-04 0.0000000000000000e+00  5.5399255354368390e-05 -3.9102238149793766e-04 0.0000000000000000e+00  -2.3900919197985713e-04 -4.3963559377497685e-04 0.0000000000000000e+00  7.5980431041852790e-04 -9.7303689314841388e-04 0.0000000000000000e+00  -4.0565812444220235e-04 -5.6998542835585411e-04 0.0000000000000000e+00  1.0042883246434620e-03 -1.2307360195199877e-03 0.0000000000000000e+00  -5.6113755215199954e-04 -6.4675307447426738e-04 0.0000000000000000e+00  8.1896146551964475e-04 -9.7600757046691967e-04 0.0000000000000000e+00  -8.6234878374311140e-04 -1.0342006023772606e-03 0.0000000000000000e+00  -1.6525947275713223e-04 -9.2215824186558178e-04 0.0000000000000000e+00  -1.2018343660199037e-04 -1.7220556042525146e-04 0.0000000000000000e+00  1.8695054967804800e-04 -2.1544944193877056e-04 0.0000000000000000e+00  -1.0243461520340470e-03 -1.2569425343047483e-03 0.0000000000000000e+00  3.8182133968217097e-04 -4.5992965539089822e-04 0.0000000000000000e+00  -7.9859279343609253e-04 -1.0201850910596930e-03 0.0000000000000000e+00  -4.8872462480130689e-04 -9.8125261949793792e-04 0.0000000000000000e+00  3.3001710060757408e-04 -7.9445795652685841e-04 0.0000000000000000e+00  1.9179326923897494e-04 -9.3940813014704915e-04 0.0000000000000000e+00  -2.1676590779801688e-04 -2.4441419055597902e-04 0.0000000000000000e+00  1.1102381120922033e-03 -1.3576543971259667e-03 0.0000000000000000e+00  2.1283937736394016e-04 -2.3967020263453308e-04 0.0000000000000000e+00  -1.1139318957095713e-03 -1.3645631832403594e-03 0.0000000000000000e+00  -7.8987679393718792e-04 -1.0919804112491124e-03 0.0000000000000000e+00  1.1926375141314198e-04 -1.6531493857301684e-04 0.0000000000000000e+00  5.3653040977089898e-04 -6.2116404589142294e-04 0.0000000000000000e+00  -1.0301337406095174e-03 -1.2675648760559590e-03 0.0000000000000000e+00  2.7041043503687437e-04 -5.3457555818099006e-04 0.0000000000000000e+00  8.5654108842824221e-04 -1.1301783290080256e-03 0.0000000000000000e+00  1.9422436948541503e-04 -7.0490238007505051e-04 0.0000000000000000e+00  -3.5175979574697975e-04 -6.8998925458140935e-04 0.0000000000000000e+00  -1.4302628659768768e-04 -5.6747276816662099e-04 0.0000000000000000e+00  1.0356146774590539e-03 -1.2681889305956660e-03 0.0000000000000000e+00  -8.6104720349407802e-04 -1.0438706436484404e-03 0.0000000000000000e+00  5.9634579074502455e-04 -6.9010133201398872e-04 0.0000000000000000e+00  6.1899990093527361e-04 -9.2907120487787037e-04 0.0000000000000000e+00  8.2278715462821340e-04 -9.9021929157257368e-04 0.0000000000000000e+00  -6.8117362383240791e-04 -9.0105816198806027e-04 0.0000000000000000e+00  -6.5462329008579340e-04 -7.6388521311114728e-04 0.0000000000000000e+00  4.2228152679985617e-04 -5.3823234508365125e-04 0.0000000000000000e+00  -4.1639109761412631e-05 -1.1758865173428241e-04 0.0000000000000000e+00  -3.0326996838422329e-04 -3.9671983856668882e-04 0.0000000000000000e+00  -3.4181292898361186e-04 -8.1159963947697060e-04 0.0000000000000000e+00  -6.9431616581566498e-06 -1.1241925341948332e-04 0.0000000000000000e+00  2.3460655470465609e-04 -3.4421802286896690e-04 0.0000000000000000e+00  -6.1722490939544186e-04 -9.3229921663968475e-04 0.0000000000000000e+00  3.9060326168495508e-05 -1.1650237303369603e-04 0.0000000000000000e+00  1.3246014347950577e-04 -2.9740799436140975e-04 0.0000000000000000e+00  3.4603739292660572e-05 -5.8551721647274720e-04 0.0000000000000000e+00  9.6847141303455669e-04 -1.1954248831644149e-03 0.0000000000000000e+00  4.0874819527121480e-05 -2.7291712564607212e-04 0.0000000000000000e+00  -4.1056737245927862e-05 -6.6083006246275865e-04 0.0000000000000000e+00  4.8694672227887027e-07 -4.4354225472606099e-04 0.0000000000000000e+00  1.0829624798416131e-03 -1.3372520875365660e-03 0.0000000000000000e+00  -4.0151263948766841e-04 -4.6180613780635995e-04 0.0000000000000000e+00  -3.7657241719948377e-04 -4.4820239878779042e-04 0.0000000000000000e+00  -1.2261317032045575e-04 -1.5513319406961203e-04 0.0000000000000000e+00  -1.3210806679448873e-04 -3.4608201554394357e-04 0.0000000000000000e+00  -2.8223891223111273e-04 -5.6331084478808933e-04 0.0000000000000000e+00  -4.8436378724691357e-04 -6.9722943992951486e-04 0.0000000000000000e+00  -1.4271764448151408e-04 -1.6519514388905649e-04 0.0000000000000000e+00  -1.7071670454448637e-04 -3.0733407194790313e-04 0.0000000000000000e+00  3.4039559399145472e-04 -9.6514122706579139e-04 0.0000000000000000e+00  -5.5739860020324590e-04 -6.3753861740800753e-04 0.0000000000000000e+00  9.4024537570042686e-04 -1.1455834479170246e-03 0.0000000000000000e+00  5.4445342451640980e-06 -7.8708957307918723e-04 0.0000000000000000e+00  6.4400350958685501e-04 -8.4701343151312317e-04 0.0000000000000000e+00  4.9841071527831381e-04 -5.6557685522972106e-04 0.0000000000000000e+00  -9.7626653310162951e-04 -1.1940552567278348e-03 0.0000000000000000e+00  -5.1793439929580168e-05 -1.0893308135040803e-04 0.0000000000000000e+00  4.7851632152794409e-04 -7.6384207256696398e-04 0.0000000000000000e+00  5.0684258788365926e-04 -7.2045187138216444e-04 0.0000000000000000e+00  5.5737578626155254e-04 -1.0113796044045080e-03 0.0000000000000000e+00  -3.5057719234216398e-04 -3.9861155299035392e-04 0.0000000000000000e+00  -8.7630315040783919e-05 -4.5309000043236396e-04 0.0000000000000000e+00  9.2782864820415247e-04 -1.1274336584322180e-03 0.0000000000000000e+00  -7.7575738879283773e-04 -9.2563246783577209e-04 0.0000000000000000e+00  7.3725106315535862e-04 -8.7509114009866210e-04 0.0000000000000000e+00  -9.4944048271396739e-04 -1.1566539285633654e-03 0.0000000000000000e+00  7.7667435837277447e-04 -1.0979025834703324e-03 0.0000000000000000e+00  -6.8260875163274337e-04 -8.0760850947613784e-04 0.0000000000000000e+00  9.8360534193627533e-04 -1.2048300857426847e-03 0.0000000000000000e+00  -2.3051893219196720e-04 -8.1185088554028631e-04 0.0000000000000000e+00  3.0821248321295135e-04 -4.9921477581536193e-04 0.0000000000000000e+00  2.0494971198604058e-04 -5.4489573997172484e-04 0.0000000000000000e+00  -1.5286703162624099e-04 -6.7759068345463647e-04 0.0000000000000000e+00  8.7146085720569999e-04 -1.0966056290982566e-03 0.0000000000000000e+00  -3.0106704945010945e-04 -9.6432566046172885e-04 0.0000000000000000e+00  5.2854405795719323e-04 -9.3371831612166709e-04 0.0000000000000000e+00  5.7758039995336773e-05 -1.0589156197056034e-04 0.0000000000000000e+00  4.1015553776599552e-04 -4.7536037699790927e-04 0.0000000000000000e+00  -1.0801069344255076e-03 -1.3347778332