<?xml version="1.0"?>
<VTKFile type="UnstructuredGrid"  version="0.1"  >
<UnstructuredGrid>
<Piece  NumberOfPoints="1121" NumberOfCells="2112">
<Points>
<DataArray  type="Float64"  NumberOfComponents="3"  format="ascii">0 0 0  0.5 0 0  0.5 -0.22 0  0 -0.22 0  0.0125 0 0  0.025 0 0  0.03750000000000001 0 0  0.05 0 0  0.0625 0 0  0.07500000000000001 0 0  0.08750000000000001 0 0  0.1 0 0  0.1125 0 0  0.125 0 0  0.1375 0 0  0.15 0 0  0.1625 0 0  0.175 0 0  0.1875 0 0  0.2 0 0  0.2125 0 0  0.225 0 0  0.2375 0 0  0.25 0 0  0.2625 0 0  0.275 0 0  0.2875 0 0  0.3 0 0  0.3124999999999999 0 0  0.325 0 0  0.3375 0 0  0.35 0 0  0.3625 0 0  0.375 0 0  0.3875 0 0  0.4 0 0  0.4125 0 0  0.425 0 0  0.4375 0 0  0.45 0 0  0.4625 0 0  0.475 0 0  0.4875 0 0  0.5 -0.00916666666666667 0  0.5 -0.01833333333333334 0  0.5 -0.02750000000000001 0  0.5 -0.03666666666666668 0  0.5 -0.04583333333333335 0  0.5 -0.05500000000000002 0  0.5 -0.06416666666666669 0  0.5 -0.07333333333333336 0  0.5 -0.08250000000000002 0  0.5 -0.09166666666666669 0  0.5 -0.1008333333333334 0  0.5 -0.11 0  0.5 -0.1191666666666667 0  0.5 -0.1283333333333334 0  0.5 -0.1375 0  0.5 -0.1466666666666667 0  0.5 -0.1558333333333333 0  0.5 -0.165 0  0.5 -0.1741666666666667 0  0.5 -0.1833333333333333 0  0.5 -0.1925 0  0.5 -0.2016666666666667 0  0.5 -0.2108333333333333 0  0.4875 -0.22 0  0.475 -0.22 0  0.4625 -0.22 0  0.45 -0.22 0  0.4375 -0.22 0  0.425 -0.22 0  0.4125 -0.22 0  0.4 -0.22 0  0.3875 -0.22 0  0.375 -0.22 0  0.3625 -0.22 0  0.35 -0.22 0  0.3375 -0.22 0  0.325 -0.22 0  0.3125 -0.22 0  0.3 -0.22 0  0.2875 -0.22 0  0.275 -0.22 0  0.2625 -0.22 0  0.25 -0.22 0  0.2375 -0.22 0  0.225 -0.22 0  0.2125 -0.22 0  0.2 -0.22 0  0.1875000000000001 -0.22 0  0.175 -0.22 0  0.1625 -0.22 0  0.15 -0.22 0  0.1375 -0.22 0  0.125 -0.22 0  0.1125 -0.22 0  0.09999999999999998 -0.22 0  0.08749999999999997 -0.22 0  0.07499999999999996 -0.22 0  0.0625 -0.22 0  0.04999999999999999 -0.22 0  0.03750000000000003 -0.22 0  0.02500000000000002 -0.22 0  0.01250000000000001 -0.22 0  0 -0.2108333333333333 0  0 -0.2016666666666667 0  0 -0.1925 0  0 -0.1833333333333333 0  0 -0.1741666666666666 0  0 -0.165 0  0 -0.1558333333333333 0  0 -0.1466666666666666 0  0 -0.1375 0  0 -0.1283333333333333 0  0 -0.1191666666666666 0  0 -0.11 0  0 -0.1008333333333333 0  0 -0.09166666666666665 0  0 -0.08249999999999999 0  0 -0.07333333333333333 0  0 -0.06416666666666668 0  0 -0.05499999999999999 0  0 -0.04583333333333331 0  0 -0.03666666666666665 0  0 -0.0275 0  0 -0.01833333333333334 0  0 -0.009166666666666684 0  0.1054583333333335 -0.1054166666666667 0  0.3942676334017064 -0.1137728325038039 0  0.2847879184121186 -0.1095588156798053 0  0.1945032948335413 -0.1282408799476467 0  0.06153506715537374 -0.1512727221728088 0  0.4399056412223469 -0.06797859302281792 0  0.05788181883779472 -0.06001948808334377 0  0.4421098014386607 -0.1599837267347342 0  0.3413511741034609 -0.06957267157055583 0  0.2288650014326337 -0.07000139022125416 0  0.3374198095657364 -0.153292781564552 0  0.1625149941501948 -0.06635759941053934 0  0.1410798075665959 -0.1547982873744018 0  0.2480541718311375 -0.1584999930406966 0  0.4521112869309225 -0.1144576824167908 0  0.04769384748510372 -0.1054790589784799 0  0.2872553124970689 -0.0549183148201307 0  0.3883603170589741 -0.1667590078701163 0  0.1113816725357426 -0.05349980002187416 0  0.388663619148569 -0.05083099728992514 0  0.2924675002385118 -0.1733355444551434 0  0.03957129721715399 -0.1820306497250263 0  0.463886478278041 -0.04123097885421483 0  0.1819898664669143 -0.1745112248447572 0  0.1501955722423063 -0.1126410264576243 0  0.2381168692527681 -0.1138631020717532 0  0.09896708868237117 -0.1743617443889283 0  0.351521105495953 -0.110482033201648 0  0.1944214316144394 -0.04364751139729321 0  0.4676096572335854 -0.17875 0  0.0323903427664145 -0.04125 0  0.03139627442974444 -0.07791666666666666 0  0.4686037255702555 -0.1420833333333333 0  0.03146427625974824 -0.1353922207127977 0  0.4687538427589449 -0.08499498352404596 0  0.1945393885069078 -0.08884182758867265 0  0.2525813348104176 -0.03744007417230172 0  0.3217010222371471 -0.03764154129720884 0  0.4222469886470394 -0.03586904090069724 0  0.09663319060065351 -0.1401271138728219 0  0.2193792666828137 -0.183158231426584 0  0.3560154827479793 -0.1838943099753877 0  0.1434582748922029 -0.03603411582704523 0  0.3765333185963097 -0.08241017292348579 0  0.07538111331820632 -0.08899587837746269 0  0.423855991190923 -0.1306886077643884 0  0.3185210010305527 -0.09753607818954631 0  0.3569762884570115 -0.03650734503769727 0  0.4254213410091923 -0.0987078979590463 0  0.2610082403268991 -0.0817800662321487 0  0.0828105113527246 -0.0341734786714956 0  0.4171399376253134 -0.185803221952863 0  0.3057870365127394 -0.1382026892003179 0  0.12895829204953 -0.08335230948371621 0  0.06875298785225953 -0.187362820013113 0  0.3717868049890677 -0.1386048615715364 0  0.321448533906611 -0.1855116827647124 0  0.26298072168791 -0.1839420817131204 0  0.07484000163200957 -0.1198633334100699 0  0.1547686158654376 -0.1863750548878711 0  0.216059367308573 -0.1515159536473182 0  0.2699691944498949 -0.1417527519042215 0  0.1656185503016955 -0.1403556565429203 0  0.4083071195762781 -0.07378364169239227 0  0.1267131755037155 -0.1278660972450704 0  0.4735015828166597 -0.0640900788079139 0  0.02554956908977171 -0.1556408100003981 0  0.4768150825846236 -0.1145833333333333 0  0.02318491741537634 -0.1054166666666667 0  0.223953700752457 -0.0304451531933032 0  0.1244872804067221 -0.1907232817427361 0  0.4438735214118281 -0.1930008132865749 0  0.05574102313663398 -0.02865323925202035 0  0.4137204188713657 -0.1553454939163003 0  0.08893893095617791 -0.06579816339826482 0  0.1717694871603352 -0.02800139159048265 0  0.3128492556460914 -0.06943040619515532 0  0.2797695783739821 -0.02590934499649085 0  0.02258333333333329 -0.1970833333333333 0  0.4762493762769904 -0.02160603458451191 0  0.4793770768812318 -0.1979934752448725 0  0.02062142143957255 -0.02200567641944876 0  0.1164030865048185 -0.02740272745133866 0  0.3830675041448486 -0.1925667518381948 0  0.4791226873505327 -0.1610342148373401 0  0.02087731264946724 -0.05896578516265992 0  0.3274724693986852 -0.1225305077389053 0  0.3972801610854721 -0.02625449066011495 0  0.2900140160514686 -0.08365001034985962 0  0.1709547781797311 -0.09465470820062212 0  0.2138438311308281 -0.1099941211103435 0  0.4450205721789285 -0.02492933314930469 0  0.05420467580227878 -0.08349945672846135 0  0.4461329107542346 -0.1367113815538408 0  0.3659666316461785 -0.05978339436610505 0  0.44602790301578 -0.09307279226297782 0  0.1051970245947556 -0.08027435556391044 0  0.05333928713341426 -0.1272409570081178 0  0.3959065276465774 -0.1392957050603055 0  0.1954280839215327 -0.1956301054107469 0  0.1114114251973984 -0.1581699686077357 0  0.1861203385256373 -0.06601416834570389 0  0.2411653975579025 -0.1955923650394697 0  0.3655092946697883 -0.1617364087021952 0  0.135090011654307 -0.05852644219278214 0  0.301466572149827 -0.195730962509487 0  0.3171403096460815 -0.1628017925003279 0  0.2583110626374412 -0.1046341192205865 0  0.4408293443687437 -0.04585722764353674 0  0.2712011044137034 -0.1640374945295207 0  0.2411933721253841 -0.08983355018053346 0  0.2501709838730871 -0.1314559421109842 0  0.4829353992284747 -0.03936718280336758 0  0.01826814268142685 -0.17875 0  0.08176459786747367 -0.1581134879103219 0  0.09090727073593149 -0.1966179220907174 0  0.1938567422944586 -0.1528508759815354 0  0.1733129361306733 -0.1172649579021292 0  0.1296640686621583 -0.1060858859555111 0  0.05006156132458137 -0.1998033571646454 0  0.162505650870633 -0.1635353305739766 0  0.30277270753554 -0.02336446206680166 0  0.04392010531002208 -0.1476919574928456 0  0.4570380569409145 -0.07105832940298668 0  0.2509935571465481 -0.06292905082461901 0  0.3948833058972995 -0.09019561948060845 0  0.4598195232581849 -0.1577532743262658 0  0.04018055885339097 -0.06224663359087233 0  0.1730418602576066 -0.1983511585214162 0  0.354008461825654 -0.08842076759065362 0  0.373211974938222 -0.1031515537153039 0  0.3385725936424656 -0.02355841481827918 0  0.05693481862827446 -0.1711111761535942 0  0.2226017506701603 -0.1306213423698554 0  0.4834446118625366 -0.09366667033152501 0  0.01655538813746335 -0.126333329668475 0  0.4825096030146118 -0.1326572162395438 0  0.01749039698538812 -0.08734278376045618 0  0.3772923679603625 -0.01999366789017346 0  0.01651090378487999 -0.1420833333333333 0  0.48348909621512 -0.07791666666666669 0  0.2083850969976113 -0.06098599897318754 0  0.3496303726904554 -0.1333395240176083 0  0.3051888980043784 -0.1167126520442686 0  0.2175622493287656 -0.08816391583608728 0  0.421331648509181 -0.05567865783938017 0  0.2036856364456695 -0.0217459550834085 0  0.3419325538888507 -0.04719577702332296 0  0.3412491916251918 -0.1996737604301947 0  0.4838834006315611 -0.1786454571355643 0  0.01611659936843887 -0.0413545428644357 0  0.172916357627664 -0.04916537131395513 0  0.4024134926805814 -0.2009331510593763 0  0.2424815730009992 -0.02045273553971888 0  0.1462759520833398 -0.1337233768065287 0  0.2346404539413744 -0.0484884977905098 0  0.09697638824467633 -0.01835062747588986 0  0.3376316573341132 -0.1736137832302001 0  0.1473441332611047 -0.09306137774954895 0  0.434705037373379 -0.114505364151485 0  0.0768089501139663 -0.1390499296181859 0  0.2037322897871967 -0.1695319781453501 0  0.2796822656650553 -0.2007669332776081 0  0.2910707535484897 -0.1516548901144321 0  0.414355300365443 -0.1140560482952263 0  0.09372496308173206 -0.1210763918452149 0  0.3897041267298961 -0.06995384811683555 0  0.4607061536274312 -0.2009522278863767 0  0.03767528917450519 -0.01920779542340162 0  0.06550910726222195 -0.1022565085744684 0  0.05021276002452402 -0.04427151993747909 0  0.4497875067624045 -0.1757266867012744 0  0.2685456651208211 -0.05149244248160013 0  0.1924991911245588 -0.1082791409797235 0  0.4653652048205058 -0.1036696603203247 0  0.03478864406010496 -0.1162949466270758 0  0.03530598512279109
[...]
<PointData  Vectors="displacement"> 
<DataArray  type="Float64"  Name="displacement"  NumberOfComponents="3" format="ascii">-5.1813443359968034e-03 -2.9070561149298593e-02 0.0000000000000000e+00  5.1811418190638690e-03 -2.9069569419355221e-02 0.0000000000000000e+00  1.4476683882438520e-04 -1.9895846670586655e-04 0.0000000000000000e+00  -1.4173371450605364e-04 -1.9910885284948893e-04 0.0000000000000000e+00  -5.1879054761137756e-03 -2.9772268486810766e-02 0.0000000000000000e+00  -5.2092688173640770e-03 -3.0376688860521819e-02 0.0000000000000000e+00  -5.2062078169381569e-03 -3.0810482643960992e-02 0.0000000000000000e+00  -5.1611495290766474e-03 -3.1119327632453380e-02 0.0000000000000000e+00  -5.0677761270728405e-03 -3.1313483694244477e-02 0.0000000000000000e+00  -4.9239975666352928e-03 -3.1410975011240065e-02 0.0000000000000000e+00  -4.7217505665232244e-03 -3.1453615700076057e-02 0.0000000000000000e+00  -4.4886785798121352e-03 -3.1409661207859742e-02 0.0000000000000000e+00  -4.1888274503806928e-03 -3.1388717327409395e-02 0.0000000000000000e+00  -3.8760652968667310e-03 -3.1290309384033960e-02 0.0000000000000000e+00  -3.5275110498928864e-03 -3.1205375991817493e-02 0.0000000000000000e+00  -3.1601664893572919e-03 -3.1115153395741623e-02 0.0000000000000000e+00  -2.7779768240454843e-03 -3.1037921567820485e-02 0.0000000000000000e+00  -2.3880830593429494e-03 -3.0961061676515692e-02 0.0000000000000000e+00  -1.9952858630090391e-03 -3.0878460064881815e-02 0.0000000000000000e+00  -1.5952057677865632e-03 -3.0835644758108086e-02 0.0000000000000000e+00  -1.1973813448568234e-03 -3.0778556777132423e-02 0.0000000000000000e+00  -7.9767293954398583e-04 -3.0746983507419549e-02 0.0000000000000000e+00  -3.9920679165837827e-04 -3.0727990812990814e-02 0.0000000000000000e+00  1.6387503250788583e-08 -3.0724618917861327e-02 0.0000000000000000e+00  3.9826709200791469e-04 -3.0731117494987178e-02 0.0000000000000000e+00  7.9726616899983749e-04 -3.0758247616607684e-02 0.0000000000000000e+00  1.1976765857621299e-03 -3.0777462256415658e-02 0.0000000000000000e+00  1.5963351512003807e-03 -3.0829120719999121e-02 0.0000000000000000e+00  1.9942310853759172e-03 -3.0884163839764202e-02 0.0000000000000000e+00  2.3889768777102852e-03 -3.0956014047831455e-02 0.0000000000000000e+00  2.7774738075856086e-03 -3.1039067156465990e-02 0.0000000000000000e+00  3.1604332553050256e-03 -3.1116287678776198e-02 0.0000000000000000e+00  3.5268656804692796e-03 -3.1204689049559500e-02 0.0000000000000000e+00  3.8757899351585631e-03 -3.1291814672139422e-02 0.0000000000000000e+00  4.1926934953933617e-03 -3.1375999496590062e-02 0.0000000000000000e+00  4.4763104112800845e-03 -3.1431131713546043e-02 0.0000000000000000e+00  4.7266056480609660e-03 -3.1441471349721986e-02 0.0000000000000000e+00  4.9294484336512697e-03 -3.1407871451491202e-02 0.0000000000000000e+00  5.0659226732417875e-03 -3.1314544063355779e-02 0.0000000000000000e+00  5.1627219722558300e-03 -3.1126462429144065e-02 0.0000000000000000e+00  5.2063310594826200e-03 -3.0806975429220756e-02 0.0000000000000000e+00  5.2031633333533226e-03 -3.0376314180188563e-02 0.0000000000000000e+00  5.1866775395945589e-03 -2.9779190986031850e-02 0.0000000000000000e+00  5.7311141339197501e-03 -2.8994569829725991e-02 0.0000000000000000e+00  6.2943071992228369e-03 -2.8790673658765219e-02 0.0000000000000000e+00  6.8669427714375120e-03 -2.8463187369451540e-02 0.0000000000000000e+00  7.4518726599852279e-03 -2.8024674554245572e-02 0.0000000000000000e+00  8.0280666286966767e-03 -2.7485266129819094e-02 0.0000000000000000e+00  8.5898418171900161e-03 -2.6854363915450090e-02 0.0000000000000000e+00  9.1143466246148570e-03 -2.6132852920544427e-02 0.0000000000000000e+00  9.5923810543462919e-03 -2.5331397340210941e-02 0.0000000000000000e+00  1.0012020360813523e-02 -2.4462750373963265e-02 0.0000000000000000e+00  1.0356287656469466e-02 -2.3514600126717321e-02 0.0000000000000000e+00  1.0606740191308660e-02 -2.2483604277342979e-02 0.0000000000000000e+00  1.0768243582016095e-02 -2.1394281945903811e-02 0.0000000000000000e+00  1.0819004236200032e-02 -2.0226781517982802e-02 0.0000000000000000e+00  1.0754657672501514e-02 -1.8994235845565661e-02 0.0000000000000000e+00  1.0572118044709540e-02 -1.7692913041127325e-02 0.0000000000000000e+00  1.0244766885706377e-02 -1.6316780951040673e-02 0.0000000000000000e+00  9.7801630292450072e-03 -1.4875036892438619e-02 0.0000000000000000e+00  9.1524775728364458e-03 -1.3350685983294771e-02 0.0000000000000000e+00  8.3581562817915886e-03 -1.1732366763213193e-02 0.0000000000000000e+00  7.3664976740569852e-03 -9.9909391667641571e-03 0.0000000000000000e+00  6.1718764481915409e-03 -8.1298212250341777e-03 0.0000000000000000e+00  4.7026344192766687e-03 -6.0620448092325941e-03 0.0000000000000000e+00  2.8720159019463816e-03 -3.6470190747126810e-03 0.0000000000000000e+00  -5.0228222502776912e-05 3.4073264899599310e-05 0.0000000000000000e+00  -4.5270814514044718e-06 1.9402730954707566e-06 0.0000000000000000e+00  -2.5923058358671454e-05 1.8767302936200744e-05 0.0000000000000000e+00  1.8756812581712627e-06 6.0182361858060693e-06 0.0000000000000000e+00  -1.7431650346141824e-05 1.2513669619677023e-05 0.0000000000000000e+00  -5.4921831516734726e-06 4.2092693036126282e-06 0.0000000000000000e+00  -1.6443291186273914e-06 6.5549629581887592e-06 0.0000000000000000e+00  3.0190950715011941e-06 1.9769222920463963e-06 0.0000000000000000e+00  -1.5979181265722155e-06 1.7272236232066493e-06 0.0000000000000000e+00  1.9543623907739480e-06 4.3323990596275780e-06 0.0000000000000000e+00  6.2437928635724091e-06 3.9412727533255830e-06 0.0000000000000000e+00  1.0850882672680295e-06 3.6024653350288791e-06 0.0000000000000000e+00  7.5325613436427504e-06 4.3057842140560008e-06 0.0000000000000000e+00  -6.3026173033800470e-08 3.0970069863537992e-06 0.0000000000000000e+00  1.8348287756967995e-06 1.8416613415713211e-06 0.0000000000000000e+00  2.9007485093098071e-06 3.4879209018226439e-06 0.0000000000000000e+00  -2.7956315748298709e-07 2.7336054222239868e-06 0.0000000000000000e+00  2.6148657963984216e-06 2.0929055194530251e-06 0.0000000000000000e+00  -2.2815581643401957e-06 1.7943520256801826e-06 0.0000000000000000e+00  1.4098993636826528e-06 2.0894873798324370e-06 0.0000000000000000e+00  1.1547101767766854e-07 3.5306841777319496e-06 0.0000000000000000e+00  -2.0080709559750184e-06 2.6491447494397009e-06 0.0000000000000000e+00  8.6316299067974569e-07 2.4857799108866222e-06 0.0000000000000000e+00  -5.0822498039602895e-06 2.6510242134376447e-06 0.0000000000000000e+00  4.0281551068156328e-07 3.0343887926146775e-06 0.0000000000000000e+00  2.9356377816769335e-06 1.8685817433682655e-06 0.0000000000000000e+00  -3.1205662437013266e-06 2.7085893537322033e-06 0.0000000000000000e+00  -4.7277060547135085e-07 2.2123958521592498e-06 0.0000000000000000e+00  -6.7691106095492525e-06 4.0860400348392662e-06 0.0000000000000000e+00  -3.9568947824636761e-06 5.8055486896066590e-06 0.0000000000000000e+00  2.1941284478753478e-07 1.0616982390717526e-06 0.0000000000000000e+00  8.4203614180392112e-06 5.1705325757007876e-06 0.0000000000000000e+00  -2.1697747575982831e-07 1.7868702170675329e-06 0.0000000000000000e+00  -1.4340869186608065e-05 5.8775940657586487e-06 0.0000000000000000e+00  -5.2975320127830470e-07 8.7663466163103393e-06 0.0000000000000000e+00  1.3509461658667082e-05 7.4704269187921462e-06 0.0000000000000000e+00  -1.5930844692048568e-06 3.4577808980251155e-06 0.0000000000000000e+00  1.5808374688542771e-05 1.1819574230600237e-05 0.0000000000000000e+00  5.9878309337318210e-05 4.5884019273492019e-05 0.0000000000000000e+00  -2.8709814178310682e-03 -3.6443882598039962e-03 0.0000000000000000e+00  -4.6995430219731894e-03 -6.0600548309504669e-03 0.0000000000000000e+00  -6.1697776265422413e-03 -8.1278015008773314e-03 0.0000000000000000e+00  -7.3706853516370407e-03 -9.9930247673485420e-03 0.0000000000000000e+00  -8.3602434738826760e-03 -1.1730065117954127e-02 0.0000000000000000e+00  -9.1529084817388723e-03 -1.3342414494316125e-02 0.0000000000000000e+00  -9.7778159339178532e-03 -1.4878806360225615e-02 0.0000000000000000e+00  -1.0242808614156438e-02 -1.6323615808453026e-02 0.0000000000000000e+00  -1.0569371240418502e-02 -1.7695403358894031e-02 0.0000000000000000e+00  -1.0759895835299561e-02 -1.8998569740857913e-02 0.0000000000000000e+00  -1.0817978288791651e-02 -2.0228315036530102e-02 0.0000000000000000e+00  -1.0767317269386676e-02 -2.1390236641334954e-02 0.0000000000000000e+00  -1.0608647143200766e-02 -2.2486761685161737e-02 0.0000000000000000e+00  -1.0352593877259824e-02 -2.3509073937041196e-02 0.0000000000000000e+00  -1.0015309275944141e-02 -2.4468622330228333e-02 0.0000000000000000e+00  -9.5956209019393141e-03 -2.5339724860349078e-02 0.0000000000000000e+00  -9.1152858768109579e-03 -2.6138213502026497e-02 0.0000000000000000e+00  -8.5881490110874380e-03 -2.6849458451434851e-02 0.0000000000000000e+00  -8.0276053530197039e-03 -2.7482886153172910e-02 0.0000000000000000e+00  -7.4522239644219165e-03 -2.8023576388710881e-02 0.0000000000000000e+00  -6.8663544261715875e-03 -2.8463265378229612e-02 0.0000000000000000e+00  -6.2944340933008998e-03 -2.8791706990455510e-02 0.0000000000000000e+00  -5.7306601144909673e-03 -2.8994126498117296e-02 0.0000000000000000e+00  -5.2416530899622848e-03 -2.1836777795517914e-02 0.0000000000000000e+00  5.1589099855692310e-03 -2.0438071317605066e-02 0.0000000000000000e+00  1.0471056591246644e-03 -2.0826778654137176e-02 0.0000000000000000e+00  -1.5859210187090360e-03 -1.7696131889866087e-02 0.0000000000000000e+00  -6.3234666163120160e-03 -1.3743441201490481e-02 0.0000000000000000e+00  7.0302728548462187e-03 -2.7220447752564745e-02 0.0000000000000000e+00  -6.8848607352659198e-03 -2.8054184273856687e-02 0.0000000000000000e+00  5.9908842585893437e-03 -1.2041751900344263e-02 0.0000000000000000e+00  2.9887650640099271e-03 -2.6589510866149999e-02 0.0000000000000000e+00  -6.5557277822617631e-04 -2.6291883592373555e-02 0.0000000000000000e+00  2.1760384550598253e-03 -1.3077798370840344e-02 0.0000000000000000e+00  -2.8391881535116555e-03 -2.6927455024269482e-02 0.0000000000000000e+00  -2.7932496583650368e-03 -1.2790080990949294e-02 0.0000000000000000e+00  -4.2817626600683524e-05 -1.2086825897271492e-02 0.0000000000000000e+00  8.2785614958275373e-03 -2.0669691627430112e-02 0.0000000000000000e+00  -8.3096442074327287e-03 -2.2118325039977061e-02 0.0000000000000000e+00  1.1539899277203613e-03 -2.7887715938010801e-02 0.0000000000000000e+00  3.2917994712267614e-03 -1.0444258462727691e-02 0.0000000000000000e+00  -4.6316846495432972e-03 -2.8607630961612496e-02 0.0000000000000000e+00  4.5991151932976730e-03 -2.8859500830305578e-02 0.0000000000000000e+00  7.5512590854197401e-04 -9.1940630698322152e-03 0.0000000000000000e+00  -5.0104237018031303e-03 -7.7888609431971800e-03 0.0000000000000000e+00  6.8950198970297652e-03 -2.9317044474106973e-02 0.0000000000000000e+00  -1.2218961014207287e-03 -8.9493973840370170e-03 0.0000000000000000e+00  -3.2459624597488161e-03 -2.0456793638136815e-02 0.0000000000000000e+00  -3.5038168464942383e-04 -2.0118600172756875e-02 0.0000000000000000e+00  -3.2933316934655055e-03 -8.9335309739409525e-03 0.0000000000000000e+00  3.3312755440853587e-03 -2.0823537600856094e-02 0.0000000000000000e+00  -1.7221367898587585e-03 -2.8928672718272166e-02 0.0000000000000000e+00  5.7700977843792439e-03 -8.6865254112820436e-03 0.0000000000000000e+00  -6.9962075651806149e-03 -2.9213353723345624e-02 0.0000000000000000e+00  -8.6062584624070956e-03 -2.5810179394981769e-02 0.0000000000000000e+00  8.6007213579125073e-03 -1.6045611697348368e-02 0.0000000000000000e+00  -8.8504228164695345e-03 -1.7260671901846738e-02 0.0000000000000000e+00  8.8329155456590338e-03 -2.4953191543163871e-02 0.0000000000000000e+00  -1.7537012439994978e-03 -2.3971210694545175e-02 0.0000000000000000e+00  7.8893978548699405e-05 -2.9250498244364345e-02 0.0000000000000000e+00  2.2279873012578514e-03 -2.9438829005464396e-02 0.0000000000000000e+00  5.4768140162433027e-03 -3.0154064868667410e-02 0.0000000000000000e+00  -5.0245915456117764e-03 -1.5688523812778903e-02 0.0000000000000000e+00  -4.3764686352909424e-04 -7.2597291151914271e-03 0.0000000000000000e+00  1.6713981729390931e-03 -7.0603614621643088e-03 0.0000000000000000e+00  -3.3528343205056032e-03 -2.9783921385473797e-02 0.0000000000000000e+00  4.4169549273521506e-03 -2.5176643759855951e-02 0.0000000000000000e+00  -6.7092701109290999e-03 -2.4506483358932137e-02 0.0000000000000000e+00  6.3595576058361469e-03 -1.7573508650689532e-02 0.0000000000000000e+00  2.1817012434487545e-03 -2.2751660522015958e-02 0.0000000000000000e+00  3.3688048137404860e-03 -2.9759416842731194e-02 0.0000000000000000e+00  6.8172895469853145e-03 -2.3059142478065883e-02 0.0000000000000000e+00  3.4041547237332107e-04 -2.4839315069103789e-02 0.0000000000000000e+00  -5.2818426303785975e-03 -3.0264406738283647e-02 0.0000000000000000e+00  2.9873994299825560e-03 -6.6535084237954872e-03 0.0000000000000000e+00  1.5024730831700675e-03 -1.5904469207875260e-02 0.0000000000000000e+00  -4.1910872754794583e-03 -2.5023989634874885e-02 0.0000000000000000e+00  -3.2737752477464532e-03 -6.3719891923023683e-03 0.0000000000000000e+00  3.6970867265318876e-03 -1.5890770064380198e-02 0.0000000000000000e+00  1.0148426361838352e-03 -6.7713136488716458e-03 0.0000000000000000e+00  1.8198744288642089e-04 -7.1091542921948806e-03 0.0000000000000000e+00  -6.6702331868720459e-03 -1.9544105898728858e-02 0.0000000000000000e+00  -1.3807557664175032e-03 -6.5791486024833427e-03 0.0000000000000000e+00  -8.0032341321697694e-04 -1.3420281493558079e-02 0.0000000000000000e+00  5.0827430834541384e-04 -1.5243528149601317e-02 0.0000000000000000e+00  -2.3370776094499969e-03 -1.5521953869678431e-02 0.0000000000000000e+00  5.7380955904055521e-03 -2.6485881593605338e-02 0.0000000000000000e+00  -3.9943428525493476e-03 -1.7876350024234215e-02 0.0000000000000000e+00  8.2570861236541358e-03 -2.7177703758539850e-02 0.0000000000000000e+00  -8.2313180603926471e-03 -1.3661907799052160e-02 0.0000000000000000e+00  9.6795308167920788e-03 -2.0811384921467967e-02 0.0000000000000000e+00  -9.6357091105199136e-03 -2.2156542909949204e-02 0.0000000000000000e+00  -7.9792311575341670e-04 -2.9719683159357590e-02 0.0000000000000000e+00  -1.7163957176247443e-03 -5.6862035665461658e-03 0.0000000000000000e+00  3.1077402307014982e-03 -5.2880953401937382e-03 0.0000000000000000e+00  -5.8818296791788528e-03 -3.0437143956768137e-02 0.0000000000000000e+00  4.8598311580574831e-03 -1.2759381362955331e-02 0.0000000000000000e+00  -5.7282151636115991e-03 -2.7446253981369496e-02 0.0000000000000000e+00  -2.4235661157113340e-03 -3.0077844347007877e-02 0.0000000000000000e+00  1.9967534312453840e-03 -2.6464940083610132e-02 0.0000000000000000e+00  9.1406884219129921e-04 -2.9971094749499484e-02 0.0000000000000000e+00  -3.8800755469060957e-03 -5.0223323024083354e-03 0.0000000000000000e+00  6.2068935823860289e-03 -2.9921528497893667e-02 0.0000000000000000e+00  3.8456896966324581e-03 -4.8759606089208256e-03 0.0000000000000000e+00  -6.2691913273458322e-03 -2.9785905029504244e-02 0.0000000000000000e+00  -4.1563272252544076e-03 -3.0508652684887921e-02 0.0000000000000000e+00  1.7466626667135847e-03 -5.3152131429840873e-03 0.0000000000000000e+00  8.1521381218936078e-03 -1.2801185214170447e-02 0.0000000000000000e+00  -8.2096568812068532e-03 -2.7484926594671156e-02 0.0000000000000000e+00  2.3451050885058863e-03 -1.8728167939586683e-02 0.0000000000000000e+00  4.5540309187737816e-03 -3.0659622490720649e-02 0.0000000000000000e+00  1.2524355655030644e-03 -2.4636203140976792e-02 0.0000000000000000e+00  -2.5595209243265381e-03 -2.3214283726656029e-02 0.0000000000000000e+00  -1.0881160655690971e-03 -2.0761537971991928e-02 0.0000000000000000e+00  5.7720269825906152e-03 -3.0611626189963020e-02 0.0000000000000000e+00  -7.6929424469842321e-03 -2.5300588871823102e-02 0.0000000000000000e+00  7.4443074061684451e-03 -1.6657645507208316e-02 0.0000000000000000e+00  3.8436668957308974e-03 -2.7831377635514614e-02 0.0000000000000000e+00  7.8655200787892034e-03 -2.3969779347350711e-02 0.0000000000000000e+00  -5.2026523642759778e-03 -2.5574982878708019e-02 0.0000000000000000e+00  -7.7567437353276694e-03 -1.8404285513245949e-02 0.0000000000000000e+00  4.7025107502937239e-03 -1.5819351907511006e-02 0.0000000000000000e+00  -5.5087698865348411e-04 -4.7775385522329230e-03 0.0000000000000000e+00  -3.6914577398421675e-03 -1.2144101258050925e-02 0.0000000000000000e+00  -2.0265006645205797e-03 -2.6856897101020984e-02 0.0000000000000000e+00  -8.8780027369167995e-05 -4.7999592519934924e-03 0.0000000000000000e+00  2.7698666027408088e-03 -1.1435049306239887e-02 0.0000000000000000e+00  -3.7957665681872623e-03 -2.7947643440694912e-02 0.0000000000000000e+00  5.1570330722732480e-04 -4.7591049366157729e-03 0.0000000000000000e+00  1.4455720164599996e-03 -1.1245927795138147e-02 0.0000000000000000e+00  2.5021902133860898e-04 -2.1583896625694408e-02 0.0000000000000000e+00  6.3690366614406069e-03 -2.9350806022399135e-02 0.0000000000000000e+00  4.2999150566993356e-04 -1.1017764568946908e-02 0.0000000000000000e+00  -2.7104073035247306e-04 -2.3766381316986246e-02 0.0000000000000000e+00  4.4719269589722880e-06 -1.7107759329660095e-02 0.0000000000000000e+00  7.2733640726077445e-03 -2.8781385832480820e-02 0.0000000000000000e+00  -6.6592497579208475e-03 -9.3238334452645354e-03 0.0000000000000000e+00  -4.9211869630706503e-03 -1.2227576316559996e-02 0.0000000000000000e+00  -1.9423951318085103e-03 -4.4968076479007758e-03 0.0000000000000000e+00  -1.3377753072797581e-03 -1.3165287929238968e-02 0.0000000000000000e+00  -2.3647452719234015e-03 -1.9627842704182729e-02 0.0000000000000000e+00  -4.1355901128826596e-03 -2.1615205712231963e-02 0.0000000000000000e+00  -2.4869613581443854e-03 -3.9422474928770632e-03 0.0000000000000000e+00  -1.9317649533690407e-03 -1.1093749494347880e-02 0.0000000000000000e+00  1.6274015216166807e-03 -3.0176874149082690e-02 0.0000000000000000e+00  -7.5539101041993623e-03 -1.4712302147583893e-02 0.0000000000000000e+00  7.8698797841579675e-03 -2.6740911854012020e-02 0.0000000000000000e+00  3.0624796611706379e-05 -2.7053897746207152e-02 0.0000000000000000e+00  5.2687820400785235e-03 -2.4192424165909335e-02 0.0000000000000000e+00  7.1744084387906403e-03 -1.2805591272606517e-02 0.0000000000000000e+00  -7.6674519850758400e-03 -2.7647417442227810e-02 0.0000000000000000e+00  -7.1586647365876825e-04 -4.2246887347963556e-03 0.0000000000000000e+00  3.5070508943200740e-03 -2.4225980650189223e-02 0.0000000000000000e+00  4.2769823818343865e-03 -2.2099990723235423e-02 0.0000000000000000e+00  2.7448327660076093e-03 -3.0375423274767464e-02 0.0000000000000000e+00  -5.1978829591018951e-03 -9.7798978695391222e-03 0.0000000000000000e+00  -7.5351265830200429e-04 -1.7256778753055053e-02 0.0000000000000000e+00  9.7374277914848255e-03 -2.3662086039844217e-02 0.0000000000000000e+00  -9.9375841212043098e-03 -1.9051091617102740e-02 0.0000000000000000e+00  9.7590377610670149e-03 -1.8018323876255425e-02 0.0000000000000000e+00  -9.5184587574961808e-03 -2.4451947125858596e-02 0.0000000000000000e+00  3.9226902974192302e-03 -3.0810095928287314e-02 0.0000000000000000e+00  -9.5136194664722645e-03 -1.6462106710612299e-02 0.0000000000000000e+00  9.2236336692770905e-03 -2.5497062681950646e-02 0.0000000000000000e+00  -1.2963648784344408e-03 -2.7313066044904181e-02 0.0000000000000000e+00  2.9751291405195062e-03 -1.6833283777512437e-02 0.0000000000000000e+00  1.6571944481278418e-03 -1.9682947220049811e-02 0.0000000000000000e+00  -1.0081348181600837e-03 -2.4015965090221879e-02 0.0000000000000000e+00  5.9366360581472417e-03 -2.8542169496026445e-02 0.0000000000000000e+00  -1.4286533310370170e-03 -3.0220312232744882e-02 0.0000000000000000e+00  2.9180098201718823e-03 -2.8836472286054807e-02 0.0000000000000000e+00  8.2079450011445312e-04 -3.9534573790297768e-03 0.0000000000000000e+00  6.8234119208889265e-03 -9.4951056413328811e-03 0.0000000000000000e+00  -7.4060310872420803e-03 -2.8621328338901