<?xml version="1.0"?>
<VTKFile type="UnstructuredGrid"  version="0.1"  >
<UnstructuredGrid>
<Piece  NumberOfPoints="1855" NumberOfCells="3532">
<Points>
<DataArray  type="Float64"  NumberOfComponents="3"  format="ascii">0 0 0  30 0 0  30 -10 0  0 -10 0  0.1391574078963744 0 0  0.2856388821882616 0 0  0.4398299073010886 0 0  0.6021362569539473 0 0  0.7729850389704483 0 0  0.9528258543586996 0 0  1.142131984380316 0 0  1.34140159760994 0 0  1.551159074717981 0 0  1.771956417032531 0 0  2.004374674080994 0 0  2.249025475789527 0 0  2.506552636773105 0 0  2.777633857742732 0 0  3.062982518028728 0 0  3.363349525995907 0 0  3.679525322337712 0 0  4.01234195575742 0 0  4.362675247811097 0 0  4.731447135329707 0 0  5.119628065610077 0 0  5.528239565804708 0 0  5.958356943167011 0 0  6.411112081475485 0 0  6.887696441559404 0 0  7.389364184530748 0 0  7.917435485335147 0 0  8.473300005202017 0 0  9.058420557070402 0 0  9.674336929103793 0 0  10.32266995225095 0 0  11.00512576896296 0 0  11.72350030646412 0 0  12.47968402994705 0 0  13.27566689579597 0 0  14.1135435963616 0 0  14.9955190732806 0 0  15.92391430904694 0 0  16.90117245730496 0 0  17.92986524844506 0 0  19.01269976086341 0 0  20.15252556282024 0 0  21.35234220269763 0 0  22.61530708683689 0 0  23.94474379751883 0 0  25.34415086349739 0 0  26.81721093579712 0 0  28.3678004819169 0 0  30 -1.111111111111111 0  30 -2.222222222222222 0  30 -3.333333333333333 0  30 -4.444444444444445 0  30 -5.555555555555555 0  30 -6.666666666666666 0  30 -7.777777777777777 0  30 -8.888888888888889 0  28.36780047917311 -10 0  26.8172109305839 -10 0  25.34415085606858 -10 0  23.94474378810899 -10 0  22.61530707566275 -10 0  21.3523421899591 -10 0  20.15252554870171 -10 0  19.01269974553473 -10 0  17.92986523206254 -10 0  16.90117244001232 -10 0  15.92391429097614 -10 0  14.99551905455266 -10 0  14.11354357708742 -10 0  13.27566687607703 -10 0  12.47968400987599 -10 0  11.72350028612546 -10 0  11.00512574843363 -10 0  10.32266993160086 -10 0  9.674336908396342 -10 0  9.058420536362949 -10 0  8.473299984546333 -10 0  7.917435464777824 -10 0  7.389364164113587 -10 0  6.887696420787165 -10 0  6.411112061446698 -10 0  5.95835692337857 -10 0  5.528239546282652 -10 0  5.119628046377237 -10 0  4.731447115907979 -10 0  4.362675229213632 -10 0  4.012341937260036 -10 0  3.679525304434552 -10 0  3.363349508456405 -10 0  3.062982500861274 -10 0  2.777633840953978 -10 0  2.506552620368097 -10 0  2.249025459771861 -10 0  2.004374658452946 -10 0  1.771956401795187 -10 0  1.551159059871345 -10 0  1.341401583153029 -10 0  1.142131970307521 -10 0  0.9528258406748833 -10 0  0.7729850256685147 -10 0  0.6021362439621285 -10 0  0.4398298947504031 -10 0  0.2856388700059078 -10 0  0.1391573960769001 -10 0  0 -9.855072463768115 0  0 -9.710144927536232 0  0 -9.565217391304348 0  0 -9.420289855072463 0  0 -9.27536231884058 0  0 -9.130434782608695 0  0 -8.985507246376812 0  0 -8.840579710144928 0  0 -8.695652173913043 0  0 -8.55072463768116 0  0 -8.405797101449275 0  0 -8.260869565217391 0  0 -8.115942028985508 0  0 -7.971014492753623 0  0 -7.826086956521739 0  0 -7.681159420289855 0  0 -7.536231884057971 0  0 -7.391304347826087 0  0 -7.246376811594203 0  0 -7.101449275362318 0  0 -6.956521739130435 0  0 -6.811594202898551 0  0 -6.666666666666667 0  0 -6.521739130434783 0  0 -6.376811594202898 0  0 -6.231884057971015 0  0 -6.086956521739131 0  0 -5.942028985507246 0  0 -5.797101449275362 0  0 -5.652173913043478 0  0 -5.507246376811594 0  0 -5.36231884057971 0  0 -5.217391304347826 0  0 -5.072463768115941 0  0 -4.927536231884058 0  0 -4.782608695652174 0  0 -4.637681159420289 0  0 -4.492753623188406 0  0 -4.347826086956522 0  0 -4.202898550724638 0  0 -4.057971014492754 0  0 -3.913043478260869 0  0 -3.768115942028985 0  0 -3.623188405797101 0  0 -3.478260869565217 0  0 -3.333333333333334 0  0 -3.188405797101449 0  0 -3.043478260869565 0  0 -2.898550724637681 0  0 -2.753623188405797 0  0 -2.608695652173912 0  0 -2.463768115942029 0  0 -2.318840579710145 0  0 -2.173913043478261 0  0 -2.028985507246377 0  0 -1.884057971014492 0  0 -1.739130434782609 0  0 -1.594202898550725 0  0 -1.44927536231884 0  0 -1.304347826086957 0  0 -1.159420289855072 0  0 -1.014492753623188 0  0 -0.8695652173913047 0  0 -0.72463768115942 0  0 -0.579710144927537 0  0 -0.4347826086956523 0  0 -0.2898550724637676 0  0 -0.1449275362318829 0  5.15859856094262 -4.976557621770688 0  2.816777084926057 -7.160262673925935 0  2.81677708460006 -2.839737326002783 0  2.227649803257325 -5.003121586636773 0  1.518662968975629 -8.46230852045241 0  1.518662969184829 -1.537691480152612 0  9.960740911025725 -5.055901393541221 0  1.491099662214591 -3.691833922963321 0  1.503675657181264 -6.345020369042368 0  5.319208041801049 -7.493850249937013 0  5.291109955459268 -2.489368743223226 0  1.096914507335763 -2.53623188405797 0  1.096914507253562 -7.463768115942029 0  1.089580194952752 -4.71277167923441 0  15.07565076110197 -5.047572991082069 0  7.501630508673601 -5.937500100385354 0  0.8894869418764504 -5.623930488933245 0  2.955144522453978 -1.440834296472408 0  2.955144521140721 -8.559165705576945 0  8.106603955004623 -2.748811534843258 0  3.662152539483591 -4.228178367024407 0  3.662181528265114 -5.771746159989156 0  0.8436558190317136 -0.8541050638451999 0  0.8436558075840921 -9.145894948342754 0  0.7854168197005933 -1.811594202898552 0  0.7894693398152999 -3.286543351392342 0  0.7854168196772591 -8.188405797101449 0  0.7854168196772591 -6.739130434782609 0  20.00078956016804 -4.999999999785771 0  0.7379120031523989 -3.977302749614766 0  6.584332478112232 -3.934875417052907 0  7.295091310194352 -7.969791332537982 0  9.811174303464586 -7.412814499648229 0  4.013376806449688 -2.206189431585293 0  4.013376806983409 -7.793810569017377 0  12.11177433894592 -2.818343737884045 0  2.591152707837148 -3.990098461753838 0  2.58990939378082 -6.025895074707176 0  25.43156400064585 -5.044446479916348 0  2.03262751726143 -2.282125834846944 0  2.032627517335952 -7.717874165160392 0  12.51865094522923 -6.491408052923457 0  0.598175343983641 -6.156971652625402 0  2.126700074935224 -0.8767654465386991 0  2.126700059112423 -9.123234559633019 0  6.617961838548696 -1.617756429129908 0  0.5903949564549755 -4.980060355019413 0  1.676697585305984 -5.547101897225158 0  4.773518305133987 -3.729331162566817 0  4.77931803486508 -6.231222307502165 0  4.878549698409591 -8.72048903376362 0  4.852580875634024 -1.222215410052823 0  0.5487847095754042 -2.675169258708207 0  0.545113423825768 -7.32369553390529 0  1.78738026998851 -4.400451872599477 0  1.68244194111824 -3.010100184333533 0  1.683984276238402 -7.018293626028473 0  9.998503440677371 -2.00585287985007 0  3.693061162502273 -3.243678395563028 0  3.694987482168253 -6.757603268814477 0  6.081763036485869 -5.83414381546261 0  0.5196640460586313 -1.350633211792632 0  0.5196640458460706 -8.649366789040087 0  3.84593363904758 -0.9906418103762418 0  3.845933620847308 -9.009358200471317 0  17.41551885287501 -3.057748733689079 0  17.30725517812527 -7.002961443761516 0  8.117698464370697 -4.451550942597151 0  0.4918476668493152 -0.4789811193757592 0  0.4918476560347713 -9.521018882514893 0  1.463770869328428 -0.6252343353791154 0  1.463770854281917 -9.374765668872765 0  0.5034132782032188 -4.464280853772128 0  3.138906271796685 -4.99999841599503 0  14.61209972381335 -2.388610981020637 0  6.208601124947327 -8.776231214192325 0  14.74910972998159 -7.542186851303819 0  2.243794246335625 -1.632184311040998 0  2.243794245689214 -8.367815689183566 0  0.4590235278399923 -5.431413993025926 0  0.4971508861448406 -2.209632053221267 0  0.4971508861368665 -7.790367946777407 0  0.4644363683211541 -3.560571347760519 0  6.478811279411406 -7.007392971062433 0  1.238895267772762 -4.173677632458826 0  1.293241773632479 -2.02256720952064 0  1.293241773542714 -7.977432790434841 0  0.4324740478030531 -0.942028985507247 0  0.4324740423701829 -9.057971014492754 0  2.117396640811705 -3.472968170680347 0  2.107095929630507 -6.531506384346077 0  8.087741545730886 -1.392783601483453 0  1.028911946384717 -1.352376108341404 0  1.028911946221715 -8.647623891551962 0  4.05691976296832 -4.991522392209158 0  11.51826881314265 -8.065248940008736 0  1.618560396201739 -4.958056164503666 0  2.701984523487646 -2.141781914603403 0  2.70198452396172 -7.858218085853512 0  2.843615645746219 -9.289121726447632 0  2.843615661334342 -0.7108782798429658 0  8.678774612240533 -8.488146490452822 0  6.487906449371135 -2.667543558824978 0  8.369190916679937 -7.129867754908394 0  11.80978191929258 -4.655775487536958 0  0.3792065166453504 -3.113833531412848 0  0.4134714637263563 -6.58827691137208 0  9.551050695080825 -3.49648183875815 0  1.083867845277057 -6.036251777836495 0  0.3756430921870901 -1.80381664325008 0  0.3756430921689482 -8.196183356748573 0  3.113073783220456 -3.503408140759125 0  3.113391383189963 -6.496678880796299 0  22.62850736315072 -3.277987336300344 0  22.59385352108348 -6.800312122582239 0  0.3777114402537816 -4.137047872695438 0  0.9196816123347897 -0.4281025456111269 0  0.9196815944880363 -9.571897460530383 0  0.4052043328723194 -5.827814332459883 0  8.865857694874787 -5.767686953139113 0  1.200388325130726 -5.182186034620629 0  5.65297436943758 -4.325500846767599 0  1.200079167961391 -3.009849046583253 0  1.20883344838 -7.021823297793294 0  1.057642414577487 -3.660996704809145 0  10.88812987788297 -6.333458225047037 0  4.493502926606794 -2.839780197438185 0  4.485862892033458 -7.147606077919463 0  0.3631651408878085 -7.003529808558233 0  1.946748828463205 -6.049056369468467 0  6.918750162798794 -4.993796052442676 0  3.351203216022585 -1.980935554775394 0  3.351203216441711 -8.019064445907297 0  2.281892243515294 -2.856654416292082 0  2.281892243715877 -7.143345583598931 0  5.811143619672087 -0.9953286820321026 0  2.695713766833098 -4.565354125099452 0  2.698172168139827 -5.435483248292925 0  19.86166219288896 -2.493475492328429 0  19.83739102036415 -7.594404063416508
[...]
<PointData  Vectors="displacement"> 
<DataArray  type="Float64"  Name="displacement"  NumberOfComponents="3" format="ascii">1.2518665930883593e-01 6.1897710017679811e-02 0.0000000000000000e+00  2.0243489706714366e-07 1.4742196988263279e-04 0.0000000000000000e+00  -2.9397446463136848e-07 -1.5085176859110182e-07 0.0000000000000000e+00  1.9172067693342418e-07 -1.8428770700871905e-07 0.0000000000000000e+00  6.4944921247201026e-02 1.0265958428824154e-02 0.0000000000000000e+00  3.6540829117811875e-02 3.5749348250496151e-03 0.0000000000000000e+00  2.5111454722177393e-02 1.2087328614557925e-03 0.0000000000000000e+00  1.7757306395857920e-02 6.2619103955609669e-04 0.0000000000000000e+00  1.4152956314480877e-02 7.6531515718580121e-05 0.0000000000000000e+00  1.1337402466438030e-02 -1.6123206361809224e-04 0.0000000000000000e+00  9.5152596366943152e-03 -2.9526810492008738e-04 0.0000000000000000e+00  8.1078310966965546e-03 -4.1276679182411800e-04 0.0000000000000000e+00  6.9420781554838315e-03 -4.5815571996785234e-04 0.0000000000000000e+00  6.0511549404490160e-03 -5.1084479658064616e-04 0.0000000000000000e+00  5.2790649653369874e-03 -5.2368226818743648e-04 0.0000000000000000e+00  4.7070822078464558e-03 -5.1379620092575017e-04 0.0000000000000000e+00  4.1644689831901466e-03 -5.3032083975519141e-04 0.0000000000000000e+00  3.7369931716108771e-03 -5.3414515784875292e-04 0.0000000000000000e+00  3.3253544097067165e-03 -5.2307569979236762e-04 0.0000000000000000e+00  2.9913660177307553e-03 -5.0802564275565724e-04 0.0000000000000000e+00  2.6902153971753904e-03 -4.8810566303645155e-04 0.0000000000000000e+00  2.4266530807312554e-03 -4.6549881584962967e-04 0.0000000000000000e+00  2.1961398596578112e-03 -4.4403702201417867e-04 0.0000000000000000e+00  1.9824889331666695e-03 -4.1964084843484624e-04 0.0000000000000000e+00  1.7859579699486259e-03 -3.8619497280914657e-04 0.0000000000000000e+00  1.6151561602894978e-03 -3.4902307067467532e-04 0.0000000000000000e+00  1.4688084388578507e-03 -3.1557288471098657e-04 0.0000000000000000e+00  1.3257020704636590e-03 -2.7558732057457561e-04 0.0000000000000000e+00  1.2033428417739629e-03 -2.3657672457812949e-04 0.0000000000000000e+00  1.0865379628658990e-03 -1.9382830528911921e-04 0.0000000000000000e+00  9.8322365900800884e-04 -1.4957157573072393e-04 0.0000000000000000e+00  8.9319699291600817e-04 -1.0441108969632109e-04 0.0000000000000000e+00  8.1754978444015486e-04 -6.2959293116323305e-05 0.0000000000000000e+00  7.4349718923113269e-04 -2.0083528646397180e-05 0.0000000000000000e+00  6.7987484161583401e-04 1.9937043253447298e-05 0.0000000000000000e+00  6.2418538462056172e-04 5.8149519893583244e-05 0.0000000000000000e+00  5.7772486136429234e-04 9.1271502389064473e-05 0.0000000000000000e+00  5.3382232637475002e-04 1.2131459109857803e-04 0.0000000000000000e+00  4.9659271015969290e-04 1.4545478264932075e-04 0.0000000000000000e+00  4.5927854082294050e-04 1.6624007710383962e-04 0.0000000000000000e+00  4.2838065530113238e-04 1.8026354610231230e-04 0.0000000000000000e+00  3.9547472213991632e-04 1.9059505671868834e-04 0.0000000000000000e+00  3.6573670665080197e-04 1.9528943884686899e-04 0.0000000000000000e+00  3.3381430448796705e-04 1.9658013257143657e-04 0.0000000000000000e+00  3.0401793464337958e-04 1.9372228468727003e-04 0.0000000000000000e+00  2.7011544863726690e-04 1.8847095733754695e-04 0.0000000000000000e+00  2.3649910874283764e-04 1.8161096434879130e-04 0.0000000000000000e+00  2.0060038840070173e-04 1.7395094587088737e-04 0.0000000000000000e+00  1.6630427014917981e-04 1.6572168411840474e-04 0.0000000000000000e+00  1.2707780846440850e-04 1.5745433300069295e-04 0.0000000000000000e+00  8.5263936274444069e-05 1.5133101171006086e-04 0.0000000000000000e+00  4.2458940557915188e-05 1.4797435908157807e-04 0.0000000000000000e+00  4.8750084759891327e-07 1.2332854796291468e-04 0.0000000000000000e+00  -1.2835192843073620e-07 9.7435219680358653e-05 0.0000000000000000e+00  -5.9628832235062889e-08 7.3571375890026032e-05 0.0000000000000000e+00  1.3306888514873125e-07 5.2373049343192504e-05 0.0000000000000000e+00  -1.7367958117394276e-07 3.3907233179090443e-05 0.0000000000000000e+00  1.4198831519351150e-07 1.8880080075058616e-05 0.0000000000000000e+00  -1.0709536020940602e-07 7.8246569261096286e-06 0.0000000000000000e+00  -1.0369899828479751e-08 1.2245333787606922e-06 0.0000000000000000e+00  -1.5321552669202718e-07 -6.6189574046820230e-07 0.0000000000000000e+00  -1.7368759375715437e-09 -7.3123789369926753e-07 0.0000000000000000e+00  5.8368059638680049e-07 -8.1214945093101260e-07 0.0000000000000000e+00  8.2690073738875729e-08 -2.5794552749240077e-07 0.0000000000000000e+00  1.3112801217168979e-07 -4.1586496808037272e-07 0.0000000000000000e+00  6.7159402617583640e-07 -5.8516828859673151e-07 0.0000000000000000e+00  2.2350427862667493e-07 -7.9205351059972530e-07 0.0000000000000000e+00  1.0951488450000677e-06 -7.4107235267832004e-07 0.0000000000000000e+00  3.4418736183942804e-07 -4.6838461216128425e-07 0.0000000000000000e+00  1.0746922317024628e-06 -5.3784494315868722e-07 0.0000000000000000e+00  5.6770209593822394e-07 -2.1501087027140299e-07 0.0000000000000000e+00  8.1169767380883793e-07 -2.7224929132148695e-07 0.0000000000000000e+00  8.3212384461520716e-07 5.5799197592070123e-08 0.0000000000000000e+00  9.7054318032963240e-07 5.8561861294769448e-08 0.0000000000000000e+00  2.8454395487261046e-07 1.2931830298687274e-07 0.0000000000000000e+00  6.0244508855166707e-07 4.4640520712099608e-07 0.0000000000000000e+00  -2.5796804108305712e-08 1.3154026682964202e-07 0.0000000000000000e+00  8.8650944130123917e-07 1.1732566426019155e-06 0.0000000000000000e+00  2.8460060910615825e-07 8.2179126922446310e-07 0.0000000000000000e+00  6.2474239779385514e-07 7.6190312593454963e-07 0.0000000000000000e+00  -5.4420333035779627e-07 7.4297573453630969e-07 0.0000000000000000e+00  1.0365472926439180e-07 1.1349428841810201e-06 0.0000000000000000e+00  -7.3245703988765240e-07 1.5495653403000748e-06 0.0000000000000000e+00  -8.7253563033314767e-07 9.5000235990019230e-07 0.0000000000000000e+00  -8.5459963254477091e-07 4.6240637258231381e-07 0.0000000000000000e+00  -2.4070822100239785e-06 1.1788258698227815e-06 0.0000000000000000e+00  -9.4217415674115649e-07 5.4232769179534451e-07 0.0000000000000000e+00  -1.6691612642584960e-06 6.4245484717584096e-07 0.0000000000000000e+00  -1.0440605752772634e-06 3.9639543504962373e-07 0.0000000000000000e+00  -2.5050435927878752e-06 6.2547446387580008e-07 0.0000000000000000e+00  -2.4080090527364658e-07 -2.3026183245891344e-08 0.0000000000000000e+00  -1.0279830702206427e-06 4.0817970374795442e-08 0.0000000000000000e+00  -8.5473341000474308e-07 1.6744119741060727e-08 0.0000000000000000e+00  -6.2028456646062990e-07 -5.2635090166539168e-08 0.0000000000000000e+00  -1.4037342594571162e-06 -2.8369114453864762e-07 0.0000000000000000e+00  -3.3513816103306745e-07 -1.1404248163755869e-07 0.0000000000000000e+00  -1.1515847826819331e-06 -3.9414410214368300e-07 0.0000000000000000e+00  -1.6307768676184565e-07 -9.5782426896970013e-08 0.0000000000000000e+00  -2.0217661338778701e-07 -3.1004972670494122e-07 0.0000000000000000e+00  -5.0268687147923270e-07 -2.7307288485565582e-07 0.0000000000000000e+00  -2.7418230146336172e-07 -2.9124113974663864e-07 0.0000000000000000e+00  -6.8804054560593955e-08 -1.0365121004533829e-07 0.0000000000000000e+00  -1.6144284287330421e-07 -1.5455681470566493e-07 0.0000000000000000e+00  -1.4769685186685459e-08 -1.9682925203474877e-07 0.0000000000000000e+00  5.1052504060422496e-10 -1.0525274516755315e-07 0.0000000000000000e+00  -2.3241593771826146e-07 -1.8456675601665156e-07 0.0000000000000000e+00  5.4844471157241124e-08 -1.8442605762950759e-07 0.0000000000000000e+00  -5.5953840478682136e-08 -6.1225733542091576e-08 0.0000000000000000e+00  -4.6468248331313055e-08 5.3254982675130435e-06 0.0000000000000000e+00  6.8677203805895848e-08 1.3522031654743990e-05 0.0000000000000000e+00  -8.5641244875720845e-08 2.4050932745927654e-05 0.0000000000000000e+00  7.9002211087940240e-09 3.6956472209603345e-05 0.0000000000000000e+00  -4.0131438087674036e-08 5.1775516344366987e-05 0.0000000000000000e+00  -3.1976399304373580e-08 6.8674008052643730e-05 0.0000000000000000e+00  7.2663480398407811e-08 8.7288862905097754e-05 0.0000000000000000e+00  -6.7576310420593279e-08 1.0762421293500104e-04 0.0000000000000000e+00  6.1679949640651392e-08 1.2959046792911482e-04 0.0000000000000000e+00  -8.1732805353709923e-08 1.5305772068322749e-04 0.0000000000000000e+00  5.0269803812349866e-08 1.7796606887704710e-04 0.0000000000000000e+00  -3.2358875568474538e-08 2.0430104945730565e-04 0.0000000000000000e+00  3.6378687582285442e-08 2.3200495767277882e-04 0.0000000000000000e+00  -6.7360536313314656e-08 2.6101256635005607e-04 0.0000000000000000e+00  4.1448844740223733e-08 2.9135887366899216e-04 0.0000000000000000e+00  -4.9834702908279908e-08 3.2299084640650228e-04 0.0000000000000000e+00  -3.2095763121025794e-08 3.5599261096981870e-04 0.0000000000000000e+00  1.5966005647919927e-08 3.9017871247033385e-04 0.0000000000000000e+00  3.8269019732574185e-08 4.2582213380124029e-04 0.0000000000000000e+00  -1.8416185676718574e-08 4.6275266737461887e-04 0.0000000000000000e+00  2.7385813767120250e-08 5.0109315771738720e-04 0.0000000000000000e+00  -7.2119437102656419e-08 5.4083032209138184e-04 0.0000000000000000e+00  2.0096204998100521e-08 5.8220359778238045e-04 0.0000000000000000e+00  8.6317085341699068e-09 6.2480939350919218e-04 0.0000000000000000e+00  -1.1686934910773084e-08 6.6946291169589652e-04 0.0000000000000000e+00  -8.6881585840129245e-08 7.1582009869711302e-04 0.0000000000000000e+00  -4.2172149328276122e-08 7.6381095308210691e-04 0.0000000000000000e+00  -4.3281208817044324e-08 8.1353769446738109e-04 0.0000000000000000e+00  6.0099577702498914e-08 8.6555669185885435e-04 0.0000000000000000e+00  -1.0958076525473238e-07 9.1981659496524640e-04 0.0000000000000000e+00  3.6797622357538637e-08 9.7651768967138314e-04 0.0000000000000000e+00  -1.2121282151818749e-07 1.0357097976946158e-03 0.0000000000000000e+00  4.4859939718647042e-08 1.0978181449127469e-03 0.0000000000000000e+00  -9.4596149227131058e-08 1.1626391027842247e-03 0.0000000000000000e+00  -4.9371011464137996e-08 1.2304289438906648e-03 0.0000000000000000e+00  -6.3912457640957269e-08 1.3030402996981867e-03 0.0000000000000000e+00  -1.1861870429395113e-08 1.3776481129198694e-03 0.0000000000000000e+00  1.4587465235848971e-07 1.4585788069678219e-03 0.0000000000000000e+00  -3.6232619257248600e-07 1.5429848661881751e-03 0.0000000000000000e+00  1.9323280414084347e-07 1.6320073628102742e-03 0.0000000000000000e+00  -2.0799894494703121e-07 1.7273244067075458e-03 0.0000000000000000e+00  1.4054743050523611e-07 1.8292385652153604e-03 0.0000000000000000e+00  -2.1172827959493125e-07 1.9379662881134044e-03 0.0000000000000000e+00  -1.4436499697135459e-07 2.0537426836324682e-03 0.0000000000000000e+00  -5.0727161028446473e-08 2.1804434957144745e-03 0.0000000000000000e+00  5.3060785984642613e-07 2.3150454575321311e-03 0.0000000000000000e+00  -3.6344437018075450e-07 2.4615229553871187e-03 0.0000000000000000e+00  8.5727312734916378e-09 2.6214148708090961e-03 0.0000000000000000e+00  1.6096160030969350e-07 2.7967476847658933e-03 0.0000000000000000e+00  -1.4918821525727846e-07 2.9863568219289211e-03 0.0000000000000000e+00  -1.7354950877078760e-07 3.1932285239608944e-03 0.0000000000000000e+00  -9.2199832382030046e-07 3.4312219631443472e-03 0.0000000000000000e+00  9.2024063196948098e-07 3.6902163430786485e-03 0.0000000000000000e+00  -1.3486634298161951e-06 3.9805663064123049e-03 0.0000000000000000e+00  1.7574593912411218e-06 4.3133054602049522e-03 0.0000000000000000e+00  -2.3914516803789087e-06 4.6901021975570530e-03 0.0000000000000000e+00  6.4229296014665545e-07 5.1279201212977568e-03 0.0000000000000000e+00  -4.1464624414535646e-06 5.6359388000896751e-03 0.0000000000000000e+00  1.5811438932696206e-06 6.2584788560722335e-03 0.0000000000000000e+00  -1.1556899334842485e-05 6.9751304060787240e-03 0.0000000000000000e+00  3.0700739134615069e-06 7.8723279887969282e-03 0.0000000000000000e+00  -1.7025917117921100e-05 8.9559155183069374e-03 0.0000000000000000e+00  -8.2122183136837967e-06 1.0425715549820396e-02 0.0000000000000000e+00  -2.4273363413566543e-05 1.2509564665837147e-02 0.0000000000000000e+00  -8.6916159429603274e-05 1.5144568884955979e-02 0.0000000000000000e+00  -1.0980155176460719e-04 1.9339188742159560e-02 0.0000000000000000e+00  -2.2617939585220626e-05 2.7649923915981946e-02 0.0000000000000000e+00  -5.7725221320772155e-04 4.0711228374429573e-02 0.0000000000000000e+00  -8.4686104551413298e-05 -4.8801481519549172e-04 0.0000000000000000e+00  -4.3238336852685058e-04 1.1827638589962025e-04 0.0000000000000000e+00  -3.8778288589064301e-05 -5.9839477198589343e-04 0.0000000000000000e+00  -5.6896122488098437e-04 3.8454120097148318e-04 0.0000000000000000e+00  -2.0642072939646648e-04 1.2831041354811423e-04 0.0000000000000000e+00  1.3322712198439102e-04 -4.8659595005991430e-04 0.0000000000000000e+00  3.5719484183290289e-04 -2.1429547299684599e-04 0.0000000000000000e+00  -6.9774841852625249e-04 9.8368976963327014e-04 0.0000000000000000e+00  -3.7415346329195374e-04 4.8421211312383103e-04 0.0000000000000000e+00  -2.8450919633346068e-04 -1.3570165457814172e-04 0.0000000000000000e+00  8.8750155109998245e-04 -8.8523624431748277e-04 0.0000000000000000e+00  -9.3360114580508832e-04 1.6546344089950944e-03 0.0000000000000000e+00  -2.2045721303165814e-04 3.2099229395710446e-04 0.0000000000000000e+00  -4.5180664314721828e-04 1.0424572763154654e-03 0.0000000000000000e+00  3.3017735550182066e-04 2.7827270674789504e-05 0.0000000000000000e+00  8.1370615305896026e-05 -3.2586300277192746e-04 0.0000000000000000e+00  -2.9499778319711845e-04 8.1682276545865450e-04 0.0000000000000000e+00  1.7337101575708544e-03 -1.3875096911232223e-03 0.0000000000000000e+00  -2.9244027265535097e-04 4.2565903043199324e-05 0.0000000000000000e+00  7.2538275323196584e-04 -4.3720412345364402e-04 0.0000000000000000e+00  -2.5804755704595338e-04 -4.0412391526138539e-04 0.0000000000000000e+00  -4.4488112074652042e-04 -1.0681442456299072e-04 0.0000000000000000e+00  5.0695067706129824e-04 -1.7841488552155824e-04 0.0000000000000000e+00  -7.9174389568432226e-05 6.1920184260362790e-05 0.0000000000000000e+00  -1.2279749153052521e-03 2.6205847741738778e-03 0.0000000000000000e+00  -6.1072100433199109e-04 1.8865655031859844e-03 0.0000000000000000e+00  -1.2873196730451664e-04 2.0297686317965064e-04 0.0000000000000000e+00  -1.9710357124854512e-04 5.1647197998761993e-04 0.0000000000000000e+00  2.0776465028975568e-04 6.1616004905115635e-05 0.0000000000000000e+00  -4.3358378605973111e-04 1.5436459462315696e-03 0.0000000000000000e+00  4.0336831687118817e-04 -6.0878543656476181e-04 0.0000000000000000e+00  -8.9380695294247688e-05 -1.1377537978500171e-04 0.0000000000000000e+00  1.2124682719772815e-04 -1.0327697563545091e-04 0.0000000000000000e+00  9.8175582144778865e-04 -1.0957785874616468e-03 0.0000000000000000e+00  -3.6936612443560580e-04 -2.9242675203868191e-05 0.0000000000000000e+00  5.2804265416486816e-04 -3.3732841157819411e-05 0.0000000000000000e+00  -5.2491662830104764e-04 5.2975048579619602e-05 0.0000000000000000e+00  -5.0472111827515819e-04 2.1429912701171906e-04 0.0000000000000000e+00  8.5382186741469500e-05 4.7099962618277723e-05 0.0000000000000000e+00  -2.0591294732524463e-04 -3.1935333438024786e-04 0.0000000000000000e+00  -3.3079843320370786e-04 1.8247417629430989e-04 0.0000000000000000e+00  2.6799255112634675e-04 -4.7094450601158660e-05 0.0000000000000000e+00  -1.7764876946471051e-04 7.0225990075017280e-04 0.0000000000000000e+00  3.0457038323467812e-03 -1.7229636546978934e-03 0.0000000000000000e+00  -1.7437731214014183e-04 4.1090508865277018e-05 0.0000000000000000e+00  1.1143776179544222e-03 -5.8712754451680264e-04 0.0000000000000000e+00  -2.4805965164216212e-04 1.1286321358492894e-03 0.0000000000000000e+00  -4.7731603547307932e-04 5.8165749566205422e-04 0.0000000000000000e+00  2.1207532457219599e-04 -7.3179709198385485e-04 0.0000000000000000e+00  -3.1795274307302242e-04 -2.4167495278413123e-04 0.0000000000000000e+00  -2.3615711149498845e-04 -3.1302465288202559e-05 0.0000000000000000e+00  1.6242742904700235e-03 -8.6810586908593168e-04 0.0000000000000000e+00  -6.4832604422190073e-04 2.6612587791249066e-03 0.0000000000000000e+00  -1.1918702524373032e-04 3.9191726267205613e-04 0.0000000000000000e+00  -6.1718038648309742e-04 6.7587715790493616e-04 0.0000000000000000e+00  -7.3847544416578428e-04 6.8221382077239762e-04 0.0000000000000000e+00  -3.4807690225484777e-04 3.2757659731469033e-04 0.0000000000000000e+00  6.9450179997171911e-04 -1.6362025064642642e-04 0.0000000000000000e+00  1.3089154552513156e-04 -7.4573075034377583e-04 0.0000000000000000e+00  -4.4001811089448812e-04 -3.3986244905472356e-05 0.0000000000000000e+00  -8.2821965895599504e-05 -3.7461751090383052e-04 0.0000000000000000e+00  -1.5567927677018571e-03 4.2314418103394699e-03 0.0000000000000000e+00  -7.0297392703400134e-05 1.3285213280372069e-04 0.0000000000000000e+00  2.1243790462409360e-03 -1.0599425506575139e-03 0.0000000000000000e+00  -2.2674265777113733e-04 1.7293596306347008e-06 0.0000000000000000e+00  3.2594811496756439e-04 1.0770591545235846e-04 0.0000000000000000e+00  1.9194927289336344e-04 1.9150891851268395e-05 0.0000000000000000e+00  3.8267131548130878e-04 -4.1003118284773158e-04 0.0000000000000000e+00  1.8272637632730283e-03 -1.7646990357728297e-05 0.0000000000000000e+00  -2.9019609956937184e-05 2.7109979537647078e-05 0.0000000000000000e+00  4.3820375568645485e-03 -2.1245040284757384e-03 0.0000000000000000e+00  -1.0056072792659583e-04 3.3007237709742092e-05 0.0000000000000000e+00  -2.5640414140545262e-04 1.3940155183237290e-03 0.0000000000000000e+00  -4.8638207527500541e-04 -4.0227632409872516e-05 0.0000000000000000e+00  4.3719124574880664e-04 8.8503521456329427e-05 0.0000000000000000e+00  -1.5034516894733268e-04 -4.7050308726845634e-05 0.0000000000000000e+00  1.9338398395455001e-04 -1.9591320048879443e-06 0.0000000000000000e+00  9.8974516957884705e-04 -1.2248589258964193e-03 0.0000000000000000e+00  -2.8252765314154565e-04 9.7123518223179211e-05 0.0000000000000000e+00  -1.6962545549175007e-04 9.7175450668253894e-04 0.0000000000000000e+00  -8.1302836543116876e-04 3.2891728919180016e-03 0.0000000000000000e+00  -9.5132669185108175e-05 2.9040435409863357e-04 0.0000000000000000e+00  -3.5009663788801063e-04 1.9704335906506536e-03 0.0000000000000000e+00  -1.4252676732272969e-04 -2.1981315266628518e-04 0.0000000000000000e+00  -5.7658749827540600e-04 1.1168554367917119e-03 0.0000000000000000e+00  -8.3524221179649802e-04 9.0530750853964035e-04 0.0000000000000000e+00  -2.1785489494236524e-04 2.1229986958950036e-04 0.0000000000000000e+00  -1.9966321905691346e-03 5.1871412598123471e-03 0.0000000000000000e+00  -4.4845183813243016e-05 7.6150763565158754e-05 0.0000000000000000e+00  -6.1603894034532609e-04 3.0122491663306822e-04 0.0000000000000000e+00  -4.3975222028660700e-04 3.1052588378817630e-04 0.0000000000000000e+00  9.3551164185233699e-04 -3.3093857390920263e-04 0.0000000000000000e+00  -6.7503255836737501e-04 7.7862473443160169e-04 0.0000000000000000e+00  -1.3480286485784859e-04 1.2174898758616308e-04 0.0000000000000000e+00  -3.1143537043566770e-04 -3.2829477827926598e-04 0.0000000000000000e+00  1.3864818459359717e-04 -3.6951376397058479e-05 0.0000000000000000e+00  -5.3350820068963768e-04 7.0841689118783242e-04 0.0000000000000000e+00  5.3959662122070133e-04 -1.0009048601690421e-03 0.0000000000000000e+00  -3.6516362934176354e-04 9.7048708222007444e-05 0.0000000000000000e+00  -1.6988351203449519e-04 1.8384908004752434e-05 0.0000000000000000e+00  3.0215976157824628e-03 -1.2710752260909125e-03 0.0000000000000000e+00  3.9599835956850507e-06 -5.8546058292594938e-05 0.0000000000000000e+00  8.0805332891279032e-04 -6.8536428111535923e-04 0.0000000000000000e+00  4.3931632407290140e-05 -1.7072035083759860e-04 0.0000000000000000e+00  4.0887078144328495e-04 -9.01893