<?xml version="1.0"?>
<VTKFile type="UnstructuredGrid"  version="0.1"  >
<UnstructuredGrid>
<Piece  NumberOfPoints="1855" NumberOfCells="3532">
<Points>
<DataArray  type="Float64"  NumberOfComponents="3"  format="ascii">0 0 0  30 0 0  30 -10 0  0 -10 0  0.1391574078963744 0 0  0.2856388821882616 0 0  0.4398299073010886 0 0  0.6021362569539473 0 0  0.7729850389704483 0 0  0.9528258543586996 0 0  1.142131984380316 0 0  1.34140159760994 0 0  1.551159074717981 0 0  1.771956417032531 0 0  2.004374674080994 0 0  2.249025475789527 0 0  2.506552636773105 0 0  2.777633857742732 0 0  3.062982518028728 0 0  3.363349525995907 0 0  3.679525322337712 0 0  4.01234195575742 0 0  4.362675247811097 0 0  4.731447135329707 0 0  5.119628065610077 0 0  5.528239565804708 0 0  5.958356943167011 0 0  6.411112081475485 0 0  6.887696441559404 0 0  7.389364184530748 0 0  7.917435485335147 0 0  8.473300005202017 0 0  9.058420557070402 0 0  9.674336929103793 0 0  10.32266995225095 0 0  11.00512576896296 0 0  11.72350030646412 0 0  12.47968402994705 0 0  13.27566689579597 0 0  14.1135435963616 0 0  14.9955190732806 0 0  15.92391430904694 0 0  16.90117245730496 0 0  17.92986524844506 0 0  19.01269976086341 0 0  20.15252556282024 0 0  21.35234220269763 0 0  22.61530708683689 0 0  23.94474379751883 0 0  25.34415086349739 0 0  26.81721093579712 0 0  28.3678004819169 0 0  30 -1.111111111111111 0  30 -2.222222222222222 0  30 -3.333333333333333 0  30 -4.444444444444445 0  30 -5.555555555555555 0  30 -6.666666666666666 0  30 -7.777777777777777 0  30 -8.888888888888889 0  28.36780047917311 -10 0  26.8172109305839 -10 0  25.34415085606858 -10 0  23.94474378810899 -10 0  22.61530707566275 -10 0  21.3523421899591 -10 0  20.15252554870171 -10 0  19.01269974553473 -10 0  17.92986523206254 -10 0  16.90117244001232 -10 0  15.92391429097614 -10 0  14.99551905455266 -10 0  14.11354357708742 -10 0  13.27566687607703 -10 0  12.47968400987599 -10 0  11.72350028612546 -10 0  11.00512574843363 -10 0  10.32266993160086 -10 0  9.674336908396342 -10 0  9.058420536362949 -10 0  8.473299984546333 -10 0  7.917435464777824 -10 0  7.389364164113587 -10 0  6.887696420787165 -10 0  6.411112061446698 -10 0  5.95835692337857 -10 0  5.528239546282652 -10 0  5.119628046377237 -10 0  4.731447115907979 -10 0  4.362675229213632 -10 0  4.012341937260036 -10 0  3.679525304434552 -10 0  3.363349508456405 -10 0  3.062982500861274 -10 0  2.777633840953978 -10 0  2.506552620368097 -10 0  2.249025459771861 -10 0  2.004374658452946 -10 0  1.771956401795187 -10 0  1.551159059871345 -10 0  1.341401583153029 -10 0  1.142131970307521 -10 0  0.9528258406748833 -10 0  0.7729850256685147 -10 0  0.6021362439621285 -10 0  0.4398298947504031 -10 0  0.2856388700059078 -10 0  0.1391573960769001 -10 0  0 -9.855072463768115 0  0 -9.710144927536232 0  0 -9.565217391304348 0  0 -9.420289855072463 0  0 -9.27536231884058 0  0 -9.130434782608695 0  0 -8.985507246376812 0  0 -8.840579710144928 0  0 -8.695652173913043 0  0 -8.55072463768116 0  0 -8.405797101449275 0  0 -8.260869565217391 0  0 -8.115942028985508 0  0 -7.971014492753623 0  0 -7.826086956521739 0  0 -7.681159420289855 0  0 -7.536231884057971 0  0 -7.391304347826087 0  0 -7.246376811594203 0  0 -7.101449275362318 0  0 -6.956521739130435 0  0 -6.811594202898551 0  0 -6.666666666666667 0  0 -6.521739130434783 0  0 -6.376811594202898 0  0 -6.231884057971015 0  0 -6.086956521739131 0  0 -5.942028985507246 0  0 -5.797101449275362 0  0 -5.652173913043478 0  0 -5.507246376811594 0  0 -5.36231884057971 0  0 -5.217391304347826 0  0 -5.072463768115941 0  0 -4.927536231884058 0  0 -4.782608695652174 0  0 -4.637681159420289 0  0 -4.492753623188406 0  0 -4.347826086956522 0  0 -4.202898550724638 0  0 -4.057971014492754 0  0 -3.913043478260869 0  0 -3.768115942028985 0  0 -3.623188405797101 0  0 -3.478260869565217 0  0 -3.333333333333334 0  0 -3.188405797101449 0  0 -3.043478260869565 0  0 -2.898550724637681 0  0 -2.753623188405797 0  0 -2.608695652173912 0  0 -2.463768115942029 0  0 -2.318840579710145 0  0 -2.173913043478261 0  0 -2.028985507246377 0  0 -1.884057971014492 0  0 -1.739130434782609 0  0 -1.594202898550725 0  0 -1.44927536231884 0  0 -1.304347826086957 0  0 -1.159420289855072 0  0 -1.014492753623188 0  0 -0.8695652173913047 0  0 -0.72463768115942 0  0 -0.579710144927537 0  0 -0.4347826086956523 0  0 -0.2898550724637676 0  0 -0.1449275362318829 0  5.15859856094262 -4.976557621770688 0  2.816777084926057 -7.160262673925935 0  2.81677708460006 -2.839737326002783 0  2.227649803257325 -5.003121586636773 0  1.518662968975629 -8.46230852045241 0  1.518662969184829 -1.537691480152612 0  9.960740911025725 -5.055901393541221 0  1.491099662214591 -3.691833922963321 0  1.503675657181264 -6.345020369042368 0  5.319208041801049 -7.493850249937013 0  5.291109955459268 -2.489368743223226 0  1.096914507335763 -2.53623188405797 0  1.096914507253562 -7.463768115942029 0  1.089580194952752 -4.71277167923441 0  15.07565076110197 -5.047572991082069 0  7.501630508673601 -5.937500100385354 0  0.8894869418764504 -5.623930488933245 0  2.955144522453978 -1.440834296472408 0  2.955144521140721 -8.559165705576945 0  8.106603955004623 -2.748811534843258 0  3.662152539483591 -4.228178367024407 0  3.662181528265114 -5.771746159989156 0  0.8436558190317136 -0.8541050638451999 0  0.8436558075840921 -9.145894948342754 0  0.7854168197005933 -1.811594202898552 0  0.7894693398152999 -3.286543351392342 0  0.7854168196772591 -8.188405797101449 0  0.7854168196772591 -6.739130434782609 0  20.00078956016804 -4.999999999785771 0  0.7379120031523989 -3.977302749614766 0  6.584332478112232 -3.934875417052907 0  7.295091310194352 -7.969791332537982 0  9.811174303464586 -7.412814499648229 0  4.013376806449688 -2.206189431585293 0  4.013376806983409 -7.793810569017377 0  12.11177433894592 -2.818343737884045 0  2.591152707837148 -3.990098461753838 0  2.58990939378082 -6.025895074707176 0  25.43156400064585 -5.044446479916348 0  2.03262751726143 -2.282125834846944 0  2.032627517335952 -7.717874165160392 0  12.51865094522923 -6.491408052923457 0  0.598175343983641 -6.156971652625402 0  2.126700074935224 -0.8767654465386991 0  2.126700059112423 -9.123234559633019 0  6.617961838548696 -1.617756429129908 0  0.5903949564549755 -4.980060355019413 0  1.676697585305984 -5.547101897225158 0  4.773518305133987 -3.729331162566817 0  4.77931803486508 -6.231222307502165 0  4.878549698409591 -8.72048903376362 0  4.852580875634024 -1.222215410052823 0  0.5487847095754042 -2.675169258708207 0  0.545113423825768 -7.32369553390529 0  1.78738026998851 -4.400451872599477 0  1.68244194111824 -3.010100184333533 0  1.683984276238402 -7.018293626028473 0  9.998503440677371 -2.00585287985007 0  3.693061162502273 -3.243678395563028 0  3.694987482168253 -6.757603268814477 0  6.081763036485869 -5.83414381546261 0  0.5196640460586313 -1.350633211792632 0  0.5196640458460706 -8.649366789040087 0  3.84593363904758 -0.9906418103762418 0  3.845933620847308 -9.009358200471317 0  17.41551885287501 -3.057748733689079 0  17.30725517812527 -7.002961443761516 0  8.117698464370697 -4.451550942597151 0  0.4918476668493152 -0.4789811193757592 0  0.4918476560347713 -9.521018882514893 0  1.463770869328428 -0.6252343353791154 0  1.463770854281917 -9.374765668872765 0  0.5034132782032188 -4.464280853772128 0  3.138906271796685 -4.99999841599503 0  14.61209972381335 -2.388610981020637 0  6.208601124947327 -8.776231214192325 0  14.74910972998159 -7.542186851303819 0  2.243794246335625 -1.632184311040998 0  2.243794245689214 -8.367815689183566 0  0.4590235278399923 -5.431413993025926 0  0.4971508861448406 -2.209632053221267 0  0.4971508861368665 -7.790367946777407 0  0.4644363683211541 -3.560571347760519 0  6.478811279411406 -7.007392971062433 0  1.238895267772762 -4.173677632458826 0  1.293241773632479 -2.02256720952064 0  1.293241773542714 -7.977432790434841 0  0.4324740478030531 -0.942028985507247 0  0.4324740423701829 -9.057971014492754 0  2.117396640811705 -3.472968170680347 0  2.107095929630507 -6.531506384346077 0  8.087741545730886 -1.392783601483453 0  1.028911946384717 -1.352376108341404 0  1.028911946221715 -8.647623891551962 0  4.05691976296832 -4.991522392209158 0  11.51826881314265 -8.065248940008736 0  1.618560396201739 -4.958056164503666 0  2.701984523487646 -2.141781914603403 0  2.70198452396172 -7.858218085853512 0  2.843615645746219 -9.289121726447632 0  2.843615661334342 -0.7108782798429658 0  8.678774612240533 -8.488146490452822 0  6.487906449371135 -2.667543558824978 0  8.369190916679937 -7.129867754908394 0  11.80978191929258 -4.655775487536958 0  0.3792065166453504 -3.113833531412848 0  0.4134714637263563 -6.58827691137208 0  9.551050695080825 -3.49648183875815 0  1.083867845277057 -6.036251777836495 0  0.3756430921870901 -1.80381664325008 0  0.3756430921689482 -8.196183356748573 0  3.113073783220456 -3.503408140759125 0  3.113391383189963 -6.496678880796299 0  22.62850736315072 -3.277987336300344 0  22.59385352108348 -6.800312122582239 0  0.3777114402537816 -4.137047872695438 0  0.9196816123347897 -0.4281025456111269 0  0.9196815944880363 -9.571897460530383 0  0.4052043328723194 -5.827814332459883 0  8.865857694874787 -5.767686953139113 0  1.200388325130726 -5.182186034620629 0  5.65297436943758 -4.325500846767599 0  1.200079167961391 -3.009849046583253 0  1.20883344838 -7.021823297793294 0  1.057642414577487 -3.660996704809145 0  10.88812987788297 -6.333458225047037 0  4.493502926606794 -2.839780197438185 0  4.485862892033458 -7.147606077919463 0  0.3631651408878085 -7.003529808558233 0  1.946748828463205 -6.049056369468467 0  6.918750162798794 -4.993796052442676 0  3.351203216022585 -1.980935554775394 0  3.351203216441711 -8.019064445907297 0  2.281892243515294 -2.856654416292082 0  2.281892243715877 -7.143345583598931 0  5.811143619672087 -0.9953286820321026 0  2.695713766833098 -4.565354125099452 0  2.698172168139827 -5.435483248292925 0  19.86166219288896 -2.493475492328429 0  19.83739102036415 -7.594404063416508
[...]
<PointData  Vectors="displacement"> 
<DataArray  type="Float64"  Name="displacement"  NumberOfComponents="3" format="ascii">1.6799509745847735e-01 8.8292442408459362e-02 0.0000000000000000e+00  3.3727917687645860e-07 2.4584956783049218e-04 0.0000000000000000e+00  -4.9035212673735846e-07 -2.5163621387477462e-07 0.0000000000000000e+00  3.1747404927871764e-07 -3.0516549170364268e-07 0.0000000000000000e+00  9.6921599554421173e-02 2.3385735116220552e-02 0.0000000000000000e+00  5.9095613300042094e-02 7.5636375510023451e-03 0.0000000000000000e+00  4.0940863548737126e-02 3.1034192110666117e-03 0.0000000000000000e+00  2.9430286982579778e-02 1.5863144219300488e-03 0.0000000000000000e+00  2.3467050652733776e-02 4.7275798863587718e-04 0.0000000000000000e+00  1.8849601089001231e-02 -2.4133102729764326e-05 0.0000000000000000e+00  1.5836043096023777e-02 -3.2166473991851365e-04 0.0000000000000000e+00  1.3502971312672587e-02 -5.6303743986151511e-04 0.0000000000000000e+00  1.1567284888016482e-02 -6.6885205418164121e-04 0.0000000000000000e+00  1.0085521773613743e-02 -7.7775249923935129e-04 0.0000000000000000e+00  8.8017238490691527e-03 -8.1448275439591938e-04 0.0000000000000000e+00  7.8494638287212645e-03 -8.0981159553483934e-04 0.0000000000000000e+00  6.9456236127725304e-03 -8.4557651841305750e-04 0.0000000000000000e+00  6.2333123894269581e-03 -8.5870436853643169e-04 0.0000000000000000e+00  5.5474449634693957e-03 -8.4543237523579829e-04 0.0000000000000000e+00  4.9907933622662833e-03 -8.2452194672020293e-04 0.0000000000000000e+00  4.4888327610029463e-03 -7.9472478875586912e-04 0.0000000000000000e+00  4.0494484799068796e-03 -7.5979792008542255e-04 0.0000000000000000e+00  3.6651165183978819e-03 -7.2635260427604683e-04 0.0000000000000000e+00  3.3088308395928089e-03 -6.8763051184043359e-04 0.0000000000000000e+00  2.9811192270772224e-03 -6.3352125247002379e-04 0.0000000000000000e+00  2.6962807781891543e-03 -5.7298386694087239e-04 0.0000000000000000e+00  2.4521762063524138e-03 -5.1846278312444043e-04 0.0000000000000000e+00  2.2134784207840734e-03 -4.5290178575133001e-04 0.0000000000000000e+00  2.0093438856707184e-03 -3.8883300756287724e-04 0.0000000000000000e+00  1.8144461308747480e-03 -3.1843295120889220e-04 0.0000000000000000e+00  1.6420291963512035e-03 -2.4539897325002606e-04 0.0000000000000000e+00  1.4917628837614661e-03 -1.7079102465839498e-04 0.0000000000000000e+00  1.3654597189288310e-03 -1.0229324983008153e-04 0.0000000000000000e+00  1.2417884176559445e-03 -3.1352717749780895e-05 0.0000000000000000e+00  1.1355008739360824e-03 3.4912572651101601e-05 0.0000000000000000e+00  1.0424432079149781e-03 9.8217953223130269e-05 0.0000000000000000e+00  9.6477142079091590e-04 1.5309588638519485e-04 0.0000000000000000e+00  8.9136526096671924e-04 2.0290499215761226e-04 0.0000000000000000e+00  8.2909729184702788e-04 2.4292040055702587e-04 0.0000000000000000e+00  7.6668966793394641e-04 2.7740143624057246e-04 0.0000000000000000e+00  7.1500316949346719e-04 3.0065312132840800e-04 0.0000000000000000e+00  6.5998221117241141e-04 3.1779216196913896e-04 0.0000000000000000e+00  6.1026437412608256e-04 3.2556556012700965e-04 0.0000000000000000e+00  5.5692506999750193e-04 3.2769499127634916e-04 0.0000000000000000e+00  5.0715486002943764e-04 3.2292447510306988e-04 0.0000000000000000e+00  4.5055526107151998e-04 3.1418024445696065e-04 0.0000000000000000e+00  3.9444881099411132e-04 3.0276161557645702e-04 0.0000000000000000e+00  3.3455297535244329e-04 2.9001300011190700e-04 0.0000000000000000e+00  2.7734278013349511e-04 2.7631407249139694e-04 0.0000000000000000e+00  2.1191912503874802e-04 2.6254891385416496e-04 0.0000000000000000e+00  1.4218565020986259e-04 2.5235407217517002e-04 0.0000000000000000e+00  7.0803229342720887e-05 2.4676731548530021e-04 0.0000000000000000e+00  8.1294726537330946e-07 2.0567055528971628e-04 0.0000000000000000e+00  -2.1402374146633261e-07 1.6248886107337438e-04 0.0000000000000000e+00  -9.9451724777270084e-08 1.2269100755705171e-04 0.0000000000000000e+00  2.2195207404325078e-07 8.7338695356596667e-05 0.0000000000000000e+00  -2.8964722422371770e-07 5.6543946187094628e-05 0.0000000000000000e+00  2.3680089688104592e-07 3.1484051597127692e-05 0.0000000000000000e+00  -1.7857901725050492e-07 1.3047941454235368e-05 0.0000000000000000e+00  -1.7274197374874925e-08 2.0415325050151381e-06 0.0000000000000000e+00  -2.5526045722498549e-07 -1.1037724360942833e-06 0.0000000000000000e+00  -2.5891743313316042e-09 -1.2191872232193775e-06 0.0000000000000000e+00  9.7364450734563822e-07 -1.3539598276973268e-06 0.0000000000000000e+00  1.3783326630842465e-07 -4.2979183133793672e-07 0.0000000000000000e+00  2.1857611998250554e-07 -6.9266922651865312e-07 0.0000000000000000e+00  1.1188114613807292e-06 -9.7452739613776060e-07 0.0000000000000000e+00  3.7202382696610262e-07 -1.3179869633858828e-06 0.0000000000000000e+00  1.8223554748526288e-06 -1.2331540837276893e-06 0.0000000000000000e+00  5.7225721878530916e-07 -7.7848670198251341e-07 0.0000000000000000e+00  1.7866452846949943e-06 -8.9402202556804274e-07 0.0000000000000000e+00  9.4328963499515076e-07 -3.5637887210815303e-07 0.0000000000000000e+00  1.3476193832833718e-06 -4.5159890363187529e-07 0.0000000000000000e+00  1.3813407750804616e-06 9.4202671351172181e-08 0.0000000000000000e+00  1.6088019880545957e-06 9.9191142758362326e-08 0.0000000000000000e+00  4.7058866978026682e-07 2.1583717036797232e-07 0.0000000000000000e+00  9.9662117044356198e-07 7.4311474464713078e-07 0.0000000000000000e+00  -4.4238037518859519e-08 2.1913563664161360e-07 0.0000000000000000e+00  1.4647993127221930e-06 1.9498595743336224e-06 0.0000000000000000e+00  4.6827592557137015e-07 1.3652620343635629e-06 0.0000000000000000e+00  1.0332729315929128e-06 1.2649666774448749e-06 0.0000000000000000e+00  -9.0760559155197766e-07 1.2340025062112330e-06 0.0000000000000000e+00  1.6573274526177648e-07 1.8829064538007627e-06 0.0000000000000000e+00  -1.2244288247294669e-06 2.5702490895863442e-06 0.0000000000000000e+00  -1.4523806943619079e-06 1.5753119441427933e-06 0.0000000000000000e+00  -1.4194990170136790e-06 7.6681824303773162e-07 0.0000000000000000e+00  -3.9977419303450500e-06 1.9540451774965563e-06 0.0000000000000000e+00  -1.5655014453644829e-06 8.9812674776174590e-07 0.0000000000000000e+00  -2.7702717070308040e-06 1.0641869598709436e-06 0.0000000000000000e+00  -1.7335645208556677e-06 6.5578961995456343e-07 0.0000000000000000e+00  -4.1565519591346995e-06 1.0346988254667832e-06 0.0000000000000000e+00  -4.0017330513072936e-07 -3.8626771890992345e-08 0.0000000000000000e+00  -1.7054646187915660e-06 6.6681409564630377e-08 0.0000000000000000e+00  -1.4171553367074141e-06 2.6990563398300438e-08 0.0000000000000000e+00  -1.0282575167144069e-06 -8.7774252858042566e-08 0.0000000000000000e+00  -2.3273991724260520e-06 -4.7101160918626926e-07 0.0000000000000000e+00  -5.5559949856255249e-07 -1.8915268392279532e-07 0.0000000000000000e+00  -1.9086588376591370e-06 -6.5330595632508231e-07 0.0000000000000000e+00  -2.7027849537491918e-07 -1.5876926524287332e-07 0.0000000000000000e+00  -3.3499675621143108e-07 -5.1381111240078447e-07 0.0000000000000000e+00  -8.3287801325555648e-07 -4.5235912650877808e-07 0.0000000000000000e+00  -4.5430082266571930e-07 -4.8245623049919133e-07 0.0000000000000000e+00  -1.1401351685980885e-07 -1.7167713820827146e-07 0.0000000000000000e+00  -2.6742937084897551e-07 -2.5597527396349680e-07 0.0000000000000000e+00  -2.4513091041406774e-08 -3.2597791447764899e-07 0.0000000000000000e+00  8.1107849182719715e-10 -1.7430180339709661e-07 0.0000000000000000e+00  -3.8489259011983692e-07 -3.0563629636947147e-07 0.0000000000000000e+00  9.0794934997461418e-08 -3.0540091966313296e-07 0.0000000000000000e+00  -9.2658082000403679e-08 -1.0138363741871802e-07 0.0000000000000000e+00  -7.6944359204431543e-08 8.8355796546481799e-06 0.0000000000000000e+00  1.1371762545245921e-07 2.2425217635254144e-05 0.0000000000000000e+00  -1.4179536386438127e-07 3.9876738159200399e-05 0.0000000000000000e+00  1.3101713412320117e-08 6.1263067781208570e-05 0.0000000000000000e+00  -6.6448105734321976e-08 8.5817102548632572e-05 0.0000000000000000e+00  -5.2892580967299841e-08 1.1381309791683422e-04 0.0000000000000000e+00  1.2023697914898769e-07 1.4464948589867631e-04 0.0000000000000000e+00  -1.1178695933235724e-07 1.7833261950893630e-04 0.0000000000000000e+00  1.0201183185121623e-07 2.1471352254272741e-04 0.0000000000000000e+00  -1.3511329780570424e-07 2.5357665583172615e-04 0.0000000000000000e+00  8.3067667859647792e-08 2.9482218461186830e-04 0.0000000000000000e+00  -5.3434403361491785e-08 3.3842539675996825e-04 0.0000000000000000e+00  6.0081423444287462e-08 3.8429003905720882e-04 0.0000000000000000e+00  -1.1118014795926623e-07 4.3230746845970803e-04 0.0000000000000000e+00  6.8388635429094189e-08 4.8253450150374875e-04 0.0000000000000000e+00  -8.2169350015445962e-08 5.3488267177816140e-04 0.0000000000000000e+00  -5.2929086167705130e-08 5.8948981761117528e-04 0.0000000000000000e+00  2.6306116763197932e-08 6.4604842627687814e-04 0.0000000000000000e+00  6.2952178753949787e-08 7.0500851654417736e-04 0.0000000000000000e+00  -3.0289883585740192e-08 7.6608729432789120e-04 0.0000000000000000e+00  4.5020736889611088e-08 8.2948668016299748e-04 0.0000000000000000e+00  -1.1853877695550402e-07 8.9518321694790563e-04 0.0000000000000000e+00  3.2920207853051748e-08 9.6357052614187873e-04 0.0000000000000000e+00  1.4144383548262499e-08 1.0339804689884554e-03 0.0000000000000000e+00  -1.9137767441086671e-08 1.1077569176705692e-03 0.0000000000000000e+00  -1.4260479503186972e-07 1.1843303258770403e-03 0.0000000000000000e+00  -6.9279168649091600e-08 1.2635819620370073e-03 0.0000000000000000e+00  -7.0850878249125411e-08 1.3456775570514822e-03 0.0000000000000000e+00  9.8331305009978634e-08 1.4315337709333016e-03 0.0000000000000000e+00  -1.7937889746103818e-07 1.5210614613993790e-03 0.0000000000000000e+00  6.0109657262146043e-08 1.6145866783234132e-03 0.0000000000000000e+00  -1.9821939872369542e-07 1.7121887646885682e-03 0.0000000000000000e+00  7.2961052639560172e-08 1.8145616293791429e-03 0.0000000000000000e+00  -1.5461748003239603e-07 1.9213662955385523e-03 0.0000000000000000e+00  -8.0505534301759997e-08 2.0330170867765129e-03 0.0000000000000000e+00  -1.0476591848082202e-07 2.1525594516604253e-03 0.0000000000000000e+00  -1.9320372694877861e-08 2.2753314684006163e-03 0.0000000000000000e+00  2.3677299546779137e-07 2.4084457143246649e-03 0.0000000000000000e+00  -5.8967245885192814e-07 2.5472048703522746e-03 0.0000000000000000e+00  3.1385850232757834e-07 2.6934738743633192e-03 0.0000000000000000e+00  -3.3793505382583533e-07 2.8499953209241030e-03 0.0000000000000000e+00  2.2783788972268107e-07 3.0172449044929563e-03 0.0000000000000000e+00  -3.4350897247325728e-07 3.1955615975159221e-03 0.0000000000000000e+00  -2.3365189640415346e-07 3.3852970789901801e-03 0.0000000000000000e+00  -8.4184699432172425e-08 3.5927857331617399e-03 0.0000000000000000e+00  8.5537463043207106e-07 3.8130183982425588e-03 0.0000000000000000e+00  -5.8742959061881343e-07 4.0524752592793140e-03 0.0000000000000000e+00  1.3377421639792829e-08 4.3135978666508307e-03 0.0000000000000000e+00  2.5107339850753449e-07 4.5996581631732964e-03 0.0000000000000000e+00  -2.4263018686372440e-07 4.9086063011641425e-03 0.0000000000000000e+00  -2.8062906303781185e-07 5.2452657935866320e-03 0.0000000000000000e+00  -1.4851372214611690e-06 5.6320564657317959e-03 0.0000000000000000e+00  1.4540638334883280e-06 6.0522694370271652e-03 0.0000000000000000e+00  -2.1422389917807481e-06 6.5225198142559049e-03 0.0000000000000000e+00  2.7676756580075697e-06 7.0603650068985363e-03 0.0000000000000000e+00  -3.7889555820682235e-06 7.6680436838182401e-03 0.0000000000000000e+00  1.0010028649855631e-06 8.3722843796897387e-03 0.0000000000000000e+00  -6.5311751534771567e-06 9.1870635697080330e-03 0.0000000000000000e+00  2.2768932857641574e-06 1.0182062087540850e-02 0.0000000000000000e+00  -1.8083546390200767e-05 1.1322352798895324e-02 0.0000000000000000e+00  4.4713618474234202e-06 1.2743109559507453e-02 0.0000000000000000e+00  -2.6264785569866056e-05 1.4446479738693419e-02 0.0000000000000000e+00  -1.1127858648477353e-05 1.6742752275125682e-02 0.0000000000000000e+00  -4.1977132666849357e-05 1.9981182768182771e-02 0.0000000000000000e+00  -1.6800720480040259e-04 2.3865695665808435e-02 0.0000000000000000e+00  6.5937947614609432e-04 3.0680807128282431e-02 0.0000000000000000e+00  -5.0491609219851146e-03 4.2127842693445210e-02 0.0000000000000000e+00  2.5806474834493678e-02 5.7911410513495604e-02 0.0000000000000000e+00  -1.3677076552971656e-04 -8.0773708414167409e-04 0.0000000000000000e+00  -7.1510660424382042e-04 1.9640200170746762e-04 0.0000000000000000e+00  -5.0308685211407241e-05 -9.8260297175087135e-04 0.0000000000000000e+00  -9.3696015407312126e-04 6.3740198574303495e-04 0.0000000000000000e+00  -3.4168049975250226e-04 2.1267009267923455e-04 0.0000000000000000e+00  2.7149837458330546e-04 -7.7290805271155658e-04 0.0000000000000000e+00  5.9560937981353499e-04 -3.5593336680002992e-04 0.0000000000000000e+00  -1.1425916053746071e-03 1.6259812730148805e-03 0.0000000000000000e+00  -6.1788661615469150e-04 8.0173015137852707e-04 0.0000000000000000e+00  -4.7080600350706518e-04 -2.2461524020430599e-04 0.0000000000000000e+00  1.4803582915067545e-03 -1.4653445754567510e-03 0.0000000000000000e+00  -1.5137001558549936e-03 2.7276915508892699e-03 0.0000000000000000e+00  -3.6459308418883908e-04 5.3165001397085534e-04 0.0000000000000000e+00  -7.4309338462967610e-04 1.7230741510729944e-03 0.0000000000000000e+00  5.5032153367131449e-04 4.6239105014878096e-05 0.0000000000000000e+00  1.3707100698630783e-04 -5.4050156878007532e-04 0.0000000000000000e+00  -4.8639637711670510e-04 1.3510899751236942e-03 0.0000000000000000e+00  2.8905901902988008e-03 -2.2816940771464692e-03 0.0000000000000000e+00  -4.8423453498271319e-04 7.0732962628636416e-05 0.0000000000000000e+00  1.2098418405688996e-03 -7.2522611006110719e-04 0.0000000000000000e+00  -4.2122873750809496e-04 -6.6658464903446323e-04 0.0000000000000000e+00  -7.3412788060383725e-04 -1.7577518769581359e-04 0.0000000000000000e+00  1.0124399224902640e-03 -2.0912572485571332e-04 0.0000000000000000e+00  -1.3108727075823544e-04 1.0263574862572913e-04 0.0000000000000000e+00  -1.9657931938207359e-03 4.3025555137080253e-03 0.0000000000000000e+00  -9.9749594692681966e-04 3.1097509708243195e-03 0.0000000000000000e+00  -2.1302710769786898e-04 3.3626118936675055e-04 0.0000000000000000e+00  -3.2565752450676867e-04 8.5495395000911509e-04 0.0000000000000000e+00  3.4638399927588737e-04 1.0259172145601808e-04 0.0000000000000000e+00  -7.1095911196157374e-04 2.5477349567852958e-03 0.0000000000000000e+00  6.7382519454817170e-04 -1.0091230147405905e-03 0.0000000000000000e+00  -1.4769001625960303e-04 -1.8867845589274330e-04 0.0000000000000000e+00  2.0219765213032759e-04 -1.7155543275819971e-04 0.0000000000000000e+00  1.6384969455821242e-03 -1.8096221673443065e-03 0.0000000000000000e+00  -6.1142324449985921e-04 -4.8070983116056681e-05 0.0000000000000000e+00  8.8073145520237682e-04 -5.5813873003538189e-05 0.0000000000000000e+00  -8.6014869776562678e-04 9.0563485746420294e-05 0.0000000000000000e+00  -8.3329344327248461e-04 3.5560353024679625e-04 0.0000000000000000e+00  1.4238234437769057e-04 7.8514392729373410e-05 0.0000000000000000e+00  -3.1518569361822731e-04 -5.1512797010257053e-04 0.0000000000000000e+00  -5.4730393693889817e-04 3.0248948359261915e-04 0.0000000000000000e+00  4.4646436474463406e-04 -7.8370356176333094e-05 0.0000000000000000e+00  -2.9321979324423240e-04 1.1619457810649312e-03 0.0000000000000000e+00  5.0717968001756826e-03 -2.8117444434438013e-03 0.0000000000000000e+00  -2.8876627416340707e-04 6.8172062652400422e-05 0.0000000000000000e+00  1.8585668890343304e-03 -9.7250277228030880e-04 0.0000000000000000e+00  -4.0827989687845448e-04 1.8652557205640786e-03 0.0000000000000000e+00  -7.8704459971602899e-04 9.6284155482263725e-04 0.0000000000000000e+00  3.5763167998311026e-04 -1.2105249893476259e-03 0.0000000000000000e+00  -5.2495568211858277e-04 -3.9975366547823776e-04 0.0000000000000000e+00  -3.9125093047521239e-04 -5.1732937469588359e-05 0.0000000000000000e+00  2.7077975956206800e-03 -1.4349221293094580e-03 0.0000000000000000e+00  -1.0534414837537821e-03 4.3762339768616378e-03 0.0000000000000000e+00  -1.9706961414970258e-04 6.4894425418127806e-04 0.0000000000000000e+00  -1.0141574577741304e-03 1.1185596141306132e-03 0.0000000000000000e+00  -1.2022201233325067e-03 1.1303947937574233e-03 0.0000000000000000e+00  -5.7541597624702421e-04 5.4266366185968487e-04 0.0000000000000000e+00  1.1586776971494646e-03 -2.7116579812899944e-04 0.0000000000000000e+00  2.2582587069091279e-04 -1.2304488644704768e-03 0.0000000000000000e+00  -7.2748729192784883e-04 -5.5607471376083841e-05 0.0000000000000000e+00  -1.3503947387790810e-04 -6.2067545457028018e-04 0.0000000000000000e+00  -2.4576244958329214e-03 6.9040884233279075e-03 0.0000000000000000e+00  -1.1636093642658785e-04 2.2012399115616278e-04 0.0000000000000000e+00  3.5400931436726903e-03 -1.7477612067734853e-03 0.0000000000000000e+00  -3.7562225531105489e-04 2.9975823888768057e-06 0.0000000000000000e+00  5.4357964922759018e-04 1.7935255873090863e-04 0.0000000000000000e+00  3.1982531033050921e-04 3.1821247681233168e-05 0.0000000000000000e+00  6.3861857047664669e-04 -6.8037066797669427e-04 0.0000000000000000e+00  3.5675848704168891e-03 1.5874163558433281e-04 0.0000000000000000e+00  -4.8051403114631652e-05 4.4948025470524904e-05 0.0000000000000000e+00  7.2946982018246408e-03 -3.4182264453888490e-03 0.0000000000000000e+00  -1.6652135128359592e-04 5.4738902386594190e-05 0.0000000000000000e+00  -4.2127222924867542e-04 2.3021037303054249e-03 0.0000000000000000e+00  -8.0083119018229071e-04 -6.4905806549097667e-05 0.0000000000000000e+00  7.2926083635503841e-04 1.4745926403568821e-04 0.0000000000000000e+00  -2.4911831487658162e-04 -7.7942238638919640e-05 0.0000000000000000e+00  3.2207945965027332e-04 -3.3207966768145774e-06 0.0000000000000000e+00  1.6642669134728217e-03 -2.0024750177790028e-03 0.0000000000000000e+00  -4.6769218704018046e-04 1.6109199417142084e-04 0.0000000000000000e+00  -2.7952551080908636e-04 1.6067114342816656e-03 0.0000000000000000e+00  -1.3135114091790570e-03 5.3966765092798141e-03 0.0000000000000000e+00  -1.5737129303602097e-04 4.8096902541320901e-04 0.0000000000000000e+00  -5.7276368155698631e-04 3.2482885134109134e-03 0.0000000000000000e+00  -2.3517507837139966e-04 -3.6430443551150449e-04 0.0000000000000000e+00  -9.4642552454486748e-04 1.8454175492362780e-03 0.0000000000000000e+00  -1.3353843803351906e-03 1.5013774817526828e-03 0.0000000000000000e+00  -3.6047193465492660e-04 3.5174995292832153e-04 0.0000000000000000e+00  -3.0572474502162249e-03 8.4059261606181761e-03 0.0000000000000000e+00  -7.4244645961954393e-05 1.2620280929724392e-04 0.0000000000000000e+00  -1.0063518806719119e-03 5.0153417767715954e-04 0.0000000000000000e+00  -7.2655537449793346e-04 5.1459334853687724e-04 0.0000000000000000e+00  1.5608729947530773e-03 -5.4810710829602453e-04 0.0000000000000000e+00  -1.0208806248406352e-03 1.3067563838120957e-03 0.0000000000000000e+00  -2.2314365908679274e-04 2.0175900082277366e-04 0.0000000000000000e+00  -5.1187894484761281e-04 -5.4218804551367170e-04 0.0000000000000000e+00  2.3085690049387805e-04 -6.1454571441499546e-05 0.0000000000000000e+00  -8.7830851187997391e-04 1.1721647341104700e-03 0.0000000000000000e+00  9.1144185243825576e-04 -1.6432256074563020e-03 0.0000000000000000e+00  -6.0432381835356106e-04 1.6109173256534503e-04 0.0000000000000000e+00  -2.8138704348223265e-04 3.0547728416805657e-05 0.0000000000000000e+00  5.0323480699668013e-03 -2.0849834716000510e-03 0.0000000000000000e+00  6.9458309229193041e-06 -9.7185000856753767e-05 0.0000000000000000e+00  1.3477075059856792e-03 -1.1358490216210862e-03 0.0000000000000000e+00  7.4003551075846539e-05 -2.8332904155714214e-04 0.0000000000000000e+00  6.8159276868444158e-04 -1.49910144