<?xml version="1.0"?>
<VTKFile type="UnstructuredGrid"  version="0.1"  >
<UnstructuredGrid>
<Piece  NumberOfPoints="1855" NumberOfCells="3532">
<Points>
<DataArray  type="Float64"  NumberOfComponents="3"  format="ascii">0 0 0  30 0 0  30 -10 0  0 -10 0  0.1391574078963744 0 0  0.2856388821882616 0 0  0.4398299073010886 0 0  0.6021362569539473 0 0  0.7729850389704483 0 0  0.9528258543586996 0 0  1.142131984380316 0 0  1.34140159760994 0 0  1.551159074717981 0 0  1.771956417032531 0 0  2.004374674080994 0 0  2.249025475789527 0 0  2.506552636773105 0 0  2.777633857742732 0 0  3.062982518028728 0 0  3.363349525995907 0 0  3.679525322337712 0 0  4.01234195575742 0 0  4.362675247811097 0 0  4.731447135329707 0 0  5.119628065610077 0 0  5.528239565804708 0 0  5.958356943167011 0 0  6.411112081475485 0 0  6.887696441559404 0 0  7.389364184530748 0 0  7.917435485335147 0 0  8.473300005202017 0 0  9.058420557070402 0 0  9.674336929103793 0 0  10.32266995225095 0 0  11.00512576896296 0 0  11.72350030646412 0 0  12.47968402994705 0 0  13.27566689579597 0 0  14.1135435963616 0 0  14.9955190732806 0 0  15.92391430904694 0 0  16.90117245730496 0 0  17.92986524844506 0 0  19.01269976086341 0 0  20.15252556282024 0 0  21.35234220269763 0 0  22.61530708683689 0 0  23.94474379751883 0 0  25.34415086349739 0 0  26.81721093579712 0 0  28.3678004819169 0 0  30 -1.111111111111111 0  30 -2.222222222222222 0  30 -3.333333333333333 0  30 -4.444444444444445 0  30 -5.555555555555555 0  30 -6.666666666666666 0  30 -7.777777777777777 0  30 -8.888888888888889 0  28.36780047917311 -10 0  26.8172109305839 -10 0  25.34415085606858 -10 0  23.94474378810899 -10 0  22.61530707566275 -10 0  21.3523421899591 -10 0  20.15252554870171 -10 0  19.01269974553473 -10 0  17.92986523206254 -10 0  16.90117244001232 -10 0  15.92391429097614 -10 0  14.99551905455266 -10 0  14.11354357708742 -10 0  13.27566687607703 -10 0  12.47968400987599 -10 0  11.72350028612546 -10 0  11.00512574843363 -10 0  10.32266993160086 -10 0  9.674336908396342 -10 0  9.058420536362949 -10 0  8.473299984546333 -10 0  7.917435464777824 -10 0  7.389364164113587 -10 0  6.887696420787165 -10 0  6.411112061446698 -10 0  5.95835692337857 -10 0  5.528239546282652 -10 0  5.119628046377237 -10 0  4.731447115907979 -10 0  4.362675229213632 -10 0  4.012341937260036 -10 0  3.679525304434552 -10 0  3.363349508456405 -10 0  3.062982500861274 -10 0  2.777633840953978 -10 0  2.506552620368097 -10 0  2.249025459771861 -10 0  2.004374658452946 -10 0  1.771956401795187 -10 0  1.551159059871345 -10 0  1.341401583153029 -10 0  1.142131970307521 -10 0  0.9528258406748833 -10 0  0.7729850256685147 -10 0  0.6021362439621285 -10 0  0.4398298947504031 -10 0  0.2856388700059078 -10 0  0.1391573960769001 -10 0  0 -9.855072463768115 0  0 -9.710144927536232 0  0 -9.565217391304348 0  0 -9.420289855072463 0  0 -9.27536231884058 0  0 -9.130434782608695 0  0 -8.985507246376812 0  0 -8.840579710144928 0  0 -8.695652173913043 0  0 -8.55072463768116 0  0 -8.405797101449275 0  0 -8.260869565217391 0  0 -8.115942028985508 0  0 -7.971014492753623 0  0 -7.826086956521739 0  0 -7.681159420289855 0  0 -7.536231884057971 0  0 -7.391304347826087 0  0 -7.246376811594203 0  0 -7.101449275362318 0  0 -6.956521739130435 0  0 -6.811594202898551 0  0 -6.666666666666667 0  0 -6.521739130434783 0  0 -6.376811594202898 0  0 -6.231884057971015 0  0 -6.086956521739131 0  0 -5.942028985507246 0  0 -5.797101449275362 0  0 -5.652173913043478 0  0 -5.507246376811594 0  0 -5.36231884057971 0  0 -5.217391304347826 0  0 -5.072463768115941 0  0 -4.927536231884058 0  0 -4.782608695652174 0  0 -4.637681159420289 0  0 -4.492753623188406 0  0 -4.347826086956522 0  0 -4.202898550724638 0  0 -4.057971014492754 0  0 -3.913043478260869 0  0 -3.768115942028985 0  0 -3.623188405797101 0  0 -3.478260869565217 0  0 -3.333333333333334 0  0 -3.188405797101449 0  0 -3.043478260869565 0  0 -2.898550724637681 0  0 -2.753623188405797 0  0 -2.608695652173912 0  0 -2.463768115942029 0  0 -2.318840579710145 0  0 -2.173913043478261 0  0 -2.028985507246377 0  0 -1.884057971014492 0  0 -1.739130434782609 0  0 -1.594202898550725 0  0 -1.44927536231884 0  0 -1.304347826086957 0  0 -1.159420289855072 0  0 -1.014492753623188 0  0 -0.8695652173913047 0  0 -0.72463768115942 0  0 -0.579710144927537 0  0 -0.4347826086956523 0  0 -0.2898550724637676 0  0 -0.1449275362318829 0  5.15859856094262 -4.976557621770688 0  2.816777084926057 -7.160262673925935 0  2.81677708460006 -2.839737326002783 0  2.227649803257325 -5.003121586636773 0  1.518662968975629 -8.46230852045241 0  1.518662969184829 -1.537691480152612 0  9.960740911025725 -5.055901393541221 0  1.491099662214591 -3.691833922963321 0  1.503675657181264 -6.345020369042368 0  5.319208041801049 -7.493850249937013 0  5.291109955459268 -2.489368743223226 0  1.096914507335763 -2.53623188405797 0  1.096914507253562 -7.463768115942029 0  1.089580194952752 -4.71277167923441 0  15.07565076110197 -5.047572991082069 0  7.501630508673601 -5.937500100385354 0  0.8894869418764504 -5.623930488933245 0  2.955144522453978 -1.440834296472408 0  2.955144521140721 -8.559165705576945 0  8.106603955004623 -2.748811534843258 0  3.662152539483591 -4.228178367024407 0  3.662181528265114 -5.771746159989156 0  0.8436558190317136 -0.8541050638451999 0  0.8436558075840921 -9.145894948342754 0  0.7854168197005933 -1.811594202898552 0  0.7894693398152999 -3.286543351392342 0  0.7854168196772591 -8.188405797101449 0  0.7854168196772591 -6.739130434782609 0  20.00078956016804 -4.999999999785771 0  0.7379120031523989 -3.977302749614766 0  6.584332478112232 -3.934875417052907 0  7.295091310194352 -7.969791332537982 0  9.811174303464586 -7.412814499648229 0  4.013376806449688 -2.206189431585293 0  4.013376806983409 -7.793810569017377 0  12.11177433894592 -2.818343737884045 0  2.591152707837148 -3.990098461753838 0  2.58990939378082 -6.025895074707176 0  25.43156400064585 -5.044446479916348 0  2.03262751726143 -2.282125834846944 0  2.032627517335952 -7.717874165160392 0  12.51865094522923 -6.491408052923457 0  0.598175343983641 -6.156971652625402 0  2.126700074935224 -0.8767654465386991 0  2.126700059112423 -9.123234559633019 0  6.617961838548696 -1.617756429129908 0  0.5903949564549755 -4.980060355019413 0  1.676697585305984 -5.547101897225158 0  4.773518305133987 -3.729331162566817 0  4.77931803486508 -6.231222307502165 0  4.878549698409591 -8.72048903376362 0  4.852580875634024 -1.222215410052823 0  0.5487847095754042 -2.675169258708207 0  0.545113423825768 -7.32369553390529 0  1.78738026998851 -4.400451872599477 0  1.68244194111824 -3.010100184333533 0  1.683984276238402 -7.018293626028473 0  9.998503440677371 -2.00585287985007 0  3.693061162502273 -3.243678395563028 0  3.694987482168253 -6.757603268814477 0  6.081763036485869 -5.83414381546261 0  0.5196640460586313 -1.350633211792632 0  0.5196640458460706 -8.649366789040087 0  3.84593363904758 -0.9906418103762418 0  3.845933620847308 -9.009358200471317 0  17.41551885287501 -3.057748733689079 0  17.30725517812527 -7.002961443761516 0  8.117698464370697 -4.451550942597151 0  0.4918476668493152 -0.4789811193757592 0  0.4918476560347713 -9.521018882514893 0  1.463770869328428 -0.6252343353791154 0  1.463770854281917 -9.374765668872765 0  0.5034132782032188 -4.464280853772128 0  3.138906271796685 -4.99999841599503 0  14.61209972381335 -2.388610981020637 0  6.208601124947327 -8.776231214192325 0  14.74910972998159 -7.542186851303819 0  2.243794246335625 -1.632184311040998 0  2.243794245689214 -8.367815689183566 0  0.4590235278399923 -5.431413993025926 0  0.4971508861448406 -2.209632053221267 0  0.4971508861368665 -7.790367946777407 0  0.4644363683211541 -3.560571347760519 0  6.478811279411406 -7.007392971062433 0  1.238895267772762 -4.173677632458826 0  1.293241773632479 -2.02256720952064 0  1.293241773542714 -7.977432790434841 0  0.4324740478030531 -0.942028985507247 0  0.4324740423701829 -9.057971014492754 0  2.117396640811705 -3.472968170680347 0  2.107095929630507 -6.531506384346077 0  8.087741545730886 -1.392783601483453 0  1.028911946384717 -1.352376108341404 0  1.028911946221715 -8.647623891551962 0  4.05691976296832 -4.991522392209158 0  11.51826881314265 -8.065248940008736 0  1.618560396201739 -4.958056164503666 0  2.701984523487646 -2.141781914603403 0  2.70198452396172 -7.858218085853512 0  2.843615645746219 -9.289121726447632 0  2.843615661334342 -0.7108782798429658 0  8.678774612240533 -8.488146490452822 0  6.487906449371135 -2.667543558824978 0  8.369190916679937 -7.129867754908394 0  11.80978191929258 -4.655775487536958 0  0.3792065166453504 -3.113833531412848 0  0.4134714637263563 -6.58827691137208 0  9.551050695080825 -3.49648183875815 0  1.083867845277057 -6.036251777836495 0  0.3756430921870901 -1.80381664325008 0  0.3756430921689482 -8.196183356748573 0  3.113073783220456 -3.503408140759125 0  3.113391383189963 -6.496678880796299 0  22.62850736315072 -3.277987336300344 0  22.59385352108348 -6.800312122582239 0  0.3777114402537816 -4.137047872695438 0  0.9196816123347897 -0.4281025456111269 0  0.9196815944880363 -9.571897460530383 0  0.4052043328723194 -5.827814332459883 0  8.865857694874787 -5.767686953139113 0  1.200388325130726 -5.182186034620629 0  5.65297436943758 -4.325500846767599 0  1.200079167961391 -3.009849046583253 0  1.20883344838 -7.021823297793294 0  1.057642414577487 -3.660996704809145 0  10.88812987788297 -6.333458225047037 0  4.493502926606794 -2.839780197438185 0  4.485862892033458 -7.147606077919463 0  0.3631651408878085 -7.003529808558233 0  1.946748828463205 -6.049056369468467 0  6.918750162798794 -4.993796052442676 0  3.351203216022585 -1.980935554775394 0  3.351203216441711 -8.019064445907297 0  2.281892243515294 -2.856654416292082 0  2.281892243715877 -7.143345583598931 0  5.811143619672087 -0.9953286820321026 0  2.695713766833098 -4.565354125099452 0  2.698172168139827 -5.435483248292925 0  19.86166219288896 -2.493475492328429 0  19.83739102036415 -7.594404063416508
[...]
<PointData  Vectors="displacement"> 
<DataArray  type="Float64"  Name="displacement"  NumberOfComponents="3" format="ascii">1.5548817140287505e-01 8.0105021344067134e-02 0.0000000000000000e+00  2.9399187323102164e-07 2.1424522829343234e-04 0.0000000000000000e+00  -4.2729348523681257e-07 -2.1927295893974297e-07 0.0000000000000000e+00  2.7716810725355751e-07 -2.6642225709423841e-07 0.0000000000000000e+00  8.6990894108649852e-02 1.9165879469876832e-02 0.0000000000000000e+00  5.1938079131576671e-02 6.2125400093692518e-03 0.0000000000000000e+00  3.5888924107518635e-02 2.4622442505473799e-03 0.0000000000000000e+00  2.5689271806310476e-02 1.2606441786815930e-03 0.0000000000000000e+00  2.0481394881566212e-02 3.3430520156177283e-04 0.0000000000000000e+00  1.6439607050388143e-02 -7.6057860711639487e-05 0.0000000000000000e+00  1.3807698334990732e-02 -3.1872584075940107e-04 0.0000000000000000e+00  1.1771322574385084e-02 -5.1884945566486092e-04 0.0000000000000000e+00  1.0082547119487442e-02 -6.0428656872895260e-04 0.0000000000000000e+00  8.7903464854555882e-03 -6.9445650667471247e-04 0.0000000000000000e+00  7.6707168889569473e-03 -7.2301754962620095e-04 0.0000000000000000e+00  6.8405014327190747e-03 -7.1628831891526457e-04 0.0000000000000000e+00  6.0526078048628498e-03 -7.4560944136867278e-04 0.0000000000000000e+00  5.4317328666725851e-03 -7.5553114095400014e-04 0.0000000000000000e+00  4.8338954554459313e-03 -7.4279803382826107e-04 0.0000000000000000e+00  4.3487267811025965e-03 -7.2363345322405117e-04 0.0000000000000000e+00  3.9112349966848982e-03 -6.9689674286278400e-04 0.0000000000000000e+00  3.5282999505441052e-03 -6.6583576586084353e-04 0.0000000000000000e+00  3.1933544889289852e-03 -6.3616219635376605e-04 0.0000000000000000e+00  2.8828667746952953e-03 -6.0197641947241324e-04 0.0000000000000000e+00  2.5972746527569289e-03 -5.5444794082144203e-04 0.0000000000000000e+00  2.3490521304350199e-03 -5.0136591763139788e-04 0.0000000000000000e+00  2.1363377852719298e-03 -4.5356961135844680e-04 0.0000000000000000e+00  1.9283349176718065e-03 -3.9618433094565711e-04 0.0000000000000000e+00  1.7504602679564126e-03 -3.4012952693014990e-04 0.0000000000000000e+00  1.5806408665645778e-03 -2.7857935386831030e-04 0.0000000000000000e+00  1.4304161560237487e-03 -2.1476052789741920e-04 0.0000000000000000e+00  1.2994965377904955e-03 -1.4958509655422800e-04 0.0000000000000000e+00  1.1894633836622252e-03 -8.9751163395511167e-05 0.0000000000000000e+00  1.0817299345485386e-03 -2.7803800785941244e-05 0.0000000000000000e+00  9.8914786989129388e-04 3.0049929736278495e-05 0.0000000000000000e+00  9.0809485503564962e-04 8.5311796954891671e-05 0.0000000000000000e+00  8.4045093735137595e-04 1.3321568543157652e-04 0.0000000000000000e+00  7.7652434839382714e-04 1.7668757148642860e-04 0.0000000000000000e+00  7.2230186866429626e-04 2.1161343544936592e-04 0.0000000000000000e+00  6.6795738619367486e-04 2.4170278203778598e-04 0.0000000000000000e+00  6.2295110481047807e-04 2.6199573936345338e-04 0.0000000000000000e+00  5.7503580481022465e-04 2.7695188105078609e-04 0.0000000000000000e+00  5.3173738048365566e-04 2.8373843575975062e-04 0.0000000000000000e+00  4.8527823534246157e-04 2.8559931409126736e-04 0.0000000000000000e+00  4.4192406573122705e-04 2.8144310147780948e-04 0.0000000000000000e+00  3.9261434002111489e-04 2.7381999705710161e-04 0.0000000000000000e+00  3.4373077989192582e-04 2.6386442141185522e-04 0.0000000000000000e+00  2.9154117613442300e-04 2.5274888799012643e-04 0.0000000000000000e+00  2.4168903444307091e-04 2.4080543180841403e-04 0.0000000000000000e+00  1.8467733502226094e-04 2.2880486729349943e-04 0.0000000000000000e+00  1.2390870255944190e-04 2.1991681709824661e-04 0.0000000000000000e+00  6.1702218665384126e-05 2.1504577383335175e-04 0.0000000000000000e+00  7.0845013884854060e-07 1.7923115612559476e-04 0.0000000000000000e+00  -1.8651595121753917e-07 1.4160063802489171e-04 0.0000000000000000e+00  -8.6664524248469144e-08 1.0691910784035639e-04 0.0000000000000000e+00  1.9341110056502776e-07 7.6111554616856608e-05 0.0000000000000000e+00  -2.5241060986867062e-07 4.9275532122287902e-05 0.0000000000000000e+00  2.0635689125115059e-07 2.7437063678971660e-05 0.0000000000000000e+00  -1.5562680040527420e-07 1.1370815903014211e-05 0.0000000000000000e+00  -1.5057905333109240e-08 1.7792192045052042e-06 0.0000000000000000e+00  -2.2250271497191145e-07 -9.6189073269532564e-07 0.0000000000000000e+00  -2.3253676954916741e-09 -1.0625192318601763e-06 0.0000000000000000e+00  8.4842173383001262e-07 -1.1800026674618587e-06 0.0000000000000000e+00  1.2012940617197262e-07 -3.7462543417855504e-07 0.0000000000000000e+00  1.9050060043533756e-07 -6.0381712933976676e-07 0.0000000000000000e+00  9.7525180372820627e-07 -8.4955041925267122e-07 0.0000000000000000e+00  3.2435860322140138e-07 -1.1492072133139157e-06 0.0000000000000000e+00  1.5889841780134301e-06 -1.0752378505728498e-06 0.0000000000000000e+00  4.9908216835604386e-07 -6.7899987532496573e-07 0.0000000000000000e+00  1.5582232990741955e-06 -7.7975061745224311e-07 0.0000000000000000e+00  8.2280331643522008e-07 -3.1105702354398328e-07 0.0000000000000000e+00  1.1757335981090561e-06 -3.9408910936982893e-07 0.0000000000000000e+00  1.2051976527006916e-06 8.1835150137463249e-08 0.0000000000000000e+00  1.4041765455052964e-06 8.6096730012793817e-08 0.0000000000000000e+00  4.1097810981991134e-07 1.8805129885104234e-07 0.0000000000000000e+00  8.7031430396535748e-07 6.4788769147578783e-07 0.0000000000000000e+00  -3.8277623513523852e-08 1.9101710872673933e-07 0.0000000000000000e+00  1.2795537794958486e-06 1.7007172585626889e-06 0.0000000000000000e+00  4.0950367736426155e-07 1.1909267498467979e-06 0.0000000000000000e+00  9.0237406534062845e-07 1.1036191919744472e-06 0.0000000000000000e+00  -7.9091900870715948e-07 1.0765006363023312e-06 0.0000000000000000e+00  1.4602922424977563e-07 1.6430577022644707e-06 0.0000000000000000e+00  -1.0663674438726750e-06 2.2429644631965094e-06 0.0000000000000000e+00  -1.2662854737684181e-06 1.3748194235095941e-06 0.0000000000000000e+00  -1.2382980697058933e-06 6.6921335791139395e-07 0.0000000000000000e+00  -3.4875255163926263e-06 1.7055099329563983e-06 0.0000000000000000e+00  -1.3655412600770159e-06 7.8408492823786295e-07 0.0000000000000000e+00  -2.4171436685750944e-06 9.2900413251279404e-07 0.0000000000000000e+00  -1.5124147478941963e-06 5.7266921181120965e-07 0.0000000000000000e+00  -3.6269430930870872e-06 9.0356905694190021e-07 0.0000000000000000e+00  -3.4904559955505830e-07 -3.3610497662980229e-08 0.0000000000000000e+00  -1.4882164170946762e-06 5.8421009713244593e-08 0.0000000000000000e+00  -1.2368315998543673e-06 2.3730051838634481e-08 0.0000000000000000e+00  -8.9745898265524452e-07 -7.6491856293219011e-08 0.0000000000000000e+00  -2.0312539519519967e-06 -4.1093258302202973e-07 0.0000000000000000e+00  -4.8491730525717656e-07 -1.6506878161651648e-07 0.0000000000000000e+00  -1.6659482309007160e-06 -5.7022007022164483e-07 0.0000000000000000e+00  -2.3591122967920648e-07 -1.3857578560314810e-07 0.0000000000000000e+00  -2.9241844482340024e-07 -4.4848976388976348e-07 0.0000000000000000e+00  -7.2703116933739373e-07 -3.9488950729404089e-07 0.0000000000000000e+00  -3.9656074499069365e-07 -4.2116285794793414e-07 0.0000000000000000e+00  -9.9520526604345603e-08 -1.4987249827888402e-07 0.0000000000000000e+00  -2.3345592769856014e-07 -2.2346771606100165e-07 0.0000000000000000e+00  -2.1388263945878030e-08 -2.8458230034703470e-07 0.0000000000000000e+00  7.1589574237928435e-10 -1.5217011364496348e-07 0.0000000000000000e+00  -3.3602039388126495e-07 -2.6683131676655404e-07 0.0000000000000000e+00  7.9273026247419395e-08 -2.6662636561634299e-07 0.0000000000000000e+00  -8.0893692550991879e-08 -8.8512435579657821e-08 0.0000000000000000e+00  -6.7176395715092831e-08 7.7099875929261278e-06 0.0000000000000000e+00  9.9281671250695467e-08 1.9570499691860322e-05 0.0000000000000000e+00  -1.2379773612234078e-07 3.4802671729606695e-05 0.0000000000000000e+00  1.1433911766212049e-08 5.3470258218262237e-05 0.0000000000000000e+00  -5.8013408464819980e-08 7.4903588756650892e-05 0.0000000000000000e+00  -4.6190514152258451e-08 9.9342220479989706e-05 0.0000000000000000e+00  1.0499182108757457e-07 1.2626103385726052e-04 0.0000000000000000e+00  -9.7620495787768877e-08 1.5566568611257827e-04 0.0000000000000000e+00  8.9088948316850549e-08 1.8742625548291499e-04 0.0000000000000000e+00  -1.1801154045872719e-07 2.2135466308977839e-04 0.0000000000000000e+00  7.2561181692415360e-08 2.5736389404060385e-04 0.0000000000000000e+00  -4.6684252345723681e-08 2.9543254613561106e-04 0.0000000000000000e+00  5.2489529977600066e-08 3.3547674427439756e-04 0.0000000000000000e+00  -9.7147168868448154e-08 3.7740178155156785e-04 0.0000000000000000e+00  5.9762102771252909e-08 4.2125751844082306e-04 0.0000000000000000e+00  -7.1817124986211830e-08 4.6696686653058153e-04 0.0000000000000000e+00  -4.6258826901246353e-08 5.1465049642522695e-04 0.0000000000000000e+00  2.2996275873991807e-08 5.6404003051061555e-04 0.0000000000000000e+00  5.5054499945282927e-08 6.1552881024736536e-04 0.0000000000000000e+00  -2.6490887966198187e-08 6.6887015829444777e-04 0.0000000000000000e+00  3.9379183830044451e-08 7.2424069868213072e-04 0.0000000000000000e+00  -1.0368952829385102e-07 7.8162028303087328e-04 0.0000000000000000e+00  2.8821593272008863e-08 8.4135320739246006e-04 0.0000000000000000e+00  1.2382348866177961e-08 9.0285611941132344e-04 0.0000000000000000e+00  -1.6756642827626778e-08 9.6730363980596806e-04 0.0000000000000000e+00  -1.2478577947925967e-07 1.0341984905410961e-03 0.0000000000000000e+00  -6.0608963825857688e-08 1.1034376507346841e-03 0.0000000000000000e+00  -6.2041016261714292e-08 1.1751666097374988e-03 0.0000000000000000e+00  8.6116143781038338e-08 1.2501866984197792e-03 0.0000000000000000e+00  -1.5707506507927325e-07 1.3284210213259885e-03 0.0000000000000000e+00  5.2664608114934724e-08 1.4101555005086330e-03 0.0000000000000000e+00  -1.7361876696474576e-07 1.4954601193223726e-03 0.0000000000000000e+00  6.3997305895143712e-08 1.5849430008663731e-03 0.0000000000000000e+00  -1.3544545655463423e-07 1.6783086073973478e-03 0.0000000000000000e+00  -7.0566941618077000e-08 1.7759209300800924e-03 0.0000000000000000e+00  -9.1706207635509799e-08 1.8804438214726877e-03 0.0000000000000000e+00  -1.6940194171393183e-08 1.9878035857633916e-03 0.0000000000000000e+00  2.0779397441116417e-07 2.1042214570810270e-03 0.0000000000000000e+00  -5.1713800638350222e-07 2.2255924320151613e-03 0.0000000000000000e+00  2.7539423736437091e-07 2.3535502286745808e-03 0.0000000000000000e+00  -2.9649842049387042e-07 2.4904974263504488e-03 0.0000000000000000e+00  2.0001847011959493e-07 2.6368550426925448e-03 0.0000000000000000e+00  -3.0150024152009085e-07 2.7929234059075295e-03 0.0000000000000000e+00  -2.0520834008168850e-07 2.9590180433217393e-03 0.0000000000000000e+00  -7.3454170126122503e-08 3.1406879820513301e-03 0.0000000000000000e+00  7.5203156011844378e-07 3.3335606659698085e-03 0.0000000000000000e+00  -5.1610099613141635e-07 3.5433163707767560e-03 0.0000000000000000e+00  1.1866304474405741e-08 3.7721107328482864e-03 0.0000000000000000e+00  2.2268939955939764e-07 4.0228191660873309e-03 0.0000000000000000e+00  -2.1281771966258245e-07 4.2936794623300509e-03 0.0000000000000000e+00  -2.4652398690498564e-07 4.5889300987712357e-03 0.0000000000000000e+00  -1.3059606491816345e-06 4.9282639060955081e-03 0.0000000000000000e+00  1.2851937455528756e-06 5.2970819486180916e-03 0.0000000000000000e+00  -1.8907735017627333e-06 5.7100095919427694e-03 0.0000000000000000e+00  2.4484121608454196e-06 6.1825356147304639e-03 0.0000000000000000e+00  -3.3464039576754996e-06 6.7167324381930925e-03 0.0000000000000000e+00  8.8801847041426824e-07 7.3362411265232149e-03 0.0000000000000000e+00  -5.7772622821480223e-06 8.0535388055415179e-03 0.0000000000000000e+00  2.0646931374252197e-06 8.9302916684053067e-03 0.0000000000000000e+00  -1.6023595035486137e-05 9.9362621003209976e-03 0.0000000000000000e+00  4.0414304856730663e-06 1.1191235661248099e-02 0.0000000000000000e+00  -2.3365789172488884e-05 1.2698790528319962e-02 0.0000000000000000e+00  -1.0202521406866256e-05 1.4734427145644666e-02 0.0000000000000000e+00  -3.6552416031380595e-05 1.7608858381803111e-02 0.0000000000000000e+00  -1.3963432875677348e-04 2.1109375302832908e-02 0.0000000000000000e+00  3.7527255071638830e-04 2.7077802167351228e-02 0.0000000000000000e+00  -3.2416848982666883e-03 3.7610469025537482e-02 0.0000000000000000e+00  1.6474592052595712e-02 5.2616616051930971e-02 0.0000000000000000e+00  -1.2019178281647847e-04 -7.0527354400735953e-04 0.0000000000000000e+00  -6.2451874362985118e-04 1.7134398673865375e-04 0.0000000000000000e+00  -4.7074616915536048e-05 -8.5972601215843561e-04 0.0000000000000000e+00  -8.1918134900892906e-04 5.5633693034552864e-04 0.0000000000000000e+00  -2.9833211626851533e-04 1.8562505384670918e-04 0.0000000000000000e+00  2.2548562855204682e-04 -6.8218029980485944e-04 0.0000000000000000e+00  5.1905835912176290e-04 -3.1050129790780007e-04 0.0000000000000000e+00  -1.0004313937248446e-03 1.4202160257905023e-03 0.0000000000000000e+00  -5.3982143001178021e-04 6.9996381870934842e-04 0.0000000000000000e+00  -4.1110602038516936e-04 -1.9612013614029610e-04 0.0000000000000000e+00  1.2899855241839922e-03 -1.2794304279046375e-03 0.0000000000000000e+00  -1.3288194361725663e-03 2.3841705717883121e-03 0.0000000000000000e+00  -3.1841058298647185e-04 4.6412732477251004e-04 0.0000000000000000e+00  -6.4989656649683367e-04 1.5050294666249281e-03 0.0000000000000000e+00  4.7964467651718336e-04 4.0332550702293228e-05 0.0000000000000000e+00  1.1914119719695889e-04 -4.7167748509430619e-04 0.0000000000000000e+00  -4.2511858880754861e-04 1.1798983265958892e-03 0.0000000000000000e+00  2.5191395129417439e-03 -1.9956206081572607e-03 0.0000000000000000e+00  -4.2276240612550977e-04 6.1696974466665685e-05 0.0000000000000000e+00  1.0542807555644705e-03 -6.3287057574290485e-04 0.0000000000000000e+00  -3.6912815485835388e-04 -5.8254630242937676e-04 0.0000000000000000e+00  -6.4150469527302935e-04 -1.5370755801667586e-04 0.0000000000000000e+00  8.4463723688548006e-04 -2.0186803100505300e-04 0.0000000000000000e+00  -1.1444901273944081e-04 8.9582475569493600e-05 0.0000000000000000e+00  -1.7314985774739594e-03 3.7646874229644426e-03 0.0000000000000000e+00  -8.7397676989540637e-04 2.7181669330861879e-03 0.0000000000000000e+00  -1.8601388386407734e-04 2.9353666588189341e-04 0.0000000000000000e+00  -2.8447786322159310e-04 7.4647450323251686e-04 0.0000000000000000e+00  3.0187752622807775e-04 8.9439997056356920e-05 0.0000000000000000e+00  -6.2228427720291283e-04 2.2261838447793945e-03 0.0000000000000000e+00  5.8694584851625646e-04 -8.8077600252521680e-04 0.0000000000000000e+00  -1.2901178813830671e-04 -1.6466190773510743e-04 0.0000000000000000e+00  1.7620477967352351e-04 -1.4965366666762128e-04 0.0000000000000000e+00  1.4275786853756452e-03 -1.5809871630250206e-03 0.0000000000000000e+00  -5.3384772632473142e-04 -4.2047596293124828e-05 0.0000000000000000e+00  7.6748137318314561e-04 -4.8738309661393559e-05 0.0000000000000000e+00  -7.5300070074326049e-04 7.8425763779884616e-05 0.0000000000000000e+00  -7.2806273155208391e-04 3.1028973644510260e-04 0.0000000000000000e+00  1.2408023168400140e-04 6.8428510431650183e-05 0.0000000000000000e+00  -2.8101671515843961e-04 -4.5281530968340448e-04 0.0000000000000000e+00  -4.7792611877860028e-04 2.6401216575181873e-04 0.0000000000000000e+00  3.8917309632494442e-04 -6.8333405856789024e-05 0.0000000000000000e+00  -2.5620858356383523e-04 1.0146400767355791e-03 0.0000000000000000e+00  4.4214605886067296e-03 -2.4641421696100715e-03 0.0000000000000000e+00  -2.5210249757330236e-04 5.9487789987872659e-05 0.0000000000000000e+00  1.6196082659617750e-03 -8.4897700431988581e-04 0.0000000000000000e+00  -3.5700784155417921e-04 1.6292762204217063e-03 0.0000000000000000e+00  -6.8788155285525203e-04 8.4067785130361296e-04 0.0000000000000000e+00  3.1076492172585991e-04 -1.0571274304052073e-03 0.0000000000000000e+00  -4.5865975639643988e-04 -3.4910121085842283e-04 0.0000000000000000e+00  -3.4153490191791622e-04 -4.5187937365294935e-05 0.0000000000000000e+00  2.3599173703013326e-03 -1.2533370562122848e-03 0.0000000000000000e+00  -9.2424616019501533e-04 3.8275534636430558e-03 0.0000000000000000e+00  -1.7211667175921961e-04 5.6656440286806191e-04 0.0000000000000000e+00  -8.8717695225513308e-04 9.7669594358458099e-04 0.0000000000000000e+00  -1.0542591542415216e-03 9.8673079971748050e-04 0.0000000000000000e+00  -5.0258215773351679e-04 4.7371783169292326e-04 0.0000000000000000e+00  1.0096187219907691e-03 -2.3668902506764023e-04 0.0000000000000000e+00  1.9509655216133520e-04 -1.0752333526010535e-03 0.0000000000000000e+00  -6.3538718454186102e-04 -4.8699115929915335e-05 0.0000000000000000e+00  -1.1837299026861236e-04 -5.4179916153032203e-04 0.0000000000000000e+00  -2.1727433131541901e-03 6.0508450701568742e-03 0.0000000000000000e+00  -1.0159835859873174e-04 1.9214769644741795e-04 0.0000000000000000e+00  3.0856046319938462e-03 -1.5275534359986181e-03 0.0000000000000000e+00  -3.2789913857343928e-04 2.5867553303240845e-06 0.0000000000000000e+00  4.7369953442357804e-04 1.5635588817208357e-04 0.0000000000000000e+00  2.7877438162088748e-04 2.7756630242236508e-05 0.0000000000000000e+00  5.5642083320305859e-04 -5.9367771516187159e-04 0.0000000000000000e+00  2.9914953931662719e-03 9.7526003093195338e-05 0.0000000000000000e+00  -4.1951504960438479e-05 3.9228816910374549e-05 0.0000000000000000e+00  6.3598452240907410e-03 -3.0068630015062841e-03 0.0000000000000000e+00  -1.4537992332683614e-04 4.7770902147558600e-05 0.0000000000000000e+00  -3.6853720131419340e-04 2.0112519657527386e-03 0.0000000000000000e+00  -7.0019666433196752e-04 -5.7050674541313001e-05 0.0000000000000000e+00  6.3547387418571558e-04 1.2853327578738648e-04 0.0000000000000000e+00  -2.1745508850024275e-04 -6.8039896479173058e-05 0.0000000000000000e+00  2.8076986762911688e-04 -2.8818708490215213e-06 0.0000000000000000e+00  1.4472246603166327e-03 -1.7540766496531406e-03 0.0000000000000000e+00  -4.0834911642445842e-04 1.4058057337092573e-04 0.0000000000000000e+00  -2.4434519602883090e-04 1.4032774112592752e-03 0.0000000000000000e+00  -1.1541544125596276e-03 4.7228112159343758e-03 0.0000000000000000e+00  -1.3742811116070029e-04 4.1988738149217615e-04 0.0000000000000000e+00  -5.0162140620189878e-04 2.8391911339773444e-03 0.0000000000000000e+00  -2.0550798180186172e-04 -3.1798263677647673e-04 0.0000000000000000e+00  -8.2815926273177240e-04 1.6120344052255025e-03 0.0000000000000000e+00  -1.1766445474105101e-03 1.3102807752459558e-03 0.0000000000000000e+00  -3.1477009820125856e-04 3.0704759560707632e-04 0.0000000000000000e+00  -2.7252204695579203e-03 7.3803640293579956e-03 0.0000000000000000e+00  -6.4822163826187002e-05 1.1015696658710122e-04 0.0000000000000000e+00  -8.8170298520354044e-04 4.3724760713941132e-04 0.0000000000000000e+00  -6.3468437358894813e-04 4.4917430787215588e-04 0.0000000000000000e+00  1.3600499203171989e-03 -4.7849901750130467e-04 0.0000000000000000e+00  -9.1322058913708294e-04 1.1369981680884632e-03 0.0000000000000000e+00  -1.9483165917752769e-04 1.7610957042543375e-04 0.0000000000000000e+00  -4.4776090488337158e-04 -4.7367849789495248e-04 0.0000000000000000e+00  2.0126096523125526e-04 -5.3592253999139475e-05 0.0000000000000000e+00  -7.6796275175026877e-04 1.0235574214045502e-03 0.0000000000000000e+00  7.9166289952191957e-04 -1.4378137555619190e-03 0.0000000000000000e+00  -5.2768118799275234e-04 1.4055246036791299e-04 0.0000000000000000e+00  -2.4564608420503972e-04 2.6645981095115102e-05 0.0000000000000000e+00  4.3869288269325702e-03 -1.8247737538204256e-03 0.0000000000000000e+00  5.9758568931705772e-06 -8.4792900524466137e-05 0.0000000000000000e+00  1.1744234124348117e-03 -9.9143236200956468e-04 0.0000000000000000e+00  6.4323435283520939e-05 -2.4721575741126756e-04 0.0000000000000000e+00  5.9403230094382485e-04 -1.30750473