<?xml version="1.0"?>
<VTKFile type="UnstructuredGrid"  version="0.1"  >
<UnstructuredGrid>
<Piece  NumberOfPoints="572" NumberOfCells="1038">
<Points>
<DataArray  type="Float64"  NumberOfComponents="3"  format="ascii">0 0 0  4 0 0  4 -1 0  0 -1 0  0.09999999999999999 0 0  0.2 0 0  0.3 0 0  0.4 0 0  0.4999999999999998 0 0  0.5999999999999996 0 0  0.6999999999999995 0 0  0.7999999999999994 0 0  0.8999999999999992 0 0  0.999999999999999 0 0  1.099999999999999 0 0  1.199999999999999 0 0  1.299999999999999 0 0  1.399999999999999 0 0  1.499999999999998 0 0  1.599999999999998 0 0  1.699999999999999 0 0  1.799999999999999 0 0  1.899999999999999 0 0  2 0 0  2.1 0 0  2.200000000000001 0 0  2.300000000000001 0 0  2.400000000000002 0 0  2.500000000000002 0 0  2.600000000000002 0 0  2.700000000000003 0 0  2.800000000000003 0 0  2.900000000000004 0 0  3.000000000000004 0 0  3.100000000000005 0 0  3.200000000000005 0 0  3.300000000000005 0 0  3.400000000000004 0 0  3.500000000000004 0 0  3.600000000000003 0 0  3.700000000000002 0 0  3.800000000000002 0 0  3.900000000000001 0 0  4 -0.08333333333333325 0  4 -0.1666666666666665 0  4 -0.2499999999999997 0  4 -0.333333333333333 0  4 -0.4166666666666666 0  4 -0.5000000000000001 0  4 -0.5833333333333337 0  4 -0.6666666666666673 0  4 -0.7500000000000006 0  4 -0.8333333333333337 0  4 -0.9166666666666669 0  3.9 -1 0  3.8 -1 0  3.7 -1 0  3.6 -1 0  3.5 -1 0  3.4 -1 0  3.300000000000001 -1 0  3.200000000000001 -1 0  3.100000000000001 -1 0  3.000000000000001 -1 0  2.900000000000001 -1 0  2.800000000000001 -1 0  2.700000000000001 -1 0  2.600000000000001 -1 0  2.500000000000002 -1 0  2.400000000000002 -1 0  2.300000000000002 -1 0  2.200000000000001 -1 0  2.100000000000001 -1 0  2 -1 0  1.9 -1 0  1.799999999999999 -1 0  1.699999999999999 -1 0  1.599999999999998 -1 0  1.499999999999998 -1 0  1.399999999999998 -1 0  1.299999999999997 -1 0  1.199999999999997 -1 0  1.099999999999996 -1 0  0.9999999999999956 -1 0  0.899999999999995 -1 0  0.7999999999999949 -1 0  0.6999999999999953 -1 0  0.5999999999999956 -1 0  0.499999999999996 -1 0  0.3999999999999968 -1 0  0.2999999999999976 -1 0  0.1999999999999984 -1 0  0.0999999999999992 -1 0  0 -0.9166666666666667 0  0 -0.8333333333333335 0  0 -0.7500000000000002 0  0 -0.666666666666667 0  0 -0.5833333333333335 0  0 -0.4999999999999999 0  0 -0.4166666666666663 0  0 -0.3333333333333327 0  0 -0.2499999999999994 0  0 -0.1666666666666663 0  0 -0.08333333333333315 0  3.491090701185765 -0.499339806301727 0  0.4950203227078167 -0.4989128584675094 0  2.64262313781888 -0.4879297506908338 0  1.449999999999998 -0.5 0  2.058402291097397 -0.5120941233772698 0  0.9749999999999992 -0.4749999999999993 0  3.081769880806683 -0.5597407802610527 0  1.745473944409859 -0.3290615136625714 0  2.347280045777389 -0.6545118286598804 0  2.335768673639667 -0.3237239238763549 0  1.750327526220345 -0.682828817540943 0  3.707492972392909 -0.3028030525063309 0  0.293580296675358 -0.7109385489008262 0  3.71498825372084 -0.7080088716251347 0  0.2918697062415769 -0.2988161261649331 0  3.250413907284768 -0.3098344370860925 0  0.7481958762886598 -0.6907216494845363 0  2.897531957111618 -0.3144800466372323 0  1.202975631932859 -0.6871206495416401 0  0.7276881720430104 -0.301075268817204 0  1.222241507685503 -0.2908020883113388 0  2.821785532795642 -0.7097679058139483 0  3.313580174540806 -0.7110306688463971 0  1.50219738324048 -0.2570217529780842 0  2.109436430026117 -0.7485141141565509 0  2.001923272149049 -0.2612004201407864 0  2.591779594323503 -0.2533220405676498 0  1.508220405676497 -0.7466779594323502 0  2.584305190871683 -0.7502831919469019 0  3.478286033189422 -0.23795222571263 0  0.5261060937617643 -0.7658117832712512 0  3.785135972681774 -0.5040707172464052 0  0.2090645029521114 -0.4969048262114374 0  0.9574438986108131 -0.2423163095862805 0  0.9754244626643473 -0.7628641460288867 0  0.5097271592765806 -0.2292760602594508 0  3.047448237147327 -0.7984168297371277 0  3.522893514415914 -0.785726174019542 0  3.27411286219494 -0.5150314861460955 0  2.876192398366876 -0.5166549013936721 0  3.072152863254761 -0.2028141497170135 0  2.188888454287124 -0.1960738743988359 0  1.911111545712876 -0.8039261256011641 0  0.6968885413728847 -0.4974520678389611 0  1.252104989604988 -0.4970114345114344 0  1.649610740490046 -0.5028202775347195 0  2.446694231298332 -0.485633542353709 0  1.845992484168205 -0.4989419599210881 0  2.246214131289309 -0.4959316037735846 0  2.743080194417513 -0.1797603284198384 0  1.345217800961618 -0.8177514544794908 0  3.831771135951664 -0.1764827624326512 0  0.168177957407361 -0.823589473522286 0  3.837430960455357 -0.8286944021295046 0  0.167391597779325 -0.1752538625856722 0  3.066111254276541 -0.3870061788029396 0  1.358909159394344 -0.1720779287034414 0  1.669284305949535 -0.172759019086266 0  2.264869859182613 -0.8283162784008133 0  2.434165412425708 -0.1697954173687042 0  1.668706113475668 -0.8314479749300888 0  1.842683258862577 -0.1656794186994128 0  3.848464877921415 -0.3616620315967092 0  0.151535122078585 -0.6383379684032905 0  3.848707346075076 -0.6466646759135177 0  0.1509968549082652 -0.3452619778382686 0  2.732975255829699 -0.3508363638623346 0  1.370252652534258 -0.6495109932111033 0  1.11832587037856 -0.1733419061976365 0  2.439737645513045 -0.836456385212641 0  3.331229791744127 -0.165499768727795 0  0.6726591332606813 -0.8336090461037186 0  1.132616756253317 -0.8280723285747189 0  1.950606351728588 -0.6518091391595896 0  2.153824719141371 -0.3536025000168445 0  3.62532407618639 -0.1564302309141494 0  0.3803710983093131 -0.8404803223371928 0  1.377912260103223 -0.3517997484404782 0  0.8924624300191402 -0.6125774599817652 0  3.207249628251628 -0.8375220474312923 0  0.6546785576266954 -0.155978749966339 0  2.719684587363634 -0.8327734580127736 0  3.647699282718985 -0.5637569936419204 0  0.3570156455557587 -0.5653989322146081 0  0.8322251523939386 -0.8403847541693579 0  0.3645988133126639 -0.1519337183240305 0  1.061404500324257 -0.6180105656135877 0  3.396758647231262 -0.3766313243368538 0  0.8148021518360848 -0.1629813466347811 0  0.6093556516052328 -0.6299486913462624 0  0.415997866655875 -0.3680522660477806 0  0.5920160015096863 -0.3645412637424194 0  3.572255424430109 -0.362089200459548 0  1.08043890485706 -0.3398660584513152 0  2.923658429424994 -0.1561137197110593 0  3.653613361778262 -0.8546909554159527 0  3.456739790681186 -0.6487708965425909 0  0.8424839600900655 -0.4190496412612194 0  2.6968241495241 -0.6460539373019687 0  2.90777185621417 -0.8467190841342236 0  3.167421855912535 -0.6853653881872064 0  3.378998015397395 -0.8550267917096944 0  2.549623533286458 -0.6074164390661531 0  1.563854363100012 -0.3870450365840445 0  1.945115925347995 -0.3956210114182645 0  2.206384380497951 -0.6363666106481864 0  2.9679770331043 -0.6663940397605803 0  2.492817266347368 -0.3527603982764793 0  1.545918816851176 -0.6075709531787901 0  2.028456012399734 -0.8701972194942087 0  2.065700499244939 -0.1359115819594244 0  1.113999927383315 -0.4803729266898425 0  3.194766700972084 -0.1349664610116483 0  1.791586588241401 -0.8656156413257059 0  2.307333345265183 -0.1346440826116952 0  2.64093544674549 -0.1331489671463476 0  0.4565707965077976 -0.6534785968762363 0  1.459077473581533 -0.8718776489042938 0  1.56279060907849 -0.1324694119967317 0  0.3144726782861624 -0.406319735913186 0  3.686635179527132 -0.4155119011072678 0  3.583227123430988 -0.6879918386850498 0  3.884530589958141 -0.5337716741137969 0  0.1138901561454064 -0.4712706309748976 0  2.551320204776417 -0.8759992125181354 0  2.968455986624249 -0.4231600805006418 0  1.843995631966074 -0.2713141166917306 0  1.23826657576458 -0.1310261345083986 0  1.632298315745049 -0.7047459448475459 0  3.454977942639006 -0.1019833897113779 0  2.11213131937471 -0.6131325843633801 0  1.631670858552932 -0.3027829344070553 0  0.549999999999996 -0.8847857258099061 0  2.175907031111534 -0.8808902127996396 0  2.440789547527098 -0.7252338716820566 0  0.9499999999999957 -0.8853403742417534 0  0.1192006629558211 -0.7258150973260704 0  0.1086302422397907 -0.2553484983400458 0  3.891615894289125 -0.7428762999771643 0  3.880790852604017 -0.2741969419997524 0  2.58999033724616 -0.3943081590477266 0  0.95310975133633 -0.1100375897447476 0  0.9389274183125247 -0.357418794071099 0  0.5436861363815539 -0.1129935035840732 0  1.237622314162623 -0.8886349339205675 0  2.766143121931948 -0.4669467935657355 0  3.157965388639583 -0.4824178848815803 0  3.732166646772587 -0.1061123528525496 0  0.8463407040907105 -0.2803849511418723 0  0.2658218649297859 -0.8967607408767373 0  3.384357462435764 -0.5450459842617623 0  1.954320722194999 -0.1009956898074866 0  0.8013980381943526 -0.5278489923710374 0  3.744358883260304 -0.603637271636247 0  0.2581863795088786 -0.6001369967359219 0  0.2629966501688439 -0.1025990268626685 0  0.3980883060404261 -0.7330050441066103 0  1.076076863672032 -0.7275728344185368 0  1.749999999999999 -0.5550190100941714 0  2.351512610076122 -0.5440435521440684 0  0.8619623856291254 -0.7246873586411677 0  3.553081028189586 -0.8932001918706867 0  2.806636304103025 -0.6100531542467602 0  2.546714489935151 -0.08818853426728746 0  1.172246975380209 -0.5783812280673658 0  1.560837452008869 -0.9052833905541354 0  3.005913589025749 -0.2858329927011495 0  3.104244827324224 -0.8867193195303111 0  0.6392996137609843 -0.7340215588892431 0  3.370409685921998 -0.2678372406131186 0  1.860045411420065 -0.6863616357695403 0  2.239306624928278 -0.3159929711989559 0  0.620090528303912 -0.2611000972275821 0  1.457468991263225 -0.08750102207080079 0  1.752790718352056 -0.1005001786212033 0  0.394717592657301 -0.2605042194828123 0  3.745581301416776 -0.9074819423317642 0  3.141158115761163 -0.2920724092797614 0  3.257376892791448 -0.6242591031763242 0  2.350280737493299 -0.9013197570937703 0  3.914203942485891 -0.125 0  3.914203942485891 -0.8750000000000003 0  0.08579605751410901 -0.1249999999999997 0  0.08579605751410968 -0.875 0  3.921126745430668 -0.4525
[...]
<PointData  Vectors="displacement"> 
<DataArray  type="Float64"  Name="displacement"  NumberOfComponents="3" format="ascii">-1.5492117947829209e-03 -4.3968099805077522e-02 0.0000000000000000e+00  1.5290612097955490e-03 -4.4019263610024235e-02 0.0000000000000000e+00  1.8307681345182051e-03 -1.5888684585129078e-03 0.0000000000000000e+00  -1.7819510696232051e-03 -1.5518773843220487e-03 0.0000000000000000e+00  1.8023660221279744e-04 -5.5357452754552963e-02 0.0000000000000000e+00  -2.7656295974549380e-04 -5.9525895062962728e-02 0.0000000000000000e+00  1.5362790758575156e-05 -6.0798668615592737e-02 0.0000000000000000e+00  -3.9154671339117332e-05 -6.0807046064189921e-02 0.0000000000000000e+00  -3.1551283444511816e-05 -6.0109384700827474e-02 0.0000000000000000e+00  3.4724797045581243e-05 -5.8939166205084818e-02 0.0000000000000000e+00  -3.9598128150534295e-05 -5.7558026518563392e-02 0.0000000000000000e+00  1.7066305649215748e-05 -5.6175262482642499e-02 0.0000000000000000e+00  -2.2860773298424675e-05 -5.4809258400030487e-02 0.0000000000000000e+00  6.5059454859592508e-06 -5.3532157082996516e-02 0.0000000000000000e+00  -5.7388829113606867e-06 -5.2347643680533656e-02 0.0000000000000000e+00  1.3111762897917277e-06 -5.1301043278009793e-02 0.0000000000000000e+00  -1.7857157265497203e-06 -5.0399016776838279e-02 0.0000000000000000e+00  -3.2913712534186441e-06 -4.9632648035605333e-02 0.0000000000000000e+00  1.3572916248816321e-06 -4.8996098866104038e-02 0.0000000000000000e+00  -1.5007955212643349e-06 -4.8480683875717731e-02 0.0000000000000000e+00  -1.6991881888771516e-06 -4.8093924642941939e-02 0.0000000000000000e+00  3.1062479864904611e-06 -4.7820343651845593e-02 0.0000000000000000e+00  -5.3413868308514164e-06 -4.7656907539334110e-02 0.0000000000000000e+00  3.8365153547523923e-06 -4.7603228151828221e-02 0.0000000000000000e+00  -4.6508128709981630e-06 -4.7655500657760017e-02 0.0000000000000000e+00  4.0624738047052472e-06 -4.7818250931381361e-02 0.0000000000000000e+00  -6.0074544519920036e-07 -4.8100902257057071e-02 0.0000000000000000e+00  -2.6336220473992173e-06 -4.8478332842904565e-02 0.0000000000000000e+00  -6.3424349340115818e-06 -4.8996083825918066e-02 0.0000000000000000e+00  6.8569294563459110e-06 -4.9632409855926485e-02 0.0000000000000000e+00  1.2249519945411016e-06 -5.0399174772933132e-02 0.0000000000000000e+00  2.1911635715368567e-06 -5.1314409860919584e-02 0.0000000000000000e+00  1.8528124679667286e-05 -5.2349117181800998e-02 0.0000000000000000e+00  7.8701568001526511e-06 -5.3521285703848481e-02 0.0000000000000000e+00  2.6737407325691058e-05 -5.4806528897518351e-02 0.0000000000000000e+00  -3.6300047504409716e-05 -5.6162055160941422e-02 0.0000000000000000e+00  2.1726208771587721e-06 -5.7567958242959988e-02 0.0000000000000000e+00  -5.4075037905515420e-06 -5.8923809791884343e-02 0.0000000000000000e+00  1.4394094579493231e-05 -6.0088646740644763e-02 0.0000000000000000e+00  4.7474758655796991e-05 -6.0802933917028575e-02 0.0000000000000000e+00  5.3652190948596697e-06 -6.0790297831710291e-02 0.0000000000000000e+00  3.1718110976234004e-04 -5.9539561780084752e-02 0.0000000000000000e+00  -1.6337763377448198e-04 -5.5376796969936685e-02 0.0000000000000000e+00  1.6365624035349087e-02 -4.0656013610592706e-02 0.0000000000000000e+00  2.3817101585131468e-02 -3.7944902969809083e-02 0.0000000000000000e+00  2.9404351155194925e-02 -3.5388031439341189e-02 0.0000000000000000e+00  3.2732835426000417e-02 -3.3382175761349456e-02 0.0000000000000000e+00  3.4272974254177496e-02 -3.0726478354201638e-02 0.0000000000000000e+00  3.4974248946051625e-02 -2.7752115813999285e-02 0.0000000000000000e+00  3.3991067183339024e-02 -2.5640542911218478e-02 0.0000000000000000e+00  3.1777742992461687e-02 -2.2343215746552580e-02 0.0000000000000000e+00  2.7902329300143497e-02 -1.9033769915480194e-02 0.0000000000000000e+00  2.2144257384700671e-02 -1.5396600276083345e-02 0.0000000000000000e+00  1.5417962707272427e-02 -9.0264029345879376e-03 0.0000000000000000e+00  -8.1400538623662430e-04 -3.2433038032977837e-04 0.0000000000000000e+00  2.8838490461060391e-04 3.1822025353444764e-04 0.0000000000000000e+00  -1.4245823108413206e-04 -6.2370393022513230e-05 0.0000000000000000e+00  1.3583564042116771e-04 1.0285254333399100e-04 0.0000000000000000e+00  2.7245234776027443e-05 6.8507514406515254e-05 0.0000000000000000e+00  2.5316743712040285e-05 4.2340077710590524e-05 0.0000000000000000e+00  2.9777653703031908e-05 4.9095543966721598e-05 0.0000000000000000e+00  -2.7207550007411898e-05 4.5892306186420511e-05 0.0000000000000000e+00  -3.4708091194146884e-07 4.7353140991838171e-05 0.0000000000000000e+00  3.3088411915058946e-05 3.8612210867891178e-05 0.0000000000000000e+00  3.1608941449925193e-05 2.4949517545410141e-05 0.0000000000000000e+00  4.8887236569006854e-06 2.1110928607332227e-05 0.0000000000000000e+00  1.4009002180194264e-05 1.3020302100033048e-05 0.0000000000000000e+00  -3.8671566642912450e-06 1.0611610129797055e-05 0.0000000000000000e+00  2.7023022783908963e-06 6.9508001376731764e-06 0.0000000000000000e+00  9.7453542240449096e-07 8.6385879794697385e-06 0.0000000000000000e+00  -5.1775713318019823e-06 7.4824586406029662e-06 0.0000000000000000e+00  8.1050015268034126e-06 8.1411503843264047e-06 0.0000000000000000e+00  1.4587471266035372e-06 2.9059188293693343e-06 0.0000000000000000e+00  -9.0555230842261775e-06 4.4507930668156316e-06 0.0000000000000000e+00  -5.6734838223264024e-06 6.6411562596266086e-06 0.0000000000000000e+00  1.8602719073346516e-06 1.0166258691049743e-05 0.0000000000000000e+00  2.6804626074024842e-06 3.4503288851725070e-06 0.0000000000000000e+00  5.8914146452667626e-06 8.3990713178664772e-06 0.0000000000000000e+00  -8.5655943579187592e-06 1.0336545707328622e-05 0.0000000000000000e+00  -2.6987964130962334e-06 7.9705869923298395e-06 0.0000000000000000e+00  5.7101370296327100e-06 2.4435936386925005e-05 0.0000000000000000e+00  -1.6478435832690393e-05 2.6051281047659346e-05 0.0000000000000000e+00  -1.2726398196679065e-06 2.1631822152955697e-05 0.0000000000000000e+00  -9.1294948719267219e-06 4.6672259554692466e-05 0.0000000000000000e+00  -5.9658920431377008e-05 4.9246316504651381e-05 0.0000000000000000e+00  -1.9132172721308820e-06 4.2902739896981089e-05 0.0000000000000000e+00  -5.6200699809265350e-05 5.6496718627711343e-05 0.0000000000000000e+00  -4.5007892480840036e-05 7.8300734055344699e-05 0.0000000000000000e+00  -1.0058736323726240e-04 8.2866614211766696e-05 0.0000000000000000e+00  -1.0227314772857891e-04 8.2286445635576066e-05 0.0000000000000000e+00  9.6373415321130901e-05 -4.5902041314894887e-05 0.0000000000000000e+00  -3.2728911927866315e-04 3.4728877559234356e-04 0.0000000000000000e+00  7.8153947313737101e-04 -2.8494989537063365e-04 0.0000000000000000e+00  -1.5449361013649921e-02 -9.1061684889163219e-03 0.0000000000000000e+00  -2.1931640471583778e-02 -1.5256911877567041e-02 0.0000000000000000e+00  -2.8123704060549100e-02 -1.9434674441872531e-02 0.0000000000000000e+00  -3.1738464694918318e-02 -2.2230983318174920e-02 0.0000000000000000e+00  -3.3733785291507869e-02 -2.5387252885134572e-02 0.0000000000000000e+00  -3.5046402694552670e-02 -2.8530848344621454e-02 0.0000000000000000e+00  -3.4510716443975409e-02 -3.0423486322048766e-02 0.0000000000000000e+00  -3.2710464054212358e-02 -3.3430502044986717e-02 0.0000000000000000e+00  -2.9348445062826842e-02 -3.5624863254814142e-02 0.0000000000000000e+00  -2.3960611974025936e-02 -3.7830080622427875e-02 0.0000000000000000e+00  -1.6344009059410206e-02 -4.0680737623026930e-02 0.0000000000000000e+00  1.7419341066081308e-02 -2.9008079311632611e-02 0.0000000000000000e+00  -1.7848292261681123e-02 -2.9046262641529912e-02 0.0000000000000000e+00  2.6460567301020499e-03 -2.5785035056894404e-02 0.0000000000000000e+00  -2.0646382704667507e-03 -2.4825947189068446e-02 0.0000000000000000e+00  1.6289482142514230e-04 -2.3346398373556242e-02 0.0000000000000000e+00  -6.6676078202458078e-03 -2.8473526039677770e-02 0.0000000000000000e+00  7.4874507083589259e-03 -2.3774559939477389e-02 0.0000000000000000e+00  -6.4996877946320363e-04 -3.2461367801200583e-02 0.0000000000000000e+00  9.7803794820287772e-04 -1.6626262042138691e-02 0.0000000000000000e+00  8.9043412188426923e-04 -3.2931757582226544e-02 0.0000000000000000e+00  -6.2437818680002670e-04 -1.5144924263819316e-02 0.0000000000000000e+00  2.1767347683316209e-02 -4.2037767884591543e-02 0.0000000000000000e+00  -1.9892074291762873e-02 -1.4911859395691309e-02 0.0000000000000000e+00  2.0276196770883693e-02 -1.5120921009183190e-02 0.0000000000000000e+00  -2.1603474980924860e-02 -4.2306296608611745e-02 0.0000000000000000e+00  8.9369772853490920e-03 -4.0120341226913214e-02 0.0000000000000000e+00  -9.1952312639015758e-03 -1.6367165554867568e-02 0.0000000000000000e+00  4.1045661871338263e-03 -3.6562396442800606e-02 0.0000000000000000e+00  -3.3563597472535318e-03 -1.5726239795991217e-02 0.0000000000000000e+00  -9.1746385657829610e-03 -4.0863938886506558e-02 0.0000000000000000e+00  -2.9156496414292918e-03 -3.6871245794076697e-02 0.0000000000000000e+00  3.3981011532621687e-03 -1.4576954221416897e-02 0.0000000000000000e+00  9.9823064253556273e-03 -1.5184245467155306e-02 0.0000000000000000e+00  -1.2675118238127542e-03 -3.6817914982041310e-02 0.0000000000000000e+00  2.1908080527801321e-04 -1.1906116322586134e-02 0.0000000000000000e+00  2.6955737680366158e-06 -3.5436419486009348e-02 0.0000000000000000e+00  1.6275760605517138e-03 -3.7505445569217949e-02 0.0000000000000000e+00  -1.2615722006148221e-03 -1.2219360681198216e-02 0.0000000000000000e+00  1.6396221177151832e-03 -1.2134022578016886e-02 0.0000000000000000e+00  1.1913640154822849e-02 -4.6588660436509596e-02 0.0000000000000000e+00  -1.1581699550720732e-02 -1.1791043384385346e-02 0.0000000000000000e+00  2.8121819212794930e-02 -2.8067758104442828e-02 0.0000000000000000e+00  -2.8450203367281685e-02 -2.8588309657790262e-02 0.0000000000000000e+00  -4.7252759703248510e-03 -4.1884475452323072e-02 0.0000000000000000e+00  -4.7411447601575412e-03 -1.1993580511480409e-02 0.0000000000000000e+00  -1.1804024377029014e-02 -4.7261074186435374e-02 0.0000000000000000e+00  4.4147587767126382e-03 -1.0070023974378981e-02 0.0000000000000000e+00  1.1749066753946803e-02 -1.0556308043401432e-02 0.0000000000000000e+00  1.1403869065484183e-02 -2.7351418260466099e-02 0.0000000000000000e+00  4.7473193415353554e-03 -2.5295253528280413e-02 0.0000000000000000e+00  4.3489706571620632e-03 -4.4348753242661874e-02 0.0000000000000000e+00  3.1167470265664122e-04 -3.8699097676075107e-02 0.0000000000000000e+00  -1.4112430925786938e-04 -9.2439921927475049e-03 0.0000000000000000e+00  -1.2098358253967240e-02 -2.8606566463442569e-02 0.0000000000000000e+00  -3.4803666427536415e-03 -2.5759297614231312e-02 0.0000000000000000e+00  -1.1097436901369069e-03 -2.4146490284278167e-02 0.0000000000000000e+00  1.5244664011747847e-03 -2.5237652234907825e-02 0.0000000000000000e+00  -4.3956963356029673e-04 -2.4047707944531840e-02 0.0000000000000000e+00  7.3035409836303908e-04 -2.4301964444152065e-02 0.0000000000000000e+00  1.8023004327542569e-03 -4.2227563606434808e-02 0.0000000000000000e+00  -1.5381320199459503e-03 -8.8021726492042030e-03 0.0000000000000000e+00  1.9247215960830916e-02 -4.7838904608208020e-02 0.0000000000000000e+00  -1.6768235280419992e-02 -8.9394920058620923e-03 0.0000000000000000e+00  1.6498061566999046e-02 -8.7420836136855671e-03 0.0000000000000000e+00  -1.9151599678646054e-02 -4.7876742470451795e-02 0.0000000000000000e+00  6.8092065729519471e-03 -3.3907761548559526e-02 0.0000000000000000e+00  -1.3335839187196563e-03 -4.1822678092007501e-02 0.0000000000000000e+00  -5.2775382281597697e-04 -4.0174235434197091e-02 0.0000000000000000e+00  4.0837744067107084e-04 -8.1092194366200205e-03 0.0000000000000000e+00  7.3820833908584064e-04 -4.0726952490468905e-02 0.0000000000000000e+00  -5.2313992498306198e-04 -7.9778391712541259e-03 0.0000000000000000e+00  -2.2063880995805380e-04 -4.0073024896269717e-02 0.0000000000000000e+00  2.9047098137773075e-02 -3.5824019610360330e-02 0.0000000000000000e+00  -2.7794255402131471e-02 -2.0460451222044693e-02 0.0000000000000000e+00  2.7536372369589359e-02 -1.9868899778600922e-02 0.0000000000000000e+00  -2.8530345012121858e-02 -3.6837806597627039e-02 0.0000000000000000e+00  2.9652078980874053e-03 -3.3429643010337524e-02 0.0000000000000000e+00  -2.3200800680085354e-03 -1.7345110478983721e-02 0.0000000000000000e+00  -2.4315475359128575e-03 -4.3821436708434837e-02 0.0000000000000000e+00  7.4497994354995084e-04 -7.7744534587270535e-03 0.0000000000000000e+00  6.4074412991056281e-03 -4.9525748062379610e-02 0.0000000000000000e+00  -6.6889572438943307e-03 -8.1454143300922887e-03 0.0000000000000000e+00  -2.5289980228389653e-03 -8.4099045799634984e-03 0.0000000000000000e+00  -1.2033182214706398e-04 -1.6561470336466124e-02 0.0000000000000000e+00  3.9119345955792087e-04 -3.1103453737683268e-02 0.0000000000000000e+00  1.1395330220638378e-02 -5.2353283637115069e-02 0.0000000000000000e+00  -1.0797540871204703e-02 -7.3599640389377689e-03 0.0000000000000000e+00  -2.2275877864357356e-03 -3.2720297853915010e-02 0.0000000000000000e+00  -7.6643589154015397e-03 -2.0726278086087836e-02 0.0000000000000000e+00  5.1770822919902761e-03 -8.0035870200756733e-03 0.0000000000000000e+00  -6.2653832068518388e-03 -5.0229197117275796e-02 0.0000000000000000e+00  1.7033686087279101e-03 -8.0902383855490454e-03 0.0000000000000000e+00  2.2350504023548240e-02 -2.4486190251367043e-02 0.0000000000000000e+00  -2.2154515497877076e-02 -2.4378323248049963e-02 0.0000000000000000e+00  -4.7017286628720104e-03 -7.8559019390914159e-03 0.0000000000000000e+00  -1.1369936000000672e-02 -5.2620481443754988e-02 0.0000000000000000e+00  -5.1991170413429435e-03 -1.9879660291570293e-02 0.0000000000000000e+00  1.3529405949678306e-02 -3.7010713240191007e-02 0.0000000000000000e+00  -4.6416424842908050e-03 -4.7846222515005483e-02 0.0000000000000000e+00  -1.3296039415889964e-02 -2.0233157686958561e-02 0.0000000000000000e+00  -1.9243733214058548e-02 -3.8146474386034933e-02 0.0000000000000000e+00  -1.3639577960957107e-02 -3.7881921299493859e-02 0.0000000000000000e+00  1.8703248410217806e-02 -3.8568044765688939e-02 0.0000000000000000e+00  -4.5423052254376572e-03 -3.5373994320270788e-02 0.0000000000000000e+00  2.4464807369973308e-03 -4.5110294276834224e-02 0.0000000000000000e+00  1.0451246051104894e-02 -6.5726689574062821e-03 0.0000000000000000e+00  1.4643123031783063e-02 -1.9021876616986191e-02 0.0000000000000000e+00  -8.6010029942400531e-03 -3.2700646269205463e-02 0.0000000000000000e+00  2.7817029296065550e-03 -1.7673328176718302e-02 0.0000000000000000e+00  2.5235257600672995e-03 -7.4804916764449917e-03 0.0000000000000000e+00  7.8152983801136836e-03 -1.6574509004629812e-02 0.0000000000000000e+00  6.5457288316474165e-03 -6.9437265526494478e-03 0.0000000000000000e+00  1.9604094039882042e-03 -1.9332713128222295e-02 0.0000000000000000e+00  -1.3756902646684215e-03 -3.0135134580043625e-02 0.0000000000000000e+00  -1.4343970959706766e-04 -2.8994835836171788e-02 0.0000000000000000e+00  5.4930082132540728e-04 -1.7384787291034494e-02 0.0000000000000000e+00  5.2161883286320149e-03 -1.7248578956570167e-02 0.0000000000000000e+00  1.5506077873248065e-03 -3.2058914174128955e-02 0.0000000000000000e+00  -1.4766925209882870e-03 -1.9126220861219088e-02 0.0000000000000000e+00  3.1718290817305652e-05 -6.0894426430184358e-03 0.0000000000000000e+00  7.4720628643979079e-05 -4.1357764427787817e-02 0.0000000000000000e+00  -4.8415170068783712e-03 -2.7360604981896929e-02 0.0000000000000000e+00  3.9396372513840223e-03 -4.9451249559421394e-02 0.0000000000000000e+00  -2.4432372807296971e-04 -6.3137792578359195e-03 0.0000000000000000e+00  3.8114543317101143e-04 -4.1898905283614653e-02 0.0000000000000000e+00  1.0456116398636041e-03 -4.3701969534851698e-02 0.0000000000000000e+00  -1.7010544461495188e-02 -1.8663741458340467e-02 0.0000000000000000e+00  -8.0922706955958046e-04 -6.0908466575941888e-03 0.0000000000000000e+00  -5.9458711171970124e-04 -4.2515226539357950e-02 0.0000000000000000e+00  -2.3787619372369076e-02 -3.5152498001457193e-02 0.0000000000000000e+00  2.3927904325960179e-02 -3.4488627006856946e-02 0.0000000000000000e+00  1.7087764787327941e-02 -1.6373301626216016e-02 0.0000000000000000e+00  3.1306992358806157e-02 -2.6370690361549796e-02 0.0000000000000000e+00  -3.1589759175623441e-02 -2.9619323759532724e-02 0.0000000000000000e+00  8.1147315786580750e-04 -5.8969273159159936e-03 0.0000000000000000e+00  5.6540530955770324e-03 -3.1083500486182743e-02 0.0000000000000000e+00  -3.3301159166284185e-04 -3.5064351422042520e-02 0.0000000000000000e+00  -1.4000281217611047e-03 -4.4772167047449990e-02 0.0000000000000000e+00  -9.5151248458865822e-04 -1.4175725103961982e-02 0.0000000000000000e+00  5.3176116452676829e-03 -5.4508719338555237e-02 0.0000000000000000e+00  2.9789600866926444e-04 -1.8459161553539712e-02 0.0000000000000000e+00  -9.5508967095870949e-04 -3.4051216839877579e-02 0.0000000000000000e+00  -6.0942320477251760e-03 -5.2750550006773443e-03 0.0000000000000000e+00  1.8289969881510231e-04 -5.5865743847255799e-03 0.0000000000000000e+00  1.1569638436450878e-03 -1.3230103741798907e-02 0.0000000000000000e+00  -2.7201896273952621e-03 -5.5018191409928752e-03 0.0000000000000000e+00  -2.4927288790472828e-02 -1.5683148628245214e-02 0.0000000000000000e+00  -2.6372846994048821e-02 -4.0706855279418835e-02 0.0000000000000000e+00  2.4314133184637050e-02 -1.4833636764119099e-02 0.0000000000000000e+00  2.6947277853403659e-02 -3.9977566480683811e-02 0.0000000000000000e+00  2.1630654842340587e-03 -3.0390763002838755e-02 0.0000000000000000e+00  -2.3571388832009524e-03 -4.8870639108002552e-02 0.0000000000000000e+00  -6.4922879359836242e-03 -3.5580156423441152e-02 0.0000000000000000e+00  -5.8974440002358070e-03 -5.3946117938543689e-02 0.0000000000000000e+00  -1.3051303226428823e-03 -5.3153963310935588e-03 0.0000000000000000e+00  3.6022523020411571e-03 -2.7454157767489083e-02 0.0000000000000000e+00  8.9073401509877203e-03 -2.8829532470380604e-02 0.0000000000000000e+00  1.0274148439201870e-02 -5.4959691914242069e-02 0.0000000000000000e+00  -6.7732385437494682e-03 -4.0910157102527940e-02 0.0000000000000000e+00  -8.7488154197467374e-03 -4.2559447188590767e-03 0.0000000000000000e+00  1.4056687502894280e-02 -2.5755043638638783e-02 0.0000000000000000e+00  -3.7412936005523211e-05 -4.2974808618231497e-02 0.0000000000000000e+00  -9.7480343106549246e-03 -2.6224608488381082e-02 0.0000000000000000e+00  2.5065738555098988e-02 -2.1818892625340407e-02 0.0000000000000000e+00  -2.5080033372496525e-02 -2.2061031565255181e-02 0.0000000000000000e+00  -1.0062064254250772e-02 -5.5107183762354378e-02 0.0000000000000000e+00  -1.5874204165813807e-02 -1.3528235738237370e-02 0.0000000000000000e+00  -4.1554891966554949e-03 -1.3776417247371820e-02 0.0000000000000000e+00  -7.3593341821166899e-04 -2.1407325641792683e-02 0.0000000000000000e+00  1.1056479015133886e-03 -2.2103883287195172e-02 0.0000000000000000e+00  -6.7768200927697791e-03 -1.4252424845345148e-02 0.0000000000000000e+00  6.7546186546789573e-03 -4.6973591920723839e-03 0.0000000000000000e+00  3.8336912546248986e-03 -1.9891096093439850e-02 0.0000000000000000e+00  5.5607134468964195e-04 -4.5202449577759034e-02 0.0000000000000000e+00  -4.1336722514613141e-03 -2.1683664833898750e-02 0.0000000000000000e+00  -4.5074234664690315e-04 -4.4568922815294391e-03 0.0000000000000000e+00  4.9121597725282117e-03 -3.9106431523564446e-02 0.0000000000000000e+00  3.0157568104994792e-03 -5.4352606252020463e-03 0.0000000000000000e+00  -1.0314274679272132e-02 -1.3795427579881472e-02 0.0000000000000000e+00  1.0373600756847864e-02 -4.3874007413368117e-02 0.0000000000000000e+00  -3.3014229591635567e-04 -1.4916114831680974e-02 0.0000000000000000e+00  5.8940240955399753e-04 -3.3062646147347309e-02 0.0000000000000000e+00  -1.0377809872017319e-02 -4.4379267801773099e-02 0.0000000000000000e+00  -5.3556193207247589e-04 -4.5209090757000969e-02 0.0000000000000000e+00  -2.2856575523304433e-04 -4.331542