<?xml version="1.0"?>
<VTKFile type="UnstructuredGrid"  version="0.1"  >
<UnstructuredGrid>
<Piece  NumberOfPoints="572" NumberOfCells="1038">
<Points>
<DataArray  type="Float64"  NumberOfComponents="3"  format="ascii">0 0 0  4 0 0  4 -1 0  0 -1 0  0.09999999999999999 0 0  0.2 0 0  0.3 0 0  0.4 0 0  0.4999999999999998 0 0  0.5999999999999996 0 0  0.6999999999999995 0 0  0.7999999999999994 0 0  0.8999999999999992 0 0  0.999999999999999 0 0  1.099999999999999 0 0  1.199999999999999 0 0  1.299999999999999 0 0  1.399999999999999 0 0  1.499999999999998 0 0  1.599999999999998 0 0  1.699999999999999 0 0  1.799999999999999 0 0  1.899999999999999 0 0  2 0 0  2.1 0 0  2.200000000000001 0 0  2.300000000000001 0 0  2.400000000000002 0 0  2.500000000000002 0 0  2.600000000000002 0 0  2.700000000000003 0 0  2.800000000000003 0 0  2.900000000000004 0 0  3.000000000000004 0 0  3.100000000000005 0 0  3.200000000000005 0 0  3.300000000000005 0 0  3.400000000000004 0 0  3.500000000000004 0 0  3.600000000000003 0 0  3.700000000000002 0 0  3.800000000000002 0 0  3.900000000000001 0 0  4 -0.08333333333333325 0  4 -0.1666666666666665 0  4 -0.2499999999999997 0  4 -0.333333333333333 0  4 -0.4166666666666666 0  4 -0.5000000000000001 0  4 -0.5833333333333337 0  4 -0.6666666666666673 0  4 -0.7500000000000006 0  4 -0.8333333333333337 0  4 -0.9166666666666669 0  3.9 -1 0  3.8 -1 0  3.7 -1 0  3.6 -1 0  3.5 -1 0  3.4 -1 0  3.300000000000001 -1 0  3.200000000000001 -1 0  3.100000000000001 -1 0  3.000000000000001 -1 0  2.900000000000001 -1 0  2.800000000000001 -1 0  2.700000000000001 -1 0  2.600000000000001 -1 0  2.500000000000002 -1 0  2.400000000000002 -1 0  2.300000000000002 -1 0  2.200000000000001 -1 0  2.100000000000001 -1 0  2 -1 0  1.9 -1 0  1.799999999999999 -1 0  1.699999999999999 -1 0  1.599999999999998 -1 0  1.499999999999998 -1 0  1.399999999999998 -1 0  1.299999999999997 -1 0  1.199999999999997 -1 0  1.099999999999996 -1 0  0.9999999999999956 -1 0  0.899999999999995 -1 0  0.7999999999999949 -1 0  0.6999999999999953 -1 0  0.5999999999999956 -1 0  0.499999999999996 -1 0  0.3999999999999968 -1 0  0.2999999999999976 -1 0  0.1999999999999984 -1 0  0.0999999999999992 -1 0  0 -0.9166666666666667 0  0 -0.8333333333333335 0  0 -0.7500000000000002 0  0 -0.666666666666667 0  0 -0.5833333333333335 0  0 -0.4999999999999999 0  0 -0.4166666666666663 0  0 -0.3333333333333327 0  0 -0.2499999999999994 0  0 -0.1666666666666663 0  0 -0.08333333333333315 0  3.491090701185765 -0.499339806301727 0  0.4950203227078167 -0.4989128584675094 0  2.64262313781888 -0.4879297506908338 0  1.449999999999998 -0.5 0  2.058402291097397 -0.5120941233772698 0  0.9749999999999992 -0.4749999999999993 0  3.081769880806683 -0.5597407802610527 0  1.745473944409859 -0.3290615136625714 0  2.347280045777389 -0.6545118286598804 0  2.335768673639667 -0.3237239238763549 0  1.750327526220345 -0.682828817540943 0  3.707492972392909 -0.3028030525063309 0  0.293580296675358 -0.7109385489008262 0  3.71498825372084 -0.7080088716251347 0  0.2918697062415769 -0.2988161261649331 0  3.250413907284768 -0.3098344370860925 0  0.7481958762886598 -0.6907216494845363 0  2.897531957111618 -0.3144800466372323 0  1.202975631932859 -0.6871206495416401 0  0.7276881720430104 -0.301075268817204 0  1.222241507685503 -0.2908020883113388 0  2.821785532795642 -0.7097679058139483 0  3.313580174540806 -0.7110306688463971 0  1.50219738324048 -0.2570217529780842 0  2.109436430026117 -0.7485141141565509 0  2.001923272149049 -0.2612004201407864 0  2.591779594323503 -0.2533220405676498 0  1.508220405676497 -0.7466779594323502 0  2.584305190871683 -0.7502831919469019 0  3.478286033189422 -0.23795222571263 0  0.5261060937617643 -0.7658117832712512 0  3.785135972681774 -0.5040707172464052 0  0.2090645029521114 -0.4969048262114374 0  0.9574438986108131 -0.2423163095862805 0  0.9754244626643473 -0.7628641460288867 0  0.5097271592765806 -0.2292760602594508 0  3.047448237147327 -0.7984168297371277 0  3.522893514415914 -0.785726174019542 0  3.27411286219494 -0.5150314861460955 0  2.876192398366876 -0.5166549013936721 0  3.072152863254761 -0.2028141497170135 0  2.188888454287124 -0.1960738743988359 0  1.911111545712876 -0.8039261256011641 0  0.6968885413728847 -0.4974520678389611 0  1.252104989604988 -0.4970114345114344 0  1.649610740490046 -0.5028202775347195 0  2.446694231298332 -0.485633542353709 0  1.845992484168205 -0.4989419599210881 0  2.246214131289309 -0.4959316037735846 0  2.743080194417513 -0.1797603284198384 0  1.345217800961618 -0.8177514544794908 0  3.831771135951664 -0.1764827624326512 0  0.168177957407361 -0.823589473522286 0  3.837430960455357 -0.8286944021295046 0  0.167391597779325 -0.1752538625856722 0  3.066111254276541 -0.3870061788029396 0  1.358909159394344 -0.1720779287034414 0  1.669284305949535 -0.172759019086266 0  2.264869859182613 -0.8283162784008133 0  2.434165412425708 -0.1697954173687042 0  1.668706113475668 -0.8314479749300888 0  1.842683258862577 -0.1656794186994128 0  3.848464877921415 -0.3616620315967092 0  0.151535122078585 -0.6383379684032905 0  3.848707346075076 -0.6466646759135177 0  0.1509968549082652 -0.3452619778382686 0  2.732975255829699 -0.3508363638623346 0  1.370252652534258 -0.6495109932111033 0  1.11832587037856 -0.1733419061976365 0  2.439737645513045 -0.836456385212641 0  3.331229791744127 -0.165499768727795 0  0.6726591332606813 -0.8336090461037186 0  1.132616756253317 -0.8280723285747189 0  1.950606351728588 -0.6518091391595896 0  2.153824719141371 -0.3536025000168445 0  3.62532407618639 -0.1564302309141494 0  0.3803710983093131 -0.8404803223371928 0  1.377912260103223 -0.3517997484404782 0  0.8924624300191402 -0.6125774599817652 0  3.207249628251628 -0.8375220474312923 0  0.6546785576266954 -0.155978749966339 0  2.719684587363634 -0.8327734580127736 0  3.647699282718985 -0.5637569936419204 0  0.3570156455557587 -0.5653989322146081 0  0.8322251523939386 -0.8403847541693579 0  0.3645988133126639 -0.1519337183240305 0  1.061404500324257 -0.6180105656135877 0  3.396758647231262 -0.3766313243368538 0  0.8148021518360848 -0.1629813466347811 0  0.6093556516052328 -0.6299486913462624 0  0.415997866655875 -0.3680522660477806 0  0.5920160015096863 -0.3645412637424194 0  3.572255424430109 -0.362089200459548 0  1.08043890485706 -0.3398660584513152 0  2.923658429424994 -0.1561137197110593 0  3.653613361778262 -0.8546909554159527 0  3.456739790681186 -0.6487708965425909 0  0.8424839600900655 -0.4190496412612194 0  2.6968241495241 -0.6460539373019687 0  2.90777185621417 -0.8467190841342236 0  3.167421855912535 -0.6853653881872064 0  3.378998015397395 -0.8550267917096944 0  2.549623533286458 -0.6074164390661531 0  1.563854363100012 -0.3870450365840445 0  1.945115925347995 -0.3956210114182645 0  2.206384380497951 -0.6363666106481864 0  2.9679770331043 -0.6663940397605803 0  2.492817266347368 -0.3527603982764793 0  1.545918816851176 -0.6075709531787901 0  2.028456012399734 -0.8701972194942087 0  2.065700499244939 -0.1359115819594244 0  1.113999927383315 -0.4803729266898425 0  3.194766700972084 -0.1349664610116483 0  1.791586588241401 -0.8656156413257059 0  2.307333345265183 -0.1346440826116952 0  2.64093544674549 -0.1331489671463476 0  0.4565707965077976 -0.6534785968762363 0  1.459077473581533 -0.8718776489042938 0  1.56279060907849 -0.1324694119967317 0  0.3144726782861624 -0.406319735913186 0  3.686635179527132 -0.4155119011072678 0  3.583227123430988 -0.6879918386850498 0  3.884530589958141 -0.5337716741137969 0  0.1138901561454064 -0.4712706309748976 0  2.551320204776417 -0.8759992125181354 0  2.968455986624249 -0.4231600805006418 0  1.843995631966074 -0.2713141166917306 0  1.23826657576458 -0.1310261345083986 0  1.632298315745049 -0.7047459448475459 0  3.454977942639006 -0.1019833897113779 0  2.11213131937471 -0.6131325843633801 0  1.631670858552932 -0.3027829344070553 0  0.549999999999996 -0.8847857258099061 0  2.175907031111534 -0.8808902127996396 0  2.440789547527098 -0.7252338716820566 0  0.9499999999999957 -0.8853403742417534 0  0.1192006629558211 -0.7258150973260704 0  0.1086302422397907 -0.2553484983400458 0  3.891615894289125 -0.7428762999771643 0  3.880790852604017 -0.2741969419997524 0  2.58999033724616 -0.3943081590477266 0  0.95310975133633 -0.1100375897447476 0  0.9389274183125247 -0.357418794071099 0  0.5436861363815539 -0.1129935035840732 0  1.237622314162623 -0.8886349339205675 0  2.766143121931948 -0.4669467935657355 0  3.157965388639583 -0.4824178848815803 0  3.732166646772587 -0.1061123528525496 0  0.8463407040907105 -0.2803849511418723 0  0.2658218649297859 -0.8967607408767373 0  3.384357462435764 -0.5450459842617623 0  1.954320722194999 -0.1009956898074866 0  0.8013980381943526 -0.5278489923710374 0  3.744358883260304 -0.603637271636247 0  0.2581863795088786 -0.6001369967359219 0  0.2629966501688439 -0.1025990268626685 0  0.3980883060404261 -0.7330050441066103 0  1.076076863672032 -0.7275728344185368 0  1.749999999999999 -0.5550190100941714 0  2.351512610076122 -0.5440435521440684 0  0.8619623856291254 -0.7246873586411677 0  3.553081028189586 -0.8932001918706867 0  2.806636304103025 -0.6100531542467602 0  2.546714489935151 -0.08818853426728746 0  1.172246975380209 -0.5783812280673658 0  1.560837452008869 -0.9052833905541354 0  3.005913589025749 -0.2858329927011495 0  3.104244827324224 -0.8867193195303111 0  0.6392996137609843 -0.7340215588892431 0  3.370409685921998 -0.2678372406131186 0  1.860045411420065 -0.6863616357695403 0  2.239306624928278 -0.3159929711989559 0  0.620090528303912 -0.2611000972275821 0  1.457468991263225 -0.08750102207080079 0  1.752790718352056 -0.1005001786212033 0  0.394717592657301 -0.2605042194828123 0  3.745581301416776 -0.9074819423317642 0  3.141158115761163 -0.2920724092797614 0  3.257376892791448 -0.6242591031763242 0  2.350280737493299 -0.9013197570937703 0  3.914203942485891 -0.125 0  3.914203942485891 -0.8750000000000003 0  0.08579605751410901 -0.1249999999999997 0  0.08579605751410968 -0.875 0  3.921126745430668 -0.4525
[...]
<PointData  Vectors="displacement"> 
<DataArray  type="Float64"  Name="displacement"  NumberOfComponents="3" format="ascii">-1.2167122019027903e-03 -4.5096759935804497e-02 0.0000000000000000e+00  1.2168414946437283e-03 -4.5086841011545482e-02 0.0000000000000000e+00  9.4664169100406583e-04 -1.2921404118616067e-03 0.0000000000000000e+00  -9.4822975864413978e-04 -1.2907967957387504e-03 0.0000000000000000e+00  1.7623043454410660e-05 -5.5930940832161817e-02 0.0000000000000000e+00  -2.0498027032591764e-04 -5.9775386414759532e-02 0.0000000000000000e+00  -2.4465821463643131e-05 -6.1033618431442747e-02 0.0000000000000000e+00  -2.3941013708540488e-05 -6.0977234373797637e-02 0.0000000000000000e+00  -3.4068805491046584e-05 -6.0240969857149447e-02 0.0000000000000000e+00  3.2630448700927682e-05 -5.9039445758929547e-02 0.0000000000000000e+00  -3.7590701470489894e-05 -5.7631914357825546e-02 0.0000000000000000e+00  1.5971875990785809e-05 -5.6228247643129087e-02 0.0000000000000000e+00  -2.2375749389720202e-05 -5.4846192145463657e-02 0.0000000000000000e+00  6.0997258404710934e-06 -5.3556623863285399e-02 0.0000000000000000e+00  -5.7302218405272486e-06 -5.2362330010703971e-02 0.0000000000000000e+00  8.3611890857392709e-07 -5.1308081316934658e-02 0.0000000000000000e+00  -1.4025597698373437e-06 -5.0400935187931213e-02 0.0000000000000000e+00  -3.3986440405446736e-06 -4.9630981622713281e-02 0.0000000000000000e+00  1.3083293008242306e-06 -4.8992074726894957e-02 0.0000000000000000e+00  -1.4649738644901371e-06 -4.8474813432268699e-02 0.0000000000000000e+00  -1.7294457582924746e-06 -4.8086854289662861e-02 0.0000000000000000e+00  3.1266701580818827e-06 -4.7812569086368058e-02 0.0000000000000000e+00  -5.3719587537727577e-06 -4.7648769238495488e-02 0.0000000000000000e+00  3.9197045402588006e-06 -4.7595037422309944e-02 0.0000000000000000e+00  -4.7027597797017304e-06 -4.7647501460534994e-02 0.0000000000000000e+00  4.0551494447736347e-06 -4.7810634253582208e-02 0.0000000000000000e+00  -6.3735704655780991e-07 -4.8094089452042098e-02 0.0000000000000000e+00  -2.5757061189489807e-06 -4.8472887847713864e-02 0.0000000000000000e+00  -6.2558199760744702e-06 -4.8992586836392085e-02 0.0000000000000000e+00  6.6248493423386558e-06 -4.9631565011675920e-02 0.0000000000000000e+00  1.5118793529007072e-06 -5.0402483859760927e-02 0.0000000000000000e+00  2.2722810100506871e-06 -5.1323253609402535e-02 0.0000000000000000e+00  1.8297729258118822e-05 -5.2365770138111563e-02 0.0000000000000000e+00  8.4785578839284534e-06 -5.3548400571661908e-02 0.0000000000000000e+00  2.5723868200489811e-05 -5.4846275056327658e-02 0.0000000000000000e+00  -3.4469639992775482e-05 -5.6219458332509270e-02 0.0000000000000000e+00  1.3423773621432082e-06 -5.7647679620706480e-02 0.0000000000000000e+00  -4.1190796234450959e-06 -5.9032116666550498e-02 0.0000000000000000e+00  1.7227701029532688e-05 -6.0229117666363519e-02 0.0000000000000000e+00  3.2150784059605614e-05 -6.0982514448094209e-02 0.0000000000000000e+00  4.2980240438503883e-05 -6.1036675391565945e-02 0.0000000000000000e+00  2.3666514998183915e-04 -5.9782238176731541e-02 0.0000000000000000e+00  -1.1793923925648193e-05 -5.5917050708441329e-02 0.0000000000000000e+00  1.5960756382132364e-02 -4.0903053699345902e-02 0.0000000000000000e+00  2.3799481030084529e-02 -3.8396170914973167e-02 0.0000000000000000e+00  2.9111367404606771e-02 -3.5870421723406758e-02 0.0000000000000000e+00  3.2462197927070433e-02 -3.3587388295963139e-02 0.0000000000000000e+00  3.4269198274605894e-02 -3.1035841181728828e-02 0.0000000000000000e+00  3.4699480602934998e-02 -2.8317071871763664e-02 0.0000000000000000e+00  3.3786948360192720e-02 -2.5792743869316726e-02 0.0000000000000000e+00  3.1467053294777295e-02 -2.2826280893903098e-02 0.0000000000000000e+00  2.7694484389907119e-02 -1.9437732284495031e-02 0.0000000000000000e+00  2.2181547373251370e-02 -1.5592563191162041e-02 0.0000000000000000e+00  1.4470586186781681e-02 -1.0349099065281957e-02 0.0000000000000000e+00  -3.2661961655378757e-04 2.4256205185868674e-04 0.0000000000000000e+00  6.3895089498437684e-05 9.2614747462102797e-05 0.0000000000000000e+00  -3.4583884944207253e-05 2.5713882630270743e-05 0.0000000000000000e+00  1.1062757133549390e-04 7.7721498898535368e-05 0.0000000000000000e+00  3.2695998472397344e-05 7.0033575685492724e-05 0.0000000000000000e+00  2.6449470974513465e-05 3.0037716519709258e-05 0.0000000000000000e+00  2.5869625127496157e-05 4.2191440103477455e-05 0.0000000000000000e+00  -2.5548410763754574e-05 4.0355303399347755e-05 0.0000000000000000e+00  2.7403435671895529e-06 4.0137552311089759e-05 0.0000000000000000e+00  2.9214160681786231e-05 3.1426201157706479e-05 0.0000000000000000e+00  3.0235633753901708e-05 1.9924377742651311e-05 0.0000000000000000e+00  5.8428300675034909e-06 1.9611380996279128e-05 0.0000000000000000e+00  1.2985665848771107e-05 1.0659988250817667e-05 0.0000000000000000e+00  -2.7244234714835599e-06 8.3359117558357247e-06 0.0000000000000000e+00  1.9130028654427626e-06 4.1202883180019341e-06 0.0000000000000000e+00  9.6412582993592885e-07 7.8434991248143732e-06 0.0000000000000000e+00  -4.9707547040040606e-06 6.5347373565977578e-06 0.0000000000000000e+00  7.8982638956416989e-06 7.5374511136751143e-06 0.0000000000000000e+00  1.4131979227785865e-06 1.7473193237757412e-06 0.0000000000000000e+00  -8.8627468395414015e-06 3.3842549106875439e-06 0.0000000000000000e+00  -5.5232441765453715e-06 5.8269360909385882e-06 0.0000000000000000e+00  1.7700824266382577e-06 9.3562152677901029e-06 0.0000000000000000e+00  2.7800710687409628e-06 1.9927181830326315e-06 0.0000000000000000e+00  5.5777093079559825e-06 7.8669113382835302e-06 0.0000000000000000e+00  -7.6635830629032052e-06 7.9030148213470275e-06 0.0000000000000000e+00  -3.3158360297625446e-06 5.1593873521155200e-06 0.0000000000000000e+00  5.6232051746382191e-06 2.3309170928788203e-05 0.0000000000000000e+00  -1.5672983852266873e-05 2.3116538836274950e-05 0.0000000000000000e+00  -1.4585358971954954e-06 1.7962055252169456e-05 0.0000000000000000e+00  -9.4464002577825173e-06 4.5156813550533831e-05 0.0000000000000000e+00  -5.7694326174821053e-05 4.3959094236767570e-05 0.0000000000000000e+00  -3.5736086694121154e-06 3.7038323344278104e-05 0.0000000000000000e+00  -5.4912555491649714e-05 5.1589574000040075e-05 0.0000000000000000e+00  -4.3220299568245606e-05 7.0131735809159963e-05 0.0000000000000000e+00  -1.0454517683185224e-04 8.2960644673741153e-05 0.0000000000000000e+00  -7.1864288011372091e-05 4.9382617621999614e-05 0.0000000000000000e+00  -4.6852219257132554e-06 4.9101426700420490e-05 0.0000000000000000e+00  -1.0538199435745044e-04 1.1914623719460619e-04 0.0000000000000000e+00  3.2051860779952972e-04 2.3372414284974607e-04 0.0000000000000000e+00  -1.4452796442600757e-02 -1.0359909692545674e-02 0.0000000000000000e+00  -2.2158773635638448e-02 -1.5584949298281027e-02 0.0000000000000000e+00  -2.7746016358957997e-02 -1.9658188926073818e-02 0.0000000000000000e+00  -3.1466373437721899e-02 -2.2713044441684715e-02 0.0000000000000000e+00  -3.3742114968506660e-02 -2.5692616063578248e-02 0.0000000000000000e+00  -3.4706814806879711e-02 -2.8564747541599537e-02 0.0000000000000000e+00  -3.4292465436040476e-02 -3.0956880890239485e-02 0.0000000000000000e+00  -3.2479583871847982e-02 -3.3609834507909303e-02 0.0000000000000000e+00  -2.9111328241105728e-02 -3.6025380396011421e-02 0.0000000000000000e+00  -2.3810313058517833e-02 -3.8387542855320693e-02 0.0000000000000000e+00  -1.5969864376176288e-02 -4.0921308770361473e-02 0.0000000000000000e+00  1.7424404074053330e-02 -2.9113417930161374e-02 0.0000000000000000e+00  -1.7852248588422451e-02 -2.9154331242363666e-02 0.0000000000000000e+00  2.6332407258256888e-03 -2.5787076668151120e-02 0.0000000000000000e+00  -2.0533199961643403e-03 -2.4825858260041550e-02 0.0000000000000000e+00  1.6173769593888030e-04 -2.3342702114928608e-02 0.0000000000000000e+00  -6.6497741004581225e-03 -2.8495351750512994e-02 0.0000000000000000e+00  7.4704035461632193e-03 -2.3798212085375442e-02 0.0000000000000000e+00  -6.4587555130990427e-04 -3.2455873296362479e-02 0.0000000000000000e+00  9.7103727131275883e-04 -1.6625614023273862e-02 0.0000000000000000e+00  8.8511970072414198e-04 -3.2927128453488962e-02 0.0000000000000000e+00  -6.1962401191838971e-04 -1.5143936616174943e-02 0.0000000000000000e+00  2.1796760223573380e-02 -4.2282628472899493e-02 0.0000000000000000e+00  -1.9965155012471991e-02 -1.5044410304552001e-02 0.0000000000000000e+00  2.0392517056817085e-02 -1.5249263160007140e-02 0.0000000000000000e+00  -2.1640200944636839e-02 -4.2559706018042764e-02 0.0000000000000000e+00  8.9267208298182913e-03 -4.0181343310614299e-02 0.0000000000000000e+00  -9.1812639381249495e-03 -1.6398045309954708e-02 0.0000000000000000e+00  4.0923916367990561e-03 -3.6577189003935848e-02 0.0000000000000000e+00  -3.3406160268479373e-03 -1.5732317486336203e-02 0.0000000000000000e+00  -9.1613142107622222e-03 -4.0926890078172629e-02 0.0000000000000000e+00  -2.9044305182709482e-03 -3.6877430921924949e-02 0.0000000000000000e+00  3.3831437053209175e-03 -1.4583629045549915e-02 0.0000000000000000e+00  9.9708719989685737e-03 -1.5218446691404356e-02 0.0000000000000000e+00  -1.2608836025591894e-03 -3.6814765860725851e-02 0.0000000000000000e+00  2.1715005805871652e-04 -1.1905619041179389e-02 0.0000000000000000e+00  2.7203943768363326e-06 -3.5429460574430000e-02 0.0000000000000000e+00  1.6200878918893177e-03 -3.7505241894071964e-02 0.0000000000000000e+00  -1.2529088861344408e-03 -1.2220374159848574e-02 0.0000000000000000e+00  1.6292165342026487e-03 -1.2136271103181067e-02 0.0000000000000000e+00  1.1906343897982624e-02 -4.6716883314279103e-02 0.0000000000000000e+00  -1.1591167261226956e-02 -1.1840261672512569e-02 0.0000000000000000e+00  2.8179919778864949e-02 -2.8343305594212529e-02 0.0000000000000000e+00  -2.8452875971700309e-02 -2.8818500745821388e-02 0.0000000000000000e+00  -4.7133519195387830e-03 -4.1912356243873863e-02 0.0000000000000000e+00  -4.7240242741699552e-03 -1.2004751991873430e-02 0.0000000000000000e+00  -1.1798320411067952e-02 -4.7390454678024128e-02 0.0000000000000000e+00  4.3997151976928267e-03 -1.0083240041824551e-02 0.0000000000000000e+00  1.1761418920442400e-02 -1.0602097189596775e-02 0.0000000000000000e+00  1.1392815612754141e-02 -2.7402086209799170e-02 0.0000000000000000e+00  4.7307060142730379e-03 -2.5306333197401932e-02 0.0000000000000000e+00  4.3405752966138899e-03 -4.4383619478856509e-02 0.0000000000000000e+00  3.0967077669579227e-04 -3.8692144886636623e-02 0.0000000000000000e+00  -1.4007641937554690e-04 -9.2441699902300264e-03 0.0000000000000000e+00  -1.2085467234338721e-02 -2.8663833714493357e-02 0.0000000000000000e+00  -3.4654982336602171e-03 -2.5764155150565047e-02 0.0000000000000000e+00  -1.1024225907763699e-03 -2.4143881307166593e-02 0.0000000000000000e+00  1.5154256690933553e-03 -2.5236056689818560e-02 0.0000000000000000e+00  -4.3644473404714623e-04 -2.4043973046999328e-02 0.0000000000000000e+00  7.2540037982539495e-04 -2.4298606460166260e-02 0.0000000000000000e+00  1.7954271935994442e-03 -4.2233284057946956e-02 0.0000000000000000e+00  -1.5281689920431140e-03 -8.8050818767510947e-03 0.0000000000000000e+00  1.9192408892365537e-02 -4.8224935835073181e-02 0.0000000000000000e+00  -1.6806886511304304e-02 -8.9668745596776390e-03 0.0000000000000000e+00  1.6553319284812643e-02 -8.7686931675339322e-03 0.0000000000000000e+00  -1.9097835610589909e-02 -4.8266275793972808e-02 0.0000000000000000e+00  6.7949939838006443e-03 -3.3936868463599654e-02 0.0000000000000000e+00  -1.3278021631218540e-03 -4.1822881295251919e-02 0.0000000000000000e+00  -5.2463696764210781e-04 -4.0168037518410256e-02 0.0000000000000000e+00  4.0472272885607401e-04 -8.1096848924264650e-03 0.0000000000000000e+00  7.3425550539547835e-04 -4.0722554189495920e-02 0.0000000000000000e+00  -5.1858788096360809e-04 -7.9781009838220101e-03 0.0000000000000000e+00  -2.1923508094873225e-04 -4.0065512610269575e-02 0.0000000000000000e+00  2.9073268326820990e-02 -3.6195257075262451e-02 0.0000000000000000e+00  -2.7877047969953449e-02 -2.0587210951573662e-02 0.0000000000000000e+00  2.7608520483777040e-02 -2.0064741341061273e-02 0.0000000000000000e+00  -2.8567401533528276e-02 -3.7199223584815783e-02 0.0000000000000000e+00  2.9534959616682095e-03 -3.3434592085330977e-02 0.0000000000000000e+00  -2.3072556244583789e-03 -1.7347542549780184e-02 0.0000000000000000e+00  -2.4236171751385025e-03 -4.3834669234521832e-02 0.0000000000000000e+00  7.3936487037389563e-04 -7.7756669084881819e-03 0.0000000000000000e+00  6.4017612760418757e-03 -4.9613847947990376e-02 0.0000000000000000e+00  -6.6810391345378832e-03 -8.1644918353175125e-03 0.0000000000000000e+00  -2.5163308677814541e-03 -8.4149442784948840e-03 0.0000000000000000e+00  -1.1938218626573319e-04 -1.6559771665324956e-02 0.0000000000000000e+00  3.8863768368123435e-04 -3.1097874749231157e-02 0.0000000000000000e+00  1.1384197802929692e-02 -5.2546156152806639e-02 0.0000000000000000e+00  -1.0814751996966141e-02 -7.3925560074180980e-03 0.0000000000000000e+00  -2.2170858399170345e-03 -3.2720779265745036e-02 0.0000000000000000e+00  -7.6462027824231605e-03 -2.0749425350619948e-02 0.0000000000000000e+00  5.1629691130335208e-03 -8.0171687228765953e-03 0.0000000000000000e+00  -6.2572681168847821e-03 -5.0316394714583282e-02 0.0000000000000000e+00  1.6933705045020871e-03 -8.0931881462804646e-03 0.0000000000000000e+00  2.2371807514654403e-02 -2.4635403866647011e-02 0.0000000000000000e+00  -2.2186703226419215e-02 -2.4528533080934781e-02 0.0000000000000000e+00  -4.6891489012688354e-03 -7.8678851659978316e-03 0.0000000000000000e+00  -1.1352420374641480e-02 -5.2810908354139673e-02 0.0000000000000000e+00  -5.1806666098528093e-03 -1.9891562519011308e-02 0.0000000000000000e+00  1.3526027302214022e-02 -3.7103490828137291e-02 0.0000000000000000e+00  -4.6320184307137120e-03 -4.7896543685980120e-02 0.0000000000000000e+00  -1.3291938476137804e-02 -2.0290278238659955e-02 0.0000000000000000e+00  -1.9252546392816310e-02 -3.8304001978963526e-02 0.0000000000000000e+00  -1.3630593965397102e-02 -3.7977604157460272e-02 0.0000000000000000e+00  1.8713792929140226e-02 -3.8722989918466448e-02 0.0000000000000000e+00  -4.5281975312913515e-03 -3.5389493930214816e-02 0.0000000000000000e+00  2.4394810450372745e-03 -4.5129456551305625e-02 0.0000000000000000e+00  1.0467789940461698e-02 -6.6203540252298227e-03 0.0000000000000000e+00  1.4649570798317260e-02 -1.9089702720983304e-02 0.0000000000000000e+00  -8.5843463823554178e-03 -3.2738239495289034e-02 0.0000000000000000e+00  2.7674003381684370e-03 -1.7676955125765368e-02 0.0000000000000000e+00  2.5125271705949996e-03 -7.4853694994989981e-03 0.0000000000000000e+00  7.7987929290333777e-03 -1.6597862827847313e-02 0.0000000000000000e+00  6.5397476143806968e-03 -6.9627648110020231e-03 0.0000000000000000e+00  1.9490238556111364e-03 -1.9333858166033713e-02 0.0000000000000000e+00  -1.3678761215169821e-03 -3.0132009021039928e-02 0.0000000000000000e+00  -1.4242973878943839e-04 -2.8989477168784510e-02 0.0000000000000000e+00  5.4526030909446627e-04 -1.7383264018249245e-02 0.0000000000000000e+00  5.1989928857705285e-03 -1.7261658206756379e-02 0.0000000000000000e+00  1.5423788484354368e-03 -3.2056766324451785e-02 0.0000000000000000e+00  -1.4673123327942519e-03 -1.9125830383196995e-02 0.0000000000000000e+00  3.1194368861573697e-05 -6.0892844614404288e-03 0.0000000000000000e+00  7.4268929682383907e-05 -4.1349835640731601e-02 0.0000000000000000e+00  -4.8243154731204135e-03 -2.7371702317307674e-02 0.0000000000000000e+00  3.9335366267064442e-03 -4.9508918149563805e-02 0.0000000000000000e+00  -2.4204269589157951e-04 -6.3142265440737297e-03 0.0000000000000000e+00  3.7892856113527703e-04 -4.1892591187310993e-02 0.0000000000000000e+00  1.0412327667308982e-03 -4.3703401504369514e-02 0.0000000000000000e+00  -1.7026824045110408e-02 -1.8744321460305968e-02 0.0000000000000000e+00  -8.0320427679054444e-04 -6.0919319344972505e-03 0.0000000000000000e+00  -5.9144790223155850e-04 -4.2510282006101942e-02 0.0000000000000000e+00  -2.3778564128565761e-02 -3.5344248387445612e-02 0.0000000000000000e+00  2.3948564101637961e-02 -3.4706148538264814e-02 0.0000000000000000e+00  1.7134148696077080e-02 -1.6462577232433107e-02 0.0000000000000000e+00  3.1431825510933202e-02 -2.6643772104873859e-02 0.0000000000000000e+00  -3.1711737755731488e-02 -2.9868435947332957e-02 0.0000000000000000e+00  8.0529047111310692e-04 -5.8977596162438882e-03 0.0000000000000000e+00  5.6388759606804300e-03 -3.1102149535691053e-02 0.0000000000000000e+00  -3.3085721177382758e-04 -3.5057807404686225e-02 0.0000000000000000e+00  -1.3945707190955766e-03 -4.4778198816463020e-02 0.0000000000000000e+00  -9.4440449551134390e-04 -1.4175566169177863e-02 0.0000000000000000e+00  5.3084018147826441e-03 -5.4628657342792868e-02 0.0000000000000000e+00  2.9559682715513580e-04 -1.8457024966444423e-02 0.0000000000000000e+00  -9.4945404721702377e-04 -3.4046509488603161e-02 0.0000000000000000e+00  -6.0881375988059046e-03 -5.2932841727161822e-03 0.0000000000000000e+00  1.8117821455043215e-04 -5.5870369465349321e-03 0.0000000000000000e+00  1.1487204406266740e-03 -1.3230831503307413e-02 0.0000000000000000e+00  -2.7090841629132719e-03 -5.5125187803000556e-03 0.0000000000000000e+00  -2.5182163445572319e-02 -1.6024897345910932e-02 0.0000000000000000e+00  -2.6487279967307990e-02 -4.0988092390059266e-02 0.0000000000000000e+00  2.4644808668150723e-02 -1.5219754488399564e-02 0.0000000000000000e+00  2.7040892075640224e-02 -4.0270750412526549e-02 0.0000000000000000e+00  2.1525575287419337e-03 -3.0391183570521122e-02 0.0000000000000000e+00  -2.3510727784828885e-03 -4.8898569536988450e-02 0.0000000000000000e+00  -6.4776326750503729e-03 -3.5607957564487869e-02 0.0000000000000000e+00  -5.8848269516343643e-03 -5.4059565774140013e-02 0.0000000000000000e+00  -1.2970239647524110e-03 -5.3200013217920093e-03 0.0000000000000000e+00  3.5877890012589297e-03 -2.7460350725657796e-02 0.0000000000000000e+00  8.8921583496062353e-03 -2.8865747902992036e-02 0.0000000000000000e+00  1.0215650831077864e-02 -5.5215213206804940e-02 0.0000000000000000e+00  -6.7600012058263957e-03 -4.0952555797274068e-02 0.0000000000000000e+00  -8.7414566766075182e-03 -4.3690671784003326e-03 0.0000000000000000e+00  1.4054685653836241e-02 -2.5824298697912713e-02 0.0000000000000000e+00  -3.7166223713698699e-05 -4.2966805518788044e-02 0.0000000000000000e+00  -9.7315995192448542e-03 -2.6263338345915425e-02 0.0000000000000000e+00  2.5183252081990140e-02 -2.1999231093015603e-02 0.0000000000000000e+00  -2.5170471981126465e-02 -2.2219841997781303e-02 0.0000000000000000e+00  -9.9887351716014330e-03 -5.5353311948900967e-02 0.0000000000000000e+00  -1.5926495022596240e-02 -1.3619541256608768e-02 0.0000000000000000e+00  -4.1392176264942598e-03 -1.3786751956214547e-02 0.0000000000000000e+00  -7.3078652589338633e-04 -2.1404700425423702e-02 0.0000000000000000e+00  1.0984489728628095e-03 -2.2101857573695739e-02 0.0000000000000000e+00  -6.7600239663149174e-03 -1.4272886418494543e-02 0.0000000000000000e+00  6.7644358575574010e-03 -4.7411076914957205e-03 0.0000000000000000e+00  3.8176562932878281e-03 -1.9898071663582213e-02 0.0000000000000000e+00  5.5334702160472846e-04 -4.5200121716896365e-02 0.0000000000000000e+00  -4.1168197927014556e-03 -2.1691472748647266e-02 0.0000000000000000e+00  -4.4678839461924932e-04 -4.4588152909434626e-03 0.0000000000000000e+00  4.9008364120117793e-03 -3.9130670990590977e-02 0.0000000000000000e+00  3.0066264597701474e-03 -5.4435104683160877e-03 0.0000000000000000e+00  -1.0304813783905267e-02 -1.3833947048128580e-02 0.0000000000000000e+00  1.0368204737297215e-02 -4.3964848082943903e-02 0.0000000000000000e+00  -3.2745628750918432e-04 -1.4914921740639671e-02 0.0000000000000000e+00  5.8570704426903373e-04 -3.3057128049692734e-02 0.0000000000000000e+00  -1.0363655207512576e-02 -4.4469545822872970e-02 0.0000000000000000e+00  -5.3281763006086025e-04 -4.5205948009707148e-02 0.0000000000000000e+00  -2.2715681267944685e-04 -4.330813999