<?xml version="1.0"?>
<VTKFile type="UnstructuredGrid"  version="0.1"  >
<UnstructuredGrid>
<Piece  NumberOfPoints="572" NumberOfCells="1038">
<Points>
<DataArray  type="Float64"  NumberOfComponents="3"  format="ascii">0 0 0  4 0 0  4 -1 0  0 -1 0  0.09999999999999999 0 0  0.2 0 0  0.3 0 0  0.4 0 0  0.4999999999999998 0 0  0.5999999999999996 0 0  0.6999999999999995 0 0  0.7999999999999994 0 0  0.8999999999999992 0 0  0.999999999999999 0 0  1.099999999999999 0 0  1.199999999999999 0 0  1.299999999999999 0 0  1.399999999999999 0 0  1.499999999999998 0 0  1.599999999999998 0 0  1.699999999999999 0 0  1.799999999999999 0 0  1.899999999999999 0 0  2 0 0  2.1 0 0  2.200000000000001 0 0  2.300000000000001 0 0  2.400000000000002 0 0  2.500000000000002 0 0  2.600000000000002 0 0  2.700000000000003 0 0  2.800000000000003 0 0  2.900000000000004 0 0  3.000000000000004 0 0  3.100000000000005 0 0  3.200000000000005 0 0  3.300000000000005 0 0  3.400000000000004 0 0  3.500000000000004 0 0  3.600000000000003 0 0  3.700000000000002 0 0  3.800000000000002 0 0  3.900000000000001 0 0  4 -0.08333333333333325 0  4 -0.1666666666666665 0  4 -0.2499999999999997 0  4 -0.333333333333333 0  4 -0.4166666666666666 0  4 -0.5000000000000001 0  4 -0.5833333333333337 0  4 -0.6666666666666673 0  4 -0.7500000000000006 0  4 -0.8333333333333337 0  4 -0.9166666666666669 0  3.9 -1 0  3.8 -1 0  3.7 -1 0  3.6 -1 0  3.5 -1 0  3.4 -1 0  3.300000000000001 -1 0  3.200000000000001 -1 0  3.100000000000001 -1 0  3.000000000000001 -1 0  2.900000000000001 -1 0  2.800000000000001 -1 0  2.700000000000001 -1 0  2.600000000000001 -1 0  2.500000000000002 -1 0  2.400000000000002 -1 0  2.300000000000002 -1 0  2.200000000000001 -1 0  2.100000000000001 -1 0  2 -1 0  1.9 -1 0  1.799999999999999 -1 0  1.699999999999999 -1 0  1.599999999999998 -1 0  1.499999999999998 -1 0  1.399999999999998 -1 0  1.299999999999997 -1 0  1.199999999999997 -1 0  1.099999999999996 -1 0  0.9999999999999956 -1 0  0.899999999999995 -1 0  0.7999999999999949 -1 0  0.6999999999999953 -1 0  0.5999999999999956 -1 0  0.499999999999996 -1 0  0.3999999999999968 -1 0  0.2999999999999976 -1 0  0.1999999999999984 -1 0  0.0999999999999992 -1 0  0 -0.9166666666666667 0  0 -0.8333333333333335 0  0 -0.7500000000000002 0  0 -0.666666666666667 0  0 -0.5833333333333335 0  0 -0.4999999999999999 0  0 -0.4166666666666663 0  0 -0.3333333333333327 0  0 -0.2499999999999994 0  0 -0.1666666666666663 0  0 -0.08333333333333315 0  3.491090701185765 -0.499339806301727 0  0.4950203227078167 -0.4989128584675094 0  2.64262313781888 -0.4879297506908338 0  1.449999999999998 -0.5 0  2.058402291097397 -0.5120941233772698 0  0.9749999999999992 -0.4749999999999993 0  3.081769880806683 -0.5597407802610527 0  1.745473944409859 -0.3290615136625714 0  2.347280045777389 -0.6545118286598804 0  2.335768673639667 -0.3237239238763549 0  1.750327526220345 -0.682828817540943 0  3.707492972392909 -0.3028030525063309 0  0.293580296675358 -0.7109385489008262 0  3.71498825372084 -0.7080088716251347 0  0.2918697062415769 -0.2988161261649331 0  3.250413907284768 -0.3098344370860925 0  0.7481958762886598 -0.6907216494845363 0  2.897531957111618 -0.3144800466372323 0  1.202975631932859 -0.6871206495416401 0  0.7276881720430104 -0.301075268817204 0  1.222241507685503 -0.2908020883113388 0  2.821785532795642 -0.7097679058139483 0  3.313580174540806 -0.7110306688463971 0  1.50219738324048 -0.2570217529780842 0  2.109436430026117 -0.7485141141565509 0  2.001923272149049 -0.2612004201407864 0  2.591779594323503 -0.2533220405676498 0  1.508220405676497 -0.7466779594323502 0  2.584305190871683 -0.7502831919469019 0  3.478286033189422 -0.23795222571263 0  0.5261060937617643 -0.7658117832712512 0  3.785135972681774 -0.5040707172464052 0  0.2090645029521114 -0.4969048262114374 0  0.9574438986108131 -0.2423163095862805 0  0.9754244626643473 -0.7628641460288867 0  0.5097271592765806 -0.2292760602594508 0  3.047448237147327 -0.7984168297371277 0  3.522893514415914 -0.785726174019542 0  3.27411286219494 -0.5150314861460955 0  2.876192398366876 -0.5166549013936721 0  3.072152863254761 -0.2028141497170135 0  2.188888454287124 -0.1960738743988359 0  1.911111545712876 -0.8039261256011641 0  0.6968885413728847 -0.4974520678389611 0  1.252104989604988 -0.4970114345114344 0  1.649610740490046 -0.5028202775347195 0  2.446694231298332 -0.485633542353709 0  1.845992484168205 -0.4989419599210881 0  2.246214131289309 -0.4959316037735846 0  2.743080194417513 -0.1797603284198384 0  1.345217800961618 -0.8177514544794908 0  3.831771135951664 -0.1764827624326512 0  0.168177957407361 -0.823589473522286 0  3.837430960455357 -0.8286944021295046 0  0.167391597779325 -0.1752538625856722 0  3.066111254276541 -0.3870061788029396 0  1.358909159394344 -0.1720779287034414 0  1.669284305949535 -0.172759019086266 0  2.264869859182613 -0.8283162784008133 0  2.434165412425708 -0.1697954173687042 0  1.668706113475668 -0.8314479749300888 0  1.842683258862577 -0.1656794186994128 0  3.848464877921415 -0.3616620315967092 0  0.151535122078585 -0.6383379684032905 0  3.848707346075076 -0.6466646759135177 0  0.1509968549082652 -0.3452619778382686 0  2.732975255829699 -0.3508363638623346 0  1.370252652534258 -0.6495109932111033 0  1.11832587037856 -0.1733419061976365 0  2.439737645513045 -0.836456385212641 0  3.331229791744127 -0.165499768727795 0  0.6726591332606813 -0.8336090461037186 0  1.132616756253317 -0.8280723285747189 0  1.950606351728588 -0.6518091391595896 0  2.153824719141371 -0.3536025000168445 0  3.62532407618639 -0.1564302309141494 0  0.3803710983093131 -0.8404803223371928 0  1.377912260103223 -0.3517997484404782 0  0.8924624300191402 -0.6125774599817652 0  3.207249628251628 -0.8375220474312923 0  0.6546785576266954 -0.155978749966339 0  2.719684587363634 -0.8327734580127736 0  3.647699282718985 -0.5637569936419204 0  0.3570156455557587 -0.5653989322146081 0  0.8322251523939386 -0.8403847541693579 0  0.3645988133126639 -0.1519337183240305 0  1.061404500324257 -0.6180105656135877 0  3.396758647231262 -0.3766313243368538 0  0.8148021518360848 -0.1629813466347811 0  0.6093556516052328 -0.6299486913462624 0  0.415997866655875 -0.3680522660477806 0  0.5920160015096863 -0.3645412637424194 0  3.572255424430109 -0.362089200459548 0  1.08043890485706 -0.3398660584513152 0  2.923658429424994 -0.1561137197110593 0  3.653613361778262 -0.8546909554159527 0  3.456739790681186 -0.6487708965425909 0  0.8424839600900655 -0.4190496412612194 0  2.6968241495241 -0.6460539373019687 0  2.90777185621417 -0.8467190841342236 0  3.167421855912535 -0.6853653881872064 0  3.378998015397395 -0.8550267917096944 0  2.549623533286458 -0.6074164390661531 0  1.563854363100012 -0.3870450365840445 0  1.945115925347995 -0.3956210114182645 0  2.206384380497951 -0.6363666106481864 0  2.9679770331043 -0.6663940397605803 0  2.492817266347368 -0.3527603982764793 0  1.545918816851176 -0.6075709531787901 0  2.028456012399734 -0.8701972194942087 0  2.065700499244939 -0.1359115819594244 0  1.113999927383315 -0.4803729266898425 0  3.194766700972084 -0.1349664610116483 0  1.791586588241401 -0.8656156413257059 0  2.307333345265183 -0.1346440826116952 0  2.64093544674549 -0.1331489671463476 0  0.4565707965077976 -0.6534785968762363 0  1.459077473581533 -0.8718776489042938 0  1.56279060907849 -0.1324694119967317 0  0.3144726782861624 -0.406319735913186 0  3.686635179527132 -0.4155119011072678 0  3.583227123430988 -0.6879918386850498 0  3.884530589958141 -0.5337716741137969 0  0.1138901561454064 -0.4712706309748976 0  2.551320204776417 -0.8759992125181354 0  2.968455986624249 -0.4231600805006418 0  1.843995631966074 -0.2713141166917306 0  1.23826657576458 -0.1310261345083986 0  1.632298315745049 -0.7047459448475459 0  3.454977942639006 -0.1019833897113779 0  2.11213131937471 -0.6131325843633801 0  1.631670858552932 -0.3027829344070553 0  0.549999999999996 -0.8847857258099061 0  2.175907031111534 -0.8808902127996396 0  2.440789547527098 -0.7252338716820566 0  0.9499999999999957 -0.8853403742417534 0  0.1192006629558211 -0.7258150973260704 0  0.1086302422397907 -0.2553484983400458 0  3.891615894289125 -0.7428762999771643 0  3.880790852604017 -0.2741969419997524 0  2.58999033724616 -0.3943081590477266 0  0.95310975133633 -0.1100375897447476 0  0.9389274183125247 -0.357418794071099 0  0.5436861363815539 -0.1129935035840732 0  1.237622314162623 -0.8886349339205675 0  2.766143121931948 -0.4669467935657355 0  3.157965388639583 -0.4824178848815803 0  3.732166646772587 -0.1061123528525496 0  0.8463407040907105 -0.2803849511418723 0  0.2658218649297859 -0.8967607408767373 0  3.384357462435764 -0.5450459842617623 0  1.954320722194999 -0.1009956898074866 0  0.8013980381943526 -0.5278489923710374 0  3.744358883260304 -0.603637271636247 0  0.2581863795088786 -0.6001369967359219 0  0.2629966501688439 -0.1025990268626685 0  0.3980883060404261 -0.7330050441066103 0  1.076076863672032 -0.7275728344185368 0  1.749999999999999 -0.5550190100941714 0  2.351512610076122 -0.5440435521440684 0  0.8619623856291254 -0.7246873586411677 0  3.553081028189586 -0.8932001918706867 0  2.806636304103025 -0.6100531542467602 0  2.546714489935151 -0.08818853426728746 0  1.172246975380209 -0.5783812280673658 0  1.560837452008869 -0.9052833905541354 0  3.005913589025749 -0.2858329927011495 0  3.104244827324224 -0.8867193195303111 0  0.6392996137609843 -0.7340215588892431 0  3.370409685921998 -0.2678372406131186 0  1.860045411420065 -0.6863616357695403 0  2.239306624928278 -0.3159929711989559 0  0.620090528303912 -0.2611000972275821 0  1.457468991263225 -0.08750102207080079 0  1.752790718352056 -0.1005001786212033 0  0.394717592657301 -0.2605042194828123 0  3.745581301416776 -0.9074819423317642 0  3.141158115761163 -0.2920724092797614 0  3.257376892791448 -0.6242591031763242 0  2.350280737493299 -0.9013197570937703 0  3.914203942485891 -0.125 0  3.914203942485891 -0.8750000000000003 0  0.08579605751410901 -0.1249999999999997 0  0.08579605751410968 -0.875 0  3.921126745430668 -0.4525
[...]
<PointData  Vectors="displacement"> 
<DataArray  type="Float64"  Name="displacement"  NumberOfComponents="3" format="ascii">-5.1995365132905232e-03 -3.4193169657823597e-02 0.0000000000000000e+00  4.4174719956472982e-03 -3.6103578550723006e-02 0.0000000000000000e+00  1.3385627836587973e-02 -5.5905870391011565e-03 0.0000000000000000e+00  -1.1660249141332429e-02 -4.5928753558824994e-03 0.0000000000000000e+00  1.8759058903284821e-03 -5.1687704957885841e-02 0.0000000000000000e+00  -7.3379622136868054e-04 -5.7464700813368061e-02 0.0000000000000000e+00  1.9753174790504164e-04 -5.9528550253493476e-02 0.0000000000000000e+00  -4.6232766107888683e-05 -5.9737277598850010e-02 0.0000000000000000e+00  -7.7669001552191391e-05 -5.9328260415801991e-02 0.0000000000000000e+00  8.9576932798631290e-05 -5.8312511860529104e-02 0.0000000000000000e+00  -7.6366586668288230e-05 -5.7112913839192245e-02 0.0000000000000000e+00  3.1150686404617598e-05 -5.5834305609373920e-02 0.0000000000000000e+00  -3.0184723516685719e-05 -5.4568391285730565e-02 0.0000000000000000e+00  9.9313403984336244e-06 -5.3363405316998604e-02 0.0000000000000000e+00  -8.0466666460584977e-06 -5.2245071938020089e-02 0.0000000000000000e+00  9.5299475962153567e-06 -5.1256699605164609e-02 0.0000000000000000e+00  -1.0089949429903621e-05 -5.0386365701650400e-02 0.0000000000000000e+00  -1.0864896088640103e-06 -4.9637009354836260e-02 0.0000000000000000e+00  1.6468076127884409e-06 -4.9014809079452479e-02 0.0000000000000000e+00  -2.6104999484357595e-06 -4.8513206396613072e-02 0.0000000000000000e+00  -1.1418464749946778e-06 -4.8133152834527008e-02 0.0000000000000000e+00  2.8261405333620828e-06 -4.7864083525592509e-02 0.0000000000000000e+00  -4.9849195750965057e-06 -4.7702581598083119e-02 0.0000000000000000e+00  2.3133041478973211e-06 -4.7647013518986120e-02 0.0000000000000000e+00  -3.4614981388672309e-06 -4.7696522983913470e-02 0.0000000000000000e+00  4.2036496517678477e-06 -4.7856233882152592e-02 0.0000000000000000e+00  9.0069805161584048e-08 -4.8131303282676292e-02 0.0000000000000000e+00  -3.3834330277879665e-06 -4.8496285225985092e-02 0.0000000000000000e+00  -6.8783428034649519e-06 -4.8997139517445248e-02 0.0000000000000000e+00  1.0992447078136928e-05 -4.9615021383866122e-02 0.0000000000000000e+00  -3.4020193168664431e-06 -5.0348380259895444e-02 0.0000000000000000e+00  3.2284780809540079e-06 -5.1216605170263517e-02 0.0000000000000000e+00  2.0072093484065385e-05 -5.2192411625806352e-02 0.0000000000000000e+00  2.7974990863850724e-06 -5.3285892105785014e-02 0.0000000000000000e+00  4.7584750092264950e-05 -5.4485839446948271e-02 0.0000000000000000e+00  -6.7971074935597878e-05 -5.5733917564675217e-02 0.0000000000000000e+00  2.5277832432575076e-05 -5.6962159362787944e-02 0.0000000000000000e+00  -4.8165741822041793e-05 -5.8091479105898014e-02 0.0000000000000000e+00  5.2922873688626748e-05 -5.9077547279928935e-02 0.0000000000000000e+00  9.5770060409939041e-05 -5.9514279403945117e-02 0.0000000000000000e+00  -2.1346724969865120e-04 -5.9200748827426021e-02 0.0000000000000000e+00  9.2757774455687586e-04 -5.7644785201459554e-02 0.0000000000000000e+00  -1.5275726576263811e-03 -5.2531894182962953e-02 0.0000000000000000e+00  1.9341377517861053e-02 -4.0653189821680598e-02 0.0000000000000000e+00  2.2584673837809606e-02 -3.4619630223558857e-02 0.0000000000000000e+00  3.1360642580386122e-02 -3.2101703190105649e-02 0.0000000000000000e+00  3.4428205948437672e-02 -3.2190445482192055e-02 0.0000000000000000e+00  3.2490071345642989e-02 -2.8677532837232369e-02 0.0000000000000000e+00  3.7255662168274660e-02 -2.1845924791836988e-02 0.0000000000000000e+00  3.4558053591402960e-02 -2.5840283708254832e-02 0.0000000000000000e+00  3.4814219721500013e-02 -1.6544913087047506e-02 0.0000000000000000e+00  3.0717906048879525e-02 -1.5115313889055640e-02 0.0000000000000000e+00  1.7786626414415880e-02 -1.9117439699969003e-02 0.0000000000000000e+00  2.3255753719927077e-02 9.9992537111512920e-03 0.0000000000000000e+00  -6.8151478032806865e-03 -1.3613041476132378e-02 0.0000000000000000e+00  2.4949940882828358e-03 4.1684815566090860e-03 0.0000000000000000e+00  -1.0803346077962012e-03 -1.6255716975457745e-03 0.0000000000000000e+00  7.0355697455223049e-06 1.2340432333822420e-04 0.0000000000000000e+00  1.7549012299560325e-04 9.7271951567903233e-05 0.0000000000000000e+00  -1.0714186741149736e-04 1.3721117644069345e-04 0.0000000000000000e+00  1.0680674098305967e-04 9.7159080967672734e-05 0.0000000000000000e+00  -6.0352297953478947e-05 7.6948614226040278e-05 0.0000000000000000e+00  -1.2938523839921553e-04 2.1906411454989292e-04 0.0000000000000000e+00  1.6365875712289613e-04 2.0265921779115493e-04 0.0000000000000000e+00  6.1319431325891602e-05 1.0403294951382879e-04 0.0000000000000000e+00  -1.5579938776696185e-05 2.6704920626490787e-06 0.0000000000000000e+00  3.6092293960764848e-05 2.9392265959511107e-05 0.0000000000000000e+00  -2.7780344216739966e-05 4.0455368370748040e-05 0.0000000000000000e+00  2.0240659004785328e-05 5.3284402975508756e-05 0.0000000000000000e+00  -2.2703712163328019e-06 4.5936263533562550e-06 0.0000000000000000e+00  -6.2194722422959239e-06 1.5764469823688265e-05 0.0000000000000000e+00  9.7768460067507087e-06 1.0482393457171345e-05 0.0000000000000000e+00  2.2116116592743758e-06 1.4940660880419704e-05 0.0000000000000000e+00  -1.2182228536655777e-05 2.0854248860607412e-05 0.0000000000000000e+00  -5.6685349319691673e-06 1.6746493948932943e-05 0.0000000000000000e+00  2.4171431635810931e-06 1.7329179952825319e-05 0.0000000000000000e+00  2.3393843569206168e-06 1.9153572712718017e-05 0.0000000000000000e+00  8.5664707911850611e-06 -1.0370549612914469e-06 0.0000000000000000e+00  -2.2521499891802357e-05 4.6916888938194846e-05 0.0000000000000000e+00  9.6494691642814962e-06 4.6102978736519334e-05 0.0000000000000000e+00  3.9436269994563128e-06 2.0476388375295088e-05 0.0000000000000000e+00  -2.4168830618141867e-05 4.5821021600674171e-05 0.0000000000000000e+00  3.0207941965616103e-07 4.9185245027251511e-05 0.0000000000000000e+00  -4.4040650147716219e-06 2.6734158983686528e-05 0.0000000000000000e+00  -8.2280337040744508e-05 8.8636722549249175e-05 0.0000000000000000e+00  2.9623257029679384e-05 7.7371029031707555e-05 0.0000000000000000e+00  -8.9054258361645451e-05 7.3996460637568902e-05 0.0000000000000000e+00  -7.2628687684067755e-06 1.2938116476617889e-04 0.0000000000000000e+00  -2.3109313419946985e-04 1.5666682123770254e-04 0.0000000000000000e+00  -1.5403451679889548e-04 2.9572477148736014e-04 0.0000000000000000e+00  1.1225429713976102e-03 -1.9313385096673707e-03 0.0000000000000000e+00  -2.6461150043823271e-03 3.8516582837179437e-03 0.0000000000000000e+00  6.0491042115028070e-03 -1.1022942781334045e-02 0.0000000000000000e+00  -2.4367500524975778e-02 7.0924340370770817e-03 0.0000000000000000e+00  -1.5304465270117432e-02 -1.5058382714600319e-02 0.0000000000000000e+00  -3.1690878485449187e-02 -1.7876973788727487e-02 0.0000000000000000e+00  -3.3014773781346964e-02 -1.9188797582742324e-02 0.0000000000000000e+00  -3.2068987822453508e-02 -2.3958678083214089e-02 0.0000000000000000e+00  -3.9242438424487984e-02 -3.1124716143290355e-02 0.0000000000000000e+00  -3.5651563662723672e-02 -2.4661416069352137e-02 0.0000000000000000e+00  -3.4162551912139995e-02 -3.4529789807277840e-02 0.0000000000000000e+00  -3.2213399063557829e-02 -3.2693290406484485e-02 0.0000000000000000e+00  -2.4386595638217285e-02 -3.1861827625996028e-02 0.0000000000000000e+00  -1.8900509060060508e-02 -4.1182148740034216e-02 0.0000000000000000e+00  1.7313087083899739e-02 -2.8261331792559026e-02 0.0000000000000000e+00  -1.7848519259476177e-02 -2.8320306599897493e-02 0.0000000000000000e+00  2.7097776393566276e-03 -2.5762402564224705e-02 0.0000000000000000e+00  -2.1302611840367837e-03 -2.4823514716892356e-02 0.0000000000000000e+00  1.6799356748005201e-04 -2.3366703855339854e-02 0.0000000000000000e+00  -6.7610405303547240e-03 -2.8305786795932458e-02 0.0000000000000000e+00  7.5313058032933965e-03 -2.3602345076740198e-02 0.0000000000000000e+00  -6.7372228018793034e-04 -3.2492729774235660e-02 0.0000000000000000e+00  1.0177380979730286e-03 -1.6628528447112573e-02 0.0000000000000000e+00  9.1810201664417222e-04 -3.2951208236502764e-02 0.0000000000000000e+00  -6.5144155779776284e-04 -1.5153487942511023e-02 0.0000000000000000e+00  2.1264592961923241e-02 -4.0321939034654294e-02 0.0000000000000000e+00  -1.9600270230771075e-02 -1.3478028898424942e-02 0.0000000000000000e+00  1.8866127229286846e-02 -1.4050917749610084e-02 0.0000000000000000e+00  -2.0871099854678266e-02 -4.0235672107877749e-02 0.0000000000000000e+00  8.9212224960843883e-03 -3.9643460542828225e-02 0.0000000000000000e+00  -9.2017248611919976e-03 -1.6144902520355896e-02 0.0000000000000000e+00  4.1470134489251216e-03 -3.6425300204994362e-02 0.0000000000000000e+00  -3.4426077380632488e-03 -1.5691062278096694e-02 0.0000000000000000e+00  -9.2500342152410618e-03 -4.0435041819748399e-02 0.0000000000000000e+00  -2.9802733645749408e-03 -3.6823584443497107e-02 0.0000000000000000e+00  3.4563066696342705e-03 -1.4537948708755527e-02 0.0000000000000000e+00  9.9831482346876173e-03 -1.4986117547702949e-02 0.0000000000000000e+00  -1.3059497310042958e-03 -3.6831615398394961e-02 0.0000000000000000e+00  2.3023720904396524e-04 -1.1912634999533449e-02 0.0000000000000000e+00  1.4196331378989497e-06 -3.5476529709740606e-02 0.0000000000000000e+00  1.6630653763641181e-03 -3.7482275263962077e-02 0.0000000000000000e+00  -1.3119612153390764e-03 -1.2220037346093993e-02 0.0000000000000000e+00  1.6995006846884297e-03 -1.2124755086867063e-02 0.0000000000000000e+00  1.1863213588909715e-02 -4.5627156422567622e-02 0.0000000000000000e+00  -1.1123229570330738e-02 -1.1382629111960488e-02 0.0000000000000000e+00  2.6866436481152639e-02 -2.5633501498066931e-02 0.0000000000000000e+00  -2.8264413011797194e-02 -2.7099437209863003e-02 0.0000000000000000e+00  -4.8008726618633856e-03 -4.1688369023832897e-02 0.0000000000000000e+00  -4.8274900698987997e-03 -1.1933705743073468e-02 0.0000000000000000e+00  -1.1813556651534302e-02 -4.6376068175333456e-02 0.0000000000000000e+00  4.4701685658392340e-03 -9.9377195214559923e-03 0.0000000000000000e+00  1.1651814826803398e-02 -1.0282466593458392e-02 0.0000000000000000e+00  1.1378557816377883e-02 -2.6993705963112426e-02 0.0000000000000000e+00  4.8146949280677975e-03 -2.5198824861467347e-02 0.0000000000000000e+00  4.3642012976684644e-03 -4.4056921521033875e-02 0.0000000000000000e+00  3.2267354761376704e-04 -3.8734684706214211e-02 0.0000000000000000e+00  -1.4355695141933734e-04 -9.2419224796315928e-03 0.0000000000000000e+00  -1.2156181461893562e-02 -2.8200509765602060e-02 0.0000000000000000e+00  -3.5547886895492715e-03 -2.5725434907104144e-02 0.0000000000000000e+00  -1.1558074183729023e-03 -2.4161444208438427e-02 0.0000000000000000e+00  1.5729335787720560e-03 -2.5239919007391209e-02 0.0000000000000000e+00  -4.5943065777008518e-04 -2.4069563401288116e-02 0.0000000000000000e+00  7.5711503019604861e-04 -2.4319897962514495e-02 0.0000000000000000e+00  1.8319983083051993e-03 -4.2157161418939514e-02 0.0000000000000000e+00  -1.5958189798964690e-03 -8.7833377235485618e-03 0.0000000000000000e+00  1.9724956706612111e-02 -4.5235748577935837e-02 0.0000000000000000e+00  -1.6938785312914921e-02 -9.3707701054184002e-03 0.0000000000000000e+00  1.7017330256006814e-02 -8.8676896139886080e-03 0.0000000000000000e+00  -2.0120803486352996e-02 -4.5489875817367700e-02 0.0000000000000000e+00  6.8362216602161664e-03 -3.3676770694846009e-02 0.0000000000000000e+00  -1.3646506649539240e-03 -4.1813995969522878e-02 0.0000000000000000e+00  -5.4604709773944590e-04 -4.0208340356013339e-02 0.0000000000000000e+00  4.2930857889830244e-04 -8.1053698230026897e-03 0.0000000000000000e+00  7.5779707803821450e-04 -4.0738825161923932e-02 0.0000000000000000e+00  -5.5150731721756723e-04 -7.9777309520454344e-03 0.0000000000000000e+00  -2.2907060339892802e-04 -4.0115798762182957e-02 0.0000000000000000e+00  2.8979204353496442e-02 -3.2614196721158832e-02 0.0000000000000000e+00  -2.7415790913956278e-02 -2.0839811250223293e-02 0.0000000000000000e+00  2.8262415043895702e-02 -1.9805844725482611e-02 0.0000000000000000e+00  -2.8861294394001258e-02 -3.3280816828027533e-02 0.0000000000000000e+00  3.0158621240345285e-03 -3.3373132649847252e-02 0.0000000000000000e+00  -2.3904428058642820e-03 -1.7330338400422696e-02 0.0000000000000000e+00  -2.4783553003445685e-03 -4.3723793053672071e-02 0.0000000000000000e+00  7.7481297375627369e-04 -7.7660344109932566e-03 0.0000000000000000e+00  6.3864449483769497e-03 -4.8841952002837745e-02 0.0000000000000000e+00  -6.6038432526575415e-03 -8.0483074176832033e-03 0.0000000000000000e+00  -2.6014823672145188e-03 -8.3842341938950345e-03 0.0000000000000000e+00  -1.2667596256052722e-04 -1.6570922824525641e-02 0.0000000000000000e+00  4.0433095675523878e-04 -3.1133006747029835e-02 0.0000000000000000e+00  1.1530520527912355e-02 -5.1004410073672957e-02 0.0000000000000000e+00  -1.0936830693351267e-02 -7.5196073899735233e-03 0.0000000000000000e+00  -2.2860359343998093e-03 -3.2710047738357922e-02 0.0000000000000000e+00  -7.7398547622887937e-03 -2.0565979855361412e-02 0.0000000000000000e+00  5.2389522719539713e-03 -7.9405126225876206e-03 0.0000000000000000e+00  -6.3154448870487061e-03 -4.9647180666306925e-02 0.0000000000000000e+00  1.7489829503997830e-03 -8.0729248470647625e-03 0.0000000000000000e+00  2.2164638135179351e-02 -2.3573732588870792e-02 0.0000000000000000e+00  -2.1724527649556260e-02 -2.3413946267942617e-02 0.0000000000000000e+00  -4.7324562714637598e-03 -7.7871148428814022e-03 0.0000000000000000e+00  -1.1809111805852200e-02 -5.1420333993759004e-02 0.0000000000000000e+00  -5.2972722884035636e-03 -1.9799363553509648e-02 0.0000000000000000e+00  1.3429022962193379e-02 -3.6332855040964583e-02 0.0000000000000000e+00  -4.7107605047035164e-03 -4.7522129387287157e-02 0.0000000000000000e+00  -1.3249232951182877e-02 -1.9840765605848253e-02 0.0000000000000000e+00  -1.8937685555632817e-02 -3.7147594384362624e-02 0.0000000000000000e+00  -1.3632092555931841e-02 -3.7213145719693766e-02 0.0000000000000000e+00  1.8474083703078476e-02 -3.7521652641692556e-02 0.0000000000000000e+00  -4.6174025782221920e-03 -3.5252412677616890e-02 0.0000000000000000e+00  2.4718176377596063e-03 -4.4931853364288871e-02 0.0000000000000000e+00  1.1162257398828423e-02 -6.3032994889286615e-03 0.0000000000000000e+00  1.4383235766488317e-02 -1.8527107218239851e-02 0.0000000000000000e+00  -8.6915050046680285e-03 -3.2443460774990912e-02 0.0000000000000000e+00  2.8597338930822008e-03 -1.7649827811572615e-02 0.0000000000000000e+00  2.5575507007593820e-03 -7.4718438974412382e-03 0.0000000000000000e+00  7.8551103714809851e-03 -1.6425718675995796e-02 0.0000000000000000e+00  6.4661584263732705e-03 -6.8227749371909440e-03 0.0000000000000000e+00  2.0214377258349838e-03 -1.9322542288155779e-02 0.0000000000000000e+00  -1.4193347475775124e-03 -3.0152615031892389e-02 0.0000000000000000e+00  -1.5026375520147827e-04 -2.9026237372741678e-02 0.0000000000000000e+00  5.6885864133560484e-04 -1.7391887003194662e-02 0.0000000000000000e+00  5.2696206577127098e-03 -1.7136564514384771e-02 0.0000000000000000e+00  1.5922695057137052e-03 -3.2059001569539745e-02 0.0000000000000000e+00  -1.5313865123548498e-03 -1.9130516957205253e-02 0.0000000000000000e+00  3.5530498445804766e-05 -6.0956930090330297e-03 0.0000000000000000e+00  7.6611872980296506e-05 -4.1402291470625893e-02 0.0000000000000000e+00  -4.9410119758480772e-03 -2.7284846873698178e-02 0.0000000000000000e+00  3.9351814950952281e-03 -4.8968378518001218e-02 0.0000000000000000e+00  -2.5837000470486379e-04 -6.3182080280701916e-03 0.0000000000000000e+00  3.9271439424835435e-04 -4.1925835272057829e-02 0.0000000000000000e+00  1.0642136819634079e-03 -4.3660447433041337e-02 0.0000000000000000e+00  -1.6857762475056579e-02 -1.8284069314157977e-02 0.0000000000000000e+00  -8.4461804210788976e-04 -6.0941224987108552e-03 0.0000000000000000e+00  -6.1216182527238045e-04 -4.2539589265849651e-02 0.0000000000000000e+00  -2.4493399552517146e-02 -3.4061075811684015e-02 0.0000000000000000e+00  2.3616397067089154e-02 -3.2677491562544181e-02 0.0000000000000000e+00  1.6297434780742800e-02 -1.5835261275748580e-02 0.0000000000000000e+00  3.1013523361182353e-02 -2.4479856750042651e-02 0.0000000000000000e+00  -3.1323981439058637e-02 -2.9135027523312328e-02 0.0000000000000000e+00  8.4711320477558075e-04 -5.9086776289944531e-03 0.0000000000000000e+00  5.7016224417725820e-03 -3.0928023305045932e-02 0.0000000000000000e+00  -3.4619471400682407e-04 -3.5101880392643788e-02 0.0000000000000000e+00  -1.4324332515984813e-03 -4.4716492050602123e-02 0.0000000000000000e+00  -9.9712692734011299e-04 -1.4180836155271272e-02 0.0000000000000000e+00  5.3813817213323005e-03 -5.3562566217820670e-02 0.0000000000000000e+00  3.1138844396836452e-04 -1.8472209639806825e-02 0.0000000000000000e+00  -9.8859525406013588e-04 -3.4075731016673501e-02 0.0000000000000000e+00  -6.0898534716034682e-03 -5.2760111659159240e-03 0.0000000000000000e+00  1.9282793984091664e-04 -5.5897295777387820e-03 0.0000000000000000e+00  1.2049965099113899e-03 -1.3229997713340446e-02 0.0000000000000000e+00  -2.7764025958841982e-03 -5.4521395758397508e-03 0.0000000000000000e+00  -2.3010352656780756e-02 -1.2740106334938680e-02 0.0000000000000000e+00  -2.5003695194991529e-02 -3.9418974206209233e-02 0.0000000000000000e+00  2.0420293300491797e-02 -1.0640309909218368e-02 0.0000000000000000e+00  2.6160950430112281e-02 -3.8185756446311524e-02 0.0000000000000000e+00  2.2134155111354680e-03 -3.0370230374829370e-02 0.0000000000000000e+00  -2.3967125860081544e-03 -4.8666535399903073e-02 0.0000000000000000e+00  -6.5539441227591083e-03 -3.5383514352640061e-02 0.0000000000000000e+00  -6.0716030713097516e-03 -5.3198235742613495e-02 0.0000000000000000e+00  -1.3515114621583261e-03 -5.3050573669179658e-03 0.0000000000000000e+00  3.6653231869608425e-03 -2.7397253649245085e-02 0.0000000000000000e+00  8.9194572158582362e-03 -2.8552785565100342e-02 0.0000000000000000e+00  1.0282469537964193e-02 -5.3235936562567511e-02 0.0000000000000000e+00  -6.8556242617163745e-03 -4.0590866745483317e-02 0.0000000000000000e+00  -7.3620511105228379e-03 -2.1360617369658762e-03 0.0000000000000000e+00  1.3897789951006647e-02 -2.5249891312603370e-02 0.0000000000000000e+00  -3.9494636553100403e-05 -4.3020546483310412e-02 0.0000000000000000e+00  -9.8141511224134562e-03 -2.5941043161068118e-02 0.0000000000000000e+00  2.3273485678572736e-02 -2.0606839598393285e-02 0.0000000000000000e+00  -2.3979705094540348e-02 -2.1459331359576138e-02 0.0000000000000000e+00  -1.0198406133743419e-02 -5.3556115419942228e-02 0.0000000000000000e+00  -1.4676482725420445e-02 -1.2612685876495319e-02 0.0000000000000000e+00  -4.2347274443249412e-03 -1.3714289491466178e-02 0.0000000000000000e+00  -7.6615956588516434e-04 -2.1424101914340164e-02 0.0000000000000000e+00  1.1436415768382501e-03 -2.2114428880052370e-02 0.0000000000000000e+00  -6.8395981436046001e-03 -1.4119894599298017e-02 0.0000000000000000e+00  6.1578299375933034e-03 -4.2317675262820258e-03 0.0000000000000000e+00  3.8995552776842986e-03 -1.9843930098709509e-02 0.0000000000000000e+00  5.7095639342013486e-04 -4.5191409153800773e-02 0.0000000000000000e+00  -4.2245812895598299e-03 -2.1630126118260280e-02 0.0000000000000000e+00  -4.7660823301688584e-04 -4.4553772701667275e-03 0.0000000000000000e+00  4.9357581950732737e-03 -3.8898805747174948e-02 0.0000000000000000e+00  3.0006179705924039e-03 -5.4531423779517621e-03 0.0000000000000000e+00  -1.0362490505700796e-02 -1.3530340995135328e-02 0.0000000000000000e+00  1.0286282263239629e-02 -4.3184397237286461e-02 0.0000000000000000e+00  -3.4727141550064470e-04 -1.4924857149906998e-02 0.0000000000000000e+00  6.0855203760703971e-04 -3.3089510740024683e-02 0.0000000000000000e+00  -1.0499165069237086e-02 -4.3762801238453233e-02 0.0000000000000000e+00  -5.5208676537931041e-04 -4.5220609576053589e-02 0.0000000000000000e+00  -2.3701589335282702e-04 -4.335690