<?xml version="1.0"?>
<VTKFile type="UnstructuredGrid"  version="0.1"  >
<UnstructuredGrid>
<Piece  NumberOfPoints="1855" NumberOfCells="3532">
<Points>
<DataArray  type="Float64"  NumberOfComponents="3"  format="ascii">0 0 0  30 0 0  30 -10 0  0 -10 0  0.1391574078963744 0 0  0.2856388821882616 0 0  0.4398299073010886 0 0  0.6021362569539473 0 0  0.7729850389704483 0 0  0.9528258543586996 0 0  1.142131984380316 0 0  1.34140159760994 0 0  1.551159074717981 0 0  1.771956417032531 0 0  2.004374674080994 0 0  2.249025475789527 0 0  2.506552636773105 0 0  2.777633857742732 0 0  3.062982518028728 0 0  3.363349525995907 0 0  3.679525322337712 0 0  4.01234195575742 0 0  4.362675247811097 0 0  4.731447135329707 0 0  5.119628065610077 0 0  5.528239565804708 0 0  5.958356943167011 0 0  6.411112081475485 0 0  6.887696441559404 0 0  7.389364184530748 0 0  7.917435485335147 0 0  8.473300005202017 0 0  9.058420557070402 0 0  9.674336929103793 0 0  10.32266995225095 0 0  11.00512576896296 0 0  11.72350030646412 0 0  12.47968402994705 0 0  13.27566689579597 0 0  14.1135435963616 0 0  14.9955190732806 0 0  15.92391430904694 0 0  16.90117245730496 0 0  17.92986524844506 0 0  19.01269976086341 0 0  20.15252556282024 0 0  21.35234220269763 0 0  22.61530708683689 0 0  23.94474379751883 0 0  25.34415086349739 0 0  26.81721093579712 0 0  28.3678004819169 0 0  30 -1.111111111111111 0  30 -2.222222222222222 0  30 -3.333333333333333 0  30 -4.444444444444445 0  30 -5.555555555555555 0  30 -6.666666666666666 0  30 -7.777777777777777 0  30 -8.888888888888889 0  28.36780047917311 -10 0  26.8172109305839 -10 0  25.34415085606858 -10 0  23.94474378810899 -10 0  22.61530707566275 -10 0  21.3523421899591 -10 0  20.15252554870171 -10 0  19.01269974553473 -10 0  17.92986523206254 -10 0  16.90117244001232 -10 0  15.92391429097614 -10 0  14.99551905455266 -10 0  14.11354357708742 -10 0  13.27566687607703 -10 0  12.47968400987599 -10 0  11.72350028612546 -10 0  11.00512574843363 -10 0  10.32266993160086 -10 0  9.674336908396342 -10 0  9.058420536362949 -10 0  8.473299984546333 -10 0  7.917435464777824 -10 0  7.389364164113587 -10 0  6.887696420787165 -10 0  6.411112061446698 -10 0  5.95835692337857 -10 0  5.528239546282652 -10 0  5.119628046377237 -10 0  4.731447115907979 -10 0  4.362675229213632 -10 0  4.012341937260036 -10 0  3.679525304434552 -10 0  3.363349508456405 -10 0  3.062982500861274 -10 0  2.777633840953978 -10 0  2.506552620368097 -10 0  2.249025459771861 -10 0  2.004374658452946 -10 0  1.771956401795187 -10 0  1.551159059871345 -10 0  1.341401583153029 -10 0  1.142131970307521 -10 0  0.9528258406748833 -10 0  0.7729850256685147 -10 0  0.6021362439621285 -10 0  0.4398298947504031 -10 0  0.2856388700059078 -10 0  0.1391573960769001 -10 0  0 -9.855072463768115 0  0 -9.710144927536232 0  0 -9.565217391304348 0  0 -9.420289855072463 0  0 -9.27536231884058 0  0 -9.130434782608695 0  0 -8.985507246376812 0  0 -8.840579710144928 0  0 -8.695652173913043 0  0 -8.55072463768116 0  0 -8.405797101449275 0  0 -8.260869565217391 0  0 -8.115942028985508 0  0 -7.971014492753623 0  0 -7.826086956521739 0  0 -7.681159420289855 0  0 -7.536231884057971 0  0 -7.391304347826087 0  0 -7.246376811594203 0  0 -7.101449275362318 0  0 -6.956521739130435 0  0 -6.811594202898551 0  0 -6.666666666666667 0  0 -6.521739130434783 0  0 -6.376811594202898 0  0 -6.231884057971015 0  0 -6.086956521739131 0  0 -5.942028985507246 0  0 -5.797101449275362 0  0 -5.652173913043478 0  0 -5.507246376811594 0  0 -5.36231884057971 0  0 -5.217391304347826 0  0 -5.072463768115941 0  0 -4.927536231884058 0  0 -4.782608695652174 0  0 -4.637681159420289 0  0 -4.492753623188406 0  0 -4.347826086956522 0  0 -4.202898550724638 0  0 -4.057971014492754 0  0 -3.913043478260869 0  0 -3.768115942028985 0  0 -3.623188405797101 0  0 -3.478260869565217 0  0 -3.333333333333334 0  0 -3.188405797101449 0  0 -3.043478260869565 0  0 -2.898550724637681 0  0 -2.753623188405797 0  0 -2.608695652173912 0  0 -2.463768115942029 0  0 -2.318840579710145 0  0 -2.173913043478261 0  0 -2.028985507246377 0  0 -1.884057971014492 0  0 -1.739130434782609 0  0 -1.594202898550725 0  0 -1.44927536231884 0  0 -1.304347826086957 0  0 -1.159420289855072 0  0 -1.014492753623188 0  0 -0.8695652173913047 0  0 -0.72463768115942 0  0 -0.579710144927537 0  0 -0.4347826086956523 0  0 -0.2898550724637676 0  0 -0.1449275362318829 0  5.15859856094262 -4.976557621770688 0  2.816777084926057 -7.160262673925935 0  2.81677708460006 -2.839737326002783 0  2.227649803257325 -5.003121586636773 0  1.518662968975629 -8.46230852045241 0  1.518662969184829 -1.537691480152612 0  9.960740911025725 -5.055901393541221 0  1.491099662214591 -3.691833922963321 0  1.503675657181264 -6.345020369042368 0  5.319208041801049 -7.493850249937013 0  5.291109955459268 -2.489368743223226 0  1.096914507335763 -2.53623188405797 0  1.096914507253562 -7.463768115942029 0  1.089580194952752 -4.71277167923441 0  15.07565076110197 -5.047572991082069 0  7.501630508673601 -5.937500100385354 0  0.8894869418764504 -5.623930488933245 0  2.955144522453978 -1.440834296472408 0  2.955144521140721 -8.559165705576945 0  8.106603955004623 -2.748811534843258 0  3.662152539483591 -4.228178367024407 0  3.662181528265114 -5.771746159989156 0  0.8436558190317136 -0.8541050638451999 0  0.8436558075840921 -9.145894948342754 0  0.7854168197005933 -1.811594202898552 0  0.7894693398152999 -3.286543351392342 0  0.7854168196772591 -8.188405797101449 0  0.7854168196772591 -6.739130434782609 0  20.00078956016804 -4.999999999785771 0  0.7379120031523989 -3.977302749614766 0  6.584332478112232 -3.934875417052907 0  7.295091310194352 -7.969791332537982 0  9.811174303464586 -7.412814499648229 0  4.013376806449688 -2.206189431585293 0  4.013376806983409 -7.793810569017377 0  12.11177433894592 -2.818343737884045 0  2.591152707837148 -3.990098461753838 0  2.58990939378082 -6.025895074707176 0  25.43156400064585 -5.044446479916348 0  2.03262751726143 -2.282125834846944 0  2.032627517335952 -7.717874165160392 0  12.51865094522923 -6.491408052923457 0  0.598175343983641 -6.156971652625402 0  2.126700074935224 -0.8767654465386991 0  2.126700059112423 -9.123234559633019 0  6.617961838548696 -1.617756429129908 0  0.5903949564549755 -4.980060355019413 0  1.676697585305984 -5.547101897225158 0  4.773518305133987 -3.729331162566817 0  4.77931803486508 -6.231222307502165 0  4.878549698409591 -8.72048903376362 0  4.852580875634024 -1.222215410052823 0  0.5487847095754042 -2.675169258708207 0  0.545113423825768 -7.32369553390529 0  1.78738026998851 -4.400451872599477 0  1.68244194111824 -3.010100184333533 0  1.683984276238402 -7.018293626028473 0  9.998503440677371 -2.00585287985007 0  3.693061162502273 -3.243678395563028 0  3.694987482168253 -6.757603268814477 0  6.081763036485869 -5.83414381546261 0  0.5196640460586313 -1.350633211792632 0  0.5196640458460706 -8.649366789040087 0  3.84593363904758 -0.9906418103762418 0  3.845933620847308 -9.009358200471317 0  17.41551885287501 -3.057748733689079 0  17.30725517812527 -7.002961443761516 0  8.117698464370697 -4.451550942597151 0  0.4918476668493152 -0.4789811193757592 0  0.4918476560347713 -9.521018882514893 0  1.463770869328428 -0.6252343353791154 0  1.463770854281917 -9.374765668872765 0  0.5034132782032188 -4.464280853772128 0  3.138906271796685 -4.99999841599503 0  14.61209972381335 -2.388610981020637 0  6.208601124947327 -8.776231214192325 0  14.74910972998159 -7.542186851303819 0  2.243794246335625 -1.632184311040998 0  2.243794245689214 -8.367815689183566 0  0.4590235278399923 -5.431413993025926 0  0.4971508861448406 -2.209632053221267 0  0.4971508861368665 -7.790367946777407 0  0.4644363683211541 -3.560571347760519 0  6.478811279411406 -7.007392971062433 0  1.238895267772762 -4.173677632458826 0  1.293241773632479 -2.02256720952064 0  1.293241773542714 -7.977432790434841 0  0.4324740478030531 -0.942028985507247 0  0.4324740423701829 -9.057971014492754 0  2.117396640811705 -3.472968170680347 0  2.107095929630507 -6.531506384346077 0  8.087741545730886 -1.392783601483453 0  1.028911946384717 -1.352376108341404 0  1.028911946221715 -8.647623891551962 0  4.05691976296832 -4.991522392209158 0  11.51826881314265 -8.065248940008736 0  1.618560396201739 -4.958056164503666 0  2.701984523487646 -2.141781914603403 0  2.70198452396172 -7.858218085853512 0  2.843615645746219 -9.289121726447632 0  2.843615661334342 -0.7108782798429658 0  8.678774612240533 -8.488146490452822 0  6.487906449371135 -2.667543558824978 0  8.369190916679937 -7.129867754908394 0  11.80978191929258 -4.655775487536958 0  0.3792065166453504 -3.113833531412848 0  0.4134714637263563 -6.58827691137208 0  9.551050695080825 -3.49648183875815 0  1.083867845277057 -6.036251777836495 0  0.3756430921870901 -1.80381664325008 0  0.3756430921689482 -8.196183356748573 0  3.113073783220456 -3.503408140759125 0  3.113391383189963 -6.496678880796299 0  22.62850736315072 -3.277987336300344 0  22.59385352108348 -6.800312122582239 0  0.3777114402537816 -4.137047872695438 0  0.9196816123347897 -0.4281025456111269 0  0.9196815944880363 -9.571897460530383 0  0.4052043328723194 -5.827814332459883 0  8.865857694874787 -5.767686953139113 0  1.200388325130726 -5.182186034620629 0  5.65297436943758 -4.325500846767599 0  1.200079167961391 -3.009849046583253 0  1.20883344838 -7.021823297793294 0  1.057642414577487 -3.660996704809145 0  10.88812987788297 -6.333458225047037 0  4.493502926606794 -2.839780197438185 0  4.485862892033458 -7.147606077919463 0  0.3631651408878085 -7.003529808558233 0  1.946748828463205 -6.049056369468467 0  6.918750162798794 -4.993796052442676 0  3.351203216022585 -1.980935554775394 0  3.351203216441711 -8.019064445907297 0  2.281892243515294 -2.856654416292082 0  2.281892243715877 -7.143345583598931 0  5.811143619672087 -0.9953286820321026 0  2.695713766833098 -4.565354125099452 0  2.698172168139827 -5.435483248292925 0  19.86166219288896 -2.493475492328429 0  19.83739102036415 -7.594404063416508
[...]
<PointData  Vectors="displacement"> 
<DataArray  type="Float64"  Name="displacement"  NumberOfComponents="3" format="ascii">3.3312168184919153e-02 1.7931040636499501e-02 0.0000000000000000e+00  2.7758530978884888e-08 2.0134176828709631e-05 0.0000000000000000e+00  -4.0112210989100380e-08 -2.0578499778308242e-08 0.0000000000000000e+00  2.6991252577124457e-08 -2.5944875182544059e-08 0.0000000000000000e+00  1.3590368536859861e-02 -4.9977357293362517e-03 0.0000000000000000e+00  5.1110612227175962e-03 3.1427502119542674e-04 0.0000000000000000e+00  3.7526179860594253e-03 -2.7242928698014617e-04 0.0000000000000000e+00  2.4651730115448226e-03 -1.1046470727799009e-04 0.0000000000000000e+00  1.9671096741796981e-03 -1.1092225352838746e-04 0.0000000000000000e+00  1.5632284172499825e-03 -1.0934330478469667e-04 0.0000000000000000e+00  1.3073704175210808e-03 -1.0074819659545449e-04 0.0000000000000000e+00  1.1115823946452907e-03 -1.0074299743134602e-04 0.0000000000000000e+00  9.5018035078228865e-04 -9.6250634595806115e-05 0.0000000000000000e+00  8.2756209431400756e-04 -9.5990860731640931e-05 0.0000000000000000e+00  7.2108165956534802e-04 -9.2334214518109047e-05 0.0000000000000000e+00  6.4254706401511443e-04 -8.6812426520682063e-05 0.0000000000000000e+00  5.6820408805147637e-04 -8.6159298603777663e-05 0.0000000000000000e+00  5.0969549110490295e-04 -8.4292034237926214e-05 0.0000000000000000e+00  4.5332654860388572e-04 -8.0946192575244644e-05 0.0000000000000000e+00  4.0763675885242687e-04 -7.7410086717866875e-05 0.0000000000000000e+00  3.6644667282994175e-04 -7.3479397392221390e-05 0.0000000000000000e+00  3.3042060402754017e-04 -6.9410916552562445e-05 0.0000000000000000e+00  2.9892366039262376e-04 -6.5649802493630231e-05 0.0000000000000000e+00  2.6975281058531003e-04 -6.1623196887737629e-05 0.0000000000000000e+00  2.4290909864800275e-04 -5.6465645180344421e-05 0.0000000000000000e+00  2.1958864738861456e-04 -5.0874944231895812e-05 0.0000000000000000e+00  1.9962293740760008e-04 -4.5859450736397949e-05 0.0000000000000000e+00  1.8009864421247878e-04 -4.0001515485248927e-05 0.0000000000000000e+00  1.6341954683627821e-04 -3.4323898778736138e-05 0.0000000000000000e+00  1.4750768706982327e-04 -2.8170477969707473e-05 0.0000000000000000e+00  1.3344380008885415e-04 -2.1853053569359220e-05 0.0000000000000000e+00  1.2119716699257213e-04 -1.5435883755990447e-05 0.0000000000000000e+00  1.1092001076428294e-04 -9.5516158515063565e-06 0.0000000000000000e+00  1.0087021608066543e-04 -3.4970580203889420e-06 0.0000000000000000e+00  9.2248382084866650e-05 2.1369729580961780e-06 0.0000000000000000e+00  8.4709573962585391e-05 7.5043908378610804e-06 0.0000000000000000e+00  7.8432729979760962e-05 1.2154683655570256e-05 0.0000000000000000e+00  7.2505241837514327e-05 1.6361139087228732e-05 0.0000000000000000e+00  6.7485379658474020e-05 1.9743569622618256e-05 0.0000000000000000e+00  6.2453424488709868e-05 2.2646349546340894e-05 0.0000000000000000e+00  5.8290223372808686e-05 2.4608976981910447e-05 0.0000000000000000e+00  5.3847643121309850e-05 2.6051676579703838e-05 0.0000000000000000e+00  4.9830517262220092e-05 2.6712064151492621e-05 0.0000000000000000e+00  4.5507439781396104e-05 2.6896199609005619e-05 0.0000000000000000e+00  4.1466319963932085e-05 2.6507273494973429e-05 0.0000000000000000e+00  3.6857926142193152e-05 2.5785194382501463e-05 0.0000000000000000e+00  3.2282943851492420e-05 2.4840516076531901e-05 0.0000000000000000e+00  2.7390271318642317e-05 2.3785135401956245e-05 0.0000000000000000e+00  2.2711858575245974e-05 2.2652400756686570e-05 0.0000000000000000e+00  1.7357013095114538e-05 2.1515451014532982e-05 0.0000000000000000e+00  1.1646992430441558e-05 2.0673188174513461e-05 0.0000000000000000e+00  5.8002319627701593e-06 2.0210844166338321e-05 0.0000000000000000e+00  6.6594556219024813e-08 1.6843377358734122e-05 0.0000000000000000e+00  -1.7537926494705213e-08 1.3307131907803219e-05 0.0000000000000000e+00  -8.1402034848918381e-09 1.0048302962961539e-05 0.0000000000000000e+00  1.8160673260972311e-08 7.1533977257977857e-06 0.0000000000000000e+00  -2.3717436813675516e-08 4.6314573116896257e-06 0.0000000000000000e+00  1.9387633675455489e-08 2.5790392327223533e-06 0.0000000000000000e+00  -1.4633494271973819e-08 1.0689591000564225e-06 0.0000000000000000e+00  -1.4230879153468763e-09 1.6743756817718986e-07 0.0000000000000000e+00  -2.1014988466644297e-08 -9.0412818512229866e-08 0.0000000000000000e+00  -3.4825520519635777e-10 -9.9962489272351499e-08 0.0000000000000000e+00  7.9618651677181160e-08 -1.1106974195847517e-07 0.0000000000000000e+00  1.1315216561295262e-08 -3.5360771874753078e-08 0.0000000000000000e+00  1.7941773537318632e-08 -5.7098490971170155e-08 0.0000000000000000e+00  9.2136052931384116e-08 -8.0392134815215431e-08 0.0000000000000000e+00  3.0766351765830223e-08 -1.0920219693927593e-07 0.0000000000000000e+00  1.5097661179676155e-07 -1.0217281009183602e-07 0.0000000000000000e+00  4.7612866432477911e-08 -6.4904632273493703e-08 0.0000000000000000e+00  1.4875238061757308e-07 -7.4497921350494320e-08 0.0000000000000000e+00  7.8747280869568001e-08 -3.0150726183971561e-08 0.0000000000000000e+00  1.1299815241277116e-07 -3.8049587205639195e-08 0.0000000000000000e+00  1.1589734943245540e-07 7.1975466459016183e-09 0.0000000000000000e+00  1.3602001460746330e-07 7.4364555809630818e-09 0.0000000000000000e+00  4.0266509256373108e-08 1.7588944569105898e-08 0.0000000000000000e+00  8.5151507537135004e-08 6.1425405331549351e-08 0.0000000000000000e+00  -3.0834408634049074e-09 1.8040678133973357e-08 0.0000000000000000e+00  1.2592986783963622e-07 1.6260833447399703e-07 0.0000000000000000e+00  4.1137760647338263e-08 1.1407489909466276e-07 0.0000000000000000e+00  8.8388764398136669e-08 1.0605240221030469e-07 0.0000000000000000e+00  -7.4281718126229494e-08 1.0325146608950270e-07 0.0000000000000000e+00  1.6719633581135917e-08 1.5849022408220442e-07 0.0000000000000000e+00  -9.8945879149134407e-08 2.1658526589919060e-07 0.0000000000000000e+00  -1.2011284310733255e-07 1.3294743044546098e-07 0.0000000000000000e+00  -1.1873575407127715e-07 6.4694288232726017e-08 0.0000000000000000e+00  -3.3459777420225465e-07 1.6523093487551134e-07 0.0000000000000000e+00  -1.3070798117156212e-07 7.6326706012123607e-08 0.0000000000000000e+00  -2.3272115388272404e-07 9.0330075640552132e-08 0.0000000000000000e+00  -1.4529285930085839e-07 5.6034434993481811e-08 0.0000000000000000e+00  -3.4963551891166944e-07 8.8447549938578724e-08 0.0000000000000000e+00  -3.3380397891500585e-08 -3.0577981452389922e-09 0.0000000000000000e+00  -1.4356354125577497e-07 6.0853539203535208e-09 0.0000000000000000e+00  -1.1969474989006191e-07 2.6321382691787647e-09 0.0000000000000000e+00  -8.6929728243353867e-08 -7.1808929193348899e-09 0.0000000000000000e+00  -1.9657456387992038e-07 -3.9475704613366971e-08 0.0000000000000000e+00  -4.6952452288965079e-08 -1.5941183920230916e-08 0.0000000000000000e+00  -1.6150150057634231e-07 -5.5253094476517888e-08 0.0000000000000000e+00  -2.2874762291285070e-08 -1.3425051026806661e-08 0.0000000000000000e+00  -2.8399648859417955e-08 -4.3502566951761388e-08 0.0000000000000000e+00  -7.0602144809486603e-08 -3.8380353847861154e-08 0.0000000000000000e+00  -3.8504816025005446e-08 -4.0933401128576113e-08 0.0000000000000000e+00  -9.6587859883551121e-09 -1.4577922594322418e-08 0.0000000000000000e+00  -2.2696090176170683e-08 -2.1743740978402655e-08 0.0000000000000000e+00  -2.0612148016599410e-09 -2.7693869680249229e-08 0.0000000000000000e+00  8.3652939992984081e-11 -1.4813564580387827e-08 0.0000000000000000e+00  -3.2710061506318539e-08 -2.5980997824438233e-08 0.0000000000000000e+00  7.7289856240540131e-09 -2.5962020428589553e-08 0.0000000000000000e+00  -7.8763709364111320e-09 -8.6200878728911112e-09 0.0000000000000000e+00  -6.5431437734626561e-09 7.4363106332188701e-07 0.0000000000000000e+00  9.6708158302049321e-09 1.8915087791412707e-06 0.0000000000000000e+00  -1.2063782367181190e-08 3.3678615399523301e-06 0.0000000000000000e+00  1.1051889959314022e-09 5.1790569733737827e-06 0.0000000000000000e+00  -5.6520879388901891e-09 7.2599619085222630e-06 0.0000000000000000e+00  -4.5223638484703388e-09 9.6341273517040229e-06 0.0000000000000000e+00  1.0261021950309271e-08 1.2250556686541302e-05 0.0000000000000000e+00  -9.5543238553427469e-09 1.5110006503730760e-05 0.0000000000000000e+00  8.7281083387325306e-09 1.8200089051794512e-05 0.0000000000000000e+00  -1.1588957888904922e-08 2.1502666870080900e-05 0.0000000000000000e+00  7.1398316538065039e-09 2.5009539463861552e-05 0.0000000000000000e+00  -4.6092850259802318e-09 2.8718945401745017e-05 0.0000000000000000e+00  5.1784156858416560e-09 3.2623015249372121e-05 0.0000000000000000e+00  -9.6140354776774995e-09 3.6712793897686384e-05 0.0000000000000000e+00  5.9242993709753251e-09 4.0993621417077401e-05 0.0000000000000000e+00  -7.1431332209513080e-09 4.5458266567725681e-05 0.0000000000000000e+00  -4.5976629601098247e-09 5.0119106774353911e-05 0.0000000000000000e+00  2.2954088912635414e-09 5.4950180112042001e-05 0.0000000000000000e+00  5.5386834959582326e-09 5.9990657293439952e-05 0.0000000000000000e+00  -2.6672941565921517e-09 6.5216913291487867e-05 0.0000000000000000e+00  3.9738221695509400e-09 7.0646792901927886e-05 0.0000000000000000e+00  -1.0473660306661260e-08 7.6278955717526824e-05 0.0000000000000000e+00  2.9582595990016810e-09 8.2148159286644611e-05 0.0000000000000000e+00  1.2691018342931157e-09 8.8197509955112923e-05 0.0000000000000000e+00  -1.7236420625941955e-09 9.4543991468432669e-05 0.0000000000000000e+00  -1.2691060740796126e-08 1.0113909849207304e-04 0.0000000000000000e+00  -6.1393619608558406e-09 1.0797399322648914e-04 0.0000000000000000e+00  -6.3915618836849324e-09 1.1506435874110702e-04 0.0000000000000000e+00  8.8929339373530307e-09 1.2249023854795968e-04 0.0000000000000000e+00  -1.6184267523373036e-08 1.3024589551023007e-04 0.0000000000000000e+00  5.4802764391657791e-09 1.3836158684094028e-04 0.0000000000000000e+00  -1.7976970538558970e-08 1.4684548292738189e-04 0.0000000000000000e+00  6.7961665735627669e-09 1.5576120408848090e-04 0.0000000000000000e+00  -1.4058378294090746e-08 1.6508073650141358e-04 0.0000000000000000e+00  -7.4076829837955962e-09 1.7484384287558651e-04 0.0000000000000000e+00  -9.3924446488920752e-09 1.8531962635839861e-04 0.0000000000000000e+00  -1.7889268613373364e-09 1.9610433377828521e-04 0.0000000000000000e+00  2.2284165430495005e-08 2.0782620362969192e-04 0.0000000000000000e+00  -5.4801150797871946e-08 2.2007765041719357e-04 0.0000000000000000e+00  2.9450713622055479e-08 2.3302846472265541e-04 0.0000000000000000e+00  -3.1675299239253929e-08 2.4692828276883552e-04 0.0000000000000000e+00  2.1585780301516444e-08 2.6182915538412228e-04 0.0000000000000000e+00  -3.2428866743721744e-08 2.7776877502678506e-04 0.0000000000000000e+00  -2.2324163892416646e-08 2.9479422843514235e-04 0.0000000000000000e+00  -7.0926381795435958e-09 3.1348245362757525e-04 0.0000000000000000e+00  8.3323976002533784e-08 3.3340883771268041e-04 0.0000000000000000e+00  -5.6547252003988385e-08 3.5517075971792250e-04 0.0000000000000000e+00  1.4569486049918923e-09 3.7902511868690786e-04 0.0000000000000000e+00  2.8394303112967954e-08 4.0528904061629085e-04 0.0000000000000000e+00  -2.2746738962745166e-08 4.3384390661079718e-04 0.0000000000000000e+00  -2.6980007267414012e-08 4.6515674734749654e-04 0.0000000000000000e+00  -1.4570967847470950e-07 5.0138025524230261e-04 0.0000000000000000e+00  1.5583742163612234e-07 5.4107130631905276e-04 0.0000000000000000e+00  -2.2457834153599258e-07 5.8589065640279913e-04 0.0000000000000000e+00  3.0165299162391785e-07 6.3766957178322623e-04 0.0000000000000000e+00  -4.0312777081247569e-07 6.9684464134767870e-04 0.0000000000000000e+00  1.1423024913388191e-07 7.6634153377055643e-04 0.0000000000000000e+00  -7.1581565533097540e-07 8.4793418920427654e-04 0.0000000000000000e+00  3.5338088094789538e-07 9.4936224798182066e-04 0.0000000000000000e+00  -2.0604665050288126e-06 1.0681689432530189e-03 0.0000000000000000e+00  6.7049265733509091e-07 1.2199594001594007e-03 0.0000000000000000e+00  -3.1105074752195901e-06 1.4082744730189553e-03 0.0000000000000000e+00  -3.5752250502242474e-06 1.6698639668490337e-03 0.0000000000000000e+00  3.7960427255275173e-06 2.0584779105175741e-03 0.0000000000000000e+00  -3.7585576260793458e-05 2.5842311054209604e-03 0.0000000000000000e+00  -1.0381596737875110e-04 3.4578283190733663e-03 0.0000000000000000e+00  1.1092162300005606e-03 5.1383721286520469e-03 0.0000000000000000e+00  -9.7184119981968044e-03 1.1132774429693881e-02 0.0000000000000000e+00  -1.3133076764123208e-05 -6.8836288700822502e-05 0.0000000000000000e+00  -6.1182413914464103e-05 1.6447786407230643e-05 0.0000000000000000e+00  -1.0323012518054118e-05 -8.7302177913935441e-05 0.0000000000000000e+00  -8.1955054545501888e-05 5.3877200936100176e-05 0.0000000000000000e+00  -2.9108112435856120e-05 1.7991393714473300e-05 0.0000000000000000e+00  1.0731760505809588e-06 -8.1083765119471953e-05 0.0000000000000000e+00  4.8813375000140913e-05 -2.9773949256012063e-05 0.0000000000000000e+00  -1.0285944054575870e-04 1.3946898857988463e-04 0.0000000000000000e+00  -5.3277594141011019e-05 6.8192116606348574e-05 0.0000000000000000e+00  -4.0154753572791850e-05 -1.9139788384526229e-05 0.0000000000000000e+00  1.2112410746954485e-04 -1.2477292474704830e-04 0.0000000000000000e+00  -1.4317200769468249e-04 2.3714350168102817e-04 0.0000000000000000e+00  -3.1203436157089164e-05 4.5147594365906908e-05 0.0000000000000000e+00  -6.5439012576596809e-05 1.4788185618018330e-04 0.0000000000000000e+00  4.5201836837558609e-05 3.8614616984661857e-06 0.0000000000000000e+00  1.0634633377630453e-05 -4.5545053029242034e-05 0.0000000000000000e+00  -4.2287864541975617e-05 1.1553135528055602e-04 0.0000000000000000e+00  2.3714814849652799e-04 -2.0093524198907584e-04 0.0000000000000000e+00  -4.1174889650308028e-05 5.9017094381227252e-06 0.0000000000000000e+00  9.9018734551708352e-05 -6.1079743518426219e-05 0.0000000000000000e+00  -3.8458672884286278e-05 -5.7855959200127083e-05 0.0000000000000000e+00  -6.3527507082357431e-05 -1.5447690817342556e-05 0.0000000000000000e+00  1.1794081692197572e-05 -6.1279730590784790e-05 0.0000000000000000e+00  -1.1153120050808653e-05 8.6808631670399631e-06 0.0000000000000000e+00  -1.9776300936101177e-04 3.8175814982448404e-04 0.0000000000000000e+00  -9.1025850050549756e-05 2.7072889134926613e-04 0.0000000000000000e+00  -1.8174135151826832e-05 2.8521802271662674e-05 0.0000000000000000e+00  -2.8011476301038358e-05 7.2809760217447939e-05 0.0000000000000000e+00  2.8409779569286645e-05 8.4731783905055976e-06 0.0000000000000000e+00  -6.3598474526394276e-05 2.2035545545214755e-04 0.0000000000000000e+00  5.4698455773451482e-05 -8.5318097019535132e-05 0.0000000000000000e+00  -1.2687980284405223e-05 -1.5916732874330309e-05 0.0000000000000000e+00  1.6564082079315393e-05 -1.4343679133507335e-05 0.0000000000000000e+00  1.3369647903614613e-04 -1.5597134447741537e-04 0.0000000000000000e+00  -5.2068552303931420e-05 -4.2470470275299366e-06 0.0000000000000000e+00  7.2069574283258213e-05 -4.7592000476577829e-06 0.0000000000000000e+00  -7.7114610630648470e-05 6.3729719206538684e-06 0.0000000000000000e+00  -7.1937657492736023e-05 2.9886919848809171e-05 0.0000000000000000e+00  1.1663190318270495e-05 6.4440840357679849e-06 0.0000000000000000e+00  -3.8041354271601378e-05 -5.0143961149988664e-05 0.0000000000000000e+00  -4.6737143954995836e-05 2.5567986004658720e-05 0.0000000000000000e+00  3.6765245833199186e-05 -6.4893413616451531e-06 0.0000000000000000e+00  -2.5353591874440060e-05 9.9203098785329192e-05 0.0000000000000000e+00  4.1887087835205771e-04 -2.5709946131283613e-04 0.0000000000000000e+00  -2.4544032594017865e-05 5.7376583209477296e-06 0.0000000000000000e+00  1.5213482492591531e-04 -8.2523784205459300e-05 0.0000000000000000e+00  -3.5824703604353018e-05 1.6021497100490313e-04 0.0000000000000000e+00  -6.8401930497182016e-05 8.1992382874266969e-05 0.0000000000000000e+00  2.7588633114738611e-05 -1.0346925658349549e-04 0.0000000000000000e+00  -4.5296290493285224e-05 -3.4185816280175484e-05 0.0000000000000000e+00  -3.3170468336590547e-05 -4.4440441590109165e-06 0.0000000000000000e+00  2.2216099364260019e-04 -1.2306956164618064e-04 0.0000000000000000e+00  -9.8697085130538951e-05 3.8578368310408426e-04 0.0000000000000000e+00  -1.6885239070055909e-05 5.5188332193678910e-05 0.0000000000000000e+00  -8.9706912678398960e-05 9.5336874444068109e-05 0.0000000000000000e+00  -1.1136559880733860e-04 9.5618791613829668e-05 0.0000000000000000e+00  -4.9349999427800859e-05 4.6031521482398178e-05 0.0000000000000000e+00  9.4678645265320685e-05 -2.2941873742151438e-05 0.0000000000000000e+00  1.5250231910578594e-05 -1.0658650979098533e-04 0.0000000000000000e+00  -6.2344332303003078e-05 -5.0340914682665288e-06 0.0000000000000000e+00  -1.2394790970786214e-05 -5.2612824957820342e-05 0.0000000000000000e+00  -2.6432196343975401e-04 6.3237110952337925e-04 0.0000000000000000e+00  -9.9129994940073826e-06 1.8655765875057926e-05 0.0000000000000000e+00  2.9106331416137160e-04 -1.5176047126149695e-04 0.0000000000000000e+00  -3.1861769964772454e-05 1.9442231423124721e-07 0.0000000000000000e+00  4.4513332523992667e-05 1.4804609432496756e-05 0.0000000000000000e+00  2.6315295046569961e-05 2.6570443669110936e-06 0.0000000000000000e+00  5.2110544892791350e-05 -5.7210672067239557e-05 0.0000000000000000e+00  7.4225015777368210e-05 -1.0151154015662224e-04 0.0000000000000000e+00  -4.0864384940883003e-06 3.7964371922739796e-06 0.0000000000000000e+00  6.0401723129948411e-04 -3.3436980093387168e-04 0.0000000000000000e+00  -1.4156593931737613e-05 4.6173173825498527e-06 0.0000000000000000e+00  -3.7302480575453689e-05 1.9852313841564538e-04 0.0000000000000000e+00  -7.0089389649461499e-05 -6.3053099200892476e-06 0.0000000000000000e+00  5.9647660139497367e-05 1.2137406287332895e-05 0.0000000000000000e+00  -2.1102196764965451e-05 -6.6125926062102510e-06 0.0000000000000000e+00  2.6561050356076434e-05 -2.4787717947148305e-07 0.0000000000000000e+00  1.3062118162985187e-04 -1.8181217929649386e-04 0.0000000000000000e+00  -3.9826595762962537e-05 1.3576583009160673e-05 0.0000000000000000e+00  -2.4373151258103270e-05 1.3768470455307978e-04 0.0000000000000000e+00  -1.2663961046726279e-04 4.8126665843675661e-04 0.0000000000000000e+00  -1.3450631312962036e-05 4.0853515156903183e-05 0.0000000000000000e+00  -5.1838431228296717e-05 2.8270352619830230e-04 0.0000000000000000e+00  -2.0351359645486280e-05 -3.0831289477337707e-05 0.0000000000000000e+00  -8.4199192219598865e-05 1.5864618152976829e-04 0.0000000000000000e+00  -1.3470741046718967e-04 1.2606061377957225e-04 0.0000000000000000e+00  -3.0769172497306278e-05 2.9815160459314765e-05 0.0000000000000000e+00  -3.7565442191219524e-04 7.9414260014598907e-04 0.0000000000000000e+00  -6.3188892268702284e-06 1.0683508626852139e-05 0.0000000000000000e+00  -9.1630734963507617e-05 4.1317661477184989e-05 0.0000000000000000e+00  -6.2493498589786658e-05 4.3567436094833583e-05 0.0000000000000000e+00  1.2749459432058441e-04 -4.6531540895307994e-05 0.0000000000000000e+00  -1.2952481900262500e-04 1.0150980115823824e-04 0.0000000000000000e+00  -1.9005875943183064e-05 1.7084808162814001e-05 0.0000000000000000e+00  -4.5184900861583952e-05 -4.6749465704959428e-05 0.0000000000000000e+00  1.9066559069723069e-05 -5.1053567199291999e-06 0.0000000000000000e+00  -7.6957757205351103e-05 1.0003835007885972e-04 0.0000000000000000e+00  6.9744230659838358e-05 -1.4606907534369054e-04 0.0000000000000000e+00  -5.1532135606522445e-05 1.3519690753796124e-05 0.0000000000000000e+00  -2.3888485066700215e-05 2.5504108964329532e-06 0.0000000000000000e+00  4.1499227400776021e-04 -1.8581567607784704e-04 0.0000000000000000e+00  4.2310807951353432e-07 -8.1556256253683776e-06 0.0000000000000000e+00  1.1031641590640337e-04 -9.6115761033088907e-05 0.0000000000000000e+00  5.7430215400779250e-06 -2.3804000822633236e-05 0.0000000000000000e+00  5.5937629816297825e-05 -1.248