<?xml version="1.0"?>
<VTKFile type="UnstructuredGrid"  version="0.1"  >
<UnstructuredGrid>
<Piece  NumberOfPoints="158" NumberOfCells="262">
<Points>
<DataArray  type="Float64"  NumberOfComponents="3"  format="ascii">0 0 0  4 0 0  4 -1 0  0 -1 0  0.2 0 0  0.4 0 0  0.5999999999999996 0 0  0.7999999999999994 0 0  0.999999999999999 0 0  1.199999999999999 0 0  1.399999999999999 0 0  1.599999999999998 0 0  1.799999999999999 0 0  2 0 0  2.200000000000001 0 0  2.400000000000002 0 0  2.600000000000002 0 0  2.800000000000003 0 0  3.000000000000004 0 0  3.200000000000005 0 0  3.400000000000004 0 0  3.600000000000003 0 0  3.800000000000002 0 0  4 -0.1666666666666665 0  4 -0.333333333333333 0  4 -0.5000000000000001 0  4 -0.6666666666666673 0  4 -0.8333333333333337 0  3.8 -1 0  3.6 -1 0  3.4 -1 0  3.200000000000001 -1 0  3.000000000000001 -1 0  2.800000000000001 -1 0  2.600000000000001 -1 0  2.400000000000002 -1 0  2.200000000000001 -1 0  2 -1 0  1.799999999999999 -1 0  1.599999999999998 -1 0  1.399999999999998 -1 0  1.199999999999997 -1 0  0.9999999999999956 -1 0  0.7999999999999949 -1 0  0.5999999999999956 -1 0  0.3999999999999968 -1 0  0.1999999999999984 -1 0  0 -0.8333333333333335 0  0 -0.666666666666667 0  0 -0.4999999999999999 0  0 -0.3333333333333327 0  0 -0.1666666666666663 0  0.5011091303400885 -0.1684111069684565 0  3.504070075109525 -0.8338421712242186 0  0.8998623058915838 -0.1628434801184197 0  1.522437583685393 -0.1745069896329776 0  2.509568103663844 -0.8371051956356447 0  3.101703542878191 -0.173754430148137 0  2.10958715953244 -0.8421338295768326 0  0.1430770050520012 -0.582186139040922 0  3.857249942490458 -0.416695651893061 0  0.6995171644995515 -0.8276388294922135 0  2.907409569267793 -0.8332400448781822 0  1.292407016314053 -0.8311604054900932 0  1.693214096019824 -0.8255157184055558 0  2.70064929018064 -0.1805402310402375 0  1.865067440590986 -0.1603322376777995 0  2.301234301414897 -0.1982389485217391 0  3.502741274162394 -0.1718893359251323 0  3.860052610510448 -0.7448593434531819 0  0.1402213229937876 -0.2551406565468182 0  0.2900434613910339 -0.8269948961882101 0  0.4983319478822099 -0.8285218188852435 0  0.5989387834897055 -0.6569339504925271 0  0.7977037256057655 -0.6549170401624053 0  0.6974951240990164 -0.4842556488975156 0  0.5003204738460012 -0.4878381407463389 0  0.898982026178738 -0.4869614388040555 0  0.9975499209857299 -0.6547988397429363 0  1.098823835031914 -0.4830817056647918 0  0.4095702603876905 -0.6600120512040862 0  3.710507987937398 -0.1727497257133437 0  3.593391512376415 -0.3374906340126578 0  3.40755009291791 -0.3412018617608665 0  3.506130837614473 -0.5055293734550208 0  3.312203166921131 -0.5108651323304004 0  3.302038178320863 -0.171994960758633 0  3.207130679176592 -0.3445648648636596 0  3.007767954790685 -0.3514994309235006 0  3.115484741283026 -0.5151464415087377 0  2.916270221991155 -0.528541633292662 0  3.212954018126947 -0.6714649031302918 0  2.807841279375304 -0.3599623307271441 0  2.717461373146774 -0.5410030328240791 0  2.603948161452751 -0.3805904374231003 0  2.518197789569688 -0.556677421664993 0  2.40804881332787 -0.388779396333453 0  2.319067373875114 -0.5719462852972251 0  2.209114090673854 -0.4025658187458989 0  2.119743918692672 -0.5873989045477014 0  2.008977740299113 -0.4339377666428682 0  1.920769687915469 -0.6102821898446725 0  1.808202159711391 -0.4565025235322174 0  2.068813936552332 -0.2170809168960589 0  2.501652448378115 -0.1956872643975385 0  0.3076624772338545 -0.4944120383279846 0  0.698925877382897 -0.1650741516057102 0  1.190294525417183 -0.6579053474484179 0  1.282639644818398 -0.4914149131366459 0  1.199926887189454 -0.3236163206658926 0  1.721448192769266 -0.626653152736931 0  1.612028666582824 -0.4647428075334646 0  1.531110626800434 -0.6458996673568085 0  1.700610743223328 -0.2856457656745917 0  2.902993677870804 -0.1776260704731699 0  2.712264139606489 -0.8373945557852772 0  2.312785457198007 -0.8439045559070025 0  1.896252065234859 -0.8011320787955156 0  1.096535211665365 -0.8285417224163082 0  0.8989598072752283 -0.8273857418164019 0  3.690831043148146 -0.5001739113583656 0  3.590716929235477 -0.6674272964169783 0  3.103313170182249 -0.8324464972088637 0  0.2893870879275013 -0.171663056784221 0  3.710261789927855 -0.828290328456653 0  0.4090311421408754 -0.3308899695548421 0  3.863818356520775 -0.2562569815840356 0  0.1363704412563811 -0.7435140872218871 0  0.141569992328817 -0.4164009167637319 0  3.858553008080201 -0.5825103733396572 0  1.492516446834469 -0.8328129591266364 0  3.40916987975832 -0.6693764697289007 0  0.5983859152857645 -0.3289462539079804 0  1.314161019997608 -0.1650292120492679 0  0.8008153962400379 -0.3243934401912182 0  1.393393142646197 -0.3288033584739716 0  0.9985013106696408 -0.3228273893676189 0  3.304917857196174 -0.8345216735487124 0  1.102075253958048 -0.1623860670335332 0  3.018762550189796 -0.6716649976655067 0  2.822274841490501 -0.6777851507160148 0  1.363594157518602 -0.6697485997512856 0  2.621101804732247 -0.6871456900296684 0  1.454685114038307 -0.4909555277555895 0  1.699999999999999 -0.1230340341038491 0  3.741816471843712 -0.3342027751229419 0  2.421258308275765 -0.6957866933246678 0  0.2582288425270016 -0.3334291252591423 0  0.2589106434026343 -0.6666666666666664 0  3.742083076180426 -0.6646522506049672 0  1.893748075330308 -0.3174550116844129 0  3.874062880087661 -0.8812966010486338 0  0.1259216821842577 -0.1186940759995411 0  0.1252827805294827 -0.8807684633486861 0  3.874865268891635 -0.1191346747928091 0  1.546300355848248 -0.3306595912386202 0  2.218531256330168 -0.7074183216096745 0  2.035052977928386 -0.704988297997085 0  </DataArray>
</Points>
<Cells>
<DataArray  type="UInt32"  Name="connectivity"  format="ascii">13 14 103  67 96 98  101 110 117  64 110 117  67 98 103  13 66 103  14 67 103  64 110 112  64 112 130  67 96 104  15 16 104  65 92 94  65 94 104  16 65 104  15 67 104  65 92 114  31 122 137  98 100 103  88 89 90  19 57 86  66 113 144  66 113 150  21 68 81  68 81 82  87 88 89  94 96 104  9 133 138  91 122 137  73 76 80  83 85 87  88 92 114  45 71 72  83 86 87  71 72 80  57 86 87  19 20 86  76 80 105  45 46 71  100 103 150  21 22 81  72 73 80  6 52 106  20 21 68  77 134 136  29 30 53  5 6 52  44 61 72  73 75 76  44 45 72  20 68 86  63 107 118  61 72 73  41 63 118  85 87 89  88 90 92  7 54 106  6 7 106  68 82 83  59 105 128  17 65 114  17 18 114  41 42 118  43 44 61  28 29 124  4 5 123  57 87 88  85 89 91  55 113 144  102 110 111  110 111 112  102 111 113  18 19 57  35 36 116  32 33 62  36 37 58  36 58 116  34 35 56  37 38 117  16 17 65  14 15 67  38 64 117  33 34 115  35 56 116  38 39 64  40 41 63  37 58 117  7 8 54  12 13 66  10 11 55  33 62 115  34 56 115  101 102 110  100 101 102  90 92 93  99 100 101  73 74 75  66 103 150  98 99 100  97 98 99  96 97 98  74 78 119  79 108 109  95 96 97  43 61 119  94 95 96  79 107 108  42 43 119  93 94 95  78 79 107  92 93 94  82 83 84  18 57 114  78 107 118  61 74 119  77 78 79  42 118 119  109 133 138  57 88 114  78 118 119  60 120 129  61 73 74  74 77 78  74 75 77  31 32 122  82 84 120  53 121 124  83 84 85  54 134 136  68 83 86  84 120 121  108 109 135  29 53 124  5 52 123  32 62 122  39 64 130  40 63 130  76 105 125  89 91 139  91 122 139  76 125 132  53 121 131  9 10 133  63 130 141  52 125 132  48 49 59  24 25 60  49 50 128  25 26 129  50 51 70  26 27 69  47 48 127  84 121 131  23 24 126  39 40 130  52 123 125  77 79 136  52 106 132  30 31 137  112 130 141  109 133 135  84 85 131  75 76 132  85 91 131  69 124 151  70 123 152  106 132 134  54 106 134  8 54 138  107 108 141  55 113 155  49 59 128  25 60 129  48 59 127  50 70 128  26 69 129  24 60 126  53 131 137  75 132 134  62 122 139  62 115 140  2 28 151  0 4 152  3 46 153  1 22 154  12 66 144  11 55 144  10 55 133  59 105 148  8 9 138  102 113 150  91 131 137  28 124 151  4 123 152  75 77 134  108 141 143  115 140 142  30 53 137  101 117 157  79 109 136  62 139 140  56 115 142  89 90 139  69 124 149  70 123 147  60 120 145  120 129 149  46 71 153  22 81 154  54 136 138  56 142 146  80 105 148  2 27 151  0 51 152  3 47 153  1 23 154  55 133 135  56 116 146  120 121 149  121 124 149  105 128 147  81 82 145  82 120 145  116 146 156  71 80 148  109 136 138  90 93 140  123 125 147  71 127 153  81 126 154  58 116 156  63 107 141  90 139 140  105 125 147  135 143 155  93 140 142  58 156 157  93 95 142  58 117 157  95 142 146  111 112 143  11 12 144  112 141 143  95 97 146  111 143 155  81 126 145  71 127 148  108 135 143  97 146 156  100 102 150  111 113 155  97 99 156  99 156 157  99 101 157  51 70 152  27 69 151  47 127 153  23 126 154  60 126 145  70 128 147  59 127 148  69 129 149  55 135 155  </DataArray>
<DataArray  type="UInt32"  Name="offsets"  format="ascii">3 6 9 12 15 18 21 24 27 30 33 36 39 42 45 48 51 54 57 60 63 66 69 72 75 78 81 84 87 90 93 96 99 102 105 108 111 114 117 120 123 126 129 132 135 138 141 144 147 150 153 156 159 162 165 168 171 174 177 180 183 186 189 192 195 198 201 204 207 210 213 216 219 222 225 228 231 234 237 240 243 246 249 252 255 258 261 264 267 270 273 276 279 282 285 288 291 294 297 300 303 306 309 312 315 318 321 324 327 330 333 336 339 342 345 348 351 354 357 360 363 366 369 372 375 378 381 384 387 390 393 396 399 402 405 408 411 414 417 420 423 426 429 432 435 438 441 444 447 450 453 456 459 462 465 468 471 474 477 480 483 486 489 492 495 498 501 504 507 510 513 516 519 522 525 528 531 534 537 540 543 546 549 552 555 558 561 564 567 570 573 576 579 582 585 588 591 594 597 600 603 606 609 612 615 618 621 624 627 630 633 636 639 642 645 648 651 654 657 660 663 666 669 672 675 678 681 684 687 690 693 696 699 702 705 708 711 714 717 720 723 726 729 732 735 738 741 744 747 750 753 756 759 762 765 768 771 774 777 780 783 786 </DataArray>
<DataArray  type="UInt8"  Name="types"  format="ascii">5 5 5 5 5 5 5 5 5 5 5 5 5 5 5 5 5 5 5 5 5 5 5 5 5 5 5 5 5 5 5 5 5 5 5 5 5 5 5 5 5 5 5 5 5 5 5 5 5 5 5 5 5 5 5 5 5 5 5 5 5 5 5 5 5 5 5 5 5 5 5 5 5 5 5 5 5 5 5 5 5 5 5 5 5 5 5 5 5 5 5 5 5 5 5 5 5 5 5 5 5 5 5 5 5 5 5 5 5 5 5 5 5 5 5 5 5 5 5 5 5 5 5 5 5 5 5 5 5 5 5 5 5 5 5 5 5 5 5 5 5 5 5 5 5 5 5 5 5 5 5 5 5 5 5 5 5 5 5 5 5 5 5 5 5 5 5 5 5 5 5 5 5 5 5 5 5 5 5 5 5 5 5 5 5 5 5 5 5 5 5 5 5 5 5 5 5 5 5 5 5 5 5 5 5 5 5 5 5 5 5 5 5 5 5 5 5 5 5 5 5 5 5 5 5 5 5 5 5 5 5 5 5 5 5 5 5 5 5 5 5 5 5 5 5 5 5 5 5 5 5 5 5 5 5 5 5 5 5 5 5 5 </DataArray>
</Cells>
<PointData  Vectors="displacement"> 
<DataArray  type="Float64"  Name="displacement"  NumberOfComponents="3" format="ascii">-5.2076453438430988e-02 -1.9526458450708595e-01 0.0000000000000000e+00  5.2078655819598134e-02 -1.9527367067206511e-01 0.0000000000000000e+00  -1.2325421461099828e-05 2.7872545239427602e-05 0.0000000000000000e+00  1.1936402284836606e-05 2.5655234028685710e-05 0.0000000000000000e+00  -1.1980631415145288e-02 -1.7993780336224691e-01 0.0000000000000000e+00  -1.4374699121990177e-03 -1.7829103610887354e-01 0.0000000000000000e+00  1.1923300284076292e-04 -1.7892540699341558e-01 0.0000000000000000e+00  2.4145835340537623e-04 -1.7929452799233231e-01 0.0000000000000000e+00  2.0728541675776527e-04 -1.7956928259983196e-01 0.0000000000000000e+00  1.5932437994948233e-04 -1.7967428428045754e-01 0.0000000000000000e+00  1.0727940852412715e-04 -1.7890245943499561e-01 0.0000000000000000e+00  6.2820739393129336e-05 -1.8048335446429267e-01 0.0000000000000000e+00  2.4223593791148543e-05 -1.8188181575487580e-01 0.0000000000000000e+00  -1.0294067437206749e-05 -1.7717816557568439e-01 0.0000000000000000e+00  -3.7894708726266564e-05 -1.7606323483215228e-01 0.0000000000000000e+00  -7.5394255967198951e-05 -1.7754056676642213e-01 0.0000000000000000e+00  -1.1238620926196862e-04 -1.7808254536563006e-01 0.0000000000000000e+00  -1.5494596165760495e-04 -1.7874422740913717e-01 0.0000000000000000e+00  -2.0277624144221697e-04 -1.7869327725911299e-01 0.0000000000000000e+00  -2.3545995091434939e-04 -1.7873878788080103e-01 0.0000000000000000e+00  -1.1797028739391887e-04 -1.7858185547319674e-01 0.0000000000000000e+00  1.4461088647562607e-03 -1.7818199589315761e-01 0.0000000000000000e+00  1.1985981167338825e-02 -1.7988985268789690e-01 0.0000000000000000e+00  2.5928651179735262e-02 -7.9811054804083154e-02 0.0000000000000000e+00  7.4758103428936244e-03 -2.4631252177390952e-02 0.0000000000000000e+00  1.4188930566881378e-03 -5.6338433154684252e-03 0.0000000000000000e+00  -3.0362047944532450e-05 -8.9132813833033432e-04 0.0000000000000000e+00  -2.2820167428496253e-04 -5.5430486855937309e-05 0.0000000000000000e+00  -1.7271264482480131e-05 6.7469206851019346e-06 0.0000000000000000e+00  -2.6752790158400001e-05 8.7703812248249156e-06 0.0000000000000000e+00  -2.1654630323374570e-05 4.4004070230668385e-06 0.0000000000000000e+00  -1.9101087459788139e-05 2.4036182450113119e-06 0.0000000000000000e+00  -1.6412715124761550e-05 -4.1830088431890024e-07 0.0000000000000000e+00  -1.2542944398657341e-05 -2.9136333871573860e-06 0.0000000000000000e+00  -9.2197135768410852e-06 1.4084740190947976e-06 0.0000000000000000e+00  -6.1900304726411095e-06 7.3228816273450071e-07 0.0000000000000000e+00  -2.3800990398440280e-06 3.4976728878860587e-06 0.0000000000000000e+00  2.2520157459913395e-06 7.2859041445716530e-06 0.0000000000000000e+00  2.6128498004148183e-06 -8.9433143455264295e-06 0.0000000000000000e+00  6.2610486794679873e-06 -6.2983150368045782e-06 0.0000000000000000e+00  1.0357171560594682e-05 1.2699425042627698e-05 0.0000000000000000e+00  1.3487906411871129e-05 1.1808576487921528e-05 0.0000000000000000e+00  1.7227825020426203e-05 6.2305991071883415e-06 0.0000000000000000e+00  2.0457694683309497e-05 8.7419922952018090e-06 0.0000000000000000e+00  2.3357856554636606e-05 1.3501959896575227e-05 0.0000000000000000e+00  2.7457374802068581e-05 1.5165224076081806e-05 0.0000000000000000e+00  1.7263535701338019e-05 7.2527885195739358e-06 0.0000000000000000e+00  2.2859464706286440e-04 -5.3193860399659990e-05 0.0000000000000000e+00  2.7974350880805382e-05 -8.9150279651202644e-04 0.0000000000000000e+00  -1.4125229981061672e-03 -5.6410908255487184e-03 0.0000000000000000e+00  -7.4850844592718032e-03 -2.4600914945832109e-02 0.0000000000000000e+00  -2.5874124829444477e-02 -7.9781484942886130e-02 0.0000000000000000e+00  -1.5922265863574806e-04 -7.2223106151478700e-02 0.0000000000000000e+00  -2.2293065532008239e-04 -1.0463177002497065e-04 0.0000000000000000e+00  1.5614200351914958e-04 -7.5165885032314902e-02 0.0000000000000000e+00  8.2996855436397177e-05 -6.9848889294291172e-02 0.0000000000000000e+00  -7.8481773250034217e-05 -9.2549444106979976e-05 0.0000000000000000e+00  -1.5404228851298069e-04 -6.9608178817880298e-02 0.0000000000000000e+00  -1.9685099110908356e-05 -9.8018908636937185e-05 0.0000000000000000e+00  1.1933863921783547e-04 -2.1372910169718288e-03 0.0000000000000000e+00  8.2086439233935873e-04 -1.0663412487423867e-02 0.0000000000000000e+00  2.0401325051069583e-04 -1.1527251191243164e-04 0.0000000000000000e+00  -1.4188009876038788e-04 -8.3063352503133305e-05 0.0000000000000000e+00  1.1238278289484129e-04 -1.1949039657009180e-04 0.0000000000000000e+00  4.9458413500883802e-05 -6.4472763977450830e-05 0.0000000000000000e+00  -9.5917644137358019e-05 -6.6245668943816255e-02 0.0000000000000000e+00  1.0514170481121741e-05 -7.7042168218014614e-02 0.0000000000000000e+00  -3.4422668291094477e-05 -5.8644948498608823e-02 0.0000000000000000e+00  1.8215926780226101e-04 -7.0443750106078007e-02 0.0000000000000000e+00  -2.6100869780799809e-04 -3.2546623693352359e-04 0.0000000000000000e+00  -4.9395345423743795e-03 -3.9757332454507403e-02 0.0000000000000000e+00  2.4715177218729911e-04 -1.1876994849536690e-04 0.0000000000000000e+00  2.2711150700168163e-04 -1.2541877790611322e-04 0.0000000000000000e+00  2.4713609855206946e-04 -9.2515225224205726e-04 0.0000000000000000e+00  2.1621872650157988e-04 -9.8315592313024660e-04 0.0000000000000000e+00  2.3171306899027002e-04 -6.2837798681982301e-03 0.0000000000000000e+00  2.1289033796941190e-04 -6.0656262608829066e-03 0.0000000000000000e+00  1.9561033537662283e-04 -6.0572117568300230e-03 0.0000000000000000e+00  1.8186355322189686e-04 -9.8147111373567087e-04 0.0000000000000000e+00  1.6182215845079971e-04 -6.3318541173837178e-03 0.0000000000000000e+00  2.6467536828645469e-04 -8.8992685128392603e-04 0.0000000000000000e+00  2.8754151309157571e-03 -6.8657780732209364e-02 0.0000000000000000e+00  3.7167055103158566e-05 -2.1783376740287606e-02 0.0000000000000000e+00  -1.5660524683928947e-04 -2.1409167765664108e-02 0.0000000000000000e+00  -2.2202318095265389e-04 -5.0508552225449702e-03 0.0000000000000000e+00  -2.3949227098919056e-04 -4.7913599469428117e-03 0.0000000000000000e+00  -1.5812490489757125e-04 -7.0374191046519416e-02 0.0000000000000000e+00  -1.9883499988904130e-04 -2.0846799145282209e-02 0.0000000000000000e+00  -1.7113785619067708e-04 -1.9631877706106464e-02 0.0000000000000000e+00  -2.0198927042115757e-04 -4.6472805036375797e-03 0.0000000000000000e+00  -1.7261461502850726e-04 -4.0273545426078271e-03 0.0000000000000000e+00  -2.1610558330470423e-04 -8.7590259393252763e-04 0.0000000000000000e+00  -1.4251045595189277e-04 -1.8115936503221495e-02 0.0000000000000000e+00  -1.3442286154646718e-04 -3.6699237190038298e-03 0.0000000000000000e+00  -1.1478939328791519e-04 -1.5041030369373818e-02 0.0000000000000000e+00  -9.4828477032438339e-05 -3.1723335430907810e-03 0.0000000000000000e+00  -8.8171058911223400e-05 -1.4081524410918715e-02 0.0000000000000000e+00  -5.2231305526948293e-05 -2.6422118626039529e-03 0.0000000000000000e+00  -3.3196070042399268e-05 -1.2351911247362552e-02 0.0000000000000000e+00  -1.4390482378990948e-05 -2.3330997756583031e-03 0.0000000000000000e+00  1.6834333298402883e-05 -9.6159786997604794e-03 0.0000000000000000e+00  1.5399925778584787e-05 -1.7371403988331263e-03 0.0000000000000000e+00  3.3255763185446202e-05 -8.1837256105640882e-03 0.0000000000000000e+00  -2.2717076397514257e-05 -5.0641626388655936e-02 0.0000000000000000e+00  -6.0087769783164460e-05 -5.9531254906198754e-02 0.0000000000000000e+00  9.3901875918763297e-05 -5.4533174075277798e-03 0.0000000000000000e+00  1.5718925478051918e-04 -7.3869337604263771e-02 0.0000000000000000e+00  1.4691121493804276e-04 -9.4400487091588024e-04 0.0000000000000000e+00  1.2030439050149398e-04 -5.7764416005749459e-03 0.0000000000000000e+00  1.3419788372620641e-04 -2.4982709759616587e-02 0.0000000000000000e+00  4.8214824517405356e-05 -1.3959053474334529e-03 0.0000000000000000e+00  6.6046846291171552e-05 -7.3444109688642119e-03 0.0000000000000000e+00  8.6653799641216793e-05 -1.1133604623621408e-03 0.0000000000000000e+00  7.1917066994147191e-05 -3.3266894688634793e-02 0.0000000000000000e+00  -1.2711665526268784e-04 -6.7822157816235476e-02 0.0000000000000000e+00  -1.1007558390020222e-04 -8.2928914771710627e-05 0.0000000000000000e+00  -4.6542163179063905e-05 -8.1505094774977701e-05 0.0000000000000000e+00  1.6863902639949294e-05 -1.1504258109218208e-04 0.0000000000000000e+00  1.4419867202771348e-04 -1.0590449509736205e-04 0.0000000000000000e+00  1.7505502950716393e-04 -1.0711355120661457e-04 0.0000000000000000e+00  -1.1226161054870174e-04 -5.1463963627475413e-03 0.0000000000000000e+00  -2.6521665629896735e-04 -8.5714148334707337e-04 0.0000000000000000e+00  -1.7202330319711942e-04 -9.3218393085345769e-05 0.0000000000000000e+00  -2.9028866677581278e-03 -6.9226801059272827e-02 0.0000000000000000e+00  -2.4590044576939092e-04 -1.1145917307141944e-04 0.0000000000000000e+00  -5.3478780401241769e-05 -2.3127662217708348e-02 0.0000000000000000e+00  5.0687353247572137e-03 -3.9514986231415951e-02 0.0000000000000000e+00  2.5821704304944903e-04 -3.4037793890951968e-04 0.0000000000000000e+00  -8.5113920911055450e-04 -1.0707832303239573e-02 0.0000000000000000e+00  -1.1485274865549517e-04 -2.1423375307494277e-03 0.0000000000000000e+00  8.0983998731220427e-05 -9.5575748597834904e-05 0.0000000000000000e+00  -2.4640961884715240e-04 -8.8885653042030202e-04 0.0000000000000000e+00  1.4757304045440349e-04 -2.3896298456390571e-02 0.0000000000000000e+00  1.0427782260558936e-04 -7.4381607785530643e-02 0.0000000000000000e+00  1.9397865666021327e-04 -2.4803333413670952e-02 0.0000000000000000e+00  1.0114223108000701e-04 -2.4011485235119260e-02 0.0000000000000000e+00  1.6312288122753468e-04 -2.5124092875365215e-02 0.0000000000000000e+00  -2.0010379055605777e-04 -9.4339338778644277e-05 0.0000000000000000e+00  1.2692312663279478e-04 -7.5469505811082097e-02 0.0000000000000000e+00  -1.8311926381229553e-04 -9.1712852337548880e-04 0.0000000000000000e+00  -1.4582503861688297e-04 -8.8159224325511988e-04 0.0000000000000000e+00  1.1813048447663906e-04 -7.9872857285263150e-04 0.0000000000000000e+00  -1.0997544012153130e-04 -7.8513317499673686e-04 0.0000000000000000e+00  8.7295387320681736e-05 -5.8522605195557723e-03 0.0000000000000000e+00  3.6555651424537669e-05 -9.7148362874593400e-02 0.0000000000000000e+00  1.1140802315790293e-03 -2.2448171675600360e-02 0.0000000000000000e+00  -7.4403257380195850e-05 -7.4648520884479440e-04 0.0000000000000000e+00  -1.1435204190001803e-03 -2.2610997732346112e-02 0.0000000000000000e+00  2.3616473524090681e-04 -8.7527214151068649e-04 0.0000000000000000e+00  -2.3359448208556431e-04 -9.2216947380263908e-04 0.0000000000000000e+00  2.2571651912692419e-05 -2.7666665798532417e-02 0.0000000000000000e+00  -1.9990578259070541e-04 -6.0355668506153755e-05 0.0000000000000000e+00  -1.4719142805281187e-02 -9.7401213614802307e-02 0.0000000000000000e+00  2.0115224994296570e-04 -5.7399747605555022e-05 0.0000000000000000e+00  1.4777020088208559e-02 -9.7149178360603092e-02 0.0000000000000000e+00  8.0082108153937558e-05 -2.4660309759331516e-02 0.0000000000000000e+00  -3.9021024393904815e-05 -6.6530092821050451e-04 0.0000000000000000e+00  -8.4405522230682854e-06 -7.0845710941613469e-04 0.0000000000000000e+00  </DataArray> 
</PointData> 
</Piece>
</UnstructuredGrid>
</VTKFile>