<?xml version="1.0"?>
<VTKFile type="UnstructuredGrid"  version="0.1"  >
<UnstructuredGrid>
<Piece  NumberOfPoints="1855" NumberOfCells="3532">
<Points>
<DataArray  type="Float64"  NumberOfComponents="3"  format="ascii">0 0 0  30 0 0  30 -10 0  0 -10 0  0.1391574078963744 0 0  0.2856388821882616 0 0  0.4398299073010886 0 0  0.6021362569539473 0 0  0.7729850389704483 0 0  0.9528258543586996 0 0  1.142131984380316 0 0  1.34140159760994 0 0  1.551159074717981 0 0  1.771956417032531 0 0  2.004374674080994 0 0  2.249025475789527 0 0  2.506552636773105 0 0  2.777633857742732 0 0  3.062982518028728 0 0  3.363349525995907 0 0  3.679525322337712 0 0  4.01234195575742 0 0  4.362675247811097 0 0  4.731447135329707 0 0  5.119628065610077 0 0  5.528239565804708 0 0  5.958356943167011 0 0  6.411112081475485 0 0  6.887696441559404 0 0  7.389364184530748 0 0  7.917435485335147 0 0  8.473300005202017 0 0  9.058420557070402 0 0  9.674336929103793 0 0  10.32266995225095 0 0  11.00512576896296 0 0  11.72350030646412 0 0  12.47968402994705 0 0  13.27566689579597 0 0  14.1135435963616 0 0  14.9955190732806 0 0  15.92391430904694 0 0  16.90117245730496 0 0  17.92986524844506 0 0  19.01269976086341 0 0  20.15252556282024 0 0  21.35234220269763 0 0  22.61530708683689 0 0  23.94474379751883 0 0  25.34415086349739 0 0  26.81721093579712 0 0  28.3678004819169 0 0  30 -1.111111111111111 0  30 -2.222222222222222 0  30 -3.333333333333333 0  30 -4.444444444444445 0  30 -5.555555555555555 0  30 -6.666666666666666 0  30 -7.777777777777777 0  30 -8.888888888888889 0  28.36780047917311 -10 0  26.8172109305839 -10 0  25.34415085606858 -10 0  23.94474378810899 -10 0  22.61530707566275 -10 0  21.3523421899591 -10 0  20.15252554870171 -10 0  19.01269974553473 -10 0  17.92986523206254 -10 0  16.90117244001232 -10 0  15.92391429097614 -10 0  14.99551905455266 -10 0  14.11354357708742 -10 0  13.27566687607703 -10 0  12.47968400987599 -10 0  11.72350028612546 -10 0  11.00512574843363 -10 0  10.32266993160086 -10 0  9.674336908396342 -10 0  9.058420536362949 -10 0  8.473299984546333 -10 0  7.917435464777824 -10 0  7.389364164113587 -10 0  6.887696420787165 -10 0  6.411112061446698 -10 0  5.95835692337857 -10 0  5.528239546282652 -10 0  5.119628046377237 -10 0  4.731447115907979 -10 0  4.362675229213632 -10 0  4.012341937260036 -10 0  3.679525304434552 -10 0  3.363349508456405 -10 0  3.062982500861274 -10 0  2.777633840953978 -10 0  2.506552620368097 -10 0  2.249025459771861 -10 0  2.004374658452946 -10 0  1.771956401795187 -10 0  1.551159059871345 -10 0  1.341401583153029 -10 0  1.142131970307521 -10 0  0.9528258406748833 -10 0  0.7729850256685147 -10 0  0.6021362439621285 -10 0  0.4398298947504031 -10 0  0.2856388700059078 -10 0  0.1391573960769001 -10 0  0 -9.855072463768115 0  0 -9.710144927536232 0  0 -9.565217391304348 0  0 -9.420289855072463 0  0 -9.27536231884058 0  0 -9.130434782608695 0  0 -8.985507246376812 0  0 -8.840579710144928 0  0 -8.695652173913043 0  0 -8.55072463768116 0  0 -8.405797101449275 0  0 -8.260869565217391 0  0 -8.115942028985508 0  0 -7.971014492753623 0  0 -7.826086956521739 0  0 -7.681159420289855 0  0 -7.536231884057971 0  0 -7.391304347826087 0  0 -7.246376811594203 0  0 -7.101449275362318 0  0 -6.956521739130435 0  0 -6.811594202898551 0  0 -6.666666666666667 0  0 -6.521739130434783 0  0 -6.376811594202898 0  0 -6.231884057971015 0  0 -6.086956521739131 0  0 -5.942028985507246 0  0 -5.797101449275362 0  0 -5.652173913043478 0  0 -5.507246376811594 0  0 -5.36231884057971 0  0 -5.217391304347826 0  0 -5.072463768115941 0  0 -4.927536231884058 0  0 -4.782608695652174 0  0 -4.637681159420289 0  0 -4.492753623188406 0  0 -4.347826086956522 0  0 -4.202898550724638 0  0 -4.057971014492754 0  0 -3.913043478260869 0  0 -3.768115942028985 0  0 -3.623188405797101 0  0 -3.478260869565217 0  0 -3.333333333333334 0  0 -3.188405797101449 0  0 -3.043478260869565 0  0 -2.898550724637681 0  0 -2.753623188405797 0  0 -2.608695652173912 0  0 -2.463768115942029 0  0 -2.318840579710145 0  0 -2.173913043478261 0  0 -2.028985507246377 0  0 -1.884057971014492 0  0 -1.739130434782609 0  0 -1.594202898550725 0  0 -1.44927536231884 0  0 -1.304347826086957 0  0 -1.159420289855072 0  0 -1.014492753623188 0  0 -0.8695652173913047 0  0 -0.72463768115942 0  0 -0.579710144927537 0  0 -0.4347826086956523 0  0 -0.2898550724637676 0  0 -0.1449275362318829 0  5.15859856094262 -4.976557621770688 0  2.816777084926057 -7.160262673925935 0  2.81677708460006 -2.839737326002783 0  2.227649803257325 -5.003121586636773 0  1.518662968975629 -8.46230852045241 0  1.518662969184829 -1.537691480152612 0  9.960740911025725 -5.055901393541221 0  1.491099662214591 -3.691833922963321 0  1.503675657181264 -6.345020369042368 0  5.319208041801049 -7.493850249937013 0  5.291109955459268 -2.489368743223226 0  1.096914507335763 -2.53623188405797 0  1.096914507253562 -7.463768115942029 0  1.089580194952752 -4.71277167923441 0  15.07565076110197 -5.047572991082069 0  7.501630508673601 -5.937500100385354 0  0.8894869418764504 -5.623930488933245 0  2.955144522453978 -1.440834296472408 0  2.955144521140721 -8.559165705576945 0  8.106603955004623 -2.748811534843258 0  3.662152539483591 -4.228178367024407 0  3.662181528265114 -5.771746159989156 0  0.8436558190317136 -0.8541050638451999 0  0.8436558075840921 -9.145894948342754 0  0.7854168197005933 -1.811594202898552 0  0.7894693398152999 -3.286543351392342 0  0.7854168196772591 -8.188405797101449 0  0.7854168196772591 -6.739130434782609 0  20.00078956016804 -4.999999999785771 0  0.7379120031523989 -3.977302749614766 0  6.584332478112232 -3.934875417052907 0  7.295091310194352 -7.969791332537982 0  9.811174303464586 -7.412814499648229 0  4.013376806449688 -2.206189431585293 0  4.013376806983409 -7.793810569017377 0  12.11177433894592 -2.818343737884045 0  2.591152707837148 -3.990098461753838 0  2.58990939378082 -6.025895074707176 0  25.43156400064585 -5.044446479916348 0  2.03262751726143 -2.282125834846944 0  2.032627517335952 -7.717874165160392 0  12.51865094522923 -6.491408052923457 0  0.598175343983641 -6.156971652625402 0  2.126700074935224 -0.8767654465386991 0  2.126700059112423 -9.123234559633019 0  6.617961838548696 -1.617756429129908 0  0.5903949564549755 -4.980060355019413 0  1.676697585305984 -5.547101897225158 0  4.773518305133987 -3.729331162566817 0  4.77931803486508 -6.231222307502165 0  4.878549698409591 -8.72048903376362 0  4.852580875634024 -1.222215410052823 0  0.5487847095754042 -2.675169258708207 0  0.545113423825768 -7.32369553390529 0  1.78738026998851 -4.400451872599477 0  1.68244194111824 -3.010100184333533 0  1.683984276238402 -7.018293626028473 0  9.998503440677371 -2.00585287985007 0  3.693061162502273 -3.243678395563028 0  3.694987482168253 -6.757603268814477 0  6.081763036485869 -5.83414381546261 0  0.5196640460586313 -1.350633211792632 0  0.5196640458460706 -8.649366789040087 0  3.84593363904758 -0.9906418103762418 0  3.845933620847308 -9.009358200471317 0  17.41551885287501 -3.057748733689079 0  17.30725517812527 -7.002961443761516 0  8.117698464370697 -4.451550942597151 0  0.4918476668493152 -0.4789811193757592 0  0.4918476560347713 -9.521018882514893 0  1.463770869328428 -0.6252343353791154 0  1.463770854281917 -9.374765668872765 0  0.5034132782032188 -4.464280853772128 0  3.138906271796685 -4.99999841599503 0  14.61209972381335 -2.388610981020637 0  6.208601124947327 -8.776231214192325 0  14.74910972998159 -7.542186851303819 0  2.243794246335625 -1.632184311040998 0  2.243794245689214 -8.367815689183566 0  0.4590235278399923 -5.431413993025926 0  0.4971508861448406 -2.209632053221267 0  0.4971508861368665 -7.790367946777407 0  0.4644363683211541 -3.560571347760519 0  6.478811279411406 -7.007392971062433 0  1.238895267772762 -4.173677632458826 0  1.293241773632479 -2.02256720952064 0  1.293241773542714 -7.977432790434841 0  0.4324740478030531 -0.942028985507247 0  0.4324740423701829 -9.057971014492754 0  2.117396640811705 -3.472968170680347 0  2.107095929630507 -6.531506384346077 0  8.087741545730886 -1.392783601483453 0  1.028911946384717 -1.352376108341404 0  1.028911946221715 -8.647623891551962 0  4.05691976296832 -4.991522392209158 0  11.51826881314265 -8.065248940008736 0  1.618560396201739 -4.958056164503666 0  2.701984523487646 -2.141781914603403 0  2.70198452396172 -7.858218085853512 0  2.843615645746219 -9.289121726447632 0  2.843615661334342 -0.7108782798429658 0  8.678774612240533 -8.488146490452822 0  6.487906449371135 -2.667543558824978 0  8.369190916679937 -7.129867754908394 0  11.80978191929258 -4.655775487536958 0  0.3792065166453504 -3.113833531412848 0  0.4134714637263563 -6.58827691137208 0  9.551050695080825 -3.49648183875815 0  1.083867845277057 -6.036251777836495 0  0.3756430921870901 -1.80381664325008 0  0.3756430921689482 -8.196183356748573 0  3.113073783220456 -3.503408140759125 0  3.113391383189963 -6.496678880796299 0  22.62850736315072 -3.277987336300344 0  22.59385352108348 -6.800312122582239 0  0.3777114402537816 -4.137047872695438 0  0.9196816123347897 -0.4281025456111269 0  0.9196815944880363 -9.571897460530383 0  0.4052043328723194 -5.827814332459883 0  8.865857694874787 -5.767686953139113 0  1.200388325130726 -5.182186034620629 0  5.65297436943758 -4.325500846767599 0  1.200079167961391 -3.009849046583253 0  1.20883344838 -7.021823297793294 0  1.057642414577487 -3.660996704809145 0  10.88812987788297 -6.333458225047037 0  4.493502926606794 -2.839780197438185 0  4.485862892033458 -7.147606077919463 0  0.3631651408878085 -7.003529808558233 0  1.946748828463205 -6.049056369468467 0  6.918750162798794 -4.993796052442676 0  3.351203216022585 -1.980935554775394 0  3.351203216441711 -8.019064445907297 0  2.281892243515294 -2.856654416292082 0  2.281892243715877 -7.143345583598931 0  5.811143619672087 -0.9953286820321026 0  2.695713766833098 -4.565354125099452 0  2.698172168139827 -5.435483248292925 0  19.86166219288896 -2.493475492328429 0  19.83739102036415 -7.594404063416508
[...]
<PointData  Vectors="displacement"> 
<DataArray  type="Float64"  Name="displacement"  NumberOfComponents="3" format="ascii">1.0891949947499617e-01 5.4188074329971810e-02 0.0000000000000000e+00  1.7016512034141511e-07 1.2390324374981064e-04 0.0000000000000000e+00  -2.4706717996713045e-07 -1.2678036884605601e-07 0.0000000000000000e+00  1.6131918235901210e-07 -1.5506488739610006e-07 0.0000000000000000e+00  5.5662444985045544e-02 7.1661487697192603e-03 0.0000000000000000e+00  3.0738873525194169e-02 2.9648691442643238e-03 0.0000000000000000e+00  2.1179133133350320e-02 9.1594929072860926e-04 0.0000000000000000e+00  1.4933553536020060e-02 4.8151916765081589e-04 0.0000000000000000e+00  1.1902892907121545e-02 3.6593979851237658e-05 0.0000000000000000e+00  9.5320941432222514e-03 -1.5545924287898371e-04 0.0000000000000000e+00  7.9990450939366412e-03 -2.6196646294698910e-04 0.0000000000000000e+00  6.8153332194712890e-03 -3.5705294540784599e-04 0.0000000000000000e+00  5.8350566743614373e-03 -3.9275836598372048e-04 0.0000000000000000e+00  5.0860506465043422e-03 -4.3533848859199462e-04 0.0000000000000000e+00  4.4368990071759441e-03 -4.4489204902209732e-04 0.0000000000000000e+00  3.9560715676439503e-03 -4.3563013182002343e-04 0.0000000000000000e+00  3.4999694688749318e-03 -4.4885374899692214e-04 0.0000000000000000e+00  3.1406615303709541e-03 -4.5152205946792884e-04 0.0000000000000000e+00  2.7946587820726261e-03 -4.4179956283901231e-04 0.0000000000000000e+00  2.5139354922760122e-03 -4.2881223739792270e-04 0.0000000000000000e+00  2.2608146524526781e-03 -4.1179370682492626e-04 0.0000000000000000e+00  2.0392924697342032e-03 -3.9256930758692793e-04 0.0000000000000000e+00  1.8455504756098445e-03 -3.7434177929218995e-04 0.0000000000000000e+00  1.6659859597064541e-03 -3.5367890584049063e-04 0.0000000000000000e+00  1.5008076829993138e-03 -3.2543405154222788e-04 0.0000000000000000e+00  1.3572560249463363e-03 -2.9407489776738698e-04 0.0000000000000000e+00  1.2342606202513865e-03 -2.6585900867683146e-04 0.0000000000000000e+00  1.1139891740962180e-03 -2.3216180435121317e-04 0.0000000000000000e+00  1.0111576681506125e-03 -1.9929480245736204e-04 0.0000000000000000e+00  9.1299638420023414e-04 -1.6329420978445473e-04 0.0000000000000000e+00  8.2617473364017579e-04 -1.2603552630472437e-04 0.0000000000000000e+00  7.5052146848426276e-04 -8.8022676614028415e-05 0.0000000000000000e+00  6.8695493678425383e-04 -5.3132884764839720e-05 0.0000000000000000e+00  6.2473081217817800e-04 -1.7051821390024380e-05 0.0000000000000000e+00  5.7127375017029781e-04 1.6622562246403414e-05 0.0000000000000000e+00  5.2448392425390622e-04 4.8772808032816743e-05 0.0000000000000000e+00  4.8545105653746050e-04 7.6639662621077212e-05 0.0000000000000000e+00  4.4856809215052754e-04 1.0191347839773089e-04 0.0000000000000000e+00  4.1729264133778950e-04 1.2222203156022515e-04 0.0000000000000000e+00  3.8594600191207967e-04 1.3970600428179364e-04 0.0000000000000000e+00  3.5999030981430721e-04 1.5150308355673525e-04 0.0000000000000000e+00  3.3234574882093181e-04 1.6019360882146497e-04 0.0000000000000000e+00  3.0736207100346953e-04 1.6414347834025624e-04 0.0000000000000000e+00  2.8054074861338181e-04 1.6523005867310236e-04 0.0000000000000000e+00  2.5550436515440317e-04 1.6282844931711849e-04 0.0000000000000000e+00  2.2701544764920157e-04 1.5841376954430376e-04 0.0000000000000000e+00  1.9876573132492976e-04 1.5264639853960877e-04 0.0000000000000000e+00  1.6859638571111910e-04 1.4620630413186752e-04 0.0000000000000000e+00  1.3977291915708302e-04 1.3928786897001965e-04 0.0000000000000000e+00  1.0680496212460914e-04 1.3233764644174413e-04 0.0000000000000000e+00  7.1661961912854156e-05 1.2718983562733460e-04 0.0000000000000000e+00  3.5685640897798002e-05 1.2436778821434230e-04 0.0000000000000000e+00  4.0973139781953608e-07 1.0365347290847420e-04 0.0000000000000000e+00  -1.0787739379753544e-07 8.1891026871984353e-05 0.0000000000000000e+00  -5.0115217312015150e-08 6.1834349477460105e-05 0.0000000000000000e+00  1.1183693306016261e-07 4.4017922988741618e-05 0.0000000000000000e+00  -1.4597123211355882e-07 2.8498028119726861e-05 0.0000000000000000e+00  1.1933542384697982e-07 1.5868188802011522e-05 0.0000000000000000e+00  -9.0011657858254068e-08 6.5764326873210136e-06 0.0000000000000000e+00  -8.7171120226136163e-09 1.0292243684150234e-06 0.0000000000000000e+00  -1.2879299397581550e-07 -5.5630454096863207e-07 0.0000000000000000e+00  -1.4851537522340113e-09 -6.1460241184535251e-07 0.0000000000000000e+00  4.9054175490886144e-07 -6.8261883782558435e-07 0.0000000000000000e+00  6.9503228251776166e-08 -2.1682471934311875e-07 0.0000000000000000e+00  1.1021624293679498e-07 -3.4958953893892174e-07 0.0000000000000000e+00  5.6454670757484026e-07 -4.9192239676436469e-07 0.0000000000000000e+00  1.8790299179129750e-07 -6.6592923683339870e-07 0.0000000000000000e+00  9.2075735790535661e-07 -6.2306605446148739e-07 0.0000000000000000e+00  2.8941629724447422e-07 -3.9387521631049760e-07 0.0000000000000000e+00  9.0369439111076185e-07 -4.5227868908486744e-07 0.0000000000000000e+00  4.7741183477487158e-07 -1.8088892617492336e-07 0.0000000000000000e+00  6.8269377837880989e-07 -2.2901453038260489e-07 0.0000000000000000e+00  6.9988630608986389e-07 4.6800673520651123e-08 0.0000000000000000e+00  8.1650139593820156e-07 4.9090981917559137e-08 0.0000000000000000e+00  2.3947064050987715e-07 1.0867110284442452e-07 0.0000000000000000e+00  5.0699120631598558e-07 3.7529320050921777e-07 0.0000000000000000e+00  -2.1580888418164659e-08 1.1057246144432084e-07 0.0000000000000000e+00  7.4619065438283870e-07 9.8662461304889353e-07 0.0000000000000000e+00  2.3971552756373834e-07 6.9110816449933864e-07 0.0000000000000000e+00  5.2577521268231604e-07 6.4080998586991086e-07 0.0000000000000000e+00  -4.5737492250291532e-07 6.2485281694633907e-07 0.0000000000000000e+00  8.7703854596190998e-08 9.5467780959607637e-07 0.0000000000000000e+00  -6.1535677902958166e-07 1.3034894896568467e-06 0.0000000000000000e+00  -7.3355321866665683e-07 7.9917647564762489e-07 0.0000000000000000e+00  -7.1872363075278301e-07 3.8898917798634776e-07 0.0000000000000000e+00  -2.0244087141152813e-06 9.9173073532886136e-07 0.0000000000000000e+00  -7.9232977283577834e-07 4.5632421296546131e-07 0.0000000000000000e+00  -1.4039606505355900e-06 5.4055278794415597e-07 0.0000000000000000e+00  -8.7811490585071571e-07 3.3359042626579986e-07 0.0000000000000000e+00  -2.1071209079370851e-06 5.2638107838143876e-07 0.0000000000000000e+00  -2.0249774324813543e-07 -1.9332861558951199e-08 0.0000000000000000e+00  -8.6470886530704969e-07 3.4422796380232797e-08 0.0000000000000000e+00  -7.1905097634640753e-07 1.4151759685380479e-08 0.0000000000000000e+00  -5.2183432313815670e-07 -4.4236264987613164e-08 0.0000000000000000e+00  -1.1809019060268568e-06 -2.3859982972645621e-07 0.0000000000000000e+00  -2.8194221578338455e-07 -9.5932469429374814e-08 0.0000000000000000e+00  -9.6883345983680299e-07 -3.3159000107231816e-07 0.0000000000000000e+00  -1.3719897113780039e-07 -8.0580416982748680e-08 0.0000000000000000e+00  -1.7010256455532725e-07 -2.6085087200693434e-07 0.0000000000000000e+00  -4.2293646753383918e-07 -2.2975660062034654e-07 0.0000000000000000e+00  -2.3068284712746112e-07 -2.4504279573566246e-07 0.0000000000000000e+00  -5.7887333561072769e-08 -8.7211729445336410e-08 0.0000000000000000e+00  -1.3583512995220153e-07 -1.3004493714030371e-07 0.0000000000000000e+00  -1.2423488959438448e-08 -1.6561389149171765e-07 0.0000000000000000e+00  4.3226110404894358e-10 -8.8561629839730570e-08 0.0000000000000000e+00  -1.9555893629668125e-07 -1.5529896449105318e-07 0.0000000000000000e+00  4.6149454109016361e-08 -1.5518076668132944e-07 0.0000000000000000e+00  -4.7080899174449613e-08 -5.1517165270401729e-08 0.0000000000000000e+00  -3.9099955952103250e-08 4.4796273370973722e-06 0.0000000000000000e+00  5.7787425817988253e-08 1.1375036009623233e-05 0.0000000000000000e+00  -7.2062521166019144e-08 2.0232990753971237e-05 0.0000000000000000e+00  6.6458609723582609e-09 3.1090773002964314e-05 0.0000000000000000e+00  -3.3768228992289656e-08 4.3558704712850648e-05 0.0000000000000000e+00  -2.6910547707665776e-08 5.7776458064831885e-05 0.0000000000000000e+00  6.1148216675233399e-08 7.3438550988123044e-05 0.0000000000000000e+00  -5.6869897668309203e-08 9.0548500240290937e-05 0.0000000000000000e+00  5.1909424271632039e-08 1.0903097352384184e-04 0.0000000000000000e+00  -6.8791080302298035e-08 1.2877669784896006e-04 0.0000000000000000e+00  4.2312739097224185e-08 1.4973532290017282e-04 0.0000000000000000e+00  -2.7239929948617527e-08 1.7189474182123028e-04 0.0000000000000000e+00  3.0623045154455776e-08 1.9520645834542413e-04 0.0000000000000000e+00  -5.6708920272162528e-08 2.1961564054289614e-04 0.0000000000000000e+00  3.4896548276273904e-08 2.4515183119136079e-04 0.0000000000000000e+00  -4.1961381059066135e-08 2.7177046032864370e-04 0.0000000000000000e+00  -2.7024346961374711e-08 2.9954243622167480e-04 0.0000000000000000e+00  1.3445132208151218e-08 3.2831174552785518e-04 0.0000000000000000e+00  3.2235130071627408e-08 3.5830825257931136e-04 0.0000000000000000e+00  -1.5512936898257917e-08 3.8938881702052183e-04 0.0000000000000000e+00  2.3070228587373979e-08 4.2165692939827824e-04 0.0000000000000000e+00  -6.0756518595396139e-08 4.5510153422860636e-04 0.0000000000000000e+00  1.6938990600603525e-08 4.8992434033625948e-04 0.0000000000000000e+00  7.2752748776794830e-09 5.2578573765276512e-04 0.0000000000000000e+00  -9.8516055438888908e-09 5.6337216674593816e-04 0.0000000000000000e+00  -7.3209589411223296e-08 6.0239411564498352e-04 0.0000000000000000e+00  -3.5531025329920346e-08 6.4279291557635897e-04 0.0000000000000000e+00  -3.6486164717853871e-08 6.8465487220228710e-04 0.0000000000000000e+00  5.0668137953903896e-08 7.2844852200124987e-04 0.0000000000000000e+00  -9.2377287722573754e-08 7.7413099828038266e-04 0.0000000000000000e+00  3.1031035298729134e-08 8.2187129786564226e-04 0.0000000000000000e+00  -1.0220025893422537e-07 8.7171160630708391e-04 0.0000000000000000e+00  3.7856210225060948e-08 9.2401057852948578e-04 0.0000000000000000e+00  -7.9765087609935903e-08 9.7859702511500458e-04 0.0000000000000000e+00  -4.1646568225454922e-08 1.0356874225544909e-03 0.0000000000000000e+00  -5.3867885322121233e-08 1.0968425191826300e-03 0.0000000000000000e+00  -1.0008089292019874e-08 1.1596838546886372e-03 0.0000000000000000e+00  1.2314222077978198e-07 1.2278561776761891e-03 0.0000000000000000e+00  -3.0573760743332282e-07 1.2989619775456592e-03 0.0000000000000000e+00  1.6310476286636567e-07 1.3739634739602508e-03 0.0000000000000000e+00  -1.7556270579543872e-07 1.4542757336474406e-03 0.0000000000000000e+00  1.1867153510538227e-07 1.5401555050992078e-03 0.0000000000000000e+00  -1.7875288247864718e-07 1.6317865646222154e-03 0.0000000000000000e+00  -1.2192964599709848e-07 1.7293699343074044e-03 0.0000000000000000e+00  -4.2672081236549603e-08 1.8361739235986138e-03 0.0000000000000000e+00  4.4843829073384012e-07 1.9496549025454671e-03 0.0000000000000000e+00  -3.0704140984483421e-07 2.0731656782610524e-03 0.0000000000000000e+00  7.2704604827848216e-09 2.2080103039368525e-03 0.0000000000000000e+00  1.3674744230412876e-07 2.3559011892593600e-03 0.0000000000000000e+00  -1.2592944958021286e-07 2.5158687845611748e-03 0.0000000000000000e+00  -1.4661130819850823e-07 2.6904364470011818e-03 0.0000000000000000e+00  -7.7942932184341639e-07 2.8913117167760636e-03 0.0000000000000000e+00  7.8032058041092340e-07 3.1099744954820206e-03 0.0000000000000000e+00  -1.1427324724404147e-06 3.3551838436268575e-03 0.0000000000000000e+00  1.4911648902255633e-06 3.6362872377813556e-03 0.0000000000000000e+00  -2.0274152439260185e-06 3.9547345908444278e-03 0.0000000000000000e+00  5.4588180968115776e-07 4.3249223401331015e-03 0.0000000000000000e+00  -3.5191194797223937e-06 4.7546844560858404e-03 0.0000000000000000e+00  1.3602961014916796e-06 5.2816562356799010e-03 0.0000000000000000e+00  -9.8233202600832869e-06 5.8887594060864678e-03 0.0000000000000000e+00  2.6376809354627906e-06 6.6495074992327791e-03 0.0000000000000000e+00  -1.4489092848663043e-05 7.5694387086016968e-03 0.0000000000000000e+00  -7.4626331771417204e-06 8.8186581459582629e-03 0.0000000000000000e+00  -1.8776391346894016e-05 1.0593825444868312e-02 0.0000000000000000e+00  -7.8924758974391980e-05 1.2846353398356793e-02 0.0000000000000000e+00  -1.1257555923644265e-04 1.6440490467755524e-02 0.0000000000000000e+00  2.3509822760115192e-04 2.3550007129728261e-02 0.0000000000000000e+00  -2.6873366409891045e-03 3.5489504702985487e-02 0.0000000000000000e+00  -7.1533840704996078e-05 -4.1065946145521699e-04 0.0000000000000000e+00  -3.6389029415659748e-04 9.9474557515072428e-05 0.0000000000000000e+00  -3.3740251265343668e-05 -5.0420474754681618e-04 0.0000000000000000e+00  -4.7916362560790956e-04 3.2350437646726758e-04 0.0000000000000000e+00  -1.7369903213467448e-04 1.0794739250570575e-04 0.0000000000000000e+00  1.0806132371665623e-04 -4.1230917722446538e-04 0.0000000000000000e+00  3.0021706412581282e-04 -1.8022390435057264e-04 0.0000000000000000e+00  -5.8816233751143876e-04 8.2792840460633034e-04 0.0000000000000000e+00  -3.1496095440942820e-04 4.0743490257175906e-04 0.0000000000000000e+00  -2.3941698085476750e-04 -1.1419122370420412e-04 0.0000000000000000e+00  7.4589565158032301e-04 -7.4489599416450981e-04 0.0000000000000000e+00  -7.8823935420177873e-04 1.3932148553736370e-03 0.0000000000000000e+00  -1.8553695838060272e-04 2.7008212661660841e-04 0.0000000000000000e+00  -3.8058131276357064e-04 8.7740887113207792e-04 0.0000000000000000e+00  2.7752767467810994e-04 2.3401815647778883e-05 0.0000000000000000e+00  6.8279955377655623e-05 -2.7411462478125977e-04 0.0000000000000000e+00  -2.4839234809533386e-04 6.8742005392147124e-04 0.0000000000000000e+00  1.4572092167938655e-03 -1.1687681211837719e-03 0.0000000000000000e+00  -2.4606838142623446e-04 3.5795384665496198e-05 0.0000000000000000e+00  6.0964844462646213e-04 -3.6776811109509534e-04 0.0000000000000000e+00  -2.1761500862030412e-04 -3.4026095108176640e-04 0.0000000000000000e+00  -3.7454003788876447e-04 -8.9970310696738459e-05 0.0000000000000000e+00  4.1295222719950071e-04 -1.5838451578391432e-04 0.0000000000000000e+00  -6.6621074051301127e-05 5.2093044703902002e-05 0.0000000000000000e+00  -1.0389373799347059e-03 2.2079629002742544e-03 0.0000000000000000e+00  -5.1503062459385546e-04 1.5885813944438007e-03 0.0000000000000000e+00  -1.0833028911078360e-04 1.7077808548743420e-04 0.0000000000000000e+00  -1.6590844637365097e-04 4.3459661769221474e-04 0.0000000000000000e+00  1.7462708615024431e-04 5.1799436844656575e-05 0.0000000000000000e+00  -3.6541370378636521e-04 1.2995604320107806e-03 0.0000000000000000e+00  3.3892813462573602e-04 -5.1216029081990310e-04 0.0000000000000000e+00  -7.5231329517573979e-05 -9.5710727152836347e-05 0.0000000000000000e+00  1.0190500202802106e-04 -8.6855361053176635e-05 0.0000000000000000e+00  8.2504458777965138e-04 -9.2240804130842727e-04 0.0000000000000000e+00  -3.1081051727827324e-04 -2.4635341703876658e-05 0.0000000000000000e+00  4.4379127210640693e-04 -2.8386081643495854e-05 0.0000000000000000e+00  -4.4241403255748652e-04 4.4326810914520370e-05 0.0000000000000000e+00  -4.2488781384356398e-04 1.8025266972546624e-04 0.0000000000000000e+00  7.1761358405396161e-05 3.9588550377882769e-05 0.0000000000000000e+00  -1.7532891429428903e-04 -2.6989720033675230e-04 0.0000000000000000e+00  -2.7838103489964390e-04 1.5351115807862067e-04 0.0000000000000000e+00  2.2527628631305199e-04 -3.9594428796541278e-05 0.0000000000000000e+00  -1.4955714263580779e-04 5.9097802893912912e-04 0.0000000000000000e+00  2.5604756797899977e-03 -1.4530703475067852e-03 0.0000000000000000e+00  -1.4672471900689500e-04 3.4563920868789555e-05 0.0000000000000000e+00  9.3658314202585597e-04 -4.9399493417662439e-04 0.0000000000000000e+00  -2.0893040391669604e-04 9.4996475781141407e-04 0.0000000000000000e+00  -4.0190207500083908e-04 4.8944681119977753e-04 0.0000000000000000e+00  1.7792797530210549e-04 -6.1585607828183091e-04 0.0000000000000000e+00  -2.6765629186241348e-04 -2.0338907908509671e-04 0.0000000000000000e+00  -1.9869172097751307e-04 -2.6347263695687726e-05 0.0000000000000000e+00  1.3652226724229952e-03 -7.3064383123113558e-04 0.0000000000000000e+00  -5.4721560316643627e-04 2.2417986211672718e-03 0.0000000000000000e+00  -1.0031144353622554e-04 3.2977310097697705e-04 0.0000000000000000e+00  -5.1995666846257828e-04 5.6874413224462469e-04 0.0000000000000000e+00  -6.2306457189973601e-04 5.7393658127361240e-04 0.0000000000000000e+00  -2.9296082002856587e-04 2.7561251272556470e-04 0.0000000000000000e+00  5.8366604485462137e-04 -1.3765338125432694e-04 0.0000000000000000e+00  1.0940999174207996e-04 -6.2784425290996892e-04 0.0000000000000000e+00  -3.7033427217697561e-04 -2.8653952000604838e-05 0.0000000000000000e+00  -6.9856594498402807e-05 -3.1518462473488458e-04 0.0000000000000000e+00  -1.3202439214930273e-03 3.5688273428853370e-03 0.0000000000000000e+00  -5.9153916531338238e-05 1.1177462746646007e-04 0.0000000000000000e+00  1.7856811945203431e-03 -8.9244518144088766e-04 0.0000000000000000e+00  -1.9077395128924693e-04 1.4439277015660370e-06 0.0000000000000000e+00  2.7394780503594960e-04 9.0544850863929612e-05 0.0000000000000000e+00  1.6134975371711973e-04 1.6105167906688559e-05 0.0000000000000000e+00  3.2158754677968644e-04 -3.4489408394184734e-04 0.0000000000000000e+00  1.4956989113234923e-03 -3.7471573366749093e-05 0.0000000000000000e+00  -2.4418131359428962e-05 2.2806481505138446e-05 0.0000000000000000e+00  3.6842218448526792e-03 -1.7956757718441436e-03 0.0000000000000000e+00  -8.4614454744663881e-05 2.7766462267251158e-05 0.0000000000000000e+00  -2.1602091461796547e-04 1.1734820159439818e-03 0.0000000000000000e+00  -4.0962441369633916e-04 -3.3995305334230402e-05 0.0000000000000000e+00  3.6743052795951988e-04 7.4395683243754415e-05 0.0000000000000000e+00  -1.2649003445581832e-04 -3.9586863223084271e-05 0.0000000000000000e+00  1.6256695950667783e-04 -1.6420864746311308e-06 0.0000000000000000e+00  8.3080753765916472e-04 -1.0327717245889434e-03 0.0000000000000000e+00  -2.3773841753926657e-04 8.1700334057572898e-05 0.0000000000000000e+00  -1.4284016577591470e-04 8.1786198191926597e-04 0.0000000000000000e+00  -6.8688707367680268e-04 2.7717612777558285e-03 0.0000000000000000e+00  -8.0060434136419281e-05 2.4434736364606862e-04 0.0000000000000000e+00  -2.9516380909498641e-04 1.6591885940509395e-03 0.0000000000000000e+00  -1.1999133942562820e-04 -1.8493072486525450e-04 0.0000000000000000e+00  -4.8584798463718204e-04 9.4007588552361208e-04 0.0000000000000000e+00  -7.0670708139596722e-04 7.6143315663376103e-04 0.0000000000000000e+00  -1.8333178311943300e-04 1.7861834550226494e-04 0.0000000000000000e+00  -1.7016250002868339e-03 4.3791991792056489e-03 0.0000000000000000e+00  -3.7735234031732569e-05 6.4066873448132323e-05 0.0000000000000000e+00  -5.1947243528585076e-04 2.5321010990768725e-04 0.0000000000000000e+00  -3.7015317326591064e-04 2.6125102911078604e-04 0.0000000000000000e+00  7.8620392415129203e-04 -2.7844747564637447e-04 0.0000000000000000e+00  -5.7587091520266412e-04 6.5330444774805343e-04 0.0000000000000000e+00  -1.1343327140868835e-04 1.0243034393655040e-04 0.0000000000000000e+00  -2.6235655787303324e-04 -2.7635772748800356e-04 0.0000000000000000e+00  1.1655902035899573e-04 -3.1069812199897639e-05 0.0000000000000000e+00  -4.4933106495323059e-04 5.9615148524455727e-04 0.0000000000000000e+00  4.5261027430760662e-04 -8.4336778878720637e-04 0.0000000000000000e+00  -3.0728703645635654e-04 8.1626795758066287e-05 0.0000000000000000e+00  -1.4293827937695937e-04 1.5460922787226593e-05 0.0000000000000000e+00  2.5400812697530975e-03 -1.0710876012683178e-03 0.0000000000000000e+00  3.3013390296066336e-06 -4.9242488590404518e-05 0.0000000000000000e+00  6.7913188782156206e-04 -5.7659967454771555e-04 0.0000000000000000e+00  3.6864370253495362e-05 -1.4359620385469483e-04 0.0000000000000000e+00  3.4366418229835884e-04 -7.584043