<?xml version="1.0"?>
<VTKFile type="UnstructuredGrid"  version="0.1"  >
<UnstructuredGrid>
<Piece  NumberOfPoints="1855" NumberOfCells="3532">
<Points>
<DataArray  type="Float64"  NumberOfComponents="3"  format="ascii">0 0 0  30 0 0  30 -10 0  0 -10 0  0.1391574078963744 0 0  0.2856388821882616 0 0  0.4398299073010886 0 0  0.6021362569539473 0 0  0.7729850389704483 0 0  0.9528258543586996 0 0  1.142131984380316 0 0  1.34140159760994 0 0  1.551159074717981 0 0  1.771956417032531 0 0  2.004374674080994 0 0  2.249025475789527 0 0  2.506552636773105 0 0  2.777633857742732 0 0  3.062982518028728 0 0  3.363349525995907 0 0  3.679525322337712 0 0  4.01234195575742 0 0  4.362675247811097 0 0  4.731447135329707 0 0  5.119628065610077 0 0  5.528239565804708 0 0  5.958356943167011 0 0  6.411112081475485 0 0  6.887696441559404 0 0  7.389364184530748 0 0  7.917435485335147 0 0  8.473300005202017 0 0  9.058420557070402 0 0  9.674336929103793 0 0  10.32266995225095 0 0  11.00512576896296 0 0  11.72350030646412 0 0  12.47968402994705 0 0  13.27566689579597 0 0  14.1135435963616 0 0  14.9955190732806 0 0  15.92391430904694 0 0  16.90117245730496 0 0  17.92986524844506 0 0  19.01269976086341 0 0  20.15252556282024 0 0  21.35234220269763 0 0  22.61530708683689 0 0  23.94474379751883 0 0  25.34415086349739 0 0  26.81721093579712 0 0  28.3678004819169 0 0  30 -1.111111111111111 0  30 -2.222222222222222 0  30 -3.333333333333333 0  30 -4.444444444444445 0  30 -5.555555555555555 0  30 -6.666666666666666 0  30 -7.777777777777777 0  30 -8.888888888888889 0  28.36780047917311 -10 0  26.8172109305839 -10 0  25.34415085606858 -10 0  23.94474378810899 -10 0  22.61530707566275 -10 0  21.3523421899591 -10 0  20.15252554870171 -10 0  19.01269974553473 -10 0  17.92986523206254 -10 0  16.90117244001232 -10 0  15.92391429097614 -10 0  14.99551905455266 -10 0  14.11354357708742 -10 0  13.27566687607703 -10 0  12.47968400987599 -10 0  11.72350028612546 -10 0  11.00512574843363 -10 0  10.32266993160086 -10 0  9.674336908396342 -10 0  9.058420536362949 -10 0  8.473299984546333 -10 0  7.917435464777824 -10 0  7.389364164113587 -10 0  6.887696420787165 -10 0  6.411112061446698 -10 0  5.95835692337857 -10 0  5.528239546282652 -10 0  5.119628046377237 -10 0  4.731447115907979 -10 0  4.362675229213632 -10 0  4.012341937260036 -10 0  3.679525304434552 -10 0  3.363349508456405 -10 0  3.062982500861274 -10 0  2.777633840953978 -10 0  2.506552620368097 -10 0  2.249025459771861 -10 0  2.004374658452946 -10 0  1.771956401795187 -10 0  1.551159059871345 -10 0  1.341401583153029 -10 0  1.142131970307521 -10 0  0.9528258406748833 -10 0  0.7729850256685147 -10 0  0.6021362439621285 -10 0  0.4398298947504031 -10 0  0.2856388700059078 -10 0  0.1391573960769001 -10 0  0 -9.855072463768115 0  0 -9.710144927536232 0  0 -9.565217391304348 0  0 -9.420289855072463 0  0 -9.27536231884058 0  0 -9.130434782608695 0  0 -8.985507246376812 0  0 -8.840579710144928 0  0 -8.695652173913043 0  0 -8.55072463768116 0  0 -8.405797101449275 0  0 -8.260869565217391 0  0 -8.115942028985508 0  0 -7.971014492753623 0  0 -7.826086956521739 0  0 -7.681159420289855 0  0 -7.536231884057971 0  0 -7.391304347826087 0  0 -7.246376811594203 0  0 -7.101449275362318 0  0 -6.956521739130435 0  0 -6.811594202898551 0  0 -6.666666666666667 0  0 -6.521739130434783 0  0 -6.376811594202898 0  0 -6.231884057971015 0  0 -6.086956521739131 0  0 -5.942028985507246 0  0 -5.797101449275362 0  0 -5.652173913043478 0  0 -5.507246376811594 0  0 -5.36231884057971 0  0 -5.217391304347826 0  0 -5.072463768115941 0  0 -4.927536231884058 0  0 -4.782608695652174 0  0 -4.637681159420289 0  0 -4.492753623188406 0  0 -4.347826086956522 0  0 -4.202898550724638 0  0 -4.057971014492754 0  0 -3.913043478260869 0  0 -3.768115942028985 0  0 -3.623188405797101 0  0 -3.478260869565217 0  0 -3.333333333333334 0  0 -3.188405797101449 0  0 -3.043478260869565 0  0 -2.898550724637681 0  0 -2.753623188405797 0  0 -2.608695652173912 0  0 -2.463768115942029 0  0 -2.318840579710145 0  0 -2.173913043478261 0  0 -2.028985507246377 0  0 -1.884057971014492 0  0 -1.739130434782609 0  0 -1.594202898550725 0  0 -1.44927536231884 0  0 -1.304347826086957 0  0 -1.159420289855072 0  0 -1.014492753623188 0  0 -0.8695652173913047 0  0 -0.72463768115942 0  0 -0.579710144927537 0  0 -0.4347826086956523 0  0 -0.2898550724637676 0  0 -0.1449275362318829 0  5.15859856094262 -4.976557621770688 0  2.816777084926057 -7.160262673925935 0  2.81677708460006 -2.839737326002783 0  2.227649803257325 -5.003121586636773 0  1.518662968975629 -8.46230852045241 0  1.518662969184829 -1.537691480152612 0  9.960740911025725 -5.055901393541221 0  1.491099662214591 -3.691833922963321 0  1.503675657181264 -6.345020369042368 0  5.319208041801049 -7.493850249937013 0  5.291109955459268 -2.489368743223226 0  1.096914507335763 -2.53623188405797 0  1.096914507253562 -7.463768115942029 0  1.089580194952752 -4.71277167923441 0  15.07565076110197 -5.047572991082069 0  7.501630508673601 -5.937500100385354 0  0.8894869418764504 -5.623930488933245 0  2.955144522453978 -1.440834296472408 0  2.955144521140721 -8.559165705576945 0  8.106603955004623 -2.748811534843258 0  3.662152539483591 -4.228178367024407 0  3.662181528265114 -5.771746159989156 0  0.8436558190317136 -0.8541050638451999 0  0.8436558075840921 -9.145894948342754 0  0.7854168197005933 -1.811594202898552 0  0.7894693398152999 -3.286543351392342 0  0.7854168196772591 -8.188405797101449 0  0.7854168196772591 -6.739130434782609 0  20.00078956016804 -4.999999999785771 0  0.7379120031523989 -3.977302749614766 0  6.584332478112232 -3.934875417052907 0  7.295091310194352 -7.969791332537982 0  9.811174303464586 -7.412814499648229 0  4.013376806449688 -2.206189431585293 0  4.013376806983409 -7.793810569017377 0  12.11177433894592 -2.818343737884045 0  2.591152707837148 -3.990098461753838 0  2.58990939378082 -6.025895074707176 0  25.43156400064585 -5.044446479916348 0  2.03262751726143 -2.282125834846944 0  2.032627517335952 -7.717874165160392 0  12.51865094522923 -6.491408052923457 0  0.598175343983641 -6.156971652625402 0  2.126700074935224 -0.8767654465386991 0  2.126700059112423 -9.123234559633019 0  6.617961838548696 -1.617756429129908 0  0.5903949564549755 -4.980060355019413 0  1.676697585305984 -5.547101897225158 0  4.773518305133987 -3.729331162566817 0  4.77931803486508 -6.231222307502165 0  4.878549698409591 -8.72048903376362 0  4.852580875634024 -1.222215410052823 0  0.5487847095754042 -2.675169258708207 0  0.545113423825768 -7.32369553390529 0  1.78738026998851 -4.400451872599477 0  1.68244194111824 -3.010100184333533 0  1.683984276238402 -7.018293626028473 0  9.998503440677371 -2.00585287985007 0  3.693061162502273 -3.243678395563028 0  3.694987482168253 -6.757603268814477 0  6.081763036485869 -5.83414381546261 0  0.5196640460586313 -1.350633211792632 0  0.5196640458460706 -8.649366789040087 0  3.84593363904758 -0.9906418103762418 0  3.845933620847308 -9.009358200471317 0  17.41551885287501 -3.057748733689079 0  17.30725517812527 -7.002961443761516 0  8.117698464370697 -4.451550942597151 0  0.4918476668493152 -0.4789811193757592 0  0.4918476560347713 -9.521018882514893 0  1.463770869328428 -0.6252343353791154 0  1.463770854281917 -9.374765668872765 0  0.5034132782032188 -4.464280853772128 0  3.138906271796685 -4.99999841599503 0  14.61209972381335 -2.388610981020637 0  6.208601124947327 -8.776231214192325 0  14.74910972998159 -7.542186851303819 0  2.243794246335625 -1.632184311040998 0  2.243794245689214 -8.367815689183566 0  0.4590235278399923 -5.431413993025926 0  0.4971508861448406 -2.209632053221267 0  0.4971508861368665 -7.790367946777407 0  0.4644363683211541 -3.560571347760519 0  6.478811279411406 -7.007392971062433 0  1.238895267772762 -4.173677632458826 0  1.293241773632479 -2.02256720952064 0  1.293241773542714 -7.977432790434841 0  0.4324740478030531 -0.942028985507247 0  0.4324740423701829 -9.057971014492754 0  2.117396640811705 -3.472968170680347 0  2.107095929630507 -6.531506384346077 0  8.087741545730886 -1.392783601483453 0  1.028911946384717 -1.352376108341404 0  1.028911946221715 -8.647623891551962 0  4.05691976296832 -4.991522392209158 0  11.51826881314265 -8.065248940008736 0  1.618560396201739 -4.958056164503666 0  2.701984523487646 -2.141781914603403 0  2.70198452396172 -7.858218085853512 0  2.843615645746219 -9.289121726447632 0  2.843615661334342 -0.7108782798429658 0  8.678774612240533 -8.488146490452822 0  6.487906449371135 -2.667543558824978 0  8.369190916679937 -7.129867754908394 0  11.80978191929258 -4.655775487536958 0  0.3792065166453504 -3.113833531412848 0  0.4134714637263563 -6.58827691137208 0  9.551050695080825 -3.49648183875815 0  1.083867845277057 -6.036251777836495 0  0.3756430921870901 -1.80381664325008 0  0.3756430921689482 -8.196183356748573 0  3.113073783220456 -3.503408140759125 0  3.113391383189963 -6.496678880796299 0  22.62850736315072 -3.277987336300344 0  22.59385352108348 -6.800312122582239 0  0.3777114402537816 -4.137047872695438 0  0.9196816123347897 -0.4281025456111269 0  0.9196815944880363 -9.571897460530383 0  0.4052043328723194 -5.827814332459883 0  8.865857694874787 -5.767686953139113 0  1.200388325130726 -5.182186034620629 0  5.65297436943758 -4.325500846767599 0  1.200079167961391 -3.009849046583253 0  1.20883344838 -7.021823297793294 0  1.057642414577487 -3.660996704809145 0  10.88812987788297 -6.333458225047037 0  4.493502926606794 -2.839780197438185 0  4.485862892033458 -7.147606077919463 0  0.3631651408878085 -7.003529808558233 0  1.946748828463205 -6.049056369468467 0  6.918750162798794 -4.993796052442676 0  3.351203216022585 -1.980935554775394 0  3.351203216441711 -8.019064445907297 0  2.281892243515294 -2.856654416292082 0  2.281892243715877 -7.143345583598931 0  5.811143619672087 -0.9953286820321026 0  2.695713766833098 -4.565354125099452 0  2.698172168139827 -5.435483248292925 0  19.86166219288896 -2.493475492328429 0  19.83739102036415 -7.594404063416508
[...]
<PointData  Vectors="displacement"> 
<DataArray  type="Float64"  Name="displacement"  NumberOfComponents="3" format="ascii">9.0700280461095545e-02 4.5553282359738941e-02 0.0000000000000000e+00  1.3402297040860473e-07 9.7562270481048975e-05 0.0000000000000000e+00  -1.9453102114318457e-07 -9.9820401131603312e-08 0.0000000000000000e+00  1.2726950843567104e-07 -1.2233532942997181e-07 0.0000000000000000e+00  4.5266071571431497e-02 3.6943619515217778e-03 0.0000000000000000e+00  2.4240683261462309e-02 2.2815955817848629e-03 0.0000000000000000e+00  1.6774932953864029e-02 5.8803169151421854e-04 0.0000000000000000e+00  1.1770950333001651e-02 3.1948667111693401e-04 0.0000000000000000e+00  9.3828218908791026e-03 -8.1360603201397621e-06 0.0000000000000000e+00  7.5101488212206031e-03 -1.4899368365116280e-04 0.0000000000000000e+00  6.3008848060480587e-03 -2.2466862393711302e-04 0.0000000000000000e+00  5.3677355969789942e-03 -2.9465343742160976e-04 0.0000000000000000e+00  4.5951926155043529e-03 -3.1951332952148025e-04 0.0000000000000000e+00  4.0051338372862995e-03 -3.5077142364469056e-04 0.0000000000000000e+00  3.4936731340355748e-03 -3.5664700355690664e-04 0.0000000000000000e+00  3.1149396506171380e-03 -3.4808413442160028e-04 0.0000000000000000e+00  2.7557300128418800e-03 -3.5761060734764842e-04 0.0000000000000000e+00  2.4727700921822176e-03 -3.5898418928140150e-04 0.0000000000000000e+00  2.2002796791224322e-03 -3.5077028945124615e-04 0.0000000000000000e+00  1.9792133037666907e-03 -3.4009322339725011e-04 0.0000000000000000e+00  1.7798858183632280e-03 -3.2632431586801096e-04 0.0000000000000000e+00  1.6054485854174927e-03 -3.1088825833270028e-04 0.0000000000000000e+00  1.4528903654761067e-03 -2.9628310744355866e-04 0.0000000000000000e+00  1.3115026294310023e-03 -2.7980153013481082e-04 0.0000000000000000e+00  1.1814393616160735e-03 -2.5738181972327856e-04 0.0000000000000000e+00  1.0684078733619912e-03 -2.3253294411122402e-04 0.0000000000000000e+00  9.7156706341214002e-04 -2.1017946751857936e-04 0.0000000000000000e+00  8.7687073016467609e-04 -1.8352522618104923e-04 0.0000000000000000e+00  7.9591027369245557e-04 -1.5753904968210332e-04 0.0000000000000000e+00  7.1862981609468384e-04 -1.2909602281923336e-04 0.0000000000000000e+00  6.5027993722819558e-04 -9.9675150947607397e-05 0.0000000000000000e+00  5.9072488112070032e-04 -6.9667653961861303e-05 0.0000000000000000e+00  5.4068870740963814e-04 -4.2127307411179430e-05 0.0000000000000000e+00  4.9171246987886352e-04 -1.3656309262889106e-05 0.0000000000000000e+00  4.4964052775129190e-04 1.2910343518512721e-05 0.0000000000000000e+00  4.1281828864324989e-04 3.8270890748755691e-05 0.0000000000000000e+00  3.8210439513140343e-04 6.0252002080928425e-05 0.0000000000000000e+00  3.5308334981939315e-04 8.0184232172778714e-05 0.0000000000000000e+00  3.2847656425725330e-04 9.6201350340435410e-05 0.0000000000000000e+00  3.0381355833191244e-04 1.0998784272109992e-04 0.0000000000000000e+00  2.8339312286905884e-04 1.1929136550568645e-04 0.0000000000000000e+00  2.6164129870366549e-04 1.2614398717657280e-04 0.0000000000000000e+00  2.4198247907845363e-04 1.2926000257284829e-04 0.0000000000000000e+00  2.2087436603384307e-04 1.3011797590696609e-04 0.0000000000000000e+00  2.0116916732674646e-04 1.2822735370254619e-04 0.0000000000000000e+00  1.7874344654256568e-04 1.2474971921586965e-04 0.0000000000000000e+00  1.5650434861687109e-04 1.2020608483332280e-04 0.0000000000000000e+00  1.3275190269878453e-04 1.1513230538416364e-04 0.0000000000000000e+00  1.1005780604593301e-04 1.0968199600382676e-04 0.0000000000000000e+00  8.4099374224033051e-05 1.0420695749571958e-04 0.0000000000000000e+00  5.6427750627872536e-05 1.0015171841468009e-04 0.0000000000000000e+00  2.8099545278466314e-05 9.7928428843037051e-05 0.0000000000000000e+00  3.2262961406667293e-07 8.1617388847500234e-05 0.0000000000000000e+00  -8.4945915008323827e-08 6.4481530926604271e-05 0.0000000000000000e+00  -3.9459968598203540e-08 4.8688879895385542e-05 0.0000000000000000e+00  8.8057146720948195e-08 3.4660181471756300e-05 0.0000000000000000e+00  -1.1493788116595822e-07 2.2439718453239375e-05 0.0000000000000000e+00  9.3964185538870148e-08 1.2494870576198717e-05 0.0000000000000000e+00  -7.0877911224975130e-08 5.1784215398777495e-06 0.0000000000000000e+00  -6.8659896800476593e-09 8.1047827682786627e-07 0.0000000000000000e+00  -1.0143975733365776e-07 -4.3804239752911309e-07 0.0000000000000000e+00  -1.2032249046350390e-09 -4.8397067216896916e-07 0.0000000000000000e+00  3.8622625245354469e-07 -5.3754455114751785e-07 0.0000000000000000e+00  5.4733961306199456e-08 -1.7076941421591585e-07 0.0000000000000000e+00  8.6795061393733168e-08 -2.7536105830050577e-07 0.0000000000000000e+00  4.4465371074175073e-07 -3.8748699791212028e-07 0.0000000000000000e+00  1.4802955053561876e-07 -5.2467005021508763e-07 0.0000000000000000e+00  7.2543889235925105e-07 -4.9089900045863150e-07 0.0000000000000000e+00  2.2807270489810344e-07 -3.1042469295761333e-07 0.0000000000000000e+00  7.1217680964805515e-07 -3.5644448452211629e-07 0.0000000000000000e+00  3.7628674227188067e-07 -1.4267234878689640e-07 0.0000000000000000e+00  5.3820941549719505e-07 -1.8059159813106607e-07 0.0000000000000000e+00  5.5178026294149335e-07 3.6722326560668638e-08 0.0000000000000000e+00  6.4397459741970796e-07 3.8483597015131744e-08 0.0000000000000000e+00  1.8898852842359954e-07 8.5546238684901345e-08 0.0000000000000000e+00  4.0008285821201993e-07 2.9564775310402600e-07 0.0000000000000000e+00  -1.6859062845251652e-08 8.7088519412736691e-08 0.0000000000000000e+00  5.8903361303422114e-07 7.7759673994951960e-07 0.0000000000000000e+00  1.8944423623621080e-07 5.4474308720721313e-07 0.0000000000000000e+00  4.1493196535740206e-07 5.0518566899751009e-07 0.0000000000000000e+00  -3.6012710570546131e-07 4.9255514924558576e-07 0.0000000000000000e+00  6.9838874967790332e-08 7.5278092606091508e-07 0.0000000000000000e+00  -4.8420448686853766e-07 1.0278845369364233e-06 0.0000000000000000e+00  -5.7789291760025290e-07 6.3025148528474051e-07 0.0000000000000000e+00  -5.6654250874567003e-07 3.0676192003885166e-07 0.0000000000000000e+00  -1.5958143986976292e-06 7.8218418469572885e-07 0.0000000000000000e+00  -6.2450406286175060e-07 3.6000031667601782e-07 0.0000000000000000e+00  -1.1069359631659380e-06 4.2642248160466667e-07 0.0000000000000000e+00  -6.9225575609298012e-07 2.6324881642791503e-07 0.0000000000000000e+00  -1.6614475009041802e-06 4.1539648662765061e-07 0.0000000000000000e+00  -1.5959820177955546e-07 -1.5196341269608154e-08 0.0000000000000000e+00  -6.8184175580384563e-07 2.7260201506333709e-08 0.0000000000000000e+00  -5.6708665064908929e-07 1.1248316422959927e-08 0.0000000000000000e+00  -4.1157005061695455e-07 -3.4829580787192485e-08 0.0000000000000000e+00  -9.3132967018497403e-07 -1.8809755713683563e-07 0.0000000000000000e+00  -2.2236275710376687e-07 -7.5649255756193828e-08 0.0000000000000000e+00  -7.6415197825027187e-07 -2.6152940787242472e-07 0.0000000000000000e+00  -1.0821480963889664e-07 -6.3554165878822138e-08 0.0000000000000000e+00  -1.3417962986304534e-07 -2.0574815474514190e-07 0.0000000000000000e+00  -3.3361601511499731e-07 -1.8124236227680642e-07 0.0000000000000000e+00  -1.8196345827123643e-07 -1.9330065044336838e-07 0.0000000000000000e+00  -4.5660606041616378e-08 -6.8799511173321821e-08 0.0000000000000000e+00  -1.0715449148055428e-07 -1.0259163426710475e-07 0.0000000000000000e+00  -9.7957491849266549e-09 -1.3065268768352938e-07 0.0000000000000000e+00  3.4460549511153280e-10 -6.9867580672571026e-08 0.0000000000000000e+00  -1.5427909470451693e-07 -1.2251903798238144e-07 0.0000000000000000e+00  3.6411035014999473e-08 -1.2242604081938045e-07 0.0000000000000000e+00  -3.7143204913711324e-08 -4.0643568806105471e-08 0.0000000000000000e+00  -3.0847468487386340e-08 3.5322518950318604e-06 0.0000000000000000e+00  4.5590874471530729e-08 8.9704008870880695e-06 0.0000000000000000e+00  -5.6854350611162753e-08 1.5956895722980242e-05 0.0000000000000000e+00  5.2409776195556654e-09 2.4521189891528853e-05 0.0000000000000000e+00  -2.6641434805451613e-08 3.4355875685552722e-05 0.0000000000000000e+00  -2.1236793919376427e-08 4.5571202078483051e-05 0.0000000000000000e+00  4.8251121305301421e-08 5.7926201641112059e-05 0.0000000000000000e+00  -4.4878715385696055e-08 7.1423702022216587e-05 0.0000000000000000e+00  4.0966435858226852e-08 8.6004339789936881e-05 0.0000000000000000e+00  -5.4296348244693092e-08 1.0158195227458155e-04 0.0000000000000000e+00  3.3400826616347236e-08 1.1811688740607525e-04 0.0000000000000000e+00  -2.1506710854365260e-08 1.3559967726882745e-04 0.0000000000000000e+00  2.4176725635241617e-08 1.5399213909878879e-04 0.0000000000000000e+00  -4.4779110306217275e-08 1.7325108363887867e-04 0.0000000000000000e+00  2.7557976236697719e-08 1.9339994361641571e-04 0.0000000000000000e+00  -3.3143260587964722e-08 2.1440362792144482e-04 0.0000000000000000e+00  -2.1344360862741274e-08 2.3631824050375608e-04 0.0000000000000000e+00  1.0621753955627842e-08 2.5902074255228170e-04 0.0000000000000000e+00  2.5477173651264475e-08 2.8269270561075474e-04 0.0000000000000000e+00  -1.2261298266263259e-08 3.0722130462393636e-04 0.0000000000000000e+00  1.8236773186040841e-08 3.3268835368088041e-04 0.0000000000000000e+00  -4.8030049867510293e-08 3.5908529182230258e-04 0.0000000000000000e+00  1.3402910475660491e-08 3.8657157199661001e-04 0.0000000000000000e+00  5.7560691819262022e-09 4.1487924309357071e-04 0.0000000000000000e+00  -7.7960366530669691e-09 4.4455053240198778e-04 0.0000000000000000e+00  -5.7896953411358540e-08 4.7535701462660313e-04 0.0000000000000000e+00  -2.8092966451863422e-08 5.0725271356992442e-04 0.0000000000000000e+00  -2.8875715326353687e-08 5.4030611126538476e-04 0.0000000000000000e+00  4.0104925435297193e-08 5.7488737176073922e-04 0.0000000000000000e+00  -7.3109392886534437e-08 6.1096312999334189e-04 0.0000000000000000e+00  2.4572457792697077e-08 6.4866733904321810e-04 0.0000000000000000e+00  -8.0906188840386495e-08 6.8803363195305770e-04 0.0000000000000000e+00  3.0012033192150501e-08 7.2934610418024079e-04 0.0000000000000000e+00  -6.3154298597647224e-08 7.7246989812549056e-04 0.0000000000000000e+00  -3.2995191798604106e-08 8.1757691865798788e-04 0.0000000000000000e+00  -4.2617964325306590e-08 8.6590100500521280e-04 0.0000000000000000e+00  -7.9318544173674521e-09 9.1556388546966806e-04 0.0000000000000000e+00  9.7681897410584250e-08 9.6944683286956780e-04 0.0000000000000000e+00  -2.4235839207613148e-07 1.0256563422660512e-03 0.0000000000000000e+00  1.2936135663992218e-07 1.0849543184482326e-03 0.0000000000000000e+00  -1.3923411794492342e-07 1.1484612198201310e-03 0.0000000000000000e+00  9.4170532256922655e-08 1.2163824777691264e-03 0.0000000000000000e+00  -1.4182043770894099e-07 1.2888652743120912e-03 0.0000000000000000e+00  -9.6802052905879395e-08 1.3660724550633378e-03 0.0000000000000000e+00  -3.3650391867881104e-08 1.4505920028288659e-03 0.0000000000000000e+00  3.5640837332936884e-07 1.5404174809604100e-03 0.0000000000000000e+00  -2.4387009426975580e-07 1.6382055278798709e-03 0.0000000000000000e+00  5.8119171953714533e-09 1.7449971890399491e-03 0.0000000000000000e+00  1.0962758533752602e-07 1.8621531142920538e-03 0.0000000000000000e+00  -9.9879632022427361e-08 1.9889221827093153e-03 0.0000000000000000e+00  -1.1644052355840501e-07 2.1273093208063125e-03 0.0000000000000000e+00  -6.1975203962854732e-07 2.2866122408435941e-03 0.0000000000000000e+00  6.2361012266665636e-07 2.4601036261738167e-03 0.0000000000000000e+00  -9.1208980017731361e-07 2.6547554853071824e-03 0.0000000000000000e+00  1.1929150490867759e-06 2.8780268286669438e-03 0.0000000000000000e+00  -1.6196944350986325e-06 3.1311228713263115e-03 0.0000000000000000e+00  4.3790132116106914e-07 3.4255648252286947e-03 0.0000000000000000e+00  -2.8164953625780258e-06 3.7676795908015651e-03 0.0000000000000000e+00  1.1129465747023325e-06 4.1876149008405073e-03 0.0000000000000000e+00  -7.8817116963523483e-06 4.6720238860951660e-03 0.0000000000000000e+00  2.1534008001033096e-06 5.2799485509209751e-03 0.0000000000000000e+00  -1.1647849667092601e-05 6.0165846817318656e-03 0.0000000000000000e+00  -6.6230978242116379e-06 7.0187538536327122e-03 0.0000000000000000e+00  -1.2619782632229405e-05 8.4481975173832900e-03 0.0000000000000000e+00  -6.9974390464556770e-05 1.0272352053365710e-02 0.0000000000000000e+00  -1.1568244760490538e-04 1.3193948400423079e-02 0.0000000000000000e+00  5.2374033484988813e-04 1.8958100329124178e-02 0.0000000000000000e+00  -5.0506312001041857e-03 2.9641174190968182e-02 0.0000000000000000e+00  -5.6803305197015600e-05 -3.2402146526610854e-04 0.0000000000000000e+00  -2.8717805086191816e-04 7.8416509724381643e-05 0.0000000000000000e+00  -2.8097649462783699e-05 -3.9871192017504407e-04 0.0000000000000000e+00  -3.7859031442206851e-04 2.5514313302255244e-04 0.0000000000000000e+00  -1.3705073120146843e-04 8.5140808938209767e-05 0.0000000000000000e+00  7.9875629656780373e-05 -3.2910799164875181e-04 0.0000000000000000e+00  2.3640195309386597e-04 -1.4206374746674808e-04 0.0000000000000000e+00  -4.6542592677485266e-04 6.5347567577617042e-04 0.0000000000000000e+00  -2.4866534446100184e-04 3.2144442675344144e-04 0.0000000000000000e+00  -1.8891369951863477e-04 -9.0099541125393754e-05 0.0000000000000000e+00  5.8729704411829514e-04 -5.8771491399317870e-04 0.0000000000000000e+00  -6.2543414760608221e-04 1.1004249553176134e-03 0.0000000000000000e+00  -1.4642627317142310e-04 2.1306273919525522e-04 0.0000000000000000e+00  -3.0080894273388874e-04 6.9255465732669292e-04 0.0000000000000000e+00  2.1856003215555095e-04 1.8445306017526000e-05 0.0000000000000000e+00  5.3618416258020254e-05 -2.1615644143171167e-04 0.0000000000000000e+00  -1.9619426078133751e-04 5.4248901699982619e-04 0.0000000000000000e+00  1.1475281631236269e-03 -9.2377756285158075e-04 0.0000000000000000e+00  -1.9413186324962578e-04 2.8212404082469684e-05 0.0000000000000000e+00  4.8002601898828972e-04 -2.8999977725352162e-04 0.0000000000000000e+00  -1.7233055438358529e-04 -2.6873443120058790e-04 0.0000000000000000e+00  -2.9575802508808414e-04 -7.1104903166533060e-05 0.0000000000000000e+00  3.0767396335427445e-04 -1.3595050167772990e-04 0.0000000000000000e+00  -5.2561360672114754e-05 4.1086648400666247e-05 0.0000000000000000e+00  -8.2721534031970348e-04 1.7458264015066968e-03 0.0000000000000000e+00  -4.0785739928714346e-04 1.2548391926525669e-03 0.0000000000000000e+00  -8.5480409533803437e-05 1.3471545447215282e-04 0.0000000000000000e+00  -1.3096990651377115e-04 3.4289621192136688e-04 0.0000000000000000e+00  1.3751301431399007e-04 4.0804880616942070e-05 0.0000000000000000e+00  -2.8906321164019630e-04 1.0261846560835047e-03 0.0000000000000000e+00  2.6675513051082169e-04 -4.0394012758566158e-04 0.0000000000000000e+00  -5.9384039847703160e-05 -7.5478316204811044e-05 0.0000000000000000e+00  8.0242157837945074e-05 -6.8463152721029723e-05 0.0000000000000000e+00  6.4952800607133313e-04 -7.2823302961681790e-04 0.0000000000000000e+00  -2.4522823726206460e-04 -1.9475128183885634e-05 0.0000000000000000e+00  3.4942972420092471e-04 -2.2397710987455470e-05 0.0000000000000000e+00  -3.5001112532470380e-04 3.4640784729616974e-05 0.0000000000000000e+00  -3.3547451288018276e-04 1.4212063756486695e-04 0.0000000000000000e+00  5.6506030668993296e-05 3.1175768668640226e-05 0.0000000000000000e+00  -1.4107479729962949e-04 -2.1450633020802791e-04 0.0000000000000000e+00  -2.1967354879909567e-04 1.2107257767705052e-04 0.0000000000000000e+00  1.7743406972215776e-04 -3.1194404375370475e-05 0.0000000000000000e+00  -1.1809452058743805e-04 4.6634233251076438e-04 0.0000000000000000e+00  2.0170201489263804e-03 -1.1507898434527377e-03 0.0000000000000000e+00  -1.1575381469765987e-04 2.7254142312724177e-05 0.0000000000000000e+00  7.3745332898585288e-04 -3.8968641059562611e-04 0.0000000000000000e+00  -1.6510564646417611e-04 7.4985729440899863e-04 0.0000000000000000e+00  -3.1743843927193211e-04 3.8617084460203195e-04 0.0000000000000000e+00  1.3968294411959681e-04 -4.8600214293556142e-04 0.0000000000000000e+00  -2.1132426650653728e-04 -1.6050890054217595e-04 0.0000000000000000e+00  -1.5673048359794386e-04 -2.0797437912071013e-05 0.0000000000000000e+00  1.0750848602103110e-03 -5.7668634883376111e-04 0.0000000000000000e+00  -4.3397190918431573e-04 1.7720032442547354e-03 0.0000000000000000e+00  -7.9170792023820744e-05 2.6017163987849059e-04 0.0000000000000000e+00  -4.1106610427960180e-04 4.4875514350508255e-04 0.0000000000000000e+00  -4.9380439496176753e-04 4.5266607303498654e-04 0.0000000000000000e+00  -2.3123080793513310e-04 2.1741273798574630e-04 0.0000000000000000e+00  4.5952999912346633e-04 -1.0857048753517850e-04 0.0000000000000000e+00  8.5350651505054239e-05 -4.9581137578409836e-04 0.0000000000000000e+00  -2.9228837281336631e-04 -2.2681783947150856e-05 0.0000000000000000e+00  -5.5335378533548952e-05 -2.4861979222566419e-04 0.0000000000000000e+00  -1.0553092137391437e-03 2.8266991393367386e-03 0.0000000000000000e+00  -4.6673223218629241e-05 8.8167821488729022e-05 0.0000000000000000e+00  1.4063396005932641e-03 -7.0484812791826615e-04 0.0000000000000000e+00  -1.5048900002953157e-04 1.1242439410090580e-06 0.0000000000000000e+00  2.1570745791253741e-04 7.1324458524887489e-05 0.0000000000000000e+00  1.2707829223972513e-04 1.2693957088759100e-05 0.0000000000000000e+00  2.5317372583386337e-04 -2.7194053316725782e-04 0.0000000000000000e+00  1.1243462771400130e-03 -5.9675106336818894e-05 0.0000000000000000e+00  -1.9264475330219836e-05 1.7986563708729005e-05 0.0000000000000000e+00  2.9026682473993807e-03 -1.4273881244167422e-03 0.0000000000000000e+00  -6.6754628780900765e-05 2.1896793771661341e-05 0.0000000000000000e+00  -1.7079170061598095e-04 9.2648449327867657e-04 0.0000000000000000e+00  -3.2365583272823809e-04 -2.7015099009506358e-05 0.0000000000000000e+00  2.8929852403551535e-04 5.8594904445668277e-05 0.0000000000000000e+00  -9.9772283825324876e-05 -3.1227804258871338e-05 0.0000000000000000e+00  1.2805189212505922e-04 -1.2869954807439677e-06 0.0000000000000000e+00  6.5279738990910901e-04 -8.1763405912456367e-04 0.0000000000000000e+00  -1.8757447366471488e-04 6.4426367792094451e-05 0.0000000000000000e+00  -1.1284064129418118e-04 6.4550235418440506e-04 0.0000000000000000e+00  -5.4560882691191616e-04 2.1922602698942195e-03 0.0000000000000000e+00  -6.3179530881888484e-05 1.9276353433919877e-04 0.0000000000000000e+00  -2.3363904084679774e-04 1.3105941978592700e-03 0.0000000000000000e+00  -9.4751660180879366e-05 -1.4586240572809952e-04 0.0000000000000000e+00  -3.8421972936237387e-04 7.4208278810334867e-04 0.0000000000000000e+00  -5.6274773534738416e-04 6.0029388249918940e-04 0.0000000000000000e+00  -1.4466589787774989e-04 1.4089503852456213e-04 0.0000000000000000e+00  -1.3712169471706576e-03 3.4743040489261731e-03 0.0000000000000000e+00  -2.9772090276441100e-05 5.0532916517063188e-05 0.0000000000000000e+00  -4.1131794961924502e-04 1.9943352637526998e-04 0.0000000000000000e+00  -2.9220224060273390e-04 2.0606319187211245e-04 0.0000000000000000e+00  6.1897928032611494e-04 -2.1965744559200814e-04 0.0000000000000000e+00  -4.6480987485819939e-04 5.1294572666249906e-04 0.0000000000000000e+00  -8.9499326745629541e-05 8.0793463048985085e-05 0.0000000000000000e+00  -2.0738828780288970e-04 -2.1818823060178649e-04 0.0000000000000000e+00  9.1819156416239454e-05 -2.4482460299077852e-05 0.0000000000000000e+00  -3.5505267292845836e-04 4.7041423058809636e-04 0.0000000000000000e+00  3.5518556576493154e-04 -6.6692626883954316e-04 0.0000000000000000e+00  -2.4246525242470373e-04 6.4354253798453568e-05 0.0000000000000000e+00  -1.1275961880052030e-04 1.2186059343597876e-05 0.0000000000000000e+00  2.0007829622001884e-03 -8.4710146146700865e-04 0.0000000000000000e+00  2.5636571155959598e-06 -3.8822490523951429e-05 0.0000000000000000e+00  5.3473987379937943e-04 -4.5478331519195365e-04 0.0000000000000000e+00  2.8949036641240572e-05 -1.1321715923384277e-04 0.0000000000000000e+00  2.7063279125603729e-04 -5.97696