<?xml version="1.0"?>
<VTKFile type="UnstructuredGrid"  version="0.1"  >
<UnstructuredGrid>
<Piece  NumberOfPoints="1855" NumberOfCells="3532">
<Points>
<DataArray  type="Float64"  NumberOfComponents="3"  format="ascii">0 0 0  30 0 0  30 -10 0  0 -10 0  0.1391574078963744 0 0  0.2856388821882616 0 0  0.4398299073010886 0 0  0.6021362569539473 0 0  0.7729850389704483 0 0  0.9528258543586996 0 0  1.142131984380316 0 0  1.34140159760994 0 0  1.551159074717981 0 0  1.771956417032531 0 0  2.004374674080994 0 0  2.249025475789527 0 0  2.506552636773105 0 0  2.777633857742732 0 0  3.062982518028728 0 0  3.363349525995907 0 0  3.679525322337712 0 0  4.01234195575742 0 0  4.362675247811097 0 0  4.731447135329707 0 0  5.119628065610077 0 0  5.528239565804708 0 0  5.958356943167011 0 0  6.411112081475485 0 0  6.887696441559404 0 0  7.389364184530748 0 0  7.917435485335147 0 0  8.473300005202017 0 0  9.058420557070402 0 0  9.674336929103793 0 0  10.32266995225095 0 0  11.00512576896296 0 0  11.72350030646412 0 0  12.47968402994705 0 0  13.27566689579597 0 0  14.1135435963616 0 0  14.9955190732806 0 0  15.92391430904694 0 0  16.90117245730496 0 0  17.92986524844506 0 0  19.01269976086341 0 0  20.15252556282024 0 0  21.35234220269763 0 0  22.61530708683689 0 0  23.94474379751883 0 0  25.34415086349739 0 0  26.81721093579712 0 0  28.3678004819169 0 0  30 -1.111111111111111 0  30 -2.222222222222222 0  30 -3.333333333333333 0  30 -4.444444444444445 0  30 -5.555555555555555 0  30 -6.666666666666666 0  30 -7.777777777777777 0  30 -8.888888888888889 0  28.36780047917311 -10 0  26.8172109305839 -10 0  25.34415085606858 -10 0  23.94474378810899 -10 0  22.61530707566275 -10 0  21.3523421899591 -10 0  20.15252554870171 -10 0  19.01269974553473 -10 0  17.92986523206254 -10 0  16.90117244001232 -10 0  15.92391429097614 -10 0  14.99551905455266 -10 0  14.11354357708742 -10 0  13.27566687607703 -10 0  12.47968400987599 -10 0  11.72350028612546 -10 0  11.00512574843363 -10 0  10.32266993160086 -10 0  9.674336908396342 -10 0  9.058420536362949 -10 0  8.473299984546333 -10 0  7.917435464777824 -10 0  7.389364164113587 -10 0  6.887696420787165 -10 0  6.411112061446698 -10 0  5.95835692337857 -10 0  5.528239546282652 -10 0  5.119628046377237 -10 0  4.731447115907979 -10 0  4.362675229213632 -10 0  4.012341937260036 -10 0  3.679525304434552 -10 0  3.363349508456405 -10 0  3.062982500861274 -10 0  2.777633840953978 -10 0  2.506552620368097 -10 0  2.249025459771861 -10 0  2.004374658452946 -10 0  1.771956401795187 -10 0  1.551159059871345 -10 0  1.341401583153029 -10 0  1.142131970307521 -10 0  0.9528258406748833 -10 0  0.7729850256685147 -10 0  0.6021362439621285 -10 0  0.4398298947504031 -10 0  0.2856388700059078 -10 0  0.1391573960769001 -10 0  0 -9.855072463768115 0  0 -9.710144927536232 0  0 -9.565217391304348 0  0 -9.420289855072463 0  0 -9.27536231884058 0  0 -9.130434782608695 0  0 -8.985507246376812 0  0 -8.840579710144928 0  0 -8.695652173913043 0  0 -8.55072463768116 0  0 -8.405797101449275 0  0 -8.260869565217391 0  0 -8.115942028985508 0  0 -7.971014492753623 0  0 -7.826086956521739 0  0 -7.681159420289855 0  0 -7.536231884057971 0  0 -7.391304347826087 0  0 -7.246376811594203 0  0 -7.101449275362318 0  0 -6.956521739130435 0  0 -6.811594202898551 0  0 -6.666666666666667 0  0 -6.521739130434783 0  0 -6.376811594202898 0  0 -6.231884057971015 0  0 -6.086956521739131 0  0 -5.942028985507246 0  0 -5.797101449275362 0  0 -5.652173913043478 0  0 -5.507246376811594 0  0 -5.36231884057971 0  0 -5.217391304347826 0  0 -5.072463768115941 0  0 -4.927536231884058 0  0 -4.782608695652174 0  0 -4.637681159420289 0  0 -4.492753623188406 0  0 -4.347826086956522 0  0 -4.202898550724638 0  0 -4.057971014492754 0  0 -3.913043478260869 0  0 -3.768115942028985 0  0 -3.623188405797101 0  0 -3.478260869565217 0  0 -3.333333333333334 0  0 -3.188405797101449 0  0 -3.043478260869565 0  0 -2.898550724637681 0  0 -2.753623188405797 0  0 -2.608695652173912 0  0 -2.463768115942029 0  0 -2.318840579710145 0  0 -2.173913043478261 0  0 -2.028985507246377 0  0 -1.884057971014492 0  0 -1.739130434782609 0  0 -1.594202898550725 0  0 -1.44927536231884 0  0 -1.304347826086957 0  0 -1.159420289855072 0  0 -1.014492753623188 0  0 -0.8695652173913047 0  0 -0.72463768115942 0  0 -0.579710144927537 0  0 -0.4347826086956523 0  0 -0.2898550724637676 0  0 -0.1449275362318829 0  5.15859856094262 -4.976557621770688 0  2.816777084926057 -7.160262673925935 0  2.81677708460006 -2.839737326002783 0  2.227649803257325 -5.003121586636773 0  1.518662968975629 -8.46230852045241 0  1.518662969184829 -1.537691480152612 0  9.960740911025725 -5.055901393541221 0  1.491099662214591 -3.691833922963321 0  1.503675657181264 -6.345020369042368 0  5.319208041801049 -7.493850249937013 0  5.291109955459268 -2.489368743223226 0  1.096914507335763 -2.53623188405797 0  1.096914507253562 -7.463768115942029 0  1.089580194952752 -4.71277167923441 0  15.07565076110197 -5.047572991082069 0  7.501630508673601 -5.937500100385354 0  0.8894869418764504 -5.623930488933245 0  2.955144522453978 -1.440834296472408 0  2.955144521140721 -8.559165705576945 0  8.106603955004623 -2.748811534843258 0  3.662152539483591 -4.228178367024407 0  3.662181528265114 -5.771746159989156 0  0.8436558190317136 -0.8541050638451999 0  0.8436558075840921 -9.145894948342754 0  0.7854168197005933 -1.811594202898552 0  0.7894693398152999 -3.286543351392342 0  0.7854168196772591 -8.188405797101449 0  0.7854168196772591 -6.739130434782609 0  20.00078956016804 -4.999999999785771 0  0.7379120031523989 -3.977302749614766 0  6.584332478112232 -3.934875417052907 0  7.295091310194352 -7.969791332537982 0  9.811174303464586 -7.412814499648229 0  4.013376806449688 -2.206189431585293 0  4.013376806983409 -7.793810569017377 0  12.11177433894592 -2.818343737884045 0  2.591152707837148 -3.990098461753838 0  2.58990939378082 -6.025895074707176 0  25.43156400064585 -5.044446479916348 0  2.03262751726143 -2.282125834846944 0  2.032627517335952 -7.717874165160392 0  12.51865094522923 -6.491408052923457 0  0.598175343983641 -6.156971652625402 0  2.126700074935224 -0.8767654465386991 0  2.126700059112423 -9.123234559633019 0  6.617961838548696 -1.617756429129908 0  0.5903949564549755 -4.980060355019413 0  1.676697585305984 -5.547101897225158 0  4.773518305133987 -3.729331162566817 0  4.77931803486508 -6.231222307502165 0  4.878549698409591 -8.72048903376362 0  4.852580875634024 -1.222215410052823 0  0.5487847095754042 -2.675169258708207 0  0.545113423825768 -7.32369553390529 0  1.78738026998851 -4.400451872599477 0  1.68244194111824 -3.010100184333533 0  1.683984276238402 -7.018293626028473 0  9.998503440677371 -2.00585287985007 0  3.693061162502273 -3.243678395563028 0  3.694987482168253 -6.757603268814477 0  6.081763036485869 -5.83414381546261 0  0.5196640460586313 -1.350633211792632 0  0.5196640458460706 -8.649366789040087 0  3.84593363904758 -0.9906418103762418 0  3.845933620847308 -9.009358200471317 0  17.41551885287501 -3.057748733689079 0  17.30725517812527 -7.002961443761516 0  8.117698464370697 -4.451550942597151 0  0.4918476668493152 -0.4789811193757592 0  0.4918476560347713 -9.521018882514893 0  1.463770869328428 -0.6252343353791154 0  1.463770854281917 -9.374765668872765 0  0.5034132782032188 -4.464280853772128 0  3.138906271796685 -4.99999841599503 0  14.61209972381335 -2.388610981020637 0  6.208601124947327 -8.776231214192325 0  14.74910972998159 -7.542186851303819 0  2.243794246335625 -1.632184311040998 0  2.243794245689214 -8.367815689183566 0  0.4590235278399923 -5.431413993025926 0  0.4971508861448406 -2.209632053221267 0  0.4971508861368665 -7.790367946777407 0  0.4644363683211541 -3.560571347760519 0  6.478811279411406 -7.007392971062433 0  1.238895267772762 -4.173677632458826 0  1.293241773632479 -2.02256720952064 0  1.293241773542714 -7.977432790434841 0  0.4324740478030531 -0.942028985507247 0  0.4324740423701829 -9.057971014492754 0  2.117396640811705 -3.472968170680347 0  2.107095929630507 -6.531506384346077 0  8.087741545730886 -1.392783601483453 0  1.028911946384717 -1.352376108341404 0  1.028911946221715 -8.647623891551962 0  4.05691976296832 -4.991522392209158 0  11.51826881314265 -8.065248940008736 0  1.618560396201739 -4.958056164503666 0  2.701984523487646 -2.141781914603403 0  2.70198452396172 -7.858218085853512 0  2.843615645746219 -9.289121726447632 0  2.843615661334342 -0.7108782798429658 0  8.678774612240533 -8.488146490452822 0  6.487906449371135 -2.667543558824978 0  8.369190916679937 -7.129867754908394 0  11.80978191929258 -4.655775487536958 0  0.3792065166453504 -3.113833531412848 0  0.4134714637263563 -6.58827691137208 0  9.551050695080825 -3.49648183875815 0  1.083867845277057 -6.036251777836495 0  0.3756430921870901 -1.80381664325008 0  0.3756430921689482 -8.196183356748573 0  3.113073783220456 -3.503408140759125 0  3.113391383189963 -6.496678880796299 0  22.62850736315072 -3.277987336300344 0  22.59385352108348 -6.800312122582239 0  0.3777114402537816 -4.137047872695438 0  0.9196816123347897 -0.4281025456111269 0  0.9196815944880363 -9.571897460530383 0  0.4052043328723194 -5.827814332459883 0  8.865857694874787 -5.767686953139113 0  1.200388325130726 -5.182186034620629 0  5.65297436943758 -4.325500846767599 0  1.200079167961391 -3.009849046583253 0  1.20883344838 -7.021823297793294 0  1.057642414577487 -3.660996704809145 0  10.88812987788297 -6.333458225047037 0  4.493502926606794 -2.839780197438185 0  4.485862892033458 -7.147606077919463 0  0.3631651408878085 -7.003529808558233 0  1.946748828463205 -6.049056369468467 0  6.918750162798794 -4.993796052442676 0  3.351203216022585 -1.980935554775394 0  3.351203216441711 -8.019064445907297 0  2.281892243515294 -2.856654416292082 0  2.281892243715877 -7.143345583598931 0  5.811143619672087 -0.9953286820321026 0  2.695713766833098 -4.565354125099452 0  2.698172168139827 -5.435483248292925 0  19.86166219288896 -2.493475492328429 0  19.83739102036415 -7.594404063416508
[...]
<PointData  Vectors="displacement"> 
<DataArray  type="Float64"  Name="displacement"  NumberOfComponents="3" format="ascii">1.5820706837148421e-01 8.1884895488500142e-02 0.0000000000000000e+00  3.0340215663222684e-07 2.2111573688844629e-04 0.0000000000000000e+00  -4.4100188556302089e-07 -2.2630844914301212e-07 0.0000000000000000e+00  2.8593026856337314e-07 -2.7484469940062593e-07 0.0000000000000000e+00  8.9149743118600175e-02 2.0083239392995000e-02 0.0000000000000000e+00  5.3494064820373506e-02 6.5062568662459502e-03 0.0000000000000000e+00  3.6987171812131334e-02 2.6016301115297782e-03 0.0000000000000000e+00  2.6502535975064689e-02 1.3314420576486193e-03 0.0000000000000000e+00  2.1130450483993937e-02 3.6440363353437211e-04 0.0000000000000000e+00  1.6963518797912719e-02 -6.4769869846035739e-05 0.0000000000000000e+00  1.4248642848258794e-02 -3.1936473188096261e-04 0.0000000000000000e+00  1.2147767952273679e-02 -5.2845553918588436e-04 0.0000000000000000e+00  1.0405316199602457e-02 -6.1832254382737076e-04 0.0000000000000000e+00  9.0719063307073688e-03 -7.1256433114529505e-04 0.0000000000000000e+00  7.9165879672422161e-03 -7.4290128979354151e-04 0.0000000000000000e+00  7.0598410840238997e-03 -7.3661946600648437e-04 0.0000000000000000e+00  6.2467416761475651e-03 -7.6734141463919879e-04 0.0000000000000000e+00  5.6059892846626663e-03 -7.7796010347192619e-04 0.0000000000000000e+00  4.9890149137119038e-03 -7.6510984717773089e-04 0.0000000000000000e+00  4.4883064726599156e-03 -7.4556573441887056e-04 0.0000000000000000e+00  4.0367997280583903e-03 -7.1816370936128441e-04 0.0000000000000000e+00  3.6415931091012296e-03 -6.8626232112705896e-04 0.0000000000000000e+00  3.2959114518570079e-03 -6.5576880677165376e-04 0.0000000000000000e+00  2.9754676583686680e-03 -6.2059687433502610e-04 0.0000000000000000e+00  2.6807191254352562e-03 -5.7163779117982831e-04 0.0000000000000000e+00  2.4245366190772232e-03 -5.1693503704650079e-04 0.0000000000000000e+00  2.2049983115937735e-03 -4.6767682261192355e-04 0.0000000000000000e+00  1.9903226357396936e-03 -4.0851421242514942e-04 0.0000000000000000e+00  1.8067393152856103e-03 -3.5071724011117536e-04 0.0000000000000000e+00  1.6314680979363553e-03 -2.8724317937713003e-04 0.0000000000000000e+00  1.4764189908775449e-03 -2.2142105949580991e-04 0.0000000000000000e+00  1.3412935695233158e-03 -1.5419508092469621e-04 0.0000000000000000e+00  1.2277234565462737e-03 -9.2477703924762192e-05 0.0000000000000000e+00  1.1165252569631959e-03 -2.8575304473729415e-05 0.0000000000000000e+00  1.0209637403358154e-03 3.1107026022111893e-05 0.0000000000000000e+00  9.3730101870507251e-04 8.8117483100163657e-05 0.0000000000000000e+00  8.6747712940345254e-04 1.3753746824758323e-04 0.0000000000000000e+00  8.0148976417054613e-04 1.8238701076277506e-04 0.0000000000000000e+00  7.4551826500837150e-04 2.1841929742929416e-04 0.0000000000000000e+00  6.8942092570243251e-04 2.4946335903839386e-04 0.0000000000000000e+00  6.4296242321982644e-04 2.7039951805148897e-04 0.0000000000000000e+00  5.9350241488896366e-04 2.8583020298956016e-04 0.0000000000000000e+00  5.4880846605809795e-04 2.9283128888306934e-04 0.0000000000000000e+00  5.0085363418051604e-04 2.9475054826193898e-04 0.0000000000000000e+00  4.5610467318736190e-04 2.9046079139634573e-04 0.0000000000000000e+00  4.0521019242337897e-04 2.8259396388315904e-04 0.0000000000000000e+00  3.5475643882718478e-04 2.7232033318676984e-04 0.0000000000000000e+00  3.0089156726877646e-04 2.6084978192964490e-04 0.0000000000000000e+00  2.4943984872359900e-04 2.4852470152210670e-04 0.0000000000000000e+00  1.9059946328671551e-04 2.3614052958929735e-04 0.0000000000000000e+00  1.2788195204866434e-04 2.2696839428888304e-04 0.0000000000000000e+00  6.3680699247414094e-05 2.2194176114899338e-04 0.0000000000000000e+00  7.3116690548435355e-07 1.8497885159605672e-04 0.0000000000000000e+00  -1.9249590561944994e-07 1.4614155607891026e-04 0.0000000000000000e+00  -8.9444350450410209e-08 1.1034778169181235e-04 0.0000000000000000e+00  1.9961566001681682e-07 7.8552237386365545e-05 0.0000000000000000e+00  -2.6050552603280873e-07 5.0855622136376453e-05 0.0000000000000000e+00  2.1297515334460809e-07 2.8316843661179567e-05 0.0000000000000000e+00  -1.6061641276293589e-07 1.1735408414149271e-05 0.0000000000000000e+00  -1.5539707950884039e-08 1.8362438350508444e-06 0.0000000000000000e+00  -2.2962396328779185e-07 -9.9273458126032077e-07 0.0000000000000000e+00  -2.3827169641503505e-09 -1.0965774908513133e-06 0.0000000000000000e+00  8.7564407589863921e-07 -1.2178194414260926e-06 0.0000000000000000e+00  1.2397807141903336e-07 -3.8661812921320089e-07 0.0000000000000000e+00  1.9660397424993165e-07 -6.2313280263953338e-07 0.0000000000000000e+00  1.0064604249569668e-06 -8.7671932727116005e-07 0.0000000000000000e+00  3.3472060838331529e-07 -1.1858984633295568e-06 0.0000000000000000e+00  1.6397170686306698e-06 -1.1095674664760807e-06 0.0000000000000000e+00  5.1498978801458300e-07 -7.0062744633749376e-07 0.0000000000000000e+00  1.6078802524700203e-06 -8.0459222791220140e-07 0.0000000000000000e+00  8.4899599438308073e-07 -3.2090959931880982e-07 0.0000000000000000e+00  1.2131000731469950e-06 -4.0659123855723066e-07 0.0000000000000000e+00  1.2434896358267290e-06 8.4523741705645754e-08 0.0000000000000000e+00  1.4486603373638439e-06 8.8943341479190530e-08 0.0000000000000000e+00  4.2393692720259397e-07 1.9409170570255126e-07 0.0000000000000000e+00  8.9777231841714463e-07 6.6858922477389051e-07 0.0000000000000000e+00  -3.9573365688611025e-08 1.9712983218649859e-07 0.0000000000000000e+00  1.3198245475885643e-06 1.7548786315563670e-06 0.0000000000000000e+00  4.2228025306146617e-07 1.2288257247417287e-06 0.0000000000000000e+00  9.3083034061287714e-07 1.1386947322940966e-06 0.0000000000000000e+00  -8.1628565715168071e-07 1.1107401732390371e-06 0.0000000000000000e+00  1.5031259838283417e-07 1.6951987352071360e-06 0.0000000000000000e+00  -1.1007286136241428e-06 2.3141132950204186e-06 0.0000000000000000e+00  -1.3067409565061452e-06 1.4184047540820255e-06 0.0000000000000000e+00  -1.2776895799901816e-06 6.9043181119971510e-07 0.0000000000000000e+00  -3.5984421281214434e-06 1.7595393339433767e-06 0.0000000000000000e+00  -1.4090108655742823e-06 8.0887662813436370e-07 0.0000000000000000e+00  -2.4939106334567527e-06 9.5839170367760294e-07 0.0000000000000000e+00  -1.5604907854944822e-06 5.9073886575542662e-07 0.0000000000000000e+00  -3.7420754552713518e-06 9.3207552836036127e-07 0.0000000000000000e+00  -3.6016031815843148e-07 -3.4700992060352128e-08 0.0000000000000000e+00  -1.5354442870287214e-06 6.0216748811375800e-08 0.0000000000000000e+00  -1.2760324122137113e-06 2.4438858699438464e-08 0.0000000000000000e+00  -9.2589344658109313e-07 -7.8944551198619918e-08 0.0000000000000000e+00  -2.0956333477072596e-06 -4.2399324088382067e-07 0.0000000000000000e+00  -5.0028299945398674e-07 -1.7030441255266091e-07 0.0000000000000000e+00  -1.7187114062829927e-06 -5.8828221937456964e-07 0.0000000000000000e+00  -2.4338237439565585e-07 -1.4296567248136055e-07 0.0000000000000000e+00  -3.0167459947295025e-07 -4.6269005704432769e-07 0.0000000000000000e+00  -7.5004135279788269e-07 -4.0738290277550110e-07 0.0000000000000000e+00  -4.0911293578960713e-07 -4.3448750415472980e-07 0.0000000000000000e+00  -1.0267117665987223e-07 -1.5461263739396118e-07 0.0000000000000000e+00  -2.4084145881821787e-07 -2.3053457647458652e-07 0.0000000000000000e+00  -2.2067574184036816e-08 -2.9358134689716541e-07 0.0000000000000000e+00  7.3658764443184561e-10 -1.5698135054760102e-07 0.0000000000000000e+00  -3.4664478436790413e-07 -2.7526718189762024e-07 0.0000000000000000e+00  8.1777789019168364e-08 -2.7505561649607512e-07 0.0000000000000000e+00  -8.3451168518253917e-08 -9.1310522935975075e-08 0.0000000000000000e+00  -6.9299866038859207e-08 7.9546815193873827e-06 0.0000000000000000e+00  1.0241992216412193e-07 2.0191090549119693e-05 0.0000000000000000e+00  -1.2771026389234884e-07 3.5905729649083316e-05 0.0000000000000000e+00  1.1796477341465497e-08 5.5164347253685004e-05 0.0000000000000000e+00  -5.9847038306026041e-08 7.7276091754907285e-05 0.0000000000000000e+00  -4.7647485198995517e-08 1.0248806340104225e-04 0.0000000000000000e+00  1.0830598588352404e-07 1.3025852343148054e-04 0.0000000000000000e+00  -1.0070016177571240e-07 1.6059328032917684e-04 0.0000000000000000e+00  9.1898270824304598e-08 1.9335827006113388e-04 0.0000000000000000e+00  -1.2172931379501921e-07 2.2835944412063542e-04 0.0000000000000000e+00  7.4845200424478760e-08 2.6550700068652951e-04 0.0000000000000000e+00  -4.8151676479652162e-08 3.0477881801046987e-04 0.0000000000000000e+00  5.4139941600818467e-08 3.4608833009674625e-04 0.0000000000000000e+00  -1.0019781649689665e-07 3.8933780044463973e-04 0.0000000000000000e+00  6.1637435957709555e-08 4.3457860171537043e-04 0.0000000000000000e+00  -7.4067608688269161e-08 4.8173117201918394e-04 0.0000000000000000e+00  -4.7708883263550026e-08 5.3091991407434424e-04 0.0000000000000000e+00  2.3715806502132811e-08 5.8186794263371383e-04 0.0000000000000000e+00  5.6771386642912714e-08 6.3498092031188675e-04 0.0000000000000000e+00  -2.7316756579084418e-08 6.9000431830171498e-04 0.0000000000000000e+00  4.0605608408172366e-08 7.4712025987362012e-04 0.0000000000000000e+00  -1.0691762582892266e-07 8.0630787736065931e-04 0.0000000000000000e+00  2.9712596441822113e-08 8.6792218972928711e-04 0.0000000000000000e+00  1.2765399884143484e-08 9.3136141279765220e-04 0.0000000000000000e+00  -1.7274278613173244e-08 9.9783696108087698e-04 0.0000000000000000e+00  -1.2865947851246041e-07 1.0668358460489047e-03 0.0000000000000000e+00  -6.2493790961401542e-08 1.1382516314525758e-03 0.0000000000000000e+00  -6.3956203650319897e-08 1.2122342069796641e-03 0.0000000000000000e+00  8.8771613613478721e-08 1.2896099750531475e-03 0.0000000000000000e+00  -1.6192372429287135e-07 1.3702993778636763e-03 0.0000000000000000e+00  5.4283097060090335e-08 1.4545970609031434e-03 0.0000000000000000e+00  -1.7896673039039250e-07 1.5425750422280596e-03 0.0000000000000000e+00  6.5945946491854671e-08 1.6348600940213147e-03 0.0000000000000000e+00  -1.3961328774537804e-07 1.7311472352541182e-03 0.0000000000000000e+00  -7.2727505244991924e-08 1.8318113989271299e-03 0.0000000000000000e+00  -9.4545275210902279e-08 1.9395993932526216e-03 0.0000000000000000e+00  -1.7457624284797444e-08 2.0503096472062562e-03 0.0000000000000000e+00  2.1409376159745026e-07 2.1703571651774606e-03 0.0000000000000000e+00  -5.3290636561577752e-07 2.2955081794797379e-03 0.0000000000000000e+00  2.8375603409572579e-07 2.4274466733895119e-03 0.0000000000000000e+00  -3.0550638426185494e-07 2.5686491425620994e-03 0.0000000000000000e+00  2.0606617003325088e-07 2.7195484909100149e-03 0.0000000000000000e+00  -3.1063257433557803e-07 2.8804534475615142e-03 0.0000000000000000e+00  -2.1139172189127251e-07 3.0516873989018234e-03 0.0000000000000000e+00  -7.5786893888650016e-08 3.2389701018579243e-03 0.0000000000000000e+00  7.7449744496844908e-07 3.4377906077682143e-03 0.0000000000000000e+00  -5.3160721232394471e-07 3.6540030856685992e-03 0.0000000000000000e+00  1.2194808206093755e-08 3.8898253271531721e-03 0.0000000000000000e+00  2.2885983411305087e-07 4.1482189480625256e-03 0.0000000000000000e+00  -2.1929869079370627e-07 4.4273592099026652e-03 0.0000000000000000e+00  -2.5393813388969621e-07 4.7316117715571742e-03 0.0000000000000000e+00  -1.3449120779387756e-06 5.0812622886251164e-03 0.0000000000000000e+00  1.3219046342350704e-06 5.4612531417504778e-03 0.0000000000000000e+00  -1.9454399126371250e-06 5.8866422489673373e-03 0.0000000000000000e+00  2.5178172689253579e-06 6.3733680912887117e-03 0.0000000000000000e+00  -3.4426108325436289e-06 6.9235392307202747e-03 0.0000000000000000e+00  9.1258029532060096e-07 7.5614679206898305e-03 0.0000000000000000e+00  -5.9411563846107287e-06 8.2999572325342143e-03 0.0000000000000000e+00  2.1108236044559424e-06 9.2024156725651843e-03 0.0000000000000000e+00  -1.6471410547379996e-05 1.0237586165228440e-02 0.0000000000000000e+00  4.1348938251867038e-06 1.1528599552174014e-02 0.0000000000000000e+00  -2.3996005780614254e-05 1.3078722965357626e-02 0.0000000000000000e+00  -1.0403681676782316e-05 1.5171019565097008e-02 0.0000000000000000e+00  -3.7731702256483456e-05 1.8124581074494283e-02 0.0000000000000000e+00  -1.4580234528799665e-04 2.1708575381740588e-02 0.0000000000000000e+00  4.3703492580980403e-04 2.7861064115379686e-02 0.0000000000000000e+00  -3.6346144686402581e-03 3.8592506779430408e-02 0.0000000000000000e+00  1.8503262222573532e-02 5.3767658326184090e-02 0.0000000000000000e+00  -1.2379590949326277e-04 -7.2754822664525493e-04 0.0000000000000000e+00  -6.4421175680679638e-04 1.7679138129708883e-04 0.0000000000000000e+00  -4.7777675240717643e-05 -8.8643839467853586e-04 0.0000000000000000e+00  -8.4478543706635676e-04 5.7395976847541489e-04 0.0000000000000000e+00  -3.0775567789546724e-04 1.9150441011464814e-04 0.0000000000000000e+00  2.3548839942841524e-04 -7.0190372434980836e-04 0.0000000000000000e+00  5.3569988535910932e-04 -3.2037783462350047e-04 0.0000000000000000e+00  -1.0313357875617428e-03 1.4649476012740530e-03 0.0000000000000000e+00  -5.5679212265154069e-04 7.2208693450699114e-04 0.0000000000000000e+00  -4.2408427758557716e-04 -2.0231472398029855e-04 0.0000000000000000e+00  1.3313709083845977e-03 -1.3198465469377067e-03 0.0000000000000000e+00  -1.3690108969730895e-03 2.4588490455058980e-03 0.0000000000000000e+00  -3.2845025716089814e-04 4.7880617025040792e-04 0.0000000000000000e+00  -6.7015674435179709e-04 1.5524304849831941e-03 0.0000000000000000e+00  4.9500921068112709e-04 4.1616584248508428e-05 0.0000000000000000e+00  1.2303898193377922e-04 -4.8663924241729937e-04 0.0000000000000000e+00  -4.3843984713562575e-04 1.2171139023627981e-03 0.0000000000000000e+00  2.5998896601932826e-03 -2.0578104927201366e-03 0.0000000000000000e+00  -4.3612591239881220e-04 6.3661319719266957e-05 0.0000000000000000e+00  1.0880983827393513e-03 -6.5294786581207706e-04 0.0000000000000000e+00  -3.8045436847785621e-04 -6.0081550821309540e-04 0.0000000000000000e+00  -6.6164017034493836e-04 -1.5850486881649207e-04 0.0000000000000000e+00  8.8111608158218202e-04 -2.0344579053782657e-04 0.0000000000000000e+00  -1.1806602535222157e-04 9.2420143625196384e-05 0.0000000000000000e+00  -1.7824321897232523e-03 3.8816152687782381e-03 0.0000000000000000e+00  -9.0082876490223303e-04 2.8032938978118566e-03 0.0000000000000000e+00  -1.9188632382794436e-04 3.0282460576990417e-04 0.0000000000000000e+00  -2.9342996350097757e-04 7.7005699166220805e-04 0.0000000000000000e+00  3.1155284645586367e-04 9.2299067578022854e-05 0.0000000000000000e+00  -6.4156141519392147e-04 2.2960862604328395e-03 0.0000000000000000e+00  6.0583266287102667e-04 -9.0867752691986222e-04 0.0000000000000000e+00  -1.3307227251249789e-04 -1.6988289646502816e-04 0.0000000000000000e+00  1.8185540412065827e-04 -1.5441492016557263e-04 0.0000000000000000e+00  1.4734304810727120e-03 -1.6306904248335652e-03 0.0000000000000000e+00  -5.5071196940627699e-04 -4.3357028211154690e-05 0.0000000000000000e+00  7.9210095623080819e-04 -5.0276475605335562e-05 0.0000000000000000e+00  -7.7629374357420389e-04 8.1064398989994318e-05 0.0000000000000000e+00  -7.5093897323042695e-04 3.2014056118459733e-04 0.0000000000000000e+00  1.2805895183480383e-04 7.0621093539851104e-05 0.0000000000000000e+00  -2.8844475395403853e-04 -4.6636154020932106e-04 0.0000000000000000e+00  -4.9300825316127132e-04 2.7237680006503431e-04 0.0000000000000000e+00  4.0162771989444505e-04 -7.0515351578428193e-05 0.0000000000000000e+00  -2.6425449871174687e-04 1.0466630559376063e-03 0.0000000000000000e+00  4.5628380259043321e-03 -2.5397078813130668e-03 0.0000000000000000e+00  -2.6007288378854129e-04 6.1375675349726135e-05 0.0000000000000000e+00  1.6715557927166815e-03 -8.7583043213736720e-04 0.0000000000000000e+00  -3.6815394053771533e-04 1.6805761117569965e-03 0.0000000000000000e+00  -7.0943873695541657e-04 8.6723517815556783e-04 0.0000000000000000e+00  3.2095334743396464e-04 -1.0904747258274725e-03 0.0000000000000000e+00  -4.7307191416211632e-04 -3.6011261403664450e-04 0.0000000000000000e+00  -3.5234273421297753e-04 -4.6610763474924411e-05 0.0000000000000000e+00  2.4355435062403236e-03 -1.2928120721029755e-03 0.0000000000000000e+00  -9.5233210009909239e-04 3.9468318360818587e-03 0.0000000000000000e+00  -1.7754122445280197e-04 5.8447306619701831e-04 0.0000000000000000e+00  -9.1478140997664956e-04 1.0075358719641432e-03 0.0000000000000000e+00  -1.0864245823047737e-03 1.0179621027696312e-03 0.0000000000000000e+00  -5.1841559654079846e-04 4.8870605564221522e-04 0.0000000000000000e+00  1.0420228470252723e-03 -2.4418397573315034e-04 0.0000000000000000e+00  2.0177683879820708e-04 -1.1089758551813672e-03 0.0000000000000000e+00  -6.5540894701707013e-04 -5.0200932331258218e-05 0.0000000000000000e+00  -1.2199613887932284e-04 -5.5894618175640035e-04 0.0000000000000000e+00  -2.2346740050408665e-03 6.2363327556288163e-03 0.0000000000000000e+00  -1.0480761464826516e-04 1.9822949964497019e-04 0.0000000000000000e+00  3.1844064823588164e-03 -1.5754246905148937e-03 0.0000000000000000e+00  -3.3827372916857095e-04 2.6760655604437784e-06 0.0000000000000000e+00  4.8889086372880014e-04 1.6135516438052478e-04 0.0000000000000000e+00  2.8769849655776265e-04 2.8640242728975252e-05 0.0000000000000000e+00  5.7428990652340936e-04 -6.1252400925204914e-04 0.0000000000000000e+00  3.1167322360468493e-03 1.1083374928688352e-04 0.0000000000000000e+00  -4.3277569776567188e-05 4.0472123119102636e-05 0.0000000000000000e+00  6.5630741322937735e-03 -3.0962898371329410e-03 0.0000000000000000e+00  -1.4997588592613071e-04 4.9285684808218101e-05 0.0000000000000000e+00  -3.8000133782168787e-04 2.0744806102207056e-03 0.0000000000000000e+00  -7.2207373516898791e-04 -5.8758311934314122e-05 0.0000000000000000e+00  6.5586234422252733e-04 1.3264762105875838e-04 0.0000000000000000e+00  -2.2433839858205281e-04 -7.0192579557378889e-05 0.0000000000000000e+00  2.8975021372067421e-04 -2.9772895072369736e-06 0.0000000000000000e+00  1.4944077588288549e-03 -1.8080762948978993e-03 0.0000000000000000e+00  -4.2124978394961275e-04 1.4503957789277169e-04 0.0000000000000000e+00  -2.5199309054627599e-04 1.4475021988728323e-03 0.0000000000000000e+00  -1.1887972379116738e-03 4.8693036710094539e-03 0.0000000000000000e+00  -1.4176358548142183e-04 4.3316599973587655e-04 0.0000000000000000e+00  -5.1708711823561103e-04 2.9281253468976731e-03 0.0000000000000000e+00  -2.1195735062132142e-04 -3.2805259302322152e-04 0.0000000000000000e+00  -8.5386931964765876e-04 1.6627698713147904e-03 0.0000000000000000e+00  -1.2111532067419569e-03 1.3518235375300123e-03 0.0000000000000000e+00  -3.2470528003901081e-04 3.1676549937256207e-04 0.0000000000000000e+00  -2.7974002479618943e-03 7.6033123187623482e-03 0.0000000000000000e+00  -6.6870529507875279e-05 1.1364519326321850e-04 0.0000000000000000e+00  -9.0880057117491875e-04 4.5122294856065221e-04 0.0000000000000000e+00  -6.5465633030828885e-04 4.6339583845143888e-04 0.0000000000000000e+00  1.4037071104119579e-03 -4.9363121115232785e-04 0.0000000000000000e+00  -9.3662494472480408e-04 1.1739021280283638e-03 0.0000000000000000e+00  -2.0098644176649736e-04 1.8168553355528929e-04 0.0000000000000000e+00  -4.6169960922341741e-04 -4.8857187781206819e-04 0.0000000000000000e+00  2.0769486420139265e-04 -5.5301453443130447e-05 0.0000000000000000e+00  -7.9195096047411390e-04 1.0558633589493065e-03 0.0000000000000000e+00  8.1770180232982530e-04 -1.4824685059737462e-03 0.0000000000000000e+00  -5.4434262937553385e-04 1.4501751954126640e-04 0.0000000000000000e+00  -2.5341585796095006e-04 2.7494187034612846e-05 0.0000000000000000e+00  4.5272373580269682e-03 -1.8813410837725244e-03 0.0000000000000000e+00  6.1867208126838682e-06 -8.7486835379311091e-05 0.0000000000000000e+00  1.2120938675545710e-03 -1.0228272880120680e-03 0.0000000000000000e+00  6.6427808281856993e-05 -2.5506647135602249e-04 0.0000000000000000e+00  6.1306718523526779e-04 -1.34915619