<?xml version="1.0"?>
<VTKFile type="UnstructuredGrid"  version="0.1"  >
<UnstructuredGrid>
<Piece  NumberOfPoints="572" NumberOfCells="1038">
<Points>
<DataArray  type="Float64"  NumberOfComponents="3"  format="ascii">0 0 0  4 0 0  4 -1 0  0 -1 0  0.09999999999999999 0 0  0.2 0 0  0.3 0 0  0.4 0 0  0.4999999999999998 0 0  0.5999999999999996 0 0  0.6999999999999995 0 0  0.7999999999999994 0 0  0.8999999999999992 0 0  0.999999999999999 0 0  1.099999999999999 0 0  1.199999999999999 0 0  1.299999999999999 0 0  1.399999999999999 0 0  1.499999999999998 0 0  1.599999999999998 0 0  1.699999999999999 0 0  1.799999999999999 0 0  1.899999999999999 0 0  2 0 0  2.1 0 0  2.200000000000001 0 0  2.300000000000001 0 0  2.400000000000002 0 0  2.500000000000002 0 0  2.600000000000002 0 0  2.700000000000003 0 0  2.800000000000003 0 0  2.900000000000004 0 0  3.000000000000004 0 0  3.100000000000005 0 0  3.200000000000005 0 0  3.300000000000005 0 0  3.400000000000004 0 0  3.500000000000004 0 0  3.600000000000003 0 0  3.700000000000002 0 0  3.800000000000002 0 0  3.900000000000001 0 0  4 -0.08333333333333325 0  4 -0.1666666666666665 0  4 -0.2499999999999997 0  4 -0.333333333333333 0  4 -0.4166666666666666 0  4 -0.5000000000000001 0  4 -0.5833333333333337 0  4 -0.6666666666666673 0  4 -0.7500000000000006 0  4 -0.8333333333333337 0  4 -0.9166666666666669 0  3.9 -1 0  3.8 -1 0  3.7 -1 0  3.6 -1 0  3.5 -1 0  3.4 -1 0  3.300000000000001 -1 0  3.200000000000001 -1 0  3.100000000000001 -1 0  3.000000000000001 -1 0  2.900000000000001 -1 0  2.800000000000001 -1 0  2.700000000000001 -1 0  2.600000000000001 -1 0  2.500000000000002 -1 0  2.400000000000002 -1 0  2.300000000000002 -1 0  2.200000000000001 -1 0  2.100000000000001 -1 0  2 -1 0  1.9 -1 0  1.799999999999999 -1 0  1.699999999999999 -1 0  1.599999999999998 -1 0  1.499999999999998 -1 0  1.399999999999998 -1 0  1.299999999999997 -1 0  1.199999999999997 -1 0  1.099999999999996 -1 0  0.9999999999999956 -1 0  0.899999999999995 -1 0  0.7999999999999949 -1 0  0.6999999999999953 -1 0  0.5999999999999956 -1 0  0.499999999999996 -1 0  0.3999999999999968 -1 0  0.2999999999999976 -1 0  0.1999999999999984 -1 0  0.0999999999999992 -1 0  0 -0.9166666666666667 0  0 -0.8333333333333335 0  0 -0.7500000000000002 0  0 -0.666666666666667 0  0 -0.5833333333333335 0  0 -0.4999999999999999 0  0 -0.4166666666666663 0  0 -0.3333333333333327 0  0 -0.2499999999999994 0  0 -0.1666666666666663 0  0 -0.08333333333333315 0  3.491090701185765 -0.499339806301727 0  0.4950203227078167 -0.4989128584675094 0  2.64262313781888 -0.4879297506908338 0  1.449999999999998 -0.5 0  2.058402291097397 -0.5120941233772698 0  0.9749999999999992 -0.4749999999999993 0  3.081769880806683 -0.5597407802610527 0  1.745473944409859 -0.3290615136625714 0  2.347280045777389 -0.6545118286598804 0  2.335768673639667 -0.3237239238763549 0  1.750327526220345 -0.682828817540943 0  3.707492972392909 -0.3028030525063309 0  0.293580296675358 -0.7109385489008262 0  3.71498825372084 -0.7080088716251347 0  0.2918697062415769 -0.2988161261649331 0  3.250413907284768 -0.3098344370860925 0  0.7481958762886598 -0.6907216494845363 0  2.897531957111618 -0.3144800466372323 0  1.202975631932859 -0.6871206495416401 0  0.7276881720430104 -0.301075268817204 0  1.222241507685503 -0.2908020883113388 0  2.821785532795642 -0.7097679058139483 0  3.313580174540806 -0.7110306688463971 0  1.50219738324048 -0.2570217529780842 0  2.109436430026117 -0.7485141141565509 0  2.001923272149049 -0.2612004201407864 0  2.591779594323503 -0.2533220405676498 0  1.508220405676497 -0.7466779594323502 0  2.584305190871683 -0.7502831919469019 0  3.478286033189422 -0.23795222571263 0  0.5261060937617643 -0.7658117832712512 0  3.785135972681774 -0.5040707172464052 0  0.2090645029521114 -0.4969048262114374 0  0.9574438986108131 -0.2423163095862805 0  0.9754244626643473 -0.7628641460288867 0  0.5097271592765806 -0.2292760602594508 0  3.047448237147327 -0.7984168297371277 0  3.522893514415914 -0.785726174019542 0  3.27411286219494 -0.5150314861460955 0  2.876192398366876 -0.5166549013936721 0  3.072152863254761 -0.2028141497170135 0  2.188888454287124 -0.1960738743988359 0  1.911111545712876 -0.8039261256011641 0  0.6968885413728847 -0.4974520678389611 0  1.252104989604988 -0.4970114345114344 0  1.649610740490046 -0.5028202775347195 0  2.446694231298332 -0.485633542353709 0  1.845992484168205 -0.4989419599210881 0  2.246214131289309 -0.4959316037735846 0  2.743080194417513 -0.1797603284198384 0  1.345217800961618 -0.8177514544794908 0  3.831771135951664 -0.1764827624326512 0  0.168177957407361 -0.823589473522286 0  3.837430960455357 -0.8286944021295046 0  0.167391597779325 -0.1752538625856722 0  3.066111254276541 -0.3870061788029396 0  1.358909159394344 -0.1720779287034414 0  1.669284305949535 -0.172759019086266 0  2.264869859182613 -0.8283162784008133 0  2.434165412425708 -0.1697954173687042 0  1.668706113475668 -0.8314479749300888 0  1.842683258862577 -0.1656794186994128 0  3.848464877921415 -0.3616620315967092 0  0.151535122078585 -0.6383379684032905 0  3.848707346075076 -0.6466646759135177 0  0.1509968549082652 -0.3452619778382686 0  2.732975255829699 -0.3508363638623346 0  1.370252652534258 -0.6495109932111033 0  1.11832587037856 -0.1733419061976365 0  2.439737645513045 -0.836456385212641 0  3.331229791744127 -0.165499768727795 0  0.6726591332606813 -0.8336090461037186 0  1.132616756253317 -0.8280723285747189 0  1.950606351728588 -0.6518091391595896 0  2.153824719141371 -0.3536025000168445 0  3.62532407618639 -0.1564302309141494 0  0.3803710983093131 -0.8404803223371928 0  1.377912260103223 -0.3517997484404782 0  0.8924624300191402 -0.6125774599817652 0  3.207249628251628 -0.8375220474312923 0  0.6546785576266954 -0.155978749966339 0  2.719684587363634 -0.8327734580127736 0  3.647699282718985 -0.5637569936419204 0  0.3570156455557587 -0.5653989322146081 0  0.8322251523939386 -0.8403847541693579 0  0.3645988133126639 -0.1519337183240305 0  1.061404500324257 -0.6180105656135877 0  3.396758647231262 -0.3766313243368538 0  0.8148021518360848 -0.1629813466347811 0  0.6093556516052328 -0.6299486913462624 0  0.415997866655875 -0.3680522660477806 0  0.5920160015096863 -0.3645412637424194 0  3.572255424430109 -0.362089200459548 0  1.08043890485706 -0.3398660584513152 0  2.923658429424994 -0.1561137197110593 0  3.653613361778262 -0.8546909554159527 0  3.456739790681186 -0.6487708965425909 0  0.8424839600900655 -0.4190496412612194 0  2.6968241495241 -0.6460539373019687 0  2.90777185621417 -0.8467190841342236 0  3.167421855912535 -0.6853653881872064 0  3.378998015397395 -0.8550267917096944 0  2.549623533286458 -0.6074164390661531 0  1.563854363100012 -0.3870450365840445 0  1.945115925347995 -0.3956210114182645 0  2.206384380497951 -0.6363666106481864 0  2.9679770331043 -0.6663940397605803 0  2.492817266347368 -0.3527603982764793 0  1.545918816851176 -0.6075709531787901 0  2.028456012399734 -0.8701972194942087 0  2.065700499244939 -0.1359115819594244 0  1.113999927383315 -0.4803729266898425 0  3.194766700972084 -0.1349664610116483 0  1.791586588241401 -0.8656156413257059 0  2.307333345265183 -0.1346440826116952 0  2.64093544674549 -0.1331489671463476 0  0.4565707965077976 -0.6534785968762363 0  1.459077473581533 -0.8718776489042938 0  1.56279060907849 -0.1324694119967317 0  0.3144726782861624 -0.406319735913186 0  3.686635179527132 -0.4155119011072678 0  3.583227123430988 -0.6879918386850498 0  3.884530589958141 -0.5337716741137969 0  0.1138901561454064 -0.4712706309748976 0  2.551320204776417 -0.8759992125181354 0  2.968455986624249 -0.4231600805006418 0  1.843995631966074 -0.2713141166917306 0  1.23826657576458 -0.1310261345083986 0  1.632298315745049 -0.7047459448475459 0  3.454977942639006 -0.1019833897113779 0  2.11213131937471 -0.6131325843633801 0  1.631670858552932 -0.3027829344070553 0  0.549999999999996 -0.8847857258099061 0  2.175907031111534 -0.8808902127996396 0  2.440789547527098 -0.7252338716820566 0  0.9499999999999957 -0.8853403742417534 0  0.1192006629558211 -0.7258150973260704 0  0.1086302422397907 -0.2553484983400458 0  3.891615894289125 -0.7428762999771643 0  3.880790852604017 -0.2741969419997524 0  2.58999033724616 -0.3943081590477266 0  0.95310975133633 -0.1100375897447476 0  0.9389274183125247 -0.357418794071099 0  0.5436861363815539 -0.1129935035840732 0  1.237622314162623 -0.8886349339205675 0  2.766143121931948 -0.4669467935657355 0  3.157965388639583 -0.4824178848815803 0  3.732166646772587 -0.1061123528525496 0  0.8463407040907105 -0.2803849511418723 0  0.2658218649297859 -0.8967607408767373 0  3.384357462435764 -0.5450459842617623 0  1.954320722194999 -0.1009956898074866 0  0.8013980381943526 -0.5278489923710374 0  3.744358883260304 -0.603637271636247 0  0.2581863795088786 -0.6001369967359219 0  0.2629966501688439 -0.1025990268626685 0  0.3980883060404261 -0.7330050441066103 0  1.076076863672032 -0.7275728344185368 0  1.749999999999999 -0.5550190100941714 0  2.351512610076122 -0.5440435521440684 0  0.8619623856291254 -0.7246873586411677 0  3.553081028189586 -0.8932001918706867 0  2.806636304103025 -0.6100531542467602 0  2.546714489935151 -0.08818853426728746 0  1.172246975380209 -0.5783812280673658 0  1.560837452008869 -0.9052833905541354 0  3.005913589025749 -0.2858329927011495 0  3.104244827324224 -0.8867193195303111 0  0.6392996137609843 -0.7340215588892431 0  3.370409685921998 -0.2678372406131186 0  1.860045411420065 -0.6863616357695403 0  2.239306624928278 -0.3159929711989559 0  0.620090528303912 -0.2611000972275821 0  1.457468991263225 -0.08750102207080079 0  1.752790718352056 -0.1005001786212033 0  0.394717592657301 -0.2605042194828123 0  3.745581301416776 -0.9074819423317642 0  3.141158115761163 -0.2920724092797614 0  3.257376892791448 -0.6242591031763242 0  2.350280737493299 -0.9013197570937703 0  3.914203942485891 -0.125 0  3.914203942485891 -0.8750000000000003 0  0.08579605751410901 -0.1249999999999997 0  0.08579605751410968 -0.875 0  3.921126745430668 -0.4525
[...]
<PointData  Vectors="displacement"> 
<DataArray  type="Float64"  Name="displacement"  NumberOfComponents="3" format="ascii">-2.4549973436588626e-03 -4.1405914691456991e-02 0.0000000000000000e+00  2.3033477613183979e-03 -4.1795579415695540e-02 0.0000000000000000e+00  4.5450455416664653e-03 -2.5154084073058720e-03 0.0000000000000000e+00  -4.2066683937137875e-03 -2.2978537203048668e-03 0.0000000000000000e+00  6.1504308883359934e-04 -5.4326405445182108e-02 0.0000000000000000e+00  -4.2840318236737391e-04 -5.9004362888900409e-02 0.0000000000000000e+00  8.8720016494184251e-05 -6.0405391204273608e-02 0.0000000000000000e+00  -5.9709401697084179e-05 -6.0502783257085517e-02 0.0000000000000000e+00  -3.5534351418246569e-05 -5.9877954801726627e-02 0.0000000000000000e+00  4.5473576897075470e-05 -5.8756849987507388e-02 0.0000000000000000e+00  -4.7943312502897079e-05 -5.7426810176516130e-02 0.0000000000000000e+00  2.0556392432767883e-05 -5.6077236882666671e-02 0.0000000000000000e+00  -2.4646280682522991e-05 -5.4740210277984730e-02 0.0000000000000000e+00  7.4337876397089120e-06 -5.3484834926497596e-02 0.0000000000000000e+00  -6.1639782485007774e-06 -5.2319131635680624e-02 0.0000000000000000e+00  3.1271062311322154e-06 -5.1288306571921072e-02 0.0000000000000000e+00  -3.5380086829064119e-06 -5.0395555469880463e-02 0.0000000000000000e+00  -2.8356925439276954e-06 -4.9634754185400282e-02 0.0000000000000000e+00  1.4338696500147934e-06 -4.9002379825204001e-02 0.0000000000000000e+00  -1.7085346196434955e-06 -4.8490718812914259e-02 0.0000000000000000e+00  -1.5874084381640325e-06 -4.8106034611933038e-02 0.0000000000000000e+00  3.0264347552407805e-06 -4.7833742571010737e-02 0.0000000000000000e+00  -5.2391006504836117e-06 -4.7670916860863576e-02 0.0000000000000000e+00  3.4991222917679575e-06 -4.7616985398180212e-02 0.0000000000000000e+00  -4.3974013513881621e-06 -4.7668664383688053e-02 0.0000000000000000e+00  4.0819164624074233e-06 -4.7830625295817920e-02 0.0000000000000000e+00  -4.4053457256822872e-07 -4.8111419011148696e-02 0.0000000000000000e+00  -2.7994707859403720e-06 -4.8485757522504169e-02 0.0000000000000000e+00  -6.5151134795033679e-06 -4.8999219061198196e-02 0.0000000000000000e+00  7.7864381560434787e-06 -4.9630503572461772e-02 0.0000000000000000e+00  1.9392096024056410e-07 -5.0388504882552629e-02 0.0000000000000000e+00  2.2964267351209892e-06 -5.1291659289438851e-02 0.0000000000000000e+00  1.9110681844411832e-05 -5.2310656112690104e-02 0.0000000000000000e+00  6.3786009451961980e-06 -5.3461568037668640e-02 0.0000000000000000e+00  3.1216092971884037e-05 -5.4722898213085028e-02 0.0000000000000000e+00  -4.3329098121171322e-05 -5.6047044672527524e-02 0.0000000000000000e+00  7.1439021970105427e-06 -5.7406499701372266e-02 0.0000000000000000e+00  -1.3535610708630275e-05 -5.8702732687790568e-02 0.0000000000000000e+00  1.7203455733687375e-05 -5.9814209693379812e-02 0.0000000000000000e+00  7.3564067145304767e-05 -6.0456241086011643e-02 0.0000000000000000e+00  -7.0646072543799012e-05 -6.0338149027700363e-02 0.0000000000000000e+00  5.0371537835625037e-04 -5.9053954704249345e-02 0.0000000000000000e+00  -5.3787213374984876e-04 -5.4510957719819182e-02 0.0000000000000000e+00  1.7207129821589520e-02 -4.0508130628112336e-02 0.0000000000000000e+00  2.3584188176861826e-02 -3.7021400470916115e-02 0.0000000000000000e+00  3.0009118623678287e-02 -3.4415759049164010e-02 0.0000000000000000e+00  3.3254252076393091e-02 -3.3076201672723689e-02 0.0000000000000000e+00  3.3945300756352159e-02 -3.0138418262727177e-02 0.0000000000000000e+00  3.5602511455004829e-02 -2.6291822074869554e-02 0.0000000000000000e+00  3.4245175985324491e-02 -2.5597043841328014e-02 0.0000000000000000e+00  3.2528488921727688e-02 -2.0981983574878373e-02 0.0000000000000000e+00  2.8503762817626791e-02 -1.8077931269032992e-02 0.0000000000000000e+00  2.1333552274774407e-02 -1.5841834196110766e-02 0.0000000000000000e+00  1.7537460600494659e-02 -4.6956217746185400e-03 0.0000000000000000e+00  -2.2612318674267071e-03 -3.0268198615703624e-03 0.0000000000000000e+00  8.8556080670219807e-04 1.1913398366319096e-03 0.0000000000000000e+00  -4.1685359958932927e-04 -4.1537326775460475e-04 0.0000000000000000e+00  1.4982615706199309e-04 1.4585954962127132e-04 0.0000000000000000e+00  4.1057741632505919e-05 6.3479086157161883e-05 0.0000000000000000e+00  4.3854680049728573e-06 7.3486726278650929e-05 0.0000000000000000e+00  4.6526950213888748e-05 6.3583953484538548e-05 0.0000000000000000e+00  -3.4713187074457465e-05 5.5769474920469251e-05 0.0000000000000000e+00  -2.0743106742537201e-05 7.8485010612518871e-05 0.0000000000000000e+00  5.5096379087145005e-05 6.8801025236000539e-05 0.0000000000000000e+00  3.7296586584237316e-05 4.1231969293687210e-05 0.0000000000000000e+00  8.8341944085843834e-07 1.9917187966194678e-05 0.0000000000000000e+00  1.8372353103422142e-05 1.7796071979518297e-05 0.0000000000000000e+00  -8.7509909037371722e-06 1.7506447355016408e-05 0.0000000000000000e+00  6.2660938944760250e-06 1.7238978232246583e-05 0.0000000000000000e+00  5.0173185418601609e-07 8.7159905487055751e-06 0.0000000000000000e+00  -5.5840326651723107e-06 9.6612022289995031e-06 0.0000000000000000e+00  8.5923443641444931e-06 9.0078658344072824e-06 0.0000000000000000e+00  1.6036479394725177e-06 6.2174986203649516e-06 0.0000000000000000e+00  -9.7048880112077025e-06 7.9638419626204290e-06 0.0000000000000000e+00  -5.8787014510755769e-06 9.0183467057997838e-06 0.0000000000000000e+00  2.0983937758788662e-06 1.2047325978865739e-05 0.0000000000000000e+00  2.4434931471646571e-06 7.5581061757091586e-06 0.0000000000000000e+00  6.6984550091974765e-06 7.4091364978137281e-06 0.0000000000000000e+00  -1.1767322813736109e-05 1.8439905911966300e-05 0.0000000000000000e+00  -8.4351507959757069e-08 1.7018551055069552e-05 0.0000000000000000e+00  5.4975450704035262e-06 2.4480910186973774e-05 0.0000000000000000e+00  -1.8559876486255804e-05 3.1898229037044639e-05 0.0000000000000000e+00  -8.1654429667641203e-07 2.9815143818822863e-05 0.0000000000000000e+00  -8.0488427563257253e-06 4.4164706919428302e-05 0.0000000000000000e+00  -6.5277862761604772e-05 6.0565359734146226e-05 0.0000000000000000e+00  4.6886671800807397e-06 5.4529658405710627e-05 0.0000000000000000e+00  -6.2595109229410435e-05 6.3383049116357899e-05 0.0000000000000000e+00  -4.1087291997324311e-05 9.5243311779719632e-05 0.0000000000000000e+00  -1.1416951500016019e-04 8.6536926475052587e-05 0.0000000000000000e+00  -1.5005264566329447e-04 1.6337411137196567e-04 0.0000000000000000e+00  3.7791843733869709e-04 -4.5195513925183357e-04 0.0000000000000000e+00  -9.4016361299703740e-04 1.1769857537111490e-03 0.0000000000000000e+00  2.0966573221174989e-03 -2.5873813281066232e-03 0.0000000000000000e+00  -1.7810601915462767e-02 -5.2407233673300432e-03 0.0000000000000000e+00  -2.0531071643345101e-02 -1.4961244195237524e-02 0.0000000000000000e+00  -2.9060929294367623e-02 -1.9051152378053778e-02 0.0000000000000000e+00  -3.2193633082165579e-02 -2.1277132982702136e-02 0.0000000000000000e+00  -3.3405346772896909e-02 -2.4907872971160153e-02 0.0000000000000000e+00  -3.6027943130939002e-02 -2.8963391844307212e-02 0.0000000000000000e+00  -3.4880492133348429e-02 -2.9016026483821355e-02 0.0000000000000000e+00  -3.3146455070789789e-02 -3.3480267626395825e-02 0.0000000000000000e+00  -2.9999829587858514e-02 -3.4813937078818975e-02 0.0000000000000000e+00  -2.4144248588385021e-02 -3.6376207158717061e-02 0.0000000000000000e+00  -1.7071113917492182e-02 -4.0609008862940249e-02 0.0000000000000000e+00  1.7395566409496379e-02 -2.8801226957656117e-02 0.0000000000000000e+00  -1.7841372809546559e-02 -2.8838935432213081e-02 0.0000000000000000e+00  2.6665242703634616e-03 -2.5779832137925975e-02 0.0000000000000000e+00  -2.0843164928783498e-03 -2.4825724216087995e-02 0.0000000000000000e+00  1.6463574089474115e-04 -2.3352840562487272e-02 0.0000000000000000e+00  -6.6962878230023004e-03 -2.8428530510790778e-02 0.0000000000000000e+00  7.5073815814958658e-03 -2.3727781565969584e-02 0.0000000000000000e+00  -6.5712757077005229e-04 -3.2470992128577486e-02 0.0000000000000000e+00  9.9005166526670808e-04 -1.6627381145065432e-02 0.0000000000000000e+00  8.9916499674849964e-04 -3.2938765716880071e-02 0.0000000000000000e+00  -6.3262385186006514e-04 -1.5147323675496474e-02 0.0000000000000000e+00  2.1659891347305237e-02 -4.1554249167435754e-02 0.0000000000000000e+00  -1.9771510687443841e-02 -1.4580569349503844e-02 0.0000000000000000e+00  1.9937503789838683e-02 -1.4850496204435303e-02 0.0000000000000000e+00  -2.1448948537096297e-02 -4.1762738096656836e-02 0.0000000000000000e+00  8.9420761425470039e-03 -3.9992795367167856e-02 0.0000000000000000e+00  -9.2062708861694268e-03 -1.6307084068274229e-02 0.0000000000000000e+00  4.1209902410228308e-03 -3.6528073650595766e-02 0.0000000000000000e+00  -3.3827703834267532e-03 -1.5716009045268819e-02 0.0000000000000000e+00  -9.1968945146258703e-03 -4.0741738028854085e-02 0.0000000000000000e+00  -2.9349532237828357e-03 -3.6858139350647766e-02 0.0000000000000000e+00  3.4196555116004610e-03 -1.4565791393295719e-02 0.0000000000000000e+00  9.9897690978091765e-03 -1.5124802981818855e-02 0.0000000000000000e+00  -1.2790438566064519e-03 -3.6822663595965435e-02 0.0000000000000000e+00  2.2245625127188085e-04 -1.1907707969028198e-02 0.0000000000000000e+00  2.4458625201092695e-06 -3.5448664713930503e-02 0.0000000000000000e+00  1.6392901008493129e-03 -3.7501871322280181e-02 0.0000000000000000e+00  -1.2767095204466784e-03 -1.2218975057131990e-02 0.0000000000000000e+00  1.6575034077316760e-03 -1.2131117763193984e-02 0.0000000000000000e+00  1.1912357659689836e-02 -4.6327332763918365e-02 0.0000000000000000e+00  -1.1502846689343430e-02 -1.1684552572082511e-02 0.0000000000000000e+00  2.7873707845905128e-02 -2.7442346345009982e-02 0.0000000000000000e+00  -2.8427543360838480e-02 -2.8163540555795608e-02 0.0000000000000000e+00  -4.7466328741046296e-03 -4.1829442042216704e-02 0.0000000000000000e+00  -4.7685750851260101e-03 -1.1975383330668150e-02 0.0000000000000000e+00  -1.1808072819068146e-02 -4.7010802914350412e-02 0.0000000000000000e+00  4.4355614874396253e-03 -1.0039470139287536e-02 0.0000000000000000e+00  1.1714828742705912e-02 -1.0476953297487853e-02 0.0000000000000000e+00  1.1407055729173837e-02 -2.7251968174556850e-02 0.0000000000000000e+00  4.7712345193571936e-03 -2.5271063826261167e-02 0.0000000000000000e+00  4.3578425213509717e-03 -4.4272879946838900e-02 0.0000000000000000e+00  3.1507418093848136e-04 -3.8710594656114282e-02 0.0000000000000000e+00  -1.4235223422718251e-04 -9.2436256389726128e-03 0.0000000000000000e+00  -1.2116082079219791e-02 -2.8493328222094196e-02 0.0000000000000000e+00  -3.5042828272457299e-03 -2.5749900661476158e-02 0.0000000000000000e+00  -1.1230621894904270e-03 -2.4151164925996067e-02 0.0000000000000000e+00  1.5395116265344115e-03 -2.5239481485464260e-02 0.0000000000000000e+00  -4.4530451137673592e-04 -2.4054408147907037e-02 0.0000000000000000e+00  7.3864596724587716e-04 -2.4307727937900904e-02 0.0000000000000000e+00  1.8125981307107535e-03 -4.2211470271936204e-02 0.0000000000000000e+00  -1.5555421394368521e-03 -8.7971577333712612e-03 0.0000000000000000e+00  1.9391245592728437e-02 -4.7090136894169014e-02 0.0000000000000000e+00  -1.6795102287090476e-02 -9.0150488873911375e-03 0.0000000000000000e+00  1.6557356564166469e-02 -8.7764863692131895e-03 0.0000000000000000e+00  -1.9365429162509228e-02 -4.7154208726140776e-02 0.0000000000000000e+00  6.8244394230490349e-03 -3.3846506544667407e-02 0.0000000000000000e+00  -1.3431768969901505e-03 -4.1820933569426851e-02 0.0000000000000000e+00  -5.3323244178471701e-04 -4.0184811386194064e-02 0.0000000000000000e+00  4.1473489115061553e-04 -8.1084422916045777e-03 0.0000000000000000e+00  7.4454062660487131e-04 -4.0732494964297067e-02 0.0000000000000000e+00  -5.3141326813307770e-04 -7.9779864243836197e-03 0.0000000000000000e+00  -2.2314251175663402e-04 -4.0086132449586066e-02 0.0000000000000000e+00  2.9029301524937719e-02 -3.4987042388837188e-02 0.0000000000000000e+00  -2.7678850604990975e-02 -2.0438912735557851e-02 0.0000000000000000e+00  2.7600326460838074e-02 -1.9699520379992431e-02 0.0000000000000000e+00  -2.8552030451659841e-02 -3.5959116527722983e-02 0.0000000000000000e+00  2.9826709351789592e-03 -3.3416534114237416e-02 0.0000000000000000e+00  -2.3417589444847020e-03 -1.7340953702882061e-02 0.0000000000000000e+00  -2.4452814969924239e-03 -4.3794338276879279e-02 0.0000000000000000e+00  7.5424926695004087e-04 -7.7724447399761696e-03 0.0000000000000000e+00  6.4081293573154405e-03 -4.9342067930943548e-02 0.0000000000000000e+00  -6.6823490457316118e-03 -8.1154232430547847e-03 0.0000000000000000e+00  -2.5507771768008107e-03 -8.4025395163927138e-03 0.0000000000000000e+00  -1.2214325031522117e-04 -1.6564529906796844e-02 0.0000000000000000e+00  3.9535390770379720e-04 -3.1112877898798727e-02 0.0000000000000000e+00  1.1432610742078573e-02 -5.1977920890591743e-02 0.0000000000000000e+00  -1.0811993609818070e-02 -7.3603584234347395e-03 0.0000000000000000e+00  -2.2454343250824312e-03 -3.2718217558644368e-02 0.0000000000000000e+00  -7.6900929264047697e-03 -2.0681565935893317e-02 0.0000000000000000e+00  5.1971832491217868e-03 -7.9830402294442764e-03 0.0000000000000000e+00  -6.2787716032495309e-03 -5.0061490460006942e-02 0.0000000000000000e+00  1.7188948775503285e-03 -8.0857916683365911e-03 0.0000000000000000e+00  2.2307839395332579e-02 -2.4214281460793453e-02 0.0000000000000000e+00  -2.2061007372204296e-02 -2.4095318139006099e-02 0.0000000000000000e+00  -4.7160728923571968e-03 -7.8365140782550580e-03 0.0000000000000000e+00  -1.1459171424652793e-02 -5.2270407137712291e-02 0.0000000000000000e+00  -5.2293291346496400e-03 -1.9857249500849172e-02 0.0000000000000000e+00  1.3513755503992943e-02 -3.6824735112190046e-02 0.0000000000000000e+00  -4.6604289978594282e-03 -4.7751343143350347e-02 0.0000000000000000e+00  -1.3288593117339804e-02 -2.0122311789459082e-02 0.0000000000000000e+00  -1.9187643459271955e-02 -3.7851867445379883e-02 0.0000000000000000e+00  -1.3645555242122289e-02 -3.7693649591058753e-02 0.0000000000000000e+00  1.8652813225689509e-02 -3.8271434233485876e-02 0.0000000000000000e+00  -4.5654729178460579e-03 -3.5341375914458975e-02 0.0000000000000000e+00  2.4561285185440520e-03 -4.5065419238421535e-02 0.0000000000000000e+00  1.0550004248892320e-02 -6.4948804786961172e-03 0.0000000000000000e+00  1.4594886767487103e-02 -1.8886470979441031e-02 0.0000000000000000e+00  -8.6280536965604050e-03 -3.2627513427346024e-02 0.0000000000000000e+00  2.8054781222711200e-03 -1.7666872112177979e-02 0.0000000000000000e+00  2.5380043556093184e-03 -7.4759782874304938e-03 0.0000000000000000e+00  7.8340079609003962e-03 -1.6532065247340327e-02 0.0000000000000000e+00  6.5352822828995622e-03 -6.9108696931650445e-03 0.0000000000000000e+00  1.9793486735012237e-03 -1.9330271161570441e-02 0.0000000000000000e+00  -1.3890439734844065e-03 -3.0140550145589789e-02 0.0000000000000000e+00  -1.4538081903512235e-04 -2.9004379696319780e-02 0.0000000000000000e+00  5.5574086535950366e-04 -1.7387337063861023e-02 0.0000000000000000e+00  5.2386260712834363e-03 -1.7221014641393331e-02 0.0000000000000000e+00  1.5639096622797979e-03 -3.2060789872304075e-02 0.0000000000000000e+00  -1.4930746010285141e-03 -1.9127371399712243e-02 0.0000000000000000e+00  3.2838086386735913e-05 -6.0909235087519761e-03 0.0000000000000000e+00  7.5377667410899733e-05 -4.1371538016474106e-02 0.0000000000000000e+00  -4.8709412588802681e-03 -2.7339226094565475e-02 0.0000000000000000e+00  3.9436581553755042e-03 -4.9325204849386212e-02 0.0000000000000000e+00  -2.4846825234671032e-04 -6.3144271644144049e-03 0.0000000000000000e+00  3.8478740529825832e-04 -4.1908474500360442e-02 0.0000000000000000e+00  1.0520927881517061e-03 -4.3693924299288277e-02 0.0000000000000000e+00  -1.6967867435056950e-02 -1.8533917186650657e-02 0.0000000000000000e+00  -8.1985037966211393e-04 -6.0912146699775606e-03 0.0000000000000000e+00  -5.9993181778563592e-04 -4.2523162825471396e-02 0.0000000000000000e+00  -2.3905962351952338e-02 -3.4814504678303222e-02 0.0000000000000000e+00  2.3864672674525363e-02 -3.4018098514965851e-02 0.0000000000000000e+00  1.6914597106226132e-02 -1.6210124407842908e-02 0.0000000000000000e+00  3.1146453785156743e-02 -2.5843048715742369e-02 0.0000000000000000e+00  -3.1426437695258547e-02 -2.9325478910454335e-02 0.0000000000000000e+00  8.2227484285601112e-04 -5.8988249071679566e-03 0.0000000000000000e+00  5.6735008503379300e-03 -3.1043226836243751e-02 0.0000000000000000e+00  -3.3688778099046231e-04 -3.5075809952182832e-02 0.0000000000000000e+00  -1.4096153849765950e-03 -4.4757648522698479e-02 0.0000000000000000e+00  -9.6461334709137562e-04 -1.4176944548106241e-02 0.0000000000000000e+00  5.3379167305678578e-03 -5.4256108977223001e-02 0.0000000000000000e+00  3.0189145587578096e-04 -1.8463114923137267e-02 0.0000000000000000e+00  -9.6503880766079804e-04 -3.4059060809939264e-02 0.0000000000000000e+00  -6.0997789402886778e-03 -5.2649177638882218e-03 0.0000000000000000e+00  1.8586957181050695e-04 -5.5870363915741681e-03 0.0000000000000000e+00  1.1713273341025583e-03 -1.3229736597303279e-02 0.0000000000000000e+00  -2.7380894755745077e-03 -5.4863802802750409e-03 0.0000000000000000e+00  -2.4382820775985546e-02 -1.4906017209624110e-02 0.0000000000000000e+00  -2.6044010206259446e-02 -4.0272463945693122e-02 0.0000000000000000e+00  2.3378943277186818e-02 -1.3826611509924992e-02 0.0000000000000000e+00  2.6741055970203337e-02 -3.9453967399143877e-02 0.0000000000000000e+00  2.1795722044271517e-03 -3.0387227722478361e-02 0.0000000000000000e+00  -2.3683867832853200e-03 -4.8813914037771231e-02 0.0000000000000000e+00  -6.5136476962949072e-03 -3.5525008127085020e-02 0.0000000000000000e+00  -5.9374223797657348e-03 -5.3729294687967902e-02 0.0000000000000000e+00  -1.3192267756583509e-03 -5.3107842848286154e-03 0.0000000000000000e+00  3.6238784263874541e-03 -2.7439989820850712e-02 0.0000000000000000e+00  8.9208019681473825e-03 -2.8755219266405074e-02 0.0000000000000000e+00  1.0325158060867380e-02 -5.4468005519675858e-02 0.0000000000000000e+00  -6.7965765325580137e-03 -4.0823401142008643e-02 0.0000000000000000e+00  -8.5183834547529064e-03 -3.8053270025681183e-03 0.0000000000000000e+00  1.4030414365025881e-02 -2.5616954285577118e-02 0.0000000000000000e+00  -3.7950409560268282e-05 -4.2988805092742208e-02 0.0000000000000000e+00  -9.7706508413493241e-03 -2.6146891491169989e-02 0.0000000000000000e+00  2.4663116755228146e-02 -2.1475203653375494e-02 0.0000000000000000e+00  -2.4811301812864821e-02 -2.1829930628111983e-02 0.0000000000000000e+00  -1.0149195945181920e-02 -5.4651104943083298e-02 0.0000000000000000e+00  -1.5633011036222954e-02 -1.3305583308902875e-02 0.0000000000000000e+00  -4.1810052653848181e-03 -1.3758174508407073e-02 0.0000000000000000e+00  -7.4499674584911635e-04 -2.1412293430110429e-02 0.0000000000000000e+00  1.1175671907598841e-03 -2.2107376745839485e-02 0.0000000000000000e+00  -6.7994990527477936e-03 -1.4214681151892792e-02 0.0000000000000000e+00  6.6471889800743065e-03 -4.5838103914969718e-03 0.0000000000000000e+00  3.8572850121333145e-03 -1.9877874553269604e-02 0.0000000000000000e+00  5.6070276166126731e-04 -4.5202544407258606e-02 0.0000000000000000e+00  -4.1615804386387102e-03 -2.1668685399192016e-02 0.0000000000000000e+00  -4.5817340988470835e-04 -4.4554815728919369e-03 0.0000000000000000e+00  4.9247243341291221e-03 -3.9052967867361212e-02 0.0000000000000000e+00  3.0215932455497671e-03 -5.4320981654734785e-03 0.0000000000000000e+00  -1.0325320383493574e-02 -1.3721476493809660e-02 0.0000000000000000e+00  1.0362600449787228e-02 -4.3688172027095386e-02 0.0000000000000000e+00  -3.3510926499964229e-04 -1.4918654013753301e-02 0.0000000000000000e+00  5.9545122975350950e-04 -3.3071587509445270e-02 0.0000000000000000e+00  -1.0408885962302938e-02 -4.4204627036123864e-02 0.0000000000000000e+00  -5.4048694427022577e-04 -4.5213389032876646e-02 0.0000000000000000e+00  -2.3108079629406724e-04 -4.332810