<?xml version="1.0"?>
<VTKFile type="UnstructuredGrid"  version="0.1"  >
<UnstructuredGrid>
<Piece  NumberOfPoints="1855" NumberOfCells="3532">
<Points>
<DataArray  type="Float64"  NumberOfComponents="3"  format="ascii">0 0 0  30 0 0  30 -10 0  0 -10 0  0.1391574078963744 0 0  0.2856388821882616 0 0  0.4398299073010886 0 0  0.6021362569539473 0 0  0.7729850389704483 0 0  0.9528258543586996 0 0  1.142131984380316 0 0  1.34140159760994 0 0  1.551159074717981 0 0  1.771956417032531 0 0  2.004374674080994 0 0  2.249025475789527 0 0  2.506552636773105 0 0  2.777633857742732 0 0  3.062982518028728 0 0  3.363349525995907 0 0  3.679525322337712 0 0  4.01234195575742 0 0  4.362675247811097 0 0  4.731447135329707 0 0  5.119628065610077 0 0  5.528239565804708 0 0  5.958356943167011 0 0  6.411112081475485 0 0  6.887696441559404 0 0  7.389364184530748 0 0  7.917435485335147 0 0  8.473300005202017 0 0  9.058420557070402 0 0  9.674336929103793 0 0  10.32266995225095 0 0  11.00512576896296 0 0  11.72350030646412 0 0  12.47968402994705 0 0  13.27566689579597 0 0  14.1135435963616 0 0  14.9955190732806 0 0  15.92391430904694 0 0  16.90117245730496 0 0  17.92986524844506 0 0  19.01269976086341 0 0  20.15252556282024 0 0  21.35234220269763 0 0  22.61530708683689 0 0  23.94474379751883 0 0  25.34415086349739 0 0  26.81721093579712 0 0  28.3678004819169 0 0  30 -1.111111111111111 0  30 -2.222222222222222 0  30 -3.333333333333333 0  30 -4.444444444444445 0  30 -5.555555555555555 0  30 -6.666666666666666 0  30 -7.777777777777777 0  30 -8.888888888888889 0  28.36780047917311 -10 0  26.8172109305839 -10 0  25.34415085606858 -10 0  23.94474378810899 -10 0  22.61530707566275 -10 0  21.3523421899591 -10 0  20.15252554870171 -10 0  19.01269974553473 -10 0  17.92986523206254 -10 0  16.90117244001232 -10 0  15.92391429097614 -10 0  14.99551905455266 -10 0  14.11354357708742 -10 0  13.27566687607703 -10 0  12.47968400987599 -10 0  11.72350028612546 -10 0  11.00512574843363 -10 0  10.32266993160086 -10 0  9.674336908396342 -10 0  9.058420536362949 -10 0  8.473299984546333 -10 0  7.917435464777824 -10 0  7.389364164113587 -10 0  6.887696420787165 -10 0  6.411112061446698 -10 0  5.95835692337857 -10 0  5.528239546282652 -10 0  5.119628046377237 -10 0  4.731447115907979 -10 0  4.362675229213632 -10 0  4.012341937260036 -10 0  3.679525304434552 -10 0  3.363349508456405 -10 0  3.062982500861274 -10 0  2.777633840953978 -10 0  2.506552620368097 -10 0  2.249025459771861 -10 0  2.004374658452946 -10 0  1.771956401795187 -10 0  1.551159059871345 -10 0  1.341401583153029 -10 0  1.142131970307521 -10 0  0.9528258406748833 -10 0  0.7729850256685147 -10 0  0.6021362439621285 -10 0  0.4398298947504031 -10 0  0.2856388700059078 -10 0  0.1391573960769001 -10 0  0 -9.855072463768115 0  0 -9.710144927536232 0  0 -9.565217391304348 0  0 -9.420289855072463 0  0 -9.27536231884058 0  0 -9.130434782608695 0  0 -8.985507246376812 0  0 -8.840579710144928 0  0 -8.695652173913043 0  0 -8.55072463768116 0  0 -8.405797101449275 0  0 -8.260869565217391 0  0 -8.115942028985508 0  0 -7.971014492753623 0  0 -7.826086956521739 0  0 -7.681159420289855 0  0 -7.536231884057971 0  0 -7.391304347826087 0  0 -7.246376811594203 0  0 -7.101449275362318 0  0 -6.956521739130435 0  0 -6.811594202898551 0  0 -6.666666666666667 0  0 -6.521739130434783 0  0 -6.376811594202898 0  0 -6.231884057971015 0  0 -6.086956521739131 0  0 -5.942028985507246 0  0 -5.797101449275362 0  0 -5.652173913043478 0  0 -5.507246376811594 0  0 -5.36231884057971 0  0 -5.217391304347826 0  0 -5.072463768115941 0  0 -4.927536231884058 0  0 -4.782608695652174 0  0 -4.637681159420289 0  0 -4.492753623188406 0  0 -4.347826086956522 0  0 -4.202898550724638 0  0 -4.057971014492754 0  0 -3.913043478260869 0  0 -3.768115942028985 0  0 -3.623188405797101 0  0 -3.478260869565217 0  0 -3.333333333333334 0  0 -3.188405797101449 0  0 -3.043478260869565 0  0 -2.898550724637681 0  0 -2.753623188405797 0  0 -2.608695652173912 0  0 -2.463768115942029 0  0 -2.318840579710145 0  0 -2.173913043478261 0  0 -2.028985507246377 0  0 -1.884057971014492 0  0 -1.739130434782609 0  0 -1.594202898550725 0  0 -1.44927536231884 0  0 -1.304347826086957 0  0 -1.159420289855072 0  0 -1.014492753623188 0  0 -0.8695652173913047 0  0 -0.72463768115942 0  0 -0.579710144927537 0  0 -0.4347826086956523 0  0 -0.2898550724637676 0  0 -0.1449275362318829 0  5.15859856094262 -4.976557621770688 0  2.816777084926057 -7.160262673925935 0  2.81677708460006 -2.839737326002783 0  2.227649803257325 -5.003121586636773 0  1.518662968975629 -8.46230852045241 0  1.518662969184829 -1.537691480152612 0  9.960740911025725 -5.055901393541221 0  1.491099662214591 -3.691833922963321 0  1.503675657181264 -6.345020369042368 0  5.319208041801049 -7.493850249937013 0  5.291109955459268 -2.489368743223226 0  1.096914507335763 -2.53623188405797 0  1.096914507253562 -7.463768115942029 0  1.089580194952752 -4.71277167923441 0  15.07565076110197 -5.047572991082069 0  7.501630508673601 -5.937500100385354 0  0.8894869418764504 -5.623930488933245 0  2.955144522453978 -1.440834296472408 0  2.955144521140721 -8.559165705576945 0  8.106603955004623 -2.748811534843258 0  3.662152539483591 -4.228178367024407 0  3.662181528265114 -5.771746159989156 0  0.8436558190317136 -0.8541050638451999 0  0.8436558075840921 -9.145894948342754 0  0.7854168197005933 -1.811594202898552 0  0.7894693398152999 -3.286543351392342 0  0.7854168196772591 -8.188405797101449 0  0.7854168196772591 -6.739130434782609 0  20.00078956016804 -4.999999999785771 0  0.7379120031523989 -3.977302749614766 0  6.584332478112232 -3.934875417052907 0  7.295091310194352 -7.969791332537982 0  9.811174303464586 -7.412814499648229 0  4.013376806449688 -2.206189431585293 0  4.013376806983409 -7.793810569017377 0  12.11177433894592 -2.818343737884045 0  2.591152707837148 -3.990098461753838 0  2.58990939378082 -6.025895074707176 0  25.43156400064585 -5.044446479916348 0  2.03262751726143 -2.282125834846944 0  2.032627517335952 -7.717874165160392 0  12.51865094522923 -6.491408052923457 0  0.598175343983641 -6.156971652625402 0  2.126700074935224 -0.8767654465386991 0  2.126700059112423 -9.123234559633019 0  6.617961838548696 -1.617756429129908 0  0.5903949564549755 -4.980060355019413 0  1.676697585305984 -5.547101897225158 0  4.773518305133987 -3.729331162566817 0  4.77931803486508 -6.231222307502165 0  4.878549698409591 -8.72048903376362 0  4.852580875634024 -1.222215410052823 0  0.5487847095754042 -2.675169258708207 0  0.545113423825768 -7.32369553390529 0  1.78738026998851 -4.400451872599477 0  1.68244194111824 -3.010100184333533 0  1.683984276238402 -7.018293626028473 0  9.998503440677371 -2.00585287985007 0  3.693061162502273 -3.243678395563028 0  3.694987482168253 -6.757603268814477 0  6.081763036485869 -5.83414381546261 0  0.5196640460586313 -1.350633211792632 0  0.5196640458460706 -8.649366789040087 0  3.84593363904758 -0.9906418103762418 0  3.845933620847308 -9.009358200471317 0  17.41551885287501 -3.057748733689079 0  17.30725517812527 -7.002961443761516 0  8.117698464370697 -4.451550942597151 0  0.4918476668493152 -0.4789811193757592 0  0.4918476560347713 -9.521018882514893 0  1.463770869328428 -0.6252343353791154 0  1.463770854281917 -9.374765668872765 0  0.5034132782032188 -4.464280853772128 0  3.138906271796685 -4.99999841599503 0  14.61209972381335 -2.388610981020637 0  6.208601124947327 -8.776231214192325 0  14.74910972998159 -7.542186851303819 0  2.243794246335625 -1.632184311040998 0  2.243794245689214 -8.367815689183566 0  0.4590235278399923 -5.431413993025926 0  0.4971508861448406 -2.209632053221267 0  0.4971508861368665 -7.790367946777407 0  0.4644363683211541 -3.560571347760519 0  6.478811279411406 -7.007392971062433 0  1.238895267772762 -4.173677632458826 0  1.293241773632479 -2.02256720952064 0  1.293241773542714 -7.977432790434841 0  0.4324740478030531 -0.942028985507247 0  0.4324740423701829 -9.057971014492754 0  2.117396640811705 -3.472968170680347 0  2.107095929630507 -6.531506384346077 0  8.087741545730886 -1.392783601483453 0  1.028911946384717 -1.352376108341404 0  1.028911946221715 -8.647623891551962 0  4.05691976296832 -4.991522392209158 0  11.51826881314265 -8.065248940008736 0  1.618560396201739 -4.958056164503666 0  2.701984523487646 -2.141781914603403 0  2.70198452396172 -7.858218085853512 0  2.843615645746219 -9.289121726447632 0  2.843615661334342 -0.7108782798429658 0  8.678774612240533 -8.488146490452822 0  6.487906449371135 -2.667543558824978 0  8.369190916679937 -7.129867754908394 0  11.80978191929258 -4.655775487536958 0  0.3792065166453504 -3.113833531412848 0  0.4134714637263563 -6.58827691137208 0  9.551050695080825 -3.49648183875815 0  1.083867845277057 -6.036251777836495 0  0.3756430921870901 -1.80381664325008 0  0.3756430921689482 -8.196183356748573 0  3.113073783220456 -3.503408140759125 0  3.113391383189963 -6.496678880796299 0  22.62850736315072 -3.277987336300344 0  22.59385352108348 -6.800312122582239 0  0.3777114402537816 -4.137047872695438 0  0.9196816123347897 -0.4281025456111269 0  0.9196815944880363 -9.571897460530383 0  0.4052043328723194 -5.827814332459883 0  8.865857694874787 -5.767686953139113 0  1.200388325130726 -5.182186034620629 0  5.65297436943758 -4.325500846767599 0  1.200079167961391 -3.009849046583253 0  1.20883344838 -7.021823297793294 0  1.057642414577487 -3.660996704809145 0  10.88812987788297 -6.333458225047037 0  4.493502926606794 -2.839780197438185 0  4.485862892033458 -7.147606077919463 0  0.3631651408878085 -7.003529808558233 0  1.946748828463205 -6.049056369468467 0  6.918750162798794 -4.993796052442676 0  3.351203216022585 -1.980935554775394 0  3.351203216441711 -8.019064445907297 0  2.281892243515294 -2.856654416292082 0  2.281892243715877 -7.143345583598931 0  5.811143619672087 -0.9953286820321026 0  2.695713766833098 -4.565354125099452 0  2.698172168139827 -5.435483248292925 0  19.86166219288896 -2.493475492328429 0  19.83739102036415 -7.594404063416508
[...]
<PointData  Vectors="displacement"> 
<DataArray  type="Float64"  Name="displacement"  NumberOfComponents="3" format="ascii">1.2778940488225030e-01 6.3131251727712986e-02 0.0000000000000000e+00  2.0759806134325434e-07 1.5118496606388574e-04 0.0000000000000000e+00  -3.0147963017765071e-07 -1.5470319255030956e-07 0.0000000000000000e+00  1.9658491606533141e-07 -1.8896335814673437e-07 0.0000000000000000e+00  6.6430117449145898e-02 1.0761927974280865e-02 0.0000000000000000e+00  3.7469142012630720e-02 3.6725453339751949e-03 0.0000000000000000e+00  2.5740626176389732e-02 1.2555782327720968e-03 0.0000000000000000e+00  1.8209106853431970e-02 6.4933853906089592e-04 0.0000000000000000e+00  1.4512966459658379e-02 8.2921521457307985e-05 0.0000000000000000e+00  1.1626251798152550e-02 -1.6215571493639080e-04 0.0000000000000000e+00  9.7578539635355295e-03 -3.0059636763581234e-04 0.0000000000000000e+00  8.3146307570526115e-03 -4.2168100725074891e-04 0.0000000000000000e+00  7.1192015924634137e-03 -4.6861929660533646e-04 0.0000000000000000e+00  6.2055716274801685e-03 -5.2292580585885126e-04 0.0000000000000000e+00  5.4138115186427539e-03 -5.3628870325390682e-04 0.0000000000000000e+00  4.8272439102788568e-03 -5.2630277198268110e-04 0.0000000000000000e+00  4.2707889054805822e-03 -5.4335557427653131e-04 0.0000000000000000e+00  3.8324062342092748e-03 -5.4736485358969703e-04 0.0000000000000000e+00  3.4102657101281715e-03 -5.3607988170491488e-04 0.0000000000000000e+00  3.0677549018035171e-03 -5.2069978761290177e-04 0.0000000000000000e+00  2.7589195163310299e-03 -5.0031557603030081e-04 0.0000000000000000e+00  2.4886307784907869e-03 -4.7716753717166486e-04 0.0000000000000000e+00  2.2522341611054906e-03 -4.5518826084969886e-04 0.0000000000000000e+00  2.0331294089203102e-03 -4.3019475924994407e-04 0.0000000000000000e+00  1.8315820158605197e-03 -3.9591672021185154e-04 0.0000000000000000e+00  1.6564201819444079e-03 -3.5781477833983949e-04 0.0000000000000000e+00  1.5063360898348907e-03 -3.2352710487644894e-04 0.0000000000000000e+00  1.3595761338824554e-03 -2.8253540317030968e-04 0.0000000000000000e+00  1.2340924695537039e-03 -2.4254183211744798e-04 0.0000000000000000e+00  1.1143046154524125e-03 -1.9871376056986110e-04 0.0000000000000000e+00  1.0083514870668690e-03 -1.5333734363887880e-04 0.0000000000000000e+00  9.1602507682509425e-04 -1.0703323578948363e-04 0.0000000000000000e+00  8.3844496006510742e-04 -6.4531518452555934e-05 0.0000000000000000e+00  7.6249980955961165e-04 -2.0568601807411319e-05 0.0000000000000000e+00  6.9725101624712677e-04 2.0467360214579335e-05 0.0000000000000000e+00  6.4013761827923254e-04 5.9649793791310729e-05 0.0000000000000000e+00  5.9248867013659190e-04 9.3612596751947320e-05 0.0000000000000000e+00  5.4746300385063204e-04 1.2441876913071834e-04 0.0000000000000000e+00  5.0928072117120303e-04 1.4917202282358042e-04 0.0000000000000000e+00  4.7101174704868379e-04 1.7048552875537076e-04 0.0000000000000000e+00  4.3932311057902986e-04 1.8486522010960821e-04 0.0000000000000000e+00  4.0557535787095897e-04 1.9545928838224700e-04 0.0000000000000000e+00  3.7507664835437996e-04 2.0027279252792969e-04 0.0000000000000000e+00  3.4233807342790495e-04 2.0159614439517300e-04 0.0000000000000000e+00  3.1178010576162016e-04 1.9866529834649722e-04 0.0000000000000000e+00  2.7701144879536076e-04 1.9328010738446823e-04 0.0000000000000000e+00  2.4253644912970566e-04 1.8624529487826257e-04 0.0000000000000000e+00  2.0572102883103748e-04 1.7839008854913258e-04 0.0000000000000000e+00  1.7054928630791746e-04 1.6995109454214809e-04 0.0000000000000000e+00  1.3032146387877773e-04 1.6147300285012666e-04 0.0000000000000000e+00  8.7440252172299443e-05 1.5519359988329856e-04 0.0000000000000000e+00  4.3542668503534427e-05 1.5175141042033744e-04 0.0000000000000000e+00  4.9994395956357811e-07 1.2647655997162640e-04 0.0000000000000000e+00  -1.3162785397203774e-07 9.9922290529699538e-05 0.0000000000000000e+00  -6.1151010622741931e-08 7.5449300116037316e-05 0.0000000000000000e+00  1.3646599748289519e-07 5.3709869559905198e-05 0.0000000000000000e+00  -1.7811291702361186e-07 3.4772705988588897e-05 0.0000000000000000e+00  1.4561277780895573e-07 1.9361982678746291e-05 0.0000000000000000e+00  -1.0982875258559034e-07 8.0243728043158618e-06 0.0000000000000000e+00  -1.0634345877419627e-08 1.2557828204160004e-06 0.0000000000000000e+00  -1.5712313192662241e-07 -6.7879033238813998e-07 0.0000000000000000e+00  -1.7771514872266890e-09 -7.4989957079589591e-07 0.0000000000000000e+00  5.9858281102328767e-07 -8.3287434902788403e-07 0.0000000000000000e+00  8.4799969016819505e-08 -2.6452485679628882e-07 0.0000000000000000e+00  1.3447389524927055e-07 -4.2646903674300595e-07 0.0000000000000000e+00  6.8872159715201336e-07 -6.0008763128991164e-07 0.0000000000000000e+00  2.2920048452036323e-07 -8.1223339440235033e-07 0.0000000000000000e+00  1.1230514829352030e-06 -7.5995336039302576e-07 0.0000000000000000e+00  3.5295073217462251e-07 -4.8030611549741505e-07 0.0000000000000000e+00  1.1020518861971318e-06 -5.5153554381049936e-07 0.0000000000000000e+00  5.8214853772437527e-07 -2.2047038132685119e-07 0.0000000000000000e+00  8.3233829707762037e-07 -2.7916685307172399e-07 0.0000000000000000e+00  8.5328185077926911e-07 5.7238961443483321e-08 0.0000000000000000e+00  9.9518986583229245e-07 6.0077201995110444e-08 0.0000000000000000e+00  2.9175568517066367e-07 1.3262185500965269e-07 0.0000000000000000e+00  6.1771770970941413e-07 4.5778312817887174e-07 0.0000000000000000e+00  -2.6471350618711059e-08 1.3489511569129195e-07 0.0000000000000000e+00  9.0896044720818660e-07 1.2031177673303735e-06 0.0000000000000000e+00  2.9178222215295329e-07 8.4270056598046809e-07 0.0000000000000000e+00  6.4057714741170392e-07 7.8127802834488583e-07 0.0000000000000000e+00  -5.5809587561456366e-07 7.6187540135069005e-07 0.0000000000000000e+00  1.0620686921132792e-07 1.1637852961146197e-06 0.0000000000000000e+00  -7.5119308162489983e-07 1.5889374764029670e-06 0.0000000000000000e+00  -8.9477281619978273e-07 9.7413450138060073e-07 0.0000000000000000e+00  -8.7633979283148609e-07 4.7415312371766819e-07 0.0000000000000000e+00  -2.4683099693693375e-06 1.2087610913418076e-06 0.0000000000000000e+00  -9.6614925816603319e-07 5.5608824840812186e-07 0.0000000000000000e+00  -1.7115933624542008e-06 6.5875917665291087e-07 0.0000000000000000e+00  -1.0706118823854668e-06 4.0644423645504039e-07 0.0000000000000000e+00  -2.5687112223639361e-06 6.4132940555489091e-07 0.0000000000000000e+00  -2.4692941119772982e-07 -2.3617114715810810e-08 0.0000000000000000e+00  -1.0541069430067852e-06 4.1841198213934014e-08 0.0000000000000000e+00  -8.7644259939005521e-07 1.7158897349974905e-08 0.0000000000000000e+00  -6.3603660539223390e-07 -5.3978902195163543e-08 0.0000000000000000e+00  -1.4393874360059437e-06 -2.9090575490858472e-07 0.0000000000000000e+00  -3.4364951227300201e-07 -1.1694008359085247e-07 0.0000000000000000e+00  -1.1808249943371350e-06 -4.0415275831509644e-07 0.0000000000000000e+00  -1.6721828126171531e-07 -9.8214748483235799e-08 0.0000000000000000e+00  -2.0730846120098485e-07 -3.1792154345662050e-07 0.0000000000000000e+00  -5.1544693611047922e-07 -2.8000349033330066e-07 0.0000000000000000e+00  -2.8114221415712241e-07 -2.9863287478839409e-07 0.0000000000000000e+00  -7.0550729920510399e-08 -1.0628152694133948e-07 0.0000000000000000e+00  -1.6554007694068411e-07 -1.5847871511612321e-07 0.0000000000000000e+00  -1.5145076583057193e-08 -2.0182370972162797e-07 0.0000000000000000e+00  5.2304727045306534e-10 -1.0792332362000776e-07 0.0000000000000000e+00  -2.3831305794570810e-07 -1.8924960266074501e-07 0.0000000000000000e+00  5.6235673884960488e-08 -1.8910530418121430e-07 0.0000000000000000e+00  -5.7373511087359565e-08 -6.2779104465558970e-08 0.0000000000000000e+00  -4.7647175111985461e-08 5.4608376163794737e-06 0.0000000000000000e+00  7.0419568283963771e-08 1.3865550957963162e-05 0.0000000000000000e+00  -8.7813840669275483e-08 2.4661803464640387e-05 0.0000000000000000e+00  8.1009187306307890e-09 3.7894984082665183e-05 0.0000000000000000e+00  -4.1149551542929657e-08 5.3090206205409046e-05 0.0000000000000000e+00  -3.2786935559843035e-08 7.0417616050692854e-05 0.0000000000000000e+00  7.4505922594122012e-08 8.9504912811812562e-05 0.0000000000000000e+00  -6.9289336460970570e-08 1.1035632696615330e-04 0.0000000000000000e+00  6.3243233699690485e-08 1.3287998703395714e-04 0.0000000000000000e+00  -8.3803481361950688e-08 1.5694268433670813e-04 0.0000000000000000e+00  5.1542934166770695e-08 1.8248298823334458e-04 0.0000000000000000e+00  -3.3177906867666330e-08 2.0948605867907507e-04 0.0000000000000000e+00  3.7299590370771439e-08 2.3789271756515301e-04 0.0000000000000000e+00  -6.9064794879936905e-08 2.6763607447919860e-04 0.0000000000000000e+00  4.2497212174525668e-08 2.9875200046540972e-04 0.0000000000000000e+00  -5.1094434404185938e-08 3.3118610817895529e-04 0.0000000000000000e+00  -3.2907189706551992e-08 3.6502463892951745e-04 0.0000000000000000e+00  1.6369345398196280e-08 4.0007742718112607e-04 0.0000000000000000e+00  3.9234442078260618e-08 4.3662435479674378e-04 0.0000000000000000e+00  -1.8880705481314631e-08 4.7449088343126954e-04 0.0000000000000000e+00  2.8076307395851168e-08 5.1380295424843867e-04 0.0000000000000000e+00  -7.3937504063836649e-08 5.5454692814941946e-04 0.0000000000000000e+00  2.0601359301551040e-08 5.9696827897375265e-04 0.0000000000000000e+00  8.8487379192343774e-09 6.4065317844621238e-04 0.0000000000000000e+00  -1.1980587609447532e-08 6.8643743088788226e-04 0.0000000000000000e+00  -8.9069105268724576e-08 7.3396825598544507e-04 0.0000000000000000e+00  -4.3234729168189177e-08 7.8317383908301809e-04 0.0000000000000000e+00  -4.4368415872966906e-08 8.3415894602978640e-04 0.0000000000000000e+00  6.1608608062406052e-08 8.8749399903606085e-04 0.0000000000000000e+00  -1.1233332166009355e-07 9.4312629043481386e-04 0.0000000000000000e+00  3.7720276287032385e-08 1.0012611123602906e-03 0.0000000000000000e+00  -1.2425483153165187e-07 1.0619495083166049e-03 0.0000000000000000e+00  4.5980536437550993e-08 1.1256273555340561e-03 0.0000000000000000e+00  -9.6969119085962788e-08 1.1920858352112856e-03 0.0000000000000000e+00  -5.0606922382398278e-08 1.2615875873044379e-03 0.0000000000000000e+00  -6.5519589211918073e-08 1.3360319445806605e-03 0.0000000000000000e+00  -1.2158475411434412e-08 1.4125223942368496e-03 0.0000000000000000e+00  1.4951184141129795e-07 1.4954944276544665e-03 0.0000000000000000e+00  -3.7138036619471370e-07 1.5820285283709603e-03 0.0000000000000000e+00  1.9805329074457875e-07 1.6732943850262614e-03 0.0000000000000000e+00  -2.1318874321136192e-07 1.7710121943971455e-03 0.0000000000000000e+00  1.4404757376936069e-07 1.8754918548339267e-03 0.0000000000000000e+00  -2.1700434313406081e-07 1.9869550438719754e-03 0.0000000000000000e+00  -1.4795465312752530e-07 2.1056423235244598e-03 0.0000000000000000e+00  -5.2015973795034827e-08 2.2355266272529946e-03 0.0000000000000000e+00  5.4375499090487924e-07 2.3735079463299761e-03 0.0000000000000000e+00  -3.7246884383464248e-07 2.5236601197272676e-03 0.0000000000000000e+00  8.7810945999723223e-09 2.6875596015086306e-03 0.0000000000000000e+00  1.6483586559055234e-07 2.8672831240469125e-03 0.0000000000000000e+00  -1.5290961776583745e-07 3.0616349079077344e-03 0.0000000000000000e+00  -1.7785962086219434e-07 3.2736752562744199e-03 0.0000000000000000e+00  -9.4480936413667853e-07 3.5176076025632461e-03 0.0000000000000000e+00  9.4262784021944397e-07 3.7830550386940779e-03 0.0000000000000000e+00  -1.3816123829962698e-06 4.0806275004579440e-03 0.0000000000000000e+00  1.8000665114039179e-06 4.4216283757926977e-03 0.0000000000000000e+00  -2.4496975102114780e-06 4.8077610146310366e-03 0.0000000000000000e+00  6.5771874422001986e-07 5.2563997662840641e-03 0.0000000000000000e+00  -4.2468373153308457e-06 5.7769394951302467e-03 0.0000000000000000e+00  1.6164795399553353e-06 6.4147704753349660e-03 0.0000000000000000e+00  -1.1834271986803279e-05 7.1489497660774367e-03 0.0000000000000000e+00  3.1392567899403917e-06 8.0679792671271480e-03 0.0000000000000000e+00  -1.7431809001001894e-05 9.1777518078597266e-03 0.0000000000000000e+00  -8.3321519355307621e-06 1.0682844734438287e-02 0.0000000000000000e+00  -2.5152878944234373e-05 1.2816082941192096e-02 0.0000000000000000e+00  -8.8194783502438414e-05 1.5512283362811794e-02 0.0000000000000000e+00  -1.0935771056911301e-04 1.9802980466064133e-02 0.0000000000000000e+00  -6.3852526335040233e-05 2.8305910601782436e-02 0.0000000000000000e+00  -2.3963870476269582e-04 4.1546704161860522e-02 0.0000000000000000e+00  -8.6790466766828586e-05 -5.0039167179393666e-04 0.0000000000000000e+00  -4.4334226042608488e-04 1.2128467844114396e-04 0.0000000000000000e+00  -3.9584374560847757e-05 -6.1346517589615419e-04 0.0000000000000000e+00  -5.8332884076466821e-04 3.9430709289214763e-04 0.0000000000000000e+00  -2.1165620095835082e-04 1.3156849691489770e-04 0.0000000000000000e+00  1.3725364970723983e-04 -4.9848183371361003e-04 0.0000000000000000e+00  3.6631128626604480e-04 -2.1974692398024680e-04 0.0000000000000000e+00  -7.1528219148861525e-04 1.0086115880375624e-03 0.0000000000000000e+00  -3.8362426471315314e-04 4.9649646681215547e-04 0.0000000000000000e+00  -2.9172395081004395e-04 -1.3914332351797244e-04 0.0000000000000000e+00  9.1015849502313912e-04 -9.0769068434196065e-04 0.0000000000000000e+00  -9.5685903246160709e-04 1.6964615375745027e-03 0.0000000000000000e+00  -2.2604445377582394e-04 3.2913792073157954e-04 0.0000000000000000e+00  -4.6320269600859561e-04 1.0688650211447917e-03 0.0000000000000000e+00  3.3860130443361862e-04 2.8535343479112578e-05 0.0000000000000000e+00  8.3465120894423420e-05 -3.3414274325043337e-04 0.0000000000000000e+00  -3.0245465281340068e-04 8.3752719930459433e-04 0.0000000000000000e+00  1.7779503080951841e-03 -1.4225083423135424e-03 0.0000000000000000e+00  -2.9985977525200596e-04 4.3649185983630408e-05 0.0000000000000000e+00  7.4390024260885459e-04 -4.4831388543100861e-04 0.0000000000000000e+00  -2.6451676479404522e-04 -4.1434198953013072e-04 0.0000000000000000e+00  -4.5613569400375121e-04 -1.0950948278159519e-04 0.0000000000000000e+00  5.2199042903919529e-04 -1.8161974467961951e-04 0.0000000000000000e+00  -8.1182920051172262e-05 6.3492526589395862e-05 0.0000000000000000e+00  -1.2582209209645297e-03 2.6866042739977837e-03 0.0000000000000000e+00  -6.2603146509009056e-04 1.9342429605847112e-03 0.0000000000000000e+00  -1.3199623581551246e-04 2.0812866761040302e-04 0.0000000000000000e+00  -2.0209479122852521e-04 5.2957203795487770e-04 0.0000000000000000e+00  2.1306666055207979e-04 6.3186655794789676e-05 0.0000000000000000e+00  -4.4449099922346690e-04 1.5826996285068758e-03 0.0000000000000000e+00  4.1367874603047097e-04 -6.2424545988393773e-04 0.0000000000000000e+00  -9.1644593818509398e-05 -1.1666572420614809e-04 0.0000000000000000e+00  1.2434151922488681e-04 -1.0590443396861372e-04 0.0000000000000000e+00  1.0068296188347002e-03 -1.1235178748461650e-03 0.0000000000000000e+00  -3.7873502158077238e-04 -2.9979848563868310e-05 0.0000000000000000e+00  5.4152287529422828e-04 -3.4588322680107570e-05 0.0000000000000000e+00  -5.3811704362000589e-04 5.4358766606024602e-05 0.0000000000000000e+00  -5.1749444698420536e-04 2.1974656017751323e-04 0.0000000000000000e+00  8.7561519275242093e-05 4.8301788576741393e-05 0.0000000000000000e+00  -2.1080639261018599e-04 -3.2726631582722483e-04 0.0000000000000000e+00  -3.3918521693235369e-04 1.8710825920881664e-04 0.0000000000000000e+00  2.7482715349647871e-04 -4.8294454089896248e-05 0.0000000000000000e+00  -1.8214342975733289e-04 7.2006500023993035e-04 0.0000000000000000e+00  3.1233403367558771e-03 -1.7661465838484875e-03 0.0000000000000000e+00  -1.7880172704145918e-04 4.2134762944714228e-05 0.0000000000000000e+00  1.1428247341030021e-03 -6.0202876217122837e-04 0.0000000000000000e+00  -2.5432033127823335e-04 1.1572189163353370e-03 0.0000000000000000e+00  -4.8938226914863189e-04 5.9641120517600946e-04 0.0000000000000000e+00  2.1753890045542214e-04 -7.5034765417618138e-04 0.0000000000000000e+00  -3.2600017526671066e-04 -2.4780069257597834e-04 0.0000000000000000e+00  -2.4215157397777985e-04 -3.2095297543005239e-05 0.0000000000000000e+00  1.6657225493575576e-03 -8.9009979514269950e-04 0.0000000000000000e+00  -6.6450371479077062e-04 2.7283724043980981e-03 0.0000000000000000e+00  -1.2220711831692957e-04 4.0186032854326419e-04 0.0000000000000000e+00  -6.3273618136637337e-04 6.9301844201057289e-04 0.0000000000000000e+00  -7.5694118372834223e-04 6.9953817909218356e-04 0.0000000000000000e+00  -3.5689547541104780e-04 3.3589085084894537e-04 0.0000000000000000e+00  7.1223552079046162e-04 -1.6777494974915775e-04 0.0000000000000000e+00  1.3432859413043199e-04 -7.6459258993319217e-04 0.0000000000000000e+00  -4.5116752508928210e-04 -3.4839411770253795e-05 0.0000000000000000e+00  -8.4896425319141026e-05 -3.8412677269086235e-04 0.0000000000000000e+00  -1.5946405830952609e-03 4.3374601251320831e-03 0.0000000000000000e+00  -7.2080348890929386e-05 1.3622453365768095e-04 0.0000000000000000e+00  2.1785707025162391e-03 -1.0867421297321778e-03 0.0000000000000000e+00  -2.3249765080823640e-04 1.7750287392852946e-06 0.0000000000000000e+00  3.3426816455662693e-04 1.1045168578650890e-04 0.0000000000000000e+00  1.9684519596156448e-04 1.9638207682401537e-05 0.0000000000000000e+00  3.9244471847357722e-04 -4.2045311867267021e-04 0.0000000000000000e+00  1.8803141395849563e-03 -1.4475057076336194e-05 0.0000000000000000e+00  -2.9755846532538203e-05 2.7798539222848099e-05 0.0000000000000000e+00  4.4936880707864592e-03 -2.1771165495368225e-03 0.0000000000000000e+00  -1.0311213163570396e-04 3.3845761780540129e-05 0.0000000000000000e+00  -2.6286545769144869e-04 1.4293008787044702e-03 0.0000000000000000e+00  -4.9866330112758163e-04 -4.1224804741982427e-05 0.0000000000000000e+00  4.4835296059509810e-04 9.0760775570344361e-05 0.0000000000000000e+00  -1.5416199046597084e-04 -4.8244460007447553e-05 0.0000000000000000e+00  1.9831470786621221e-04 -2.0098592897285352e-06 0.0000000000000000e+00  1.0151751906860081e-03 -1.2555928781056286e-03 0.0000000000000000e+00  -2.8969393083790707e-04 9.9591227689674409e-05 0.0000000000000000e+00  -1.7391110184628163e-04 9.9637731064465052e-04 0.0000000000000000e+00  -8.3321097211186044e-04 3.3719587501839171e-03 0.0000000000000000e+00  -9.7544226792897220e-05 2.9777347257104023e-04 0.0000000000000000e+00  -3.5888589049489178e-04 2.0202327901065872e-03 0.0000000000000000e+00  -1.4613243578625747e-04 -2.2539434111445029e-04 0.0000000000000000e+00  -5.9110582045751548e-04 1.1451401649945916e-03 0.0000000000000000e+00  -8.5580783266057156e-04 9.2832740484455453e-04 0.0000000000000000e+00  -2.2337859283403166e-04 2.1768891344345519e-04 0.0000000000000000e+00  -2.0438333410142976e-03 5.3164119927093722e-03 0.0000000000000000e+00  -4.5982775778284251e-05 7.8084185983882056e-05 0.0000000000000000e+00  -6.3148958115483091e-04 3.0890728570911487e-04 0.0000000000000000e+00  -4.5088806780991272e-04 3.1840986053655252e-04 0.0000000000000000e+00  9.5940087668451167e-04 -3.3933714963125058e-04 0.0000000000000000e+00  -6.9089842127371915e-04 7.9867598030093645e-04 0.0000000000000000e+00  -1.3822199980971281e-04 1.2483997057009978e-04 0.0000000000000000e+00  -3.1928798044567823e-04 -3.3660470640587157e-04 0.0000000000000000e+00  1.4218245087113711e-04 -3.7892426668603716e-05 0.0000000000000000e+00  -5.4697654240745545e-04 7.2637935613874543e-04 0.0000000000000000e+00  5.5351443672680811e-04 -1.0261107915901482e-03 0.0000000000000000e+00  -3.7442388420342329e-04 9.9516214216235693e-05 0.0000000000000000e+00  -1.7419474925969887e-04 1.8852745639556038e-05 0.0000000000000000e+00  3.0986402311471727e-03 -1.3030732460625365e-03 0.0000000000000000e+00  4.0653667262618847e-06 -6.0034629444945129e-05 0.0000000000000000e+00  8.2868075948739608e-04 -7.0276661816618020e-04 0.0000000000000000e+00  4.5062394351904372e-05 -1.7506021435486222e-04 0.0000000000000000e+00  4.1930383730647989e-04 -9.24852