<?xml version="1.0"?>
<VTKFile type="UnstructuredGrid"  version="0.1"  >
<UnstructuredGrid>
<Piece  NumberOfPoints="1121" NumberOfCells="2112">
<Points>
<DataArray  type="Float64"  NumberOfComponents="3"  format="ascii">0 0 0  0.5 0 0  0.5 -0.22 0  0 -0.22 0  0.0125 0 0  0.025 0 0  0.03750000000000001 0 0  0.05 0 0  0.0625 0 0  0.07500000000000001 0 0  0.08750000000000001 0 0  0.1 0 0  0.1125 0 0  0.125 0 0  0.1375 0 0  0.15 0 0  0.1625 0 0  0.175 0 0  0.1875 0 0  0.2 0 0  0.2125 0 0  0.225 0 0  0.2375 0 0  0.25 0 0  0.2625 0 0  0.275 0 0  0.2875 0 0  0.3 0 0  0.3124999999999999 0 0  0.325 0 0  0.3375 0 0  0.35 0 0  0.3625 0 0  0.375 0 0  0.3875 0 0  0.4 0 0  0.4125 0 0  0.425 0 0  0.4375 0 0  0.45 0 0  0.4625 0 0  0.475 0 0  0.4875 0 0  0.5 -0.00916666666666667 0  0.5 -0.01833333333333334 0  0.5 -0.02750000000000001 0  0.5 -0.03666666666666668 0  0.5 -0.04583333333333335 0  0.5 -0.05500000000000002 0  0.5 -0.06416666666666669 0  0.5 -0.07333333333333336 0  0.5 -0.08250000000000002 0  0.5 -0.09166666666666669 0  0.5 -0.1008333333333334 0  0.5 -0.11 0  0.5 -0.1191666666666667 0  0.5 -0.1283333333333334 0  0.5 -0.1375 0  0.5 -0.1466666666666667 0  0.5 -0.1558333333333333 0  0.5 -0.165 0  0.5 -0.1741666666666667 0  0.5 -0.1833333333333333 0  0.5 -0.1925 0  0.5 -0.2016666666666667 0  0.5 -0.2108333333333333 0  0.4875 -0.22 0  0.475 -0.22 0  0.4625 -0.22 0  0.45 -0.22 0  0.4375 -0.22 0  0.425 -0.22 0  0.4125 -0.22 0  0.4 -0.22 0  0.3875 -0.22 0  0.375 -0.22 0  0.3625 -0.22 0  0.35 -0.22 0  0.3375 -0.22 0  0.325 -0.22 0  0.3125 -0.22 0  0.3 -0.22 0  0.2875 -0.22 0  0.275 -0.22 0  0.2625 -0.22 0  0.25 -0.22 0  0.2375 -0.22 0  0.225 -0.22 0  0.2125 -0.22 0  0.2 -0.22 0  0.1875000000000001 -0.22 0  0.175 -0.22 0  0.1625 -0.22 0  0.15 -0.22 0  0.1375 -0.22 0  0.125 -0.22 0  0.1125 -0.22 0  0.09999999999999998 -0.22 0  0.08749999999999997 -0.22 0  0.07499999999999996 -0.22 0  0.0625 -0.22 0  0.04999999999999999 -0.22 0  0.03750000000000003 -0.22 0  0.02500000000000002 -0.22 0  0.01250000000000001 -0.22 0  0 -0.2108333333333333 0  0 -0.2016666666666667 0  0 -0.1925 0  0 -0.1833333333333333 0  0 -0.1741666666666666 0  0 -0.165 0  0 -0.1558333333333333 0  0 -0.1466666666666666 0  0 -0.1375 0  0 -0.1283333333333333 0  0 -0.1191666666666666 0  0 -0.11 0  0 -0.1008333333333333 0  0 -0.09166666666666665 0  0 -0.08249999999999999 0  0 -0.07333333333333333 0  0 -0.06416666666666668 0  0 -0.05499999999999999 0  0 -0.04583333333333331 0  0 -0.03666666666666665 0  0 -0.0275 0  0 -0.01833333333333334 0  0 -0.009166666666666684 0  0.1054583333333335 -0.1054166666666667 0  0.3942676334017064 -0.1137728325038039 0  0.2847879184121186 -0.1095588156798053 0  0.1945032948335413 -0.1282408799476467 0  0.06153506715537374 -0.1512727221728088 0  0.4399056412223469 -0.06797859302281792 0  0.05788181883779472 -0.06001948808334377 0  0.4421098014386607 -0.1599837267347342 0  0.3413511741034609 -0.06957267157055583 0  0.2288650014326337 -0.07000139022125416 0  0.3374198095657364 -0.153292781564552 0  0.1625149941501948 -0.06635759941053934 0  0.1410798075665959 -0.1547982873744018 0  0.2480541718311375 -0.1584999930406966 0  0.4521112869309225 -0.1144576824167908 0  0.04769384748510372 -0.1054790589784799 0  0.2872553124970689 -0.0549183148201307 0  0.3883603170589741 -0.1667590078701163 0  0.1113816725357426 -0.05349980002187416 0  0.388663619148569 -0.05083099728992514 0  0.2924675002385118 -0.1733355444551434 0  0.03957129721715399 -0.1820306497250263 0  0.463886478278041 -0.04123097885421483 0  0.1819898664669143 -0.1745112248447572 0  0.1501955722423063 -0.1126410264576243 0  0.2381168692527681 -0.1138631020717532 0  0.09896708868237117 -0.1743617443889283 0  0.351521105495953 -0.110482033201648 0  0.1944214316144394 -0.04364751139729321 0  0.4676096572335854 -0.17875 0  0.0323903427664145 -0.04125 0  0.03139627442974444 -0.07791666666666666 0  0.4686037255702555 -0.1420833333333333 0  0.03146427625974824 -0.1353922207127977 0  0.4687538427589449 -0.08499498352404596 0  0.1945393885069078 -0.08884182758867265 0  0.2525813348104176 -0.03744007417230172 0  0.3217010222371471 -0.03764154129720884 0  0.4222469886470394 -0.03586904090069724 0  0.09663319060065351 -0.1401271138728219 0  0.2193792666828137 -0.183158231426584 0  0.3560154827479793 -0.1838943099753877 0  0.1434582748922029 -0.03603411582704523 0  0.3765333185963097 -0.08241017292348579 0  0.07538111331820632 -0.08899587837746269 0  0.423855991190923 -0.1306886077643884 0  0.3185210010305527 -0.09753607818954631 0  0.3569762884570115 -0.03650734503769727 0  0.4254213410091923 -0.0987078979590463 0  0.2610082403268991 -0.0817800662321487 0  0.0828105113527246 -0.0341734786714956 0  0.4171399376253134 -0.185803221952863 0  0.3057870365127394 -0.1382026892003179 0  0.12895829204953 -0.08335230948371621 0  0.06875298785225953 -0.187362820013113 0  0.3717868049890677 -0.1386048615715364 0  0.321448533906611 -0.1855116827647124 0  0.26298072168791 -0.1839420817131204 0  0.07484000163200957 -0.1198633334100699 0  0.1547686158654376 -0.1863750548878711 0  0.216059367308573 -0.1515159536473182 0  0.2699691944498949 -0.1417527519042215 0  0.1656185503016955 -0.1403556565429203 0  0.4083071195762781 -0.07378364169239227 0  0.1267131755037155 -0.1278660972450704 0  0.4735015828166597 -0.0640900788079139 0  0.02554956908977171 -0.1556408100003981 0  0.4768150825846236 -0.1145833333333333 0  0.02318491741537634 -0.1054166666666667 0  0.223953700752457 -0.0304451531933032 0  0.1244872804067221 -0.1907232817427361 0  0.4438735214118281 -0.1930008132865749 0  0.05574102313663398 -0.02865323925202035 0  0.4137204188713657 -0.1553454939163003 0  0.08893893095617791 -0.06579816339826482 0  0.1717694871603352 -0.02800139159048265 0  0.3128492556460914 -0.06943040619515532 0  0.2797695783739821 -0.02590934499649085 0  0.02258333333333329 -0.1970833333333333 0  0.4762493762769904 -0.02160603458451191 0  0.4793770768812318 -0.1979934752448725 0  0.02062142143957255 -0.02200567641944876 0  0.1164030865048185 -0.02740272745133866 0  0.3830675041448486 -0.1925667518381948 0  0.4791226873505327 -0.1610342148373401 0  0.02087731264946724 -0.05896578516265992 0  0.3274724693986852 -0.1225305077389053 0  0.3972801610854721 -0.02625449066011495 0  0.2900140160514686 -0.08365001034985962 0  0.1709547781797311 -0.09465470820062212 0  0.2138438311308281 -0.1099941211103435 0  0.4450205721789285 -0.02492933314930469 0  0.05420467580227878 -0.08349945672846135 0  0.4461329107542346 -0.1367113815538408 0  0.3659666316461785 -0.05978339436610505 0  0.44602790301578 -0.09307279226297782 0  0.1051970245947556 -0.08027435556391044 0  0.05333928713341426 -0.1272409570081178 0  0.3959065276465774 -0.1392957050603055 0  0.1954280839215327 -0.1956301054107469 0  0.1114114251973984 -0.1581699686077357 0  0.1861203385256373 -0.06601416834570389 0  0.2411653975579025 -0.1955923650394697 0  0.3655092946697883 -0.1617364087021952 0  0.135090011654307 -0.05852644219278214 0  0.301466572149827 -0.195730962509487 0  0.3171403096460815 -0.1628017925003279 0  0.2583110626374412 -0.1046341192205865 0  0.4408293443687437 -0.04585722764353674 0  0.2712011044137034 -0.1640374945295207 0  0.2411933721253841 -0.08983355018053346 0  0.2501709838730871 -0.1314559421109842 0  0.4829353992284747 -0.03936718280336758 0  0.01826814268142685 -0.17875 0  0.08176459786747367 -0.1581134879103219 0  0.09090727073593149 -0.1966179220907174 0  0.1938567422944586 -0.1528508759815354 0  0.1733129361306733 -0.1172649579021292 0  0.1296640686621583 -0.1060858859555111 0  0.05006156132458137 -0.1998033571646454 0  0.162505650870633 -0.1635353305739766 0  0.30277270753554 -0.02336446206680166 0  0.04392010531002208 -0.1476919574928456 0  0.4570380569409145 -0.07105832940298668 0  0.2509935571465481 -0.06292905082461901 0  0.3948833058972995 -0.09019561948060845 0  0.4598195232581849 -0.1577532743262658 0  0.04018055885339097 -0.06224663359087233 0  0.1730418602576066 -0.1983511585214162 0  0.354008461825654 -0.08842076759065362 0  0.373211974938222 -0.1031515537153039 0  0.3385725936424656 -0.02355841481827918 0  0.05693481862827446 -0.1711111761535942 0  0.2226017506701603 -0.1306213423698554 0  0.4834446118625366 -0.09366667033152501 0  0.01655538813746335 -0.126333329668475 0  0.4825096030146118 -0.1326572162395438 0  0.01749039698538812 -0.08734278376045618 0  0.3772923679603625 -0.01999366789017346 0  0.01651090378487999 -0.1420833333333333 0  0.48348909621512 -0.07791666666666669 0  0.2083850969976113 -0.06098599897318754 0  0.3496303726904554 -0.1333395240176083 0  0.3051888980043784 -0.1167126520442686 0  0.2175622493287656 -0.08816391583608728 0  0.421331648509181 -0.05567865783938017 0  0.2036856364456695 -0.0217459550834085 0  0.3419325538888507 -0.04719577702332296 0  0.3412491916251918 -0.1996737604301947 0  0.4838834006315611 -0.1786454571355643 0  0.01611659936843887 -0.0413545428644357 0  0.172916357627664 -0.04916537131395513 0  0.4024134926805814 -0.2009331510593763 0  0.2424815730009992 -0.02045273553971888 0  0.1462759520833398 -0.1337233768065287 0  0.2346404539413744 -0.0484884977905098 0  0.09697638824467633 -0.01835062747588986 0  0.3376316573341132 -0.1736137832302001 0  0.1473441332611047 -0.09306137774954895 0  0.434705037373379 -0.114505364151485 0  0.0768089501139663 -0.1390499296181859 0  0.2037322897871967 -0.1695319781453501 0  0.2796822656650553 -0.2007669332776081 0  0.2910707535484897 -0.1516548901144321 0  0.414355300365443 -0.1140560482952263 0  0.09372496308173206 -0.1210763918452149 0  0.3897041267298961 -0.06995384811683555 0  0.4607061536274312 -0.2009522278863767 0  0.03767528917450519 -0.01920779542340162 0  0.06550910726222195 -0.1022565085744684 0  0.05021276002452402 -0.04427151993747909 0  0.4497875067624045 -0.1757266867012744 0  0.2685456651208211 -0.05149244248160013 0  0.1924991911245588 -0.1082791409797235 0  0.4653652048205058 -0.1036696603203247 0  0.03478864406010496 -0.1162949466270758 0  0.03530598512279109
[...]
<PointData  Vectors="displacement"> 
<DataArray  type="Float64"  Name="displacement"  NumberOfComponents="3" format="ascii">-5.2951450985910826e-03 -2.0886567678439230e-02 0.0000000000000000e+00  5.2950484053305149e-03 -2.0885860719317681e-02 0.0000000000000000e+00  1.0729317767465565e-04 -1.5607193293269670e-04 0.0000000000000000e+00  -1.0503275704250012e-04 -1.5609222265141535e-04 0.0000000000000000e+00  -5.2943241656648078e-03 -2.1344440320203911e-02 0.0000000000000000e+00  -5.2939112252842991e-03 -2.1740302397876044e-02 0.0000000000000000e+00  -5.2682652686571515e-03 -2.2026119893225234e-02 0.0000000000000000e+00  -5.2070562738701122e-03 -2.2231395712520852e-02 0.0000000000000000e+00  -5.1061216573616989e-03 -2.2361448208463676e-02 0.0000000000000000e+00  -4.9634901631790988e-03 -2.2426327024036546e-02 0.0000000000000000e+00  -4.7734697360439990e-03 -2.2452546421933828e-02 0.0000000000000000e+00  -4.5525707128932563e-03 -2.2417348297988554e-02 0.0000000000000000e+00  -4.2775480241506051e-03 -2.2394354207849826e-02 0.0000000000000000e+00  -3.9814694435075827e-03 -2.2315069983274999e-02 0.0000000000000000e+00  -3.6503820720192844e-03 -2.2242105491828625e-02 0.0000000000000000e+00  -3.2950209969910172e-03 -2.2163188733726850e-02 0.0000000000000000e+00  -2.9186968954197480e-03 -2.2092401878837133e-02 0.0000000000000000e+00  -2.5271479615862299e-03 -2.2021407593726432e-02 0.0000000000000000e+00  -2.1243304696269838e-03 -2.1947999305791603e-02 0.0000000000000000e+00  -1.7085506293997659e-03 -2.1903319206232223e-02 0.0000000000000000e+00  -1.2877484141601129e-03 -2.1851940589938820e-02 0.0000000000000000e+00  -8.6075399518269506e-04 -2.1820942245458854e-02 0.0000000000000000e+00  -4.3169918391186866e-04 -2.1802092710709344e-02 0.0000000000000000e+00  5.1840301223163978e-08 -2.1797776142366297e-02 0.0000000000000000e+00  4.3065658531244642e-04 -2.1804141014534626e-02 0.0000000000000000e+00  8.6051156216815600e-04 -2.1828471423018300e-02 0.0000000000000000e+00  1.2881567662890554e-03 -2.1851057340715817e-02 0.0000000000000000e+00  1.7093862449482728e-03 -2.1898879220604243e-02 0.0000000000000000e+00  2.1233840699675668e-03 -2.1951977540093415e-02 0.0000000000000000e+00  2.5276191393062029e-03 -2.2018118278744503e-02 0.0000000000000000e+00  2.9185291495732639e-03 -2.2093040020770550e-02 0.0000000000000000e+00  3.2951323018331406e-03 -2.2164091245364104e-02 0.0000000000000000e+00  3.6497687951955629e-03 -2.2241389565773505e-02 0.0000000000000000e+00  3.9814427834910515e-03 -2.2316210106558959e-02 0.0000000000000000e+00  4.2796785046849816e-03 -2.2385550965066073e-02 0.0000000000000000e+00  4.5445520287168912e-03 -2.2431659838347402e-02 0.0000000000000000e+00  4.7764820742539436e-03 -2.2444287186307900e-02 0.0000000000000000e+00  4.9670112560260462e-03 -2.2424414685357792e-02 0.0000000000000000e+00  5.1048630559604761e-03 -2.2362099614436186e-02 0.0000000000000000e+00  5.2083220966049589e-03 -2.2236265437108368e-02 0.0000000000000000e+00  5.2682146785740991e-03 -2.2023741082565464e-02 0.0000000000000000e+00  5.2899751685132838e-03 -2.1739887427484467e-02 0.0000000000000000e+00  5.2935530652006933e-03 -2.1349035926567429e-02 0.0000000000000000e+00  5.6529879818729076e-03 -2.0835924618208251e-02 0.0000000000000000e+00  6.0186707523522702e-03 -2.0700415245357883e-02 0.0000000000000000e+00  6.3890883237179407e-03 -2.0481998601878753e-02 0.0000000000000000e+00  6.7669387496890601e-03 -2.0188467645748897e-02 0.0000000000000000e+00  7.1390037123313117e-03 -1.9825942770833559e-02 0.0000000000000000e+00  7.5022315177130572e-03 -1.9400407227264736e-02 0.0000000000000000e+00  7.8414807552932408e-03 -1.8912258934559247e-02 0.0000000000000000e+00  8.1503265286515716e-03 -1.8368455702022498e-02 0.0000000000000000e+00  8.4201342504798236e-03 -1.7778091200339043e-02 0.0000000000000000e+00  8.6375402275033330e-03 -1.7132125883209011e-02 0.0000000000000000e+00  8.7871981474275020e-03 -1.6427200911153017e-02 0.0000000000000000e+00  8.8712115256256770e-03 -1.5680852082762049e-02 0.0000000000000000e+00  8.8711038758800213e-03 -1.4876935044011275e-02 0.0000000000000000e+00  8.7813916327687622e-03 -1.4023910641230661e-02 0.0000000000000000e+00  8.5982599063857794e-03 -1.3117294649980987e-02 0.0000000000000000e+00  8.2986272693864084e-03 -1.2150761114766847e-02 0.0000000000000000e+00  7.8888393303168484e-03 -1.1128717565236168e-02 0.0000000000000000e+00  7.3472451219192868e-03 -1.0037349851312724e-02 0.0000000000000000e+00  6.6738890521004070e-03 -8.8631511324451847e-03 0.0000000000000000e+00  5.8458632781602108e-03 -7.5835208164680415e-03 0.0000000000000000e+00  4.8632068673891086e-03 -6.1981847181836677e-03 0.0000000000000000e+00  3.6749231551911963e-03 -4.6408238761104842e-03 0.0000000000000000e+00  2.2224072773511525e-03 -2.7997459394773294e-03 0.0000000000000000e+00  -3.9953618088959431e-05 2.5824156923943917e-05 0.0000000000000000e+00  -5.5664581438801539e-06 6.4290085406962817e-07 0.0000000000000000e+00  -2.1312711926745029e-05 1.4712996286532156e-05 0.0000000000000000e+00  -2.3006757334323983e-07 4.2283163805613554e-06 0.0000000000000000e+00  -1.4900518515508846e-05 1.0227315839087694e-05 0.0000000000000000e+00  -5.0086666103765576e-06 3.5557179231433332e-06 0.0000000000000000e+00  -2.4710322679124772e-06 5.3008645505734056e-06 0.0000000000000000e+00  2.0432966125990573e-06 1.4181852750658988e-06 0.0000000000000000e+00  -1.6458284292590471e-06 1.5078159657575458e-06 0.0000000000000000e+00  7.1357806365839890e-07 3.5179175292118927e-06 0.0000000000000000e+00  4.4473597884262568e-06 2.9304094692085377e-06 0.0000000000000000e+00  1.3522341404114350e-07 3.0105964280676040e-06 0.0000000000000000e+00  5.6098360428505186e-06 3.2669218511451486e-06 0.0000000000000000e+00  -6.5925883596756261e-07 2.6854187693247227e-06 0.0000000000000000e+00  1.2821204052276816e-06 1.4972264039561475e-06 0.0000000000000000e+00  2.0496462638231289e-06 2.9200429479005964e-06 0.0000000000000000e+00  -5.8421327123631014e-07 2.3796539000907832e-06 0.0000000000000000e+00  2.1406645910623650e-06 1.7632945015139093e-06 0.0000000000000000e+00  -2.0862776178038311e-06 1.5826677091971242e-06 0.0000000000000000e+00  1.2547903253239181e-06 1.8011215831487448e-06 0.0000000000000000e+00  2.5011774230018904e-07 3.0995827894641610e-06 0.0000000000000000e+00  -1.5678351888078691e-06 2.2448736099063801e-06 0.0000000000000000e+00  1.0579154388472322e-06 2.1899978678947071e-06 0.0000000000000000e+00  -4.1161311315620155e-06 2.0721400988417242e-06 0.0000000000000000e+00  8.6152416803477434e-07 2.6649915471545651e-06 0.0000000000000000e+00  2.8619210658823463e-06 1.7599000675254217e-06 0.0000000000000000e+00  -2.1294622863386454e-06 2.1606780884816230e-06 0.0000000000000000e+00  8.2578430491979246e-08 1.8411151137927040e-06 0.0000000000000000e+00  -4.8516575057821993e-06 3.0355764599823791e-06 0.0000000000000000e+00  -2.0629907578564454e-06 4.6395952347609777e-06 0.0000000000000000e+00  4.4214903914009192e-07 8.9625312666308111e-07 0.0000000000000000e+00  7.6186318698439316e-06 4.6816266691973708e-06 0.0000000000000000e+00  2.3420994602017759e-07 1.3880828702014410e-06 0.0000000000000000e+00  -1.0159211801316917e-05 3.7446156879094732e-06 0.0000000000000000e+00  1.1806906040532909e-06 6.5629759622689308e-06 0.0000000000000000e+00  1.1086599741347829e-05 6.0341044012812638e-06 0.0000000000000000e+00  -2.0773081723435950e-07 2.2113145259595303e-06 0.0000000000000000e+00  1.4431031256346718e-05 8.6696549548891831e-06 0.0000000000000000e+00  4.6818897053191872e-05 3.5441583531060320e-05 0.0000000000000000e+00  -2.2216424244659982e-03 -2.7978752826315536e-03 0.0000000000000000e+00  -3.6726728920819865e-03 -4.6391775082722849e-03 0.0000000000000000e+00  -4.8616427882638381e-03 -6.1967503159749485e-03 0.0000000000000000e+00  -5.8491549269243112e-03 -7.5850501703631553e-03 0.0000000000000000e+00  -6.6755560653006581e-03 -8.8612022375815433e-03 0.0000000000000000e+00  -7.3477678710027949e-03 -1.0030376214724980e-02 0.0000000000000000e+00  -7.8866468876275398e-03 -1.1132201893155202e-02 0.0000000000000000e+00  -8.2969037900400590e-03 -1.2156366701263238e-02 0.0000000000000000e+00  -8.5960129842250644e-03 -1.3119369017914502e-02 0.0000000000000000e+00  -8.7857708775371055e-03 -1.4027191072093393e-02 0.0000000000000000e+00  -8.8703591618890659e-03 -1.4878031794574528e-02 0.0000000000000000e+00  -8.8705340642977852e-03 -1.5677796278844431e-02 0.0000000000000000e+00  -8.7885660888414388e-03 -1.6429597888342820e-02 0.0000000000000000e+00  -8.6346821545728591e-03 -1.7128038140302955e-02 0.0000000000000000e+00  -8.4225614235143697e-03 -1.7782307504965521e-02 0.0000000000000000e+00  -8.1527012572224639e-03 -1.8374281255636237e-02 0.0000000000000000e+00  -7.8423005859081588e-03 -1.8915904150649886e-02 0.0000000000000000e+00  -7.5009781173565517e-03 -1.9397108363743878e-02 0.0000000000000000e+00  -7.1386622081962567e-03 -1.9824366811239721e-02 0.0000000000000000e+00  -6.7671756986189468e-03 -2.0187734758665636e-02 0.0000000000000000e+00  -6.3886986853559750e-03 -2.0482057243353426e-02 0.0000000000000000e+00  -6.0187884466547017e-03 -2.0701122604005966e-02 0.0000000000000000e+00  -5.6526933448885824e-03 -2.0835619433495978e-02 0.0000000000000000e+00  -4.7248803990632823e-03 -1.5641066443738104e-02 0.0000000000000000e+00  4.6162837846463458e-03 -1.4648363966116849e-02 0.0000000000000000e+00  1.0062401292525284e-03 -1.4690212969343577e-02 0.0000000000000000e+00  -1.4816807091922427e-03 -1.2504539976914844e-02 0.0000000000000000e+00  -5.3330574022355986e-03 -9.9853791020843522e-03 0.0000000000000000e+00  6.3312957097309882e-03 -1.9532635110509091e-02 0.0000000000000000e+00  -6.2604146539307634e-03 -2.0111221775268254e-02 0.0000000000000000e+00  5.0171850478957138e-03 -8.7650954953541003e-03 0.0000000000000000e+00  2.9446258442301699e-03 -1.8862252698933366e-02 0.0000000000000000e+00  -6.6702704650707352e-04 -1.8537260536308036e-02 0.0000000000000000e+00  1.9580928115888454e-03 -9.2786928238885544e-03 0.0000000000000000e+00  -2.8178563208131786e-03 -1.9092981223080993e-02 0.0000000000000000e+00  -2.4823573697353518e-03 -9.1109319780350445e-03 0.0000000000000000e+00  -3.9242002806422793e-05 -8.5055221659099383e-03 0.0000000000000000e+00  7.0454169612043163e-03 -1.4993085494124985e-02 0.0000000000000000e+00  -7.1130590697128515e-03 -1.6015272181787759e-02 0.0000000000000000e+00  1.1948769441845238e-03 -1.9688167972684592e-02 0.0000000000000000e+00  2.8503058846483073e-03 -7.4866572799059420e-03 0.0000000000000000e+00  -4.4863515766849372e-03 -2.0394772263718313e-02 0.0000000000000000e+00  4.4721823012292888e-03 -2.0572159685783714e-02 0.0000000000000000e+00  6.7822477179656844e-04 -6.4763730733003065e-03 0.0000000000000000e+00  -4.0923195966593474e-03 -5.7216430897137054e-03 0.0000000000000000e+00  6.3578171289599070e-03 -2.1006768518702673e-02 0.0000000000000000e+00  -1.0884600781709639e-03 -6.3226190718063922e-03 0.0000000000000000e+00  -3.0108185393644122e-03 -1.4544504943608011e-02 0.0000000000000000e+00  -3.3658915970459063e-04 -1.4175158231119101e-02 0.0000000000000000e+00  -2.8160579086924605e-03 -6.4230243263325168e-03 0.0000000000000000e+00  3.0929169942489629e-03 -1.4808495662205958e-02 0.0000000000000000e+00  -1.7964940529985344e-03 -2.0459871553859584e-02 0.0000000000000000e+00  4.6965031554206437e-03 -6.4057653992979080e-03 0.0000000000000000e+00  -6.4315258431261726e-03 -2.0941510361866204e-02 0.0000000000000000e+00  -7.4482063488059058e-03 -1.8628117079919227e-02 0.0000000000000000e+00  7.1280733008346796e-03 -1.1762563026336451e-02 0.0000000000000000e+00  -7.3578897677513307e-03 -1.2633698514903653e-02 0.0000000000000000e+00  7.5856514690400929e-03 -1.8039401248065350e-02 0.0000000000000000e+00  -1.7184242397918562e-03 -1.6937332939263923e-02 0.0000000000000000e+00  8.4034118210965554e-05 -2.0650642299706024e-02 0.0000000000000000e+00  2.3208774862454404e-03 -2.0855738372243228e-02 0.0000000000000000e+00  5.2879103963456020e-03 -2.1530384934944836e-02 0.0000000000000000e+00  -4.3774034796669487e-03 -1.1285148667654801e-02 0.0000000000000000e+00  -3.9025216597586581e-04 -5.1045101301369859e-03 0.0000000000000000e+00  1.4553957161092047e-03 -5.0180402913727537e-03 0.0000000000000000e+00  -3.4183882670395676e-03 -2.1168553975610821e-02 0.0000000000000000e+00  4.1530482082951670e-03 -1.7951203444237084e-02 0.0000000000000000e+00  -5.9778756881378008e-03 -1.7607277855960654e-02 0.0000000000000000e+00  5.4845239501594327e-03 -1.2693705924671674e-02 0.0000000000000000e+00  2.0997256545885780e-03 -1.6099545636994072e-02 0.0000000000000000e+00  3.4320040164735623e-03 -2.1151523498229675e-02 0.0000000000000000e+00  6.0114142831761870e-03 -1.6593186469105424e-02 0.0000000000000000e+00  3.4106222438432709e-04 -1.7504418737756516e-02 0.0000000000000000e+00  -5.1363034451820571e-03 -2.1601576173816976e-02 0.0000000000000000e+00  2.5116748340342373e-03 -4.8035976909893332e-03 0.0000000000000000e+00  1.3895087376416390e-03 -1.1237322331800111e-02 0.0000000000000000e+00  -3.9552516618324082e-03 -1.7829362050270321e-02 0.0000000000000000e+00  -2.7241553862793612e-03 -4.6216656036264384e-03 0.0000000000000000e+00  3.2994602121774273e-03 -1.1350519901846294e-02 0.0000000000000000e+00  8.9435486084245600e-04 -4.7815816570023657e-03 0.0000000000000000e+00  1.6246282144709003e-04 -4.9939487350387796e-03 0.0000000000000000e+00  -5.7861735508048448e-03 -1.4104020747359603e-02 0.0000000000000000e+00  -1.2054489943832999e-03 -4.6648782435406563e-03 0.0000000000000000e+00  -7.3498634776646339e-04 -9.4588328565115842e-03 0.0000000000000000e+00  4.7253137802856938e-04 -1.0738776149541732e-02 0.0000000000000000e+00  -2.1303625866917440e-03 -1.1010421061803936e-02 0.0000000000000000e+00  5.2922913259418700e-03 -1.8951119798226512e-02 0.0000000000000000e+00  -3.5913528725420398e-03 -1.2769651183505331e-02 0.0000000000000000e+00  7.2473637674774858e-03 -1.9572314307783275e-02 0.0000000000000000e+00  -6.7515541932642560e-03 -1.0071721594243431e-02 0.0000000000000000e+00  8.0809835404479224e-03 -1.5186799614627459e-02 0.0000000000000000e+00  -8.0877127812221741e-03 -1.6126917182876024e-02 0.0000000000000000e+00  -8.5243678813923566e-04 -2.1005140169317902e-02 0.0000000000000000e+00  -1.4729418044807298e-03 -4.0567182540009166e-03 0.0000000000000000e+00  2.5540231175963700e-03 -3.8541438696430793e-03 0.0000000000000000e+00  -5.6523641848058095e-03 -2.1748055423020957e-02 0.0000000000000000e+00  4.1647039155122021e-03 -9.2067779914796356e-03 0.0000000000000000e+00  -5.3279603209037876e-03 -1.9628170148516606e-02 0.0000000000000000e+00  -2.5387414612578576e-03 -2.1333638156973735e-02 0.0000000000000000e+00  2.0034999505718814e-03 -1.8714111406229198e-02 0.0000000000000000e+00  9.7908539181789148e-04 -2.1195777701938357e-02 0.0000000000000000e+00  -3.0962229634298884e-03 -3.7378604560554590e-03 0.0000000000000000e+00  5.9429000591272440e-03 -2.1429631228489975e-02 0.0000000000000000e+00  3.0604453285376317e-03 -3.6351767471866129e-03 0.0000000000000000e+00  -5.9876985352414532e-03 -2.1341669277485750e-02 0.0000000000000000e+00  -4.1919043985996045e-03 -2.1733586509605805e-02 0.0000000000000000e+00  1.4913683836680909e-03 -3.7985902650341532e-03 0.0000000000000000e+00  6.6477558402814642e-03 -9.4730547988588400e-03 0.0000000000000000e+00  -7.2306004544292818e-03 -1.9790877335680863e-02 0.0000000000000000e+00  2.1821778181742141e-03 -1.3271310850295993e-02 0.0000000000000000e+00  4.5520618858159350e-03 -2.1858339798720237e-02 0.0000000000000000e+00  1.2436799063538942e-03 -1.7384593616060096e-02 0.0000000000000000e+00  -2.4575957951799188e-03 -1.6448004953499278e-02 0.0000000000000000e+00  -1.0444480789590053e-03 -1.4645603068477404e-02 0.0000000000000000e+00  5.5856940174078013e-03 -2.1868572849038311e-02 0.0000000000000000e+00  -6.7551431409299976e-03 -1.8218477065191675e-02 0.0000000000000000e+00  6.2878769563588181e-03 -1.2111020786704028e-02 0.0000000000000000e+00  3.7663655360755900e-03 -1.9798180922432955e-02 0.0000000000000000e+00  6.8395053223317933e-03 -1.7292447739304061e-02 0.0000000000000000e+00  -4.8218779473976044e-03 -1.8278831169274382e-02 0.0000000000000000e+00  -6.5818378754475462e-03 -1.3363129137428235e-02 0.0000000000000000e+00  4.1224495585554331e-03 -1.1359157832280245e-02 0.0000000000000000e+00  -4.8290911424710928e-04 -3.3617872433195132e-03 0.0000000000000000e+00  -3.2136920668278594e-03 -8.7071862178247379e-03 0.0000000000000000e+00  -2.0424163393857144e-03 -1.8994100019389320e-02 0.0000000000000000e+00  -7.8373898573025669e-05 -3.3669863964457840e-03 0.0000000000000000e+00  2.4397068625573821e-03 -8.1550189830990015e-03 0.0000000000000000e+00  -3.7286866766028932e-03 -1.9878100512240805e-02 0.0000000000000000e+00  4.5231066151247298e-04 -3.3476353726180335e-03 0.0000000000000000e+00  1.3014344356838219e-03 -7.9502532919832215e-03 0.0000000000000000e+00  2.4312071987531224e-04 -1.5206990788563248e-02 0.0000000000000000e+00  5.9401965339882313e-03 -2.0999155237500334e-02 0.0000000000000000e+00  3.9108208763881321e-04 -7.7545902977025393e-03 0.0000000000000000e+00  -2.6845617205039854e-04 -1.6745967367206641e-02 0.0000000000000000e+00  4.1618026952510951e-06 -1.2049706586010719e-02 0.0000000000000000e+00  6.6371668344737227e-03 -2.0671089644010682e-02 0.0000000000000000e+00  -5.3654145456427894e-03 -6.9430920949723482e-03 0.0000000000000000e+00  -4.1975661090110604e-03 -8.8345358519024125e-03 0.0000000000000000e+00  -1.6301901387408549e-03 -3.2360027802393440e-03 0.0000000000000000e+00  -1.2198106985890705e-03 -9.2984729627687123e-03 0.0000000000000000e+00  -2.2137806239234965e-03 -1.3906760784050926e-02 0.0000000000000000e+00  -3.8029901613313333e-03 -1.5417637727757514e-02 0.0000000000000000e+00  -2.0267606370394081e-03 -2.8805104209803146e-03 0.0000000000000000e+00  -1.7235536586940941e-03 -7.8677416601643756e-03 0.0000000000000000e+00  1.7332806679067943e-03 -2.1372312291267813e-02 0.0000000000000000e+00  -6.2997808213704366e-03 -1.0747638665655248e-02 0.0000000000000000e+00  6.9411559762190865e-03 -1.9239744306076174e-02 0.0000000000000000e+00  3.1523653871465222e-05 -1.9071049360452903e-02 0.0000000000000000e+00  4.8241979754672787e-03 -1.7306108805098287e-02 0.0000000000000000e+00  5.9385106724633733e-03 -9.3818008142632636e-03 0.0000000000000000e+00  -6.8305989278366636e-03 -1.9866039694316554e-02 0.0000000000000000e+00  -6.2224731953717583e-04 -2.9812536066586869e-03 0.0000000000000000e+00  3.3355573177614966e-03 -1.7222000993009072e-02 0.0000000000000000e+00  3.9356769571097863e-03 -1.5768693263825972e-02 0.0000000000000000e+00  2.8678963145458898e-03 -2.1569676642679798e-02 0.0000000000000000e+00  -4.3258987425763154e-03 -7.1249008011085632e-03 0.0000000000000000e+00  -7.0786822308890949e-04 -1.2164609168407692e-02 0.0000000000000000e+00  8.2017136517863569e-03 -1.7190733072618689e-02 0.0000000000000000e+00  -8.2105343236851952e-03 -1.3977320893016015e-02 0.0000000000000000e+00  8.0452223976347388e-03 -1.3242180976243863e-02 0.0000000000000000e+00  -8.0663133280579630e-03 -1.7731316133743999e-02 0.0000000000000000e+00  4.0022700699137411e-03 -2.1945074407953888e-02 0.0000000000000000e+00  -7.8051893796377897e-03 -1.2140196531313867e-02 0.0000000000000000e+00  7.8858755774953992e-03 -1.8448855612289386e-02 0.0000000000000000e+00  -1.3293711860068384e-03 -1.9283092095486058e-02 0.0000000000000000e+00  2.7055554141256293e-03 -1.1972081219502724e-02 0.0000000000000000e+00  1.5682817975229500e-03 -1.3908522858266234e-02 0.0000000000000000e+00  -9.9713532369085874e-04 -1.6937670893041167e-02 0.0000000000000000e+00  5.5499008255224516e-03 -2.0410715011439241e-02 0.0000000000000000e+00  -1.5265913403293150e-03 -2.1398779345110024e-02 0.0000000000000000e+00  2.9656096005961155e-03 -2.0460166099678344e-02 0.0000000000000000e+00  7.0946522389026955e-04 -2.7965831655168542e-03 0.0000000000000000e+00  5.4895692162259943e-03 -7.0835591186337353e-03 0.0000000000000000e+00  -6.7235321248127417e-03 -2.056490259738712