<?xml version="1.0"?>
<VTKFile type="UnstructuredGrid"  version="0.1"  >
<UnstructuredGrid>
<Piece  NumberOfPoints="1855" NumberOfCells="3532">
<Points>
<DataArray  type="Float64"  NumberOfComponents="3"  format="ascii">0 0 0  30 0 0  30 -10 0  0 -10 0  0.1391574078963744 0 0  0.2856388821882616 0 0  0.4398299073010886 0 0  0.6021362569539473 0 0  0.7729850389704483 0 0  0.9528258543586996 0 0  1.142131984380316 0 0  1.34140159760994 0 0  1.551159074717981 0 0  1.771956417032531 0 0  2.004374674080994 0 0  2.249025475789527 0 0  2.506552636773105 0 0  2.777633857742732 0 0  3.062982518028728 0 0  3.363349525995907 0 0  3.679525322337712 0 0  4.01234195575742 0 0  4.362675247811097 0 0  4.731447135329707 0 0  5.119628065610077 0 0  5.528239565804708 0 0  5.958356943167011 0 0  6.411112081475485 0 0  6.887696441559404 0 0  7.389364184530748 0 0  7.917435485335147 0 0  8.473300005202017 0 0  9.058420557070402 0 0  9.674336929103793 0 0  10.32266995225095 0 0  11.00512576896296 0 0  11.72350030646412 0 0  12.47968402994705 0 0  13.27566689579597 0 0  14.1135435963616 0 0  14.9955190732806 0 0  15.92391430904694 0 0  16.90117245730496 0 0  17.92986524844506 0 0  19.01269976086341 0 0  20.15252556282024 0 0  21.35234220269763 0 0  22.61530708683689 0 0  23.94474379751883 0 0  25.34415086349739 0 0  26.81721093579712 0 0  28.3678004819169 0 0  30 -1.111111111111111 0  30 -2.222222222222222 0  30 -3.333333333333333 0  30 -4.444444444444445 0  30 -5.555555555555555 0  30 -6.666666666666666 0  30 -7.777777777777777 0  30 -8.888888888888889 0  28.36780047917311 -10 0  26.8172109305839 -10 0  25.34415085606858 -10 0  23.94474378810899 -10 0  22.61530707566275 -10 0  21.3523421899591 -10 0  20.15252554870171 -10 0  19.01269974553473 -10 0  17.92986523206254 -10 0  16.90117244001232 -10 0  15.92391429097614 -10 0  14.99551905455266 -10 0  14.11354357708742 -10 0  13.27566687607703 -10 0  12.47968400987599 -10 0  11.72350028612546 -10 0  11.00512574843363 -10 0  10.32266993160086 -10 0  9.674336908396342 -10 0  9.058420536362949 -10 0  8.473299984546333 -10 0  7.917435464777824 -10 0  7.389364164113587 -10 0  6.887696420787165 -10 0  6.411112061446698 -10 0  5.95835692337857 -10 0  5.528239546282652 -10 0  5.119628046377237 -10 0  4.731447115907979 -10 0  4.362675229213632 -10 0  4.012341937260036 -10 0  3.679525304434552 -10 0  3.363349508456405 -10 0  3.062982500861274 -10 0  2.777633840953978 -10 0  2.506552620368097 -10 0  2.249025459771861 -10 0  2.004374658452946 -10 0  1.771956401795187 -10 0  1.551159059871345 -10 0  1.341401583153029 -10 0  1.142131970307521 -10 0  0.9528258406748833 -10 0  0.7729850256685147 -10 0  0.6021362439621285 -10 0  0.4398298947504031 -10 0  0.2856388700059078 -10 0  0.1391573960769001 -10 0  0 -9.855072463768115 0  0 -9.710144927536232 0  0 -9.565217391304348 0  0 -9.420289855072463 0  0 -9.27536231884058 0  0 -9.130434782608695 0  0 -8.985507246376812 0  0 -8.840579710144928 0  0 -8.695652173913043 0  0 -8.55072463768116 0  0 -8.405797101449275 0  0 -8.260869565217391 0  0 -8.115942028985508 0  0 -7.971014492753623 0  0 -7.826086956521739 0  0 -7.681159420289855 0  0 -7.536231884057971 0  0 -7.391304347826087 0  0 -7.246376811594203 0  0 -7.101449275362318 0  0 -6.956521739130435 0  0 -6.811594202898551 0  0 -6.666666666666667 0  0 -6.521739130434783 0  0 -6.376811594202898 0  0 -6.231884057971015 0  0 -6.086956521739131 0  0 -5.942028985507246 0  0 -5.797101449275362 0  0 -5.652173913043478 0  0 -5.507246376811594 0  0 -5.36231884057971 0  0 -5.217391304347826 0  0 -5.072463768115941 0  0 -4.927536231884058 0  0 -4.782608695652174 0  0 -4.637681159420289 0  0 -4.492753623188406 0  0 -4.347826086956522 0  0 -4.202898550724638 0  0 -4.057971014492754 0  0 -3.913043478260869 0  0 -3.768115942028985 0  0 -3.623188405797101 0  0 -3.478260869565217 0  0 -3.333333333333334 0  0 -3.188405797101449 0  0 -3.043478260869565 0  0 -2.898550724637681 0  0 -2.753623188405797 0  0 -2.608695652173912 0  0 -2.463768115942029 0  0 -2.318840579710145 0  0 -2.173913043478261 0  0 -2.028985507246377 0  0 -1.884057971014492 0  0 -1.739130434782609 0  0 -1.594202898550725 0  0 -1.44927536231884 0  0 -1.304347826086957 0  0 -1.159420289855072 0  0 -1.014492753623188 0  0 -0.8695652173913047 0  0 -0.72463768115942 0  0 -0.579710144927537 0  0 -0.4347826086956523 0  0 -0.2898550724637676 0  0 -0.1449275362318829 0  5.15859856094262 -4.976557621770688 0  2.816777084926057 -7.160262673925935 0  2.81677708460006 -2.839737326002783 0  2.227649803257325 -5.003121586636773 0  1.518662968975629 -8.46230852045241 0  1.518662969184829 -1.537691480152612 0  9.960740911025725 -5.055901393541221 0  1.491099662214591 -3.691833922963321 0  1.503675657181264 -6.345020369042368 0  5.319208041801049 -7.493850249937013 0  5.291109955459268 -2.489368743223226 0  1.096914507335763 -2.53623188405797 0  1.096914507253562 -7.463768115942029 0  1.089580194952752 -4.71277167923441 0  15.07565076110197 -5.047572991082069 0  7.501630508673601 -5.937500100385354 0  0.8894869418764504 -5.623930488933245 0  2.955144522453978 -1.440834296472408 0  2.955144521140721 -8.559165705576945 0  8.106603955004623 -2.748811534843258 0  3.662152539483591 -4.228178367024407 0  3.662181528265114 -5.771746159989156 0  0.8436558190317136 -0.8541050638451999 0  0.8436558075840921 -9.145894948342754 0  0.7854168197005933 -1.811594202898552 0  0.7894693398152999 -3.286543351392342 0  0.7854168196772591 -8.188405797101449 0  0.7854168196772591 -6.739130434782609 0  20.00078956016804 -4.999999999785771 0  0.7379120031523989 -3.977302749614766 0  6.584332478112232 -3.934875417052907 0  7.295091310194352 -7.969791332537982 0  9.811174303464586 -7.412814499648229 0  4.013376806449688 -2.206189431585293 0  4.013376806983409 -7.793810569017377 0  12.11177433894592 -2.818343737884045 0  2.591152707837148 -3.990098461753838 0  2.58990939378082 -6.025895074707176 0  25.43156400064585 -5.044446479916348 0  2.03262751726143 -2.282125834846944 0  2.032627517335952 -7.717874165160392 0  12.51865094522923 -6.491408052923457 0  0.598175343983641 -6.156971652625402 0  2.126700074935224 -0.8767654465386991 0  2.126700059112423 -9.123234559633019 0  6.617961838548696 -1.617756429129908 0  0.5903949564549755 -4.980060355019413 0  1.676697585305984 -5.547101897225158 0  4.773518305133987 -3.729331162566817 0  4.77931803486508 -6.231222307502165 0  4.878549698409591 -8.72048903376362 0  4.852580875634024 -1.222215410052823 0  0.5487847095754042 -2.675169258708207 0  0.545113423825768 -7.32369553390529 0  1.78738026998851 -4.400451872599477 0  1.68244194111824 -3.010100184333533 0  1.683984276238402 -7.018293626028473 0  9.998503440677371 -2.00585287985007 0  3.693061162502273 -3.243678395563028 0  3.694987482168253 -6.757603268814477 0  6.081763036485869 -5.83414381546261 0  0.5196640460586313 -1.350633211792632 0  0.5196640458460706 -8.649366789040087 0  3.84593363904758 -0.9906418103762418 0  3.845933620847308 -9.009358200471317 0  17.41551885287501 -3.057748733689079 0  17.30725517812527 -7.002961443761516 0  8.117698464370697 -4.451550942597151 0  0.4918476668493152 -0.4789811193757592 0  0.4918476560347713 -9.521018882514893 0  1.463770869328428 -0.6252343353791154 0  1.463770854281917 -9.374765668872765 0  0.5034132782032188 -4.464280853772128 0  3.138906271796685 -4.99999841599503 0  14.61209972381335 -2.388610981020637 0  6.208601124947327 -8.776231214192325 0  14.74910972998159 -7.542186851303819 0  2.243794246335625 -1.632184311040998 0  2.243794245689214 -8.367815689183566 0  0.4590235278399923 -5.431413993025926 0  0.4971508861448406 -2.209632053221267 0  0.4971508861368665 -7.790367946777407 0  0.4644363683211541 -3.560571347760519 0  6.478811279411406 -7.007392971062433 0  1.238895267772762 -4.173677632458826 0  1.293241773632479 -2.02256720952064 0  1.293241773542714 -7.977432790434841 0  0.4324740478030531 -0.942028985507247 0  0.4324740423701829 -9.057971014492754 0  2.117396640811705 -3.472968170680347 0  2.107095929630507 -6.531506384346077 0  8.087741545730886 -1.392783601483453 0  1.028911946384717 -1.352376108341404 0  1.028911946221715 -8.647623891551962 0  4.05691976296832 -4.991522392209158 0  11.51826881314265 -8.065248940008736 0  1.618560396201739 -4.958056164503666 0  2.701984523487646 -2.141781914603403 0  2.70198452396172 -7.858218085853512 0  2.843615645746219 -9.289121726447632 0  2.843615661334342 -0.7108782798429658 0  8.678774612240533 -8.488146490452822 0  6.487906449371135 -2.667543558824978 0  8.369190916679937 -7.129867754908394 0  11.80978191929258 -4.655775487536958 0  0.3792065166453504 -3.113833531412848 0  0.4134714637263563 -6.58827691137208 0  9.551050695080825 -3.49648183875815 0  1.083867845277057 -6.036251777836495 0  0.3756430921870901 -1.80381664325008 0  0.3756430921689482 -8.196183356748573 0  3.113073783220456 -3.503408140759125 0  3.113391383189963 -6.496678880796299 0  22.62850736315072 -3.277987336300344 0  22.59385352108348 -6.800312122582239 0  0.3777114402537816 -4.137047872695438 0  0.9196816123347897 -0.4281025456111269 0  0.9196815944880363 -9.571897460530383 0  0.4052043328723194 -5.827814332459883 0  8.865857694874787 -5.767686953139113 0  1.200388325130726 -5.182186034620629 0  5.65297436943758 -4.325500846767599 0  1.200079167961391 -3.009849046583253 0  1.20883344838 -7.021823297793294 0  1.057642414577487 -3.660996704809145 0  10.88812987788297 -6.333458225047037 0  4.493502926606794 -2.839780197438185 0  4.485862892033458 -7.147606077919463 0  0.3631651408878085 -7.003529808558233 0  1.946748828463205 -6.049056369468467 0  6.918750162798794 -4.993796052442676 0  3.351203216022585 -1.980935554775394 0  3.351203216441711 -8.019064445907297 0  2.281892243515294 -2.856654416292082 0  2.281892243715877 -7.143345583598931 0  5.811143619672087 -0.9953286820321026 0  2.695713766833098 -4.565354125099452 0  2.698172168139827 -5.435483248292925 0  19.86166219288896 -2.493475492328429 0  19.83739102036415 -7.594404063416508
[...]
<PointData  Vectors="displacement"> 
<DataArray  type="Float64"  Name="displacement"  NumberOfComponents="3" format="ascii">1.3039215045566466e-01 6.4364793437746246e-02 0.0000000000000000e+00  2.1276122561935552e-07 1.5494796224513652e-04 0.0000000000000000e+00  -3.0898479572392675e-07 -1.5855461650951635e-07 0.0000000000000000e+00  2.0144915519723557e-07 -1.9363900928475282e-07 0.0000000000000000e+00  6.7915313651090770e-02 1.1257897519737626e-02 0.0000000000000000e+00  3.8397454907449557e-02 3.7701558429008609e-03 0.0000000000000000e+00  2.6369797630602036e-02 1.3024236040884627e-03 0.0000000000000000e+00  1.8660907311006027e-02 6.7248603856576356e-04 0.0000000000000000e+00  1.4872976604835853e-02 8.9311527196110348e-05 0.0000000000000000e+00  1.1915101129867071e-02 -1.6307936625461954e-04 0.0000000000000000e+00  1.0000448290376746e-02 -3.0592463035148933e-04 0.0000000000000000e+00  8.5214304174086406e-03 -4.3059522267734209e-04 0.0000000000000000e+00  7.2963250294429925e-03 -4.7908287324278898e-04 0.0000000000000000e+00  6.3599883145113185e-03 -5.3500681513702860e-04 0.0000000000000000e+00  5.5485580719485212e-03 -5.4889513832035710e-04 0.0000000000000000e+00  4.9474056127112595e-03 -5.3880934303959479e-04 0.0000000000000000e+00  4.3771088277710143e-03 -5.5639030879785049e-04 0.0000000000000000e+00  3.9278192968076617e-03 -5.6058454933062389e-04 0.0000000000000000e+00  3.4951770105496206e-03 -5.4908406361744858e-04 0.0000000000000000e+00  3.1441437858762754e-03 -5.3337393247013796e-04 0.0000000000000000e+00  2.8276236354866612e-03 -5.1252548902414258e-04 0.0000000000000000e+00  2.5506084762503111e-03 -4.8883625849369529e-04 0.0000000000000000e+00  2.3083284625531613e-03 -4.6633949968521684e-04 0.0000000000000000e+00  2.0837698846739409e-03 -4.4074867006504000e-04 0.0000000000000000e+00  1.8772060617724047e-03 -4.0563846761455845e-04 0.0000000000000000e+00  1.6976842035993098e-03 -3.6660648600500540e-04 0.0000000000000000e+00  1.5438637408119206e-03 -3.3148132504191456e-04 0.0000000000000000e+00  1.3934501973012431e-03 -2.8948348576604891e-04 0.0000000000000000e+00  1.2648420973334362e-03 -2.4850693965677276e-04 0.0000000000000000e+00  1.1420712680389154e-03 -2.0359921585060876e-04 0.0000000000000000e+00  1.0334793151257190e-03 -1.5710311154704121e-04 0.0000000000000000e+00  9.3885316073417067e-04 -1.0965538188265296e-04 0.0000000000000000e+00  8.5934013569004665e-04 -6.6103743788795813e-05 0.0000000000000000e+00  7.8150242988808010e-04 -2.1053674968433196e-05 0.0000000000000000e+00  7.1462719087840858e-04 2.0997677175704267e-05 0.0000000000000000e+00  6.5608985193789393e-04 6.1150067689031459e-05 0.0000000000000000e+00  6.0725247890888268e-04 9.5953691114823405e-05 0.0000000000000000e+00  5.6110368132650495e-04 1.2752294716285222e-04 0.0000000000000000e+00  5.2196873218270502e-04 1.5288926299783403e-04 0.0000000000000000e+00  4.8274495327441878e-04 1.7473098040689640e-04 0.0000000000000000e+00  4.5026556585691914e-04 1.8946689411689899e-04 0.0000000000000000e+00  4.1567599360199415e-04 2.0032352004580121e-04 0.0000000000000000e+00  3.8441659005795101e-04 2.0525614620898656e-04 0.0000000000000000e+00  3.5086184236783667e-04 2.0661215621890509e-04 0.0000000000000000e+00  3.1954227687985430e-04 2.0360831200572034e-04 0.0000000000000000e+00  2.8390744895344947e-04 1.9808925743138611e-04 0.0000000000000000e+00  2.4857378951656951e-04 1.9087962540773057e-04 0.0000000000000000e+00  2.1084166926136960e-04 1.8282923122737478e-04 0.0000000000000000e+00  1.7479430246665215e-04 1.7418050496588884e-04 0.0000000000000000e+00  1.3356511929314501e-04 1.6549167269955741e-04 0.0000000000000000e+00  8.9616568070153326e-05 1.5905618805653389e-04 0.0000000000000000e+00  4.4626396449152989e-05 1.5552846175909428e-04 0.0000000000000000e+00  5.1238707152828827e-07 1.2962457198033625e-04 0.0000000000000000e+00  -1.3490377951335543e-07 1.0240936137903889e-04 0.0000000000000000e+00  -6.2673189010419993e-08 7.7327224342047489e-05 0.0000000000000000e+00  1.3986310981706634e-07 5.5046689776617119e-05 0.0000000000000000e+00  -1.8254625287327595e-07 3.5638178798086891e-05 0.0000000000000000e+00  1.4923724042439831e-07 1.9843885282433735e-05 0.0000000000000000e+00  -1.1256214496177532e-07 8.2240886825219917e-06 0.0000000000000000e+00  -1.0898791926361795e-08 1.2870322620712961e-06 0.0000000000000000e+00  -1.6103073716122262e-07 -6.9568492430806833e-07 0.0000000000000000e+00  -1.8174270368818342e-09 -7.6856124789252006e-07 0.0000000000000000e+00  6.1348502565976003e-07 -8.5359924712474433e-07 0.0000000000000000e+00  8.6909864294749915e-08 -2.7110418610017221e-07 0.0000000000000000e+00  1.3781977832683938e-07 -4.3707310540562679e-07 0.0000000000000000e+00  7.0584916812815231e-07 -6.1500697398308680e-07 0.0000000000000000e+00  2.3489669041404723e-07 -8.3241327820497049e-07 0.0000000000000000e+00  1.1509541208703476e-06 -7.7883436810770088e-07 0.0000000000000000e+00  3.6171410250981381e-07 -4.9222761883354198e-07 0.0000000000000000e+00  1.1294115406917895e-06 -5.6522614446231109e-07 0.0000000000000000e+00  5.9659497951053347e-07 -2.2592989238226916e-07 0.0000000000000000e+00  8.5297892034641838e-07 -2.8608441482194484e-07 0.0000000000000000e+00  8.7443985694330819e-07 5.8678725294918622e-08 0.0000000000000000e+00  1.0198365513349413e-06 6.1592542695478974e-08 0.0000000000000000e+00  2.9896741546869655e-07 1.3592540703246467e-07 0.0000000000000000e+00  6.3299033086709766e-07 4.6916104923674983e-07 0.0000000000000000e+00  -2.7145897129136255e-08 1.3824996455294495e-07 0.0000000000000000e+00  9.3141145311511022e-07 1.2329788920588768e-06 0.0000000000000000e+00  2.9896383519972911e-07 8.6360986273650051e-07 0.0000000000000000e+00  6.5641189702954455e-07 8.0065293075523178e-07 0.0000000000000000e+00  -5.7198842087134672e-07 7.8077506816509052e-07 0.0000000000000000e+00  1.0875900915823673e-07 1.1926277080482037e-06 0.0000000000000000e+00  -7.6992912336220961e-07 1.6283096125059079e-06 0.0000000000000000e+00  -9.1701000206642828e-07 9.9826664286101487e-07 0.0000000000000000e+00  -8.9807995311819682e-07 4.8589987485302681e-07 0.0000000000000000e+00  -2.5295377287146812e-06 1.2386963128608375e-06 0.0000000000000000e+00  -9.9012435959086118e-07 5.6984880502090831e-07 0.0000000000000000e+00  -1.7540254606498503e-06 6.7506350612997866e-07 0.0000000000000000e+00  -1.0971631894937074e-06 4.1649303786044386e-07 0.0000000000000000e+00  -2.6323788519401164e-06 6.5718434723398809e-07 0.0000000000000000e+00  -2.5305791712176483e-07 -2.4208046185711966e-08 0.0000000000000000e+00  -1.0802308157929532e-06 4.2864426053062560e-08 0.0000000000000000e+00  -8.9815178877540059e-07 1.7573674958872446e-08 0.0000000000000000e+00  -6.5178864432385462e-07 -5.5322714223793860e-08 0.0000000000000000e+00  -1.4750406125547899e-06 -2.9812036527852574e-07 0.0000000000000000e+00  -3.5216086351297544e-07 -1.1983768554415828e-07 0.0000000000000000e+00  -1.2100652059923600e-06 -4.1416141448650464e-07 0.0000000000000000e+00  -1.7135887576154185e-07 -1.0064707006951307e-07 0.0000000000000000e+00  -2.1244030901419074e-07 -3.2579336020830353e-07 0.0000000000000000e+00  -5.2820700074174417e-07 -2.8693409581095138e-07 0.0000000000000000e+00  -2.8810212685086342e-07 -3.0602460983014711e-07 0.0000000000000000e+00  -7.2297405280437761e-08 -1.0891184383734280e-07 0.0000000000000000e+00  -1.6963731100806483e-07 -1.6240061552657884e-07 0.0000000000000000e+00  -1.5520467979402967e-08 -2.0681816740851601e-07 0.0000000000000000e+00  5.3556950030472216e-10 -1.1059390207246189e-07 0.0000000000000000e+00  -2.4421017817315778e-07 -1.9393244930484158e-07 0.0000000000000000e+00  5.7626876612676954e-08 -1.9378455073292254e-07 0.0000000000000000e+00  -5.8793181696036186e-08 -6.4332475389030162e-08 0.0000000000000000e+00  -4.8826101892657476e-08 5.5961769652460140e-06 0.0000000000000000e+00  7.2161932762032780e-08 1.4209070261182523e-05 0.0000000000000000e+00  -8.9986436462830108e-08 2.5272674183353483e-05 0.0000000000000000e+00  8.3016163524566021e-09 3.8833495955727589e-05 0.0000000000000000e+00  -4.2167664998194232e-08 5.4404896066451849e-05 0.0000000000000000e+00  -3.3597471815299971e-08 7.2161224048742994e-05 0.0000000000000000e+00  7.6348364789814019e-08 9.1720962718528889e-05 0.0000000000000000e+00  -7.1002362501352031e-08 1.1308844099730745e-04 0.0000000000000000e+00  6.4806517758767019e-08 1.3616950613880147e-04 0.0000000000000000e+00  -8.5874157370142829e-08 1.6082764799019167e-04 0.0000000000000000e+00  5.2816064521207353e-08 1.8699990758964529e-04 0.0000000000000000e+00  -3.3996938166853265e-08 2.1467106790084837e-04 0.0000000000000000e+00  3.8220493159203875e-08 2.4378047745753076e-04 0.0000000000000000e+00  -7.0769053446570312e-08 2.7425958260834574e-04 0.0000000000000000e+00  4.3545579608749496e-08 3.0614512726183276e-04 0.0000000000000000e+00  -5.2354165899954126e-08 3.3938136995141475e-04 0.0000000000000000e+00  -3.3718616292115170e-08 3.7405666688922207e-04 0.0000000000000000e+00  1.6772685148530976e-08 4.0997614189192491e-04 0.0000000000000000e+00  4.0199864424078876e-08 4.4742657579225476e-04 0.0000000000000000e+00  -1.9345225285748253e-08 4.8622909948792720e-04 0.0000000000000000e+00  2.8766801024571014e-08 5.2651275077949882e-04 0.0000000000000000e+00  -7.5755571024894800e-08 5.6826353420746652e-04 0.0000000000000000e+00  2.1106513604933420e-08 6.1173296016513526e-04 0.0000000000000000e+00  9.0657673043566761e-09 6.5649696338324407e-04 0.0000000000000000e+00  -1.2274240308226958e-08 7.0341195007987873e-04 0.0000000000000000e+00  -9.1256624697473022e-08 7.5211641327378883e-04 0.0000000000000000e+00  -4.4297309008061794e-08 8.0253672508394153e-04 0.0000000000000000e+00  -4.5455622928752111e-08 8.5478019759220461e-04 0.0000000000000000e+00  6.3117638422012375e-08 9.0943130621328199e-04 0.0000000000000000e+00  -1.1508587806514695e-07 9.6643598590439694e-04 0.0000000000000000e+00  3.8642930216425066e-08 1.0260045350492144e-03 0.0000000000000000e+00  -1.2729684154533202e-07 1.0881892189386186e-03 0.0000000000000000e+00  4.7101133156778406e-08 1.1534365661553839e-03 0.0000000000000000e+00  -9.9342088944597741e-08 1.2215325676383664e-03 0.0000000000000000e+00  -5.1842833300588103e-08 1.2927462307182323e-03 0.0000000000000000e+00  -6.7126720782974869e-08 1.3690235894631565e-03 0.0000000000000000e+00  -1.2455080393293872e-08 1.4473966755538545e-03 0.0000000000000000e+00  1.5314903046399922e-07 1.5324100483411368e-03 0.0000000000000000e+00  -3.8043453981667574e-07 1.6210721905537725e-03 0.0000000000000000e+00  2.0287377734855600e-07 1.7145814072422726e-03 0.0000000000000000e+00  -2.1837854147579813e-07 1.8146999820867710e-03 0.0000000000000000e+00  1.4754771703317923e-07 1.9217451444525180e-03 0.0000000000000000e+00  -2.2228040667284525e-07 2.0359437996305728e-03 0.0000000000000000e+00  -1.5154430928304525e-07 2.1575419634164788e-03 0.0000000000000000e+00  -5.3304786561582001e-08 2.2906097587915390e-03 0.0000000000000000e+00  5.5690212196279967e-07 2.4319704351278520e-03 0.0000000000000000e+00  -3.8149331748843051e-07 2.5857972840674474e-03 0.0000000000000000e+00  8.9894579262058484e-09 2.7537043322082020e-03 0.0000000000000000e+00  1.6871013087153650e-07 2.9378185633279715e-03 0.0000000000000000e+00  -1.5663102027432341e-07 3.1369129938865845e-03 0.0000000000000000e+00  -1.8216973295382189e-07 3.3541219885879834e-03 0.0000000000000000e+00  -9.6762040445268211e-07 3.6039932419821841e-03 0.0000000000000000e+00  9.6501504846890879e-07 3.8758937343095524e-03 0.0000000000000000e+00  -1.4145613361761514e-06 4.1806886945036283e-03 0.0000000000000000e+00  1.8426736315654979e-06 4.5299512913804831e-03 0.0000000000000000e+00  -2.5079433400438236e-06 4.9254198317050706e-03 0.0000000000000000e+00  6.7314452829361753e-07 5.3848794112704330e-03 0.0000000000000000e+00  -4.3472121892091864e-06 5.9179401901708808e-03 0.0000000000000000e+00  1.6518151866396476e-06 6.5710620945977523e-03 0.0000000000000000e+00  -1.2111644638763946e-05 7.3227691260762144e-03 0.0000000000000000e+00  3.2084396664208176e-06 8.2636305454574337e-03 0.0000000000000000e+00  -1.7837700884084415e-05 9.3995880974125853e-03 0.0000000000000000e+00  -8.4520855573776953e-06 1.0939973919056243e-02 0.0000000000000000e+00  -2.6032394474903234e-05 1.3122601216547123e-02 0.0000000000000000e+00  -8.9473407575273528e-05 1.5879997840667695e-02 0.0000000000000000e+00  -1.0891386937362060e-04 2.0266772189968786e-02 0.0000000000000000e+00  -1.0508711308485374e-04 2.8961897287583062e-02 0.0000000000000000e+00  9.7974803682310136e-05 4.2382179949291596e-02 0.0000000000000000e+00  -8.8894828982260203e-05 -5.1276852839237991e-04 0.0000000000000000e+00  -4.5430115232532775e-04 1.2429297098267298e-04 0.0000000000000000e+00  -4.0390460532648256e-05 -6.2853557980640368e-04 0.0000000000000000e+00  -5.9769645664836332e-04 4.0407298481282575e-04 0.0000000000000000e+00  -2.1689167252023867e-04 1.3482658028168381e-04 0.0000000000000000e+00  1.4128017743007262e-04 -5.1036771736726993e-04 0.0000000000000000e+00  3.7542773069917571e-04 -2.2519837496365138e-04 0.0000000000000000e+00  -7.3281596445098722e-04 1.0335334064418811e-03 0.0000000000000000e+00  -3.9309506613435915e-04 5.0878082050049027e-04 0.0000000000000000e+00  -2.9893870528663812e-04 -1.4258499245780218e-04 0.0000000000000000e+00  9.3281543894628051e-04 -9.3014512436643475e-04 0.0000000000000000e+00  -9.8011691911813951e-04 1.7382886661539479e-03 0.0000000000000000e+00  -2.3163169451999402e-04 3.3728354750606090e-04 0.0000000000000000e+00  -4.7459874886998063e-04 1.0952727659741407e-03 0.0000000000000000e+00  3.4702525336541057e-04 2.9243416283433595e-05 0.0000000000000000e+00  8.5559626482937926e-05 -3.4242248372894047e-04 0.0000000000000000e+00  -3.0991152242968730e-04 8.5823163315054934e-04 0.0000000000000000e+00  1.8221904586194979e-03 -1.4575069935038524e-03 0.0000000000000000e+00  -3.0727927784866604e-04 4.4732468924063436e-05 0.0000000000000000e+00  7.6241773198573281e-04 -4.5942364740837711e-04 0.0000000000000000e+00  -2.7098597254215408e-04 -4.2456006379886760e-04 0.0000000000000000e+00  -4.6739026726099614e-04 -1.1220454100019379e-04 0.0000000000000000e+00  5.3703018101707879e-04 -1.8482460383762610e-04 0.0000000000000000e+00  -8.3191450533913626e-05 6.5064868918429910e-05 0.0000000000000000e+00  -1.2884669266238207e-03 2.7526237738217376e-03 0.0000000000000000e+00  -6.4134192584819371e-04 1.9819204179834732e-03 0.0000000000000000e+00  -1.3526050432651057e-04 2.1328047204115881e-04 0.0000000000000000e+00  -2.0708601120850942e-04 5.4267209592214405e-04 0.0000000000000000e+00  2.1836867081440059e-04 6.4757306684462714e-05 0.0000000000000000e+00  -4.5539821238720616e-04 1.6217533107822091e-03 0.0000000000000000e+00  4.2398917518973901e-04 -6.3970548320311539e-04 0.0000000000000000e+00  -9.3908492342779850e-05 -1.1955606862729449e-04 0.0000000000000000e+00  1.2743621125203727e-04 -1.0853189230177801e-04 0.0000000000000000e+00  1.0319034162215989e-03 -1.1512571622306791e-03 0.0000000000000000e+00  -3.8810391872594818e-04 -3.0717021923866088e-05 0.0000000000000000e+00  5.5500309642357950e-04 -3.5443804202400900e-05 0.0000000000000000e+00  -5.5131745893897987e-04 5.5742484632445180e-05 0.0000000000000000e+00  -5.3026777569326446e-04 2.2519399334331610e-04 0.0000000000000000e+00  8.9740851809013344e-05 4.9503614535204303e-05 0.0000000000000000e+00  -2.1569983789514511e-04 -3.3517929727417686e-04 0.0000000000000000e+00  -3.4757200066100574e-04 1.9174234212332848e-04 0.0000000000000000e+00  2.8166175586660368e-04 -4.9494457578635692e-05 0.0000000000000000e+00  -1.8663809004995809e-04 7.3787009972970199e-04 0.0000000000000000e+00  3.2009768411649596e-03 -1.8093295129990590e-03 0.0000000000000000e+00  -1.8322614194277975e-04 4.3179017024152468e-05 0.0000000000000000e+00  1.1712718502515675e-03 -6.1692997982565757e-04 0.0000000000000000e+00  -2.6058101091430892e-04 1.1858056968214023e-03 0.0000000000000000e+00  -5.0144850282419281e-04 6.1116491468997814e-04 0.0000000000000000e+00  2.2300247633863193e-04 -7.6889821636850412e-04 0.0000000000000000e+00  -3.3404760746041234e-04 -2.5392643236782331e-04 0.0000000000000000e+00  -2.4814603646057775e-04 -3.2888129797807418e-05 0.0000000000000000e+00  1.7071708082450759e-03 -9.1209372119946711e-04 0.0000000000000000e+00  -6.8068138535964809e-04 2.7954860296713338e-03 0.0000000000000000e+00  -1.2522721139013112e-04 4.1180339441447881e-04 0.0000000000000000e+00  -6.4829197624965919e-04 7.1015972611622815e-04 0.0000000000000000e+00  -7.7540692329091537e-04 7.1686253741199638e-04 0.0000000000000000e+00  -3.6571404856725487e-04 3.4420510438320834e-04 0.0000000000000000e+00  7.2996924160919372e-04 -1.7192964885189525e-04 0.0000000000000000e+00  1.3776564273571492e-04 -7.8345442952259755e-04 0.0000000000000000e+00  -4.6231693928408730e-04 -3.5692578635031244e-05 0.0000000000000000e+00  -8.6970884742696954e-05 -3.9363603447789336e-04 0.0000000000000000e+00  -1.6324883984886762e-03 4.4434784399247657e-03 0.0000000000000000e+00  -7.3863305078459410e-05 1.3959693451164336e-04 0.0000000000000000e+00  2.2327623587915287e-03 -1.1135417088068362e-03 0.0000000000000000e+00  -2.3825264384533991e-04 1.8206978479365183e-06 0.0000000000000000e+00  3.4258821414568324e-04 1.1319745612065658e-04 0.0000000000000000e+00  2.0174111902976241e-04 2.0125523513534258e-05 0.0000000000000000e+00  4.0221812146583292e-04 -4.3087505449761269e-04 0.0000000000000000e+00  1.9333645158968800e-03 -1.1303123794873941e-05 0.0000000000000000e+00  -3.0492083108139618e-05 2.8487098908049652e-05 0.0000000000000000e+00  4.6053385847083482e-03 -2.2297290705978658e-03 0.0000000000000000e+00  -1.0566353534481356e-04 3.4684285851338987e-05 0.0000000000000000e+00  -2.6932677397744796e-04 1.4645862390852376e-03 0.0000000000000000e+00  -5.1094452698017233e-04 -4.2221977074082193e-05 0.0000000000000000e+00  4.5951467544138116e-04 9.3018029684355244e-05 0.0000000000000000e+00  -1.5797881198461491e-04 -4.9438611288049303e-05 0.0000000000000000e+00  2.0324543177787006e-04 -2.0605865745698808e-06 0.0000000000000000e+00  1.0406052117931514e-03 -1.2863268303148195e-03 0.0000000000000000e+00  -2.9686020853427348e-04 1.0205893715617220e-04 0.0000000000000000e+00  -1.7819674820081639e-04 1.0210001146067800e-03 0.0000000000000000e+00  -8.5339357879256155e-04 3.4547446084498821e-03 0.0000000000000000e+00  -9.9955784400687905e-05 3.0514259104345208e-04 0.0000000000000000e+00  -3.6767514310177628e-04 2.0700319895625516e-03 0.0000000000000000e+00  -1.4973810424979758e-04 -2.3097552956261543e-04 0.0000000000000000e+00  -6.0562414263963396e-04 1.1734248931974949e-03 0.0000000000000000e+00  -8.7637345352466049e-04 9.5134730114950633e-04 0.0000000000000000e+00  -2.2890229072570188e-04 2.2307795729741454e-04 0.0000000000000000e+00  -2.0910344914594672e-03 5.4456827256064624e-03 0.0000000000000000e+00  -4.7120367743326109e-05 8.0017608402606659e-05 0.0000000000000000e+00  -6.4694022196435167e-04 3.1658965478518206e-04 0.0000000000000000e+00  -4.6202391533322712e-04 3.2629383728493790e-04 0.0000000000000000e+00  9.8329011151667540e-04 -3.4773572535330488e-04 0.0000000000000000e+00  -7.0676428418007696e-04 8.1872722617031880e-04 0.0000000000000000e+00  -1.4164113476157901e-04 1.2793095355403839e-04 0.0000000000000000e+00  -3.2714059045570426e-04 -3.4491463453247169e-04 0.0000000000000000e+00  1.4571671714867147e-04 -3.8833476940149652e-05 0.0000000000000000e+00  -5.6044488412528265e-04 7.4434182108967415e-04 0.0000000000000000e+00  5.6743225223289796e-04 -1.0513167230112369e-03 0.0000000000000000e+00  -3.8368413906509052e-04 1.0198372021046710e-04 0.0000000000000000e+00  -1.7850598648490545e-04 1.9320583274360412e-05 0.0000000000000000e+00  3.1756828465118645e-03 -1.3350712660341478e-03 0.0000000000000000e+00  4.1707498568324760e-06 -6.1523200597295692e-05 0.0000000000000000e+00  8.4930819006198775e-04 -7.2016895521700422e-04 0.0000000000000000e+00  4.6193156296508230e-05 -1.7940007787212712e-04 0.0000000000000000e+00  4.2973689316966475e-04 -9.478104