<?xml version="1.0"?>
<VTKFile type="UnstructuredGrid"  version="0.1"  >
<UnstructuredGrid>
<Piece  NumberOfPoints="1121" NumberOfCells="2112">
<Points>
<DataArray  type="Float64"  NumberOfComponents="3"  format="ascii">0 0 0  0.5 0 0  0.5 -0.22 0  0 -0.22 0  0.0125 0 0  0.025 0 0  0.03750000000000001 0 0  0.05 0 0  0.0625 0 0  0.07500000000000001 0 0  0.08750000000000001 0 0  0.1 0 0  0.1125 0 0  0.125 0 0  0.1375 0 0  0.15 0 0  0.1625 0 0  0.175 0 0  0.1875 0 0  0.2 0 0  0.2125 0 0  0.225 0 0  0.2375 0 0  0.25 0 0  0.2625 0 0  0.275 0 0  0.2875 0 0  0.3 0 0  0.3124999999999999 0 0  0.325 0 0  0.3375 0 0  0.35 0 0  0.3625 0 0  0.375 0 0  0.3875 0 0  0.4 0 0  0.4125 0 0  0.425 0 0  0.4375 0 0  0.45 0 0  0.4625 0 0  0.475 0 0  0.4875 0 0  0.5 -0.00916666666666667 0  0.5 -0.01833333333333334 0  0.5 -0.02750000000000001 0  0.5 -0.03666666666666668 0  0.5 -0.04583333333333335 0  0.5 -0.05500000000000002 0  0.5 -0.06416666666666669 0  0.5 -0.07333333333333336 0  0.5 -0.08250000000000002 0  0.5 -0.09166666666666669 0  0.5 -0.1008333333333334 0  0.5 -0.11 0  0.5 -0.1191666666666667 0  0.5 -0.1283333333333334 0  0.5 -0.1375 0  0.5 -0.1466666666666667 0  0.5 -0.1558333333333333 0  0.5 -0.165 0  0.5 -0.1741666666666667 0  0.5 -0.1833333333333333 0  0.5 -0.1925 0  0.5 -0.2016666666666667 0  0.5 -0.2108333333333333 0  0.4875 -0.22 0  0.475 -0.22 0  0.4625 -0.22 0  0.45 -0.22 0  0.4375 -0.22 0  0.425 -0.22 0  0.4125 -0.22 0  0.4 -0.22 0  0.3875 -0.22 0  0.375 -0.22 0  0.3625 -0.22 0  0.35 -0.22 0  0.3375 -0.22 0  0.325 -0.22 0  0.3125 -0.22 0  0.3 -0.22 0  0.2875 -0.22 0  0.275 -0.22 0  0.2625 -0.22 0  0.25 -0.22 0  0.2375 -0.22 0  0.225 -0.22 0  0.2125 -0.22 0  0.2 -0.22 0  0.1875000000000001 -0.22 0  0.175 -0.22 0  0.1625 -0.22 0  0.15 -0.22 0  0.1375 -0.22 0  0.125 -0.22 0  0.1125 -0.22 0  0.09999999999999998 -0.22 0  0.08749999999999997 -0.22 0  0.07499999999999996 -0.22 0  0.0625 -0.22 0  0.04999999999999999 -0.22 0  0.03750000000000003 -0.22 0  0.02500000000000002 -0.22 0  0.01250000000000001 -0.22 0  0 -0.2108333333333333 0  0 -0.2016666666666667 0  0 -0.1925 0  0 -0.1833333333333333 0  0 -0.1741666666666666 0  0 -0.165 0  0 -0.1558333333333333 0  0 -0.1466666666666666 0  0 -0.1375 0  0 -0.1283333333333333 0  0 -0.1191666666666666 0  0 -0.11 0  0 -0.1008333333333333 0  0 -0.09166666666666665 0  0 -0.08249999999999999 0  0 -0.07333333333333333 0  0 -0.06416666666666668 0  0 -0.05499999999999999 0  0 -0.04583333333333331 0  0 -0.03666666666666665 0  0 -0.0275 0  0 -0.01833333333333334 0  0 -0.009166666666666684 0  0.1054583333333335 -0.1054166666666667 0  0.3942676334017064 -0.1137728325038039 0  0.2847879184121186 -0.1095588156798053 0  0.1945032948335413 -0.1282408799476467 0  0.06153506715537374 -0.1512727221728088 0  0.4399056412223469 -0.06797859302281792 0  0.05788181883779472 -0.06001948808334377 0  0.4421098014386607 -0.1599837267347342 0  0.3413511741034609 -0.06957267157055583 0  0.2288650014326337 -0.07000139022125416 0  0.3374198095657364 -0.153292781564552 0  0.1625149941501948 -0.06635759941053934 0  0.1410798075665959 -0.1547982873744018 0  0.2480541718311375 -0.1584999930406966 0  0.4521112869309225 -0.1144576824167908 0  0.04769384748510372 -0.1054790589784799 0  0.2872553124970689 -0.0549183148201307 0  0.3883603170589741 -0.1667590078701163 0  0.1113816725357426 -0.05349980002187416 0  0.388663619148569 -0.05083099728992514 0  0.2924675002385118 -0.1733355444551434 0  0.03957129721715399 -0.1820306497250263 0  0.463886478278041 -0.04123097885421483 0  0.1819898664669143 -0.1745112248447572 0  0.1501955722423063 -0.1126410264576243 0  0.2381168692527681 -0.1138631020717532 0  0.09896708868237117 -0.1743617443889283 0  0.351521105495953 -0.110482033201648 0  0.1944214316144394 -0.04364751139729321 0  0.4676096572335854 -0.17875 0  0.0323903427664145 -0.04125 0  0.03139627442974444 -0.07791666666666666 0  0.4686037255702555 -0.1420833333333333 0  0.03146427625974824 -0.1353922207127977 0  0.4687538427589449 -0.08499498352404596 0  0.1945393885069078 -0.08884182758867265 0  0.2525813348104176 -0.03744007417230172 0  0.3217010222371471 -0.03764154129720884 0  0.4222469886470394 -0.03586904090069724 0  0.09663319060065351 -0.1401271138728219 0  0.2193792666828137 -0.183158231426584 0  0.3560154827479793 -0.1838943099753877 0  0.1434582748922029 -0.03603411582704523 0  0.3765333185963097 -0.08241017292348579 0  0.07538111331820632 -0.08899587837746269 0  0.423855991190923 -0.1306886077643884 0  0.3185210010305527 -0.09753607818954631 0  0.3569762884570115 -0.03650734503769727 0  0.4254213410091923 -0.0987078979590463 0  0.2610082403268991 -0.0817800662321487 0  0.0828105113527246 -0.0341734786714956 0  0.4171399376253134 -0.185803221952863 0  0.3057870365127394 -0.1382026892003179 0  0.12895829204953 -0.08335230948371621 0  0.06875298785225953 -0.187362820013113 0  0.3717868049890677 -0.1386048615715364 0  0.321448533906611 -0.1855116827647124 0  0.26298072168791 -0.1839420817131204 0  0.07484000163200957 -0.1198633334100699 0  0.1547686158654376 -0.1863750548878711 0  0.216059367308573 -0.1515159536473182 0  0.2699691944498949 -0.1417527519042215 0  0.1656185503016955 -0.1403556565429203 0  0.4083071195762781 -0.07378364169239227 0  0.1267131755037155 -0.1278660972450704 0  0.4735015828166597 -0.0640900788079139 0  0.02554956908977171 -0.1556408100003981 0  0.4768150825846236 -0.1145833333333333 0  0.02318491741537634 -0.1054166666666667 0  0.223953700752457 -0.0304451531933032 0  0.1244872804067221 -0.1907232817427361 0  0.4438735214118281 -0.1930008132865749 0  0.05574102313663398 -0.02865323925202035 0  0.4137204188713657 -0.1553454939163003 0  0.08893893095617791 -0.06579816339826482 0  0.1717694871603352 -0.02800139159048265 0  0.3128492556460914 -0.06943040619515532 0  0.2797695783739821 -0.02590934499649085 0  0.02258333333333329 -0.1970833333333333 0  0.4762493762769904 -0.02160603458451191 0  0.4793770768812318 -0.1979934752448725 0  0.02062142143957255 -0.02200567641944876 0  0.1164030865048185 -0.02740272745133866 0  0.3830675041448486 -0.1925667518381948 0  0.4791226873505327 -0.1610342148373401 0  0.02087731264946724 -0.05896578516265992 0  0.3274724693986852 -0.1225305077389053 0  0.3972801610854721 -0.02625449066011495 0  0.2900140160514686 -0.08365001034985962 0  0.1709547781797311 -0.09465470820062212 0  0.2138438311308281 -0.1099941211103435 0  0.4450205721789285 -0.02492933314930469 0  0.05420467580227878 -0.08349945672846135 0  0.4461329107542346 -0.1367113815538408 0  0.3659666316461785 -0.05978339436610505 0  0.44602790301578 -0.09307279226297782 0  0.1051970245947556 -0.08027435556391044 0  0.05333928713341426 -0.1272409570081178 0  0.3959065276465774 -0.1392957050603055 0  0.1954280839215327 -0.1956301054107469 0  0.1114114251973984 -0.1581699686077357 0  0.1861203385256373 -0.06601416834570389 0  0.2411653975579025 -0.1955923650394697 0  0.3655092946697883 -0.1617364087021952 0  0.135090011654307 -0.05852644219278214 0  0.301466572149827 -0.195730962509487 0  0.3171403096460815 -0.1628017925003279 0  0.2583110626374412 -0.1046341192205865 0  0.4408293443687437 -0.04585722764353674 0  0.2712011044137034 -0.1640374945295207 0  0.2411933721253841 -0.08983355018053346 0  0.2501709838730871 -0.1314559421109842 0  0.4829353992284747 -0.03936718280336758 0  0.01826814268142685 -0.17875 0  0.08176459786747367 -0.1581134879103219 0  0.09090727073593149 -0.1966179220907174 0  0.1938567422944586 -0.1528508759815354 0  0.1733129361306733 -0.1172649579021292 0  0.1296640686621583 -0.1060858859555111 0  0.05006156132458137 -0.1998033571646454 0  0.162505650870633 -0.1635353305739766 0  0.30277270753554 -0.02336446206680166 0  0.04392010531002208 -0.1476919574928456 0  0.4570380569409145 -0.07105832940298668 0  0.2509935571465481 -0.06292905082461901 0  0.3948833058972995 -0.09019561948060845 0  0.4598195232581849 -0.1577532743262658 0  0.04018055885339097 -0.06224663359087233 0  0.1730418602576066 -0.1983511585214162 0  0.354008461825654 -0.08842076759065362 0  0.373211974938222 -0.1031515537153039 0  0.3385725936424656 -0.02355841481827918 0  0.05693481862827446 -0.1711111761535942 0  0.2226017506701603 -0.1306213423698554 0  0.4834446118625366 -0.09366667033152501 0  0.01655538813746335 -0.126333329668475 0  0.4825096030146118 -0.1326572162395438 0  0.01749039698538812 -0.08734278376045618 0  0.3772923679603625 -0.01999366789017346 0  0.01651090378487999 -0.1420833333333333 0  0.48348909621512 -0.07791666666666669 0  0.2083850969976113 -0.06098599897318754 0  0.3496303726904554 -0.1333395240176083 0  0.3051888980043784 -0.1167126520442686 0  0.2175622493287656 -0.08816391583608728 0  0.421331648509181 -0.05567865783938017 0  0.2036856364456695 -0.0217459550834085 0  0.3419325538888507 -0.04719577702332296 0  0.3412491916251918 -0.1996737604301947 0  0.4838834006315611 -0.1786454571355643 0  0.01611659936843887 -0.0413545428644357 0  0.172916357627664 -0.04916537131395513 0  0.4024134926805814 -0.2009331510593763 0  0.2424815730009992 -0.02045273553971888 0  0.1462759520833398 -0.1337233768065287 0  0.2346404539413744 -0.0484884977905098 0  0.09697638824467633 -0.01835062747588986 0  0.3376316573341132 -0.1736137832302001 0  0.1473441332611047 -0.09306137774954895 0  0.434705037373379 -0.114505364151485 0  0.0768089501139663 -0.1390499296181859 0  0.2037322897871967 -0.1695319781453501 0  0.2796822656650553 -0.2007669332776081 0  0.2910707535484897 -0.1516548901144321 0  0.414355300365443 -0.1140560482952263 0  0.09372496308173206 -0.1210763918452149 0  0.3897041267298961 -0.06995384811683555 0  0.4607061536274312 -0.2009522278863767 0  0.03767528917450519 -0.01920779542340162 0  0.06550910726222195 -0.1022565085744684 0  0.05021276002452402 -0.04427151993747909 0  0.4497875067624045 -0.1757266867012744 0  0.2685456651208211 -0.05149244248160013 0  0.1924991911245588 -0.1082791409797235 0  0.4653652048205058 -0.1036696603203247 0  0.03478864406010496 -0.1162949466270758 0  0.03530598512279109
[...]
<PointData  Vectors="displacement"> 
<DataArray  type="Float64"  Name="displacement"  NumberOfComponents="3" format="ascii">-5.0504198084847232e-03 -3.1718157290293848e-02 0.0000000000000000e+00  5.0501881779031329e-03 -3.1717059520606806e-02 0.0000000000000000e+00  1.5496213260972875e-04 -2.0861864743526020e-04 0.0000000000000000e+00  -1.5174342854832684e-04 -2.0882637177390608e-04 0.0000000000000000e+00  -5.0605131172879909e-03 -3.2509589198192877e-02 0.0000000000000000e+00  -5.0909868102517316e-03 -3.3186535723826543e-02 0.0000000000000000e+00  -5.0960248215007331e-03 -3.3665172086940663e-02 0.0000000000000000e+00  -5.0545416115530721e-03 -3.4000037232510653e-02 0.0000000000000000e+00  -4.9600296569375004e-03 -3.4205285480627151e-02 0.0000000000000000e+00  -4.8113206864545139e-03 -3.4303722647844433e-02 0.0000000000000000e+00  -4.6002466519477177e-03 -3.4344126348692113e-02 0.0000000000000000e+00  -4.3600027191695798e-03 -3.4291139765925835e-02 0.0000000000000000e+00  -4.0501030946278683e-03 -3.4268563987872404e-02 0.0000000000000000e+00  -3.7330779375917451e-03 -3.4162305492621392e-02 0.0000000000000000e+00  -3.3823374757971634e-03 -3.4074021215081428e-02 0.0000000000000000e+00  -3.0171668438848205e-03 -3.3981655819427428e-02 0.0000000000000000e+00  -2.6412851876040982e-03 -3.3904605903961660e-02 0.0000000000000000e+00  -2.2620209560622823e-03 -3.3828166494550851e-02 0.0000000000000000e+00  -1.8841128491258637e-03 -3.3744262257351845e-02 0.0000000000000000e+00  -1.5018224271643264e-03 -3.3704363210608650e-02 0.0000000000000000e+00  -1.1250348699613122e-03 -3.3646504916538561e-02 0.0000000000000000e+00  -7.4826913423630141e-04 -3.3615846387141442e-02 0.0000000000000000e+00  -3.7408051386041656e-04 -3.3597475595985644e-02 0.0000000000000000e+00  -4.7977868778929555e-09 -3.3594731718638908e-02 0.0000000000000000e+00  3.7323409842651543e-04 -3.3601066275718003e-02 0.0000000000000000e+00  7.4778094688369252e-04 -3.3628677746115283e-02 0.0000000000000000e+00  1.1252651804261838e-03 -3.3645330970222473e-02 0.0000000000000000e+00  1.5030441370851037e-03 -3.3696970967417882e-02 0.0000000000000000e+00  1.8830334090079463e-03 -3.3750689806141682e-02 0.0000000000000000e+00  2.2630884665860371e-03 -3.3822362656446725e-02 0.0000000000000000e+00  2.6406467192087494e-03 -3.3905978551826609e-02 0.0000000000000000e+00  3.0174743475020831e-03 -3.3982870142209728e-02 0.0000000000000000e+00  3.3817455852167794e-03 -3.4073384955876022e-02 0.0000000000000000e+00  3.7326620949154118e-03 -3.4163943480340672e-02 0.0000000000000000e+00  4.0547273633841511e-03 -3.4254307766430972e-02 0.0000000000000000e+00  4.3460398319255756e-03 -3.4315536034056487e-02 0.0000000000000000e+00  4.6059018689326445e-03 -3.4330398722371314e-02 0.0000000000000000e+00  4.8174920170809621e-03 -3.4300126714067805e-02 0.0000000000000000e+00  4.9579274473612669e-03 -3.4206550453161753e-02 0.0000000000000000e+00  5.0560992112545361e-03 -3.4008090444202208e-02 0.0000000000000000e+00  5.0963012195781050e-03 -3.3661205961190190e-02 0.0000000000000000e+00  5.0839044732857155e-03 -3.3186169216831221e-02 0.0000000000000000e+00  5.0590213585655864e-03 -3.2517491848242507e-02 0.0000000000000000e+00  5.6718743746857923e-03 -3.1631339735557908e-02 0.0000000000000000e+00  6.3093072425801306e-03 -3.1398766960461864e-02 0.0000000000000000e+00  6.9579194951018674e-03 -3.1026404323943029e-02 0.0000000000000000e+00  7.6194426223878666e-03 -3.0529788159720562e-02 0.0000000000000000e+00  8.2685660855003548e-03 -2.9920706226685974e-02 0.0000000000000000e+00  8.8975286154288295e-03 -2.9210597004235228e-02 0.0000000000000000e+00  9.4800853207014629e-03 -2.8400071401726852e-02 0.0000000000000000e+00  1.0005979197532575e-02 -2.7501826382660237e-02 0.0000000000000000e+00  1.0462767034990050e-02 -2.6529349533181791e-02 0.0000000000000000e+00  1.0832847291666701e-02 -2.5469637094374609e-02 0.0000000000000000e+00  1.1098049557226156e-02 -2.4320076086256311e-02 0.0000000000000000e+00  1.1265602299353458e-02 -2.3107123408874764e-02 0.0000000000000000e+00  1.1314115066863558e-02 -2.1810583071668149e-02 0.0000000000000000e+00  1.1241021619455758e-02 -2.0445489165691284e-02 0.0000000000000000e+00  1.1044598119581481e-02 -1.9008712854322780e-02 0.0000000000000000e+00  1.0698949098463027e-02 -1.7495714163156789e-02 0.0000000000000000e+00  1.0212341571679403e-02 -1.5916610065559268e-02 0.0000000000000000e+00  9.5593214826924268e-03 -1.4255156319725720e-02 0.0000000000000000e+00  8.7349536148652023e-03 -1.2500472218837129e-02 0.0000000000000000e+00  7.7071018263912550e-03 -1.0622895112577866e-02 0.0000000000000000e+00  6.4677122784366379e-03 -8.6265712158055032e-03 0.0000000000000000e+00  4.9394202192583761e-03 -6.4204165694453216e-03 0.0000000000000000e+00  3.0263344424991982e-03 -3.8570064623331493e-03 0.0000000000000000e+00  -5.2497202754388680e-05 3.6152870669103779e-05 0.0000000000000000e+00  -4.0121764661730017e-06 2.3840879944794275e-06 0.0000000000000000e+00  -2.6941084797345871e-05 1.9778427264558392e-05 0.0000000000000000e+00  2.5279988937827041e-06 6.4870318863021194e-06 0.0000000000000000e+00  -1.7882668018755173e-05 1.3012701717815184e-05 0.0000000000000000e+00  -5.5059483609755263e-06 4.3207542034304683e-06 0.0000000000000000e+00  -1.3190364348349647e-06 6.8267394470133076e-06 0.0000000000000000e+00  3.2797049539144316e-06 2.1133326947584663e-06 0.0000000000000000e+00  -1.5229384186544033e-06 1.7448711362382601e-06 0.0000000000000000e+00  2.3322602816337169e-06 4.5240718863790814e-06 0.0000000000000000e+00  6.6950170911710588e-06 4.2059321979758892e-06 0.0000000000000000e+00  1.3850751970468704e-06 3.7335470602582938e-06 0.0000000000000000e+00  7.9858067400306670e-06 4.5835517507508059e-06 0.0000000000000000e+00  1.3960963391125582e-07 3.1771104471129065e-06 0.0000000000000000e+00  1.9737844822098163e-06 1.9237897581019430e-06 0.0000000000000000e+00  3.1101566029771057e-06 3.6071779917136560e-06 0.0000000000000000e+00  -1.7424459956936375e-07 2.8045452147242016e-06 0.0000000000000000e+00  2.7034650101707355e-06 2.1644592691167281e-06 0.0000000000000000e+00  -2.2876408761650109e-06 1.8271796410747286e-06 0.0000000000000000e+00  1.4268872853076731e-06 2.1533357574505548e-06 0.0000000000000000e+00  6.9273835165580078e-08 3.6088255612580634e-06 0.0000000000000000e+00  -2.1034523057419860e-06 2.7362241337778087e-06 0.0000000000000000e+00  7.7762991898416396e-07 2.5450409059884703e-06 0.0000000000000000e+00  -5.2755039757675121e-06 2.7786152829148601e-06 0.0000000000000000e+00  2.3723427092469763e-07 3.0996667747697019e-06 0.0000000000000000e+00  2.8772944457050211e-06 1.8448894069418431e-06 0.0000000000000000e+00  -3.3751535040301999e-06 2.8520084907258048e-06 0.0000000000000000e+00  -6.5388081582497745e-07 2.2844404444612398e-06 0.0000000000000000e+00  -7.2416018995738899e-06 4.3701387935791557e-06 0.0000000000000000e+00  -4.5081638399460919e-06 6.0866602142867007e-06 0.0000000000000000e+00  1.3309574876647834e-07 1.0868153139116790e-06 0.0000000000000000e+00  8.4304806691213765e-06 5.1920350016440481e-06 0.0000000000000000e+00  -3.7730473853102868e-07 1.8574853606177528e-06 0.0000000000000000e+00  -1.5350316348075635e-05 6.4741652850380377e-06 0.0000000000000000e+00  -1.0541196981721733e-06 9.3126917784147304e-06 0.0000000000000000e+00  1.4010295717384782e-05 7.7934509260162309e-06 0.0000000000000000e+00  -2.0121111431665873e-06 3.7980705631721266e-06 0.0000000000000000e+00  1.5896593746853070e-05 1.2723926390068975e-05 0.0000000000000000e+00  6.2949580578061209e-05 4.8426486314305165e-05 0.0000000000000000e+00  -3.0252223544419638e-03 -3.8541720266686867e-03 0.0000000000000000e+00  -4.9361187701504857e-03 -6.4183515694845213e-03 0.0000000000000000e+00  -6.4654818124983979e-03 -8.6244176849601811e-03 0.0000000000000000e+00  -7.7114473589921561e-03 -1.0625084285868627e-02 0.0000000000000000e+00  -8.7370814287418622e-03 -1.2498094041211185e-02 0.0000000000000000e+00  -9.5596577961044628e-03 -1.4246653381524865e-02 0.0000000000000000e+00  -1.0210133887933468e-02 -1.5920555913729824e-02 0.0000000000000000e+00  -1.0697017150623749e-02 -1.7502879197821605e-02 0.0000000000000000e+00  -1.1041769574150763e-02 -1.9011354845154482e-02 0.0000000000000000e+00  -1.1246368326210879e-02 -2.0449793422340424e-02 0.0000000000000000e+00  -1.1312997278732024e-02 -2.1812229300810310e-02 0.0000000000000000e+00  -1.1264619938188355e-02 -2.3102773355758929e-02 0.0000000000000000e+00  -1.1100136211795652e-02 -2.4323507337236074e-02 0.0000000000000000e+00  -1.0828814673923673e-02 -2.5463925357664098e-02 0.0000000000000000e+00  -1.0466399872751339e-02 -2.6535782240678308e-02 0.0000000000000000e+00  -1.0009606344183963e-02 -2.7511093682757889e-02 0.0000000000000000e+00  -9.4811709948716422e-03 -2.8406014295345637e-02 0.0000000000000000e+00  -8.8956175109122290e-03 -2.9204983097357053e-02 0.0000000000000000e+00  -8.2680141199387748e-03 -2.9917973250869773e-02 0.0000000000000000e+00  -7.6198090044150880e-03 -3.0528573633216430e-02 0.0000000000000000e+00  -6.9572468729969840e-03 -3.1026481469245002e-02 0.0000000000000000e+00  -6.3094359424520664e-03 -3.1399953872269099e-02 0.0000000000000000e+00  -5.6713561886656324e-03 -3.1630836880082544e-02 0.0000000000000000e+00  -5.3075301397556320e-03 -2.3670901836109957e-02 0.0000000000000000e+00  5.2325082396947617e-03 -2.2135280233975350e-02 0.0000000000000000e+00  1.0364131457756935e-03 -2.2662066784070751e-02 0.0000000000000000e+00  -1.5836942766218945e-03 -1.9216049736257807e-02 0.0000000000000000e+00  -6.5091676295696939e-03 -1.4790079098848710e-02 0.0000000000000000e+00  7.1616672199037836e-03 -2.9597557758973603e-02 0.0000000000000000e+00  -6.9948704717270700e-03 -3.0533406044242359e-02 0.0000000000000000e+00  6.1735695940938820e-03 -1.2946468243877312e-02 0.0000000000000000e+00  2.9311086168316088e-03 -2.8986244765178481e-02 0.0000000000000000e+00  -6.3464482408722594e-04 -2.8709185167952209e-02 0.0000000000000000e+00  2.1958706728649729e-03 -1.4160114233767750e-02 0.0000000000000000e+00  -2.7759564136611275e-03 -2.9365611358420519e-02 0.0000000000000000e+00  -2.8291445022838855e-03 -1.3832923793043203e-02 0.0000000000000000e+00  -4.2954915726799404e-05 -1.3108102274350487e-02 0.0000000000000000e+00  8.5471137367020590e-03 -2.2320566880575366e-02 0.0000000000000000e+00  -8.5763377949197896e-03 -2.3915679486068854e-02 0.0000000000000000e+00  1.1077416118138181e-03 -3.0474307278632852e-02 0.0000000000000000e+00  3.3571148818447691e-03 -1.1269404986801594e-02 0.0000000000000000e+00  -4.5773716351987879e-03 -3.1178435143406461e-02 0.0000000000000000e+00  4.5381148744322673e-03 -3.1459174606918952e-02 0.0000000000000000e+00  7.6157246950127083e-04 -9.9603505880800323e-03 0.0000000000000000e+00  -5.1908853802452651e-03 -8.3487034702550266e-03 0.0000000000000000e+00  6.9914525615088572e-03 -3.1969933681185114e-02 0.0000000000000000e+00  -1.2353337208741051e-03 -9.6882371729248833e-03 0.0000000000000000e+00  -3.2519387406106689e-03 -2.2207467766984956e-02 0.0000000000000000e+00  -3.4682538800134431e-04 -2.1888791470899151e-02 0.0000000000000000e+00  -3.3690777778750255e-03 -9.6282358282549010e-03 0.0000000000000000e+00  3.3367013103980012e-03 -2.2608221553764931e-02 0.0000000000000000e+00  -1.6462142576931706e-03 -3.1617812694106615e-02 0.0000000000000000e+00  5.9862755011008406e-03 -9.3039837338610692e-03 0.0000000000000000e+00  -7.1047859453468223e-03 -3.1855384046664263e-02 0.0000000000000000e+00  -8.8997694306250912e-03 -2.8014837083703979e-02 0.0000000000000000e+00  8.9156742867201062e-03 -1.7248610292802037e-02 0.0000000000000000e+00  -9.1760167636716402e-03 -1.8571556743711259e-02 0.0000000000000000e+00  9.1474919789460724e-03 -2.7055613316261870e-02 0.0000000000000000e+00  -1.7238507074624017e-03 -2.6119658441686538e-02 0.0000000000000000e+00  7.4654995646604178e-05 -3.1995701131181165e-02 0.0000000000000000e+00  2.1302511675935026e-03 -3.2169678920648710e-02 0.0000000000000000e+00  5.4328982103664476e-03 -3.2894472251721395e-02 0.0000000000000000e+00  -5.1267428817284430e-03 -1.6939196820632281e-02 0.0000000000000000e+00  -4.4212191452121978e-04 -7.8646829907273192e-03 0.0000000000000000e+00  1.7003909552001427e-03 -7.6294032462677673e-03 0.0000000000000000e+00  -3.2381732244203629e-03 -3.2518354343852210e-02 0.0000000000000000e+00  4.4112649930616466e-03 -2.7378911744492498e-02 0.0000000000000000e+00  -6.8387907439906876e-03 -2.6583216701379097e-02 0.0000000000000000e+00  6.5178051512328160e-03 -1.8966975985361179e-02 0.0000000000000000e+00  2.1587058685581736e-03 -2.4762489376556916e-02 0.0000000000000000e+00  3.2548099344126198e-03 -3.2490790018124098e-02 0.0000000000000000e+00  6.9657905509739196e-03 -2.4981163474756044e-02 0.0000000000000000e+00  3.3175089992038351e-04 -2.7100522520978877e-02 0.0000000000000000e+00  -5.2222178808038434e-03 -3.3018039111426409e-02 0.0000000000000000e+00  3.0685012892255371e-03 -7.1603559062976274e-03 0.0000000000000000e+00  1.5045560768357882e-03 -1.7257109059381132e-02 0.0000000000000000e+00  -4.1794938231038891e-03 -2.7216265610368273e-02 0.0000000000000000e+00  -3.3720074941380796e-03 -6.8492563132377159e-03 0.0000000000000000e+00  3.7442149322301750e-03 -1.7193199445434324e-02 0.0000000000000000e+00  1.0287765115862008e-03 -7.3278896454402635e-03 0.0000000000000000e+00  1.8377474516806600e-04 -7.7027827666952325e-03 0.0000000000000000e+00  -6.8333848461780344e-03 -2.1117645644669156e-02 0.0000000000000000e+00  -1.4035384593985391e-03 -7.1129313882014791e-03 0.0000000000000000e+00  -8.0261220619398080e-04 -1.4555605163486095e-02 0.0000000000000000e+00  5.0802640161914177e-04 -1.6546806804385052e-02 0.0000000000000000e+00  -2.3508260473612897e-03 -1.6822939694193923e-02 0.0000000000000000e+00  5.7800996405397024e-03 -2.8796807269744762e-02 0.0000000000000000e+00  -4.0392556409849668e-03 -1.9356831540625449e-02 0.0000000000000000e+00  8.5166699266164634e-03 -2.9554747096046597e-02 0.0000000000000000e+00  -8.5433996951225968e-03 -1.4654497191404244e-02 0.0000000000000000e+00  1.0064580717875240e-02 -2.2457025388432993e-02 0.0000000000000000e+00  -1.0020334403499474e-02 -2.3943985412675495e-02 0.0000000000000000e+00  -7.5355942997873458e-04 -3.2509244278194876e-02 0.0000000000000000e+00  -1.7529082783811353e-03 -6.1372895118342857e-03 0.0000000000000000e+00  3.2112528892686834e-03 -5.6769931315998248e-03 0.0000000000000000e+00  -5.8594802573389160e-03 -3.3224215549575463e-02 0.0000000000000000e+00  4.9760480495536861e-03 -1.3751609592729400e-02 0.0000000000000000e+00  -5.7554730414794680e-03 -2.9864676124921188e-02 0.0000000000000000e+00  -2.3099350143366165e-03 -3.2870545188891882e-02 0.0000000000000000e+00  1.9438101968596124e-03 -2.8876567611109408e-02 0.0000000000000000e+00  8.6181272478198074e-04 -3.2784243977175720e-02 0.0000000000000000e+00  -4.0454345684393959e-03 -5.3646803470977509e-03 0.0000000000000000e+00  6.2118052154506980e-03 -3.2670210457432576e-02 0.0000000000000000e+00  4.0127852794856521e-03 -5.2058943052161353e-03 0.0000000000000000e+00  -6.2816371834712812e-03 -3.2518795770360091e-02 0.0000000000000000e+00  -4.0371710910979521e-03 -3.3301194695917656e-02 0.0000000000000000e+00  1.7861959724598728e-03 -5.7340795805641050e-03 0.0000000000000000e+00  8.4708776183864201e-03 -1.3715524600645995e-02 0.0000000000000000e+00  -8.4661921929423626e-03 -2.9905639811900878e-02 0.0000000000000000e+00  2.3456074567121104e-03 -2.0331668875937466e-02 0.0000000000000000e+00  4.4446284589151654e-03 -3.3463010547894391e-02 0.0000000000000000e+00  1.2248196643431521e-03 -2.6865304026111359e-02 0.0000000000000000e+00  -2.5348364111279324e-03 -2.5263542923758622e-02 0.0000000000000000e+00  -1.0774329287106226e-03 -2.2589576567420135e-02 0.0000000000000000e+00  5.7351132300120303e-03 -3.3422552785508562e-02 0.0000000000000000e+00  -7.8962744854209083e-03 -2.7449190732116109e-02 0.0000000000000000e+00  7.6750446636413639e-03 -1.7942002564495487e-02 0.0000000000000000e+00  3.7783273697589177e-03 -3.0337318785080159e-02 0.0000000000000000e+00  8.0892442090654323e-03 -2.5969542258049566e-02 0.0000000000000000e+00  -5.2265326306463657e-03 -2.7798888286338263e-02 0.0000000000000000e+00  -7.9976339899659483e-03 -1.9845275812826087e-02 0.0000000000000000e+00  4.7891480573283070e-03 -1.7089977683059168e-02 0.0000000000000000e+00  -5.5907021332062630e-04 -5.1726744835307210e-03 0.0000000000000000e+00  -3.7610671812222879e-03 -1.3108791986759814e-02 0.0000000000000000e+00  -1.9689109377977465e-03 -2.9310627324659760e-02 0.0000000000000000e+00  -8.9907164439062374e-05 -5.2005321435877336e-03 0.0000000000000000e+00  2.8116687506962975e-03 -1.2358640097322744e-02 0.0000000000000000e+00  -3.7273623349810612e-03 -3.0467831217358202e-02 0.0000000000000000e+00  5.2328666614057248e-04 -5.1531479379628145e-03 0.0000000000000000e+00  1.4577121719369112e-03 -1.2179952242788021e-02 0.0000000000000000e+00  2.4672253282860584e-04 -2.3502761761784962e-02 0.0000000000000000e+00  6.4138294945465532e-03 -3.1993905265303151e-02 0.0000000000000000e+00  4.3222012902471071e-04 -1.1944077780035318e-02 0.0000000000000000e+00  -2.6536944221745704e-04 -2.5912731999059396e-02 0.0000000000000000e+00  4.4693920108573002e-06 -1.8586390549440546e-02 0.0000000000000000e+00  7.4167764733434251e-03 -3.1378259704660835e-02 0.0000000000000000e+00  -6.9319625355849799e-03 -9.9646196181618681e-03 0.0000000000000000e+00  -5.0444617812986699e-03 -1.3171617191758130e-02 0.0000000000000000e+00  -1.9952709655716707e-03 -4.8421886916443181e-03 0.0000000000000000e+00  -1.3445126165710509e-03 -1.4270884480564161e-02 0.0000000000000000e+00  -2.3610704765087715e-03 -2.1318691942976618e-02 0.0000000000000000e+00  -4.1575843020268486e-03 -2.3456859675778510e-02 0.0000000000000000e+00  -2.5751286786177014e-03 -4.2293374321254731e-03 0.0000000000000000e+00  -1.9532156050835877e-03 -1.2005376901074449e-02 0.0000000000000000e+00  1.5382102150338518e-03 -3.2998579432626171e-02 0.0000000000000000e+00  -7.8071482153117032e-03 -1.5817756905479780e-02 0.0000000000000000e+00  8.0853717970974792e-03 -2.9057986784294179e-02 0.0000000000000000e+00  2.9490448221094836e-05 -2.9558542699234372e-02 0.0000000000000000e+00  5.3127725093279968e-03 -2.6267815883151659e-02 0.0000000000000000e+00  7.4218881834307920e-03 -1.3749964721445585e-02 0.0000000000000000e+00  -7.8593865748521237e-03 -3.0077976846519205e-02 0.0000000000000000e+00  -7.2831787870866749e-04 -4.5710379594810259e-03 0.0000000000000000e+00  3.4861240607274831e-03 -2.6354137426998721e-02 0.0000000000000000e+00  4.2996673429521034e-03 -2.3986625377518944e-02 0.0000000000000000e+00  2.6190282196889882e-03 -3.3189629699252002e-02 0.0000000000000000e+00  -5.3601279088944642e-03 -1.0506777657814595e-02 0.0000000000000000e+00  -7.5101345737930525e-04 -1.8746254014569617e-02 0.0000000000000000e+00  1.0141698888651570e-02 -2.5618285433887084e-02 0.0000000000000000e+00  -1.0345522876922780e-02 -2.0516048802960866e-02 0.0000000000000000e+00  1.0153988649838776e-02 -1.9383869200318350e-02 0.0000000000000000e+00  -9.9054767905975560e-03 -2.6499354801432246e-02 0.0000000000000000e+00  3.7892692572954211e-03 -3.3638968195588911e-02 0.0000000000000000e+00  -9.8969610196241471e-03 -1.7681506189804446e-02 0.0000000000000000e+00  9.5872662803459623e-03 -2.7670316190364880e-02 0.0000000000000000e+00  -1.2501470315373542e-03 -2.9833652266022269e-02 0.0000000000000000e+00  2.9962552782610125e-03 -1.8241305319173812e-02 0.0000000000000000e+00  1.6486159901647874e-03 -2.1394293379078652e-02 0.0000000000000000e+00  -9.8750946860821855e-04 -2.6182499219876705e-02 0.0000000000000000e+00  5.9603466655153625e-03 -3.1084574332418079e-02 0.0000000000000000e+00  -1.3480762085673304e-03 -3.3049592468283075e-02 0.0000000000000000e+00  2.8228112185197749e-03 -3.1481313495248457e-02 0.0000000000000000e+00  8.3642121350935544e-04 -4.2750946344995546e-03 0.0000000000000000e+00  7.1064960819733321e-03 -1.0143207849435468e-02 0.0000000000000000e+00  -7.5665660319318307e-03 -3.1197121738167