<?xml version="1.0"?>
<VTKFile type="UnstructuredGrid"  version="0.1"  >
<UnstructuredGrid>
<Piece  NumberOfPoints="1121" NumberOfCells="2112">
<Points>
<DataArray  type="Float64"  NumberOfComponents="3"  format="ascii">0 0 0  0.5 0 0  0.5 -0.22 0  0 -0.22 0  0.0125 0 0  0.025 0 0  0.03750000000000001 0 0  0.05 0 0  0.0625 0 0  0.07500000000000001 0 0  0.08750000000000001 0 0  0.1 0 0  0.1125 0 0  0.125 0 0  0.1375 0 0  0.15 0 0  0.1625 0 0  0.175 0 0  0.1875 0 0  0.2 0 0  0.2125 0 0  0.225 0 0  0.2375 0 0  0.25 0 0  0.2625 0 0  0.275 0 0  0.2875 0 0  0.3 0 0  0.3124999999999999 0 0  0.325 0 0  0.3375 0 0  0.35 0 0  0.3625 0 0  0.375 0 0  0.3875 0 0  0.4 0 0  0.4125 0 0  0.425 0 0  0.4375 0 0  0.45 0 0  0.4625 0 0  0.475 0 0  0.4875 0 0  0.5 -0.00916666666666667 0  0.5 -0.01833333333333334 0  0.5 -0.02750000000000001 0  0.5 -0.03666666666666668 0  0.5 -0.04583333333333335 0  0.5 -0.05500000000000002 0  0.5 -0.06416666666666669 0  0.5 -0.07333333333333336 0  0.5 -0.08250000000000002 0  0.5 -0.09166666666666669 0  0.5 -0.1008333333333334 0  0.5 -0.11 0  0.5 -0.1191666666666667 0  0.5 -0.1283333333333334 0  0.5 -0.1375 0  0.5 -0.1466666666666667 0  0.5 -0.1558333333333333 0  0.5 -0.165 0  0.5 -0.1741666666666667 0  0.5 -0.1833333333333333 0  0.5 -0.1925 0  0.5 -0.2016666666666667 0  0.5 -0.2108333333333333 0  0.4875 -0.22 0  0.475 -0.22 0  0.4625 -0.22 0  0.45 -0.22 0  0.4375 -0.22 0  0.425 -0.22 0  0.4125 -0.22 0  0.4 -0.22 0  0.3875 -0.22 0  0.375 -0.22 0  0.3625 -0.22 0  0.35 -0.22 0  0.3375 -0.22 0  0.325 -0.22 0  0.3125 -0.22 0  0.3 -0.22 0  0.2875 -0.22 0  0.275 -0.22 0  0.2625 -0.22 0  0.25 -0.22 0  0.2375 -0.22 0  0.225 -0.22 0  0.2125 -0.22 0  0.2 -0.22 0  0.1875000000000001 -0.22 0  0.175 -0.22 0  0.1625 -0.22 0  0.15 -0.22 0  0.1375 -0.22 0  0.125 -0.22 0  0.1125 -0.22 0  0.09999999999999998 -0.22 0  0.08749999999999997 -0.22 0  0.07499999999999996 -0.22 0  0.0625 -0.22 0  0.04999999999999999 -0.22 0  0.03750000000000003 -0.22 0  0.02500000000000002 -0.22 0  0.01250000000000001 -0.22 0  0 -0.2108333333333333 0  0 -0.2016666666666667 0  0 -0.1925 0  0 -0.1833333333333333 0  0 -0.1741666666666666 0  0 -0.165 0  0 -0.1558333333333333 0  0 -0.1466666666666666 0  0 -0.1375 0  0 -0.1283333333333333 0  0 -0.1191666666666666 0  0 -0.11 0  0 -0.1008333333333333 0  0 -0.09166666666666665 0  0 -0.08249999999999999 0  0 -0.07333333333333333 0  0 -0.06416666666666668 0  0 -0.05499999999999999 0  0 -0.04583333333333331 0  0 -0.03666666666666665 0  0 -0.0275 0  0 -0.01833333333333334 0  0 -0.009166666666666684 0  0.1054583333333335 -0.1054166666666667 0  0.3942676334017064 -0.1137728325038039 0  0.2847879184121186 -0.1095588156798053 0  0.1945032948335413 -0.1282408799476467 0  0.06153506715537374 -0.1512727221728088 0  0.4399056412223469 -0.06797859302281792 0  0.05788181883779472 -0.06001948808334377 0  0.4421098014386607 -0.1599837267347342 0  0.3413511741034609 -0.06957267157055583 0  0.2288650014326337 -0.07000139022125416 0  0.3374198095657364 -0.153292781564552 0  0.1625149941501948 -0.06635759941053934 0  0.1410798075665959 -0.1547982873744018 0  0.2480541718311375 -0.1584999930406966 0  0.4521112869309225 -0.1144576824167908 0  0.04769384748510372 -0.1054790589784799 0  0.2872553124970689 -0.0549183148201307 0  0.3883603170589741 -0.1667590078701163 0  0.1113816725357426 -0.05349980002187416 0  0.388663619148569 -0.05083099728992514 0  0.2924675002385118 -0.1733355444551434 0  0.03957129721715399 -0.1820306497250263 0  0.463886478278041 -0.04123097885421483 0  0.1819898664669143 -0.1745112248447572 0  0.1501955722423063 -0.1126410264576243 0  0.2381168692527681 -0.1138631020717532 0  0.09896708868237117 -0.1743617443889283 0  0.351521105495953 -0.110482033201648 0  0.1944214316144394 -0.04364751139729321 0  0.4676096572335854 -0.17875 0  0.0323903427664145 -0.04125 0  0.03139627442974444 -0.07791666666666666 0  0.4686037255702555 -0.1420833333333333 0  0.03146427625974824 -0.1353922207127977 0  0.4687538427589449 -0.08499498352404596 0  0.1945393885069078 -0.08884182758867265 0  0.2525813348104176 -0.03744007417230172 0  0.3217010222371471 -0.03764154129720884 0  0.4222469886470394 -0.03586904090069724 0  0.09663319060065351 -0.1401271138728219 0  0.2193792666828137 -0.183158231426584 0  0.3560154827479793 -0.1838943099753877 0  0.1434582748922029 -0.03603411582704523 0  0.3765333185963097 -0.08241017292348579 0  0.07538111331820632 -0.08899587837746269 0  0.423855991190923 -0.1306886077643884 0  0.3185210010305527 -0.09753607818954631 0  0.3569762884570115 -0.03650734503769727 0  0.4254213410091923 -0.0987078979590463 0  0.2610082403268991 -0.0817800662321487 0  0.0828105113527246 -0.0341734786714956 0  0.4171399376253134 -0.185803221952863 0  0.3057870365127394 -0.1382026892003179 0  0.12895829204953 -0.08335230948371621 0  0.06875298785225953 -0.187362820013113 0  0.3717868049890677 -0.1386048615715364 0  0.321448533906611 -0.1855116827647124 0  0.26298072168791 -0.1839420817131204 0  0.07484000163200957 -0.1198633334100699 0  0.1547686158654376 -0.1863750548878711 0  0.216059367308573 -0.1515159536473182 0  0.2699691944498949 -0.1417527519042215 0  0.1656185503016955 -0.1403556565429203 0  0.4083071195762781 -0.07378364169239227 0  0.1267131755037155 -0.1278660972450704 0  0.4735015828166597 -0.0640900788079139 0  0.02554956908977171 -0.1556408100003981 0  0.4768150825846236 -0.1145833333333333 0  0.02318491741537634 -0.1054166666666667 0  0.223953700752457 -0.0304451531933032 0  0.1244872804067221 -0.1907232817427361 0  0.4438735214118281 -0.1930008132865749 0  0.05574102313663398 -0.02865323925202035 0  0.4137204188713657 -0.1553454939163003 0  0.08893893095617791 -0.06579816339826482 0  0.1717694871603352 -0.02800139159048265 0  0.3128492556460914 -0.06943040619515532 0  0.2797695783739821 -0.02590934499649085 0  0.02258333333333329 -0.1970833333333333 0  0.4762493762769904 -0.02160603458451191 0  0.4793770768812318 -0.1979934752448725 0  0.02062142143957255 -0.02200567641944876 0  0.1164030865048185 -0.02740272745133866 0  0.3830675041448486 -0.1925667518381948 0  0.4791226873505327 -0.1610342148373401 0  0.02087731264946724 -0.05896578516265992 0  0.3274724693986852 -0.1225305077389053 0  0.3972801610854721 -0.02625449066011495 0  0.2900140160514686 -0.08365001034985962 0  0.1709547781797311 -0.09465470820062212 0  0.2138438311308281 -0.1099941211103435 0  0.4450205721789285 -0.02492933314930469 0  0.05420467580227878 -0.08349945672846135 0  0.4461329107542346 -0.1367113815538408 0  0.3659666316461785 -0.05978339436610505 0  0.44602790301578 -0.09307279226297782 0  0.1051970245947556 -0.08027435556391044 0  0.05333928713341426 -0.1272409570081178 0  0.3959065276465774 -0.1392957050603055 0  0.1954280839215327 -0.1956301054107469 0  0.1114114251973984 -0.1581699686077357 0  0.1861203385256373 -0.06601416834570389 0  0.2411653975579025 -0.1955923650394697 0  0.3655092946697883 -0.1617364087021952 0  0.135090011654307 -0.05852644219278214 0  0.301466572149827 -0.195730962509487 0  0.3171403096460815 -0.1628017925003279 0  0.2583110626374412 -0.1046341192205865 0  0.4408293443687437 -0.04585722764353674 0  0.2712011044137034 -0.1640374945295207 0  0.2411933721253841 -0.08983355018053346 0  0.2501709838730871 -0.1314559421109842 0  0.4829353992284747 -0.03936718280336758 0  0.01826814268142685 -0.17875 0  0.08176459786747367 -0.1581134879103219 0  0.09090727073593149 -0.1966179220907174 0  0.1938567422944586 -0.1528508759815354 0  0.1733129361306733 -0.1172649579021292 0  0.1296640686621583 -0.1060858859555111 0  0.05006156132458137 -0.1998033571646454 0  0.162505650870633 -0.1635353305739766 0  0.30277270753554 -0.02336446206680166 0  0.04392010531002208 -0.1476919574928456 0  0.4570380569409145 -0.07105832940298668 0  0.2509935571465481 -0.06292905082461901 0  0.3948833058972995 -0.09019561948060845 0  0.4598195232581849 -0.1577532743262658 0  0.04018055885339097 -0.06224663359087233 0  0.1730418602576066 -0.1983511585214162 0  0.354008461825654 -0.08842076759065362 0  0.373211974938222 -0.1031515537153039 0  0.3385725936424656 -0.02355841481827918 0  0.05693481862827446 -0.1711111761535942 0  0.2226017506701603 -0.1306213423698554 0  0.4834446118625366 -0.09366667033152501 0  0.01655538813746335 -0.126333329668475 0  0.4825096030146118 -0.1326572162395438 0  0.01749039698538812 -0.08734278376045618 0  0.3772923679603625 -0.01999366789017346 0  0.01651090378487999 -0.1420833333333333 0  0.48348909621512 -0.07791666666666669 0  0.2083850969976113 -0.06098599897318754 0  0.3496303726904554 -0.1333395240176083 0  0.3051888980043784 -0.1167126520442686 0  0.2175622493287656 -0.08816391583608728 0  0.421331648509181 -0.05567865783938017 0  0.2036856364456695 -0.0217459550834085 0  0.3419325538888507 -0.04719577702332296 0  0.3412491916251918 -0.1996737604301947 0  0.4838834006315611 -0.1786454571355643 0  0.01611659936843887 -0.0413545428644357 0  0.172916357627664 -0.04916537131395513 0  0.4024134926805814 -0.2009331510593763 0  0.2424815730009992 -0.02045273553971888 0  0.1462759520833398 -0.1337233768065287 0  0.2346404539413744 -0.0484884977905098 0  0.09697638824467633 -0.01835062747588986 0  0.3376316573341132 -0.1736137832302001 0  0.1473441332611047 -0.09306137774954895 0  0.434705037373379 -0.114505364151485 0  0.0768089501139663 -0.1390499296181859 0  0.2037322897871967 -0.1695319781453501 0  0.2796822656650553 -0.2007669332776081 0  0.2910707535484897 -0.1516548901144321 0  0.414355300365443 -0.1140560482952263 0  0.09372496308173206 -0.1210763918452149 0  0.3897041267298961 -0.06995384811683555 0  0.4607061536274312 -0.2009522278863767 0  0.03767528917450519 -0.01920779542340162 0  0.06550910726222195 -0.1022565085744684 0  0.05021276002452402 -0.04427151993747909 0  0.4497875067624045 -0.1757266867012744 0  0.2685456651208211 -0.05149244248160013 0  0.1924991911245588 -0.1082791409797235 0  0.4653652048205058 -0.1036696603203247 0  0.03478864406010496 -0.1162949466270758 0  0.03530598512279109
[...]
<PointData  Vectors="displacement"> 
<DataArray  type="Float64"  Name="displacement"  NumberOfComponents="3" format="ascii">-5.3036102432176633e-03 -2.4579397709512694e-02 0.0000000000000000e+00  5.3034648518957813e-03 -2.4578567144786664e-02 0.0000000000000000e+00  1.2495513732670890e-04 -1.7750342565519010e-04 0.0000000000000000e+00  -1.2231723246093379e-04 -1.7757249030595233e-04 0.0000000000000000e+00  -5.3056837919288058e-03 -2.5143451998013686e-02 0.0000000000000000e+00  -5.3142219466614255e-03 -2.5631646847184344e-02 0.0000000000000000e+00  -5.2982782283278766e-03 -2.5985535312305928e-02 0.0000000000000000e+00  -5.2447242840310973e-03 -2.6240727353597896e-02 0.0000000000000000e+00  -5.1483192324925974e-03 -2.6403979014190556e-02 0.0000000000000000e+00  -5.0067339504515579e-03 -2.6488069094905059e-02 0.0000000000000000e+00  -4.8129802595706407e-03 -2.6525541351279831e-02 0.0000000000000000e+00  -4.5877794948301527e-03 -2.6489673146790439e-02 0.0000000000000000e+00  -4.3022586208777362e-03 -2.6469292374998402e-02 0.0000000000000000e+00  -3.9979594682408737e-03 -2.6382526900641013e-02 0.0000000000000000e+00  -3.6571347782619829e-03 -2.6304243855957959e-02 0.0000000000000000e+00  -3.2931314409321896e-03 -2.6219667030814540e-02 0.0000000000000000e+00  -2.9096812526272007e-03 -2.6144960720646371e-02 0.0000000000000000e+00  -2.5132213536367899e-03 -2.6070133185294966e-02 0.0000000000000000e+00  -2.1082668508633270e-03 -2.5991570977554251e-02 0.0000000000000000e+00  -1.6920847635330421e-03 -2.5946506547579334e-02 0.0000000000000000e+00  -1.2735029324140242e-03 -2.5891809840862357e-02 0.0000000000000000e+00  -8.5021800505765462e-04 -2.5859884203488091e-02 0.0000000000000000e+00  -4.2609332408930959e-04 -2.5840555129169326e-02 0.0000000000000000e+00  4.0098945533083289e-08 -2.5836491823961329e-02 0.0000000000000000e+00  4.2506807110054832e-04 -2.5843049435095043e-02 0.0000000000000000e+00  8.4990774345977812e-04 -2.5868971038276799e-02 0.0000000000000000e+00  1.2738783365254412e-03 -2.5890829086553862e-02 0.0000000000000000e+00  1.6930548313136794e-03 -2.5941189881837402e-02 0.0000000000000000e+00  2.1072589678250578e-03 -2.5996277601327594e-02 0.0000000000000000e+00  2.5138747251152362e-03 -2.6066118714748246e-02 0.0000000000000000e+00  2.9093719942667063e-03 -2.6145803326046619e-02 0.0000000000000000e+00  3.2933196587642561e-03 -2.6220677127112745e-02 0.0000000000000000e+00  3.6564688301252489e-03 -2.6303513819237935e-02 0.0000000000000000e+00  3.9978521530467832e-03 -2.6383835255565938e-02 0.0000000000000000e+00  4.3050857599953108e-03 -2.6458807659002007e-02 0.0000000000000000e+00  4.5778722434972165e-03 -2.6506994388248609e-02 0.0000000000000000e+00  4.8167409638429992e-03 -2.6515646918759787e-02 0.0000000000000000e+00  5.0110812963114438e-03 -2.6485661734566037e-02 0.0000000000000000e+00  5.1468155190130373e-03 -2.6404789693835060e-02 0.0000000000000000e+00  5.2461631866841585e-03 -2.6246546415624097e-02 0.0000000000000000e+00  5.2982734316083845e-03 -2.5982683516252270e-02 0.0000000000000000e+00  5.3094118039547205e-03 -2.5631255235494536e-02 0.0000000000000000e+00  5.3047460488225709e-03 -2.5149015716119587e-02 0.0000000000000000e+00  5.7446600451869709e-03 -2.4518240595072901e-02 0.0000000000000000e+00  6.1958147447197208e-03 -2.4354201179353042e-02 0.0000000000000000e+00  6.6537414708919820e-03 -2.4090005561631656e-02 0.0000000000000000e+00  7.1215995170309885e-03 -2.3735091112845576e-02 0.0000000000000000e+00  7.5832880524643754e-03 -2.3297257125819256e-02 0.0000000000000000e+00  8.0350473990417910e-03 -2.2783682236717985e-02 0.0000000000000000e+00  8.4586677673111361e-03 -2.2195171180501884e-02 0.0000000000000000e+00  8.8466057799879236e-03 -2.1540062898168455e-02 0.0000000000000000e+00  9.1885942255104172e-03 -2.0829316157410821e-02 0.0000000000000000e+00  9.4694851625412597e-03 -2.0052357163991230e-02 0.0000000000000000e+00  9.6720427484749631e-03 -1.9205619260021206e-02 0.0000000000000000e+00  9.7989706273769617e-03 -1.8309945902942725e-02 0.0000000000000000e+00  9.8296337645014838e-03 -1.7347225331051423e-02 0.0000000000000000e+00  9.7583353377095703e-03 -1.6327867511547686e-02 0.0000000000000000e+00  9.5810267172034679e-03 -1.5247533227292619e-02 0.0000000000000000e+00  9.2720643902749703e-03 -1.4099405071176168e-02 0.0000000000000000e+00  8.8381485951873565e-03 -1.2890199798931521e-02 0.0000000000000000e+00  8.2548899377640032e-03 -1.1603794197179879e-02 0.0000000000000000e+00  7.5208316879650542e-03 -1.0227520234687591e-02 0.0000000000000000e+00  6.6090803126545314e-03 -8.7349996848361412e-03 0.0000000000000000e+00  5.5175282510300542e-03 -7.1276786127325801e-03 0.0000000000000000e+00  4.1855684063670656e-03 -5.3286436566424939e-03 0.0000000000000000e+00  2.5421902297465427e-03 -3.2118012413207488e-03 0.0000000000000000e+00  -4.5125374990255128e-05 2.9808317411004303e-05 0.0000000000000000e+00  -5.2334438084865089e-06 1.1904723265964262e-06 0.0000000000000000e+00  -2.3635075618936954e-05 1.6682268848192522e-05 0.0000000000000000e+00  7.0398610796392218e-07 5.0806522882107241e-06 0.0000000000000000e+00  -1.6234722461189374e-05 1.1382041560194499e-05 0.0000000000000000e+00  -5.3085296492739452e-06 3.9060453447411239e-06 0.0000000000000000e+00  -2.1465448478014857e-06 5.9439559407783801e-06 0.0000000000000000e+00  2.5057170221569562e-06 1.6909163024019244e-06 0.0000000000000000e+00  -1.6633877786381340e-06 1.6376591621055499e-06 0.0000000000000000e+00  1.2667013111423789e-06 3.9321902308154866e-06 0.0000000000000000e+00  5.3136802294148723e-06 3.4179255834980610e-06 0.0000000000000000e+00  5.4853859731729098e-07 3.3186179581808873e-06 0.0000000000000000e+00  6.5540241600476725e-06 3.7668220294845260e-06 0.0000000000000000e+00  -4.1314701437096362e-07 2.9088425825601891e-06 0.0000000000000000e+00  1.5467239804798059e-06 1.6705009900941904e-06 0.0000000000000000e+00  2.4588198617941277e-06 3.2159576425246955e-06 0.0000000000000000e+00  -4.6132807541990628e-07 2.5708477187775641e-06 0.0000000000000000e+00  2.3886160754655931e-06 1.9346484735257225e-06 0.0000000000000000e+00  -2.2110619859938601e-06 1.7019532922558409e-06 0.0000000000000000e+00  1.3455151098475104e-06 1.9531353296342597e-06 0.0000000000000000e+00  1.9568919772427540e-07 3.3372112954680937e-06 0.0000000000000000e+00  -1.7892637117724739e-06 2.4561678887524298e-06 0.0000000000000000e+00  9.9270157703431960e-07 2.3517860554611421e-06 0.0000000000000000e+00  -4.6138926058581275e-06 2.3621152654936779e-06 0.0000000000000000e+00  6.7937307845153598e-07 2.8702184165803386e-06 0.0000000000000000e+00  2.9529454528543711e-06 1.8463050082902246e-06 0.0000000000000000e+00  -2.6011046943837108e-06 2.4301884508061419e-06 0.0000000000000000e+00  -1.5514065264295993e-07 2.0375706214431844e-06 0.0000000000000000e+00  -5.7814217762324661e-06 3.5386849335967055e-06 0.0000000000000000e+00  -2.9246584919869653e-06 5.2258560241994262e-06 0.0000000000000000e+00  3.5515224278118475e-07 9.8812521329792393e-07 0.0000000000000000e+00  8.1265364030402849e-06 4.9875860199291144e-06 0.0000000000000000e+00  4.5742199244875969e-08 1.5968648427267257e-06 0.0000000000000000e+00  -1.2203518668380997e-05 4.7438368769806835e-06 0.0000000000000000e+00  4.1822344808976184e-07 7.6376622601432702e-06 0.0000000000000000e+00  1.2321246185986325e-05 6.7484867815841470e-06 0.0000000000000000e+00  -8.2656195351748949e-07 2.7931864783656714e-06 0.0000000000000000e+00  1.5274333469018068e-05 1.0126213433957825e-05 0.0000000000000000e+00  5.3273925913079149e-05 4.0547020476700471e-05 0.0000000000000000e+00  -2.5413002743538801e-03 -3.2095723828141783e-03 0.0000000000000000e+00  -4.1829124713558333e-03 -5.3268233073101622e-03 0.0000000000000000e+00  -5.5157054612484831e-03 -7.1259572813348118e-03 0.0000000000000000e+00  -6.6128406311539347e-03 -8.7368101911646252e-03 0.0000000000000000e+00  -7.5227352346454003e-03 -1.0225384378576997e-02 0.0000000000000000e+00  -8.2554081518221092e-03 -1.1596118966876163e-02 0.0000000000000000e+00  -8.8357914988669572e-03 -1.2893799191176681e-02 0.0000000000000000e+00  -9.2701758686385225e-03 -1.4105620502431139e-02 0.0000000000000000e+00  -9.5785103526484418e-03 -1.5249805134974877e-02 0.0000000000000000e+00  -9.7631825216826125e-03 -1.6331775384059000e-02 0.0000000000000000e+00  -9.8287580019721116e-03 -1.7348535678324846e-02 0.0000000000000000e+00  -9.7981752606071722e-03 -1.8306435659464663e-02 0.0000000000000000e+00  -9.6736485672564397e-03 -1.9208343907180275e-02 0.0000000000000000e+00  -9.4662827026207753e-03 -2.0047515909700088e-02 0.0000000000000000e+00  -9.1913784950400888e-03 -2.0834259359542608e-02 0.0000000000000000e+00  -8.8493226029682515e-03 -2.1546955536809551e-02 0.0000000000000000e+00  -8.4594985246250649e-03 -2.2199573773484749e-02 0.0000000000000000e+00  -8.0336269686578470e-03 -2.2779736152614673e-02 0.0000000000000000e+00  -7.5829111119122125e-03 -2.3295353784078786e-02 0.0000000000000000e+00  -7.1218963351957713e-03 -2.3734193540852953e-02 0.0000000000000000e+00  -6.6532698137328683e-03 -2.4090075836245117e-02 0.0000000000000000e+00  -6.1959373264265285e-03 -2.4355038767250949e-02 0.0000000000000000e+00  -5.7442981210970093e-03 -2.4517878321658852e-02 0.0000000000000000e+00  -5.0218204200474029e-03 -1.8503270305997608e-02 0.0000000000000000e+00  4.9246977550991642e-03 -1.7329334588650123e-02 0.0000000000000000e+00  1.0408603258658259e-03 -1.7510600807175234e-02 0.0000000000000000e+00  -1.5523448870702736e-03 -1.4903012398297754e-02 0.0000000000000000e+00  -5.8566160532621380e-03 -1.1748010714639148e-02 0.0000000000000000e+00  6.7090141544089588e-03 -2.3044632546544326e-02 0.0000000000000000e+00  -6.6031194695768047e-03 -2.3730677134609118e-02 0.0000000000000000e+00  5.5308512492475556e-03 -1.0305056627734475e-02 0.0000000000000000e+00  3.0116969819392360e-03 -2.2388506083118771e-02 0.0000000000000000e+00  -6.7350953811467378e-04 -2.2067351601472638e-02 0.0000000000000000e+00  2.0880558786826992e-03 -1.1045954205877709e-02 0.0000000000000000e+00  -2.8733839095515671e-03 -2.2665058946427102e-02 0.0000000000000000e+00  -2.6623272904407959e-03 -1.0825640399479683e-02 0.0000000000000000e+00  -4.1505802590054688e-05 -1.0168452516458822e-02 0.0000000000000000e+00  7.6797715040181477e-03 -1.7627419780898854e-02 0.0000000000000000e+00  -7.7267094452599973e-03 -1.8838402067992571e-02 0.0000000000000000e+00  1.1981952133792834e-03 -2.3411549049313311e-02 0.0000000000000000e+00  3.0953181435534939e-03 -8.8713242048944832e-03 0.0000000000000000e+00  -4.6156763563660547e-03 -2.4136573759743603e-02 0.0000000000000000e+00  4.5934316187080711e-03 -2.4345874733790344e-02 0.0000000000000000e+00  7.2431461521535359e-04 -7.7416896789663315e-03 0.0000000000000000e+00  -4.5692146684876388e-03 -6.6978868903797041e-03 0.0000000000000000e+00  6.6545986943449612e-03 -2.4770066680307012e-02 0.0000000000000000e+00  -1.1668603736191422e-03 -7.5469337373716937e-03 0.0000000000000000e+00  -3.1624354590152051e-03 -1.7272431867777674e-02 0.0000000000000000e+00  -3.4824993068170354e-04 -1.6908723359491454e-02 0.0000000000000000e+00  -3.0770328449442777e-03 -7.6009203586975957e-03 0.0000000000000000e+00  3.2470435971703876e-03 -1.7582695292480247e-02 0.0000000000000000e+00  -1.7962610820617274e-03 -2.4301064136308184e-02 0.0000000000000000e+00  5.2509449560941591e-03 -7.4833620689498869e-03 0.0000000000000000e+00  -6.7394516153042898e-03 -2.4686748500193038e-02 0.0000000000000000e+00  -8.0276201289800325e-03 -2.1913919860275886e-02 0.0000000000000000e+00  7.8827987567868137e-03 -1.3767708226634839e-02 0.0000000000000000e+00  -8.1202742909603793e-03 -1.4795082292020078e-02 0.0000000000000000e+00  8.2086552397217464e-03 -2.1210270433981732e-02 0.0000000000000000e+00  -1.7622475145090230e-03 -2.0155851426683778e-02 0.0000000000000000e+00  8.3371699238804592e-05 -2.4544870114565027e-02 0.0000000000000000e+00  2.3216519515594797e-03 -2.4748249598910654e-02 0.0000000000000000e+00  5.4383204183290589e-03 -2.5442667384710377e-02 0.0000000000000000e+00  -4.7336021382159551e-03 -1.3339793564173176e-02 0.0000000000000000e+00  -4.1825541144624906e-04 -6.1086161946880000e-03 0.0000000000000000e+00  1.5771425652622603e-03 -5.9729546609346091e-03 0.0000000000000000e+00  -3.4465654627590134e-03 -2.5080007377261699e-02 0.0000000000000000e+00  4.3309298820510753e-03 -2.1264540223947737e-02 0.0000000000000000e+00  -6.3756809243520193e-03 -2.0781644621038573e-02 0.0000000000000000e+00  5.9533783949220999e-03 -1.4968625448819233e-02 0.0000000000000000e+00  2.1699215367374136e-03 -1.9151566800732253e-02 0.0000000000000000e+00  3.4613402154933448e-03 -2.5059826965755438e-02 0.0000000000000000e+00  6.4449872305506872e-03 -1.9577751201744511e-02 0.0000000000000000e+00  3.4655053093691530e-04 -2.0851646909848115e-02 0.0000000000000000e+00  -5.2677159320205858e-03 -2.5531665919802150e-02 0.0000000000000000e+00  2.7675043756328352e-03 -5.6737343731069209e-03 0.0000000000000000e+00  1.4628297693215914e-03 -1.3398336527784604e-02 0.0000000000000000e+00  -4.1186347613100726e-03 -2.1128476450838905e-02 0.0000000000000000e+00  -3.0164069909168929e-03 -5.4461520643805965e-03 0.0000000000000000e+00  3.5293025233597642e-03 -1.3462107656916238e-02 0.0000000000000000e+00  9.6378369787542353e-04 -5.7100006813150745e-03 0.0000000000000000e+00  1.7403489389320441e-04 -5.9792867504621589e-03 0.0000000000000000e+00  -6.2590037863301390e-03 -1.6632259871153927e-02 0.0000000000000000e+00  -1.3047454242864338e-03 -5.5593674504959781e-03 0.0000000000000000e+00  -7.7654541959133240e-04 -1.1296784001095413e-02 0.0000000000000000e+00  4.9636602262914209e-04 -1.2824204610518959e-02 0.0000000000000000e+00  -2.2574349433164523e-03 -1.3103393345509372e-02 0.0000000000000000e+00  5.5587187809427582e-03 -2.2401600314840335e-02 0.0000000000000000e+00  -3.8266571206713742e-03 -1.5139149025597846e-02 0.0000000000000000e+00  7.7539095774196536e-03 -2.3035187253728783e-02 0.0000000000000000e+00  -7.5100562714801649e-03 -1.1759532777533581e-02 0.0000000000000000e+00  8.8809533274172379e-03 -1.7792261280552800e-02 0.0000000000000000e+00  -8.8580671036907910e-03 -1.8910420114843906e-02 0.0000000000000000e+00  -8.4480783363391574e-04 -2.4949578367035919e-02 0.0000000000000000e+00  -1.6074084018379362e-03 -4.8201448114426849e-03 0.0000000000000000e+00  2.8450676552960125e-03 -4.5305961394092311e-03 0.0000000000000000e+00  -5.8173114163696180e-03 -2.5678837401466439e-02 0.0000000000000000e+00  4.5416607435653442e-03 -1.0871172428237362e-02 0.0000000000000000e+00  -5.5737488218136136e-03 -2.3200492005210942e-02 0.0000000000000000e+00  -2.5340070890578562e-03 -2.5296455112609369e-02 0.0000000000000000e+00  2.0342616487650017e-03 -2.2246258313595505e-02 0.0000000000000000e+00  9.6941564002602908e-04 -2.5166786199680730e-02 0.0000000000000000e+00  -3.4952913956340804e-03 -4.3476423494789619e-03 0.0000000000000000e+00  6.1170659208140089e-03 -2.5260946726003004e-02 0.0000000000000000e+00  3.4592288225888290e-03 -4.2246911686445654e-03 0.0000000000000000e+00  -6.1690872719899412e-03 -2.5151576023827598e-02 0.0000000000000000e+00  -4.2409024961095930e-03 -2.5715217535075920e-02 0.0000000000000000e+00  1.6314852150386974e-03 -4.5096846841445820e-03 0.0000000000000000e+00  7.4169902422609882e-03 -1.1040576447066797e-02 0.0000000000000000e+00  -7.7205244644868087e-03 -2.3287854221551621e-02 0.0000000000000000e+00  2.2898169601617167e-03 -1.5791718947093178e-02 0.0000000000000000e+00  4.6193408552316871e-03 -2.5850409416521811e-02 0.0000000000000000e+00  1.2683239311408233e-03 -2.0696973412142688e-02 0.0000000000000000e+00  -2.5420356059546760e-03 -1.9551891317187209e-02 0.0000000000000000e+00  -1.0809268395786883e-03 -1.7456939547308488e-02 0.0000000000000000e+00  5.7312448611954933e-03 -2.5821273590415725e-02 0.0000000000000000e+00  -7.2431876302423157e-03 -2.1469648871169505e-02 0.0000000000000000e+00  6.8921286581035317e-03 -1.4236415845862858e-02 0.0000000000000000e+00  3.8590108432615083e-03 -2.3460744520201342e-02 0.0000000000000000e+00  7.3709194890387809e-03 -2.0368122358633108e-02 0.0000000000000000e+00  -5.0572307596189634e-03 -2.1625228528456875e-02 0.0000000000000000e+00  -7.1932453599440234e-03 -1.5712843388416001e-02 0.0000000000000000e+00  4.4451822863928311e-03 -1.3438452864768165e-02 0.0000000000000000e+00  -5.2177182465064083e-04 -4.0222805837860356e-03 0.0000000000000000e+00  -3.4799008563070385e-03 -1.0314269531334554e-02 0.0000000000000000e+00  -2.0699976128132312e-03 -2.2574928462743591e-02 0.0000000000000000e+00  -8.4408295539989178e-05 -4.0349299974456448e-03 0.0000000000000000e+00  2.6280433843992360e-03 -9.6862272664965440e-03 0.0000000000000000e+00  -3.8164937731825590e-03 -2.3556155290957542e-02 0.0000000000000000e+00  4.8859454955949347e-04 -4.0060537233780448e-03 0.0000000000000000e+00  1.3879482743571999e-03 -9.4839852245374515e-03 0.0000000000000000e+00  2.5027967641811174e-04 -1.8133072461567531e-02 0.0000000000000000e+00  6.1948679193114375e-03 -2.4790999325726027e-02 0.0000000000000000e+00  4.1516575683909476e-04 -9.2713889353618593e-03 0.0000000000000000e+00  -2.7408463360652766e-04 -1.9955699985388493e-02 0.0000000000000000e+00  4.3692273329124866e-06 -1.4385731733428664e-02 0.0000000000000000e+00  6.9729084387070801e-03 -2.4340420603303936e-02 0.0000000000000000e+00  -6.0256682471742304e-03 -8.0708309002565440e-03 0.0000000000000000e+00  -4.5881542192704591e-03 -1.0425716218165992e-02 0.0000000000000000e+00  -1.7982648257504107e-03 -3.8287357056767594e-03 0.0000000000000000e+00  -1.2929872502106649e-03 -1.1094181234834457e-02 0.0000000000000000e+00  -2.3164389694572234e-03 -1.6545720100023652e-02 0.0000000000000000e+00  -4.0080227903352044e-03 -1.8276576003289188e-02 0.0000000000000000e+00  -2.2670482703731685e-03 -3.3817596620853555e-03 0.0000000000000000e+00  -1.8457609901946712e-03 -9.3709430701122681e-03 0.0000000000000000e+00  1.7196752495713403e-03 -2.5357996370414707e-02 0.0000000000000000e+00  -6.9511846311898495e-03 -1.2606947957340364e-02 0.0000000000000000e+00  7.4185481788065335e-03 -2.2666512726463400e-02 0.0000000000000000e+00  3.1684883274906141e-05 -2.2699416739898084e-02 0.0000000000000000e+00  5.0884576725685575e-03 -2.0473425981183058e-02 0.0000000000000000e+00  6.5802197495742820e-03 -1.0991741306990776e-02 0.0000000000000000e+00  -7.2637998287887829e-03 -2.3410255197858935e-02 0.0000000000000000e+00  -6.7498815058120078e-04 -3.5618932845028835e-03 0.0000000000000000e+00  3.4630602481160403e-03 -2.0434644226769893e-02 0.0000000000000000e+00  4.1460001847314449e-03 -1.8687613469455099e-02 0.0000000000000000e+00  2.8648993851137874e-03 -2.5560490629551853e-02 0.0000000000000000e+00  -4.7858989269698466e-03 -8.3750551725138619e-03 0.0000000000000000e+00  -7.3989367885864197e-04 -1.4516466619934013e-02 0.0000000000000000e+00  8.9564643575856129e-03 -2.0162647095268223e-02 0.0000000000000000e+00  -9.0762676475079039e-03 -1.6335827108567288e-02 0.0000000000000000e+00  8.9085202056055010e-03 -1.5468140622864696e-02 0.0000000000000000e+00  -8.7792317820239822e-03 -2.0811478360600096e-02 0.0000000000000000e+00  4.0308106017032733e-03 -2.5965032009602516e-02 0.0000000000000000e+00  -8.6696948246681900e-03 -1.4161672145787760e-02 0.0000000000000000e+00  8.5415043063958099e-03 -2.1668958320013375e-02 0.0000000000000000e+00  -1.3381034298239683e-03 -2.2933715601379044e-02 0.0000000000000000e+00  2.8691352058383083e-03 -1.4226265697167624e-02 0.0000000000000000e+00  1.6332905193061733e-03 -1.6568938774606339e-02 0.0000000000000000e+00  -1.0186048302416064e-03 -2.0173672077841525e-02 0.0000000000000000e+00  5.7890426353052211e-03 -2.4115504232043047e-02 0.0000000000000000e+00  -1.5128380743737841e-03 -2.5391229846942125e-02 0.0000000000000000e+00  2.9947817312577021e-03 -2.4266828546717415e-02 0.0000000000000000e+00  7.7163401270287997e-04 -3.3372474666111111e-03 0.0000000000000000e+00  6.1690162475426793e-03 -8.2266339110822883e-03 0.0000000000000000e+00  -7.0793985493676562e-03 -2.421124126262385