<?xml version="1.0"?>
<VTKFile type="UnstructuredGrid"  version="0.1"  >
<UnstructuredGrid>
<Piece  NumberOfPoints="1121" NumberOfCells="2112">
<Points>
<DataArray  type="Float64"  NumberOfComponents="3"  format="ascii">0 0 0  0.5 0 0  0.5 -0.22 0  0 -0.22 0  0.0125 0 0  0.025 0 0  0.03750000000000001 0 0  0.05 0 0  0.0625 0 0  0.07500000000000001 0 0  0.08750000000000001 0 0  0.1 0 0  0.1125 0 0  0.125 0 0  0.1375 0 0  0.15 0 0  0.1625 0 0  0.175 0 0  0.1875 0 0  0.2 0 0  0.2125 0 0  0.225 0 0  0.2375 0 0  0.25 0 0  0.2625 0 0  0.275 0 0  0.2875 0 0  0.3 0 0  0.3124999999999999 0 0  0.325 0 0  0.3375 0 0  0.35 0 0  0.3625 0 0  0.375 0 0  0.3875 0 0  0.4 0 0  0.4125 0 0  0.425 0 0  0.4375 0 0  0.45 0 0  0.4625 0 0  0.475 0 0  0.4875 0 0  0.5 -0.00916666666666667 0  0.5 -0.01833333333333334 0  0.5 -0.02750000000000001 0  0.5 -0.03666666666666668 0  0.5 -0.04583333333333335 0  0.5 -0.05500000000000002 0  0.5 -0.06416666666666669 0  0.5 -0.07333333333333336 0  0.5 -0.08250000000000002 0  0.5 -0.09166666666666669 0  0.5 -0.1008333333333334 0  0.5 -0.11 0  0.5 -0.1191666666666667 0  0.5 -0.1283333333333334 0  0.5 -0.1375 0  0.5 -0.1466666666666667 0  0.5 -0.1558333333333333 0  0.5 -0.165 0  0.5 -0.1741666666666667 0  0.5 -0.1833333333333333 0  0.5 -0.1925 0  0.5 -0.2016666666666667 0  0.5 -0.2108333333333333 0  0.4875 -0.22 0  0.475 -0.22 0  0.4625 -0.22 0  0.45 -0.22 0  0.4375 -0.22 0  0.425 -0.22 0  0.4125 -0.22 0  0.4 -0.22 0  0.3875 -0.22 0  0.375 -0.22 0  0.3625 -0.22 0  0.35 -0.22 0  0.3375 -0.22 0  0.325 -0.22 0  0.3125 -0.22 0  0.3 -0.22 0  0.2875 -0.22 0  0.275 -0.22 0  0.2625 -0.22 0  0.25 -0.22 0  0.2375 -0.22 0  0.225 -0.22 0  0.2125 -0.22 0  0.2 -0.22 0  0.1875000000000001 -0.22 0  0.175 -0.22 0  0.1625 -0.22 0  0.15 -0.22 0  0.1375 -0.22 0  0.125 -0.22 0  0.1125 -0.22 0  0.09999999999999998 -0.22 0  0.08749999999999997 -0.22 0  0.07499999999999996 -0.22 0  0.0625 -0.22 0  0.04999999999999999 -0.22 0  0.03750000000000003 -0.22 0  0.02500000000000002 -0.22 0  0.01250000000000001 -0.22 0  0 -0.2108333333333333 0  0 -0.2016666666666667 0  0 -0.1925 0  0 -0.1833333333333333 0  0 -0.1741666666666666 0  0 -0.165 0  0 -0.1558333333333333 0  0 -0.1466666666666666 0  0 -0.1375 0  0 -0.1283333333333333 0  0 -0.1191666666666666 0  0 -0.11 0  0 -0.1008333333333333 0  0 -0.09166666666666665 0  0 -0.08249999999999999 0  0 -0.07333333333333333 0  0 -0.06416666666666668 0  0 -0.05499999999999999 0  0 -0.04583333333333331 0  0 -0.03666666666666665 0  0 -0.0275 0  0 -0.01833333333333334 0  0 -0.009166666666666684 0  0.1054583333333335 -0.1054166666666667 0  0.3942676334017064 -0.1137728325038039 0  0.2847879184121186 -0.1095588156798053 0  0.1945032948335413 -0.1282408799476467 0  0.06153506715537374 -0.1512727221728088 0  0.4399056412223469 -0.06797859302281792 0  0.05788181883779472 -0.06001948808334377 0  0.4421098014386607 -0.1599837267347342 0  0.3413511741034609 -0.06957267157055583 0  0.2288650014326337 -0.07000139022125416 0  0.3374198095657364 -0.153292781564552 0  0.1625149941501948 -0.06635759941053934 0  0.1410798075665959 -0.1547982873744018 0  0.2480541718311375 -0.1584999930406966 0  0.4521112869309225 -0.1144576824167908 0  0.04769384748510372 -0.1054790589784799 0  0.2872553124970689 -0.0549183148201307 0  0.3883603170589741 -0.1667590078701163 0  0.1113816725357426 -0.05349980002187416 0  0.388663619148569 -0.05083099728992514 0  0.2924675002385118 -0.1733355444551434 0  0.03957129721715399 -0.1820306497250263 0  0.463886478278041 -0.04123097885421483 0  0.1819898664669143 -0.1745112248447572 0  0.1501955722423063 -0.1126410264576243 0  0.2381168692527681 -0.1138631020717532 0  0.09896708868237117 -0.1743617443889283 0  0.351521105495953 -0.110482033201648 0  0.1944214316144394 -0.04364751139729321 0  0.4676096572335854 -0.17875 0  0.0323903427664145 -0.04125 0  0.03139627442974444 -0.07791666666666666 0  0.4686037255702555 -0.1420833333333333 0  0.03146427625974824 -0.1353922207127977 0  0.4687538427589449 -0.08499498352404596 0  0.1945393885069078 -0.08884182758867265 0  0.2525813348104176 -0.03744007417230172 0  0.3217010222371471 -0.03764154129720884 0  0.4222469886470394 -0.03586904090069724 0  0.09663319060065351 -0.1401271138728219 0  0.2193792666828137 -0.183158231426584 0  0.3560154827479793 -0.1838943099753877 0  0.1434582748922029 -0.03603411582704523 0  0.3765333185963097 -0.08241017292348579 0  0.07538111331820632 -0.08899587837746269 0  0.423855991190923 -0.1306886077643884 0  0.3185210010305527 -0.09753607818954631 0  0.3569762884570115 -0.03650734503769727 0  0.4254213410091923 -0.0987078979590463 0  0.2610082403268991 -0.0817800662321487 0  0.0828105113527246 -0.0341734786714956 0  0.4171399376253134 -0.185803221952863 0  0.3057870365127394 -0.1382026892003179 0  0.12895829204953 -0.08335230948371621 0  0.06875298785225953 -0.187362820013113 0  0.3717868049890677 -0.1386048615715364 0  0.321448533906611 -0.1855116827647124 0  0.26298072168791 -0.1839420817131204 0  0.07484000163200957 -0.1198633334100699 0  0.1547686158654376 -0.1863750548878711 0  0.216059367308573 -0.1515159536473182 0  0.2699691944498949 -0.1417527519042215 0  0.1656185503016955 -0.1403556565429203 0  0.4083071195762781 -0.07378364169239227 0  0.1267131755037155 -0.1278660972450704 0  0.4735015828166597 -0.0640900788079139 0  0.02554956908977171 -0.1556408100003981 0  0.4768150825846236 -0.1145833333333333 0  0.02318491741537634 -0.1054166666666667 0  0.223953700752457 -0.0304451531933032 0  0.1244872804067221 -0.1907232817427361 0  0.4438735214118281 -0.1930008132865749 0  0.05574102313663398 -0.02865323925202035 0  0.4137204188713657 -0.1553454939163003 0  0.08893893095617791 -0.06579816339826482 0  0.1717694871603352 -0.02800139159048265 0  0.3128492556460914 -0.06943040619515532 0  0.2797695783739821 -0.02590934499649085 0  0.02258333333333329 -0.1970833333333333 0  0.4762493762769904 -0.02160603458451191 0  0.4793770768812318 -0.1979934752448725 0  0.02062142143957255 -0.02200567641944876 0  0.1164030865048185 -0.02740272745133866 0  0.3830675041448486 -0.1925667518381948 0  0.4791226873505327 -0.1610342148373401 0  0.02087731264946724 -0.05896578516265992 0  0.3274724693986852 -0.1225305077389053 0  0.3972801610854721 -0.02625449066011495 0  0.2900140160514686 -0.08365001034985962 0  0.1709547781797311 -0.09465470820062212 0  0.2138438311308281 -0.1099941211103435 0  0.4450205721789285 -0.02492933314930469 0  0.05420467580227878 -0.08349945672846135 0  0.4461329107542346 -0.1367113815538408 0  0.3659666316461785 -0.05978339436610505 0  0.44602790301578 -0.09307279226297782 0  0.1051970245947556 -0.08027435556391044 0  0.05333928713341426 -0.1272409570081178 0  0.3959065276465774 -0.1392957050603055 0  0.1954280839215327 -0.1956301054107469 0  0.1114114251973984 -0.1581699686077357 0  0.1861203385256373 -0.06601416834570389 0  0.2411653975579025 -0.1955923650394697 0  0.3655092946697883 -0.1617364087021952 0  0.135090011654307 -0.05852644219278214 0  0.301466572149827 -0.195730962509487 0  0.3171403096460815 -0.1628017925003279 0  0.2583110626374412 -0.1046341192205865 0  0.4408293443687437 -0.04585722764353674 0  0.2712011044137034 -0.1640374945295207 0  0.2411933721253841 -0.08983355018053346 0  0.2501709838730871 -0.1314559421109842 0  0.4829353992284747 -0.03936718280336758 0  0.01826814268142685 -0.17875 0  0.08176459786747367 -0.1581134879103219 0  0.09090727073593149 -0.1966179220907174 0  0.1938567422944586 -0.1528508759815354 0  0.1733129361306733 -0.1172649579021292 0  0.1296640686621583 -0.1060858859555111 0  0.05006156132458137 -0.1998033571646454 0  0.162505650870633 -0.1635353305739766 0  0.30277270753554 -0.02336446206680166 0  0.04392010531002208 -0.1476919574928456 0  0.4570380569409145 -0.07105832940298668 0  0.2509935571465481 -0.06292905082461901 0  0.3948833058972995 -0.09019561948060845 0  0.4598195232581849 -0.1577532743262658 0  0.04018055885339097 -0.06224663359087233 0  0.1730418602576066 -0.1983511585214162 0  0.354008461825654 -0.08842076759065362 0  0.373211974938222 -0.1031515537153039 0  0.3385725936424656 -0.02355841481827918 0  0.05693481862827446 -0.1711111761535942 0  0.2226017506701603 -0.1306213423698554 0  0.4834446118625366 -0.09366667033152501 0  0.01655538813746335 -0.126333329668475 0  0.4825096030146118 -0.1326572162395438 0  0.01749039698538812 -0.08734278376045618 0  0.3772923679603625 -0.01999366789017346 0  0.01651090378487999 -0.1420833333333333 0  0.48348909621512 -0.07791666666666669 0  0.2083850969976113 -0.06098599897318754 0  0.3496303726904554 -0.1333395240176083 0  0.3051888980043784 -0.1167126520442686 0  0.2175622493287656 -0.08816391583608728 0  0.421331648509181 -0.05567865783938017 0  0.2036856364456695 -0.0217459550834085 0  0.3419325538888507 -0.04719577702332296 0  0.3412491916251918 -0.1996737604301947 0  0.4838834006315611 -0.1786454571355643 0  0.01611659936843887 -0.0413545428644357 0  0.172916357627664 -0.04916537131395513 0  0.4024134926805814 -0.2009331510593763 0  0.2424815730009992 -0.02045273553971888 0  0.1462759520833398 -0.1337233768065287 0  0.2346404539413744 -0.0484884977905098 0  0.09697638824467633 -0.01835062747588986 0  0.3376316573341132 -0.1736137832302001 0  0.1473441332611047 -0.09306137774954895 0  0.434705037373379 -0.114505364151485 0  0.0768089501139663 -0.1390499296181859 0  0.2037322897871967 -0.1695319781453501 0  0.2796822656650553 -0.2007669332776081 0  0.2910707535484897 -0.1516548901144321 0  0.414355300365443 -0.1140560482952263 0  0.09372496308173206 -0.1210763918452149 0  0.3897041267298961 -0.06995384811683555 0  0.4607061536274312 -0.2009522278863767 0  0.03767528917450519 -0.01920779542340162 0  0.06550910726222195 -0.1022565085744684 0  0.05021276002452402 -0.04427151993747909 0  0.4497875067624045 -0.1757266867012744 0  0.2685456651208211 -0.05149244248160013 0  0.1924991911245588 -0.1082791409797235 0  0.4653652048205058 -0.1036696603203247 0  0.03478864406010496 -0.1162949466270758 0  0.03530598512279109
[...]
<PointData  Vectors="displacement"> 
<DataArray  type="Float64"  Name="displacement"  NumberOfComponents="3" format="ascii">-2.7894970835025759e-04 -6.6924960906227293e-02 0.0000000000000000e+00  2.7599721284711981e-04 -6.6924219601906212e-02 0.0000000000000000e+00  1.7353883397396746e-04 -2.1181066722263084e-04 0.0000000000000000e+00  -1.7016391501332856e-04 -2.1234559833976571e-04 0.0000000000000000e+00  7.3196619166185291e-05 -6.7282534198726512e-02 0.0000000000000000e+00  -3.4391957750088869e-05 -6.7224942546787916e-02 0.0000000000000000e+00  -2.1109695010493737e-05 -6.7227437219143552e-02 0.0000000000000000e+00  -7.8029660854516449e-06 -6.7226629756137593e-02 0.0000000000000000e+00  3.5994902158616685e-07 -6.7225164642573998e-02 0.0000000000000000e+00  5.7531565069678451e-06 -6.7224285984689505e-02 0.0000000000000000e+00  -1.5223076229696013e-06 -6.7218628296267083e-02 0.0000000000000000e+00  1.0208519824698764e-06 -6.7228129753934135e-02 0.0000000000000000e+00  -1.5340142746161675e-05 -6.7211869737618862e-02 0.0000000000000000e+00  -5.7585357275946109e-06 -6.7221992622343157e-02 0.0000000000000000e+00  -6.1533184121068925e-06 -6.7220613555106959e-02 0.0000000000000000e+00  5.2304419457606131e-07 -6.7219991216203409e-02 0.0000000000000000e+00  -6.4847827441149036e-06 -6.7215029986104569e-02 0.0000000000000000e+00  2.2392074434307142e-06 -6.7212216161183905e-02 0.0000000000000000e+00  2.5088602765031597e-06 -6.7221848724571154e-02 0.0000000000000000e+00  -1.6652859412615594e-06 -6.7211271802956649e-02 0.0000000000000000e+00  -3.5683610609585519e-07 -6.7219964489039150e-02 0.0000000000000000e+00  -2.5405660428039653e-06 -6.7219196616186028e-02 0.0000000000000000e+00  2.4938614790879234e-06 -6.7218424553856654e-02 0.0000000000000000e+00  -5.2609394590103806e-07 -6.7216009601797383e-02 0.0000000000000000e+00  3.9648699988222138e-06 -6.7216027852032470e-02 0.0000000000000000e+00  1.9240018679153701e-06 -6.7210904320424786e-02 0.0000000000000000e+00  -1.9108721284386440e-06 -6.7220368963976387e-02 0.0000000000000000e+00  -3.0708754567185846e-06 -6.7215489702519393e-02 0.0000000000000000e+00  2.3684941782827719e-06 -6.7218254666699243e-02 0.0000000000000000e+00  3.4616880400352830e-07 -6.7216389355666359e-02 0.0000000000000000e+00  2.7844001594864750e-06 -6.7213439759001861e-02 0.0000000000000000e+00  4.1815353936541945e-06 -6.7220046570069900e-02 0.0000000000000000e+00  -1.0913487578176866e-07 -6.7219887840317197e-02 0.0000000000000000e+00  8.9729747415322654e-06 -6.7221552372246279e-02 0.0000000000000000e+00  8.0686448995939789e-06 -6.7217286175437124e-02 0.0000000000000000e+00  -4.6606757290045457e-06 -6.7217258731536264e-02 0.0000000000000000e+00  -6.2990427972814939e-06 -6.7223029959263325e-02 0.0000000000000000e+00  5.2765260501180803e-06 -6.7225574463534887e-02 0.0000000000000000e+00  -1.3501489339879633e-06 -6.7224689622594924e-02 0.0000000000000000e+00  2.0248611557451300e-05 -6.7226434734153864e-02 0.0000000000000000e+00  1.9632228497643032e-05 -6.7225822700480220e-02 0.0000000000000000e+00  -7.6559268994779020e-06 -6.7244086276920259e-02 0.0000000000000000e+00  -6.2273339965255388e-05 -6.7291973882379799e-02 0.0000000000000000e+00  4.5264650911192913e-03 -6.1223477228776413e-02 0.0000000000000000e+00  7.0175529406936556e-03 -5.7249352497700912e-02 0.0000000000000000e+00  8.8314710663085320e-03 -5.3784601664839705e-02 0.0000000000000000e+00  1.0172404771576602e-02 -5.0623745151143831e-02 0.0000000000000000e+00  1.1184383751419447e-02 -4.7634558344755600e-02 0.0000000000000000e+00  1.1917645606640047e-02 -4.4815028924473088e-02 0.0000000000000000e+00  1.2441251252555524e-02 -4.2089218089841264e-02 0.0000000000000000e+00  1.2781685040225688e-02 -3.9470756470797029e-02 0.0000000000000000e+00  1.2974860692583740e-02 -3.6925126198169310e-02 0.0000000000000000e+00  1.3036756139761494e-02 -3.4447911894405832e-02 0.0000000000000000e+00  1.2978851892799218e-02 -3.2034399695116803e-02 0.0000000000000000e+00  1.2822049960768741e-02 -2.9671458004710882e-02 0.0000000000000000e+00  1.2565089227575791e-02 -2.7349042279592829e-02 0.0000000000000000e+00  1.2212476254620562e-02 -2.5068178934214907e-02 0.0000000000000000e+00  1.1770583221381570e-02 -2.2813616185103823e-02 0.0000000000000000e+00  1.1225336278761409e-02 -2.0591963713771762e-02 0.0000000000000000e+00  1.0577013701124790e-02 -1.8385274896892512e-02 0.0000000000000000e+00  9.8137751858244950e-03 -1.6186554571361728e-02 0.0000000000000000e+00  8.9147993749126003e-03 -1.3966831088104217e-02 0.0000000000000000e+00  7.8511437853956839e-03 -1.1697364959881582e-02 0.0000000000000000e+00  6.5998844356780747e-03 -9.3694674484940243e-03 0.0000000000000000e+00  5.0742754849266904e-03 -6.8902117943357832e-03 0.0000000000000000e+00  3.1496778036674191e-03 -4.0990967737557799e-03 0.0000000000000000e+00  -5.2950311548944350e-05 3.8687685819628292e-05 0.0000000000000000e+00  -1.2527225282209825e-06 3.8634133175800279e-06 0.0000000000000000e+00  -2.6759097619544195e-05 2.0997681034765222e-05 0.0000000000000000e+00  4.5712225778275245e-06 7.5657589075540559e-06 0.0000000000000000e+00  -1.6626561782559487e-05 1.3276978324507307e-05 0.0000000000000000e+00  -4.6122064107538007e-06 4.2419759128677709e-06 0.0000000000000000e+00  1.0299084380264399e-07 7.3859358412213837e-06 0.0000000000000000e+00  3.7639774398865156e-06 2.2560390549116849e-06 0.0000000000000000e+00  -9.7325351657642117e-07 1.4877561475183380e-06 0.0000000000000000e+00  3.2783913819692537e-06 5.1337275714825096e-06 0.0000000000000000e+00  7.2457656133768312e-06 4.8266721489713385e-06 0.0000000000000000e+00  2.1489507388343667e-06 4.1124096096709249e-06 0.0000000000000000e+00  8.2713196014424834e-06 5.4015386211395115e-06 0.0000000000000000e+00  6.8925978574336441e-07 3.3724750646408593e-06 0.0000000000000000e+00  2.1302469841693559e-06 2.1432850328853212e-06 0.0000000000000000e+00  3.2925500867357557e-06 3.7964184167221367e-06 0.0000000000000000e+00  1.0291815636498772e-07 3.0289222011665990e-06 0.0000000000000000e+00  2.5743067008213829e-06 2.3537619605974715e-06 0.0000000000000000e+00  -1.9988722043111364e-06 1.8284764274203529e-06 0.0000000000000000e+00  1.3130119170408201e-06 2.4268303043420662e-06 0.0000000000000000e+00  -5.4630997296693708e-08 3.7896365730901786e-06 0.0000000000000000e+00  -2.1187429124014084e-06 2.9760372873252147e-06 0.0000000000000000e+00  4.5234033815290098e-07 2.7974574907028316e-06 0.0000000000000000e+00  -5.1247842554422086e-06 2.7908300734775294e-06 0.0000000000000000e+00  -2.8786989454573542e-07 3.2386122918800461e-06 0.0000000000000000e+00  2.2907119839437280e-06 1.3713352003326882e-06 0.0000000000000000e+00  -3.7008165678983232e-06 3.3840932097952282e-06 0.0000000000000000e+00  -1.1361751399811608e-06 2.2940497763992669e-06 0.0000000000000000e+00  -7.7212172786099409e-06 5.2109473974960990e-06 0.0000000000000000e+00  -5.7252750565747239e-06 6.9036860964047708e-06 0.0000000000000000e+00  -1.9850179428342586e-07 1.0514468648371277e-06 0.0000000000000000e+00  7.0075385129910372e-06 4.7551937152232677e-06 0.0000000000000000e+00  -9.7532112755701171e-07 1.6579179185422498e-06 0.0000000000000000e+00  -1.6577944626076939e-05 8.0873802425824689e-06 0.0000000000000000e+00  -2.7527704464976495e-06 1.0472273374700197e-05 0.0000000000000000e+00  1.3541942292889209e-05 7.7234815516868475e-06 0.0000000000000000e+00  -3.2405587436426819e-06 4.5322473964006474e-06 0.0000000000000000e+00  1.3881284111747898e-05 1.4841672450657497e-05 0.0000000000000000e+00  6.5169768115191812e-05 5.0919320281592607e-05 0.0000000000000000e+00  -3.1483834364944333e-03 -4.0959307436247046e-03 0.0000000000000000e+00  -5.0707295722743620e-03 -6.8882234449808141e-03 0.0000000000000000e+00  -6.5975784281074520e-03 -9.3673398343434699e-03 0.0000000000000000e+00  -7.8549851512020093e-03 -1.1698978097789600e-02 0.0000000000000000e+00  -8.9163088200534431e-03 -1.3964128433454896e-02 0.0000000000000000e+00  -9.8132717371957629e-03 -1.6178027991956990e-02 0.0000000000000000e+00  -1.0577539580049488e-02 -1.8391559954321339e-02 0.0000000000000000e+00  -1.1224027694562525e-02 -2.0600555238569566e-02 0.0000000000000000e+00  -1.1768144337611334e-02 -2.2818851895719992e-02 0.0000000000000000e+00  -1.2214564050158508e-02 -2.5064944236785076e-02 0.0000000000000000e+00  -1.2562524245683463e-02 -2.7351239235239688e-02 0.0000000000000000e+00  -1.2822679544734848e-02 -2.9667554852422617e-02 0.0000000000000000e+00  -1.2980788436101088e-02 -3.2036367618748916e-02 0.0000000000000000e+00  -1.3033766462072457e-02 -3.4453388342779112e-02 0.0000000000000000e+00  -1.2976992610831486e-02 -3.6927104671808104e-02 0.0000000000000000e+00  -1.2782238645845887e-02 -3.9476130526242895e-02 0.0000000000000000e+00  -1.2441679302938104e-02 -4.2089687952834257e-02 0.0000000000000000e+00  -1.1919024320698668e-02 -4.4808072892213877e-02 0.0000000000000000e+00  -1.1181568006394783e-02 -4.7633342697840197e-02 0.0000000000000000e+00  -1.0166635572140878e-02 -5.0629641874062263e-02 0.0000000000000000e+00  -8.8341050932303124e-03 -5.3782854689461174e-02 0.0000000000000000e+00  -7.0217833659983082e-03 -5.7250720458953096e-02 0.0000000000000000e+00  -4.5207333707806109e-03 -6.1233224639654915e-02 0.0000000000000000e+00  -4.9044211338492372e-03 -3.0672290816000702e-02 0.0000000000000000e+00  4.8538441819151049e-03 -2.8133407538477821e-02 0.0000000000000000e+00  8.6234362171132989e-04 -2.9536380442964142e-02 0.0000000000000000e+00  -1.3662996075858452e-03 -2.4053463915035180e-02 0.0000000000000000e+00  -6.2861800711187295e-03 -1.7363364680649064e-02 0.0000000000000000e+00  7.0860393965662865e-03 -4.2578821994805512e-02 0.0000000000000000e+00  -6.8045794425057029e-03 -4.5279709656134252e-02 0.0000000000000000e+00  5.9524994721937641e-03 -1.5019301912585905e-02 0.0000000000000000e+00  2.2180178225091360e-03 -4.2115242549418723e-02 0.0000000000000000e+00  -4.4909029992354008e-04 -4.1922589456012599e-02 0.0000000000000000e+00  1.9593162762085326e-03 -1.6989609730075100e-02 0.0000000000000000e+00  -2.0401506407486292e-03 -4.3183098186462654e-02 0.0000000000000000e+00  -2.5589260407746879e-03 -1.6512249183818266e-02 0.0000000000000000e+00  -3.7442475483845519e-05 -1.5701181449878761e-02 0.0000000000000000e+00  8.7125919008261676e-03 -2.7892715407981966e-02 0.0000000000000000e+00  -8.8456158059740490e-03 -3.0551013447059249e-02 0.0000000000000000e+00  6.8614087468469101e-04 -4.6990046103682147e-02 0.0000000000000000e+00  3.1019646167039015e-03 -1.3201761630683770e-02 0.0000000000000000e+00  -3.4214922635183876e-03 -4.7634185994105051e-02 0.0000000000000000e+00  3.3043903977795232e-03 -4.8558447481341228e-02 0.0000000000000000e+00  6.7354529649121049e-04 -1.1741182582168825e-02 0.0000000000000000e+00  -5.0484229181601645e-03 -9.4341277846226954e-03 0.0000000000000000e+00  6.9284349450587498e-03 -5.1578659781430135e-02 0.0000000000000000e+00  -1.1021946739662954e-03 -1.1390590847151764e-02 0.0000000000000000e+00  -2.8508062140110094e-03 -2.8559665866823420e-02 0.0000000000000000e+00  -2.8892336564657320e-04 -2.8260860876048455e-02 0.0000000000000000e+00  -3.1395947987973476e-03 -1.1169664755131871e-02 0.0000000000000000e+00  2.9232157328103591e-03 -2.9200893322876328e-02 0.0000000000000000e+00  -8.9008642103648248e-04 -5.0909994280068128e-02 0.0000000000000000e+00  5.8649384026328898e-03 -1.0504644905589855e-02 0.0000000000000000e+00  -7.2640343471041622e-03 -5.1453631692941967e-02 0.0000000000000000e+00  -9.9503973499700544e-03 -3.8898046735259872e-02 0.0000000000000000e+00  8.9734577416514198e-03 -2.0357604379462130e-02 0.0000000000000000e+00  -9.3170349158438470e-03 -2.2175710343363967e-02 0.0000000000000000e+00  1.0139626822970507e-02 -3.6680318366284805e-02 0.0000000000000000e+00  -1.3721370940096851e-03 -3.5880186761782215e-02 0.0000000000000000e+00  3.3922630759008865e-05 -5.3087104854261422e-02 0.0000000000000000e+00  1.0523645305829943e-03 -5.3069025115993443e-02 0.0000000000000000e+00  3.7198307815639858e-03 -5.3921373492857270e-02 0.0000000000000000e+00  -4.8081159102340834e-03 -2.0426570670943649e-02 0.0000000000000000e+00  -3.9223623572998367e-04 -9.2099635663089562e-03 0.0000000000000000e+00  1.5489086659878162e-03 -8.8764783830442874e-03 0.0000000000000000e+00  -1.6858327781799007e-03 -5.3711399944276032e-02 0.0000000000000000e+00  3.7832812855159250e-03 -3.7946131062463861e-02 0.0000000000000000e+00  -6.6409812405260225e-03 -3.5759520571453235e-02 0.0000000000000000e+00  6.2768189361734972e-03 -2.3102796216577522e-02 0.0000000000000000e+00  1.7847063263051999e-03 -3.3173908516534331e-02 0.0000000000000000e+00  1.7153647629716108e-03 -5.3540512634794965e-02 0.0000000000000000e+00  6.8028835877804780e-03 -3.2690098910769523e-02 0.0000000000000000e+00  2.5047157099848785e-04 -3.8112251444531939e-02 0.0000000000000000e+00  -3.3652710706726053e-03 -5.4528388734211862e-02 0.0000000000000000e+00  2.8902036930888294e-03 -8.2069374438135771e-03 0.0000000000000000e+00  1.3094871110887836e-03 -2.1226968301196338e-02 0.0000000000000000e+00  -3.5589316949632120e-03 -3.7636666992355336e-02 0.0000000000000000e+00  -3.2050985740308294e-03 -7.8084348812326688e-03 0.0000000000000000e+00  3.4077176838362912e-03 -2.0956150203022134e-02 0.0000000000000000e+00  9.2419927453812943e-04 -8.5490498181700573e-03 0.0000000000000000e+00  1.6274230778317539e-04 -9.0172452301900963e-03 0.0000000000000000e+00  -6.6306039620270124e-03 -2.6264363955239418e-02 0.0000000000000000e+00  -1.2736919909048887e-03 -8.2753541505021181e-03 0.0000000000000000e+00  -6.9977822840166951e-04 -1.7571308606791167e-02 0.0000000000000000e+00  4.3854688691091933e-04 -2.0271076331048868e-02 0.0000000000000000e+00  -2.0808919079619865e-03 -2.0571143481872663e-02 0.0000000000000000e+00  5.2081392740151817e-03 -4.0762260369598645e-02 0.0000000000000000e+00  -3.6710499201037892e-03 -2.4022423435965522e-02 0.0000000000000000e+00  9.8079849574466433e-03 -4.3247211139562675e-02 0.0000000000000000e+00  -8.5351383401100420e-03 -1.6928529747297562e-02 0.0000000000000000e+00  1.0746715559909211e-02 -2.8043782126934345e-02 0.0000000000000000e+00  -1.0914250305352176e-02 -3.0605185591936326e-02 0.0000000000000000e+00  -2.9672620563337440e-04 -5.5617962418351846e-02 0.0000000000000000e+00  -1.6166964937583130e-03 -7.0911215039071848e-03 0.0000000000000000e+00  3.0817399442716340e-03 -6.4261346629363881e-03 0.0000000000000000e+00  -4.0096454376671239e-03 -5.6522487295145557e-02 0.0000000000000000e+00  4.6922066640252133e-03 -1.6195396902485809e-02 0.0000000000000000e+00  -5.0627039984938258e-03 -4.3439323361632011e-02 0.0000000000000000e+00  -9.1108718361458576e-04 -5.6564636459500557e-02 0.0000000000000000e+00  1.4113533948527763e-03 -4.2134731392600364e-02 0.0000000000000000e+00  2.9421817009371424e-04 -5.7286088003029562e-02 0.0000000000000000e+00  -4.0159774576743338e-03 -5.9577307115756921e-03 0.0000000000000000e+00  4.9767832357244047e-03 -5.8655668400986127e-02 0.0000000000000000e+00  3.9948231790058724e-03 -5.7691024172331819e-03 0.0000000000000000e+00  -5.3360053537565063e-03 -5.8374478343567494e-02 0.0000000000000000e+00  -1.8630246046343613e-03 -5.6905905806429756e-02 0.0000000000000000e+00  1.6547347647849994e-03 -6.6100543028996947e-03 0.0000000000000000e+00  8.4694471888928924e-03 -1.5712460616491467e-02 0.0000000000000000e+00  -1.0045858715146226e-02 -4.4737499624137651e-02 0.0000000000000000e+00  2.0393065888134501e-03 -2.5668946671491503e-02 0.0000000000000000e+00  2.1127818546819773e-03 -5.7359971315468418e-02 0.0000000000000000e+00  9.4381060022823724e-04 -3.7519963009451263e-02 0.0000000000000000e+00  -2.1007440007802633e-03 -3.4062601220731237e-02 0.0000000000000000e+00  -8.9824205272636423e-04 -2.9403418876373339e-02 0.0000000000000000e+00  3.5796234103905003e-03 -5.7897696217806369e-02 0.0000000000000000e+00  -8.1293269551620737e-03 -3.7405557272009601e-02 0.0000000000000000e+00  7.5578156022838129e-03 -2.1467353112158895e-02 0.0000000000000000e+00  2.7994036435675567e-03 -4.5433259135484953e-02 0.0000000000000000e+00  8.3113394528154094e-03 -3.4370896842504148e-02 0.0000000000000000e+00  -4.6362541444303195e-03 -3.8636250601153346e-02 0.0000000000000000e+00  -7.9591990974846767e-03 -2.4160767870557404e-02 0.0000000000000000e+00  4.4590076067222862e-03 -2.0683525666861109e-02 0.0000000000000000e+00  -5.0274829669229022e-04 -6.0107343228238295e-03 0.0000000000000000e+00  -3.4746613165675512e-03 -1.5493406040211037e-02 0.0000000000000000e+00  -1.3955861411184167e-03 -4.3266430299895305e-02 0.0000000000000000e+00  -8.0189366584680310e-05 -6.0534796294549548e-03 0.0000000000000000e+00  2.5578357052845092e-03 -1.4621258402492957e-02 0.0000000000000000e+00  -2.7252893098794312e-03 -4.5861839277943295e-02 0.0000000000000000e+00  4.7024457142271099e-04 -5.9897365375301730e-03 0.0000000000000000e+00  1.2930082193288025e-03 -1.4476675200103720e-02 0.0000000000000000e+00  2.0164005343304472e-04 -3.1020210648144048e-02 0.0000000000000000e+00  5.6342820355365442e-03 -5.0275224138920924e-02 0.0000000000000000e+00  3.7868597337855606e-04 -1.4211980157403421e-02 0.0000000000000000e+00  -2.0774184929573552e-04 -3.5562950955024916e-02 0.0000000000000000e+00  3.8602018712818396e-06 -2.3167534853474444e-02 0.0000000000000000e+00  8.5742601838922298e-03 -5.1372782114597955e-02 0.0000000000000000e+00  -6.8949387657757854e-03 -1.1173808913724943e-02 0.0000000000000000e+00  -4.7694177845054872e-03 -1.5435495270428142e-02 0.0000000000000000e+00  -1.8758854364877488e-03 -5.5378100670278709e-03 0.0000000000000000e+00  -1.1815041326087767e-03 -1.7178380753474352e-02 0.0000000000000000e+00  -2.0389461279602234e-03 -2.7213527289474116e-02 0.0000000000000000e+00  -3.7072304729429814e-03 -3.0506465770962547e-02 0.0000000000000000e+00  -2.4858243858920204e-03 -4.7665636733618096e-03 0.0000000000000000e+00  -1.7496501440302909e-03 -1.4230266912122487e-02 0.0000000000000000e+00  4.8692139936744799e-04 -5.8242778170412818e-02 0.0000000000000000e+00  -7.6969744696338983e-03 -1.8553594324658654e-02 0.0000000000000000e+00  8.6406944257542400e-03 -4.1333825095846245e-02 0.0000000000000000e+00  1.9717035571096424e-05 -4.4263131571783826e-02 0.0000000000000000e+00  4.8241424810527029e-03 -3.5434311651854032e-02 0.0000000000000000e+00  7.2842515656830614e-03 -1.5893146883639193e-02 0.0000000000000000e+00  -8.4211084128276090e-03 -4.4239380493059574e-02 0.0000000000000000e+00  -6.6092518157925156e-04 -5.3007098545544869e-03 0.0000000000000000e+00  2.9298898985944824e-03 -3.6014960265521791e-02 0.0000000000000000e+00  3.8356303678366808e-03 -3.1401153893546287e-02 0.0000000000000000e+00  9.0768329732407893e-04 -5.8215263348811344e-02 0.0000000000000000e+00  -5.1483303453680749e-03 -1.2052358232832308e-02 0.0000000000000000e+00  -6.4275081386198593e-04 -2.3400064158378382e-02 0.0000000000000000e+00  1.1552488869184944e-02 -3.3952924578277054e-02 0.0000000000000000e+00  -1.0923296947662418e-02 -2.4997464062250247e-02 0.0000000000000000e+00  1.0577575857491698e-02 -2.3297252025833666e-02 0.0000000000000000e+00  -1.1428876382264698e-02 -3.5790987085118443e-02 0.0000000000000000e+00  1.2936552342912792e-03 -5.9621580078428292e-02 0.0000000000000000e+00  -1.0168125886599766e-02 -2.0869902649034565e-02 0.0000000000000000e+00  1.1347829293720356e-02 -3.8572138053483404e-02 0.0000000000000000e+00  -8.2926759638034622e-04 -4.4929699727472100e-02 0.0000000000000000e+00  2.6713441499121452e-03 -2.2512789996653959e-02 0.0000000000000000e+00  1.4023481576920663e-03 -2.7401322999270433e-02 0.0000000000000000e+00  -7.7275288118353524e-04 -3.6090320425387505e-02 0.0000000000000000e+00  5.1404730180909354e-03 -4.6895063738808022e-02 0.0000000000000000e+00  -3.9712118216864753e-04 -5.8842956440885573e-02 0.0000000000000000e+00  1.7185644997511225e-03 -4.9727239427506231e-02 0.0000000000000000e+00  7.6364555620024306e-04 -4.9487829875120041e-03 0.0000000000000000e+00  7.0862992935428436e-03 -1.1358762390058973e-02 0.0000000000000000e+00  -8.9393310248559125e-03 -5.056546970214