<?xml version="1.0"?>
<VTKFile type="UnstructuredGrid"  version="0.1"  >
<UnstructuredGrid>
<Piece  NumberOfPoints="572" NumberOfCells="1038">
<Points>
<DataArray  type="Float64"  NumberOfComponents="3"  format="ascii">0 0 0  4 0 0  4 -1 0  0 -1 0  0.09999999999999999 0 0  0.2 0 0  0.3 0 0  0.4 0 0  0.4999999999999998 0 0  0.5999999999999996 0 0  0.6999999999999995 0 0  0.7999999999999994 0 0  0.8999999999999992 0 0  0.999999999999999 0 0  1.099999999999999 0 0  1.199999999999999 0 0  1.299999999999999 0 0  1.399999999999999 0 0  1.499999999999998 0 0  1.599999999999998 0 0  1.699999999999999 0 0  1.799999999999999 0 0  1.899999999999999 0 0  2 0 0  2.1 0 0  2.200000000000001 0 0  2.300000000000001 0 0  2.400000000000002 0 0  2.500000000000002 0 0  2.600000000000002 0 0  2.700000000000003 0 0  2.800000000000003 0 0  2.900000000000004 0 0  3.000000000000004 0 0  3.100000000000005 0 0  3.200000000000005 0 0  3.300000000000005 0 0  3.400000000000004 0 0  3.500000000000004 0 0  3.600000000000003 0 0  3.700000000000002 0 0  3.800000000000002 0 0  3.900000000000001 0 0  4 -0.08333333333333325 0  4 -0.1666666666666665 0  4 -0.2499999999999997 0  4 -0.333333333333333 0  4 -0.4166666666666666 0  4 -0.5000000000000001 0  4 -0.5833333333333337 0  4 -0.6666666666666673 0  4 -0.7500000000000006 0  4 -0.8333333333333337 0  4 -0.9166666666666669 0  3.9 -1 0  3.8 -1 0  3.7 -1 0  3.6 -1 0  3.5 -1 0  3.4 -1 0  3.300000000000001 -1 0  3.200000000000001 -1 0  3.100000000000001 -1 0  3.000000000000001 -1 0  2.900000000000001 -1 0  2.800000000000001 -1 0  2.700000000000001 -1 0  2.600000000000001 -1 0  2.500000000000002 -1 0  2.400000000000002 -1 0  2.300000000000002 -1 0  2.200000000000001 -1 0  2.100000000000001 -1 0  2 -1 0  1.9 -1 0  1.799999999999999 -1 0  1.699999999999999 -1 0  1.599999999999998 -1 0  1.499999999999998 -1 0  1.399999999999998 -1 0  1.299999999999997 -1 0  1.199999999999997 -1 0  1.099999999999996 -1 0  0.9999999999999956 -1 0  0.899999999999995 -1 0  0.7999999999999949 -1 0  0.6999999999999953 -1 0  0.5999999999999956 -1 0  0.499999999999996 -1 0  0.3999999999999968 -1 0  0.2999999999999976 -1 0  0.1999999999999984 -1 0  0.0999999999999992 -1 0  0 -0.9166666666666667 0  0 -0.8333333333333335 0  0 -0.7500000000000002 0  0 -0.666666666666667 0  0 -0.5833333333333335 0  0 -0.4999999999999999 0  0 -0.4166666666666663 0  0 -0.3333333333333327 0  0 -0.2499999999999994 0  0 -0.1666666666666663 0  0 -0.08333333333333315 0  3.491090701185765 -0.499339806301727 0  0.4950203227078167 -0.4989128584675094 0  2.64262313781888 -0.4879297506908338 0  1.449999999999998 -0.5 0  2.058402291097397 -0.5120941233772698 0  0.9749999999999992 -0.4749999999999993 0  3.081769880806683 -0.5597407802610527 0  1.745473944409859 -0.3290615136625714 0  2.347280045777389 -0.6545118286598804 0  2.335768673639667 -0.3237239238763549 0  1.750327526220345 -0.682828817540943 0  3.707492972392909 -0.3028030525063309 0  0.293580296675358 -0.7109385489008262 0  3.71498825372084 -0.7080088716251347 0  0.2918697062415769 -0.2988161261649331 0  3.250413907284768 -0.3098344370860925 0  0.7481958762886598 -0.6907216494845363 0  2.897531957111618 -0.3144800466372323 0  1.202975631932859 -0.6871206495416401 0  0.7276881720430104 -0.301075268817204 0  1.222241507685503 -0.2908020883113388 0  2.821785532795642 -0.7097679058139483 0  3.313580174540806 -0.7110306688463971 0  1.50219738324048 -0.2570217529780842 0  2.109436430026117 -0.7485141141565509 0  2.001923272149049 -0.2612004201407864 0  2.591779594323503 -0.2533220405676498 0  1.508220405676497 -0.7466779594323502 0  2.584305190871683 -0.7502831919469019 0  3.478286033189422 -0.23795222571263 0  0.5261060937617643 -0.7658117832712512 0  3.785135972681774 -0.5040707172464052 0  0.2090645029521114 -0.4969048262114374 0  0.9574438986108131 -0.2423163095862805 0  0.9754244626643473 -0.7628641460288867 0  0.5097271592765806 -0.2292760602594508 0  3.047448237147327 -0.7984168297371277 0  3.522893514415914 -0.785726174019542 0  3.27411286219494 -0.5150314861460955 0  2.876192398366876 -0.5166549013936721 0  3.072152863254761 -0.2028141497170135 0  2.188888454287124 -0.1960738743988359 0  1.911111545712876 -0.8039261256011641 0  0.6968885413728847 -0.4974520678389611 0  1.252104989604988 -0.4970114345114344 0  1.649610740490046 -0.5028202775347195 0  2.446694231298332 -0.485633542353709 0  1.845992484168205 -0.4989419599210881 0  2.246214131289309 -0.4959316037735846 0  2.743080194417513 -0.1797603284198384 0  1.345217800961618 -0.8177514544794908 0  3.831771135951664 -0.1764827624326512 0  0.168177957407361 -0.823589473522286 0  3.837430960455357 -0.8286944021295046 0  0.167391597779325 -0.1752538625856722 0  3.066111254276541 -0.3870061788029396 0  1.358909159394344 -0.1720779287034414 0  1.669284305949535 -0.172759019086266 0  2.264869859182613 -0.8283162784008133 0  2.434165412425708 -0.1697954173687042 0  1.668706113475668 -0.8314479749300888 0  1.842683258862577 -0.1656794186994128 0  3.848464877921415 -0.3616620315967092 0  0.151535122078585 -0.6383379684032905 0  3.848707346075076 -0.6466646759135177 0  0.1509968549082652 -0.3452619778382686 0  2.732975255829699 -0.3508363638623346 0  1.370252652534258 -0.6495109932111033 0  1.11832587037856 -0.1733419061976365 0  2.439737645513045 -0.836456385212641 0  3.331229791744127 -0.165499768727795 0  0.6726591332606813 -0.8336090461037186 0  1.132616756253317 -0.8280723285747189 0  1.950606351728588 -0.6518091391595896 0  2.153824719141371 -0.3536025000168445 0  3.62532407618639 -0.1564302309141494 0  0.3803710983093131 -0.8404803223371928 0  1.377912260103223 -0.3517997484404782 0  0.8924624300191402 -0.6125774599817652 0  3.207249628251628 -0.8375220474312923 0  0.6546785576266954 -0.155978749966339 0  2.719684587363634 -0.8327734580127736 0  3.647699282718985 -0.5637569936419204 0  0.3570156455557587 -0.5653989322146081 0  0.8322251523939386 -0.8403847541693579 0  0.3645988133126639 -0.1519337183240305 0  1.061404500324257 -0.6180105656135877 0  3.396758647231262 -0.3766313243368538 0  0.8148021518360848 -0.1629813466347811 0  0.6093556516052328 -0.6299486913462624 0  0.415997866655875 -0.3680522660477806 0  0.5920160015096863 -0.3645412637424194 0  3.572255424430109 -0.362089200459548 0  1.08043890485706 -0.3398660584513152 0  2.923658429424994 -0.1561137197110593 0  3.653613361778262 -0.8546909554159527 0  3.456739790681186 -0.6487708965425909 0  0.8424839600900655 -0.4190496412612194 0  2.6968241495241 -0.6460539373019687 0  2.90777185621417 -0.8467190841342236 0  3.167421855912535 -0.6853653881872064 0  3.378998015397395 -0.8550267917096944 0  2.549623533286458 -0.6074164390661531 0  1.563854363100012 -0.3870450365840445 0  1.945115925347995 -0.3956210114182645 0  2.206384380497951 -0.6363666106481864 0  2.9679770331043 -0.6663940397605803 0  2.492817266347368 -0.3527603982764793 0  1.545918816851176 -0.6075709531787901 0  2.028456012399734 -0.8701972194942087 0  2.065700499244939 -0.1359115819594244 0  1.113999927383315 -0.4803729266898425 0  3.194766700972084 -0.1349664610116483 0  1.791586588241401 -0.8656156413257059 0  2.307333345265183 -0.1346440826116952 0  2.64093544674549 -0.1331489671463476 0  0.4565707965077976 -0.6534785968762363 0  1.459077473581533 -0.8718776489042938 0  1.56279060907849 -0.1324694119967317 0  0.3144726782861624 -0.406319735913186 0  3.686635179527132 -0.4155119011072678 0  3.583227123430988 -0.6879918386850498 0  3.884530589958141 -0.5337716741137969 0  0.1138901561454064 -0.4712706309748976 0  2.551320204776417 -0.8759992125181354 0  2.968455986624249 -0.4231600805006418 0  1.843995631966074 -0.2713141166917306 0  1.23826657576458 -0.1310261345083986 0  1.632298315745049 -0.7047459448475459 0  3.454977942639006 -0.1019833897113779 0  2.11213131937471 -0.6131325843633801 0  1.631670858552932 -0.3027829344070553 0  0.549999999999996 -0.8847857258099061 0  2.175907031111534 -0.8808902127996396 0  2.440789547527098 -0.7252338716820566 0  0.9499999999999957 -0.8853403742417534 0  0.1192006629558211 -0.7258150973260704 0  0.1086302422397907 -0.2553484983400458 0  3.891615894289125 -0.7428762999771643 0  3.880790852604017 -0.2741969419997524 0  2.58999033724616 -0.3943081590477266 0  0.95310975133633 -0.1100375897447476 0  0.9389274183125247 -0.357418794071099 0  0.5436861363815539 -0.1129935035840732 0  1.237622314162623 -0.8886349339205675 0  2.766143121931948 -0.4669467935657355 0  3.157965388639583 -0.4824178848815803 0  3.732166646772587 -0.1061123528525496 0  0.8463407040907105 -0.2803849511418723 0  0.2658218649297859 -0.8967607408767373 0  3.384357462435764 -0.5450459842617623 0  1.954320722194999 -0.1009956898074866 0  0.8013980381943526 -0.5278489923710374 0  3.744358883260304 -0.603637271636247 0  0.2581863795088786 -0.6001369967359219 0  0.2629966501688439 -0.1025990268626685 0  0.3980883060404261 -0.7330050441066103 0  1.076076863672032 -0.7275728344185368 0  1.749999999999999 -0.5550190100941714 0  2.351512610076122 -0.5440435521440684 0  0.8619623856291254 -0.7246873586411677 0  3.553081028189586 -0.8932001918706867 0  2.806636304103025 -0.6100531542467602 0  2.546714489935151 -0.08818853426728746 0  1.172246975380209 -0.5783812280673658 0  1.560837452008869 -0.9052833905541354 0  3.005913589025749 -0.2858329927011495 0  3.104244827324224 -0.8867193195303111 0  0.6392996137609843 -0.7340215588892431 0  3.370409685921998 -0.2678372406131186 0  1.860045411420065 -0.6863616357695403 0  2.239306624928278 -0.3159929711989559 0  0.620090528303912 -0.2611000972275821 0  1.457468991263225 -0.08750102207080079 0  1.752790718352056 -0.1005001786212033 0  0.394717592657301 -0.2605042194828123 0  3.745581301416776 -0.9074819423317642 0  3.141158115761163 -0.2920724092797614 0  3.257376892791448 -0.6242591031763242 0  2.350280737493299 -0.9013197570937703 0  3.914203942485891 -0.125 0  3.914203942485891 -0.8750000000000003 0  0.08579605751410901 -0.1249999999999997 0  0.08579605751410968 -0.875 0  3.921126745430668 -0.4525
[...]
<PointData  Vectors="displacement"> 
<DataArray  type="Float64"  Name="displacement"  NumberOfComponents="3" format="ascii">-7.2177805320753309e-03 -2.8990002272494209e-02 0.0000000000000000e+00  5.8786995405798008e-03 -3.2213975855028866e-02 0.0000000000000000e+00  2.0088170110779457e-02 -7.9429570877163503e-03 0.0000000000000000e+00  -1.7116704766080751e-02 -6.2779591747159228e-03 0.0000000000000000e+00  2.7804091860222507e-03 -4.9810909306334070e-02 0.0000000000000000e+00  -9.0162862313905958e-04 -5.6317133887107601e-02 0.0000000000000000e+00  2.3541601426793583e-04 -5.8955876769877034e-02 0.0000000000000000e+00  -6.6796431157762102e-06 -5.9200994289441658e-02 0.0000000000000000e+00  -1.1887176832141778e-04 -5.8958669017448763e-02 0.0000000000000000e+00  1.2502936979781504e-04 -5.8011695371046071e-02 0.0000000000000000e+00  -9.7196204697142587e-05 -5.6901502465715535e-02 0.0000000000000000e+00  3.8545756775017921e-05 -5.5668881621743285e-02 0.0000000000000000e+00  -3.4123260834065174e-05 -5.4451616484025085e-02 0.0000000000000000e+00  1.1650343873962991e-05 -5.3279904446138317e-02 0.0000000000000000e+00  -9.5636401859284436e-06 -5.2194025083370274e-02 0.0000000000000000e+00  1.4456972307951651e-05 -5.1235675756742267e-02 0.0000000000000000e+00  -1.5230220385079982e-05 -5.0380428811934233e-02 0.0000000000000000e+00  3.0351337797046515e-07 -4.9638151684467773e-02 0.0000000000000000e+00  1.8300259424993773e-06 -4.9022857933018131e-02 0.0000000000000000e+00  -3.3760548678298217e-06 -4.8528317435860356e-02 0.0000000000000000e+00  -7.6985690870323205e-07 -4.8151175721124137e-02 0.0000000000000000e+00  2.7100379772666768e-06 -4.7884293568496356e-02 0.0000000000000000e+00  -4.8351297245709014e-06 -4.7723590997085501e-02 0.0000000000000000e+00  1.3992422357356128e-06 -4.7666493991172142e-02 0.0000000000000000e+00  -2.7298808480662590e-06 -4.7714231000762150e-02 0.0000000000000000e+00  4.3306196491889723e-06 -4.7872281220286500e-02 0.0000000000000000e+00  4.7239484025938795e-07 -4.8142991485585623e-02 0.0000000000000000e+00  -3.8504810839940676e-06 -4.8500892754642894e-02 0.0000000000000000e+00  -7.0806880700465478e-06 -4.8992355682714074e-02 0.0000000000000000e+00  1.3413391912246266e-05 -4.9600556829652843e-02 0.0000000000000000e+00  -6.1720310051927263e-06 -5.0315927988687809e-02 0.0000000000000000e+00  4.0984925647638301e-06 -5.1158365026701111e-02 0.0000000000000000e+00  2.0373606235576069e-05 -5.2102699799655448e-02 0.0000000000000000e+00  6.1522352647531154e-07 -5.3155003029522092e-02 0.0000000000000000e+00  6.0360419781154923e-05 -5.4311829673945211e-02 0.0000000000000000e+00  -8.6808575632821560e-05 -5.5507706751315812e-02 0.0000000000000000e+00  3.8659943136709149e-05 -5.6639188349334943e-02 0.0000000000000000e+00  -7.5973034819687294e-05 -5.7647393567726399e-02 0.0000000000000000e+00  8.7660910806872873e-05 -5.8546532876151781e-02 0.0000000000000000e+00  9.1063809674464186e-05 -5.8829062444394294e-02 0.0000000000000000e+00  -2.8650715358297769e-04 -5.8403173090757744e-02 0.0000000000000000e+00  1.1839663011297041e-03 -5.6594384054745830e-02 0.0000000000000000e+00  -2.1974458519011639e-03 -5.1190809884575472e-02 0.0000000000000000e+00  2.0783711489323276e-02 -4.0864536455023935e-02 0.0000000000000000e+00  2.1810048228311427e-02 -3.2947626226771602e-02 0.0000000000000000e+00  3.2162997849123715e-02 -3.0602865411191726e-02 0.0000000000000000e+00  3.5165936013323025e-02 -3.1449022080281455e-02 0.0000000000000000e+00  3.1319904130634381e-02 -2.7677018766856916e-02 0.0000000000000000e+00  3.8380892366706255e-02 -1.8536520622901329e-02 0.0000000000000000e+00  3.4685345380761401e-02 -2.6065241429829338e-02 0.0000000000000000e+00  3.6541104185725454e-02 -1.3157042753717428e-02 0.0000000000000000e+00  3.2523610703000951e-02 -1.2853950728512809e-02 0.0000000000000000e+00  1.4896162969841248e-02 -2.2121589632846210e-02 0.0000000000000000e+00  2.7281494881158139e-02 2.1321328416724607e-02 0.0000000000000000e+00  -1.0212919058824571e-02 -2.2149488984769969e-02 0.0000000000000000e+00  3.5932849310825275e-03 6.4184609576588376e-03 0.0000000000000000e+00  -1.4948032744840330e-03 -2.5388567909356533e-03 0.0000000000000000e+00  -1.6795792234477512e-04 3.4199018639507698e-05 0.0000000000000000e+00  3.0848311699996334e-04 1.5159515367672288e-04 0.0000000000000000e+00  -2.0520900966797907e-04 1.6748895697608597e-04 0.0000000000000000e+00  1.5222088695451784e-04 1.1735497208747004e-04 0.0000000000000000e+00  -7.8708637382617774e-05 9.1153280092163831e-05 0.0000000000000000e+00  -2.3280368485688264e-04 3.4562777803094299e-04 0.0000000000000000e+00  2.6381886196563935e-04 3.2263551617932947e-04 0.0000000000000000e+00  8.2389073830277273e-05 1.5788379690703647e-04 0.0000000000000000e+00  -2.9745562743271843e-05 -1.5579536317229293e-05 0.0000000000000000e+00  5.1113036981502160e-05 3.7528683299698490e-05 0.0000000000000000e+00  -4.3354002004196307e-05 5.8089634992978716e-05 0.0000000000000000e+00  3.1585302133874014e-05 8.1257710229768970e-05 0.0000000000000000e+00  -4.7875160496972161e-06 2.2556451886541226e-07 0.0000000000000000e+00  -6.4315838920226954e-06 2.0176377314232296e-05 0.0000000000000000e+00  1.0509433243493029e-05 1.1323625642521963e-05 0.0000000000000000e+00  2.7724077850383732e-06 2.0373927832073965e-05 0.0000000000000000e+00  -1.4259577244777169e-05 3.1517536840707871e-05 0.0000000000000000e+00  -5.1020960394803341e-06 2.2628924771218316e-05 0.0000000000000000e+00  2.4215470850909206e-06 2.1116045819105345e-05 0.0000000000000000e+00  2.5949437385073930e-06 2.7207004703690866e-05 0.0000000000000000e+00  9.6341402120723802e-06 -9.0307970081676085e-06 0.0000000000000000e+00  -3.0649457184132400e-05 6.9304843947020259e-05 0.0000000000000000e+00  1.7344826298879941e-05 6.7801524445565856e-05 0.0000000000000000e+00  2.5418511374283817e-06 1.6725891372939622e-05 0.0000000000000000e+00  -2.7971011602954265e-05 5.4985059919011453e-05 0.0000000000000000e+00  9.9253521339171586e-07 6.1453960078389141e-05 0.0000000000000000e+00  -1.5831817816087035e-06 1.1732262629060293e-05 0.0000000000000000e+00  -9.4727161910197722e-05 1.0734775756871056e-04 0.0000000000000000e+00  4.9844809729408062e-05 8.9166464300989047e-05 0.0000000000000000e+00  -1.1049324583400363e-04 7.9030575100985437e-05 0.0000000000000000e+00  2.3590139589069893e-05 1.4798844981260613e-04 0.0000000000000000e+00  -3.4338775044992400e-04 2.3913869492941101e-04 0.0000000000000000e+00  -1.0093556408465170e-04 3.3383220832068492e-04 0.0000000000000000e+00  1.6134340593248074e-03 -3.0863023543882453e-03 0.0000000000000000e+00  -3.8269500183191981e-03 5.8037688258761712e-03 0.0000000000000000e+00  8.9125182764980097e-03 -1.7569055739417725e-02 0.0000000000000000e+00  -2.8998005537188880e-02 1.6256432677471011e-02 0.0000000000000000e+00  -1.1284712385692470e-02 -1.5397016703172129e-02 0.0000000000000000e+00  -3.3525168744733498e-02 -1.6928034372536226e-02 0.0000000000000000e+00  -3.3449437467128661e-02 -1.7948740119124333e-02 0.0000000000000000e+00  -3.1037545423508006e-02 -2.3387579936938581e-02 0.0000000000000000e+00  -4.1712163817117870e-02 -3.2959869686948771e-02 0.0000000000000000e+00  -3.6137612292993809e-02 -2.1395782806662114e-02 0.0000000000000000e+00  -3.4825843345937336e-02 -3.5553942871167872e-02 0.0000000000000000e+00  -3.3961446883709626e-02 -3.1195177164708151e-02 0.0000000000000000e+00  -2.4484328145770756e-02 -2.8477371811935707e-02 0.0000000000000000e+00  -2.0163508521029307e-02 -4.1789259460418116e-02 0.0000000000000000e+00  1.7249695988651489e-02 -2.7879995781547390e-02 0.0000000000000000e+00  -1.7866766806010920e-02 -2.7965601690323829e-02 0.0000000000000000e+00  2.7374372995504497e-03 -2.5748991759608344e-02 0.0000000000000000e+00  -2.1613002681767890e-03 -2.4821683708694680e-02 0.0000000000000000e+00  1.6999741346221538e-04 -2.3375483260125042e-02 0.0000000000000000e+00  -6.8052649006803793e-03 -2.8218030904921042e-02 0.0000000000000000e+00  7.5403051531425479e-03 -2.3512306714617636e-02 0.0000000000000000e+00  -6.8481269190068695e-04 -3.2507152237912992e-02 0.0000000000000000e+00  1.0363310412956365e-03 -1.6628627306388387e-02 0.0000000000000000e+00  9.3032973563809236e-04 -3.2958136656662120e-02 0.0000000000000000e+00  -6.6389147018624368e-04 -1.5157711059140639e-02 0.0000000000000000e+00  2.0943421579122920e-02 -3.9463634920296836e-02 0.0000000000000000e+00  -1.9540642306059629e-02 -1.2609998934752415e-02 0.0000000000000000e+00  1.8061134551668575e-02 -1.3448212143612097e-02 0.0000000000000000e+00  -2.0410480721587472e-02 -3.9113512137507148e-02 0.0000000000000000e+00  8.8957808058135971e-03 -3.9392303426821998e-02 0.0000000000000000e+00  -9.1897099950989224e-03 -1.6027362572274592e-02 0.0000000000000000e+00  4.1602112860043778e-03 -3.6348547886353048e-02 0.0000000000000000e+00  -3.4826207966473645e-03 -1.5673897611758029e-02 0.0000000000000000e+00  -9.2873983290178395e-03 -4.0225856287428662e-02 0.0000000000000000e+00  -3.0112481866944188e-03 -3.6800316556147822e-02 0.0000000000000000e+00  3.4753006692111814e-03 -1.4518174407693514e-02 0.0000000000000000e+00  9.9721843277695860e-03 -1.4893593358587432e-02 0.0000000000000000e+00  -1.3241130084340668e-03 -3.6837283473062477e-02 0.0000000000000000e+00  2.3540599809462220e-04 -1.1916326607211383e-02 0.0000000000000000e+00  5.9524896369621247e-07 -3.5494971231406623e-02 0.0000000000000000e+00  1.6777859341833411e-03 -3.7465206441207592e-02 0.0000000000000000e+00  -1.3356632870402496e-03 -1.2221244840113324e-02 0.0000000000000000e+00  1.7283040404829128e-03 -1.2120195059508326e-02 0.0000000000000000e+00  1.1810617168764534e-02 -4.5128335933588386e-02 0.0000000000000000e+00  -1.0789466925980902e-02 -1.1162862079052701e-02 0.0000000000000000e+00  2.6030439485674808e-02 -2.4301179660222973e-02 0.0000000000000000e+00  -2.8106486885823005e-02 -2.6353800924745641e-02 0.0000000000000000e+00  -4.8400095318373894e-03 -4.1591416915997499e-02 0.0000000000000000e+00  -4.8658355296438442e-03 -1.1905928257029358e-02 0.0000000000000000e+00  -1.1818431902291260e-02 -4.5937967142051374e-02 0.0000000000000000e+00  4.4884828971852838e-03 -9.8552940512834711e-03 0.0000000000000000e+00  1.1626291651687338e-02 -1.0144453635171715e-02 0.0000000000000000e+00  1.1348276150395948e-02 -2.6812532241435875e-02 0.0000000000000000e+00  4.8398150156354772e-03 -2.5144138713976728e-02 0.0000000000000000e+00  4.3636042249399903e-03 -4.3898703625006821e-02 0.0000000000000000e+00  3.2764388038595979e-04 -3.8749860313483667e-02 0.0000000000000000e+00  -1.4378432210410320e-04 -9.2404043060204631e-03 0.0000000000000000e+00  -1.2186352922654915e-02 -2.7996842994080413e-02 0.0000000000000000e+00  -3.5869058815640505e-03 -2.5708678003977331e-02 0.0000000000000000e+00  -1.1785645177017500e-03 -2.4168149748059847e-02 0.0000000000000000e+00  1.5948972576207208e-03 -2.5238758147437715e-02 0.0000000000000000e+00  -4.6922335005790655e-04 -2.4079542324963520e-02 0.0000000000000000e+00  7.6923839444307000e-04 -2.4327581978197305e-02 0.0000000000000000e+00  1.8433604733530127e-03 -4.2114875036146922e-02 0.0000000000000000e+00  -1.6227394767383484e-03 -8.7731526084866857e-03 0.0000000000000000e+00  1.9918757295371386e-02 -4.3963497189563973e-02 0.0000000000000000e+00  -1.7024479201762803e-02 -9.6528580046518209e-03 0.0000000000000000e+00  1.7420924017116694e-02 -8.9021622156341493e-03 0.0000000000000000e+00  -2.0707989315503075e-02 -4.4401577249078394e-02 0.0000000000000000e+00  6.8360958476847908e-03 -3.3553953093723679e-02 0.0000000000000000e+00  -1.3789390858247187e-03 -4.1809089760018327e-02 0.0000000000000000e+00  -5.5467909581701305e-04 -4.0223955766222515e-02 0.0000000000000000e+00  4.3897709030703074e-04 -8.1027013073419821e-03 0.0000000000000000e+00  7.6617097787117676e-04 -4.0740725704129996e-02 0.0000000000000000e+00  -5.6532475009594583e-04 -7.9770522275436160e-03 0.0000000000000000e+00  -2.3308528729494097e-04 -4.0135459028411057e-02 0.0000000000000000e+00  2.8924065522610131e-02 -3.0888578980941321e-02 0.0000000000000000e+00  -2.7230755098702170e-02 -2.1251567965622997e-02 0.0000000000000000e+00  2.8891292463746665e-02 -2.0063620149789609e-02 0.0000000000000000e+00  -2.9173484912746447e-02 -3.1265959577724010e-02 0.0000000000000000e+00  3.0355509161831794e-03 -3.3339523832293924e-02 0.0000000000000000e+00  -2.4225527280593994e-03 -1.7323048364450245e-02 0.0000000000000000e+00  -2.5014270180519719e-03 -4.3675450543766155e-02 0.0000000000000000e+00  7.8840997863409553e-04 -7.7608946042342563e-03 0.0000000000000000e+00  6.3634518838446303e-03 -4.8482901813651252e-02 0.0000000000000000e+00  -6.5244657078807203e-03 -8.0042454827894023e-03 0.0000000000000000e+00  -2.6357811415453148e-03 -8.3710280102517309e-03 0.0000000000000000e+00  -1.2981086151983654e-04 -1.6574868316675897e-02 0.0000000000000000e+00  4.1012098367738958e-04 -3.1145817729621827e-02 0.0000000000000000e+00  1.1586920692721273e-02 -5.0316524320631842e-02 0.0000000000000000e+00  -1.1037315525489618e-02 -7.6903859375309011e-03 0.0000000000000000e+00  -2.3130755013887230e-03 -3.2703880689112640e-02 0.0000000000000000e+00  -7.7716130485872663e-03 -2.0485492716974890e-02 0.0000000000000000e+00  5.2679866849656707e-03 -7.9150092097232273e-03 0.0000000000000000e+00  -6.3441731520927696e-03 -4.9366625651076218e-02 0.0000000000000000e+00  1.7666812626268272e-03 -8.0628048995981510e-03 0.0000000000000000e+00  2.2045210089674323e-02 -2.3149238155404480e-02 0.0000000000000000e+00  -2.1454959551641891e-02 -2.2959363047547657e-02 0.0000000000000000e+00  -4.7383831841884359e-03 -7.7516383918842142e-03 0.0000000000000000e+00  -1.2086029476752332e-02 -5.0841319444233243e-02 0.0000000000000000e+00  -5.3429975921086255e-03 -1.9758930616042183e-02 0.0000000000000000e+00  1.3356558157010768e-02 -3.5983889385818646e-02 0.0000000000000000e+00  -4.7475173127539631e-03 -4.7369266585172355e-02 0.0000000000000000e+00  -1.3219048706613395e-02 -1.9646878075992958e-02 0.0000000000000000e+00  -1.8721492219356511e-02 -3.6682612920958590e-02 0.0000000000000000e+00  -1.3612662286545991e-02 -3.6881720193202711e-02 0.0000000000000000e+00  1.8335804381532195e-02 -3.7002529807181495e-02 0.0000000000000000e+00  -4.6522364365788596e-03 -3.5189303612695184e-02 0.0000000000000000e+00  2.4799417438570387e-03 -4.4832540810186471e-02 0.0000000000000000e+00  1.1708390397122029e-02 -6.1672999738061653e-03 0.0000000000000000e+00  1.4204477767893431e-02 -1.8271814574107686e-02 0.0000000000000000e+00  -8.7361892442043478e-03 -3.2318430937338466e-02 0.0000000000000000e+00  2.8966100088314573e-03 -1.7637761293117341e-02 0.0000000000000000e+00  2.5647757570864283e-03 -7.4712706770780528e-03 0.0000000000000000e+00  7.8621450116934735e-03 -1.6351856108328983e-02 0.0000000000000000e+00  6.4075944468328355e-03 -6.7579900529523415e-03 0.0000000000000000e+00  2.0491274308527627e-03 -1.9316684206004336e-02 0.0000000000000000e+00  -1.4393781725436120e-03 -3.0160793366146431e-02 0.0000000000000000e+00  -1.5364977004000843e-04 -2.9040753064503884e-02 0.0000000000000000e+00  5.7688638274094872e-04 -1.7394331656065829e-02 0.0000000000000000e+00  5.2820140310018398e-03 -1.7070669406155880e-02 0.0000000000000000e+00  1.6104159688850232e-03 -3.2055564723236958e-02 0.0000000000000000e+00  -1.5572299005056466e-03 -1.9132873207089503e-02 0.0000000000000000e+00  3.7226392030225203e-05 -6.0990718801345826e-03 0.0000000000000000e+00  7.7342785680157712e-05 -4.1422392592217770e-02 0.0000000000000000e+00  -4.9897105258880567e-03 -2.7247746239753463e-02 0.0000000000000000e+00  3.9233031520532532e-03 -4.8707828117734865e-02 0.0000000000000000e+00  -2.6502334070154415e-04 -6.3213383345340430e-03 0.0000000000000000e+00  3.9785772145438765e-04 -4.1935681616472952e-02 0.0000000000000000e+00  1.0713344009662181e-03 -4.3633013614899858e-02 0.0000000000000000e+00  -1.6785278797329675e-02 -1.8144343796844549e-02 0.0000000000000000e+00  -8.6122612360753250e-04 -6.0961100038317752e-03 0.0000000000000000e+00  -6.2036556209492659e-04 -4.2550234640992259e-02 0.0000000000000000e+00  -2.5007157406599107e-02 -3.3585260441316857e-02 0.0000000000000000e+00  2.3403559049054997e-02 -3.1692938674100682e-02 0.0000000000000000e+00  1.5813656651373024e-02 -1.5594663179184330e-02 0.0000000000000000e+00  3.1025112435901701e-02 -2.3520010082227327e-02 0.0000000000000000e+00  -3.1387007892976951e-02 -2.9214360873547725e-02 0.0000000000000000e+00  8.6357858029750150e-04 -5.9167187300793395e-03 0.0000000000000000e+00  5.7146985186417691e-03 -3.0843326852821682e-02 0.0000000000000000e+00  -3.5255241495561832e-04 -3.5119215221868838e-02 0.0000000000000000e+00  -1.4481097770746704e-03 -4.4687822193234222e-02 0.0000000000000000e+00  -1.0197518284563289e-03 -1.4183657323933585e-02 0.0000000000000000e+00  5.4043997093644602e-03 -5.3062859439611587e-02 0.0000000000000000e+00  3.1790434937762821e-04 -1.8478263149361417e-02 0.0000000000000000e+00  -1.0046090022326863e-03 -3.4086515037489981e-02 0.0000000000000000e+00  -6.0700746368561685e-03 -5.2909066553460237e-03 0.0000000000000000e+00  1.9755326924019876e-04 -5.5918079511568112e-03 0.0000000000000000e+00  1.2277814051851422e-03 -1.3230398355555072e-02 0.0000000000000000e+00  -2.8012703389771400e-03 -5.4288248820077130e-03 0.0000000000000000e+00  -2.2080839883971016e-02 -1.1192286820517920e-02 0.0000000000000000e+00  -2.4214675441988905e-02 -3.8911128943652673e-02 0.0000000000000000e+00  1.8184356274271434e-02 -8.2132336709695077e-03 0.0000000000000000e+00  2.5730099819907735e-02 -3.7318817083682093e-02 0.0000000000000000e+00  2.2345411155335121e-03 -3.0355643336621569e-02 0.0000000000000000e+00  -2.4167749044093256e-03 -4.8564869801027387e-02 0.0000000000000000e+00  -6.5781531897866315e-03 -3.5286236755221481e-02 0.0000000000000000e+00  -6.1737611847992634e-03 -5.2840186357045404e-02 0.0000000000000000e+00  -1.3729855414730816e-03 -5.3023792716513519e-03 0.0000000000000000e+00  3.6900810844422167e-03 -2.7365367937381271e-02 0.0000000000000000e+00  8.9072374426870000e-03 -2.8407290564632700e-02 0.0000000000000000e+00  1.0198751023855805e-02 -5.2382713112282688e-02 0.0000000000000000e+00  -6.8982935248504910e-03 -4.0426185240088855e-02 0.0000000000000000e+00  -6.3950552432330034e-03 -8.1743171695036114e-04 0.0000000000000000e+00  1.3785430819595214e-02 -2.4988002889819592e-02 0.0000000000000000e+00  -4.0639626429930269e-05 -4.3041540531138033e-02 0.0000000000000000e+00  -9.8422542553907692e-03 -2.5795557911731236e-02 0.0000000000000000e+00  2.2194049112567858e-02 -2.0003132976161641e-02 0.0000000000000000e+00  -2.3368113942174258e-02 -2.1283481455600925e-02 0.0000000000000000e+00  -1.0176673695618024e-02 -5.2815312930451427e-02 0.0000000000000000e+00  -1.3898624159603624e-02 -1.2085010208178313e-02 0.0000000000000000e+00  -4.2694655371395170e-03 -1.3684600260297426e-02 0.0000000000000000e+00  -7.8034202727276906e-04 -2.1432148390411181e-02 0.0000000000000000e+00  1.1605314236425323e-03 -2.2118752821387561e-02 0.0000000000000000e+00  -6.8634278517264689e-03 -1.4054008229726985e-02 0.0000000000000000e+00  5.7510502515198169e-03 -3.9703434339783414e-03 0.0000000000000000e+00  3.9227789167280668e-03 -1.9820603467818703e-02 0.0000000000000000e+00  5.7759798576848258e-04 -4.5179991188422017e-02 0.0000000000000000e+00  -4.2668699207250747e-03 -2.1603611432636654e-02 0.0000000000000000e+00  -4.8931998878967372e-04 -4.4560999544254005e-03 0.0000000000000000e+00  4.9368942471889315e-03 -3.8785360356911415e-02 0.0000000000000000e+00  2.9707642312216467e-03 -5.4790938556787188e-03 0.0000000000000000e+00  -1.0399129204483914e-02 -1.3395624712125230e-02 0.0000000000000000e+00  1.0217861218870646e-02 -4.2822520484519226e-02 0.0000000000000000e+00  -3.5560628344906962e-04 -1.4929056218554424e-02 0.0000000000000000e+00  6.1701467661317189e-04 -3.3100437514299870e-02 0.0000000000000000e+00  -1.0566471592023507e-02 -4.3458396215981153e-02 0.0000000000000000e+00  -5.5991557357766922e-04 -4.5225084720432081e-02 0.0000000000000000e+00  -2.4103097152617371e-04 -4.337613