<?xml version="1.0"?>
<VTKFile type="UnstructuredGrid"  version="0.1"  >
<UnstructuredGrid>
<Piece  NumberOfPoints="1855" NumberOfCells="3532">
<Points>
<DataArray  type="Float64"  NumberOfComponents="3"  format="ascii">0 0 0  30 0 0  30 -10 0  0 -10 0  0.1391574078963744 0 0  0.2856388821882616 0 0  0.4398299073010886 0 0  0.6021362569539473 0 0  0.7729850389704483 0 0  0.9528258543586996 0 0  1.142131984380316 0 0  1.34140159760994 0 0  1.551159074717981 0 0  1.771956417032531 0 0  2.004374674080994 0 0  2.249025475789527 0 0  2.506552636773105 0 0  2.777633857742732 0 0  3.062982518028728 0 0  3.363349525995907 0 0  3.679525322337712 0 0  4.01234195575742 0 0  4.362675247811097 0 0  4.731447135329707 0 0  5.119628065610077 0 0  5.528239565804708 0 0  5.958356943167011 0 0  6.411112081475485 0 0  6.887696441559404 0 0  7.389364184530748 0 0  7.917435485335147 0 0  8.473300005202017 0 0  9.058420557070402 0 0  9.674336929103793 0 0  10.32266995225095 0 0  11.00512576896296 0 0  11.72350030646412 0 0  12.47968402994705 0 0  13.27566689579597 0 0  14.1135435963616 0 0  14.9955190732806 0 0  15.92391430904694 0 0  16.90117245730496 0 0  17.92986524844506 0 0  19.01269976086341 0 0  20.15252556282024 0 0  21.35234220269763 0 0  22.61530708683689 0 0  23.94474379751883 0 0  25.34415086349739 0 0  26.81721093579712 0 0  28.3678004819169 0 0  30 -1.111111111111111 0  30 -2.222222222222222 0  30 -3.333333333333333 0  30 -4.444444444444445 0  30 -5.555555555555555 0  30 -6.666666666666666 0  30 -7.777777777777777 0  30 -8.888888888888889 0  28.36780047917311 -10 0  26.8172109305839 -10 0  25.34415085606858 -10 0  23.94474378810899 -10 0  22.61530707566275 -10 0  21.3523421899591 -10 0  20.15252554870171 -10 0  19.01269974553473 -10 0  17.92986523206254 -10 0  16.90117244001232 -10 0  15.92391429097614 -10 0  14.99551905455266 -10 0  14.11354357708742 -10 0  13.27566687607703 -10 0  12.47968400987599 -10 0  11.72350028612546 -10 0  11.00512574843363 -10 0  10.32266993160086 -10 0  9.674336908396342 -10 0  9.058420536362949 -10 0  8.473299984546333 -10 0  7.917435464777824 -10 0  7.389364164113587 -10 0  6.887696420787165 -10 0  6.411112061446698 -10 0  5.95835692337857 -10 0  5.528239546282652 -10 0  5.119628046377237 -10 0  4.731447115907979 -10 0  4.362675229213632 -10 0  4.012341937260036 -10 0  3.679525304434552 -10 0  3.363349508456405 -10 0  3.062982500861274 -10 0  2.777633840953978 -10 0  2.506552620368097 -10 0  2.249025459771861 -10 0  2.004374658452946 -10 0  1.771956401795187 -10 0  1.551159059871345 -10 0  1.341401583153029 -10 0  1.142131970307521 -10 0  0.9528258406748833 -10 0  0.7729850256685147 -10 0  0.6021362439621285 -10 0  0.4398298947504031 -10 0  0.2856388700059078 -10 0  0.1391573960769001 -10 0  0 -9.855072463768115 0  0 -9.710144927536232 0  0 -9.565217391304348 0  0 -9.420289855072463 0  0 -9.27536231884058 0  0 -9.130434782608695 0  0 -8.985507246376812 0  0 -8.840579710144928 0  0 -8.695652173913043 0  0 -8.55072463768116 0  0 -8.405797101449275 0  0 -8.260869565217391 0  0 -8.115942028985508 0  0 -7.971014492753623 0  0 -7.826086956521739 0  0 -7.681159420289855 0  0 -7.536231884057971 0  0 -7.391304347826087 0  0 -7.246376811594203 0  0 -7.101449275362318 0  0 -6.956521739130435 0  0 -6.811594202898551 0  0 -6.666666666666667 0  0 -6.521739130434783 0  0 -6.376811594202898 0  0 -6.231884057971015 0  0 -6.086956521739131 0  0 -5.942028985507246 0  0 -5.797101449275362 0  0 -5.652173913043478 0  0 -5.507246376811594 0  0 -5.36231884057971 0  0 -5.217391304347826 0  0 -5.072463768115941 0  0 -4.927536231884058 0  0 -4.782608695652174 0  0 -4.637681159420289 0  0 -4.492753623188406 0  0 -4.347826086956522 0  0 -4.202898550724638 0  0 -4.057971014492754 0  0 -3.913043478260869 0  0 -3.768115942028985 0  0 -3.623188405797101 0  0 -3.478260869565217 0  0 -3.333333333333334 0  0 -3.188405797101449 0  0 -3.043478260869565 0  0 -2.898550724637681 0  0 -2.753623188405797 0  0 -2.608695652173912 0  0 -2.463768115942029 0  0 -2.318840579710145 0  0 -2.173913043478261 0  0 -2.028985507246377 0  0 -1.884057971014492 0  0 -1.739130434782609 0  0 -1.594202898550725 0  0 -1.44927536231884 0  0 -1.304347826086957 0  0 -1.159420289855072 0  0 -1.014492753623188 0  0 -0.8695652173913047 0  0 -0.72463768115942 0  0 -0.579710144927537 0  0 -0.4347826086956523 0  0 -0.2898550724637676 0  0 -0.1449275362318829 0  5.15859856094262 -4.976557621770688 0  2.816777084926057 -7.160262673925935 0  2.81677708460006 -2.839737326002783 0  2.227649803257325 -5.003121586636773 0  1.518662968975629 -8.46230852045241 0  1.518662969184829 -1.537691480152612 0  9.960740911025725 -5.055901393541221 0  1.491099662214591 -3.691833922963321 0  1.503675657181264 -6.345020369042368 0  5.319208041801049 -7.493850249937013 0  5.291109955459268 -2.489368743223226 0  1.096914507335763 -2.53623188405797 0  1.096914507253562 -7.463768115942029 0  1.089580194952752 -4.71277167923441 0  15.07565076110197 -5.047572991082069 0  7.501630508673601 -5.937500100385354 0  0.8894869418764504 -5.623930488933245 0  2.955144522453978 -1.440834296472408 0  2.955144521140721 -8.559165705576945 0  8.106603955004623 -2.748811534843258 0  3.662152539483591 -4.228178367024407 0  3.662181528265114 -5.771746159989156 0  0.8436558190317136 -0.8541050638451999 0  0.8436558075840921 -9.145894948342754 0  0.7854168197005933 -1.811594202898552 0  0.7894693398152999 -3.286543351392342 0  0.7854168196772591 -8.188405797101449 0  0.7854168196772591 -6.739130434782609 0  20.00078956016804 -4.999999999785771 0  0.7379120031523989 -3.977302749614766 0  6.584332478112232 -3.934875417052907 0  7.295091310194352 -7.969791332537982 0  9.811174303464586 -7.412814499648229 0  4.013376806449688 -2.206189431585293 0  4.013376806983409 -7.793810569017377 0  12.11177433894592 -2.818343737884045 0  2.591152707837148 -3.990098461753838 0  2.58990939378082 -6.025895074707176 0  25.43156400064585 -5.044446479916348 0  2.03262751726143 -2.282125834846944 0  2.032627517335952 -7.717874165160392 0  12.51865094522923 -6.491408052923457 0  0.598175343983641 -6.156971652625402 0  2.126700074935224 -0.8767654465386991 0  2.126700059112423 -9.123234559633019 0  6.617961838548696 -1.617756429129908 0  0.5903949564549755 -4.980060355019413 0  1.676697585305984 -5.547101897225158 0  4.773518305133987 -3.729331162566817 0  4.77931803486508 -6.231222307502165 0  4.878549698409591 -8.72048903376362 0  4.852580875634024 -1.222215410052823 0  0.5487847095754042 -2.675169258708207 0  0.545113423825768 -7.32369553390529 0  1.78738026998851 -4.400451872599477 0  1.68244194111824 -3.010100184333533 0  1.683984276238402 -7.018293626028473 0  9.998503440677371 -2.00585287985007 0  3.693061162502273 -3.243678395563028 0  3.694987482168253 -6.757603268814477 0  6.081763036485869 -5.83414381546261 0  0.5196640460586313 -1.350633211792632 0  0.5196640458460706 -8.649366789040087 0  3.84593363904758 -0.9906418103762418 0  3.845933620847308 -9.009358200471317 0  17.41551885287501 -3.057748733689079 0  17.30725517812527 -7.002961443761516 0  8.117698464370697 -4.451550942597151 0  0.4918476668493152 -0.4789811193757592 0  0.4918476560347713 -9.521018882514893 0  1.463770869328428 -0.6252343353791154 0  1.463770854281917 -9.374765668872765 0  0.5034132782032188 -4.464280853772128 0  3.138906271796685 -4.99999841599503 0  14.61209972381335 -2.388610981020637 0  6.208601124947327 -8.776231214192325 0  14.74910972998159 -7.542186851303819 0  2.243794246335625 -1.632184311040998 0  2.243794245689214 -8.367815689183566 0  0.4590235278399923 -5.431413993025926 0  0.4971508861448406 -2.209632053221267 0  0.4971508861368665 -7.790367946777407 0  0.4644363683211541 -3.560571347760519 0  6.478811279411406 -7.007392971062433 0  1.238895267772762 -4.173677632458826 0  1.293241773632479 -2.02256720952064 0  1.293241773542714 -7.977432790434841 0  0.4324740478030531 -0.942028985507247 0  0.4324740423701829 -9.057971014492754 0  2.117396640811705 -3.472968170680347 0  2.107095929630507 -6.531506384346077 0  8.087741545730886 -1.392783601483453 0  1.028911946384717 -1.352376108341404 0  1.028911946221715 -8.647623891551962 0  4.05691976296832 -4.991522392209158 0  11.51826881314265 -8.065248940008736 0  1.618560396201739 -4.958056164503666 0  2.701984523487646 -2.141781914603403 0  2.70198452396172 -7.858218085853512 0  2.843615645746219 -9.289121726447632 0  2.843615661334342 -0.7108782798429658 0  8.678774612240533 -8.488146490452822 0  6.487906449371135 -2.667543558824978 0  8.369190916679937 -7.129867754908394 0  11.80978191929258 -4.655775487536958 0  0.3792065166453504 -3.113833531412848 0  0.4134714637263563 -6.58827691137208 0  9.551050695080825 -3.49648183875815 0  1.083867845277057 -6.036251777836495 0  0.3756430921870901 -1.80381664325008 0  0.3756430921689482 -8.196183356748573 0  3.113073783220456 -3.503408140759125 0  3.113391383189963 -6.496678880796299 0  22.62850736315072 -3.277987336300344 0  22.59385352108348 -6.800312122582239 0  0.3777114402537816 -4.137047872695438 0  0.9196816123347897 -0.4281025456111269 0  0.9196815944880363 -9.571897460530383 0  0.4052043328723194 -5.827814332459883 0  8.865857694874787 -5.767686953139113 0  1.200388325130726 -5.182186034620629 0  5.65297436943758 -4.325500846767599 0  1.200079167961391 -3.009849046583253 0  1.20883344838 -7.021823297793294 0  1.057642414577487 -3.660996704809145 0  10.88812987788297 -6.333458225047037 0  4.493502926606794 -2.839780197438185 0  4.485862892033458 -7.147606077919463 0  0.3631651408878085 -7.003529808558233 0  1.946748828463205 -6.049056369468467 0  6.918750162798794 -4.993796052442676 0  3.351203216022585 -1.980935554775394 0  3.351203216441711 -8.019064445907297 0  2.281892243515294 -2.856654416292082 0  2.281892243715877 -7.143345583598931 0  5.811143619672087 -0.9953286820321026 0  2.695713766833098 -4.565354125099452 0  2.698172168139827 -5.435483248292925 0  19.86166219288896 -2.493475492328429 0  19.83739102036415 -7.594404063416508
[...]
<PointData  Vectors="displacement"> 
<DataArray  type="Float64"  Name="displacement"  NumberOfComponents="3" format="ascii">1.8104580290780151e-01 9.6835838301737934e-02 0.0000000000000000e+00  3.8244853720211045e-07 2.7882800908655801e-04 0.0000000000000000e+00  -5.5615244830314002e-07 -2.8540656685046279e-07 0.0000000000000000e+00  3.5953242356583743e-07 -3.4559321477431578e-07 0.0000000000000000e+00  1.0728407480218242e-01 2.7789062747187673e-02 0.0000000000000000e+00  6.6564344606266868e-02 8.9734784640106164e-03 0.0000000000000000e+00  4.6212452530878155e-02 3.7724713437822205e-03 0.0000000000000000e+00  3.3333954992599946e-02 1.9261442409717919e-03 0.0000000000000000e+00  2.6582517544386855e-02 6.1723046210441048e-04 0.0000000000000000e+00  2.1364377477119240e-02 3.0049253425146353e-05 0.0000000000000000e+00  1.7952576759710362e-02 -3.2473141730201605e-04 0.0000000000000000e+00  1.5309909126537779e-02 -6.0914664076244102e-04 0.0000000000000000e+00  1.3116576472568512e-02 -7.3622473465408025e-04 0.0000000000000000e+00  1.1437009030822254e-02 -8.6467005669814943e-04 0.0000000000000000e+00  9.9819050248383962e-03 -9.0992470719914570e-04 0.0000000000000000e+00  8.9022941549844106e-03 -9.0740110157269921e-04 0.0000000000000000e+00  7.8774661949391409e-03 -9.4988999011157312e-04 0.0000000000000000e+00  7.0697431957793449e-03 -9.6636338862245510e-04 0.0000000000000000e+00  6.2920183631460496e-03 -9.5252907931323851e-04 0.0000000000000000e+00  5.6607758817414401e-03 -9.2979689645532673e-04 0.0000000000000000e+00  5.0915434715956987e-03 -8.9680622794865755e-04 0.0000000000000000e+00  4.5932556409810825e-03 -8.5784538536324976e-04 0.0000000000000000e+00  4.1573899404523810e-03 -8.2046433428190437e-04 0.0000000000000000e+00  3.7533150812250060e-03 -7.7700869518097977e-04 0.0000000000000000e+00  3.3816526959331893e-03 -7.1603253419028642e-04 0.0000000000000000e+00  3.0586063236717441e-03 -6.4771564013336698e-04 0.0000000000000000e+00  2.7817467326972751e-03 -5.8617739714112815e-04 0.0000000000000000e+00  2.5110194675099329e-03 -5.1208521685289850e-04 0.0000000000000000e+00  2.2794833128508755e-03 -4.3965403083180476e-04 0.0000000000000000e+00  2.0584168414592894e-03 -3.6001931365123091e-04 0.0000000000000000e+00  1.8628428036494330e-03 -2.7736952492230139e-04 0.0000000000000000e+00  1.6923886360790154e-03 -1.9291894963664673e-04 0.0000000000000000e+00  1.5491080687722622e-03 -1.1538064437049234e-04 0.0000000000000000e+00  1.4088059652462967e-03 -3.5055935451167776e-05 0.0000000000000000e+00  1.2882170520697907e-03 3.9986634823104992e-05 0.0000000000000000e+00  1.1826327935282068e-03 1.1168524672043478e-04 0.0000000000000000e+00  1.0944971426408889e-03 1.7384044390202601e-04 0.0000000000000000e+00  1.0111992566949697e-03 2.3026230068407588e-04 0.0000000000000000e+00  9.4053599429858915e-04 2.7558853806068152e-04 0.0000000000000000e+00  8.6971465757598168e-04 3.1465220584349021e-04 0.0000000000000000e+00  8.1105749785833974e-04 3.4099125903097827e-04 0.0000000000000000e+00  7.4862193955035591e-04 3.6040810727525557e-04 0.0000000000000000e+00  6.9220558488340808e-04 3.6921125511894044e-04 0.0000000000000000e+00  6.3168698442016291e-04 3.7162091529557270e-04 0.0000000000000000e+00  5.7522177581888440e-04 3.6620938671204356e-04 0.0000000000000000e+00  5.1101535260238476e-04 3.5629528522203627e-04 0.0000000000000000e+00  4.4737197388335624e-04 3.4334999209604660e-04 0.0000000000000000e+00  3.7943485279733985e-04 3.2889729102159553e-04 0.0000000000000000e+00  3.1454668868002953e-04 3.1336656711712245e-04 0.0000000000000000e+00  2.4034534070812937e-04 2.9776009287399327e-04 0.0000000000000000e+00  1.6125724775813003e-04 2.8620164269022486e-04 0.0000000000000000e+00  8.0299936136465084e-05 2.7986805460037995e-04 0.0000000000000000e+00  9.2198774522520683e-07 2.3325949354793292e-04 0.0000000000000000e+00  -2.4272752259543469e-07 1.8428526773266301e-04 0.0000000000000000e+00  -1.1279489054647363e-07 1.3914864204403961e-04 0.0000000000000000e+00  2.5173395941173515e-07 9.9053972650239473e-05 0.0000000000000000e+00  -3.2850282181162880e-07 6.4128378254719613e-05 0.0000000000000000e+00  2.6856855492966479e-07 3.5706995511725755e-05 0.0000000000000000e+00  -2.0252915656727555e-07 1.4797985507683624e-05 0.0000000000000000e+00  -1.9586849940210526e-08 2.3152507316341759e-06 0.0000000000000000e+00  -2.8944244914128125e-07 -1.2518229092062405e-06 0.0000000000000000e+00  -2.8644508208473021e-09 -1.3826668663768454e-06 0.0000000000000000e+00  1.1043117492749557e-06 -1.5354803427256853e-06 0.0000000000000000e+00  1.5630685949430549e-07 -4.8735676750424588e-07 0.0000000000000000e+00  2.4787231429259539e-07 -7.8538445835751205e-07 0.0000000000000000e+00  1.2686128432790875e-06 -1.1049381546265485e-06 0.0000000000000000e+00  4.2176145174308772e-07 -1.4941049634609389e-06 0.0000000000000000e+00  2.0658733498152969e-06 -1.3979362400631111e-06 0.0000000000000000e+00  6.4861379314619786e-07 -8.8229904284260405e-07 0.0000000000000000e+00  2.0249986609949206e-06 -1.0132617557758231e-06 0.0000000000000000e+00  1.0690144891445978e-06 -4.0367123582733180e-07 0.0000000000000000e+00  1.5269784634652941e-06 -5.1160912373144488e-07 0.0000000000000000e+00  1.5651422940854027e-06 1.0710791087846422e-07 0.0000000000000000e+00  1.8223241889756792e-06 1.1285487779721605e-07 0.0000000000000000e+00  5.3279099321722398e-07 2.4483112325520806e-07 0.0000000000000000e+00  1.1284196398121696e-06 8.4248210447809744e-07 0.0000000000000000e+00  -5.0457599959210181e-08 2.4847670924840727e-07 0.0000000000000000e+00  1.6580989995671575e-06 2.2098341647032633e-06 0.0000000000000000e+00  5.2960348891793260e-07 1.5471771138592663e-06 0.0000000000000000e+00  1.1698630528996629e-06 1.4333292709792264e-06 0.0000000000000000e+00  -1.0293655040856870e-06 1.3983522835074626e-06 0.0000000000000000e+00  1.8629294110044970e-07 2.1331834119255404e-06 0.0000000000000000e+00  -1.3893624395365234e-06 2.9117634823408661e-06 0.0000000000000000e+00  -1.6465670115029363e-06 1.7845215308905027e-06 0.0000000000000000e+00  -1.6085782663782899e-06 8.6866681882171223e-07 0.0000000000000000e+00  -4.5301416666431786e-06 2.2133863022341952e-06 0.0000000000000000e+00  -1.7741555517511430e-06 1.0171269072649888e-06 0.0000000000000000e+00  -3.1387531384629170e-06 1.2052473014620085e-06 0.0000000000000000e+00  -1.9643295013371849e-06 7.4252395888676670e-07 0.0000000000000000e+00  -4.7091872976190436e-06 1.1715298882753587e-06 0.0000000000000000e+00  -4.5352395442719646e-07 -4.3861144998553276e-08 0.0000000000000000e+00  -1.9321583944752803e-06 7.5300957235631870e-08 0.0000000000000000e+00  -1.6053192360322419e-06 3.0392836330043397e-08 0.0000000000000000e+00  -1.1647429435586535e-06 -9.9547188403943043e-08 0.0000000000000000e+00  -2.6364202720510563e-06 -5.3370276692292122e-07 0.0000000000000000e+00  -6.2935483070728522e-07 -2.1428371241625018e-07 0.0000000000000000e+00  -2.1619220794939830e-06 -7.4000427225914628e-07 0.0000000000000000e+00  -3.0613999001400106e-07 -1.7984072225820831e-07 0.0000000000000000e+00  -3.7942629852935485e-07 -5.8197251954273313e-07 0.0000000000000000e+00  -9.4332689386579777e-07 -5.1232742481982350e-07 0.0000000000000000e+00  -5.1455133850056110e-07 -5.4641453229179105e-07 0.0000000000000000e+00  -1.2913663712636433e-07 -1.9442980596066992e-07 0.0000000000000000e+00  -3.0287992022329302e-07 -2.8989620394869375e-07 0.0000000000000000e+00  -2.7773780184586797e-08 -3.6917333791829144e-07 0.0000000000000000e+00  9.1039962167828809e-10 -1.9739574052975398e-07 0.0000000000000000e+00  -4.3588966445572397e-07 -3.4612844899860396e-07 0.0000000000000000e+00  1.0281779630185275e-07 -3.4586132388586717e-07 0.0000000000000000e+00  -1.0493396664326902e-07 -1.1481445672904218e-07 0.0000000000000000e+00  -8.7137016758531358e-08 1.0010110501662251e-05 0.0000000000000000e+00  1.2878122983691927e-07 2.5404053750099362e-05 0.0000000000000000e+00  -1.6057549716040427e-07 4.5171416172688642e-05 0.0000000000000000e+00  1.4842028173467754e-08 6.9394695151238201e-05 0.0000000000000000e+00  -7.5249528972039840e-08 9.7205116940263749e-05 0.0000000000000000e+00  -5.9886041991719185e-08 1.2891314393788703e-04 0.0000000000000000e+00  1.3614497016963047e-07 1.6383743585493337e-04 0.0000000000000000e+00  -1.2656935607457775e-07 2.0198507174861121e-04 0.0000000000000000e+00  1.1549657988700208e-07 2.4318719251817912e-04 0.0000000000000000e+00  -1.5295860981997469e-07 2.8719960477984033e-04 0.0000000000000000e+00  9.4030957773185392e-08 3.3390909651231172e-04 0.0000000000000000e+00  -6.0478039204073123e-08 3.8328750175929102e-04 0.0000000000000000e+00  6.8003399235644415e-08 4.3522565100448190e-04 0.0000000000000000e+00  -1.2582325657585146e-07 4.8960035914645387e-04 0.0000000000000000e+00  7.7390234724211087e-08 5.4647570122157651e-04 0.0000000000000000e+00  -9.2971671785229061e-08 6.0575133812345076e-04 0.0000000000000000e+00  -5.9889356706403993e-08 6.6758302232693351e-04 0.0000000000000000e+00  2.9759863777869990e-08 7.3162240446774881e-04 0.0000000000000000e+00  7.1193234901858038e-08 7.9837864485388132e-04 0.0000000000000000e+00  -3.4254052927788010e-08 8.6753126236277522e-04 0.0000000000000000e+00  5.0907574864837413e-08 9.3930857388214626e-04 0.0000000000000000e+00  -1.3403364512372108e-07 1.0136836697308776e-03 0.0000000000000000e+00  3.7197023067929140e-08 1.0911016413586456e-03 0.0000000000000000e+00  1.5983028434182164e-08 1.1708058772428342e-03 0.0000000000000000e+00  -2.1622419211626617e-08 1.2543168597901296e-03 0.0000000000000000e+00  -1.6119855039070752e-07 1.3409896323145272e-03 0.0000000000000000e+00  -7.8326338899168280e-08 1.4306890694828849e-03 0.0000000000000000e+00  -8.0043777713442203e-08 1.5236020238138749e-03 0.0000000000000000e+00  1.1107756020448634e-07 1.6207654987734738e-03 0.0000000000000000e+00  -2.0265246168516824e-07 1.7220775727802820e-03 0.0000000000000000e+00  6.7878404199228638e-08 1.8279061682170688e-03 0.0000000000000000e+00  -2.2388962316770110e-07 1.9383403946358726e-03 0.0000000000000000e+00  8.2314527503654563e-08 2.0541636765228728e-03 0.0000000000000000e+00  -1.7462306974772860e-07 2.1749917092510796e-03 0.0000000000000000e+00  -9.0876239711899937e-08 2.3012913372423087e-03 0.0000000000000000e+00  -1.1839344284105560e-07 2.4365061962041156e-03 0.0000000000000000e+00  -2.1804037240715491e-08 2.5753605633263743e-03 0.0000000000000000e+00  2.6701197396058085e-07 2.7258971131875463e-03 0.0000000000000000e+00  -6.6536058316424855e-07 2.8828004581822656e-03 0.0000000000000000e+00  3.5399512663650600e-07 3.0481768089949918e-03 0.0000000000000000e+00  -3.8117327991030552e-07 3.2251235587400476e-03 0.0000000000000000e+00  2.5686684930929551e-07 3.4141734559368178e-03 0.0000000000000000e+00  -3.8734416999127674e-07 3.6157057974550676e-03 0.0000000000000000e+00  -2.6333212908818916e-07 3.8301099857745895e-03 0.0000000000000000e+00  -9.5381773487783349e-08 4.0645399082334241e-03 0.0000000000000000e+00  9.6321087771602544e-07 4.3133221188749356e-03 0.0000000000000000e+00  -6.6185942834583007e-07 4.5837714907601993e-03 0.0000000000000000e+00  1.4954239550802559e-08 4.8786279193142991e-03 0.0000000000000000e+00  2.8069148436666695e-07 5.2015771166542416e-03 0.0000000000000000e+00  -2.7373884829370335e-07 5.5502690895127028e-03 0.0000000000000000e+00  -3.1621696856732675e-07 5.9301378229591386e-03 0.0000000000000000e+00  -1.6721040794920174e-06 6.3664487018739273e-03 0.0000000000000000e+00  1.6302760991623541e-06 6.8402911640626299e-03 0.0000000000000000e+00  -2.4046377639719403e-06 7.3703565679738752e-03 0.0000000000000000e+00  3.1008201767838256e-06 7.9763608943781723e-03 0.0000000000000000e+00  -4.2507485814310870e-06 8.6607162879487158e-03 0.0000000000000000e+00  1.1188996245371785e-06 9.4533729916894838e-03 0.0000000000000000e+00  -7.3178668452962156e-06 1.0369872019272986e-02 0.0000000000000000e+00  2.4983195275114157e-06 1.1488257307508243e-02 0.0000000000000000e+00  -2.0233060847295756e-05 1.2768708310451016e-02 0.0000000000000000e+00  4.9199858770781886e-06 1.4362456235951858e-02 0.0000000000000000e+00  -2.9289825288864256e-05 1.6270155436474247e-02 0.0000000000000000e+00  -1.2093427944065329e-05 1.8838395888497065e-02 0.0000000000000000e+00  -4.7637706547345402e-05 2.2456651693100523e-02 0.0000000000000000e+00  -1.9761368415027470e-04 2.6741856044565294e-02 0.0000000000000000e+00  9.5583887659449033e-04 3.4440464478819190e-02 0.0000000000000000e+00  -6.9352228597782681e-03 4.6841623912131328e-02 0.0000000000000000e+00  3.5544091650387251e-02 6.3436413429910646e-02 0.0000000000000000e+00  -1.5407057357828748e-04 -9.1465556080357177e-04 0.0000000000000000e+00  -8.0963306749316528e-04 2.2254949558796222e-04 0.0000000000000000e+00  -5.3683365172288256e-05 -1.1108224078473516e-03 0.0000000000000000e+00  -1.0598597767487821e-03 7.2199160876649496e-04 0.0000000000000000e+00  -3.8691359556187311e-04 2.4089100276534415e-04 0.0000000000000000e+00  3.1951167478986355e-04 -8.6758049052729897e-04 0.0000000000000000e+00  6.7548870575279455e-04 -4.0334074303539463e-04 0.0000000000000000e+00  -1.2909326957917320e-03 1.8406928353359279e-03 0.0000000000000000e+00  -6.9934594082554245e-04 9.0792110720721805e-04 0.0000000000000000e+00  -5.3310163806902472e-04 -2.5434926183631886e-04 0.0000000000000000e+00  1.6790081356696631e-03 -1.6593419468154801e-03 0.0000000000000000e+00  -1.7066191676975058e-03 3.0861482247336821e-03 0.0000000000000000e+00  -4.1278352022608412e-04 6.0210847226477250e-04 0.0000000000000000e+00  -8.4034223833350213e-04 1.9505990391926790e-03 0.0000000000000000e+00  6.2407129765824454e-04 5.2402466036710170e-05 0.0000000000000000e+00  1.5578037372303998e-04 -6.1231800393043902e-04 0.0000000000000000e+00  -5.5033841709146655e-04 1.5297247388048520e-03 0.0000000000000000e+00  3.2781908971061865e-03 -2.5802055230482726e-03 0.0000000000000000e+00  -5.4837936509456785e-04 8.0161819841124954e-05 0.0000000000000000e+00  1.3721664510083238e-03 -8.2159710239313507e-04 0.0000000000000000e+00  -4.7559456288171224e-04 -7.5427683679630685e-04 0.0000000000000000e+00  -8.3077816094900608e-04 -1.9880227953492425e-04 0.0000000000000000e+00  1.1875383770344086e-03 -2.1669897061302090e-04 0.0000000000000000e+00  -1.4844893129958354e-04 1.1625655529310312e-04 0.0000000000000000e+00  -2.2102745326173481e-03 4.8638091736142881e-03 0.0000000000000000e+00  -1.1263855229595827e-03 3.5183604015075220e-03 0.0000000000000000e+00  -2.4121481952442937e-04 3.8084330082920374e-04 0.0000000000000000e+00  -3.6862760584781707e-04 9.6814989447163756e-04 0.0000000000000000e+00  3.9282553636925855e-04 1.1631525996001485e-04 0.0000000000000000e+00  -8.0348937431842923e-04 2.8832665519218366e-03 0.0000000000000000e+00  7.6448190345106463e-04 -1.1430503318348895e-03 0.0000000000000000e+00  -1.6718034125572448e-04 -2.1373920179636286e-04 0.0000000000000000e+00  2.2932064947656981e-04 -1.9440944954836640e-04 0.0000000000000000e+00  1.8585855649280436e-03 -2.0481978240253071e-03 0.0000000000000000e+00  -6.9237161129128289e-04 -5.4356256322597858e-05 0.0000000000000000e+00  9.9890545383115367e-04 -6.3197069534464312e-05 0.0000000000000000e+00  -9.7195530335415705e-04 1.0322893475495281e-04 0.0000000000000000e+00  -9.4309940332853494e-04 4.0288748899637464e-04 0.0000000000000000e+00  1.6148020110154214e-04 8.9038791648737758e-05 0.0000000000000000e+00  -3.5084027983711203e-04 -5.8014987662696098e-04 0.0000000000000000e+00  -6.1969818197571901e-04 3.4263972829605497e-04 0.0000000000000000e+00  5.0624655787823386e-04 -8.8843695640202400e-05 0.0000000000000000e+00  -3.3184018595420811e-04 1.3156560812346678e-03 0.0000000000000000e+00  5.7504084992041774e-03 -3.1744598596181580e-03 0.0000000000000000e+00  -3.2702412799655458e-04 7.7233912389296938e-05 0.0000000000000000e+00  2.1079150174578838e-03 -1.1013992258042205e-03 0.0000000000000000e+00  -4.6178117199943182e-04 2.1114951989734754e-03 0.0000000000000000e+00  -8.9051908339682709e-04 1.0903167237120307e-03 0.0000000000000000e+00  4.0653612338200729e-04 -1.3705920073745035e-03 0.0000000000000000e+00  -5.9413403939383841e-04 -4.5260840073370058e-04 0.0000000000000000e+00  -4.4312852549151135e-04 -5.8562502795808846e-05 0.0000000000000000e+00  3.0708030481278346e-03 -1.6244022055847682e-03 0.0000000000000000e+00  -1.1882539952933510e-03 4.9487701645679139e-03 0.0000000000000000e+00  -2.2310746707889892e-04 7.3490583816027567e-04 0.0000000000000000e+00  -1.1466588548374134e-03 1.2665912703525280e-03 0.0000000000000000e+00  -1.3566141780361194e-03 1.2803050484077514e-03 0.0000000000000000e+00  -6.5141648252197890e-04 6.1460713681629341e-04 0.0000000000000000e+00  1.3142174973150768e-03 -3.0714156132345124e-04 0.0000000000000000e+00  2.5789124654789202e-04 -1.3924128768559741e-03 0.0000000000000000e+00  -8.2359175180885815e-04 -6.2816190102526443e-05 0.0000000000000000e+00  -1.5243058720932357e-04 -7.0298115165545359e-04 0.0000000000000000e+00  -2.7548918168889655e-03 7.7944293135932298e-03 0.0000000000000000e+00  -1.3176536546434834e-04 2.4931664650441350e-04 0.0000000000000000e+00  4.0143420254245363e-03 -1.9775432284516183e-03 0.0000000000000000e+00  -4.2542029016768917e-04 3.4262714934523642e-06 0.0000000000000000e+00  6.1649802989265621e-04 2.0334908453142561e-04 0.0000000000000000e+00  3.6266106202751129e-04 3.6062587617578729e-05 0.0000000000000000e+00  7.2439012241432628e-04 -7.7083287960954552e-04 0.0000000000000000e+00  4.1687217162436297e-03 2.2261881731406756e-04 0.0000000000000000e+00  -5.4416514232049760e-05 5.0915895272420051e-05 0.0000000000000000e+00  8.2701969611991590e-03 -3.8474752563968022e-03 0.0000000000000000e+00  -1.8858197176021182e-04 6.2009859157760380e-05 0.0000000000000000e+00  -4.7630008448465357e-04 2.6056012237516617e-03 0.0000000000000000e+00  -9.0584113019999478e-04 -7.3102466035497118e-05 0.0000000000000000e+00  8.2712549253173486e-04 1.6720812133827080e-04 0.0000000000000000e+00  -2.8215820326927236e-04 -8.8275117414307678e-05 0.0000000000000000e+00  3.6518512088974767e-04 -3.7788062362495866e-06 0.0000000000000000e+00  1.8907457863314770e-03 -2.2616733149538495e-03 0.0000000000000000e+00  -5.2961539116092428e-04 1.8249521587628180e-04 0.0000000000000000e+00  -3.1623540449283072e-04 1.8189904148267384e-03 0.0000000000000000e+00  -1.4797969708688745e-03 6.0998402936402090e-03 0.0000000000000000e+00  -1.7818156977548341e-04 5.4470639298297326e-04 0.0000000000000000e+00  -6.4699909931881011e-04 3.6751727354284967e-03 0.0000000000000000e+00  -2.6613204870481154e-04 -4.1264022549588101e-04 0.0000000000000000e+00  -1.0698337977411189e-03 2.0889477864648688e-03 0.0000000000000000e+00  -1.5010259451261317e-03 1.7007827407161523e-03 0.0000000000000000e+00  -4.0816080747613811e-04 3.9839589100265817e-04 0.0000000000000000e+00  -3.4037103865553089e-03 9.4760779497591006e-03 0.0000000000000000e+00  -8.4076801234058172e-05 1.4294629734260740e-04 0.0000000000000000e+00  -1.1364202933345363e-03 5.6861581649912305e-04 0.0000000000000000e+00  -8.2242076675077326e-04 5.8285669531744292e-04 0.0000000000000000e+00  1.7704275072079239e-03 -6.2074163782093795e-04 0.0000000000000000e+00  -1.1332215316617075e-03 1.4838953915236326e-03 0.0000000000000000e+00  -2.5268661551384829e-04 2.2852362384608024e-04 0.0000000000000000e+00  -5.7878472567983962e-04 -6.1367626911582344e-04 0.0000000000000000e+00  2.6173961555053674e-04 -6.9658728772657174e-05 0.0000000000000000e+00  -9.9345191375443303e-04 1.3272332343253180e-03 0.0000000000000000e+00  1.0364285859161999e-03 -1.8575684094330775e-03 0.0000000000000000e+00  -6.8429873699091389e-04 1.8252401659744297e-04 0.0000000000000000e+00  -3.1868195751060235e-04 3.4619116926395393e-05 0.0000000000000000e+00  5.7058290192199155e-03 -2.3565066553701132e-03 0.0000000000000000e+00  7.9579777365800943e-06 -1.1011588816000985e-04 0.0000000000000000e+00  1.5285256905605193e-03 -1.2865446664331055e-03 0.0000000000000000e+00  8.4104541467854880e-05 -3.2101246849196519e-04 0.0000000000000000e+00  7.7296021328336216e-04 -1.699028452