<?xml version="1.0"?>
<VTKFile type="UnstructuredGrid"  version="0.1"  >
<UnstructuredGrid>
<Piece  NumberOfPoints="6878" NumberOfCells="13164">
<Points>
<DataArray  type="Float64"  NumberOfComponents="3"  format="ascii">0 -4.7 0  0 0 0  30 -4.7 0  30 0 0  0 -7.400000000000001 0  30 -7.4 0  0 -18.5 0  30 -18.5 0  0 -26.2 0  30 -26.2 0  0 -50 0  30 -50 0  0 -4.600000000000001 0  0 -4.5 0  0 -4.400000000000006 0  0 -4.300000000000004 0  0 -4.200000000000003 0  0 -4.100000000000001 0  0 -4 0  0 -3.900000000000006 0  0 -3.800000000000004 0  0 -3.700000000000003 0  0 -3.600000000000001 0  0 -3.5 0  0 -3.399999999999999 0  0 -3.300000000000004 0  0 -3.200000000000003 0  0 -3.100000000000001 0  0 -3 0  0 -2.899999999999999 0  0 -2.800000000000004 0  0 -2.700000000000003 0  0 -2.600000000000001 0  0 -2.5 0  0 -2.399999999999999 0  0 -2.300000000000004 0  0 -2.200000000000003 0  0 -2.100000000000001 0  0 -2 0  0 -1.899999999999999 0  0 -1.800000000000004 0  0 -1.700000000000003 0  0 -1.600000000000001 0  0 -1.5 0  0 -1.399999999999999 0  0 -1.299999999999997 0  0 -1.200000000000003 0  0 -1.100000000000001 0  0 -1 0  0 -0.8999999999999986 0  0 -0.7999999999999972 0  0 -0.7000000000000028 0  0 -0.6000000000000014 0  0 -0.5 0  0 -0.3999999999999986 0  0 -0.2999999999999972 0  0 -0.2000000000000028 0  0 -0.1000000000000014 0  27.20217989386866 -4.7 0  24.65658906909652 -4.7 0  22.34048801472263 -4.7 0  20.23318823704648 -4.7 0  18.31586556845244 -4.7 0  16.57139348071823 -4.7 0  14.98418876757752 -4.7 0  13.54007369188117 -4.7 0  12.22614858325946 -4.7 0  11.030676339135 -4.7 0  9.942978351836206 -4.7 0  8.953338525856648 -4.7 0  8.05291659827531 -4.7 0  7.233669706591556 -4.7 0  6.488279294550789 -4.7 0  5.810087358879393 -4.7 0  5.193035808349475 -4.7 0  4.63161272757354 -4.7 0  4.120803011558468 -4.7 0  3.656043793650667 -4.7 0  3.233183542557395 -4.7 0  2.848444929339642 -4.7 0  2.498391295710253 -4.7 0  2.179895695159122 -4.7 0  1.890113142755961 -4.7 0  1.626455036319303 -4.7 0  1.386566232068105 -4.7 0  1.168303849643234 -4.7 0  0.9697182933451884 -4.7 0  0.7890355808892515 -4.7 0  0.6246417939513229 -4.7 0  0.4750684255735287 -4.7 0  0.3389794053272652 -4.7 0  0.2151590556389955 -4.7 0  0.1025013769923682 -4.7 0  30 -2.350000000000001 0  0.1025013769923625 0 0  0.2151590556389869 0 0  0.3389794053272567 0 0  0.4750684255735099 0 0  0.6246417939512939 0 0  0.7890355808892227 0 0  0.9697182933451539 0 0  1.168303849643196 0 0  1.38656623206806 0 0  1.626455036319255 0 0  1.890113142755908 0 0  2.179895695159067 0 0  2.498391295710194 0 0  2.848444929339589 0 0  3.23318354255733 0 0  3.656043793650604 0 0  4.120803011558392 0 0  4.631612727573458 0 0  5.193035808349383 0 0  5.810087358879279 0 0  6.488279294550655 0 0  7.233669706591403 0 0  8.052916598275138 0 0  8.953338525856477 0 0  9.94297835183602 0 0  11.03067633913478 0 0  12.22614858325929 0 0  13.54007369188101 0 0  14.98418876757734 0 0  16.57139348071805 0 0  18.31586556845233 0 0  20.23318823704643 0 0  22.34048801472261 0 0  24.65658906909657 0 0  27.20217989386881 0 0  0 -7.299999999999997 0  0 -7.199999999999996 0  0 -7.100000000000001 0  0 -7 0  0 -6.899999999999999 0  0 -6.799999999999997 0  0 -6.700000000000003 0  0 -6.600000000000001 0  0 -6.5 0  0 -6.399999999999999 0  0 -6.299999999999997 0  0 -6.200000000000003 0  0 -6.100000000000001 0  0 -6 0  0 -5.899999999999999 0  0 -5.800000000000004 0  0 -5.700000000000003 0  0 -5.600000000000001 0  0 -5.5 0  0 -5.399999999999999 0  0 -5.300000000000004 0  0 -5.200000000000003 0  0 -5.100000000000001 0  0 -5 0  0 -4.900000000000006 0  0 -4.800000000000004 0  27.20217989386866 -7.4 0  24.65658906909652 -7.4 0  22.34048801472263 -7.4 0  20.23318823704648 -7.4 0  18.31586556845244 -7.4 0  16.57139348071823 -7.4 0  14.98418876757752 -7.4 0  13.54007369188117 -7.4 0  12.22614858325946 -7.4 0  11.030676339135 -7.4 0  9.942978351836206 -7.4 0  8.953338525856648 -7.4 0  8.05291659827531 -7.4 0  7.233669706591556 -7.4 0  6.488279294550789 -7.4 0  5.810087358879393 -7.4 0  5.193035808349475 -7.4 0  4.63161272757354 -7.4 0  4.120803011558468 -7.4 0  3.656043793650667 -7.4 0  3.233183542557395 -7.4 0  2.848444929339642 -7.4 0  2.498391295710253 -7.4 0  2.179895695159122 -7.4 0  1.890113142755961 -7.4 0  1.626455036319303 -7.4 0  1.386566232068105 -7.4 0  1.168303849643234 -7.4 0  0.9697182933451884 -7.4 0  0.7890355808892515 -7.4 0  0.6246417939513229 -7.4 0  0.4750684255735287 -7.4 0  0.3389794053272652 -7.4 0  0.2151590556389955 -7.4 0  0.1025013769923682 -7.4 0  0 -18.4 0  0 -18.3 0  0 -18.2 0  0 -18.1 0  0 -18 0  0 -17.9 0  0 -17.8 0  0 -17.7 0  0 -17.6 0  0 -17.5 0  0 -17.4 0  0 -17.3 0  0 -17.2 0  0 -17.1 0  0 -17 0  0 -16.9 0  0 -16.8 0  0 -16.7 0  0 -16.6 0  0 -16.5 0  0 -16.4 0  0 -16.3 0  0 -16.2 0  0 -16.1 0  0 -16 0  0 -15.9 0  0 -15.8 0  0 -15.7 0  0 -15.6 0  0 -15.5 0  0 -15.4 0  0 -15.3 0  0 -15.2 0  0 -15.1 0  0 -15 0  0 -14.9 0  0 -14.8 0  0 -14.7 0  0 -14.6 0  0 -14.5 0  0 -14.4 0  0 -14.3 0  0 -14.2 0  0 -14.1 0  0 -14 0  0 -13.9 0  0 -13.8 0  0 -13.7 0  0 -13.6 0  0 -13.5 0  0 -13.4 0  0 -13.3 0  0 -13.2 0  0 -13.1 0  0 -13 0  0 -12.9 0  0 -12.8 0  0 -12.7 0  0 -12.6 0  0 -12.5 0  0 -12.4 0  0 -12.3 0  0 -12.2 0  0 -12.1 0  0 -12 0  0 -11.9 0  0 -11.8 0  0 -11.7 0  0 -11.6 0  0 -11.5 0  0 -11.4 0  0 -11.3 0  0 -11.2 0  0 -11.1 0  0 -11 0  0 -10.9 0  0 -10.8 0  0 -10.7 0  0 -10.6 0  0 -10.5 0  0 -10.4 0  0 -10.3 0  0 -10.2 0  0 -10.1 0  0 -10 0  0 -9.899999999999999 0  0 -9.799999999999997 0  0 -9.699999999999996 0  0 -9.600000000000001 0  0 -9.5 0  0 -9.399999999999999 0  0 -9.299999999999997 0  0 -9.199999999999996 0  0 -9.100000000000001 0  0 -9 0  0 -8.899999999999999 0  0 -8.799999999999997 0  0 -8.699999999999996 0  0 -8.599999999999994 0  0 -8.5 0  0 -8.399999999999999 0  0 -8.299999999999997 0  0 -8.199999999999996 0  0 -8.099999999999994 0  0 -8 0  0 -7.899999999999999 0  0 -7.799999999999997 0  0 -7.699999999999996 0  0 -7.599999999999994 0  0 -7.5 0  27.20217989386866 -18.5 0  24.65658906909652 -18.5 0  22.34048801472263 -18.5 0  20.23318823704648 -18.5 0  18.31586556845244 -18.5 0  16.57139348071823 -18.5 0  14.98418876757752 -18.5 0  13.54007369188117 -18.5 0  12.22614858325946 -18.5 0  11.030676339135 -18.5 0  9.942978351836206 -18.5 0  8.953338525856648 -18.5 0  8.05291659827531 -18.5 0  7.233669706591556 -18.5 0  6.488279294550789 -18.5 0  5.810087358879393 -18.5 0  5.193035808349475 -18.5 0  4.63161272757354 -18.5 0  4.120803011558468 -18.5 0  3.656043793650667 -18.5 0  3.233183542557395 -18.5 0  2.848444929339642 -18.5 0  2.498391295710253 -18.5 0  2.179895695159122 -18.5 0  1.890113142755961 -18.5 0  1.626455036319303 -18.5 0  1.386566232068105 -18.5 0  1.168303849643234 -18.5 0  0.9697182933451884 -18.5 0  0.7890355808892515 -18.5 0  0.6246417939513229 -18.5 0  0.4750684255735287 -18.5 0  0.3389794053272652 -18.5 0  0.2151590556389955 -18.5 0  0.1025013769923682 -18.5 0  30 -10.175 0  30 -12.95000000000001 0  30 -15.72500000000001 0  0 -26.1 0  0 -26 0  0 -25.9 0  0 -25.8 0  0 -25.7 0  0 -25.6 0  0 -25.5 0  0 -25.4 0  0 -25.3 0  0 -25.2 0  0 -25.1 0  0 -25 0  0 -24.9 0  0 -24.8 0  0 -24.7 0  0 -24.6 0  0 -24.5 0  0 -24.4 0  0 -24.3 0  0 -24.2 0  0 -24.1 0  0 -24 0  0 -23.9 0  0 -23.8 0  0 -23.7 0  0 -23.6 0  0 -23.5 0  0 -23.4 0  0 -23.3 0  0 -23.2 0  0 -23.1 0  0 -23 0  0 -22.9 0  0 -22.8 0  0 -22.7 0  0 -22.6 0  0 -22.5 0  0 -22.4 0  0 -22.3 0  0 -22.2 0  0 -22.1 0  0 -22 0  0 -21.9 0  0 -21.8 0  0 -21.7 0  0 -21.6 0  0 -21.5 0  0 -21.4 0  0 -21.3 0  0 -21.2 0  0 -21.1 0  0 -21 0  0 -20.9 0  0 -20.8 0  0 -20.7 0  0 -20.6 0  0 -20.5 0  0 -20.4 0  0 -20.3 0  0 -20.2 0  0 -20.1 0  0 -20 0  0 -19.9 0  0 -19.8 0  0 -19.7 0  0 -19.6 0  0 -19.5 0  0 -19.4 0  0 -19.3 0  0 -19.2 0  0 -19.1 0  0 -19 0  0 -18.9 0  0 -18.8 0  0 -18.7 0  0 -18.6 0  27.20217989386866 -26.2 0  24.65658906909652 -26.2 0  22.34048801472263 -26.2 0  20.23318823704648 -26.2 0  18.31586556845244 -26.2 0  16.57139348071823 -26.2 0  14.98418876757752 -26.2 0  13.54007369188117 -26.2 0  12.22614858325946 -26.2 0  11.030676339135 -26.2 0  9.942978351836206 -26.2 0  8.953338525856648 -26.2 0  8.05291659827531 -26.2 0  7.233669706591556 -26.2 0  6.488279294550789 -26.2 0  5.810087358879393 -26.2 0  5.193035808349475 -26.2 0  4.63161272757354 -26.2 0  4.120803011558468 -26.2 0  3.656043793650667 -26.2 0  3.233183542557395 -26.2 0  2.848444929339642 -26.2 0  2.498391295710253 -26.2 0  2.179895695159122 -26.2 0  1.890113142755961 -26.2 0  1.626455036319303 -26.2 0  1.386566232068105 -26.2 0  1.168303849643234 -26.2 0  0.9697182933451884 -26.2 0  0.7890355808892515 -26.2 0  0.6246417939513229 -26.2 0  0.4750684255735287 -26.2 0  0.3389794053272652 -26.2 0  0.2151590556389955 -26.2 0  0.1025013769923682 -26.2 0  30 -21.06666666666667 0  30 -23.63333333333334 0  0 -49.9 0  0 -49.8 0  0 -49.7 0  0 -49.6 0  0 -49.5 0  0 -49.4 0  0 -49.3 0  0 -49.2 0  0 -49.1 0  0 -49 0  0 -48.9 0  0 -48.8 0  0 -48.7 0  0 -48.6 0  0 -48.5 0  0 -48.40000000000001 0  0 -48.3 0  0 -48.2 0  0 -48.1 0  0 -48 0  0 -47.90000000000001 0  0 -47.8 0  0 -47.7 0  0 -47.6 0  0 -47.5 0  0 -47.40000000000001 0  0 -47.3 0  0 -47.2 0  0 -47.1 0  0 -47.00000000000001 0  0 -46.90000000000001 0  0 -46.8 0  0 -46.7 0  0 -46.6 0  0 -46.50000000000001 0  0 -46.40000000000001 0  0 -46.3 0  0 -46.2 0  0 -46.10000000000001 0  0 -46.00000000000001 0  0 -45.90000000000001 0  0 -45.8 0  0 -45.7 0  0 -45.60000000000001 0  0 -45.50000000000001 0  0 -45.40000000000001 0  0 -45.3 0  0 -45.2 0  0 -45.10000000000001 0  0 -45.00000000000001 0  0 -44.90000000000001 0  0 -44.8 0  0 -44.70000000000001 0  0 -44.60000000000001 0  0 -44.50000000000001 0  0 -44.40000000000001 0  0 -44.30000000000001 0  0 -44.20000000000001 0  0 -44.10000000000001 0  0 -44.00000000000001 0  0 -43.90000000000001 0  0 -43.80000000000001 0  0 -43.70000000000001 0  0 -43.60000000000001 0  0 -43.50000000000001 0  0 -43.40000000000001 0  0 -43.30000000000001 0  0 -43.20000000000001 0  0 -43.10000000000002 0  
[...]
<PointData  Vectors="displacement"> 
<DataArray  type="Float64"  Name="displacement"  NumberOfComponents="3" format="ascii">7.8457892391644810e-06 2.0909117083462211e-01 0.0000000000000000e+00  1.5000769240285997e-01 9.7851984903529754e-03 0.0000000000000000e+00  -1.2996048228090673e-04 -7.9055812831289440e-03 0.0000000000000000e+00  -1.6559870444050230e-04 -4.1526465954137932e-03 0.0000000000000000e+00  -4.7680338645375270e-06 2.6027762536814492e-02 0.0000000000000000e+00  2.9539521593995532e-04 -1.2237934534240229e-02 0.0000000000000000e+00  2.0063371753867529e-07 1.2502360484782109e-02 0.0000000000000000e+00  -5.7474994295426686e-05 -8.2889803402147900e-04 0.0000000000000000e+00  2.4692351756885907e-08 2.1866915630448986e-03 0.0000000000000000e+00  -3.1541343734768987e-06 -3.7636835047178618e-05 0.0000000000000000e+00  5.5664774485145185e-09 5.6653304743278701e-04 0.0000000000000000e+00  1.7062371376842906e-06 2.8202941850717286e-05 0.0000000000000000e+00  -6.3148519060819065e-06 2.6725375273517965e-01 0.0000000000000000e+00  -1.1165836917375231e-05 3.0476556469550747e-01 0.0000000000000000e+00  -1.2255393290487759e-05 3.6461664452961196e-01 0.0000000000000000e+00  -4.5069817086203668e-05 4.6333349418626169e-01 0.0000000000000000e+00  -2.0700578311870609e-05 6.3056289241891195e-01 0.0000000000000000e+00  -7.7950187369506816e-04 1.0242228723527667e+00 0.0000000000000000e+00  3.2365444547428255e-03 2.5378046707029567e+00 0.0000000000000000e+00  1.1036678260982791e-01 -1.5518511005579021e+00 0.0000000000000000e+00  1.5787398564977037e-01 -2.0712473858632543e+00 0.0000000000000000e+00  1.4909560862380727e-01 -6.6033386536767680e-01 0.0000000000000000e+00  1.5005757055451216e-01 -5.3680903403398694e-01 0.0000000000000000e+00  1.5005639330978734e-01 -4.0511071006700106e-01 0.0000000000000000e+00  1.4999321373816032e-01 -3.2656907112161043e-01 0.0000000000000000e+00  1.5002047120752340e-01 -2.7464901175189643e-01 0.0000000000000000e+00  1.4998204272840085e-01 -2.3618265007491698e-01 0.0000000000000000e+00  1.5000658346999499e-01 -2.0723015985507223e-01 0.0000000000000000e+00  1.5000128529168766e-01 -1.8382708471246920e-01 0.0000000000000000e+00  1.5000029737209838e-01 -1.6525821240812227e-01 0.0000000000000000e+00  1.5000763009388390e-01 -1.4966704344171400e-01 0.0000000000000000e+00  1.4999676304649573e-01 -1.3641562704967913e-01 0.0000000000000000e+00  1.5000390893560478e-01 -1.2503253006705695e-01 0.0000000000000000e+00  1.4999882635169293e-01 -1.1499964148324458e-01 0.0000000000000000e+00  1.5000062756053825e-01 -1.0618251966100964e-01 0.0000000000000000e+00  1.5000043681432523e-01 -9.8273504660169472e-02 0.0000000000000000e+00  1.4999998969601727e-01 -9.1105990569094228e-02 0.0000000000000000e+00  1.5000036510790807e-01 -8.4570296470773812e-02 0.0000000000000000e+00  1.5000032635664845e-01 -7.8539070057903920e-02 0.0000000000000000e+00  1.5000000626835353e-01 -7.2928994426412708e-02 0.0000000000000000e+00  1.5000000228092161e-01 -6.7679529012526496e-02 0.0000000000000000e+00  1.4999989662812135e-01 -6.2720352493604137e-02 0.0000000000000000e+00  1.4999998434816558e-01 -5.8008823816816463e-02 0.0000000000000000e+00  1.4999997917802060e-01 -5.3494910175228373e-02 0.0000000000000000e+00  1.5000020950206588e-01 -4.9148075609279480e-02 0.0000000000000000e+00  1.4999977830954450e-01 -4.4929778856174399e-02 0.0000000000000000e+00  1.5000026852522078e-01 -4.0811368445317242e-02 0.0000000000000000e+00  1.5000127158296919e-01 -3.6764176298042420e-02 0.0000000000000000e+00  1.4999816240430255e-01 -3.2764918377320686e-02 0.0000000000000000e+00  1.5000293630851366e-01 -2.8790283758035617e-02 0.0000000000000000e+00  1.4999720792284532e-01 -2.4812924608056140e-02 0.0000000000000000e+00  1.5000279431829172e-01 -2.0816298459039970e-02 0.0000000000000000e+00  1.4999731529160903e-01 -1.6768217770544977e-02 0.0000000000000000e+00  1.5000321573070238e-01 -1.2659552177741843e-02 0.0000000000000000e+00  1.4999905013514023e-01 -8.4578210403173509e-03 0.0000000000000000e+00  1.4999964633827542e-01 -4.1365361639344126e-03 0.0000000000000000e+00  1.4999981758978367e-01 3.2293933220289823e-04 0.0000000000000000e+00  1.5000238181139869e-01 4.9522069918255911e-03 0.0000000000000000e+00  5.0163420556205100e-03 -7.5649582914051995e-03 0.0000000000000000e+00  1.0080161558146025e-02 -7.3306304287662138e-03 0.0000000000000000e+00  1.4603911266462778e-02 -7.3900879740056583e-03 0.0000000000000000e+00  1.8676642382978205e-02 -7.5242324034497368e-03 0.0000000000000000e+00  2.2293814887249335e-02 -7.6308362662829438e-03 0.0000000000000000e+00  2.5547068232890536e-02 -7.6550370071252222e-03 0.0000000000000000e+00  2.8431297503203695e-02 -7.6633338649227372e-03 0.0000000000000000e+00  3.0960682621908320e-02 -7.3212477748582534e-03 0.0000000000000000e+00  3.3203071157393342e-02 -6.9597732498390867e-03 0.0000000000000000e+00  3.5139362146963692e-02 -6.8412746949375039e-03 0.0000000000000000e+00  3.6798428865746677e-02 -6.5806438257926076e-03 0.0000000000000000e+00  3.8204117689179411e-02 -6.1926416623043542e-03 0.0000000000000000e+00  3.9402384295800556e-02 -5.7077437390800727e-03 0.0000000000000000e+00  4.0386968938710910e-02 -5.1609712771492960e-03 0.0000000000000000e+00  4.1184909371903118e-02 -4.5378489496471124e-03 0.0000000000000000e+00  4.1788449453504205e-02 -3.8413621139125288e-03 0.0000000000000000e+00  4.2198464011106440e-02 -3.0621500165977683e-03 0.0000000000000000e+00  4.2391692387760457e-02 -2.1488597689548420e-03 0.0000000000000000e+00  4.2356980356096932e-02 -1.0441962659093044e-03 0.0000000000000000e+00  4.2037488083358755e-02 1.7328525035087121e-04 0.0000000000000000e+00  4.1444359206498867e-02 2.0617735379213614e-03 0.0000000000000000e+00  4.0529470703210502e-02 4.2898805535430259e-03 0.0000000000000000e+00  3.9248111140845254e-02 6.9899654706670018e-03 0.0000000000000000e+00  3.7600136063143268e-02 1.0786472682590739e-02 0.0000000000000000e+00  3.5503989836281773e-02 1.6767888459489552e-02 0.0000000000000000e+00  3.3020898640893061e-02 2.3339083440336292e-02 0.0000000000000000e+00  3.0093788446849217e-02 3.2885803182579935e-02 0.0000000000000000e+00  2.6715085248688618e-02 4.6120956644869232e-02 0.0000000000000000e+00  2.2982688790644690e-02 6.2622487405352936e-02 0.0000000000000000e+00  1.8983907977581288e-02 8.4073854900076961e-02 0.0000000000000000e+00  1.4968060444594629e-02 1.0983365884795120e-01 0.0000000000000000e+00  1.1080735495742748e-02 1.3927946522819765e-01 0.0000000000000000e+00  7.6484265499135113e-03 1.6602391601773156e-01 0.0000000000000000e+00  4.6647956033910891e-03 1.9039218688317125e-01 0.0000000000000000e+00  2.1676578408243632e-03 2.0539838331555696e-01 0.0000000000000000e+00  -1.2591163805544411e-05 -7.0520736943042684e-03 0.0000000000000000e+00  1.5028044545876559e-01 9.6769228713292355e-03 0.0000000000000000e+00  1.5057953240596555e-01 9.2435195437855465e-03 0.0000000000000000e+00  1.5088100320692718e-01 8.4647319512427752e-03 0.0000000000000000e+00  1.5118534962245797e-01 7.2398568480804091e-03 0.0000000000000000e+00  1.5145037259668709e-01 5.4587179107799325e-03 0.0000000000000000e+00  1.5165169750199842e-01 3.0593583690380023e-03 0.0000000000000000e+00  1.5172775763216001e-01 5.9313689560940506e-05 0.0000000000000000e+00  1.5163049420685976e-01 -3.7128397017890764e-03 0.0000000000000000e+00  1.5124877279184942e-01 -8.0408613553494494e-03 0.0000000000000000e+00  1.5053534524948661e-01 -1.3002590858160369e-02 0.0000000000000000e+00  1.4937011199600467e-01 -1.8156479288120652e-02 0.0000000000000000e+00  1.4769965966325083e-01 -2.3451638456748275e-02 0.0000000000000000e+00  1.4537848978037371e-01 -2.8480871863936753e-02 0.0000000000000000e+00  1.4236002498907835e-01 -3.2876637537094668e-02 0.0000000000000000e+00  1.3862938465978483e-01 -3.6476727088779082e-02 0.0000000000000000e+00  1.3413892904214364e-01 -3.9044824036537848e-02 0.0000000000000000e+00  1.2897197160069868e-01 -4.0526565083313003e-02 0.0000000000000000e+00  1.2312274285946274e-01 -4.0978950168407094e-02 0.0000000000000000e+00  1.1672477127910993e-01 -4.0484098354930297e-02 0.0000000000000000e+00  1.0983095123010488e-01 -3.9261974194867995e-02 0.0000000000000000e+00  1.0254798865351107e-01 -3.7477140082570033e-02 0.0000000000000000e+00  9.4974757812892954e-02 -3.5333615597665582e-02 0.0000000000000000e+00  8.7131768367299120e-02 -3.2929836794311607e-02 0.0000000000000000e+00  7.9164372190588597e-02 -3.0403001017046759e-02 0.0000000000000000e+00  7.1096846866348429e-02 -2.7800986454739791e-02 0.0000000000000000e+00  6.3034655600906556e-02 -2.5193942337572672e-02 0.0000000000000000e+00  5.5054112764363068e-02 -2.2620663272897995e-02 0.0000000000000000e+00  4.7200053412859003e-02 -2.0104421496128910e-02 0.0000000000000000e+00  3.9572026353929313e-02 -1.7684980275306187e-02 0.0000000000000000e+00  3.2227594474005423e-02 -1.5375927765684659e-02 0.0000000000000000e+00  2.5273181188073084e-02 -1.3189649228634342e-02 0.0000000000000000e+00  1.8758626974254042e-02 -1.1156417673003134e-02 0.0000000000000000e+00  1.2711920010671188e-02 -9.1559799420286060e-03 0.0000000000000000e+00  7.5340297330361407e-03 -7.1746365278070618e-03 0.0000000000000000e+00  3.2547018899754272e-03 -4.9093805840719476e-03 0.0000000000000000e+00  -3.7635147963235885e-06 -9.4625233391058498e-03 0.0000000000000000e+00  2.8102929226094063e-06 -3.0510569570329151e-03 0.0000000000000000e+00  -2.8472907012976447e-06 1.6639321793312811e-03 0.0000000000000000e+00  3.2020059608294189e-06 5.4088028605572564e-03 0.0000000000000000e+00  -2.6470115554937532e-06 9.4307001222004427e-03 0.0000000000000000e+00  1.4180608463935212e-06 1.3291223936490440e-02 0.0000000000000000e+00  -3.7645693081273182e-07 1.7174761475879163e-02 0.0000000000000000e+00  -8.6679267004375250e-08 2.1072062381035359e-02 0.0000000000000000e+00  -1.6601987032093782e-07 2.5016750589507229e-02 0.0000000000000000e+00  -7.5892585046473555e-07 2.9040660794460930e-02 0.0000000000000000e+00  2.7489984777027846e-07 3.3169148498411731e-02 0.0000000000000000e+00  -1.3384604641881878e-07 3.7440913328669508e-02 0.0000000000000000e+00  7.3152001226768355e-07 4.1889869689883126e-02 0.0000000000000000e+00  -1.2089269462632171e-06 4.6565406663348310e-02 0.0000000000000000e+00  -3.5438817885894990e-07 5.1515434423973598e-02 0.0000000000000000e+00  4.7466645507052916e-07 5.6787233966720037e-02 0.0000000000000000e+00  -1.8709699045241047e-06 6.2474620468239497e-02 0.0000000000000000e+00  1.4673151763321980e-06 6.8625731201489876e-02 0.0000000000000000e+00  -5.0143908030289016e-07 7.5356235734000881e-02 0.0000000000000000e+00  5.4893490644910549e-07 8.2841584754546491e-02 0.0000000000000000e+00  1.0116846399438643e-06 9.1188738467752731e-02 0.0000000000000000e+00  -2.1730565419530669e-08 1.0067265257679781e-01 0.0000000000000000e+00  -1.7438322109867795e-06 1.1144387987801060e-01 0.0000000000000000e+00  -1.0430141208595762e-06 1.2449569040817904e-01 0.0000000000000000e+00  -1.4984339792947624e-06 1.3899320627594183e-01 0.0000000000000000e+00  5.5100258421125708e-06 1.5512594878160324e-01 0.0000000000000000e+00  7.1491143191743899e-03 -8.6430062061464835e-03 0.0000000000000000e+00  1.2227907795176216e-02 -8.2825677264125198e-03 0.0000000000000000e+00  1.6269252083829601e-02 -7.9809925522071543e-03 0.0000000000000000e+00  1.9292082700951025e-02 -7.7439289828196978e-03 0.0000000000000000e+00  2.1439964616183940e-02 -7.4605209117398078e-03 0.0000000000000000e+00  2.2760020853138430e-02 -6.5551100375432188e-03 0.0000000000000000e+00  2.3368028329929184e-02 -5.1655942750793186e-03 0.0000000000000000e+00  2.3344830197328227e-02 -4.7703425535608824e-03 0.0000000000000000e+00  2.2724175492689874e-02 -3.8968097001785525e-03 0.0000000000000000e+00  2.1598649086845632e-02 -1.0982949910180906e-03 0.0000000000000000e+00  2.0057410900494378e-02 6.9300247038846957e-04 0.0000000000000000e+00  1.8171209400840656e-02 2.6437578634191574e-03 0.0000000000000000e+00  1.6028639460946133e-02 5.2617142634432392e-03 0.0000000000000000e+00  1.3678285277431293e-02 7.6999763124566221e-03 0.0000000000000000e+00  1.1200600841902502e-02 1.0284316411748057e-02 0.0000000000000000e+00  8.6564612952350854e-03 1.3081492479931687e-02 0.0000000000000000e+00  6.1218200537341005e-03 1.5824339427492087e-02 0.0000000000000000e+00  3.6531807526262823e-03 1.8699996421435584e-02 0.0000000000000000e+00  1.3333707169306702e-03 2.1395901889718922e-02 0.0000000000000000e+00  -7.7185900970299108e-04 2.3496505843830916e-02 0.0000000000000000e+00  -2.6016616035461171e-03 2.5726130844713913e-02 0.0000000000000000e+00  -4.0845440767468414e-03 2.7183864482384332e-02 0.0000000000000000e+00  -5.2012329183112535e-03 2.7503662496902156e-02 0.0000000000000000e+00  -5.9352027991824213e-03 2.8317250545650027e-02 0.0000000000000000e+00  -6.3012179744390932e-03 2.9942199808847079e-02 0.0000000000000000e+00  -6.3344494531624804e-03 2.9426172462007155e-02 0.0000000000000000e+00  -6.0913825442880046e-03 2.6117336511615678e-02 0.0000000000000000e+00  -5.6357685580008055e-03 2.6571728959459175e-02 0.0000000000000000e+00  -5.0207367083009227e-03 2.6069845788263286e-02 0.0000000000000000e+00  -4.3065367883234444e-03 2.8842859470535082e-02 0.0000000000000000e+00  -3.5458821586973953e-03 2.8865306823046735e-02 0.0000000000000000e+00  -2.7726439733461966e-03 2.7678054493715895e-02 0.0000000000000000e+00  -2.0151126856491988e-03 2.7204425939062023e-02 0.0000000000000000e+00  -1.2955611375389904e-03 2.7315397014843330e-02 0.0000000000000000e+00  -6.2165236587985602e-04 2.8893854943508622e-02 0.0000000000000000e+00  1.3185428231365630e-07 2.0429001582609272e-02 0.0000000000000000e+00  -2.8649383752768795e-08 1.9858274469067381e-02 0.0000000000000000e+00  6.6581800149557988e-09 1.9659139280035542e-02 0.0000000000000000e+00  9.9406885795099449e-09 1.9703424148802020e-02 0.0000000000000000e+00  -2.0192807373813850e-08 1.9627786928311599e-02 0.0000000000000000e+00  4.2348957715383160e-09 1.9601364842487222e-02 0.0000000000000000e+00  2.7119951478646012e-08 1.9568367652796077e-02 0.0000000000000000e+00  -5.7637797202622571e-08 1.9542533421463990e-02 0.0000000000000000e+00  2.5008354688334464e-08 1.9521032990459489e-02 0.0000000000000000e+00  -5.1368579774665241e-08 1.9504549590742885e-02 0.0000000000000000e+00  1.3448743551776336e-07 1.9492993302847438e-02 0.0000000000000000e+00  -1.9352771843675242e-07 1.9486106501841745e-02 0.0000000000000000e+00  9.3160728942383303e-08 1.9483970796206018e-02 0.0000000000000000e+00  -2.6963162066013847e-08 1.9486694032851252e-02 0.0000000000000000e+00  1.2562501000858135e-08 1.9494226429423903e-02 0.0000000000000000e+00  1.0078440314287188e-08 1.9506484483560585e-02 0.0000000000000000e+00  -1.8391070873491700e-08 1.9523531658355464e-02 0.0000000000000000e+00  1.4366274910306396e-09 1.9545309197813634e-02 0.0000000000000000e+00  -1.4231680106611147e-08 1.9571821675691527e-02 0.0000000000000000e+00  -3.4518653147107257e-09 1.9603156371451876e-02 0.0000000000000000e+00  5.8204963563171018e-09 1.9639314960001153e-02 0.0000000000000000e+00  4.5804202865010124e-09 1.9680287680630459e-02 0.0000000000000000e+00  5.4154429355065456e-09 1.9725991148117458e-02 0.0000000000000000e+00  -4.0881290772296829e-08 1.9776430673860541e-02 0.0000000000000000e+00  5.2667991494549152e-08 1.9831887047168675e-02 0.0000000000000000e+00  -3.9623157596149793e-08 1.9892259018407351e-02 0.0000000000000000e+00  4.6823116216159742e-09 1.9957541372360922e-02 0.0000000000000000e+00  -3.6364767348857431e-09 2.0027728429224130e-02 0.0000000000000000e+00  1.1614581116035749e-08 2.0102980774758989e-02 0.0000000000000000e+00  -1.7165484649854454e-08 2.0183215962786685e-02 0.0000000000000000e+00  6.8539952369747126e-09 2.0268514118583651e-02 0.0000000000000000e+00  5.4252287400941539e-09 2.0358921865350384e-02 0.0000000000000000e+00  -3.8196289620099635e-08 2.0454653170892817e-02 0.0000000000000000e+00  -6.9921102122322642e-08 2.0555500423654588e-02 0.0000000000000000e+00  3.8862052886731467e-08 2.0661719602125886e-02 0.0000000000000000e+00  -4.6548386357817695e-09 2.0773349899819552e-02 0.0000000000000000e+00  -1.0719910107792988e-08 2.0890338510998814e-02 0.0000000000000000e+00  3.2286267413981302e-08 2.1012958463783732e-02 0.0000000000000000e+00  -3.9655300072368963e-08 2.1141178549153237e-02 0.0000000000000000e+00  -9.6070075448243251e-08 2.1274902657862652e-02 0.0000000000000000e+00  5.7903294405601906e-08 2.1414535852126344e-02 0.0000000000000000e+00  -1.5072715866532765e-08 2.1560031421174710e-02 0.0000000000000000e+00  4.7073956119414440e-09 2.1711627392221301e-02 0.0000000000000000e+00  -3.5846229846752587e-09 2.1869179032480167e-02 0.0000000000000000e+00  -5.3034705427749883e-09 2.2032934486512262e-02 0.0000000000000000e+00  5.2781853612247384e-08 2.2203200480025422e-02 0.0000000000000000e+00  -9.1146480663854550e-08 2.2379599679892389e-02 0.0000000000000000e+00  4.5669332003174226e-08 2.2562413758837798e-02 0.0000000000000000e+00  -2.9744709683697949e-09 2.2752267767145468e-02 0.0000000000000000e+00  -5.8782433440614830e-09 2.2949001855635313e-02 0.0000000000000000e+00  -8.9041442476080407e-10 2.3152571104782985e-02 0.0000000000000000e+00  -1.7815913099990401e-08 2.3363330363137855e-02 0.0000000000000000e+00  -7.7520734932048444e-09 2.3581453311824898e-02 0.0000000000000000e+00  4.6410213135599415e-08 2.3806953202590426e-02 0.0000000000000000e+00  1.2051200052299137e-08 2.4040334357984122e-02 0.0000000000000000e+00  -2.6986851898910563e-08 2.4281295296166329e-02 0.0000000000000000e+00  7.2839112786566842e-08 2.4530759760541424e-02 0.0000000000000000e+00  -1.3383903464989720e-07 2.4788321308679123e-02 0.0000000000000000e+00  4.0669721174895052e-08 2.5053915367743002e-02 0.0000000000000000e+00  -2.1743396588816871e-08 2.5328783389228338e-02 0.0000000000000000e+00  -2.3884951929405997e-08 2.5612625266659760e-02 0.0000000000000000e+00  6.4812401051756797e-09 2.5905629169368789e-02 0.0000000000000000e+00  1.2502198827799453e-08 2.6208061267597928e-02 0.0000000000000000e+00  -1.9266031696213508e-09 2.6520527081183510e-02 0.0000000000000000e+00  1.9519606794777814e-10 2.6842848985243951e-02 0.0000000000000000e+00  1.7040931991598265e-08 2.7175825462723416e-02 0.0000000000000000e+00  1.8544621270386178e-08 2.7519295875454645e-02 0.0000000000000000e+00  3.1524364650661139e-09 2.7874104799413803e-02 0.0000000000000000e+00  -1.5274298136530912e-08 2.8240127386616475e-02 0.0000000000000000e+00  -4.8686262909545137e-10 2.8618224580990951e-02 0.0000000000000000e+00  4.3541893172650945e-09 2.9008320288168531e-02 0.0000000000000000e+00  -9.9911598766674547e-08 2.9411251687509035e-02 0.0000000000000000e+00  7.2469261206897266e-08 2.9827380817297935e-02 0.0000000000000000e+00  -5.8216136233076693e-08 3.0257092282786398e-02 0.0000000000000000e+00  -4.6582384803696018e-08 3.0701080108366221e-02 0.0000000000000000e+00  -1.3645365351700269e-08 3.1159453271860378e-02 0.0000000000000000e+00  -5.1248059555653348e-08 3.1633153867469954e-02 0.0000000000000000e+00  -1.0727555828622333e-08 3.2122675135582555e-02 0.0000000000000000e+00  -7.1303728917609955e-09 3.2628270719113651e-02 0.0000000000000000e+00  -6.9554655614609286e-08 3.3151059427148924e-02 0.0000000000000000e+00  1.9786777097959680e-08 3.3692297052454634e-02 0.0000000000000000e+00  -7.1159442735478176e-08 3.4251798010962065e-02 0.0000000000000000e+00  -1.5851697096044075e-08 3.4830315116773154e-02 0.0000000000000000e+00  1.0814714276384653e-08 3.5429572872805605e-02 0.0000000000000000e+00  -1.5015012824877702e-08 3.6049491949431793e-02 0.0000000000000000e+00  -2.4314733119931617e-08 3.6691859918374196e-02 0.0000000000000000e+00  3.0239260892622498e-08 3.7356479228188653e-02 0.0000000000000000e+00  -1.5435054274467067e-07 3.8045622721840693e-02 0.0000000000000000e+00  2.2463713521834920e-07 3.8761109661032099e-02 0.0000000000000000e+00  -2.6844128210880628e-07 3.9502272735337143e-02 0.0000000000000000e+00  4.1602654918803122e-08 4.0270267207801219e-02 0.0000000000000000e+00  -1.84861582