<?xml version="1.0"?>
<VTKFile type="UnstructuredGrid"  version="0.1"  >
<UnstructuredGrid>
<Piece  NumberOfPoints="431" NumberOfCells="800">
<Points>
<DataArray  type="Float64"  NumberOfComponents="3"  format="ascii">-0.25 -1 0  -0.2 -1 0  -0.15 -1 0  -0.1 -1 0  -0.04999999999999999 -1 0  0 -1 0  0.04999999999999999 -1 0  0.09999999999999998 -1 0  0.15 -1 0  0.2 -1 0  0.25 -1 0  -0.25 -0.95 0  -0.2 -0.95 0  -0.15 -0.95 0  -0.1 -0.95 0  -0.04999999999999999 -0.95 0  0 -0.95 0  0.04999999999999999 -0.95 0  0.09999999999999998 -0.95 0  0.15 -0.95 0  0.2 -0.95 0  0.25 -0.95 0  -0.25 -0.9 0  -0.2 -0.9 0  -0.15 -0.9 0  -0.1 -0.9 0  -0.04999999999999999 -0.9 0  0 -0.9 0  0.04999999999999999 -0.9 0  0.09999999999999998 -0.9 0  0.15 -0.9 0  0.2 -0.9 0  0.25 -0.9 0  -0.25 -0.85 0  -0.2 -0.85 0  -0.15 -0.85 0  -0.1 -0.85 0  -0.04999999999999999 -0.85 0  0 -0.85 0  0.04999999999999999 -0.85 0  0.09999999999999998 -0.85 0  0.15 -0.85 0  0.2 -0.85 0  0.25 -0.85 0  -0.25 -0.8 0  -0.2 -0.8 0  -0.15 -0.8 0  -0.1 -0.8 0  -0.04999999999999999 -0.8 0  0 -0.8 0  0.04999999999999999 -0.8 0  0.09999999999999998 -0.8 0  0.15 -0.8 0  0.2 -0.8 0  0.25 -0.8 0  -0.25 -0.75 0  -0.2 -0.75 0  -0.15 -0.75 0  -0.1 -0.75 0  -0.04999999999999999 -0.75 0  0 -0.75 0  0.04999999999999999 -0.75 0  0.09999999999999998 -0.75 0  0.15 -0.75 0  0.2 -0.75 0  0.25 -0.75 0  -0.25 -0.7 0  -0.2 -0.7 0  -0.15 -0.7 0  -0.1 -0.7 0  -0.04999999999999999 -0.7 0  0 -0.7 0  0.04999999999999999 -0.7 0  0.09999999999999998 -0.7 0  0.15 -0.7 0  0.2 -0.7 0  0.25 -0.7 0  -0.25 -0.65 0  -0.2 -0.65 0  -0.15 -0.65 0  -0.1 -0.65 0  -0.04999999999999999 -0.65 0  0 -0.65 0  0.04999999999999999 -0.65 0  0.09999999999999998 -0.65 0  0.15 -0.65 0  0.2 -0.65 0  0.25 -0.65 0  -0.25 -0.6 0  -0.2 -0.6 0  -0.15 -0.6 0  -0.1 -0.6 0  -0.04999999999999999 -0.6 0  0 -0.6 0  0.04999999999999999 -0.6 0  0.09999999999999998 -0.6 0  0.15 -0.6 0  0.2 -0.6 0  0.25 -0.6 0  -0.25 -0.55 0  -0.2 -0.55 0  -0.15 -0.55 0  -0.1 -0.55 0  -0.04999999999999999 -0.55 0  0 -0.55 0  0.04999999999999999 -0.55 0  0.09999999999999998 -0.55 0  0.15 -0.55 0  0.2 -0.55 0  0.25 -0.55 0  -0.25 -0.5 0  -0.2 -0.5 0  -0.15 -0.5 0  -0.1 -0.5 0  -0.04999999999999999 -0.5 0  0 -0.5 0  0.04999999999999999 -0.5 0  0.09999999999999998 -0.5 0  0.15 -0.5 0  0.2 -0.5 0  0.25 -0.5 0  -0.25 -0.45 0  -0.2 -0.45 0  -0.15 -0.45 0  -0.1 -0.45 0  -0.04999999999999999 -0.45 0  0 -0.45 0  0.04999999999999999 -0.45 0  0.09999999999999998 -0.45 0  0.15 -0.45 0  0.2 -0.45 0  0.25 -0.45 0  -0.25 -0.4 0  -0.2 -0.4 0  -0.15 -0.4 0  -0.1 -0.4 0  -0.04999999999999999 -0.4 0  0 -0.4 0  0.04999999999999999 -0.4 0  0.09999999999999998 -0.4 0  0.15 -0.4 0  0.2 -0.4 0  0.25 -0.4 0  -0.25 -0.35 0  -0.2 -0.35 0  -0.15 -0.35 0  -0.1 -0.35 0  -0.04999999999999999 -0.35 0  0 -0.35 0  0.04999999999999999 -0.35 0  0.09999999999999998 -0.35 0  0.15 -0.35 0  0.2 -0.35 0  0.25 -0.35 0  -0.25 -0.3 0  -0.2 -0.3 0  -0.15 -0.3 0  -0.1 -0.3 0  -0.04999999999999999 -0.3 0  0 -0.3 0  0.04999999999999999 -0.3 0  0.09999999999999998 -0.3 0  0.15 -0.3 0  0.2 -0.3 0  0.25 -0.3 0  -0.25 -0.25 0  -0.2 -0.25 0  -0.15 -0.25 0  -0.1 -0.25 0  -0.04999999999999999 -0.25 0  0 -0.25 0  0.04999999999999999 -0.25 0  0.09999999999999998 -0.25 0  0.15 -0.25 0  0.2 -0.25 0  0.25 -0.25 0  -0.25 -0.2 0  -0.2 -0.2 0  -0.15 -0.2 0  -0.1 -0.2 0  -0.04999999999999999 -0.2 0  0 -0.2 0  0.04999999999999999 -0.2 0  0.09999999999999998 -0.2 0  0.15 -0.2 0  0.2 -0.2 0  0.25 -0.2 0  -0.25 -0.15 0  -0.2 -0.15 0  -0.15 -0.15 0  -0.1 -0.15 0  -0.04999999999999999 -0.15 0  0 -0.15 0  0.04999999999999999 -0.15 0  0.09999999999999998 -0.15 0  0.15 -0.15 0  0.2 -0.15 0  0.25 -0.15 0  -0.25 -0.09999999999999998 0  -0.2 -0.09999999999999998 0  -0.15 -0.09999999999999998 0  -0.1 -0.09999999999999998 0  -0.04999999999999999 -0.09999999999999998 0  0 -0.09999999999999998 0  0.04999999999999999 -0.09999999999999998 0  0.09999999999999998 -0.09999999999999998 0  0.15 -0.09999999999999998 0  0.2 -0.09999999999999998 0  0.25 -0.09999999999999998 0  -0.25 -0.05000000000000004 0  -0.2 -0.05000000000000004 0  -0.15 -0.05000000000000004 0  -0.1 -0.05000000000000004 0  -0.04999999999999999 -0.05000000000000004 0  0 -0.05000000000000004 0  0.04999999999999999 -0.05000000000000004 0  0.09999999999999998 -0.05000000000000004 0  0.15 -0.05000000000000004 0  0.2 -0.05000000000000004 0  0.25 -0.05000000000000004 0  -0.25 0 0  -0.2 0 0  -0.15 0 0  -0.1 0 0  -0.04999999999999999 0 0  0 0 0  0.04999999999999999 0 0  0.09999999999999998 0 0  0.15 0 0  0.2 0 0  0.25 0 0  -0.225 -0.975 0  -0.175 -0.975 0  -0.125 -0.975 0  -0.07500000000000001 -0.975 0  -0.02499999999999999 -0.975 0  0.02500000000000002 -0.975 0  0.07500000000000001 -0.975 0  0.125 -0.975 0  0.175 -0.975 0  0.225 -0.975 0  -0.225 -0.925 0  -0.175 -0.925 0  -0.125 -0.925 0  -0.07500000000000001 -0.925 0  -0.02499999999999999 -0.925 0  0.02500000000000002 -0.925 0  0.07500000000000001 -0.925 0  0.125 -0.925 0  0.175 -0.925 0  0.225 -0.925 0  -0.225 -0.875 0  -0.175 -0.875 0  -0.125 -0.875 0  -0.07500000000000001 -0.875 0  -0.02499999999999999 -0.875 0  0.02500000000000002 -0.875 0  0.07500000000000001 -0.875 0  0.125 -0.875 0  0.175 -0.875 0  0.225 -0.875 0  -0.225 -0.825 0  -0.175 -0.825 0  -0.125 -0.825 0  -0.07500000000000001 -0.825 0  -0.02499999999999999 -0.825 0  0.02500000000000002 -0.825 0  0.07500000000000001 -0.825 0  0.125 -0.825 0  0.175 -0.825 0  0.225 -0.825 0  -0.225 -0.775 0  -0.175 -0.775 0  -0.125 -0.775 0  -0.07500000000000001 -0.775 0  -0.02499999999999999 -0.775 0  0.02500000000000002 -0.775 0  0.07500000000000001 -0.775 0  0.125 -0.775 0  0.175 -0.775 0  0.225 -0.775 0  -0.225 -0.725 0  -0.175 -0.725 0  -0.125 -0.725 0  -0.07500000000000001 -0.725 0  -0.02499999999999999 -0.725 0  0.02500000000000002 -0.725 0  0.07500000000000001 -0.725 0  0.125 -0.725 0  0.175 -0.725 0  0.225 -0.725 0  -0.225 -0.675 0  -0.175 -0.675 0  -0.125 -0.675 0  -0.07500000000000001 -0.675 0  -0.02499999999999999 -0.675 0  0.02500000000000002 -0.675 0  0.07500000000000001 -0.675 0  0.125 -0.675 0  0.175 -0.675 0  0.225 -0.675 0  -0.225 -0.625 0  -0.175 -0.625 0  -0.125 -0.625 0  -0.07500000000000001 -0.625 0  -0.02499999999999999 -0.625 0  0.02500000000000002 -0.625 0  0.07500000000000001 -0.625 0  0.125 -0.625 0  0.175 -0.625 0  0.225 -0.625 0  -0.225 -0.575 0  -0.175 -0.575 0  -0.125 -0.575 0  -0.07500000000000001 -0.575 0  -0.02499999999999999 -0.575 0  0.02500000000000002 -0.575 0  0.07500000000000001 -0.575 0  0.125 -0.575 0  0.175 -0.575 0  0.225 -0.575 0  -0.225 -0.525 0  -0.175 -0.525 0  -0.125 -0.525 0  -0.07500000000000001 -0.525 0  -0.02499999999999999 -0.525 0  0.02500000000000002 -0.525 0  0.07500000000000001 -0.525 0  0.125 -0.525 0  0.175 -0.525 0  0.225 -0.525 0  -0.225 -0.475 0  -0.175 -0.475 0  -0.125 -0.475 0  -0.07500000000000001 -0.475 0  -0.02499999999999999 -0.475 0  0.02500000000000002 -0.475 0  0.07500000000000001 -0.475 0  0.125 -0.475 0  0.175 -0.475 0  0.225 -0.475 0  -0.225 -0.425 0  -0.175 -0.425 0  -0.125 -0.425 0  -0.07500000000000001 -0.425 0  -0.02499999999999999 -0.425 0  0.02500000000000002 -0.425 0  0.07500000000000001 -0.425 0  0.125 -0.425 0  0.175 -0.425 0  0.225 -0.425 0  -0.225 -0.375 0  -0.175 -0.375 0  -0.125 -0.375 0  -0.07500000000000001 -0.375 0  -0.02499999999999999 -0.375 0  0.02500000000000002 -0.375 0  0.07500000000000001 -0.375 0  0.125 -0.375 0  0.175 -0.375 0  0.225 -0.375 0  -0.225 -0.325 0  -0.175 -0.325 0  -0.125 -0.325 0  -0.07500000000000001 -0.325 0  -0.02499999999999999 -0.325 0  0.02500000000000002 -0.325 0  0.07500000000000001 -0.325 0  0.125 -0.325 0  0.175 -0.325 0  0.225 -0.325 0  -0.225 -0.275 0  -0.175 -0.275 0  -0.125 -0.275 0  -0.07500000000000001 -0.275 0  -0.02499999999999999 -0.275 0  0.02500000000000002 -0.275 0  0.07500000000000001 -0.275 0  0.125 -0.275 0  0.175 -0.275 0  0.225 -0.275 0  -0.225 -0.225 0  -0.175 -0.225 0  -0.125 -0.225 0  -0.07500000000000001 -0.225 0  -0.02499999999999999 -0.225 0  0.02500000000000002 -0.225 0  0.07500000000000001 -0.225 0  0.125 -0.225 0  0.175 -0.225 0  0.225 -0.225 0  -0.225 -0.175 0  -0.175 -0.175 0  -0.125 -0.175 0  -0.07500000000000001 -0.175 0  -0.02499999999999999 -0.175 0  0.02500000000000002 -0.175 0  0.07500000000000001 -0.175 0  0.125 -0.175 0  0.175 -0.175 0  0.225 -0.175 0  -0.225 -0.125 0  -0.175 -0.125 0  -0.125 -0.125 0  -0.07500000000000001 -0.125 0  -0.02499999999999999 -0.125 0  0.02500000000000002 -0.125 0  0.07500000000000001 -0.125 0  0.125 -0.125 0  0.175 -0.125 0  0.225 -0.125 0  -0.225 -0.07499999999999996 0  -0.175 -0.07499999999999996 0  -0.125 -0.07499999999999996 0  -0.07500000000000001 -0.07499999999999996 0  -0.02499999999999999 -0.07499999999999996 0  0.02500000000000002 -0.07499999999999996 0  0.07500000000000001 -0.07499999999999996 0  0.125 -0.07499999999999996 0  0.175 -0.07499999999999996 0  0.225 -0.07499999999999996 0  -0.225 -0.02500000000000002 0  -0.175 -0.02500000000000002 0  -0.125 -0.02500000000000002 0  -0.07500000000000001 -0.02500000000000002 0  -0.02499999999999999 -0.02500000000000002 0  0.02500000000000002 -0.02500000000000002 0  0.07500000000000001 -0.02500000000000002 0  0.125 -0.02500000000000002 0  0.175 -0.02500000000000002 0  0.225 -0.02500000000000002 0  </DataArray>
</Points>
<Cells>
[...]
<PointData  Vectors="flow"> 
<DataArray  type="Float64"  Name="flow"  NumberOfComponents="3" format="ascii">-2.6031766163532470e+00 5.2065735999315725e+00 0.0000000000000000e+00  4.9818676608151264e-04 5.2065735999318230e+00 0.0000000000000000e+00  -8.9866743806318311e-08 5.2065735999265268e+00 0.0000000000000000e+00  6.6257185356353828e-12 5.2065735999318399e+00 0.0000000000000000e+00  5.2216295041205303e-13 5.2065735999307465e+00 0.0000000000000000e+00  -6.0497713173352268e-14 5.2065735999323355e+00 0.0000000000000000e+00  -1.3580052553169345e-12 5.2065735999292153e+00 0.0000000000000000e+00  -3.0959257915839002e-12 5.2065735999345417e+00 0.0000000000000000e+00  8.9868555730665916e-08 5.2065735999274665e+00 0.0000000000000000e+00  -4.9818676413107847e-04 5.2065735999278049e+00 0.0000000000000000e+00  2.6031766163546854e+00 5.2065735999323923e+00 0.0000000000000000e+00  -2.5952085034939736e+00 1.5601571186040694e+01 0.0000000000000000e+00  4.9674912173390279e-04 1.5601571186041754e+01 0.0000000000000000e+00  -8.9760754032575140e-08 1.5601571186039516e+01 0.0000000000000000e+00  8.4513736141123170e-12 1.5601571186039022e+01 0.0000000000000000e+00  -8.2682852846252945e-13 1.5601571186043010e+01 0.0000000000000000e+00  4.2148163889517215e-13 1.5601571186038052e+01 0.0000000000000000e+00  1.6636642421654681e-12 1.5601571186040507e+01 0.0000000000000000e+00  -4.1986474121782556e-12 1.5601571186040323e+01 0.0000000000000000e+00  8.9756870073865302e-08 1.5601571186039966e+01 0.0000000000000000e+00  -4.9674911964664762e-04 1.5601571186039793e+01 0.0000000000000000e+00  2.5952085035024504e+00 1.5601571186038738e+01 0.0000000000000000e+00  -2.5713501626062554e+00 3.1107625982049960e+01 0.0000000000000000e+00  4.9243963628497372e-04 3.1107625982048422e+01 0.0000000000000000e+00  -8.9431423858010138e-08 3.1107625982051051e+01 0.0000000000000000e+00  1.2535366144679038e-11 3.1107625982050113e+01 0.0000000000000000e+00  -2.4648860049266188e-12 3.1107625982049065e+01 0.0000000000000000e+00  -1.5844252237186884e-12 3.1107625982050852e+01 0.0000000000000000e+00  1.7502108458375435e-12 3.1107625982049012e+01 0.0000000000000000e+00  -5.6757614635009383e-12 3.1107625982046809e+01 0.0000000000000000e+00  8.9430981017162528e-08 3.1107625982049424e+01 0.0000000000000000e+00  -4.9243963647451665e-04 3.1107625982051111e+01 0.0000000000000000e+00  2.5713501626126294e+00 3.1107625982047544e+01 0.0000000000000000e+00  -2.5317394760410497e+00 4.6423199726734985e+01 0.0000000000000000e+00  4.8526891403699287e-04 4.6423199726735305e+01 0.0000000000000000e+00  -8.8848560090378477e-08 4.6423199726733465e+01 0.0000000000000000e+00  8.5101988432835196e-12 4.6423199726735916e+01 0.0000000000000000e+00  1.9500291328461407e-14 4.6423199726734389e+01 0.0000000000000000e+00  8.9314932807439497e-13 4.6423199726740904e+01 0.0000000000000000e+00  -2.1930794594949993e-12 4.6423199726737977e+01 0.0000000000000000e+00  -7.2379036917163983e-12 4.6423199726738424e+01 0.0000000000000000e+00  8.8851956006139156e-08 4.6423199726735042e+01 0.0000000000000000e+00  -4.8526891494733547e-04 4.6423199726734232e+01 0.0000000000000000e+00  2.5317394760419538e+00 4.6423199726732562e+01 0.0000000000000000e+00  -2.4766058697675231e+00 6.1454429868270104e+01 0.0000000000000000e+00  4.7525553870511427e-04 6.1454429868270495e+01 0.0000000000000000e+00  -8.7985857849201102e-08 6.1454429868270658e+01 0.0000000000000000e+00  1.3120489319234053e-11 6.1454429868267596e+01 0.0000000000000000e+00  2.1992990829226786e-12 6.1454429868269109e+01 0.0000000000000000e+00  1.5130466798889989e-12 6.1454429868264782e+01 0.0000000000000000e+00  5.5008555472161862e-13 6.1454429868271092e+01 0.0000000000000000e+00  -1.1883683785147079e-11 6.1454429868264100e+01 0.0000000000000000e+00  8.7983197956021353e-08 6.1454429868269337e+01 0.0000000000000000e+00  -4.7525554230927892e-04 6.1454429868270537e+01 0.0000000000000000e+00  2.4766058697665412e+00 6.1454429868271525e+01 0.0000000000000000e+00  -2.4062697160460473e+00 7.6109103543701508e+01 0.0000000000000000e+00  4.6242738539249077e-04 7.6109103543699462e+01 0.0000000000000000e+00  -8.6772999742093442e-08 7.6109103543701806e+01 0.0000000000000000e+00  1.2209859811229528e-11 7.6109103543703540e+01 0.0000000000000000e+00  -5.9267120312509949e-13 7.6109103543699391e+01 0.0000000000000000e+00  1.1474904137255047e-12 7.6109103543703412e+01 0.0000000000000000e+00  -3.9369995856557427e-12 7.6109103543696648e+01 0.0000000000000000e+00  -1.0725122257824033e-11 7.6109103543701181e+01 0.0000000000000000e+00  8.6779784639722518e-08 7.6109103543704975e+01 0.0000000000000000e+00  -4.6242738413193883e-04 7.6109103543707022e+01 0.0000000000000000e+00  2.4062697160429614e+00 7.6109103543707690e+01 0.0000000000000000e+00  -2.3211414382620390e+00 9.0297200700578287e+01 0.0000000000000000e+00  4.4682329271687705e-04 9.0297200700584725e+01 0.0000000000000000e+00  -8.5160432459206056e-08 9.0297200700580106e+01 0.0000000000000000e+00  1.4081671640973768e-11 9.0297200700580333e+01 0.0000000000000000e+00  1.5672537914724787e-12 9.0297200700580788e+01 0.0000000000000000e+00  3.9765033622453732e-12 9.0297200700583062e+01 0.0000000000000000e+00  -3.7404735171787950e-12 9.0297200700586842e+01 0.0000000000000000e+00  -1.0459083466206552e-11 9.0297200700589954e+01 0.0000000000000000e+00  8.5164815150646132e-08 9.0297200700583730e+01 0.0000000000000000e+00  -4.4682329102478912e-04 9.0297200700583460e+01 0.0000000000000000e+00  2.3211414382599660e+00 9.0297200700584298e+01 0.0000000000000000e+00  -2.2217202637998361e+00 1.0393143081577826e+02 0.0000000000000000e+00  4.2849508045853294e-04 1.0393143081577124e+02 0.0000000000000000e+00  -8.3073131418302500e-08 1.0393143081577666e+02 0.0000000000000000e+00  1.8123798250875973e-11 1.0393143081577891e+02 0.0000000000000000e+00  7.0028270507934735e-13 1.0393143081578418e+02 0.0000000000000000e+00  1.8210594698604357e-12 1.0393143081577718e+02 0.0000000000000000e+00  2.9276850141990802e-12 1.0393143081577715e+02 0.0000000000000000e+00  -1.3135143447722095e-11 1.0393143081577996e+02 0.0000000000000000e+00  8.3072264450191324e-08 1.0393143081578143e+02 0.0000000000000000e+00  -4.2849508037406633e-04 1.0393143081577273e+02 0.0000000000000000e+00  2.2217202638081512e+00 1.0393143081577252e+02 0.0000000000000000e+00  -2.1085925617504513e+00 1.1692776091297014e+02 0.0000000000000000e+00  4.0750966218193230e-04 1.1692776091297155e+02 0.0000000000000000e+00  -8.0445506104621485e-08 1.1692776091297225e+02 0.0000000000000000e+00  2.3866493911132775e-11 1.1692776091296498e+02 0.0000000000000000e+00  2.6994062880055544e-12 1.1692776091296534e+02 0.0000000000000000e+00  9.6131507100984730e-13 1.1692776091297036e+02 0.0000000000000000e+00  2.3570358401077089e-12 1.1692776091297196e+02 0.0000000000000000e+00  -1.9987919338178732e-11 1.1692776091297108e+02 0.0000000000000000e+00  8.0451053871476297e-08 1.1692776091296422e+02 0.0000000000000000e+00  -4.0750966726030405e-04 1.1692776091297235e+02 0.0000000000000000e+00  2.1085925617431154e+00 1.1692776091297499e+02 0.0000000000000000e+00  -1.9824296972732043e+00 1.2920593218473456e+02 0.0000000000000000e+00  3.8395114193095689e-04 1.2920593218473860e+02 0.0000000000000000e+00  -7.7194669990634057e-08 1.2920593218473996e+02 0.0000000000000000e+00  -3.7293224080987294e-12 1.2920593218474195e+02 0.0000000000000000e+00  1.6559565384430742e-11 1.2920593218474116e+02 0.0000000000000000e+00  3.0013550489126117e-12 1.2920593218474286e+02 0.0000000000000000e+00  -3.7172599371693861e-12 1.2920593218474127e+02 0.0000000000000000e+00  -6.1354501534149697e-13 1.2920593218474812e+02 0.0000000000000000e+00  7.7189388304577333e-08 1.2920593218474414e+02 0.0000000000000000e+00  -3.8395113405874842e-04 1.2920593218474647e+02 0.0000000000000000e+00  1.9824296972902269e+00 1.2920593218474033e+02 0.0000000000000000e+00  -1.8439853356114617e+00 1.4068996211521812e+02 0.0000000000000000e+00  3.5792321802872648e-04 1.4068996211521406e+02 0.0000000000000000e+00  -7.3512805894866670e-08 1.4068996211521133e+02 0.0000000000000000e+00  1.4394247983344763e-10 1.4068996211521883e+02 0.0000000000000000e+00  -5.3083904786836491e-11 1.4068996211521585e+02 0.0000000000000000e+00  1.0661871144054532e-12 1.4068996211522258e+02 0.0000000000000000e+00  6.2078199086641942e-11 1.4068996211521693e+02 0.0000000000000000e+00  -1.3920430572601223e-10 1.4068996211521548e+02 0.0000000000000000e+00  7.3521047791661516e-08 1.4068996211522352e+02 0.0000000000000000e+00  -3.5792321917979563e-04 1.4068996211522168e+02 0.0000000000000000e+00  1.8439853356045171e+00 1.4068996211521937e+02 0.0000000000000000e+00  -1.6940921278133092e+00 1.5130862860415269e+02 0.0000000000000000e+00  3.2954796466421935e-04 1.5130862860415712e+02 0.0000000000000000e+00  -6.7687839123783703e-08 1.5130862860415726e+02 0.0000000000000000e+00  -6.7078077894365675e-10 1.5130862860415192e+02 0.0000000000000000e+00  3.3518165792021573e-10 1.5130862860415354e+02 0.0000000000000000e+00  6.1832049270328353e-12 1.5130862860414516e+02 0.0000000000000000e+00  -3.2700489899105040e-10 1.5130862860415633e+02 0.0000000000000000e+00  6.8059320248637062e-10 1.5130862860415255e+02 0.0000000000000000e+00  6.7688669651115797e-08 1.5130862860415704e+02 0.0000000000000000e+00  -3.2954796500162567e-04 1.5130862860415698e+02 0.0000000000000000e+00  1.6940921278196479e+00 1.5130862860416138e+02 0.0000000000000000e+00  -1.5336577521813259e+00 1.6099593224195053e+02 0.0000000000000000e+00  2.9898518250634590e-04 1.6099593224195164e+02 0.0000000000000000e+00  -6.9914303706375014e-08 1.6099593224195260e+02 0.0000000000000000e+00  3.9873267910429652e-09 1.6099593224195667e+02 0.0000000000000000e+00  -1.7888065888626325e-09 1.6099593224196579e+02 0.0000000000000000e+00  4.5190928468248380e-12 1.6099593224195974e+02 0.0000000000000000e+00  1.7963089365454260e-09 1.6099593224196514e+02 0.0000000000000000e+00  -3.9790424875035251e-09 1.6099593224196403e+02 0.0000000000000000e+00  6.9922118642250781e-08 1.6099593224196255e+02 0.0000000000000000e+00  -2.9898517620354555e-04 1.6099593224196528e+02 0.0000000000000000e+00  1.5336577521714971e+00 1.6099593224196133e+02 0.0000000000000000e+00  -1.3636601055373945e+00 1.6969153260525891e+02 0.0000000000000000e+00  2.6632144509779312e-04 1.6969153260525650e+02 0.0000000000000000e+00  -1.9318428774205480e-08 1.6969153260525712e+02 0.0000000000000000e+00  -2.2053381364361888e-08 1.6969153260526332e+02 0.0000000000000000e+00  9.3428224892664194e-09 1.6969153260526298e+02 0.0000000000000000e+00  7.0747888704462558e-12 1.6969153260527293e+02 0.0000000000000000e+00  -9.3260823326849898e-09 1.6969153260527241e+02 0.0000000000000000e+00  2.2062135909552104e-08 1.6969153260526787e+02 0.0000000000000000e+00  1.9327917685596596e-08 1.6969153260527256e+02 0.0000000000000000e+00  -2.6632144672361684e-04 1.6969153260526107e+02 0.0000000000000000e+00  1.3636601055301978e+00 1.6969153260525783e+02 0.0000000000000000e+00  -1.1851426618946215e+00 1.7734115425938060e+02 0.0000000000000000e+00  2.3225999785324661e-04 1.7734115425937682e+02 0.0000000000000000e+00  -2.7495580990730576e-07 1.7734115425938083e+02 0.0000000000000000e+00  1.1884402600243094e-07 1.7734115425938123e+02 0.0000000000000000e+00  -4.5378793144494916e-08 1.7734115425938606e+02 0.0000000000000000e+00  5.6178466301626604e-12 1.7734115425939089e+02 0.0000000000000000e+00  4.5395279225964670e-08 1.7734115425937131e+02 0.0000000000000000e+00  -1.1882813791512353e-07 1.7734115425937296e+02 0.0000000000000000e+00  2.7497107604976299e-07 1.7734115425936952e+02 0.0000000000000000e+00  -2.3226000861117460e-04 1.7734115425937412e+02 0.0000000000000000e+00  1.1851426618899863e+00 1.7734115425938276e+02 0.0000000000000000e+00  -9.9920342198656353e-01 1.8389695808633610e+02 0.0000000000000000e+00  1.9382846695079311e-04 1.8389695808634553e+02 0.0000000000000000e+00  1.2528719194161500e-06 1.8389695808634380e+02 0.0000000000000000e+00  -6.0223574560028960e-07 1.8389695808633738e+02 0.0000000000000000e+00  1.9514485090607371e-07 1.8389695808633820e+02 0.0000000000000000e+00  6.6307056913252655e-13 1.8389695808634218e+02 0.0000000000000000e+00  -1.9513347524837606e-07 1.8389695808634673e+02 0.0000000000000000e+00  6.0224628946223225e-07 1.8389695808633874e+02 0.0000000000000000e+00  -1.2528648485088104e-06 1.8389695808633471e+02 0.0000000000000000e+00  -1.9382845412070597e-04 1.8389695808634784e+02 0.0000000000000000e+00  9.9920342198656620e-01 1.8389695808634434e+02 0.0000000000000000e+00  -8.0701980729957412e-01 1.8931787362113769e+02 0.0000000000000000e+00  1.7129297242836111e-04 1.8931787362114164e+02 0.0000000000000000e+00  -7.2911557492263916e-06 1.8931787362114952e+02 0.0000000000000000e+00  2.7287432916490206e-06 1.8931787362114611e+02 0.0000000000000000e+00  -6.6026524711890562e-07 1.8931787362113974e+02 0.0000000000000000e+00  1.3150110353426368e-11 1.8931787362112314e+02 0.0000000000000000e+00  6.6026358223649666e-07 1.8931787362113215e+02 0.0000000000000000e+00  -2.7287391572406957e-06 1.8931787362112416e+02 0.0000000000000000e+00  7.2911759764952702e-06 1.8931787362113249e+02 0.0000000000000000e+00  -1.7129296067565578e-04 1.8931787362113457e+02 0.0000000000000000e+00  8.0701980729793088e-01 1.8931787362113235e+02 0.0000000000000000e+00  -6.0963010466395084e-01 1.9356988828089447e+02 0.0000000000000000e+00  3.7816289702913235e-05 1.9356988828088555e+02 0.0000000000000000e+00  3.7569235480007786e-05 1.9356988828087549e+02 0.0000000000000000e+00  -9.5074536858856674e-06 1.9356988828087415e+02 0.0000000000000000e+00  1.2650535562155443e-06 1.9356988828087788e+02 0.0000000000000000e+00  7.5796604416677330e-13 1.9356988828088566e+02 0.0000000000000000e+00  -1.2650559266564043e-06 1.9356988828087381e+02 0.0000000000000000e+00  9.5074591299490160e-06 1.9356988828088259e+02 0.0000000000000000e+00  -3.7569221958057245e-05 1.9356988828088240e+02 0.0000000000000000e+00  -3.7816274222525572e-05 1.9356988828086898e+02 0.0000000000000000e+00  6.0963010467782186e-01 1.9356988828087009e+02 0.0000000000000000e+00  -4.0939629198254890e-01 1.9662628971341891e+02 0.0000000000000000e+00  6.0380079730057185e-04 1.9662628971341263e+02 0.0000000000000000e+00  -1.5263714007485114e-04 1.9662628971341439e+02 0.0000000000000000e+00  1.0877125077229728e-05 1.9662628971341866e+02 0.0000000000000000e+00  -7.3997614266995909e-07 1.9662628971340754e+02 0.0000000000000000e+00  3.7593398035905652e-12 1.9662628971341394e+02 0.0000000000000000e+00  7.3997807270575948e-07 1.9662628971341337e+02 0.0000000000000000e+00  -1.0877117086600933e-05 1.9662628971340934e+02 0.0000000000000000e+00  1.5263714789521450e-04 1.9662628971341181e+02 0.0000000000000000e+00  -6.0380080799822024e-04 1.9662628971341448e+02 0.0000000000000000e+00  4.0939629196996508e-01 1.9662628971340871e+02 0.0000000000000000e+00  -1.9865376992731973e-01 1.9846785796699888e+02 0.0000000000000000e+00  -3.0844057893988797e-03 1.9846785796699896e+02 0.0000000000000000e+00  -3.8309448607644151e-05 1.9846785796699615e+02 0.0000000000000000e+00  1.0132389080877933e-05 1.9846785796699152e+02 0.0000000000000000e+00  -1.4698291851485454e-06 1.9846785796698683e+02 0.0000000000000000e+00  2.5913291193939772e-12 1.9846785796697421e+02 0.0000000000000000e+00  1.4698302838554994e-06 1.9846785796698501e+02 0.0000000000000000e+00  -1.0132391725118494e-05 1.9846785796699669e+02 0.0000000000000000e+00  3.8309463438127211e-05 1.9846785796698620e+02 0.0000000000000000e+00  3.0844057876490793e-03 1.9846785796698342e+02 0.0000000000000000e+00  1.9865376992142067e-01 1.9846785796699163e+02 0.0000000000000000e+00  -8.8253994174937719e-02 1.9908300477767941e+02 0.0000000000000000e+00  -7.4707673612734301e-03 1.9908300477768731e+02 0.0000000000000000e+00  3.2146933079977365e-04 1.9908300477768543e+02 0.0000000000000000e+00  -2.7457745825889991e-05 1.9908300477768771e+02 0.0000000000000000e+00  2.8949823844076014e-06 1.9908300477769126e+02 0.0000000000000000e+00  6.6458998804088160e-13 1.9908300477768785e+02 0.0000000000000000e+00  -2.8949783317740836e-06 1.9908300477768287e+02 0.0000000000000000e+00  2.7457743904726015e-05 1.9908300477768037e+02 0.0000000000000000e+00  -3.2146933403087285e-04 1.9908300477767648e+02 0.0000000000000000e+00  7.4707673555570757e-03 1.9908300477767207e+02 0.0000000000000000e+00  8.8253994187277557e-02 1.9908300477767878e+02 0.0000000000000000e+00  1.2993475459906894e+00 5.2134356519579228e+00 0.0000000000000000e+00  -2.4868906507944738e-04 5.2134356519569680e+00 0.0000000000000000e+00  4.4902267810417437e-08 5.2134356519576484e+00 0.0000000000000000e+00  -4.9491079290466178e-12 5.2134356519578127e+00 0.0000000000000000e+00  4.0467424463006692e-13 5.2134356519570879e+00 0.0000000000000000e+00  1.5074173312430323e-12 5.2134356519585161e+00 0.0000000000000000e+00  4.6770224445562448e-12 5.2134356519611647e+00 0.0000000000000000e+00  -4.4900765483612443e-08 5.2134356519592249e+00 0.0000000000000000e+00  2.4868906584364571e-04 5.2134356519551801e+00 0.0000000000000000e+00  -1.2993475459870616e+00 5.2134356519576066e+00 0.0000000000000000e+00  1.2913923693380649e+00 2.3402317164026520e+01 0.0000000000000000e+00  -2.4725239355162087e-04 2.3402317164028624e+01 0.0000000000000000e+00  4.4793635060407879e-08 2.3402317164028464e+01 0.0000000000000000e+00  5.9788171478743738e-13 2.3402317164033953e+01 0.0000000000000000e+00  -4.7466255560458156e-12 2.3402317164034859e+01 0.0000000000000000e+00  1.9485926381651625e-12 2.3402317164029636e+01 0.0000000000000000e+00  3.7074954141271700e-12 2.3402317164026304e+01 0.0000000000000000e+00  -4.4791982973838037e-08 2.3402317164026758e+01 0.0000000000000000e+00  2.4725239457910420e-04 2.3402317164031672e+01 0.0000000000000000e+00  -1.2913923693347182e+00 2.3402317164029107e+01 0.0000000000000000e+00  1.2755279825271764e+00 3.8844637386575961e+01 0.0000000000000000e+00  -2.4438256674587789e-04 3.8844637386577318e+01 0.0000000000000000e+00  4.4563478933093209e-08 3.8844637386578000e+01 0.0000000000000000e+00  2.4642127976315816e-12 3.8844637386572394e+01 0.0000000000000000e+00  -2.1459366092111995e-12 3.8844637386575172e+01 0.0000000000000000e+00  -4.7371393803478594e-12 3.8844637386575513e+01 0.0000000000000000e+00  1.2487217485986429e-12 3.8844637386569190e+01 0.0000000000000000e+00  -4.4560389810954080e-08 3.8844637386569836e+01 0.0000000000000000e+00  2.4438257172302295e-04 3.8844637386570618e+01 0.0000000000000000e+00  -1.2755279825270494e+00 3.8844637386570902e+01 0.0000000000000000e+00  1.2518462053410515e+00 5.4049086422503940e+01 0.0000000000000000e+00  -2.4008690918158438e-04 5.4049086422496678e+01 0.0000000000000000e+00  4.4202359461832432e-08 5.4049086422490952e+01 0.0000000000000000e+00  -1.7807147974256757e-12 5.4049086422494497e+01 0.0000000000000000e+00  3.8666093169256253e-12 5.4049086422494767e+01 0.0000000000000000e+00  -8.5596800649146321e-12 5.4049086422496728e+01 0.0000000000000000e+00  1.8449142535673417e-12 5.4049086422500878e+01 0.0000000000000000e+00  -4.4198566741885432e-08 5.4049086422499137e+01 0.0000000000000000e+00  2.4008691138298490e-04 5.4049086422497297e+01 0.0000000000000000e+00  -1.2518462053415809e+00 5.4049086422496941e+01 0.0000000000000000e+00  1.2204844757223690e+00 6.8922444667990021e+01 0.0000000000000000e+00  -2.3437704507847223e-04 6.8922444667996089e+01 0.0000000000000000e+00  4.3681707575840423e-08 6.8922444668002058e+01 0.0000000000000000e+00  -4.2215672026808893e-12 6.8922444667997198e+01 0.0000000000000000e+00  -1.0668443173152261e-12 6.8922444667990433e+01 0.0000000000000000e+00  5.9779905462604644e-13 6.8922444667990987e+01 0.0000000000000000e+00  -5.2236256729683911e-12 6.8922444667988827e+01 0.0000000000000000e+00  -4.3672117414212270e-08 6.8922444667989268e+01 0.0000000000000000e+00  2.3437704798292256e-04 6.8922444667996245e+01 0.0000000000000000e+00  -1.2204844757232753e+00 6.8922444667997937e+01 0.0000000000000000e+00  1.1816254759079134e+00 8.3373415558448187e+01 0.0000000000000000e+00  -2.2726968575171019e-0