<?xml version="1.0"?>
<VTKFile type="UnstructuredGrid"  version="0.1"  >
<UnstructuredGrid>
<Piece  NumberOfPoints="431" NumberOfCells="800">
<Points>
<DataArray  type="Float64"  NumberOfComponents="3"  format="ascii">-0.25 -1 0  -0.2 -1 0  -0.15 -1 0  -0.1 -1 0  -0.04999999999999999 -1 0  0 -1 0  0.04999999999999999 -1 0  0.09999999999999998 -1 0  0.15 -1 0  0.2 -1 0  0.25 -1 0  -0.25 -0.95 0  -0.2 -0.95 0  -0.15 -0.95 0  -0.1 -0.95 0  -0.04999999999999999 -0.95 0  0 -0.95 0  0.04999999999999999 -0.95 0  0.09999999999999998 -0.95 0  0.15 -0.95 0  0.2 -0.95 0  0.25 -0.95 0  -0.25 -0.9 0  -0.2 -0.9 0  -0.15 -0.9 0  -0.1 -0.9 0  -0.04999999999999999 -0.9 0  0 -0.9 0  0.04999999999999999 -0.9 0  0.09999999999999998 -0.9 0  0.15 -0.9 0  0.2 -0.9 0  0.25 -0.9 0  -0.25 -0.85 0  -0.2 -0.85 0  -0.15 -0.85 0  -0.1 -0.85 0  -0.04999999999999999 -0.85 0  0 -0.85 0  0.04999999999999999 -0.85 0  0.09999999999999998 -0.85 0  0.15 -0.85 0  0.2 -0.85 0  0.25 -0.85 0  -0.25 -0.8 0  -0.2 -0.8 0  -0.15 -0.8 0  -0.1 -0.8 0  -0.04999999999999999 -0.8 0  0 -0.8 0  0.04999999999999999 -0.8 0  0.09999999999999998 -0.8 0  0.15 -0.8 0  0.2 -0.8 0  0.25 -0.8 0  -0.25 -0.75 0  -0.2 -0.75 0  -0.15 -0.75 0  -0.1 -0.75 0  -0.04999999999999999 -0.75 0  0 -0.75 0  0.04999999999999999 -0.75 0  0.09999999999999998 -0.75 0  0.15 -0.75 0  0.2 -0.75 0  0.25 -0.75 0  -0.25 -0.7 0  -0.2 -0.7 0  -0.15 -0.7 0  -0.1 -0.7 0  -0.04999999999999999 -0.7 0  0 -0.7 0  0.04999999999999999 -0.7 0  0.09999999999999998 -0.7 0  0.15 -0.7 0  0.2 -0.7 0  0.25 -0.7 0  -0.25 -0.65 0  -0.2 -0.65 0  -0.15 -0.65 0  -0.1 -0.65 0  -0.04999999999999999 -0.65 0  0 -0.65 0  0.04999999999999999 -0.65 0  0.09999999999999998 -0.65 0  0.15 -0.65 0  0.2 -0.65 0  0.25 -0.65 0  -0.25 -0.6 0  -0.2 -0.6 0  -0.15 -0.6 0  -0.1 -0.6 0  -0.04999999999999999 -0.6 0  0 -0.6 0  0.04999999999999999 -0.6 0  0.09999999999999998 -0.6 0  0.15 -0.6 0  0.2 -0.6 0  0.25 -0.6 0  -0.25 -0.55 0  -0.2 -0.55 0  -0.15 -0.55 0  -0.1 -0.55 0  -0.04999999999999999 -0.55 0  0 -0.55 0  0.04999999999999999 -0.55 0  0.09999999999999998 -0.55 0  0.15 -0.55 0  0.2 -0.55 0  0.25 -0.55 0  -0.25 -0.5 0  -0.2 -0.5 0  -0.15 -0.5 0  -0.1 -0.5 0  -0.04999999999999999 -0.5 0  0 -0.5 0  0.04999999999999999 -0.5 0  0.09999999999999998 -0.5 0  0.15 -0.5 0  0.2 -0.5 0  0.25 -0.5 0  -0.25 -0.45 0  -0.2 -0.45 0  -0.15 -0.45 0  -0.1 -0.45 0  -0.04999999999999999 -0.45 0  0 -0.45 0  0.04999999999999999 -0.45 0  0.09999999999999998 -0.45 0  0.15 -0.45 0  0.2 -0.45 0  0.25 -0.45 0  -0.25 -0.4 0  -0.2 -0.4 0  -0.15 -0.4 0  -0.1 -0.4 0  -0.04999999999999999 -0.4 0  0 -0.4 0  0.04999999999999999 -0.4 0  0.09999999999999998 -0.4 0  0.15 -0.4 0  0.2 -0.4 0  0.25 -0.4 0  -0.25 -0.35 0  -0.2 -0.35 0  -0.15 -0.35 0  -0.1 -0.35 0  -0.04999999999999999 -0.35 0  0 -0.35 0  0.04999999999999999 -0.35 0  0.09999999999999998 -0.35 0  0.15 -0.35 0  0.2 -0.35 0  0.25 -0.35 0  -0.25 -0.3 0  -0.2 -0.3 0  -0.15 -0.3 0  -0.1 -0.3 0  -0.04999999999999999 -0.3 0  0 -0.3 0  0.04999999999999999 -0.3 0  0.09999999999999998 -0.3 0  0.15 -0.3 0  0.2 -0.3 0  0.25 -0.3 0  -0.25 -0.25 0  -0.2 -0.25 0  -0.15 -0.25 0  -0.1 -0.25 0  -0.04999999999999999 -0.25 0  0 -0.25 0  0.04999999999999999 -0.25 0  0.09999999999999998 -0.25 0  0.15 -0.25 0  0.2 -0.25 0  0.25 -0.25 0  -0.25 -0.2 0  -0.2 -0.2 0  -0.15 -0.2 0  -0.1 -0.2 0  -0.04999999999999999 -0.2 0  0 -0.2 0  0.04999999999999999 -0.2 0  0.09999999999999998 -0.2 0  0.15 -0.2 0  0.2 -0.2 0  0.25 -0.2 0  -0.25 -0.15 0  -0.2 -0.15 0  -0.15 -0.15 0  -0.1 -0.15 0  -0.04999999999999999 -0.15 0  0 -0.15 0  0.04999999999999999 -0.15 0  0.09999999999999998 -0.15 0  0.15 -0.15 0  0.2 -0.15 0  0.25 -0.15 0  -0.25 -0.09999999999999998 0  -0.2 -0.09999999999999998 0  -0.15 -0.09999999999999998 0  -0.1 -0.09999999999999998 0  -0.04999999999999999 -0.09999999999999998 0  0 -0.09999999999999998 0  0.04999999999999999 -0.09999999999999998 0  0.09999999999999998 -0.09999999999999998 0  0.15 -0.09999999999999998 0  0.2 -0.09999999999999998 0  0.25 -0.09999999999999998 0  -0.25 -0.05000000000000004 0  -0.2 -0.05000000000000004 0  -0.15 -0.05000000000000004 0  -0.1 -0.05000000000000004 0  -0.04999999999999999 -0.05000000000000004 0  0 -0.05000000000000004 0  0.04999999999999999 -0.05000000000000004 0  0.09999999999999998 -0.05000000000000004 0  0.15 -0.05000000000000004 0  0.2 -0.05000000000000004 0  0.25 -0.05000000000000004 0  -0.25 0 0  -0.2 0 0  -0.15 0 0  -0.1 0 0  -0.04999999999999999 0 0  0 0 0  0.04999999999999999 0 0  0.09999999999999998 0 0  0.15 0 0  0.2 0 0  0.25 0 0  -0.225 -0.975 0  -0.175 -0.975 0  -0.125 -0.975 0  -0.07500000000000001 -0.975 0  -0.02499999999999999 -0.975 0  0.02500000000000002 -0.975 0  0.07500000000000001 -0.975 0  0.125 -0.975 0  0.175 -0.975 0  0.225 -0.975 0  -0.225 -0.925 0  -0.175 -0.925 0  -0.125 -0.925 0  -0.07500000000000001 -0.925 0  -0.02499999999999999 -0.925 0  0.02500000000000002 -0.925 0  0.07500000000000001 -0.925 0  0.125 -0.925 0  0.175 -0.925 0  0.225 -0.925 0  -0.225 -0.875 0  -0.175 -0.875 0  -0.125 -0.875 0  -0.07500000000000001 -0.875 0  -0.02499999999999999 -0.875 0  0.02500000000000002 -0.875 0  0.07500000000000001 -0.875 0  0.125 -0.875 0  0.175 -0.875 0  0.225 -0.875 0  -0.225 -0.825 0  -0.175 -0.825 0  -0.125 -0.825 0  -0.07500000000000001 -0.825 0  -0.02499999999999999 -0.825 0  0.02500000000000002 -0.825 0  0.07500000000000001 -0.825 0  0.125 -0.825 0  0.175 -0.825 0  0.225 -0.825 0  -0.225 -0.775 0  -0.175 -0.775 0  -0.125 -0.775 0  -0.07500000000000001 -0.775 0  -0.02499999999999999 -0.775 0  0.02500000000000002 -0.775 0  0.07500000000000001 -0.775 0  0.125 -0.775 0  0.175 -0.775 0  0.225 -0.775 0  -0.225 -0.725 0  -0.175 -0.725 0  -0.125 -0.725 0  -0.07500000000000001 -0.725 0  -0.02499999999999999 -0.725 0  0.02500000000000002 -0.725 0  0.07500000000000001 -0.725 0  0.125 -0.725 0  0.175 -0.725 0  0.225 -0.725 0  -0.225 -0.675 0  -0.175 -0.675 0  -0.125 -0.675 0  -0.07500000000000001 -0.675 0  -0.02499999999999999 -0.675 0  0.02500000000000002 -0.675 0  0.07500000000000001 -0.675 0  0.125 -0.675 0  0.175 -0.675 0  0.225 -0.675 0  -0.225 -0.625 0  -0.175 -0.625 0  -0.125 -0.625 0  -0.07500000000000001 -0.625 0  -0.02499999999999999 -0.625 0  0.02500000000000002 -0.625 0  0.07500000000000001 -0.625 0  0.125 -0.625 0  0.175 -0.625 0  0.225 -0.625 0  -0.225 -0.575 0  -0.175 -0.575 0  -0.125 -0.575 0  -0.07500000000000001 -0.575 0  -0.02499999999999999 -0.575 0  0.02500000000000002 -0.575 0  0.07500000000000001 -0.575 0  0.125 -0.575 0  0.175 -0.575 0  0.225 -0.575 0  -0.225 -0.525 0  -0.175 -0.525 0  -0.125 -0.525 0  -0.07500000000000001 -0.525 0  -0.02499999999999999 -0.525 0  0.02500000000000002 -0.525 0  0.07500000000000001 -0.525 0  0.125 -0.525 0  0.175 -0.525 0  0.225 -0.525 0  -0.225 -0.475 0  -0.175 -0.475 0  -0.125 -0.475 0  -0.07500000000000001 -0.475 0  -0.02499999999999999 -0.475 0  0.02500000000000002 -0.475 0  0.07500000000000001 -0.475 0  0.125 -0.475 0  0.175 -0.475 0  0.225 -0.475 0  -0.225 -0.425 0  -0.175 -0.425 0  -0.125 -0.425 0  -0.07500000000000001 -0.425 0  -0.02499999999999999 -0.425 0  0.02500000000000002 -0.425 0  0.07500000000000001 -0.425 0  0.125 -0.425 0  0.175 -0.425 0  0.225 -0.425 0  -0.225 -0.375 0  -0.175 -0.375 0  -0.125 -0.375 0  -0.07500000000000001 -0.375 0  -0.02499999999999999 -0.375 0  0.02500000000000002 -0.375 0  0.07500000000000001 -0.375 0  0.125 -0.375 0  0.175 -0.375 0  0.225 -0.375 0  -0.225 -0.325 0  -0.175 -0.325 0  -0.125 -0.325 0  -0.07500000000000001 -0.325 0  -0.02499999999999999 -0.325 0  0.02500000000000002 -0.325 0  0.07500000000000001 -0.325 0  0.125 -0.325 0  0.175 -0.325 0  0.225 -0.325 0  -0.225 -0.275 0  -0.175 -0.275 0  -0.125 -0.275 0  -0.07500000000000001 -0.275 0  -0.02499999999999999 -0.275 0  0.02500000000000002 -0.275 0  0.07500000000000001 -0.275 0  0.125 -0.275 0  0.175 -0.275 0  0.225 -0.275 0  -0.225 -0.225 0  -0.175 -0.225 0  -0.125 -0.225 0  -0.07500000000000001 -0.225 0  -0.02499999999999999 -0.225 0  0.02500000000000002 -0.225 0  0.07500000000000001 -0.225 0  0.125 -0.225 0  0.175 -0.225 0  0.225 -0.225 0  -0.225 -0.175 0  -0.175 -0.175 0  -0.125 -0.175 0  -0.07500000000000001 -0.175 0  -0.02499999999999999 -0.175 0  0.02500000000000002 -0.175 0  0.07500000000000001 -0.175 0  0.125 -0.175 0  0.175 -0.175 0  0.225 -0.175 0  -0.225 -0.125 0  -0.175 -0.125 0  -0.125 -0.125 0  -0.07500000000000001 -0.125 0  -0.02499999999999999 -0.125 0  0.02500000000000002 -0.125 0  0.07500000000000001 -0.125 0  0.125 -0.125 0  0.175 -0.125 0  0.225 -0.125 0  -0.225 -0.07499999999999996 0  -0.175 -0.07499999999999996 0  -0.125 -0.07499999999999996 0  -0.07500000000000001 -0.07499999999999996 0  -0.02499999999999999 -0.07499999999999996 0  0.02500000000000002 -0.07499999999999996 0  0.07500000000000001 -0.07499999999999996 0  0.125 -0.07499999999999996 0  0.175 -0.07499999999999996 0  0.225 -0.07499999999999996 0  -0.225 -0.02500000000000002 0  -0.175 -0.02500000000000002 0  -0.125 -0.02500000000000002 0  -0.07500000000000001 -0.02500000000000002 0  -0.02499999999999999 -0.02500000000000002 0  0.02500000000000002 -0.02500000000000002 0  0.07500000000000001 -0.02500000000000002 0  0.125 -0.02500000000000002 0  0.175 -0.02500000000000002 0  0.225 -0.02500000000000002 0  </DataArray>
</Points>
<Cells>
[...]
<PointData  Vectors="flow"> 
<DataArray  type="Float64"  Name="flow"  NumberOfComponents="3" format="ascii">-1.0015992152837114e-01 2.0032838665685304e-01 0.0000000000000000e+00  1.9304917190144286e-05 2.0032838665318770e-01 0.0000000000000000e+00  -3.7205605781356605e-09 2.0032838665520902e-01 0.0000000000000000e+00  1.1045450834118708e-12 2.0032838665760314e-01 0.0000000000000000e+00  1.6051745296421169e-12 2.0032838665670202e-01 0.0000000000000000e+00  -3.5138285044567685e-12 2.0032838665481700e-01 0.0000000000000000e+00  -2.9262532746411578e-13 2.0032838667079825e-01 0.0000000000000000e+00  3.4806876249153295e-12 2.0032838665435307e-01 0.0000000000000000e+00  3.7213090982979245e-09 2.0032838665311598e-01 0.0000000000000000e+00  -1.9304914954662073e-05 2.0032838665863098e-01 0.0000000000000000e+00  1.0015992153293926e-01 2.0032838665559377e-01 0.0000000000000000e+00  -9.9851161921739470e-02 6.0028186603503375e-01 0.0000000000000000e+00  1.9245406703946175e-05 6.0028186603466116e-01 0.0000000000000000e+00  -3.7053000348571888e-09 6.0028186603421863e-01 0.0000000000000000e+00  1.9458019271498646e-12 6.0028186603755673e-01 0.0000000000000000e+00  -9.9740478943155408e-13 6.0028186603515454e-01 0.0000000000000000e+00  4.7166183317735102e-12 6.0028186603280054e-01 0.0000000000000000e+00  -3.5456018487779597e-13 6.0028186603880274e-01 0.0000000000000000e+00  -7.9861113683812301e-12 6.0028186603876421e-01 0.0000000000000000e+00  3.7125850649518955e-09 6.0028186603558698e-01 0.0000000000000000e+00  -1.9245402436308469e-05 6.0028186602985334e-01 0.0000000000000000e+00  9.9851161919734241e-02 6.0028186603317901e-01 0.0000000000000000e+00  -9.8926786692240559e-02 1.1968627947531054e+00 0.0000000000000000e+00  1.9067239999256724e-05 1.1968627947535735e+00 0.0000000000000000e+00  -3.6721906499916013e-09 1.1968627947496435e+00 0.0000000000000000e+00  1.9897914793902193e-12 1.1968627947508463e+00 0.0000000000000000e+00  -3.8908138954069168e-12 1.1968627947491581e+00 0.0000000000000000e+00  4.4827380839552091e-13 1.1968627947520540e+00 0.0000000000000000e+00  6.0443215794950137e-12 1.1968627947531365e+00 0.0000000000000000e+00  4.8092568672686187e-13 1.1968627947485704e+00 0.0000000000000000e+00  3.6676098617867127e-09 1.1968627947543717e+00 0.0000000000000000e+00  -1.9067241841595072e-05 1.1968627947501655e+00 0.0000000000000000e+00  9.8926786697871763e-02 1.1968627947495032e+00 0.0000000000000000e+00  -9.7392494923400685e-02 1.7860646663405277e+00 0.0000000000000000e+00  1.8771516809012825e-05 1.7860646663456228e+00 0.0000000000000000e+00  -3.6151837959445381e-09 1.7860646663450768e+00 0.0000000000000000e+00  1.7210480727666700e-12 1.7860646663341966e+00 0.0000000000000000e+00  -7.2992641046132041e-14 1.7860646663451503e+00 0.0000000000000000e+00  1.0928177975341885e-11 1.7860646663457054e+00 0.0000000000000000e+00  -5.3641635870924226e-12 1.7860646663462616e+00 0.0000000000000000e+00  -7.5247413447582846e-12 1.7860646663413389e+00 0.0000000000000000e+00  3.6214742748020793e-09 1.7860646663392508e+00 0.0000000000000000e+00  -1.8771521082571115e-05 1.7860646663444248e+00 0.0000000000000000e+00  9.7392494923497719e-02 1.7860646663409043e+00 0.0000000000000000e+00  -9.5257746032678212e-02 2.3642548553312341e+00 0.0000000000000000e+00  1.8360070350057791e-05 2.3642548553310978e+00 0.0000000000000000e+00  -3.5460149780294499e-09 2.3642548553367986e+00 0.0000000000000000e+00  1.4244307077078855e-12 2.3642548553333862e+00 0.0000000000000000e+00  5.7895116150560113e-12 2.3642548553408860e+00 0.0000000000000000e+00  1.3198665517241077e-12 2.3642548553332325e+00 0.0000000000000000e+00  1.8920421883542059e-12 2.3642548553270464e+00 0.0000000000000000e+00  -4.8218774570123879e-12 2.3642548553368985e+00 0.0000000000000000e+00  3.5344997576421158e-09 2.3642548553388996e+00 0.0000000000000000e+00  -1.8360065598740660e-05 2.3642548553363221e+00 0.0000000000000000e+00  9.5257746043212563e-02 2.3642548553363234e+00 0.0000000000000000e+00  -9.2535701484180111e-02 2.9278686269535275e+00 0.0000000000000000e+00  1.7835416768320563e-05 2.9278686269488263e+00 0.0000000000000000e+00  -3.4343820558118344e-09 2.9278686269382828e+00 0.0000000000000000e+00  6.0748012690140209e-12 2.9278686269544143e+00 0.0000000000000000e+00  2.7929154537176687e-12 2.9278686269481371e+00 0.0000000000000000e+00  -3.7516821462624628e-12 2.9278686269558869e+00 0.0000000000000000e+00  -2.6784474869969218e-12 2.9278686269486824e+00 0.0000000000000000e+00  4.7025107448808086e-12 2.9278686269564078e+00 0.0000000000000000e+00  3.4398700577353063e-09 2.9278686269598748e+00 0.0000000000000000e+00  -1.7835421308133821e-05 2.9278686269602807e+00 0.0000000000000000e+00  9.2535701475407073e-02 2.9278686269565966e+00 0.0000000000000000e+00  -8.9243143539646505e-02 3.4734311148642578e+00 0.0000000000000000e+00  1.7200800582360647e-05 3.4734311148686960e+00 0.0000000000000000e+00  -3.3132656089310988e-09 3.4734311148703014e+00 0.0000000000000000e+00  8.9314473467563732e-12 3.4734311148720720e+00 0.0000000000000000e+00  5.2144709944316599e-12 3.4734311148656585e+00 0.0000000000000000e+00  3.4475903271160007e-12 3.4734311148764196e+00 0.0000000000000000e+00  2.9529951519807769e-12 3.4734311148824646e+00 0.0000000000000000e+00  4.8771195831671628e-12 3.4734311148804240e+00 0.0000000000000000e+00  3.3135178509465003e-09 3.4734311148747685e+00 0.0000000000000000e+00  -1.7200807226659964e-05 3.4734311148775108e+00 0.0000000000000000e+00  8.9243143544382383e-02 3.4734311148810311e+00 0.0000000000000000e+00  -8.5400371956403515e-02 3.9975787449439451e+00 0.0000000000000000e+00  1.6460146509837545e-05 3.9975787449315425e+00 0.0000000000000000e+00  -3.1732535824348043e-09 3.9975787449366242e+00 0.0000000000000000e+00  5.6740065557667090e-12 3.9975787449259665e+00 0.0000000000000000e+00  9.2923413082375835e-12 3.9975787449343820e+00 0.0000000000000000e+00  1.1135219131031531e-11 3.9975787449343647e+00 0.0000000000000000e+00  9.2367165723146412e-13 3.9975787449366207e+00 0.0000000000000000e+00  -1.0740701391446139e-12 3.9975787449336524e+00 0.0000000000000000e+00  3.1778610918268107e-09 3.9975787449419582e+00 0.0000000000000000e+00  -1.6460146951246387e-05 3.9975787449464426e+00 0.0000000000000000e+00  8.5400371954324275e-02 3.9975787449437323e+00 0.0000000000000000e+00  -8.1031078683087024e-02 4.4970799727004014e+00 0.0000000000000000e+00  1.5618001799552249e-05 4.4970799727084527e+00 0.0000000000000000e+00  -3.0104144662782745e-09 4.4970799727097654e+00 0.0000000000000000e+00  4.8485213758211973e-12 4.4970799727101918e+00 0.0000000000000000e+00  1.1064235364531157e-11 4.4970799727045598e+00 0.0000000000000000e+00  5.9820714165945503e-12 4.4970799727009068e+00 0.0000000000000000e+00  5.8833742563511148e-12 4.4970799727057607e+00 0.0000000000000000e+00  4.7747483606526463e-12 4.4970799727138679e+00 0.0000000000000000e+00  3.0151342453805340e-09 4.4970799727055155e+00 0.0000000000000000e+00  -1.5618004842716602e-05 4.4970799726961426e+00 0.0000000000000000e+00  8.1031078664751829e-02 4.4970799727099680e+00 0.0000000000000000e+00  -7.6162201833265775e-02 4.9688552070080076e+00 0.0000000000000000e+00  1.4679574098832295e-05 4.9688552070088310e+00 0.0000000000000000e+00  -2.8285676643854380e-09 4.9688552070118979e+00 0.0000000000000000e+00  8.5973346063087556e-14 4.9688552070123464e+00 0.0000000000000000e+00  3.0297855212858145e-12 4.9688552070073122e+00 0.0000000000000000e+00  1.1417722848356907e-11 4.9688552070088132e+00 0.0000000000000000e+00  1.4336754971401943e-11 4.9688552070139451e+00 0.0000000000000000e+00  -1.1260531852249539e-12 4.9688552070091703e+00 0.0000000000000000e+00  2.8202461771300435e-09 4.9688552070050056e+00 0.0000000000000000e+00  -1.4679564324471072e-05 4.9688552070124059e+00 0.0000000000000000e+00  7.6162201869495003e-02 4.9688552070112735e+00 0.0000000000000000e+00  -7.0823759734900169e-02 5.4099957966565428e+00 0.0000000000000000e+00  1.3650646511990880e-05 5.4099957966568981e+00 0.0000000000000000e+00  -2.6318167541229621e-09 5.4099957966526793e+00 0.0000000000000000e+00  6.4061644947231293e-12 5.4099957966629262e+00 0.0000000000000000e+00  5.2685029218460048e-12 5.4099957966610006e+00 0.0000000000000000e+00  8.4275539949337258e-12 5.4099957966610672e+00 0.0000000000000000e+00  7.7544721065317160e-12 5.4099957966437087e+00 0.0000000000000000e+00  -4.1658845045539526e-12 5.4099957966541981e+00 0.0000000000000000e+00  2.6467052610569274e-09 5.4099957966653847e+00 0.0000000000000000e+00  -1.3650646689502617e-05 5.4099957966676806e+00 0.0000000000000000e+00  7.0823759723027527e-02 5.4099957966440204e+00 0.0000000000000000e+00  -6.5048665491408669e-02 5.8177819631945873e+00 0.0000000000000000e+00  1.2537488756636101e-05 5.8177819632070573e+00 0.0000000000000000e+00  -2.3715554945241816e-09 5.8177819632077403e+00 0.0000000000000000e+00  -2.2189700388914159e-11 5.8177819632099572e+00 0.0000000000000000e+00  7.1679068607204204e-12 5.8177819632085219e+00 0.0000000000000000e+00  3.8459890061065580e-12 5.8177819631977634e+00 0.0000000000000000e+00  -3.4328855283415001e-12 5.8177819632090451e+00 0.0000000000000000e+00  4.0829234831681431e-11 5.8177819632126582e+00 0.0000000000000000e+00  2.3789505300798656e-09 5.8177819632049390e+00 0.0000000000000000e+00  -1.2537494520319851e-05 5.8177819632035979e+00 0.0000000000000000e+00  6.5048665493807875e-02 5.8177819632132097e+00 0.0000000000000000e+00  -5.8872525106522147e-02 6.1896995693400196e+00 0.0000000000000000e+00  1.1347486223589780e-05 6.1896995693340138e+00 0.0000000000000000e+00  -2.4296694878950970e-09 6.1896995693488197e+00 0.0000000000000000e+00  1.6376439135940736e-10 6.1896995693380541e+00 0.0000000000000000e+00  -6.4658526167051931e-11 6.1896995693603358e+00 0.0000000000000000e+00  1.8336948565275197e-12 6.1896995693658381e+00 0.0000000000000000e+00  8.2359452614318485e-11 6.1896995693691412e+00 0.0000000000000000e+00  -1.4973118196997167e-10 6.1896995693445129e+00 0.0000000000000000e+00  2.4370087696728581e-09 6.1896995693554597e+00 0.0000000000000000e+00  -1.1347472873913385e-05 6.1896995693661649e+00 0.0000000000000000e+00  5.8872525110081217e-02 6.1896995693598083e+00 0.0000000000000000e+00  -5.2333412997937215e-02 6.5234556193630011e+00 0.0000000000000000e+00  1.0084787511017798e-05 6.5234556193555706e+00 0.0000000000000000e+00  -4.6885565360537023e-10 6.5234556193552953e+00 0.0000000000000000e+00  -8.4052862267682589e-10 6.5234556193707016e+00 0.0000000000000000e+00  3.7411744676292360e-10 6.5234556193631601e+00 0.0000000000000000e+00  1.3671933649025534e-11 6.5234556193606563e+00 0.0000000000000000e+00  -3.6076611533631721e-10 6.5234556193706865e+00 0.0000000000000000e+00  8.3898859408801989e-10 6.5234556193678603e+00 0.0000000000000000e+00  5.0929200796333199e-10 6.5234556193709414e+00 0.0000000000000000e+00  -1.0084771159107610e-05 6.5234556193760982e+00 0.0000000000000000e+00  5.2333412975277008e-02 6.5234556193816005e+00 0.0000000000000000e+00  -4.5471667004125978e-02 6.8169923961916252e+00 0.0000000000000000e+00  8.7767683025010674e-06 6.8169923961968886e+00 0.0000000000000000e+00  -1.0265742135754860e-08 6.8169923961907051e+00 0.0000000000000000e+00  4.5720679514225865e-09 6.8169923961905470e+00 0.0000000000000000e+00  -1.7361515895698740e-09 6.8169923961849843e+00 0.0000000000000000e+00  3.5204072288531082e-12 6.8169923962010310e+00 0.0000000000000000e+00  1.7631385676937700e-09 6.8169923961812930e+00 0.0000000000000000e+00  -4.5464723772972760e-09 6.8169923962209182e+00 0.0000000000000000e+00  1.0288782948718728e-08 6.8169923962072856e+00 0.0000000000000000e+00  -8.7767576018907375e-06 6.8169923961883843e+00 0.0000000000000000e+00  4.5471667004436223e-02 6.8169923962002583e+00 0.0000000000000000e+00  -3.8329451609853037e-02 7.0685001480341896e+00 0.0000000000000000e+00  7.3094298945714873e-06 7.0685001480381153e+00 0.0000000000000000e+00  4.8286835091284474e-08 7.0685001480341771e+00 0.0000000000000000e+00  -2.3083400054684901e-08 7.0685001480400595e+00 0.0000000000000000e+00  7.5075842052739811e-09 7.0685001480519345e+00 0.0000000000000000e+00  1.2619028079998267e-11 7.0685001480590639e+00 0.0000000000000000e+00  -7.4720922443824786e-09 7.0685001480528538e+00 0.0000000000000000e+00  2.3101644641094707e-08 7.0685001480365282e+00 0.0000000000000000e+00  -4.8277858699923737e-08 7.0685001480413803e+00 0.0000000000000000e+00  -7.3094211423257067e-06 7.0685001480463763e+00 0.0000000000000000e+00  3.8329451632370275e-02 7.0685001480432881e+00 0.0000000000000000e+00  -3.0951714169298254e-02 7.2764282459598393e+00 0.0000000000000000e+00  6.4592488737834585e-06 7.2764282459709086e+00 0.0000000000000000e+00  -2.7931228882305039e-07 7.2764282459773169e+00 0.0000000000000000e+00  1.0464658839746525e-07 7.2764282459645813e+00 0.0000000000000000e+00  -2.5304139917514523e-08 7.2764282459695284e+00 0.0000000000000000e+00  9.9754279961142170e-12 7.2764282459492975e+00 0.0000000000000000e+00  2.5318051819904396e-08 7.2764282459676206e+00 0.0000000000000000e+00  -1.0460794623742299e-07 7.2764282459567591e+00 0.0000000000000000e+00  2.7934255280616329e-07 7.2764282459705534e+00 0.0000000000000000e+00  -6.4592345900134045e-06 7.2764282459612017e+00 0.0000000000000000e+00  3.0951714200426920e-02 7.2764282459657066e+00 0.0000000000000000e+00  -2.3377822170422145e-02 7.4394947441235137e+00 0.0000000000000000e+00  1.3623733988241386e-06 7.4394947440974359e+00 0.0000000000000000e+00  1.4405544144174124e-06 7.4394947440821904e+00 0.0000000000000000e+00  -3.6449820638772591e-07 7.4394947440907195e+00 0.0000000000000000e+00  4.8515611041401496e-08 7.4394947440925456e+00 0.0000000000000000e+00  1.4394713319116522e-11 7.4394947440966224e+00 0.0000000000000000e+00  -4.8490369478152191e-08 7.4394947440960539e+00 0.0000000000000000e+00  3.6451638660090646e-07 7.4394947440845369e+00 0.0000000000000000e+00  -1.4405455395975584e-06 7.4394947440795187e+00 0.0000000000000000e+00  -1.3623676768255915e-06 7.4394947440799362e+00 0.0000000000000000e+00  2.3377822198831655e-02 7.4394947440695169e+00 0.0000000000000000e+00  -1.5697677383016514e-02 7.5566942832413844e+00 0.0000000000000000e+00  2.3087887738668316e-05 7.5566942832466486e+00 0.0000000000000000e+00  -5.8518511099665030e-06 7.5566942832571842e+00 0.0000000000000000e+00  4.1702447737707678e-07 7.5566942832537931e+00 0.0000000000000000e+00  -2.8344428533044534e-08 7.5566942832459301e+00 0.0000000000000000e+00  5.9143824917511606e-12 7.5566942832478174e+00 0.0000000000000000e+00  2.8362047261496734e-08 7.5566942832276300e+00 0.0000000000000000e+00  -4.1701207353807742e-07 7.5566942832123569e+00 0.0000000000000000e+00  5.8518798580435775e-06 7.5566942832161503e+00 0.0000000000000000e+00  -2.3087909944381710e-05 7.5566942832305557e+00 0.0000000000000000e+00  1.5697677370548408e-02 7.5566942832123063e+00 0.0000000000000000e+00  -7.6165939761829865e-03 7.6273042892800991e+00 0.0000000000000000e+00  -1.1828609763147274e-04 7.6273042892767613e+00 0.0000000000000000e+00  -1.4691925570045370e-06 7.6273042892729714e+00 0.0000000000000000e+00  3.8847437138530005e-07 7.6273042892657790e+00 0.0000000000000000e+00  -5.6338525827253348e-08 7.6273042892618754e+00 0.0000000000000000e+00  -1.2616221291160031e-11 7.6273042892478147e+00 0.0000000000000000e+00  5.6336349600985623e-08 7.6273042892425638e+00 0.0000000000000000e+00  -3.8846562726107424e-07 7.6273042892638196e+00 0.0000000000000000e+00  1.4692219646641184e-06 7.6273042892546492e+00 0.0000000000000000e+00  1.1828610385996281e-04 7.6273042892516774e+00 0.0000000000000000e+00  7.6165939640014694e-03 7.6273042892664717e+00 0.0000000000000000e+00  -3.3836385254513860e-03 7.6508894280306690e+00 0.0000000000000000e+00  -2.8644117856632266e-04 7.6508894280367246e+00 0.0000000000000000e+00  1.2323899734561590e-05 7.6508894280304007e+00 0.0000000000000000e+00  -1.0526576140468916e-06 7.6508894280150761e+00 0.0000000000000000e+00  1.1098869307008318e-07 7.6508894279896564e+00 0.0000000000000000e+00  -9.6158439538526129e-12 7.6508894279967405e+00 0.0000000000000000e+00  -1.1098277234392717e-07 7.6508894280192745e+00 0.0000000000000000e+00  1.0526700974006251e-06 7.6508894280266455e+00 0.0000000000000000e+00  -1.2323906023991070e-05 7.6508894280090702e+00 0.0000000000000000e+00  2.8644117394953275e-04 7.6508894279951871e+00 0.0000000000000000e+00  3.3836385296867966e-03 7.6508894280090649e+00 0.0000000000000000e+00  4.9993133282875274e-02 2.0059428524673309e-01 0.0000000000000000e+00  -9.6357185437070446e-06 2.0059428524636685e-01 0.0000000000000000e+00  1.8590511562110112e-09 2.0059428524964035e-01 0.0000000000000000e+00  2.3653091837595399e-13 2.0059428525133555e-01 0.0000000000000000e+00  -8.4504951113510134e-13 2.0059428525094494e-01 0.0000000000000000e+00  2.3071394922586613e-12 2.0059428525845133e-01 0.0000000000000000e+00  -3.1722412256726894e-12 2.0059428525668399e-01 0.0000000000000000e+00  -1.8571248177600620e-09 2.0059428524613354e-01 0.0000000000000000e+00  9.6357253476938382e-06 2.0059428524874368e-01 0.0000000000000000e+00  -4.9993133282368762e-02 2.0059428525146009e-01 0.0000000000000000e+00  4.9684908991204479e-02 9.0042115970396197e-01 0.0000000000000000e+00  -9.5763139937800271e-06 9.0042115970142123e-01 0.0000000000000000e+00  1.8522049467137159e-09 9.0042115969909009e-01 0.0000000000000000e+00  -2.5087643417674591e-12 9.0042115969824499e-01 0.0000000000000000e+00  -4.7388671435270887e-12 9.0042115969323289e-01 0.0000000000000000e+00  1.2917451094483487e-11 9.0042115968829184e-01 0.0000000000000000e+00  -6.8841809185227384e-12 9.0042115969837155e-01 0.0000000000000000e+00  -1.8460239542916279e-09 9.0042115970868952e-01 0.0000000000000000e+00  9.5763107100541121e-06 9.0042115969620884e-01 0.0000000000000000e+00  -4.9684908988217702e-02 9.0042115968917258e-01 0.0000000000000000e+00  4.9070360716094767e-02 1.4945324449477415e+00 0.0000000000000000e+00  -9.4578691897570777e-06 1.4945324449479405e+00 0.0000000000000000e+00  1.8299021115070846e-09 1.4945324449487978e+00 0.0000000000000000e+00  -3.5861450403210029e-12 1.4945324449488999e+00 0.0000000000000000e+00  -1.1075846553156612e-12 1.4945324449561330e+00 0.0000000000000000e+00  1.7325723604713989e-11 1.4945324449680204e+00 0.0000000000000000e+00  -1.5910746982108792e-11 1.4945324449538275e+00 0.0000000000000000e+00  -1.8169260622500744e-09 1.4945324449417210e+00 0.0000000000000000e+00  9.4578567139371163e-06 1.4945324449548598e+00 0.0000000000000000e+00  -4.9070360711707402e-02 1.4945324449558728e+00 0.0000000000000000e+00  4.8153277354368570e-02 2.0794294407034490e+00 0.0000000000000000e+00  -9.2811083996847546e-06 2.0794294407111247e+00 0.0000000000000000e+00  1.7786697005579533e-09 2.0794294406961815e+00 0.0000000000000000e+00  1.3964816822236983e-11 2.0794294406951406e+00 0.0000000000000000e+00  -3.8240344868512270e-12 2.0794294407016407e+00 0.0000000000000000e+00  1.6288647148299839e-11 2.0794294406897289e+00 0.0000000000000000e+00  -1.9040541161559668e-11 2.0794294406987066e+00 0.0000000000000000e+00  -1.7845595865030978e-09 2.0794294407033171e+00 0.0000000000000000e+00  9.2811019344694625e-06 2.0794294406921474e+00 0.0000000000000000e+00  -4.8153277346472359e-02 2.0794294406938034e+00 0.0000000000000000e+00  4.6939313017232205e-02 2.6515060624502991e+00 0.0000000000000000e+00  -9.0471248491285025e-06 2.6515060624439157e+00 0.0000000000000000e+00  1.7298563081910805e-09 2.6515060624603901e+00 0.0000000000000000e+00  2.4861095886057294e-11 2.6515060624670808e+00 0.0000000000000000e+00  -1.1805740387960511e-11 2.6515060624591782e+00 0.0000000000000000e+00  6.6776981541453460e-12 2.6515060624540503e+00 0.0000000000000000e+00  -7.7263695380071672e-12 2.6515060624466353e+00 0.0000000000000000e+00  -1.7375063989077907e-09 2.6515060624548044e+00 0.0000000000000000e+00  9.0471195665682822e-06 2.6515060624664057e+00 0.0000000000000000e+00  -4.6939313012401784e-02 2.6515060624606095e+00 0.0000000000000000e+00  4.5435952205778569e-02 3.2072352676297551e+00 0.0000000000000000e+00  -8.7573767782663754e-06 3