<?xml version="1.0"?>
<VTKFile type="UnstructuredGrid"  version="0.1"  >
<UnstructuredGrid>
<Piece  NumberOfPoints="431" NumberOfCells="800">
<Points>
<DataArray  type="Float64"  NumberOfComponents="3"  format="ascii">-0.25 -1 0  -0.2 -1 0  -0.15 -1 0  -0.1 -1 0  -0.04999999999999999 -1 0  0 -1 0  0.04999999999999999 -1 0  0.09999999999999998 -1 0  0.15 -1 0  0.2 -1 0  0.25 -1 0  -0.25 -0.95 0  -0.2 -0.95 0  -0.15 -0.95 0  -0.1 -0.95 0  -0.04999999999999999 -0.95 0  0 -0.95 0  0.04999999999999999 -0.95 0  0.09999999999999998 -0.95 0  0.15 -0.95 0  0.2 -0.95 0  0.25 -0.95 0  -0.25 -0.9 0  -0.2 -0.9 0  -0.15 -0.9 0  -0.1 -0.9 0  -0.04999999999999999 -0.9 0  0 -0.9 0  0.04999999999999999 -0.9 0  0.09999999999999998 -0.9 0  0.15 -0.9 0  0.2 -0.9 0  0.25 -0.9 0  -0.25 -0.85 0  -0.2 -0.85 0  -0.15 -0.85 0  -0.1 -0.85 0  -0.04999999999999999 -0.85 0  0 -0.85 0  0.04999999999999999 -0.85 0  0.09999999999999998 -0.85 0  0.15 -0.85 0  0.2 -0.85 0  0.25 -0.85 0  -0.25 -0.8 0  -0.2 -0.8 0  -0.15 -0.8 0  -0.1 -0.8 0  -0.04999999999999999 -0.8 0  0 -0.8 0  0.04999999999999999 -0.8 0  0.09999999999999998 -0.8 0  0.15 -0.8 0  0.2 -0.8 0  0.25 -0.8 0  -0.25 -0.75 0  -0.2 -0.75 0  -0.15 -0.75 0  -0.1 -0.75 0  -0.04999999999999999 -0.75 0  0 -0.75 0  0.04999999999999999 -0.75 0  0.09999999999999998 -0.75 0  0.15 -0.75 0  0.2 -0.75 0  0.25 -0.75 0  -0.25 -0.7 0  -0.2 -0.7 0  -0.15 -0.7 0  -0.1 -0.7 0  -0.04999999999999999 -0.7 0  0 -0.7 0  0.04999999999999999 -0.7 0  0.09999999999999998 -0.7 0  0.15 -0.7 0  0.2 -0.7 0  0.25 -0.7 0  -0.25 -0.65 0  -0.2 -0.65 0  -0.15 -0.65 0  -0.1 -0.65 0  -0.04999999999999999 -0.65 0  0 -0.65 0  0.04999999999999999 -0.65 0  0.09999999999999998 -0.65 0  0.15 -0.65 0  0.2 -0.65 0  0.25 -0.65 0  -0.25 -0.6 0  -0.2 -0.6 0  -0.15 -0.6 0  -0.1 -0.6 0  -0.04999999999999999 -0.6 0  0 -0.6 0  0.04999999999999999 -0.6 0  0.09999999999999998 -0.6 0  0.15 -0.6 0  0.2 -0.6 0  0.25 -0.6 0  -0.25 -0.55 0  -0.2 -0.55 0  -0.15 -0.55 0  -0.1 -0.55 0  -0.04999999999999999 -0.55 0  0 -0.55 0  0.04999999999999999 -0.55 0  0.09999999999999998 -0.55 0  0.15 -0.55 0  0.2 -0.55 0  0.25 -0.55 0  -0.25 -0.5 0  -0.2 -0.5 0  -0.15 -0.5 0  -0.1 -0.5 0  -0.04999999999999999 -0.5 0  0 -0.5 0  0.04999999999999999 -0.5 0  0.09999999999999998 -0.5 0  0.15 -0.5 0  0.2 -0.5 0  0.25 -0.5 0  -0.25 -0.45 0  -0.2 -0.45 0  -0.15 -0.45 0  -0.1 -0.45 0  -0.04999999999999999 -0.45 0  0 -0.45 0  0.04999999999999999 -0.45 0  0.09999999999999998 -0.45 0  0.15 -0.45 0  0.2 -0.45 0  0.25 -0.45 0  -0.25 -0.4 0  -0.2 -0.4 0  -0.15 -0.4 0  -0.1 -0.4 0  -0.04999999999999999 -0.4 0  0 -0.4 0  0.04999999999999999 -0.4 0  0.09999999999999998 -0.4 0  0.15 -0.4 0  0.2 -0.4 0  0.25 -0.4 0  -0.25 -0.35 0  -0.2 -0.35 0  -0.15 -0.35 0  -0.1 -0.35 0  -0.04999999999999999 -0.35 0  0 -0.35 0  0.04999999999999999 -0.35 0  0.09999999999999998 -0.35 0  0.15 -0.35 0  0.2 -0.35 0  0.25 -0.35 0  -0.25 -0.3 0  -0.2 -0.3 0  -0.15 -0.3 0  -0.1 -0.3 0  -0.04999999999999999 -0.3 0  0 -0.3 0  0.04999999999999999 -0.3 0  0.09999999999999998 -0.3 0  0.15 -0.3 0  0.2 -0.3 0  0.25 -0.3 0  -0.25 -0.25 0  -0.2 -0.25 0  -0.15 -0.25 0  -0.1 -0.25 0  -0.04999999999999999 -0.25 0  0 -0.25 0  0.04999999999999999 -0.25 0  0.09999999999999998 -0.25 0  0.15 -0.25 0  0.2 -0.25 0  0.25 -0.25 0  -0.25 -0.2 0  -0.2 -0.2 0  -0.15 -0.2 0  -0.1 -0.2 0  -0.04999999999999999 -0.2 0  0 -0.2 0  0.04999999999999999 -0.2 0  0.09999999999999998 -0.2 0  0.15 -0.2 0  0.2 -0.2 0  0.25 -0.2 0  -0.25 -0.15 0  -0.2 -0.15 0  -0.15 -0.15 0  -0.1 -0.15 0  -0.04999999999999999 -0.15 0  0 -0.15 0  0.04999999999999999 -0.15 0  0.09999999999999998 -0.15 0  0.15 -0.15 0  0.2 -0.15 0  0.25 -0.15 0  -0.25 -0.09999999999999998 0  -0.2 -0.09999999999999998 0  -0.15 -0.09999999999999998 0  -0.1 -0.09999999999999998 0  -0.04999999999999999 -0.09999999999999998 0  0 -0.09999999999999998 0  0.04999999999999999 -0.09999999999999998 0  0.09999999999999998 -0.09999999999999998 0  0.15 -0.09999999999999998 0  0.2 -0.09999999999999998 0  0.25 -0.09999999999999998 0  -0.25 -0.05000000000000004 0  -0.2 -0.05000000000000004 0  -0.15 -0.05000000000000004 0  -0.1 -0.05000000000000004 0  -0.04999999999999999 -0.05000000000000004 0  0 -0.05000000000000004 0  0.04999999999999999 -0.05000000000000004 0  0.09999999999999998 -0.05000000000000004 0  0.15 -0.05000000000000004 0  0.2 -0.05000000000000004 0  0.25 -0.05000000000000004 0  -0.25 0 0  -0.2 0 0  -0.15 0 0  -0.1 0 0  -0.04999999999999999 0 0  0 0 0  0.04999999999999999 0 0  0.09999999999999998 0 0  0.15 0 0  0.2 0 0  0.25 0 0  -0.225 -0.975 0  -0.175 -0.975 0  -0.125 -0.975 0  -0.07500000000000001 -0.975 0  -0.02499999999999999 -0.975 0  0.02500000000000002 -0.975 0  0.07500000000000001 -0.975 0  0.125 -0.975 0  0.175 -0.975 0  0.225 -0.975 0  -0.225 -0.925 0  -0.175 -0.925 0  -0.125 -0.925 0  -0.07500000000000001 -0.925 0  -0.02499999999999999 -0.925 0  0.02500000000000002 -0.925 0  0.07500000000000001 -0.925 0  0.125 -0.925 0  0.175 -0.925 0  0.225 -0.925 0  -0.225 -0.875 0  -0.175 -0.875 0  -0.125 -0.875 0  -0.07500000000000001 -0.875 0  -0.02499999999999999 -0.875 0  0.02500000000000002 -0.875 0  0.07500000000000001 -0.875 0  0.125 -0.875 0  0.175 -0.875 0  0.225 -0.875 0  -0.225 -0.825 0  -0.175 -0.825 0  -0.125 -0.825 0  -0.07500000000000001 -0.825 0  -0.02499999999999999 -0.825 0  0.02500000000000002 -0.825 0  0.07500000000000001 -0.825 0  0.125 -0.825 0  0.175 -0.825 0  0.225 -0.825 0  -0.225 -0.775 0  -0.175 -0.775 0  -0.125 -0.775 0  -0.07500000000000001 -0.775 0  -0.02499999999999999 -0.775 0  0.02500000000000002 -0.775 0  0.07500000000000001 -0.775 0  0.125 -0.775 0  0.175 -0.775 0  0.225 -0.775 0  -0.225 -0.725 0  -0.175 -0.725 0  -0.125 -0.725 0  -0.07500000000000001 -0.725 0  -0.02499999999999999 -0.725 0  0.02500000000000002 -0.725 0  0.07500000000000001 -0.725 0  0.125 -0.725 0  0.175 -0.725 0  0.225 -0.725 0  -0.225 -0.675 0  -0.175 -0.675 0  -0.125 -0.675 0  -0.07500000000000001 -0.675 0  -0.02499999999999999 -0.675 0  0.02500000000000002 -0.675 0  0.07500000000000001 -0.675 0  0.125 -0.675 0  0.175 -0.675 0  0.225 -0.675 0  -0.225 -0.625 0  -0.175 -0.625 0  -0.125 -0.625 0  -0.07500000000000001 -0.625 0  -0.02499999999999999 -0.625 0  0.02500000000000002 -0.625 0  0.07500000000000001 -0.625 0  0.125 -0.625 0  0.175 -0.625 0  0.225 -0.625 0  -0.225 -0.575 0  -0.175 -0.575 0  -0.125 -0.575 0  -0.07500000000000001 -0.575 0  -0.02499999999999999 -0.575 0  0.02500000000000002 -0.575 0  0.07500000000000001 -0.575 0  0.125 -0.575 0  0.175 -0.575 0  0.225 -0.575 0  -0.225 -0.525 0  -0.175 -0.525 0  -0.125 -0.525 0  -0.07500000000000001 -0.525 0  -0.02499999999999999 -0.525 0  0.02500000000000002 -0.525 0  0.07500000000000001 -0.525 0  0.125 -0.525 0  0.175 -0.525 0  0.225 -0.525 0  -0.225 -0.475 0  -0.175 -0.475 0  -0.125 -0.475 0  -0.07500000000000001 -0.475 0  -0.02499999999999999 -0.475 0  0.02500000000000002 -0.475 0  0.07500000000000001 -0.475 0  0.125 -0.475 0  0.175 -0.475 0  0.225 -0.475 0  -0.225 -0.425 0  -0.175 -0.425 0  -0.125 -0.425 0  -0.07500000000000001 -0.425 0  -0.02499999999999999 -0.425 0  0.02500000000000002 -0.425 0  0.07500000000000001 -0.425 0  0.125 -0.425 0  0.175 -0.425 0  0.225 -0.425 0  -0.225 -0.375 0  -0.175 -0.375 0  -0.125 -0.375 0  -0.07500000000000001 -0.375 0  -0.02499999999999999 -0.375 0  0.02500000000000002 -0.375 0  0.07500000000000001 -0.375 0  0.125 -0.375 0  0.175 -0.375 0  0.225 -0.375 0  -0.225 -0.325 0  -0.175 -0.325 0  -0.125 -0.325 0  -0.07500000000000001 -0.325 0  -0.02499999999999999 -0.325 0  0.02500000000000002 -0.325 0  0.07500000000000001 -0.325 0  0.125 -0.325 0  0.175 -0.325 0  0.225 -0.325 0  -0.225 -0.275 0  -0.175 -0.275 0  -0.125 -0.275 0  -0.07500000000000001 -0.275 0  -0.02499999999999999 -0.275 0  0.02500000000000002 -0.275 0  0.07500000000000001 -0.275 0  0.125 -0.275 0  0.175 -0.275 0  0.225 -0.275 0  -0.225 -0.225 0  -0.175 -0.225 0  -0.125 -0.225 0  -0.07500000000000001 -0.225 0  -0.02499999999999999 -0.225 0  0.02500000000000002 -0.225 0  0.07500000000000001 -0.225 0  0.125 -0.225 0  0.175 -0.225 0  0.225 -0.225 0  -0.225 -0.175 0  -0.175 -0.175 0  -0.125 -0.175 0  -0.07500000000000001 -0.175 0  -0.02499999999999999 -0.175 0  0.02500000000000002 -0.175 0  0.07500000000000001 -0.175 0  0.125 -0.175 0  0.175 -0.175 0  0.225 -0.175 0  -0.225 -0.125 0  -0.175 -0.125 0  -0.125 -0.125 0  -0.07500000000000001 -0.125 0  -0.02499999999999999 -0.125 0  0.02500000000000002 -0.125 0  0.07500000000000001 -0.125 0  0.125 -0.125 0  0.175 -0.125 0  0.225 -0.125 0  -0.225 -0.07499999999999996 0  -0.175 -0.07499999999999996 0  -0.125 -0.07499999999999996 0  -0.07500000000000001 -0.07499999999999996 0  -0.02499999999999999 -0.07499999999999996 0  0.02500000000000002 -0.07499999999999996 0  0.07500000000000001 -0.07499999999999996 0  0.125 -0.07499999999999996 0  0.175 -0.07499999999999996 0  0.225 -0.07499999999999996 0  -0.225 -0.02500000000000002 0  -0.175 -0.02500000000000002 0  -0.125 -0.02500000000000002 0  -0.07500000000000001 -0.02500000000000002 0  -0.02499999999999999 -0.02500000000000002 0  0.02500000000000002 -0.02500000000000002 0  0.07500000000000001 -0.02500000000000002 0  0.125 -0.02500000000000002 0  0.175 -0.02500000000000002 0  0.225 -0.02500000000000002 0  </DataArray>
</Points>
<Cells>
[...]
<PointData  Scalars="mean stress"> 
<DataArray  type="Float64"  Name="mean stress"  format="ascii">2.9705360470790621e+07  2.9705359968785599e+07  2.9705359910805896e+07  2.9705359905046247e+07  2.9705359905865595e+07  2.9705359905726276e+07  2.9705359905865580e+07  2.9705359905046158e+07  2.9705359910805825e+07  2.9705359968785442e+07  2.9705360470790517e+07  2.9767875327069942e+07  2.9767872691311114e+07  2.9767872564235616e+07  2.9767872568413228e+07  2.9767872567771919e+07  2.9767872567888603e+07  2.9767872567771818e+07  2.9767872568413183e+07  2.9767872564235482e+07  2.9767872691310950e+07  2.9767875327069815e+07  2.9955039655805159e+07  2.9955027944670785e+07  2.9955027848160442e+07  2.9955027847011250e+07  2.9955027847319521e+07  2.9955027847250517e+07  2.9955027847319450e+07  2.9955027847011160e+07  2.9955027848160300e+07  2.9955027944670718e+07  2.9955039655805115e+07  3.0265706001958337e+07  3.0265679920883156e+07  3.0265679833025474e+07  3.0265679833421443e+07  3.0265679833324187e+07  3.0265679833353423e+07  3.0265679833324227e+07  3.0265679833421342e+07  3.0265679833025400e+07  3.0265679920882944e+07  3.0265706001958076e+07  3.0697971370471966e+07  3.0697926107427653e+07  3.0697926036518719e+07  3.0697926036538865e+07  3.0697926036562216e+07  3.0697926036552873e+07  3.0697926036562145e+07  3.0697926036538750e+07  3.0697926036518645e+07  3.0697926107427549e+07  3.0697971370471988e+07  3.1249186795449696e+07  3.1249118463867687e+07  3.1249118411501613e+07  3.1249118411545493e+07  3.1249118411540758e+07  3.1249118411542922e+07  3.1249118411540531e+07  3.1249118411545437e+07  3.1249118411501471e+07  3.1249118463867582e+07  3.1249186795449652e+07  3.1915973052866541e+07  3.1915878782118302e+07  3.1915878749518372e+07  3.1915878749512512e+07  3.1915878749513634e+07  3.1915878749513071e+07  3.1915878749513451e+07  3.1915878749512441e+07  3.1915878749518193e+07  3.1915878782117929e+07  3.1915973052866276e+07  3.2694240398025021e+07  3.2694118409664810e+07  3.2694118396691248e+07  3.2694118396654949e+07  3.2694118396654841e+07  3.2694118396655153e+07  3.2694118396654859e+07  3.2694118396654747e+07  3.2694118396691270e+07  3.2694118409664962e+07  3.2694240398024932e+07  3.3579212622891352e+07  3.3579062232846670e+07  3.3579062238343135e+07  3.3579062238280974e+07  3.3579062238281392e+07  3.3579062238281310e+07  3.3579062238281488e+07  3.3579062238281101e+07  3.3579062238343105e+07  3.3579062232846722e+07  3.3579212622891441e+07  3.4565455280197524e+07  3.4565276846566439e+07  3.4565276868568107e+07  3.4565276868489340e+07  3.4565276868489541e+07  3.4565276868489563e+07  3.4565276868489504e+07  3.4565276868489228e+07  3.4565276868568189e+07  3.4565276846566513e+07  3.4565455280198075e+07  3.5646907979754083e+07  3.5646702805940166e+07  3.5646702841938347e+07  3.5646702841850370e+07  3.5646702841850303e+07  3.5646702841850564e+07  3.5646702841850534e+07  3.5646702841850594e+07  3.5646702841938362e+07  3.5646702805939823e+07  3.5646907979753606e+07  3.6816920623507366e+07  3.6816690830105104e+07  3.6816690877293572e+07  3.6816690877202615e+07  3.6816690877202876e+07  3.6816690877202667e+07  3.6816690877202861e+07  3.6816690877202854e+07  3.6816690877293587e+07  3.6816690830105722e+07  3.6816920623507120e+07  3.8068293420662627e+07  3.8068041798755452e+07  3.8068041854244217e+07  3.8068041854156382e+07  3.8068041854156293e+07  3.8068041854156174e+07  3.8068041854155965e+07  3.8068041854155988e+07  3.8068041854244232e+07  3.8068041798755929e+07  3.8068293420663632e+07  3.9393320492868640e+07  3.9393050349979632e+07  3.9393050410964981e+07  3.9393050410884291e+07  3.9393050410884090e+07  3.9393050410883933e+07  3.9393050410883978e+07  3.9393050410884358e+07  3.9393050410964966e+07  3.9393050349979214e+07  3.9393320492868729e+07  4.0783836846347049e+07  4.0783551854095832e+07  4.0783551917991370e+07  4.0783551917915314e+07  4.0783551917917639e+07  4.0783551917916961e+07  4.0783551917918250e+07  4.0783551917915799e+07  4.0783551917991169e+07  4.0783551854095995e+07  4.0783836846346825e+07  4.2231268453052051e+07  4.2230972503339030e+07  4.2230972567791052e+07  4.2230972567748569e+07  4.2230972567739941e+07  4.2230972567742631e+07  4.2230972567739725e+07  4.2230972567747727e+07  4.2230972567791149e+07  4.2230972503338546e+07  4.2231268453052036e+07  4.3726685148363329e+07  4.3726382221924774e+07  4.3726382285219863e+07  4.3726382285063893e+07  4.3726382285099164e+07  4.3726382285093091e+07  4.3726382285099246e+07  4.3726382285064444e+07  4.3726382285219900e+07  4.3726382221924894e+07  4.3726685148363411e+07  4.5260856015661627e+07  4.5260550069750398e+07  4.5260550128588751e+07  4.5260550129076332e+07  4.5260550128971733e+07  4.5260550128965132e+07  4.5260550128971085e+07  4.5260550129075944e+07  4.5260550128588364e+07  4.5260550069750734e+07  4.5260856015661851e+07  4.6824306915351309e+07  4.6824001764717549e+07  4.6824001828028925e+07  4.6824001825857542e+07  4.6824001825683258e+07  4.6824001825766936e+07  4.6824001825683340e+07  4.6824001825857386e+07  4.6824001828029521e+07  4.6824001764717974e+07  4.6824306915352404e+07  4.8407379693240859e+07  4.8407079057834990e+07  4.8407079050233670e+07  4.8407079043207385e+07  4.8407079044451080e+07  4.8407079044228166e+07  4.8407079044450797e+07  4.8407079043207131e+07  4.8407079050233305e+07  4.8407079057834096e+07  4.8407379693240173e+07  4.9616458191964991e+07  4.9616162706460215e+07  4.9616162467093192e+07  4.9616162484881818e+07  4.9616162482893668e+07  4.9616162483193859e+07  4.9616162482894287e+07  4.9616162484882019e+07  4.9616162467093192e+07  4.9616162706461713e+07  4.9616458191966549e+07  2.9706535603586771e+07  2.9706535886857662e+07  2.9706535932765909e+07  2.9706535933115851e+07  2.9706535933076896e+07  2.9706535933076911e+07  2.9706535933115806e+07  2.9706535932765812e+07  2.9706535886857588e+07  2.9706535603586614e+07  2.9831552772653062e+07  2.9831554009553529e+07  2.9831554064596117e+07  2.9831554063921928e+07  2.9831554063993298e+07  2.9831554063993230e+07  2.9831554063921914e+07  2.9831554064596016e+07  2.9831554009553339e+07  2.9831552772653002e+07  3.0080821745663628e+07  3.0080824906804584e+07  3.0080824953081392e+07  3.0080824953216735e+07  3.0080824953173768e+07  3.0080824953173716e+07  3.0080824953216437e+07  3.0080824953081131e+07  3.0080824906804495e+07  3.0080821745663323e+07  3.0452816284718994e+07  3.0452822235964078e+07  3.0452822275551382e+07  3.0452822275465805e+07  3.0452822275479116e+07  3.0452822275479004e+07  3.0452822275465719e+07  3.0452822275551260e+07  3.0452822235963844e+07  3.0452816284718838e+07  3.0945258093532767e+07  3.0945267551721744e+07  3.0945267582523502e+07  3.0945267582502738e+07  3.0945267582499988e+07  3.0945267582500055e+07  3.0945267582502872e+07  3.0945267582523458e+07  3.0945267551721442e+07  3.0945258093532320e+07  3.1555129968839403e+07  3.1555143497798245e+07  3.1555143519029282e+07  3.1555143519020852e+07  3.1555143519021392e+07  3.1555143519021235e+07  3.1555143519020729e+07  3.1555143519029256e+07  3.1555143497798290e+07  3.1555129968839649e+07  3.2278693391731530e+07  3.2278711379308619e+07  3.2278711390711203e+07  3.2278711390721351e+07  3.2278711390721180e+07  3.2278711390721168e+07  3.2278711390721362e+07  3.2278711390711460e+07  3.2278711379308831e+07  3.2278693391731620e+07  3.3111510377234954e+07  3.3111533030358549e+07  3.3111533032251112e+07  3.3111533032275405e+07  3.3111533032275211e+07  3.3111533032275315e+07  3.3111533032275438e+07  3.3111533032250904e+07  3.3111533030359015e+07  3.3111510377235316e+07  3.4048469564818166e+07  3.4048496913055606e+07  3.4048496906213671e+07  3.4048496906249046e+07  3.4048496906248748e+07  3.4048496906248569e+07  3.4048496906248555e+07  3.4048496906213343e+07  3.4048496913054891e+07  3.4048469564817354e+07  3.5083816448430359e+07  3.5083848356166087e+07  3.5083848341705710e+07  3.5083848341746889e+07  3.5083848341746964e+07  3.5083848341747135e+07  3.5083848341747232e+07  3.5083848341705590e+07  3.5083848356165841e+07  3.5083816448430598e+07  3.6211187632718742e+07  3.6211223817595676e+07  3.6211223796841398e+07  3.6211223796886705e+07  3.6211223796886124e+07  3.6211223796885543e+07  3.6211223796885781e+07  3.6211223796841510e+07  3.6211223817596324e+07  3.6211187632718772e+07  3.7423648971093170e+07  3.7423689026667774e+07  3.7423689001040168e+07  3.7423689001084030e+07  3.7423689001084715e+07  3.7423689001085348e+07  3.7423689001085252e+07  3.7423689001040354e+07  3.7423689026667804e+07  3.7423648971093394e+07  3.8713737410747014e+07  3.8713780831356183e+07  3.8713780802276477e+07  3.8713780802319176e+07  3.8713780802319318e+07  3.8713780802319892e+07  3.8713780802319780e+07  3.8713780802276991e+07  3.8713780831356369e+07  3.8713737410746768e+07  4.0073506336312488e+07  4.0073552542485386e+07  4.0073552511300519e+07  4.0073552511338331e+07  4.0073552511338003e+07  4.0073552511337362e+07  4.0073552511337869e+07  4.0073552511299998e+07  4.0073552542484581e+07  4.0073506336312294e+07  4.1494574169174686e+07  4.1494622532243684e+07  4.1494622500182785e+07  4.1494622500214726e+07  4.1494622500215538e+07  4.1494622500216007e+07  4.1494622500215068e+07  4.1494622500182591e+07  4.1494622532243796e+07  4.1494574169175535e+07  4.2968175944300383e+07  4.2968225809325181e+07  4.2968225777434282e+07  4.2968225777477540e+07  4.2968225777472831e+07  4.2968225777473330e+07  4.2968225777478188e+07  4.2968225777435333e+07  4.2968225809326202e+07  4.2968175944300510e+07  4.4485217551886275e+07  4.4485268258019477e+07  4.4485268227399610e+07  4.4485268227333747e+07  4.4485268227353372e+07  4.4485268227352343e+07  4.4485268227332979e+07  4.4485268227399364e+07  4.4485268258018889e+07  4.4485217551885359e+07  4.6036332297563307e+07  4.6036383197333090e+07  4.6036383167213827e+07  4.6036383167703584e+07  4.6036383167753085e+07  4.6036383167753510e+07  4.6036383167703353e+07  4.6036383167212985e+07  4.6036383197333150e+07  4.6036332297563903e+07  4.7611939393141851e+07  4.7611989860852264e+07  4.7611989849219754e+07  4.7611989851253211e+07  4.7611989851020813e+07  4.7611989851019681e+07  4.7611989851251826e+07  4.7611989849219367e+07  4.7611989860851750e+07  4.7611939393141225e+07  4.9394222102882206e+07  4.9394272207404554e+07  4.9394272266452894e+07  4.9394272263947770e+07  4.9394272264114626e+07  4.9394272264114775e+07  4.9394272263947882e+07  4.9394272266452909e+07  4.9394272207404859e+07  4.9394222102882788e+07  </DataArray> 
</PointData> 
</Piece>
</UnstructuredGrid>
</VTKFile>