<?xml version="1.0"?>
<VTKFile type="UnstructuredGrid"  version="0.1"  >
<UnstructuredGrid>
<Piece  NumberOfPoints="431" NumberOfCells="800">
<Points>
<DataArray  type="Float64"  NumberOfComponents="3"  format="ascii">-0.25 -1 0  -0.2 -1 0  -0.15 -1 0  -0.1 -1 0  -0.04999999999999999 -1 0  0 -1 0  0.04999999999999999 -1 0  0.09999999999999998 -1 0  0.15 -1 0  0.2 -1 0  0.25 -1 0  -0.25 -0.95 0  -0.2 -0.95 0  -0.15 -0.95 0  -0.1 -0.95 0  -0.04999999999999999 -0.95 0  0 -0.95 0  0.04999999999999999 -0.95 0  0.09999999999999998 -0.95 0  0.15 -0.95 0  0.2 -0.95 0  0.25 -0.95 0  -0.25 -0.9 0  -0.2 -0.9 0  -0.15 -0.9 0  -0.1 -0.9 0  -0.04999999999999999 -0.9 0  0 -0.9 0  0.04999999999999999 -0.9 0  0.09999999999999998 -0.9 0  0.15 -0.9 0  0.2 -0.9 0  0.25 -0.9 0  -0.25 -0.85 0  -0.2 -0.85 0  -0.15 -0.85 0  -0.1 -0.85 0  -0.04999999999999999 -0.85 0  0 -0.85 0  0.04999999999999999 -0.85 0  0.09999999999999998 -0.85 0  0.15 -0.85 0  0.2 -0.85 0  0.25 -0.85 0  -0.25 -0.8 0  -0.2 -0.8 0  -0.15 -0.8 0  -0.1 -0.8 0  -0.04999999999999999 -0.8 0  0 -0.8 0  0.04999999999999999 -0.8 0  0.09999999999999998 -0.8 0  0.15 -0.8 0  0.2 -0.8 0  0.25 -0.8 0  -0.25 -0.75 0  -0.2 -0.75 0  -0.15 -0.75 0  -0.1 -0.75 0  -0.04999999999999999 -0.75 0  0 -0.75 0  0.04999999999999999 -0.75 0  0.09999999999999998 -0.75 0  0.15 -0.75 0  0.2 -0.75 0  0.25 -0.75 0  -0.25 -0.7 0  -0.2 -0.7 0  -0.15 -0.7 0  -0.1 -0.7 0  -0.04999999999999999 -0.7 0  0 -0.7 0  0.04999999999999999 -0.7 0  0.09999999999999998 -0.7 0  0.15 -0.7 0  0.2 -0.7 0  0.25 -0.7 0  -0.25 -0.65 0  -0.2 -0.65 0  -0.15 -0.65 0  -0.1 -0.65 0  -0.04999999999999999 -0.65 0  0 -0.65 0  0.04999999999999999 -0.65 0  0.09999999999999998 -0.65 0  0.15 -0.65 0  0.2 -0.65 0  0.25 -0.65 0  -0.25 -0.6 0  -0.2 -0.6 0  -0.15 -0.6 0  -0.1 -0.6 0  -0.04999999999999999 -0.6 0  0 -0.6 0  0.04999999999999999 -0.6 0  0.09999999999999998 -0.6 0  0.15 -0.6 0  0.2 -0.6 0  0.25 -0.6 0  -0.25 -0.55 0  -0.2 -0.55 0  -0.15 -0.55 0  -0.1 -0.55 0  -0.04999999999999999 -0.55 0  0 -0.55 0  0.04999999999999999 -0.55 0  0.09999999999999998 -0.55 0  0.15 -0.55 0  0.2 -0.55 0  0.25 -0.55 0  -0.25 -0.5 0  -0.2 -0.5 0  -0.15 -0.5 0  -0.1 -0.5 0  -0.04999999999999999 -0.5 0  0 -0.5 0  0.04999999999999999 -0.5 0  0.09999999999999998 -0.5 0  0.15 -0.5 0  0.2 -0.5 0  0.25 -0.5 0  -0.25 -0.45 0  -0.2 -0.45 0  -0.15 -0.45 0  -0.1 -0.45 0  -0.04999999999999999 -0.45 0  0 -0.45 0  0.04999999999999999 -0.45 0  0.09999999999999998 -0.45 0  0.15 -0.45 0  0.2 -0.45 0  0.25 -0.45 0  -0.25 -0.4 0  -0.2 -0.4 0  -0.15 -0.4 0  -0.1 -0.4 0  -0.04999999999999999 -0.4 0  0 -0.4 0  0.04999999999999999 -0.4 0  0.09999999999999998 -0.4 0  0.15 -0.4 0  0.2 -0.4 0  0.25 -0.4 0  -0.25 -0.35 0  -0.2 -0.35 0  -0.15 -0.35 0  -0.1 -0.35 0  -0.04999999999999999 -0.35 0  0 -0.35 0  0.04999999999999999 -0.35 0  0.09999999999999998 -0.35 0  0.15 -0.35 0  0.2 -0.35 0  0.25 -0.35 0  -0.25 -0.3 0  -0.2 -0.3 0  -0.15 -0.3 0  -0.1 -0.3 0  -0.04999999999999999 -0.3 0  0 -0.3 0  0.04999999999999999 -0.3 0  0.09999999999999998 -0.3 0  0.15 -0.3 0  0.2 -0.3 0  0.25 -0.3 0  -0.25 -0.25 0  -0.2 -0.25 0  -0.15 -0.25 0  -0.1 -0.25 0  -0.04999999999999999 -0.25 0  0 -0.25 0  0.04999999999999999 -0.25 0  0.09999999999999998 -0.25 0  0.15 -0.25 0  0.2 -0.25 0  0.25 -0.25 0  -0.25 -0.2 0  -0.2 -0.2 0  -0.15 -0.2 0  -0.1 -0.2 0  -0.04999999999999999 -0.2 0  0 -0.2 0  0.04999999999999999 -0.2 0  0.09999999999999998 -0.2 0  0.15 -0.2 0  0.2 -0.2 0  0.25 -0.2 0  -0.25 -0.15 0  -0.2 -0.15 0  -0.15 -0.15 0  -0.1 -0.15 0  -0.04999999999999999 -0.15 0  0 -0.15 0  0.04999999999999999 -0.15 0  0.09999999999999998 -0.15 0  0.15 -0.15 0  0.2 -0.15 0  0.25 -0.15 0  -0.25 -0.09999999999999998 0  -0.2 -0.09999999999999998 0  -0.15 -0.09999999999999998 0  -0.1 -0.09999999999999998 0  -0.04999999999999999 -0.09999999999999998 0  0 -0.09999999999999998 0  0.04999999999999999 -0.09999999999999998 0  0.09999999999999998 -0.09999999999999998 0  0.15 -0.09999999999999998 0  0.2 -0.09999999999999998 0  0.25 -0.09999999999999998 0  -0.25 -0.05000000000000004 0  -0.2 -0.05000000000000004 0  -0.15 -0.05000000000000004 0  -0.1 -0.05000000000000004 0  -0.04999999999999999 -0.05000000000000004 0  0 -0.05000000000000004 0  0.04999999999999999 -0.05000000000000004 0  0.09999999999999998 -0.05000000000000004 0  0.15 -0.05000000000000004 0  0.2 -0.05000000000000004 0  0.25 -0.05000000000000004 0  -0.25 0 0  -0.2 0 0  -0.15 0 0  -0.1 0 0  -0.04999999999999999 0 0  0 0 0  0.04999999999999999 0 0  0.09999999999999998 0 0  0.15 0 0  0.2 0 0  0.25 0 0  -0.225 -0.975 0  -0.175 -0.975 0  -0.125 -0.975 0  -0.07500000000000001 -0.975 0  -0.02499999999999999 -0.975 0  0.02500000000000002 -0.975 0  0.07500000000000001 -0.975 0  0.125 -0.975 0  0.175 -0.975 0  0.225 -0.975 0  -0.225 -0.925 0  -0.175 -0.925 0  -0.125 -0.925 0  -0.07500000000000001 -0.925 0  -0.02499999999999999 -0.925 0  0.02500000000000002 -0.925 0  0.07500000000000001 -0.925 0  0.125 -0.925 0  0.175 -0.925 0  0.225 -0.925 0  -0.225 -0.875 0  -0.175 -0.875 0  -0.125 -0.875 0  -0.07500000000000001 -0.875 0  -0.02499999999999999 -0.875 0  0.02500000000000002 -0.875 0  0.07500000000000001 -0.875 0  0.125 -0.875 0  0.175 -0.875 0  0.225 -0.875 0  -0.225 -0.825 0  -0.175 -0.825 0  -0.125 -0.825 0  -0.07500000000000001 -0.825 0  -0.02499999999999999 -0.825 0  0.02500000000000002 -0.825 0  0.07500000000000001 -0.825 0  0.125 -0.825 0  0.175 -0.825 0  0.225 -0.825 0  -0.225 -0.775 0  -0.175 -0.775 0  -0.125 -0.775 0  -0.07500000000000001 -0.775 0  -0.02499999999999999 -0.775 0  0.02500000000000002 -0.775 0  0.07500000000000001 -0.775 0  0.125 -0.775 0  0.175 -0.775 0  0.225 -0.775 0  -0.225 -0.725 0  -0.175 -0.725 0  -0.125 -0.725 0  -0.07500000000000001 -0.725 0  -0.02499999999999999 -0.725 0  0.02500000000000002 -0.725 0  0.07500000000000001 -0.725 0  0.125 -0.725 0  0.175 -0.725 0  0.225 -0.725 0  -0.225 -0.675 0  -0.175 -0.675 0  -0.125 -0.675 0  -0.07500000000000001 -0.675 0  -0.02499999999999999 -0.675 0  0.02500000000000002 -0.675 0  0.07500000000000001 -0.675 0  0.125 -0.675 0  0.175 -0.675 0  0.225 -0.675 0  -0.225 -0.625 0  -0.175 -0.625 0  -0.125 -0.625 0  -0.07500000000000001 -0.625 0  -0.02499999999999999 -0.625 0  0.02500000000000002 -0.625 0  0.07500000000000001 -0.625 0  0.125 -0.625 0  0.175 -0.625 0  0.225 -0.625 0  -0.225 -0.575 0  -0.175 -0.575 0  -0.125 -0.575 0  -0.07500000000000001 -0.575 0  -0.02499999999999999 -0.575 0  0.02500000000000002 -0.575 0  0.07500000000000001 -0.575 0  0.125 -0.575 0  0.175 -0.575 0  0.225 -0.575 0  -0.225 -0.525 0  -0.175 -0.525 0  -0.125 -0.525 0  -0.07500000000000001 -0.525 0  -0.02499999999999999 -0.525 0  0.02500000000000002 -0.525 0  0.07500000000000001 -0.525 0  0.125 -0.525 0  0.175 -0.525 0  0.225 -0.525 0  -0.225 -0.475 0  -0.175 -0.475 0  -0.125 -0.475 0  -0.07500000000000001 -0.475 0  -0.02499999999999999 -0.475 0  0.02500000000000002 -0.475 0  0.07500000000000001 -0.475 0  0.125 -0.475 0  0.175 -0.475 0  0.225 -0.475 0  -0.225 -0.425 0  -0.175 -0.425 0  -0.125 -0.425 0  -0.07500000000000001 -0.425 0  -0.02499999999999999 -0.425 0  0.02500000000000002 -0.425 0  0.07500000000000001 -0.425 0  0.125 -0.425 0  0.175 -0.425 0  0.225 -0.425 0  -0.225 -0.375 0  -0.175 -0.375 0  -0.125 -0.375 0  -0.07500000000000001 -0.375 0  -0.02499999999999999 -0.375 0  0.02500000000000002 -0.375 0  0.07500000000000001 -0.375 0  0.125 -0.375 0  0.175 -0.375 0  0.225 -0.375 0  -0.225 -0.325 0  -0.175 -0.325 0  -0.125 -0.325 0  -0.07500000000000001 -0.325 0  -0.02499999999999999 -0.325 0  0.02500000000000002 -0.325 0  0.07500000000000001 -0.325 0  0.125 -0.325 0  0.175 -0.325 0  0.225 -0.325 0  -0.225 -0.275 0  -0.175 -0.275 0  -0.125 -0.275 0  -0.07500000000000001 -0.275 0  -0.02499999999999999 -0.275 0  0.02500000000000002 -0.275 0  0.07500000000000001 -0.275 0  0.125 -0.275 0  0.175 -0.275 0  0.225 -0.275 0  -0.225 -0.225 0  -0.175 -0.225 0  -0.125 -0.225 0  -0.07500000000000001 -0.225 0  -0.02499999999999999 -0.225 0  0.02500000000000002 -0.225 0  0.07500000000000001 -0.225 0  0.125 -0.225 0  0.175 -0.225 0  0.225 -0.225 0  -0.225 -0.175 0  -0.175 -0.175 0  -0.125 -0.175 0  -0.07500000000000001 -0.175 0  -0.02499999999999999 -0.175 0  0.02500000000000002 -0.175 0  0.07500000000000001 -0.175 0  0.125 -0.175 0  0.175 -0.175 0  0.225 -0.175 0  -0.225 -0.125 0  -0.175 -0.125 0  -0.125 -0.125 0  -0.07500000000000001 -0.125 0  -0.02499999999999999 -0.125 0  0.02500000000000002 -0.125 0  0.07500000000000001 -0.125 0  0.125 -0.125 0  0.175 -0.125 0  0.225 -0.125 0  -0.225 -0.07499999999999996 0  -0.175 -0.07499999999999996 0  -0.125 -0.07499999999999996 0  -0.07500000000000001 -0.07499999999999996 0  -0.02499999999999999 -0.07499999999999996 0  0.02500000000000002 -0.07499999999999996 0  0.07500000000000001 -0.07499999999999996 0  0.125 -0.07499999999999996 0  0.175 -0.07499999999999996 0  0.225 -0.07499999999999996 0  -0.225 -0.02500000000000002 0  -0.175 -0.02500000000000002 0  -0.125 -0.02500000000000002 0  -0.07500000000000001 -0.02500000000000002 0  -0.02499999999999999 -0.02500000000000002 0  0.02500000000000002 -0.02500000000000002 0  0.07500000000000001 -0.02500000000000002 0  0.125 -0.02500000000000002 0  0.175 -0.02500000000000002 0  0.225 -0.02500000000000002 0  </DataArray>
</Points>
<Cells>
[...]
<PointData  Scalars="mean stress"> 
<DataArray  type="Float64"  Name="mean stress"  format="ascii">4.9576473242400400e+07  4.9576473242269143e+07  4.9576473242253989e+07  4.9576473242252551e+07  4.9576473242252588e+07  4.9576473242252626e+07  4.9576473242252603e+07  4.9576473242252409e+07  4.9576473242253892e+07  4.9576473242268980e+07  4.9576473242400274e+07  4.9577778834624320e+07  4.9577778833934620e+07  4.9577778833901018e+07  4.9577778833902091e+07  4.9577778833901972e+07  4.9577778833901852e+07  4.9577778833901837e+07  4.9577778833901942e+07  4.9577778833900906e+07  4.9577778833934523e+07  4.9577778834624268e+07  4.9581687562553808e+07  4.9581687559469916e+07  4.9581687559443198e+07  4.9581687559442766e+07  4.9581687559442878e+07  4.9581687559442893e+07  4.9581687559442788e+07  4.9581687559442781e+07  4.9581687559443153e+07  4.9581687559469722e+07  4.9581687562553629e+07  4.9588175327246897e+07  4.9588175320309326e+07  4.9588175320283093e+07  4.9588175320283122e+07  4.9588175320282966e+07  4.9588175320282876e+07  4.9588175320282958e+07  4.9588175320282906e+07  4.9588175320282757e+07  4.9588175320308939e+07  4.9588175327246681e+07  4.9597202129452065e+07  4.9597202117242865e+07  4.9597202117219247e+07  4.9597202117219158e+07  4.9597202117219187e+07  4.9597202117218927e+07  4.9597202117218964e+07  4.9597202117219076e+07  4.9597202117218979e+07  4.9597202117242701e+07  4.9597202129451931e+07  4.9608712315824725e+07  4.9608712297067367e+07  4.9608712297046080e+07  4.9608712297046423e+07  4.9608712297046155e+07  4.9608712297046557e+07  4.9608712297046192e+07  4.9608712297046207e+07  4.9608712297045968e+07  4.9608712297067024e+07  4.9608712315824479e+07  4.9622634922116429e+07  4.9622634895696364e+07  4.9622634895678930e+07  4.9622634895678848e+07  4.9622634895678759e+07  4.9622634895678535e+07  4.9622634895678796e+07  4.9622634895678632e+07  4.9622634895678692e+07  4.9622634895696290e+07  4.9622634922116473e+07  4.9638884110686488e+07  4.9638884075679734e+07  4.9638884075665846e+07  4.9638884075665645e+07  4.9638884075665817e+07  4.9638884075665951e+07  4.9638884075665548e+07  4.9638884075665839e+07  4.9638884075665846e+07  4.9638884075679988e+07  4.9638884110686496e+07  4.9657359699723236e+07  4.9657359655420117e+07  4.9657359655410066e+07  4.9657359655409925e+07  4.9657359655409984e+07  4.9657359655409396e+07  4.9657359655409783e+07  4.9657359655409619e+07  4.9657359655409724e+07  4.9657359655419923e+07  4.9657359699723050e+07  4.9677947780902736e+07  4.9677947726823755e+07  4.9677947726817109e+07  4.9677947726816833e+07  4.9677947726816989e+07  4.9677947726817414e+07  4.9677947726817243e+07  4.9677947726817280e+07  4.9677947726817563e+07  4.9677947726823501e+07  4.9677947780903064e+07  4.9700521421676733e+07  4.9700521357584439e+07  4.9700521357582472e+07  4.9700521357582994e+07  4.9700521357582197e+07  4.9700521357582577e+07  4.9700521357582845e+07  4.9700521357582986e+07  4.9700521357582353e+07  4.9700521357584670e+07  4.9700521421676457e+07  4.9724941447855830e+07  4.9724941373762362e+07  4.9724941373765424e+07  4.9724941373764873e+07  4.9724941373765633e+07  4.9724941373765558e+07  4.9724941373765342e+07  4.9724941373765528e+07  4.9724941373765707e+07  4.9724941373762488e+07  4.9724941447855011e+07  4.9751057301671810e+07  4.9751057217838436e+07  4.9751057217845105e+07  4.9751057217844799e+07  4.9751057217844956e+07  4.9751057217844360e+07  4.9751057217844732e+07  4.9751057217844523e+07  4.9751057217845112e+07  4.9751057217838325e+07  4.9751057301672988e+07  4.9778707970022038e+07  4.9778707876947977e+07  4.9778707876958169e+07  4.9778707876958817e+07  4.9778707876958631e+07  4.9778707876957938e+07  4.9778707876958318e+07  4.9778707876957893e+07  4.9778707876958348e+07  4.9778707876948558e+07  4.9778707970022544e+07  4.9807722977169089e+07  4.9807722875583440e+07  4.9807722875597030e+07  4.9807722875596620e+07  4.9807722875596821e+07  4.9807722875597060e+07  4.9807722875597134e+07  4.9807722875597298e+07  4.9807722875596561e+07  4.9807722875583127e+07  4.9807722977168910e+07  4.9837923435788907e+07  4.9837923326629326e+07  4.9837923326647297e+07  4.9837923326646425e+07  4.9837923326647080e+07  4.9837923326646641e+07  4.9837923326646805e+07  4.9837923326646671e+07  4.9837923326647133e+07  4.9837923326630183e+07  4.9837923435789317e+07  4.9869123149871767e+07  4.9869123034263328e+07  4.9869123034284011e+07  4.9869123034283578e+07  4.9869123034283236e+07  4.9869123034283623e+07  4.9869123034283750e+07  4.9869123034283847e+07  4.9869123034283996e+07  4.9869123034262784e+07  4.9869123149871372e+07  4.9901129762685172e+07  4.9901129641913146e+07  4.9901129641934298e+07  4.9901129641934410e+07  4.9901129641934335e+07  4.9901129641934901e+07  4.9901129641933516e+07  4.9901129641933896e+07  4.9901129641934447e+07  4.9901129641913094e+07  4.9901129762686774e+07  4.9933745942725658e+07  4.9933745818198159e+07  4.9933745818221875e+07  4.9933745818222515e+07  4.9933745818222538e+07  4.9933745818220966e+07  4.9933745818221204e+07  4.9933745818222113e+07  4.9933745818220861e+07  4.9933745818198808e+07  4.9933745942725964e+07  4.9966770600330688e+07  4.9966770473546870e+07  4.9966770473569818e+07  4.9966770473571017e+07  4.9966770473570533e+07  4.9966770473571122e+07  4.9966770473570816e+07  4.9966770473569855e+07  4.9966770473570339e+07  4.9966770473546736e+07  4.9966770600329973e+07  4.9991993006298013e+07  4.9991992878790155e+07  4.9991992878811345e+07  4.9991992878811747e+07  4.9991992878810927e+07  4.9991992878813252e+07  4.9991992878813416e+07  4.9991992878812693e+07  4.9991992878813453e+07  4.9991992878790088e+07  4.9991993006298259e+07  4.9576497806503259e+07  4.9576497806577355e+07  4.9576497806589395e+07  4.9576497806589521e+07  4.9576497806589469e+07  4.9576497806589469e+07  4.9576497806589462e+07  4.9576497806589365e+07  4.9576497806577288e+07  4.9576497806503050e+07  4.9579108838099867e+07  4.9579108838426195e+07  4.9579108838440940e+07  4.9579108838440686e+07  4.9579108838440754e+07  4.9579108838440627e+07  4.9579108838440627e+07  4.9579108838440858e+07  4.9579108838425860e+07  4.9579108838099547e+07  4.9584314803409189e+07  4.9584314804250136e+07  4.9584314804263629e+07  4.9584314804263562e+07  4.9584314804263279e+07  4.9584314804263346e+07  4.9584314804263242e+07  4.9584314804263122e+07  4.9584314804249980e+07  4.9584314803409234e+07  4.9592083605932690e+07  4.9592083607534781e+07  4.9592083607547030e+07  4.9592083607547328e+07  4.9592083607547298e+07  4.9592083607547127e+07  4.9592083607547238e+07  4.9592083607547104e+07  4.9592083607534543e+07  4.9592083605932526e+07  4.9602367348439477e+07  4.9602367351025298e+07  4.9602367351036213e+07  4.9602367351036027e+07  4.9602367351036184e+07  4.9602367351036288e+07  4.9602367351036325e+07  4.9602367351036392e+07  4.9602367351025127e+07  4.9602367348439097e+07  4.9615102628253900e+07  4.9615102632023036e+07  4.9615102632032618e+07  4.9615102632032402e+07  4.9615102632032409e+07  4.9615102632032596e+07  4.9615102632032394e+07  4.9615102632032365e+07  4.9615102632022746e+07  4.9615102628253654e+07  4.9630210928163961e+07  4.9630210933286138e+07  4.9630210933294155e+07  4.9630210933293983e+07  4.9630210933293782e+07  4.9630210933293588e+07  4.9630210933293715e+07  4.9630210933294028e+07  4.9630210933286048e+07  4.9630210928163618e+07  4.9647599100501306e+07  4.9647599107112192e+07  4.9647599107117914e+07  4.9647599107117943e+07  4.9647599107118145e+07  4.9647599107118018e+07  4.9647599107118115e+07  4.9647599107118309e+07  4.9647599107112072e+07  4.9647599100501001e+07  4.9667159941429496e+07  4.9667159949628949e+07  4.9667159949633367e+07  4.9667159949633695e+07  4.9667159949633151e+07  4.9667159949633047e+07  4.9667159949633136e+07  4.9667159949632995e+07  4.9667159949629411e+07  4.9667159941430040e+07  4.9688772851889692e+07  4.9688772861737035e+07  4.9688772861739121e+07  4.9688772861738995e+07  4.9688772861738883e+07  4.9688772861739114e+07  4.9688772861739002e+07  4.9688772861738525e+07  4.9688772861735620e+07  4.9688772851888858e+07  4.9712304581131451e+07  4.9712304592644207e+07  4.9712304592644468e+07  4.9712304592644781e+07  4.9712304592644781e+07  4.9712304592644528e+07  4.9712304592644230e+07  4.9712304592644520e+07  4.9712304592645571e+07  4.9712304581132062e+07  4.9737610048252344e+07  4.9737610061409675e+07  4.9737610061406389e+07  4.9737610061405756e+07  4.9737610061406091e+07  4.9737610061406150e+07  4.9737610061406977e+07  4.9737610061407618e+07  4.9737610061409436e+07  4.9737610048252665e+07  4.9764533236658022e+07  4.9764533251395695e+07  4.9764533251392640e+07  4.9764533251393139e+07  4.9764533251393348e+07  4.9764533251393452e+07  4.9764533251392312e+07  4.9764533251392685e+07  4.9764533251397662e+07  4.9764533236658603e+07  4.9792908155975550e+07  4.9792908172191940e+07  4.9792908172185808e+07  4.9792908172186516e+07  4.9792908172185555e+07  4.9792908172184899e+07  4.9792908172186010e+07  4.9792908172185093e+07  4.9792908172190167e+07  4.9792908155975267e+07  4.9822559865413234e+07  4.9822559882968150e+07  4.9822559882960208e+07  4.9822559882959589e+07  4.9822559882960260e+07  4.9822559882960767e+07  4.9822559882960156e+07  4.9822559882960431e+07  4.9822559882968992e+07  4.9822559865413405e+07  4.9853305552347675e+07  4.9853305571071938e+07  4.9853305571061634e+07  4.9853305571061291e+07  4.9853305571062617e+07  4.9853305571062364e+07  4.9853305571061730e+07  4.9853305571060985e+07  4.9853305571070716e+07  4.9853305552348614e+07  4.9884955659421019e+07  4.9884955679109164e+07  4.9884955679101355e+07  4.9884955679101057e+07  4.9884955679098830e+07  4.9884955679098852e+07  4.9884955679099031e+07  4.9884955679099970e+07  4.9884955679109529e+07  4.9884955659420162e+07  4.9917315053210288e+07  4.9917315073643580e+07  4.9917315073629670e+07  4.9917315073629826e+07  4.9917315073631920e+07  4.9917315073632389e+07  4.9917315073633149e+07  4.9917315073632233e+07  4.9917315073642321e+07  4.9917315053208992e+07  4.9950184227308288e+07  4.9950184248242110e+07  4.9950184248231448e+07  4.9950184248231083e+07  4.9950184248228937e+07  4.9950184248228125e+07  4.9950184248228602e+07  4.9950184248228870e+07  4.9950184248242050e+07  4.9950184227309495e+07  4.9987364092923440e+07  4.9987364114107497e+07  4.9987364114095926e+07  4.9987364114096887e+07  4.9987364114097729e+07  4.9987364114097700e+07  4.9987364114096679e+07  4.9987364114097133e+07  4.9987364114108860e+07  4.9987364092923380e+07  </DataArray> 
</PointData> 
</Piece>
</UnstructuredGrid>
</VTKFile>