<?xml version="1.0"?>
<VTKFile type="UnstructuredGrid"  version="0.1"  >
<UnstructuredGrid>
<Piece  NumberOfPoints="431" NumberOfCells="800">
<Points>
<DataArray  type="Float64"  NumberOfComponents="3"  format="ascii">-0.25 -1 0  -0.2 -1 0  -0.15 -1 0  -0.1 -1 0  -0.04999999999999999 -1 0  0 -1 0  0.04999999999999999 -1 0  0.09999999999999998 -1 0  0.15 -1 0  0.2 -1 0  0.25 -1 0  -0.25 -0.95 0  -0.2 -0.95 0  -0.15 -0.95 0  -0.1 -0.95 0  -0.04999999999999999 -0.95 0  0 -0.95 0  0.04999999999999999 -0.95 0  0.09999999999999998 -0.95 0  0.15 -0.95 0  0.2 -0.95 0  0.25 -0.95 0  -0.25 -0.9 0  -0.2 -0.9 0  -0.15 -0.9 0  -0.1 -0.9 0  -0.04999999999999999 -0.9 0  0 -0.9 0  0.04999999999999999 -0.9 0  0.09999999999999998 -0.9 0  0.15 -0.9 0  0.2 -0.9 0  0.25 -0.9 0  -0.25 -0.85 0  -0.2 -0.85 0  -0.15 -0.85 0  -0.1 -0.85 0  -0.04999999999999999 -0.85 0  0 -0.85 0  0.04999999999999999 -0.85 0  0.09999999999999998 -0.85 0  0.15 -0.85 0  0.2 -0.85 0  0.25 -0.85 0  -0.25 -0.8 0  -0.2 -0.8 0  -0.15 -0.8 0  -0.1 -0.8 0  -0.04999999999999999 -0.8 0  0 -0.8 0  0.04999999999999999 -0.8 0  0.09999999999999998 -0.8 0  0.15 -0.8 0  0.2 -0.8 0  0.25 -0.8 0  -0.25 -0.75 0  -0.2 -0.75 0  -0.15 -0.75 0  -0.1 -0.75 0  -0.04999999999999999 -0.75 0  0 -0.75 0  0.04999999999999999 -0.75 0  0.09999999999999998 -0.75 0  0.15 -0.75 0  0.2 -0.75 0  0.25 -0.75 0  -0.25 -0.7 0  -0.2 -0.7 0  -0.15 -0.7 0  -0.1 -0.7 0  -0.04999999999999999 -0.7 0  0 -0.7 0  0.04999999999999999 -0.7 0  0.09999999999999998 -0.7 0  0.15 -0.7 0  0.2 -0.7 0  0.25 -0.7 0  -0.25 -0.65 0  -0.2 -0.65 0  -0.15 -0.65 0  -0.1 -0.65 0  -0.04999999999999999 -0.65 0  0 -0.65 0  0.04999999999999999 -0.65 0  0.09999999999999998 -0.65 0  0.15 -0.65 0  0.2 -0.65 0  0.25 -0.65 0  -0.25 -0.6 0  -0.2 -0.6 0  -0.15 -0.6 0  -0.1 -0.6 0  -0.04999999999999999 -0.6 0  0 -0.6 0  0.04999999999999999 -0.6 0  0.09999999999999998 -0.6 0  0.15 -0.6 0  0.2 -0.6 0  0.25 -0.6 0  -0.25 -0.55 0  -0.2 -0.55 0  -0.15 -0.55 0  -0.1 -0.55 0  -0.04999999999999999 -0.55 0  0 -0.55 0  0.04999999999999999 -0.55 0  0.09999999999999998 -0.55 0  0.15 -0.55 0  0.2 -0.55 0  0.25 -0.55 0  -0.25 -0.5 0  -0.2 -0.5 0  -0.15 -0.5 0  -0.1 -0.5 0  -0.04999999999999999 -0.5 0  0 -0.5 0  0.04999999999999999 -0.5 0  0.09999999999999998 -0.5 0  0.15 -0.5 0  0.2 -0.5 0  0.25 -0.5 0  -0.25 -0.45 0  -0.2 -0.45 0  -0.15 -0.45 0  -0.1 -0.45 0  -0.04999999999999999 -0.45 0  0 -0.45 0  0.04999999999999999 -0.45 0  0.09999999999999998 -0.45 0  0.15 -0.45 0  0.2 -0.45 0  0.25 -0.45 0  -0.25 -0.4 0  -0.2 -0.4 0  -0.15 -0.4 0  -0.1 -0.4 0  -0.04999999999999999 -0.4 0  0 -0.4 0  0.04999999999999999 -0.4 0  0.09999999999999998 -0.4 0  0.15 -0.4 0  0.2 -0.4 0  0.25 -0.4 0  -0.25 -0.35 0  -0.2 -0.35 0  -0.15 -0.35 0  -0.1 -0.35 0  -0.04999999999999999 -0.35 0  0 -0.35 0  0.04999999999999999 -0.35 0  0.09999999999999998 -0.35 0  0.15 -0.35 0  0.2 -0.35 0  0.25 -0.35 0  -0.25 -0.3 0  -0.2 -0.3 0  -0.15 -0.3 0  -0.1 -0.3 0  -0.04999999999999999 -0.3 0  0 -0.3 0  0.04999999999999999 -0.3 0  0.09999999999999998 -0.3 0  0.15 -0.3 0  0.2 -0.3 0  0.25 -0.3 0  -0.25 -0.25 0  -0.2 -0.25 0  -0.15 -0.25 0  -0.1 -0.25 0  -0.04999999999999999 -0.25 0  0 -0.25 0  0.04999999999999999 -0.25 0  0.09999999999999998 -0.25 0  0.15 -0.25 0  0.2 -0.25 0  0.25 -0.25 0  -0.25 -0.2 0  -0.2 -0.2 0  -0.15 -0.2 0  -0.1 -0.2 0  -0.04999999999999999 -0.2 0  0 -0.2 0  0.04999999999999999 -0.2 0  0.09999999999999998 -0.2 0  0.15 -0.2 0  0.2 -0.2 0  0.25 -0.2 0  -0.25 -0.15 0  -0.2 -0.15 0  -0.15 -0.15 0  -0.1 -0.15 0  -0.04999999999999999 -0.15 0  0 -0.15 0  0.04999999999999999 -0.15 0  0.09999999999999998 -0.15 0  0.15 -0.15 0  0.2 -0.15 0  0.25 -0.15 0  -0.25 -0.09999999999999998 0  -0.2 -0.09999999999999998 0  -0.15 -0.09999999999999998 0  -0.1 -0.09999999999999998 0  -0.04999999999999999 -0.09999999999999998 0  0 -0.09999999999999998 0  0.04999999999999999 -0.09999999999999998 0  0.09999999999999998 -0.09999999999999998 0  0.15 -0.09999999999999998 0  0.2 -0.09999999999999998 0  0.25 -0.09999999999999998 0  -0.25 -0.05000000000000004 0  -0.2 -0.05000000000000004 0  -0.15 -0.05000000000000004 0  -0.1 -0.05000000000000004 0  -0.04999999999999999 -0.05000000000000004 0  0 -0.05000000000000004 0  0.04999999999999999 -0.05000000000000004 0  0.09999999999999998 -0.05000000000000004 0  0.15 -0.05000000000000004 0  0.2 -0.05000000000000004 0  0.25 -0.05000000000000004 0  -0.25 0 0  -0.2 0 0  -0.15 0 0  -0.1 0 0  -0.04999999999999999 0 0  0 0 0  0.04999999999999999 0 0  0.09999999999999998 0 0  0.15 0 0  0.2 0 0  0.25 0 0  -0.225 -0.975 0  -0.175 -0.975 0  -0.125 -0.975 0  -0.07500000000000001 -0.975 0  -0.02499999999999999 -0.975 0  0.02500000000000002 -0.975 0  0.07500000000000001 -0.975 0  0.125 -0.975 0  0.175 -0.975 0  0.225 -0.975 0  -0.225 -0.925 0  -0.175 -0.925 0  -0.125 -0.925 0  -0.07500000000000001 -0.925 0  -0.02499999999999999 -0.925 0  0.02500000000000002 -0.925 0  0.07500000000000001 -0.925 0  0.125 -0.925 0  0.175 -0.925 0  0.225 -0.925 0  -0.225 -0.875 0  -0.175 -0.875 0  -0.125 -0.875 0  -0.07500000000000001 -0.875 0  -0.02499999999999999 -0.875 0  0.02500000000000002 -0.875 0  0.07500000000000001 -0.875 0  0.125 -0.875 0  0.175 -0.875 0  0.225 -0.875 0  -0.225 -0.825 0  -0.175 -0.825 0  -0.125 -0.825 0  -0.07500000000000001 -0.825 0  -0.02499999999999999 -0.825 0  0.02500000000000002 -0.825 0  0.07500000000000001 -0.825 0  0.125 -0.825 0  0.175 -0.825 0  0.225 -0.825 0  -0.225 -0.775 0  -0.175 -0.775 0  -0.125 -0.775 0  -0.07500000000000001 -0.775 0  -0.02499999999999999 -0.775 0  0.02500000000000002 -0.775 0  0.07500000000000001 -0.775 0  0.125 -0.775 0  0.175 -0.775 0  0.225 -0.775 0  -0.225 -0.725 0  -0.175 -0.725 0  -0.125 -0.725 0  -0.07500000000000001 -0.725 0  -0.02499999999999999 -0.725 0  0.02500000000000002 -0.725 0  0.07500000000000001 -0.725 0  0.125 -0.725 0  0.175 -0.725 0  0.225 -0.725 0  -0.225 -0.675 0  -0.175 -0.675 0  -0.125 -0.675 0  -0.07500000000000001 -0.675 0  -0.02499999999999999 -0.675 0  0.02500000000000002 -0.675 0  0.07500000000000001 -0.675 0  0.125 -0.675 0  0.175 -0.675 0  0.225 -0.675 0  -0.225 -0.625 0  -0.175 -0.625 0  -0.125 -0.625 0  -0.07500000000000001 -0.625 0  -0.02499999999999999 -0.625 0  0.02500000000000002 -0.625 0  0.07500000000000001 -0.625 0  0.125 -0.625 0  0.175 -0.625 0  0.225 -0.625 0  -0.225 -0.575 0  -0.175 -0.575 0  -0.125 -0.575 0  -0.07500000000000001 -0.575 0  -0.02499999999999999 -0.575 0  0.02500000000000002 -0.575 0  0.07500000000000001 -0.575 0  0.125 -0.575 0  0.175 -0.575 0  0.225 -0.575 0  -0.225 -0.525 0  -0.175 -0.525 0  -0.125 -0.525 0  -0.07500000000000001 -0.525 0  -0.02499999999999999 -0.525 0  0.02500000000000002 -0.525 0  0.07500000000000001 -0.525 0  0.125 -0.525 0  0.175 -0.525 0  0.225 -0.525 0  -0.225 -0.475 0  -0.175 -0.475 0  -0.125 -0.475 0  -0.07500000000000001 -0.475 0  -0.02499999999999999 -0.475 0  0.02500000000000002 -0.475 0  0.07500000000000001 -0.475 0  0.125 -0.475 0  0.175 -0.475 0  0.225 -0.475 0  -0.225 -0.425 0  -0.175 -0.425 0  -0.125 -0.425 0  -0.07500000000000001 -0.425 0  -0.02499999999999999 -0.425 0  0.02500000000000002 -0.425 0  0.07500000000000001 -0.425 0  0.125 -0.425 0  0.175 -0.425 0  0.225 -0.425 0  -0.225 -0.375 0  -0.175 -0.375 0  -0.125 -0.375 0  -0.07500000000000001 -0.375 0  -0.02499999999999999 -0.375 0  0.02500000000000002 -0.375 0  0.07500000000000001 -0.375 0  0.125 -0.375 0  0.175 -0.375 0  0.225 -0.375 0  -0.225 -0.325 0  -0.175 -0.325 0  -0.125 -0.325 0  -0.07500000000000001 -0.325 0  -0.02499999999999999 -0.325 0  0.02500000000000002 -0.325 0  0.07500000000000001 -0.325 0  0.125 -0.325 0  0.175 -0.325 0  0.225 -0.325 0  -0.225 -0.275 0  -0.175 -0.275 0  -0.125 -0.275 0  -0.07500000000000001 -0.275 0  -0.02499999999999999 -0.275 0  0.02500000000000002 -0.275 0  0.07500000000000001 -0.275 0  0.125 -0.275 0  0.175 -0.275 0  0.225 -0.275 0  -0.225 -0.225 0  -0.175 -0.225 0  -0.125 -0.225 0  -0.07500000000000001 -0.225 0  -0.02499999999999999 -0.225 0  0.02500000000000002 -0.225 0  0.07500000000000001 -0.225 0  0.125 -0.225 0  0.175 -0.225 0  0.225 -0.225 0  -0.225 -0.175 0  -0.175 -0.175 0  -0.125 -0.175 0  -0.07500000000000001 -0.175 0  -0.02499999999999999 -0.175 0  0.02500000000000002 -0.175 0  0.07500000000000001 -0.175 0  0.125 -0.175 0  0.175 -0.175 0  0.225 -0.175 0  -0.225 -0.125 0  -0.175 -0.125 0  -0.125 -0.125 0  -0.07500000000000001 -0.125 0  -0.02499999999999999 -0.125 0  0.02500000000000002 -0.125 0  0.07500000000000001 -0.125 0  0.125 -0.125 0  0.175 -0.125 0  0.225 -0.125 0  -0.225 -0.07499999999999996 0  -0.175 -0.07499999999999996 0  -0.125 -0.07499999999999996 0  -0.07500000000000001 -0.07499999999999996 0  -0.02499999999999999 -0.07499999999999996 0  0.02500000000000002 -0.07499999999999996 0  0.07500000000000001 -0.07499999999999996 0  0.125 -0.07499999999999996 0  0.175 -0.07499999999999996 0  0.225 -0.07499999999999996 0  -0.225 -0.02500000000000002 0  -0.175 -0.02500000000000002 0  -0.125 -0.02500000000000002 0  -0.07500000000000001 -0.02500000000000002 0  -0.02499999999999999 -0.02500000000000002 0  0.02500000000000002 -0.02500000000000002 0  0.07500000000000001 -0.02500000000000002 0  0.125 -0.02500000000000002 0  0.175 -0.02500000000000002 0  0.225 -0.02500000000000002 0  </DataArray>
</Points>
<Cells>
[...]
<PointData  Scalars="pressure"> 
<DataArray  type="Float64"  Name="pressure"  format="ascii">5.7721286139578361e+05  5.7721286139577453e+05  5.7721286139577033e+05  5.7721286139579921e+05  5.7721286139578640e+05  5.7721286139575427e+05  5.7721286139570340e+05  5.7721286139572784e+05  5.7721286139568465e+05  5.7721286139565182e+05  5.7721286139563797e+05  5.7543350677912741e+05  5.7543350677911693e+05  5.7543350677912717e+05  5.7543350677916699e+05  5.7543350677913358e+05  5.7543350677909609e+05  5.7543350677903858e+05  5.7543350677907944e+05  5.7543350677905965e+05  5.7543350677902019e+05  5.7543350677898736e+05  5.7010641324213508e+05  5.7010641324210959e+05  5.7010641324216570e+05  5.7010641324217524e+05  5.7010641324212390e+05  5.7010641324211797e+05  5.7010641324202879e+05  5.7010641324207908e+05  5.7010641324209713e+05  5.7010641324204823e+05  5.7010641324203089e+05  5.6126442408789869e+05  5.6126442408790113e+05  5.6126442408792651e+05  5.6126442408788297e+05  5.6126442408788041e+05  5.6126442408788297e+05  5.6126442408783641e+05  5.6126442408788053e+05  5.6126442408786342e+05  5.6126442408779263e+05  5.6126442408782593e+05  5.4896205311990797e+05  5.4896205311978504e+05  5.4896205311985221e+05  5.4896205311982904e+05  5.4896205311979551e+05  5.4896205311982834e+05  5.4896205311987537e+05  5.4896205311982729e+05  5.4896205311977526e+05  5.4896205311974860e+05  5.4896205311976559e+05  5.3327514854590141e+05  5.3327514854589070e+05  5.3327514854588255e+05  5.3327514854590385e+05  5.3327514854586986e+05  5.3327514854590374e+05  5.3327514854589687e+05  5.3327514854587929e+05  5.3327514854575612e+05  5.3327514854582853e+05  5.3327514854597894e+05  5.1430042534919648e+05  5.1430042534918175e+05  5.1430042534929042e+05  5.1430042534919997e+05  5.1430042534917669e+05  5.1430042534923088e+05  5.1430042534923105e+05  5.1430042534918693e+05  5.1430042534909950e+05  5.1430042534910323e+05  5.1430042534914816e+05  4.9215486900803185e+05  4.9215486900804983e+05  4.9215486900797510e+05  4.9215486900794890e+05  4.9215486900790059e+05  4.9215486900800106e+05  4.9215486900794081e+05  4.9215486900791293e+05  4.9215486900779814e+05  4.9215486900780234e+05  4.9215486900781444e+05  4.6697501424125506e+05  4.6697501424129325e+05  4.6697501424117613e+05  4.6697501424116280e+05  4.6697501424111315e+05  4.6697501424113807e+05  4.6697501424117415e+05  4.6697501424108667e+05  4.6697501424102741e+05  4.6697501424096699e+05  4.6697501424096280e+05  4.3891610322663101e+05  4.3891610322658735e+05  4.3891610322674963e+05  4.3891610322666197e+05  4.3891610322650912e+05  4.3891610322643426e+05  4.3891610322658124e+05  4.3891610322648409e+05  4.3891610322649311e+05  4.3891610322644969e+05  4.3891610322636424e+05  4.0815112848127953e+05  4.0815112848136120e+05  4.0815112848137825e+05  4.0815112848126353e+05  4.0815112848121260e+05  4.0815112848115998e+05  4.0815112848117575e+05  4.0815112848118611e+05  4.0815112848115992e+05  4.0815112848104327e+05  4.0815112848106684e+05  3.7486976630486717e+05  3.7486976630484161e+05  3.7486976630489278e+05  3.7486976630483591e+05  3.7486976630485425e+05  3.7486976630476856e+05  3.7486976630474383e+05  3.7486976630472735e+05  3.7486976630456361e+05  3.7486976630461472e+05  3.7486976630467048e+05  3.3927720736224158e+05  3.3927720736224338e+05  3.3927720736218535e+05  3.3927720736223797e+05  3.3927720736212423e+05  3.3927720736208087e+05  3.3927720736193651e+05  3.3927720736208331e+05  3.3927720736211439e+05  3.3927720736217825e+05  3.3927720736210415e+05  3.0159289161520702e+05  3.0159289161510317e+05  3.0159289161487547e+05  3.0159289161492744e+05  3.0159289161490847e+05  3.0159289161466894e+05  3.0159289161466435e+05  3.0159289161487058e+05  3.0159289161501842e+05  3.0159289161484898e+05  3.0159289161494811e+05  2.6204915540133615e+05  2.6204915540128647e+05  2.6204915540132311e+05  2.6204915540108099e+05  2.6204915540120151e+05  2.6204915540116368e+05  2.6204915540108853e+05  2.6204915540111202e+05  2.6204915540113172e+05  2.6204915540100317e+05  2.6204915540103943e+05  2.2088979900452265e+05  2.2088979900449509e+05  2.2088979900440370e+05  2.2088979900437780e+05  2.2088979900441141e+05  2.2088979900438801e+05  2.2088979900445222e+05  2.2088979900419168e+05  2.2088979900406371e+05  2.2088979900398027e+05  2.2088979900394307e+05  1.7836858354383329e+05  1.7836858354365311e+05  1.7836858354347144e+05  1.7836858354316326e+05  1.7836858354314510e+05  1.7836858354333651e+05  1.7836858354344912e+05  1.7836858354316061e+05  1.7836858354297941e+05  1.7836858354280479e+05  1.7836858354282947e+05  1.3474766645145020e+05  1.3474766645129360e+05  1.3474766645113876e+05  1.3474766645112092e+05  1.3474766645091222e+05  1.3474766645105704e+05  1.3474766645094575e+05  1.3474766645095870e+05  1.3474766645072083e+05  1.3474766645072526e+05  1.3474766645058477e+05  9.0295985187106940e+04  9.0295985187125611e+04  9.0295985187098631e+04  9.0295985186934049e+04  9.0295985186675796e+04  9.0295985186594466e+04  9.0295985186786012e+04  9.0295985186834427e+04  9.0295985186752179e+04  9.0295985186628401e+04  9.0295985186782651e+04  4.5287599147662506e+04  4.5287599147782639e+04  4.5287599147670255e+04  4.5287599147496963e+04  4.5287599147407353e+04  4.5287599147391848e+04  4.5287599147538371e+04  4.5287599147652145e+04  4.5287599147582034e+04  4.5287599147464316e+04  4.5287599147453293e+04  2.1316282072802989e-12  -8.5421978479480275e-12  7.5502104568414504e-12  -1.2903963611928955e-11  9.0594198809412709e-12  9.0403874862334092e-14  -1.2656542480726781e-12  -1.8556584840163322e-12  3.5971225997855044e-12  -6.8791126641197167e-12  0.0000000000000000e+00  5.7661965855222987e+05  5.7661965855222649e+05  5.7661965855225304e+05  5.7661965855225187e+05  5.7661965855222766e+05  5.7661965855217993e+05  5.7661965855217224e+05  5.7661965855217015e+05  5.7661965855212742e+05  5.7661965855210123e+05  5.7306460661174147e+05  5.7306460661174636e+05  5.7306460661177931e+05  5.7306460661175963e+05  5.7306460661172692e+05  5.7306460661168036e+05  5.7306460661166639e+05  5.7306460661169142e+05  5.7306460661166883e+05  5.7306460661164287e+05  5.6597642080818606e+05  5.6597642080820177e+05  5.6597642080821365e+05  5.6597642080819013e+05  5.6597642080816696e+05  5.6597642080813611e+05  5.6597642080812808e+05  5.6597642080815474e+05  5.6597642080812028e+05  5.6597642080810037e+05  5.5539880216411606e+05  5.5539880216412118e+05  5.5539880216411734e+05  5.5539880216410942e+05  5.5539880216411396e+05  5.5539880216410570e+05  5.5539880216410931e+05  5.5539880216408963e+05  5.5539880216404772e+05  5.5539880216403864e+05  5.4139696521590324e+05  5.4139696521586680e+05  5.4139696521587868e+05  5.4139696521589032e+05  5.4139696521589847e+05  5.4139696521590592e+05  5.4139696521587076e+05  5.4139696521583560e+05  5.4139696521582431e+05  5.4139696521586168e+05  5.2405723594434955e+05  5.2405723594438029e+05  5.2405723594439606e+05  5.2405723594436486e+05  5.2405723594435735e+05  5.2405723594437266e+05  5.2405723594437278e+05  5.2405723594428692e+05  5.2405723594426416e+05  5.2405723594433925e+05  5.0348651954656321e+05  5.0348651954655821e+05  5.0348651954654272e+05  5.0348651954648050e+05  5.0348651954650390e+05  5.0348651954651956e+05  5.0348651954649622e+05  5.0348651954644133e+05  5.0348651954634895e+05  5.0348651954639226e+05  4.7981164132946392e+05  4.7981164132942498e+05  4.7981164132935531e+05  4.7981164132937859e+05  4.7981164132939407e+05  4.7981164132939436e+05  4.7981164132934780e+05  4.7981164132930076e+05  4.7981164132923109e+05  4.7981164132921537e+05  4.5317856478986004e+05  4.5317856478989904e+05  4.5317856478990690e+05  4.5317856478981365e+05  4.5317856478973624e+05  4.5317856478977494e+05  4.5317856478981377e+05  4.5317856478973589e+05  4.5317856478969724e+05  4.5317856478966336e+05  4.2375149170132697e+05  4.2375149170138012e+05  4.2375149170137261e+05  4.2375149170126382e+05  4.2375149170119420e+05  4.2375149170114723e+05  4.2375149170115503e+05  4.2375149170117045e+05  4.2375149170113966e+05  4.2375149170107854e+05  3.9171184975472803e+05  3.9171184975475376e+05  3.9171184975476156e+05  3.9171184975469165e+05  3.9171184975463740e+05  3.9171184975465277e+05  3.9171184975466068e+05  3.9171184975453623e+05  3.9171184975445108e+05  3.9171184975446924e+05  3.5725717399698670e+05  3.5725717399694555e+05  3.5725717399694602e+05  3.5725717399691453e+05  3.5725717399689922e+05  3.5725717399679072e+05  3.5725717399679043e+05  3.5725717399680585e+05  3.5725717399682169e+05  3.5725717399683152e+05  3.2059988896145078e+05  3.2059988896131114e+05  3.2059988896126457e+05  3.2059988896131131e+05  3.2059988896114047e+05  3.2059988896109379e+05  3.2059988896110945e+05  3.2059988896124915e+05  3.2059988896129566e+05  3.2059988896127464e+05  2.8196599900014210e+05  2.8196599900011212e+05  2.8196599899997271e+05  2.8196599899992609e+05  2.8196599899983290e+05  2.8196599899972428e+05  2.8196599899981747e+05  2.8196599899992597e+05  2.8196599899987964e+05  2.8196599899986276e+05  2.4159369489187020e+05  2.4159369489176996e+05  2.4159369489166132e+05  2.4159369489172357e+05  2.4159369489175463e+05  2.4159369489175454e+05  2.4159369489164581e+05  2.4159369489156801e+05  2.4159369489149068e+05  2.4159369489144586e+05  1.9973188531669189e+05  1.9973188531662108e+05  1.9973188531649698e+05  1.9973188531641939e+05  1.9973188531649704e+05  1.9973188531657460e+05  1.9973188531645035e+05  1.9973188531623303e+05  1.9973188531603132e+05  1.9973188531598810e+05  1.5663866225099930e+05  1.5663866225086545e+05  1.5663866225066371e+05  1.5663866225041531e+05  1.5663866225057066e+05  1.5663866225060177e+05  1.5663866225057066e+05  1.5663866225035320e+05  1.5663866225018256e+05  1.5663866225012994e+05  1.1257970974449991e+05  1.1257970974436410e+05  1.1257970974430196e+05  1.1257970974416228e+05  1.1257970974402264e+05  1.1257970974405372e+05  1.1257970974406919e+05  1.1257970974405359e+05  1.1257970974392942e+05  1.1257970974394103e+05  6.7826665890705888e+04  6.7826665890832111e+04  6.7826665890676930e+04  6.7826665890412973e+04  6.7826665890335440e+04  6.7826665890521705e+04  6.7826665890661403e+04  6.7826665890614793e+04  6.7826665890490651e+04  6.7826665890478369e+04  2.2655448087329823e+04  2.2655448087321471e+04  2.2655448087197296e+04  2.2655448087166242e+04  2.2655448087104149e+04  2.2655448087104149e+04  2.2655448087150722e+04  2.2655448087274897e+04  2.2655448087211345e+04  2.2655448087105102e+04  </DataArray> 
</PointData> 
</Piece>
</UnstructuredGrid>
</VTKFile>