<?xml version="1.0"?>
<VTKFile type="UnstructuredGrid"  version="0.1"  >
<UnstructuredGrid>
<Piece  NumberOfPoints="431" NumberOfCells="800">
<Points>
<DataArray  type="Float64"  NumberOfComponents="3"  format="ascii">-0.25 -1 0  -0.2 -1 0  -0.15 -1 0  -0.1 -1 0  -0.04999999999999999 -1 0  0 -1 0  0.04999999999999999 -1 0  0.09999999999999998 -1 0  0.15 -1 0  0.2 -1 0  0.25 -1 0  -0.25 -0.95 0  -0.2 -0.95 0  -0.15 -0.95 0  -0.1 -0.95 0  -0.04999999999999999 -0.95 0  0 -0.95 0  0.04999999999999999 -0.95 0  0.09999999999999998 -0.95 0  0.15 -0.95 0  0.2 -0.95 0  0.25 -0.95 0  -0.25 -0.9 0  -0.2 -0.9 0  -0.15 -0.9 0  -0.1 -0.9 0  -0.04999999999999999 -0.9 0  0 -0.9 0  0.04999999999999999 -0.9 0  0.09999999999999998 -0.9 0  0.15 -0.9 0  0.2 -0.9 0  0.25 -0.9 0  -0.25 -0.85 0  -0.2 -0.85 0  -0.15 -0.85 0  -0.1 -0.85 0  -0.04999999999999999 -0.85 0  0 -0.85 0  0.04999999999999999 -0.85 0  0.09999999999999998 -0.85 0  0.15 -0.85 0  0.2 -0.85 0  0.25 -0.85 0  -0.25 -0.8 0  -0.2 -0.8 0  -0.15 -0.8 0  -0.1 -0.8 0  -0.04999999999999999 -0.8 0  0 -0.8 0  0.04999999999999999 -0.8 0  0.09999999999999998 -0.8 0  0.15 -0.8 0  0.2 -0.8 0  0.25 -0.8 0  -0.25 -0.75 0  -0.2 -0.75 0  -0.15 -0.75 0  -0.1 -0.75 0  -0.04999999999999999 -0.75 0  0 -0.75 0  0.04999999999999999 -0.75 0  0.09999999999999998 -0.75 0  0.15 -0.75 0  0.2 -0.75 0  0.25 -0.75 0  -0.25 -0.7 0  -0.2 -0.7 0  -0.15 -0.7 0  -0.1 -0.7 0  -0.04999999999999999 -0.7 0  0 -0.7 0  0.04999999999999999 -0.7 0  0.09999999999999998 -0.7 0  0.15 -0.7 0  0.2 -0.7 0  0.25 -0.7 0  -0.25 -0.65 0  -0.2 -0.65 0  -0.15 -0.65 0  -0.1 -0.65 0  -0.04999999999999999 -0.65 0  0 -0.65 0  0.04999999999999999 -0.65 0  0.09999999999999998 -0.65 0  0.15 -0.65 0  0.2 -0.65 0  0.25 -0.65 0  -0.25 -0.6 0  -0.2 -0.6 0  -0.15 -0.6 0  -0.1 -0.6 0  -0.04999999999999999 -0.6 0  0 -0.6 0  0.04999999999999999 -0.6 0  0.09999999999999998 -0.6 0  0.15 -0.6 0  0.2 -0.6 0  0.25 -0.6 0  -0.25 -0.55 0  -0.2 -0.55 0  -0.15 -0.55 0  -0.1 -0.55 0  -0.04999999999999999 -0.55 0  0 -0.55 0  0.04999999999999999 -0.55 0  0.09999999999999998 -0.55 0  0.15 -0.55 0  0.2 -0.55 0  0.25 -0.55 0  -0.25 -0.5 0  -0.2 -0.5 0  -0.15 -0.5 0  -0.1 -0.5 0  -0.04999999999999999 -0.5 0  0 -0.5 0  0.04999999999999999 -0.5 0  0.09999999999999998 -0.5 0  0.15 -0.5 0  0.2 -0.5 0  0.25 -0.5 0  -0.25 -0.45 0  -0.2 -0.45 0  -0.15 -0.45 0  -0.1 -0.45 0  -0.04999999999999999 -0.45 0  0 -0.45 0  0.04999999999999999 -0.45 0  0.09999999999999998 -0.45 0  0.15 -0.45 0  0.2 -0.45 0  0.25 -0.45 0  -0.25 -0.4 0  -0.2 -0.4 0  -0.15 -0.4 0  -0.1 -0.4 0  -0.04999999999999999 -0.4 0  0 -0.4 0  0.04999999999999999 -0.4 0  0.09999999999999998 -0.4 0  0.15 -0.4 0  0.2 -0.4 0  0.25 -0.4 0  -0.25 -0.35 0  -0.2 -0.35 0  -0.15 -0.35 0  -0.1 -0.35 0  -0.04999999999999999 -0.35 0  0 -0.35 0  0.04999999999999999 -0.35 0  0.09999999999999998 -0.35 0  0.15 -0.35 0  0.2 -0.35 0  0.25 -0.35 0  -0.25 -0.3 0  -0.2 -0.3 0  -0.15 -0.3 0  -0.1 -0.3 0  -0.04999999999999999 -0.3 0  0 -0.3 0  0.04999999999999999 -0.3 0  0.09999999999999998 -0.3 0  0.15 -0.3 0  0.2 -0.3 0  0.25 -0.3 0  -0.25 -0.25 0  -0.2 -0.25 0  -0.15 -0.25 0  -0.1 -0.25 0  -0.04999999999999999 -0.25 0  0 -0.25 0  0.04999999999999999 -0.25 0  0.09999999999999998 -0.25 0  0.15 -0.25 0  0.2 -0.25 0  0.25 -0.25 0  -0.25 -0.2 0  -0.2 -0.2 0  -0.15 -0.2 0  -0.1 -0.2 0  -0.04999999999999999 -0.2 0  0 -0.2 0  0.04999999999999999 -0.2 0  0.09999999999999998 -0.2 0  0.15 -0.2 0  0.2 -0.2 0  0.25 -0.2 0  -0.25 -0.15 0  -0.2 -0.15 0  -0.15 -0.15 0  -0.1 -0.15 0  -0.04999999999999999 -0.15 0  0 -0.15 0  0.04999999999999999 -0.15 0  0.09999999999999998 -0.15 0  0.15 -0.15 0  0.2 -0.15 0  0.25 -0.15 0  -0.25 -0.09999999999999998 0  -0.2 -0.09999999999999998 0  -0.15 -0.09999999999999998 0  -0.1 -0.09999999999999998 0  -0.04999999999999999 -0.09999999999999998 0  0 -0.09999999999999998 0  0.04999999999999999 -0.09999999999999998 0  0.09999999999999998 -0.09999999999999998 0  0.15 -0.09999999999999998 0  0.2 -0.09999999999999998 0  0.25 -0.09999999999999998 0  -0.25 -0.05000000000000004 0  -0.2 -0.05000000000000004 0  -0.15 -0.05000000000000004 0  -0.1 -0.05000000000000004 0  -0.04999999999999999 -0.05000000000000004 0  0 -0.05000000000000004 0  0.04999999999999999 -0.05000000000000004 0  0.09999999999999998 -0.05000000000000004 0  0.15 -0.05000000000000004 0  0.2 -0.05000000000000004 0  0.25 -0.05000000000000004 0  -0.25 0 0  -0.2 0 0  -0.15 0 0  -0.1 0 0  -0.04999999999999999 0 0  0 0 0  0.04999999999999999 0 0  0.09999999999999998 0 0  0.15 0 0  0.2 0 0  0.25 0 0  -0.225 -0.975 0  -0.175 -0.975 0  -0.125 -0.975 0  -0.07500000000000001 -0.975 0  -0.02499999999999999 -0.975 0  0.02500000000000002 -0.975 0  0.07500000000000001 -0.975 0  0.125 -0.975 0  0.175 -0.975 0  0.225 -0.975 0  -0.225 -0.925 0  -0.175 -0.925 0  -0.125 -0.925 0  -0.07500000000000001 -0.925 0  -0.02499999999999999 -0.925 0  0.02500000000000002 -0.925 0  0.07500000000000001 -0.925 0  0.125 -0.925 0  0.175 -0.925 0  0.225 -0.925 0  -0.225 -0.875 0  -0.175 -0.875 0  -0.125 -0.875 0  -0.07500000000000001 -0.875 0  -0.02499999999999999 -0.875 0  0.02500000000000002 -0.875 0  0.07500000000000001 -0.875 0  0.125 -0.875 0  0.175 -0.875 0  0.225 -0.875 0  -0.225 -0.825 0  -0.175 -0.825 0  -0.125 -0.825 0  -0.07500000000000001 -0.825 0  -0.02499999999999999 -0.825 0  0.02500000000000002 -0.825 0  0.07500000000000001 -0.825 0  0.125 -0.825 0  0.175 -0.825 0  0.225 -0.825 0  -0.225 -0.775 0  -0.175 -0.775 0  -0.125 -0.775 0  -0.07500000000000001 -0.775 0  -0.02499999999999999 -0.775 0  0.02500000000000002 -0.775 0  0.07500000000000001 -0.775 0  0.125 -0.775 0  0.175 -0.775 0  0.225 -0.775 0  -0.225 -0.725 0  -0.175 -0.725 0  -0.125 -0.725 0  -0.07500000000000001 -0.725 0  -0.02499999999999999 -0.725 0  0.02500000000000002 -0.725 0  0.07500000000000001 -0.725 0  0.125 -0.725 0  0.175 -0.725 0  0.225 -0.725 0  -0.225 -0.675 0  -0.175 -0.675 0  -0.125 -0.675 0  -0.07500000000000001 -0.675 0  -0.02499999999999999 -0.675 0  0.02500000000000002 -0.675 0  0.07500000000000001 -0.675 0  0.125 -0.675 0  0.175 -0.675 0  0.225 -0.675 0  -0.225 -0.625 0  -0.175 -0.625 0  -0.125 -0.625 0  -0.07500000000000001 -0.625 0  -0.02499999999999999 -0.625 0  0.02500000000000002 -0.625 0  0.07500000000000001 -0.625 0  0.125 -0.625 0  0.175 -0.625 0  0.225 -0.625 0  -0.225 -0.575 0  -0.175 -0.575 0  -0.125 -0.575 0  -0.07500000000000001 -0.575 0  -0.02499999999999999 -0.575 0  0.02500000000000002 -0.575 0  0.07500000000000001 -0.575 0  0.125 -0.575 0  0.175 -0.575 0  0.225 -0.575 0  -0.225 -0.525 0  -0.175 -0.525 0  -0.125 -0.525 0  -0.07500000000000001 -0.525 0  -0.02499999999999999 -0.525 0  0.02500000000000002 -0.525 0  0.07500000000000001 -0.525 0  0.125 -0.525 0  0.175 -0.525 0  0.225 -0.525 0  -0.225 -0.475 0  -0.175 -0.475 0  -0.125 -0.475 0  -0.07500000000000001 -0.475 0  -0.02499999999999999 -0.475 0  0.02500000000000002 -0.475 0  0.07500000000000001 -0.475 0  0.125 -0.475 0  0.175 -0.475 0  0.225 -0.475 0  -0.225 -0.425 0  -0.175 -0.425 0  -0.125 -0.425 0  -0.07500000000000001 -0.425 0  -0.02499999999999999 -0.425 0  0.02500000000000002 -0.425 0  0.07500000000000001 -0.425 0  0.125 -0.425 0  0.175 -0.425 0  0.225 -0.425 0  -0.225 -0.375 0  -0.175 -0.375 0  -0.125 -0.375 0  -0.07500000000000001 -0.375 0  -0.02499999999999999 -0.375 0  0.02500000000000002 -0.375 0  0.07500000000000001 -0.375 0  0.125 -0.375 0  0.175 -0.375 0  0.225 -0.375 0  -0.225 -0.325 0  -0.175 -0.325 0  -0.125 -0.325 0  -0.07500000000000001 -0.325 0  -0.02499999999999999 -0.325 0  0.02500000000000002 -0.325 0  0.07500000000000001 -0.325 0  0.125 -0.325 0  0.175 -0.325 0  0.225 -0.325 0  -0.225 -0.275 0  -0.175 -0.275 0  -0.125 -0.275 0  -0.07500000000000001 -0.275 0  -0.02499999999999999 -0.275 0  0.02500000000000002 -0.275 0  0.07500000000000001 -0.275 0  0.125 -0.275 0  0.175 -0.275 0  0.225 -0.275 0  -0.225 -0.225 0  -0.175 -0.225 0  -0.125 -0.225 0  -0.07500000000000001 -0.225 0  -0.02499999999999999 -0.225 0  0.02500000000000002 -0.225 0  0.07500000000000001 -0.225 0  0.125 -0.225 0  0.175 -0.225 0  0.225 -0.225 0  -0.225 -0.175 0  -0.175 -0.175 0  -0.125 -0.175 0  -0.07500000000000001 -0.175 0  -0.02499999999999999 -0.175 0  0.02500000000000002 -0.175 0  0.07500000000000001 -0.175 0  0.125 -0.175 0  0.175 -0.175 0  0.225 -0.175 0  -0.225 -0.125 0  -0.175 -0.125 0  -0.125 -0.125 0  -0.07500000000000001 -0.125 0  -0.02499999999999999 -0.125 0  0.02500000000000002 -0.125 0  0.07500000000000001 -0.125 0  0.125 -0.125 0  0.175 -0.125 0  0.225 -0.125 0  -0.225 -0.07499999999999996 0  -0.175 -0.07499999999999996 0  -0.125 -0.07499999999999996 0  -0.07500000000000001 -0.07499999999999996 0  -0.02499999999999999 -0.07499999999999996 0  0.02500000000000002 -0.07499999999999996 0  0.07500000000000001 -0.07499999999999996 0  0.125 -0.07499999999999996 0  0.175 -0.07499999999999996 0  0.225 -0.07499999999999996 0  -0.225 -0.02500000000000002 0  -0.175 -0.02500000000000002 0  -0.125 -0.02500000000000002 0  -0.07500000000000001 -0.02500000000000002 0  -0.02499999999999999 -0.02500000000000002 0  0.02500000000000002 -0.02500000000000002 0  0.07500000000000001 -0.02500000000000002 0  0.125 -0.02500000000000002 0  0.175 -0.02500000000000002 0  0.225 -0.02500000000000002 0  </DataArray>
</Points>
<Cells>
[...]
<PointData  Scalars="pressure"> 
<DataArray  type="Float64"  Name="pressure"  format="ascii">2.9439682402282637e+06  2.9439682402282511e+06  2.9439682402282655e+06  2.9439682402282679e+06  2.9439682402282492e+06  2.9439682402282311e+06  2.9439682402281729e+06  2.9439682402282055e+06  2.9439682402282204e+06  2.9439682402282245e+06  2.9439682402282087e+06  2.9348929686440201e+06  2.9348929686439922e+06  2.9348929686440066e+06  2.9348929686440160e+06  2.9348929686440006e+06  2.9348929686439964e+06  2.9348929686439438e+06  2.9348929686439442e+06  2.9348929686439559e+06  2.9348929686439815e+06  2.9348929686439391e+06  2.9077231059583747e+06  2.9077231059583421e+06  2.9077231059583779e+06  2.9077231059583914e+06  2.9077231059583840e+06  2.9077231059583621e+06  2.9077231059582727e+06  2.9077231059583155e+06  2.9077231059583263e+06  2.9077231059583160e+06  2.9077231059583048e+06  2.8626261634095884e+06  2.8626261634095837e+06  2.8626261634096075e+06  2.8626261634095591e+06  2.8626261634095595e+06  2.8626261634095423e+06  2.8626261634095078e+06  2.8626261634095870e+06  2.8626261634095376e+06  2.8626261634095479e+06  2.8626261634095712e+06  2.7998801786446078e+06  2.7998801786445705e+06  2.7998801786446008e+06  2.7998801786446040e+06  2.7998801786446185e+06  2.7998801786446255e+06  2.7998801786445836e+06  2.7998801786445477e+06  2.7998801786446101e+06  2.7998801786445938e+06  2.7998801786446129e+06  2.7198720015243795e+06  2.7198720015244014e+06  2.7198720015244395e+06  2.7198720015243893e+06  2.7198720015243483e+06  2.7198720015243529e+06  2.7198720015243213e+06  2.7198720015243716e+06  2.7198720015244666e+06  2.7198720015243706e+06  2.7198720015244829e+06  2.6230949090660717e+06  2.6230949090660727e+06  2.6230949090660606e+06  2.6230949090660373e+06  2.6230949090659604e+06  2.6230949090660228e+06  2.6230949090660261e+06  2.6230949090660368e+06  2.6230949090660610e+06  2.6230949090659744e+06  2.6230949090660168e+06  2.5101455642260374e+06  2.5101455642260108e+06  2.5101455642259573e+06  2.5101455642258972e+06  2.5101455642258637e+06  2.5101455642259247e+06  2.5101455642259065e+06  2.5101455642259447e+06  2.5101455642258152e+06  2.5101455642258148e+06  2.5101455642258208e+06  2.3817203372742343e+06  2.3817203372742236e+06  2.3817203372742492e+06  2.3817203372741686e+06  2.3817203372740997e+06  2.3817203372740955e+06  2.3817203372741048e+06  2.3817203372741165e+06  2.3817203372740061e+06  2.3817203372739614e+06  2.3817203372740024e+06  2.2386110124403629e+06  2.2386110124403476e+06  2.2386110124404314e+06  2.2386110124404100e+06  2.2386110124402619e+06  2.2386110124401455e+06  2.2386110124402479e+06  2.2386110124402097e+06  2.2386110124401907e+06  2.2386110124400891e+06  2.2386110124400728e+06  2.0816999063003587e+06  2.0816999063004008e+06  2.0816999063005175e+06  2.0816999063004917e+06  2.0816999063004206e+06  2.0816999063003608e+06  2.0816999063002770e+06  2.0816999063002849e+06  2.0816999063000449e+06  2.0816999063000444e+06  2.0816999063000928e+06  1.9119544280018075e+06  1.9119544280017668e+06  1.9119544280018324e+06  1.9119544280018008e+06  1.9119544280018001e+06  1.9119544280017552e+06  1.9119544280017107e+06  1.9119544280014911e+06  1.9119544280013440e+06  1.9119544280013824e+06  1.9119544280014441e+06  1.7304211148640462e+06  1.7304211148639759e+06  1.7304211148639142e+06  1.7304211148639340e+06  1.7304211148638905e+06  1.7304211148639501e+06  1.7304211148637491e+06  1.7304211148635843e+06  1.7304211148636867e+06  1.7304211148635861e+06  1.7304211148635638e+06  1.5382191801284899e+06  1.5382191801284512e+06  1.5382191801284605e+06  1.5382191801283557e+06  1.5382191801282407e+06  1.5382191801280340e+06  1.5382191801278878e+06  1.5382191801280479e+06  1.5382191801280959e+06  1.5382191801280230e+06  1.5382191801281378e+06  1.3365336126365059e+06  1.3365336126364393e+06  1.3365336126364204e+06  1.3365336126363324e+06  1.3365336126361315e+06  1.3365336126360579e+06  1.3365336126358665e+06  1.3365336126360109e+06  1.3365336126358933e+06  1.3365336126360251e+06  1.3365336126361154e+06  1.1266078709788565e+06  1.1266078709788856e+06  1.1266078709790064e+06  1.1266078709787945e+06  1.1266078709786255e+06  1.1266078709783808e+06  1.1266078709784425e+06  1.1266078709784630e+06  1.1266078709783382e+06  1.1266078709782902e+06  1.1266078709783175e+06  9.0973621716049360e+05  9.0973621716046834e+05  9.0973621716036589e+05  9.0973621716015716e+05  9.0973621716001641e+05  9.0973621715995367e+05  9.0973621716000047e+05  9.0973621716000745e+05  9.0973621715985727e+05  9.0973621715975797e+05  9.0973621715973876e+05  6.8725573704385606e+05  6.8725573704380239e+05  6.8725573704362323e+05  6.8725573704359168e+05  6.8725573704347294e+05  6.8725573704363871e+05  6.8725573704353406e+05  6.8725573704354011e+05  6.8725573704336688e+05  6.8725573704329995e+05  6.8725573704315117e+05  4.6053809677177074e+05  4.6053809677181049e+05  4.6053809677172027e+05  4.6053809677146410e+05  4.6053809677149111e+05  4.6053809677146829e+05  4.6053809677152999e+05  4.6053809677154321e+05  4.6053809677136951e+05  4.6053809677130915e+05  4.6053809677137731e+05  2.3098108598803412e+05  2.3098108598801508e+05  2.3098108598787474e+05  2.3098108598796156e+05  2.3098108598771054e+05  2.3098108598770798e+05  2.3098108598784378e+05  2.3098108598796159e+05  2.3098108598788490e+05  2.3098108598774258e+05  2.3098108598774901e+05  -8.5265128291211958e-12  8.9979958565226805e-12  2.2848389846785709e-11  1.8271098919545423e-12  4.2632564145605979e-12  -1.0624834345662740e-11  5.9219296133505824e-11  6.2616578588858797e-12  3.1707969583294445e-11  -4.2683805208280984e-12  -7.6738615462090768e-11  2.9409427180196261e+06  2.9409427180196168e+06  2.9409427180196308e+06  2.9409427180196200e+06  2.9409427180196107e+06  2.9409427180195735e+06  2.9409427180195516e+06  2.9409427180195772e+06  2.9409427180195847e+06  2.9409427180195707e+06  2.9228108282016106e+06  2.9228108282016073e+06  2.9228108282016269e+06  2.9228108282016115e+06  2.9228108282016143e+06  2.9228108282015696e+06  2.9228108282015473e+06  2.9228108282015608e+06  2.9228108282015645e+06  2.9228108282015570e+06  2.8866588376957104e+06  2.8866588376957159e+06  2.8866588376957141e+06  2.8866588376957001e+06  2.8866588376956908e+06  2.8866588376956438e+06  2.8866588376956503e+06  2.8866588376956750e+06  2.8866588376956549e+06  2.8866588376956610e+06  2.8327096355450172e+06  2.8327096355450246e+06  2.8327096355450302e+06  2.8327096355450214e+06  2.8327096355450144e+06  2.8327096355449934e+06  2.8327096355449911e+06  2.8327096355450074e+06  2.8327096355449976e+06  2.8327096355450153e+06  2.7612958365205633e+06  2.7612958365205638e+06  2.7612958365205675e+06  2.7612958365205564e+06  2.7612958365205568e+06  2.7612958365205359e+06  2.7612958365205145e+06  2.7612958365205466e+06  2.7612958365205792e+06  2.7612958365205997e+06  2.6728577304405211e+06  2.6728577304405333e+06  2.6728577304405421e+06  2.6728577304404746e+06  2.6728577304404578e+06  2.6728577304404820e+06  2.6728577304405044e+06  2.6728577304405319e+06  2.6728577304405156e+06  2.6728577304405170e+06  2.5679405676373304e+06  2.5679405676373220e+06  2.5679405676372610e+06  2.5679405676372210e+06  2.5679405676372303e+06  2.5679405676372442e+06  2.5679405676372759e+06  2.5679405676372433e+06  2.5679405676371837e+06  2.5679405676371888e+06  2.4471911973077795e+06  2.4471911973077441e+06  2.4471911973076975e+06  2.4471911973076425e+06  2.4471911973076421e+06  2.4471911973076742e+06  2.4471911973076658e+06  2.4471911973076025e+06  2.4471911973075341e+06  2.4471911973075350e+06  2.3113540794728585e+06  2.3113540794729064e+06  2.3113540794728692e+06  2.3113540794727900e+06  2.3113540794727290e+06  2.3113540794727048e+06  2.3113540794727206e+06  2.3113540794727122e+06  2.3113540794726275e+06  2.3113540794725986e+06  2.1612666951341964e+06  2.1612666951342397e+06  2.1612666951342942e+06  2.1612666951342560e+06  2.1612666951341019e+06  2.1612666951340935e+06  2.1612666951341010e+06  2.1612666951340530e+06  2.1612666951339222e+06  2.1612666951338965e+06  1.9978543829251889e+06  1.9978543829252457e+06  1.9978543829253076e+06  1.9978543829252848e+06  1.9978543829252236e+06  1.9978543829251302e+06  1.9978543829250524e+06  1.9978543829249186e+06  1.9978543829248189e+06  1.9978543829248475e+06  1.8221246340904743e+06  1.8221246340904196e+06  1.8221246340903898e+06  1.8221246340903807e+06  1.8221246340904366e+06  1.8221246340903807e+06  1.8221246340901870e+06  1.8221246340900462e+06  1.8221246340900545e+06  1.8221246340900494e+06  1.6351608809673991e+06  1.6351608809673483e+06  1.6351608809673483e+06  1.6351608809672697e+06  1.6351608809671786e+06  1.6351608809670378e+06  1.6351608809669451e+06  1.6351608809670061e+06  1.6351608809670219e+06  1.6351608809669625e+06  1.4381158172657555e+06  1.4381158172657522e+06  1.4381158172656756e+06  1.4381158172655809e+06  1.4381158172654116e+06  1.4381158172652409e+06  1.4381158172652868e+06  1.4381158172653478e+06  1.4381158172653643e+06  1.4381158172654044e+06  1.2322042913275764e+06  1.2322042913275529e+06  1.2322042913274912e+06  1.2322042913273661e+06  1.2322042913271799e+06  1.2322042913270877e+06  1.2322042913270879e+06  1.2322042913270097e+06  1.2322042913269787e+06  1.2322042913270688e+06  1.0186958161826138e+06  1.0186958161826314e+06  1.0186958161825854e+06  1.0186958161823674e+06  1.0186958161821504e+06  1.0186958161821035e+06  1.0186958161821817e+06  1.0186958161821350e+06  1.0186958161819800e+06  1.0186958161819412e+06  7.9890674257896608e+05  7.9890674257887923e+05  7.9890674257875606e+05  7.9890674257856945e+05  7.9890674257860077e+05  7.9890674257858447e+05  7.9890674257856910e+05  7.9890674257849122e+05  7.9890674257833639e+05  7.9890674257832416e+05  5.7419214324262447e+05  5.7419214324251458e+05  5.7419214324239071e+05  5.7419214324234403e+05  5.7419214324229758e+05  5.7419214324237464e+05  5.7419214324237488e+05  5.7419214324224996e+05  5.7419214324207976e+05  5.7419214324204461e+05  3.4593745840427006e+05  3.4593745840420783e+05  3.4593745840408374e+05  3.4593745840406837e+05  3.4593745840389770e+05  3.4593745840399055e+05  3.4593745840405248e+05  3.4593745840406779e+05  3.4593745840388187e+05  3.4593745840389439e+05  1.1554995409856481e+05  1.1554995409849480e+05  1.1554995409847931e+05  1.1554995409849474e+05  1.1554995409830850e+05  1.1554995409840169e+05  1.1554995409846376e+05  1.1554995409851019e+05  1.1554995409844807e+05  1.1554995409837097e+05  </DataArray> 
</PointData> 
</Piece>
</UnstructuredGrid>
</VTKFile>