<?xml version="1.0"?>
<VTKFile type="UnstructuredGrid"  version="0.1"  >
<UnstructuredGrid>
<Piece  NumberOfPoints="431" NumberOfCells="800">
<Points>
<DataArray  type="Float64"  NumberOfComponents="3"  format="ascii">-0.25 -1 0  -0.2 -1 0  -0.15 -1 0  -0.1 -1 0  -0.04999999999999999 -1 0  0 -1 0  0.04999999999999999 -1 0  0.09999999999999998 -1 0  0.15 -1 0  0.2 -1 0  0.25 -1 0  -0.25 -0.95 0  -0.2 -0.95 0  -0.15 -0.95 0  -0.1 -0.95 0  -0.04999999999999999 -0.95 0  0 -0.95 0  0.04999999999999999 -0.95 0  0.09999999999999998 -0.95 0  0.15 -0.95 0  0.2 -0.95 0  0.25 -0.95 0  -0.25 -0.9 0  -0.2 -0.9 0  -0.15 -0.9 0  -0.1 -0.9 0  -0.04999999999999999 -0.9 0  0 -0.9 0  0.04999999999999999 -0.9 0  0.09999999999999998 -0.9 0  0.15 -0.9 0  0.2 -0.9 0  0.25 -0.9 0  -0.25 -0.85 0  -0.2 -0.85 0  -0.15 -0.85 0  -0.1 -0.85 0  -0.04999999999999999 -0.85 0  0 -0.85 0  0.04999999999999999 -0.85 0  0.09999999999999998 -0.85 0  0.15 -0.85 0  0.2 -0.85 0  0.25 -0.85 0  -0.25 -0.8 0  -0.2 -0.8 0  -0.15 -0.8 0  -0.1 -0.8 0  -0.04999999999999999 -0.8 0  0 -0.8 0  0.04999999999999999 -0.8 0  0.09999999999999998 -0.8 0  0.15 -0.8 0  0.2 -0.8 0  0.25 -0.8 0  -0.25 -0.75 0  -0.2 -0.75 0  -0.15 -0.75 0  -0.1 -0.75 0  -0.04999999999999999 -0.75 0  0 -0.75 0  0.04999999999999999 -0.75 0  0.09999999999999998 -0.75 0  0.15 -0.75 0  0.2 -0.75 0  0.25 -0.75 0  -0.25 -0.7 0  -0.2 -0.7 0  -0.15 -0.7 0  -0.1 -0.7 0  -0.04999999999999999 -0.7 0  0 -0.7 0  0.04999999999999999 -0.7 0  0.09999999999999998 -0.7 0  0.15 -0.7 0  0.2 -0.7 0  0.25 -0.7 0  -0.25 -0.65 0  -0.2 -0.65 0  -0.15 -0.65 0  -0.1 -0.65 0  -0.04999999999999999 -0.65 0  0 -0.65 0  0.04999999999999999 -0.65 0  0.09999999999999998 -0.65 0  0.15 -0.65 0  0.2 -0.65 0  0.25 -0.65 0  -0.25 -0.6 0  -0.2 -0.6 0  -0.15 -0.6 0  -0.1 -0.6 0  -0.04999999999999999 -0.6 0  0 -0.6 0  0.04999999999999999 -0.6 0  0.09999999999999998 -0.6 0  0.15 -0.6 0  0.2 -0.6 0  0.25 -0.6 0  -0.25 -0.55 0  -0.2 -0.55 0  -0.15 -0.55 0  -0.1 -0.55 0  -0.04999999999999999 -0.55 0  0 -0.55 0  0.04999999999999999 -0.55 0  0.09999999999999998 -0.55 0  0.15 -0.55 0  0.2 -0.55 0  0.25 -0.55 0  -0.25 -0.5 0  -0.2 -0.5 0  -0.15 -0.5 0  -0.1 -0.5 0  -0.04999999999999999 -0.5 0  0 -0.5 0  0.04999999999999999 -0.5 0  0.09999999999999998 -0.5 0  0.15 -0.5 0  0.2 -0.5 0  0.25 -0.5 0  -0.25 -0.45 0  -0.2 -0.45 0  -0.15 -0.45 0  -0.1 -0.45 0  -0.04999999999999999 -0.45 0  0 -0.45 0  0.04999999999999999 -0.45 0  0.09999999999999998 -0.45 0  0.15 -0.45 0  0.2 -0.45 0  0.25 -0.45 0  -0.25 -0.4 0  -0.2 -0.4 0  -0.15 -0.4 0  -0.1 -0.4 0  -0.04999999999999999 -0.4 0  0 -0.4 0  0.04999999999999999 -0.4 0  0.09999999999999998 -0.4 0  0.15 -0.4 0  0.2 -0.4 0  0.25 -0.4 0  -0.25 -0.35 0  -0.2 -0.35 0  -0.15 -0.35 0  -0.1 -0.35 0  -0.04999999999999999 -0.35 0  0 -0.35 0  0.04999999999999999 -0.35 0  0.09999999999999998 -0.35 0  0.15 -0.35 0  0.2 -0.35 0  0.25 -0.35 0  -0.25 -0.3 0  -0.2 -0.3 0  -0.15 -0.3 0  -0.1 -0.3 0  -0.04999999999999999 -0.3 0  0 -0.3 0  0.04999999999999999 -0.3 0  0.09999999999999998 -0.3 0  0.15 -0.3 0  0.2 -0.3 0  0.25 -0.3 0  -0.25 -0.25 0  -0.2 -0.25 0  -0.15 -0.25 0  -0.1 -0.25 0  -0.04999999999999999 -0.25 0  0 -0.25 0  0.04999999999999999 -0.25 0  0.09999999999999998 -0.25 0  0.15 -0.25 0  0.2 -0.25 0  0.25 -0.25 0  -0.25 -0.2 0  -0.2 -0.2 0  -0.15 -0.2 0  -0.1 -0.2 0  -0.04999999999999999 -0.2 0  0 -0.2 0  0.04999999999999999 -0.2 0  0.09999999999999998 -0.2 0  0.15 -0.2 0  0.2 -0.2 0  0.25 -0.2 0  -0.25 -0.15 0  -0.2 -0.15 0  -0.15 -0.15 0  -0.1 -0.15 0  -0.04999999999999999 -0.15 0  0 -0.15 0  0.04999999999999999 -0.15 0  0.09999999999999998 -0.15 0  0.15 -0.15 0  0.2 -0.15 0  0.25 -0.15 0  -0.25 -0.09999999999999998 0  -0.2 -0.09999999999999998 0  -0.15 -0.09999999999999998 0  -0.1 -0.09999999999999998 0  -0.04999999999999999 -0.09999999999999998 0  0 -0.09999999999999998 0  0.04999999999999999 -0.09999999999999998 0  0.09999999999999998 -0.09999999999999998 0  0.15 -0.09999999999999998 0  0.2 -0.09999999999999998 0  0.25 -0.09999999999999998 0  -0.25 -0.05000000000000004 0  -0.2 -0.05000000000000004 0  -0.15 -0.05000000000000004 0  -0.1 -0.05000000000000004 0  -0.04999999999999999 -0.05000000000000004 0  0 -0.05000000000000004 0  0.04999999999999999 -0.05000000000000004 0  0.09999999999999998 -0.05000000000000004 0  0.15 -0.05000000000000004 0  0.2 -0.05000000000000004 0  0.25 -0.05000000000000004 0  -0.25 0 0  -0.2 0 0  -0.15 0 0  -0.1 0 0  -0.04999999999999999 0 0  0 0 0  0.04999999999999999 0 0  0.09999999999999998 0 0  0.15 0 0  0.2 0 0  0.25 0 0  -0.225 -0.975 0  -0.175 -0.975 0  -0.125 -0.975 0  -0.07500000000000001 -0.975 0  -0.02499999999999999 -0.975 0  0.02500000000000002 -0.975 0  0.07500000000000001 -0.975 0  0.125 -0.975 0  0.175 -0.975 0  0.225 -0.975 0  -0.225 -0.925 0  -0.175 -0.925 0  -0.125 -0.925 0  -0.07500000000000001 -0.925 0  -0.02499999999999999 -0.925 0  0.02500000000000002 -0.925 0  0.07500000000000001 -0.925 0  0.125 -0.925 0  0.175 -0.925 0  0.225 -0.925 0  -0.225 -0.875 0  -0.175 -0.875 0  -0.125 -0.875 0  -0.07500000000000001 -0.875 0  -0.02499999999999999 -0.875 0  0.02500000000000002 -0.875 0  0.07500000000000001 -0.875 0  0.125 -0.875 0  0.175 -0.875 0  0.225 -0.875 0  -0.225 -0.825 0  -0.175 -0.825 0  -0.125 -0.825 0  -0.07500000000000001 -0.825 0  -0.02499999999999999 -0.825 0  0.02500000000000002 -0.825 0  0.07500000000000001 -0.825 0  0.125 -0.825 0  0.175 -0.825 0  0.225 -0.825 0  -0.225 -0.775 0  -0.175 -0.775 0  -0.125 -0.775 0  -0.07500000000000001 -0.775 0  -0.02499999999999999 -0.775 0  0.02500000000000002 -0.775 0  0.07500000000000001 -0.775 0  0.125 -0.775 0  0.175 -0.775 0  0.225 -0.775 0  -0.225 -0.725 0  -0.175 -0.725 0  -0.125 -0.725 0  -0.07500000000000001 -0.725 0  -0.02499999999999999 -0.725 0  0.02500000000000002 -0.725 0  0.07500000000000001 -0.725 0  0.125 -0.725 0  0.175 -0.725 0  0.225 -0.725 0  -0.225 -0.675 0  -0.175 -0.675 0  -0.125 -0.675 0  -0.07500000000000001 -0.675 0  -0.02499999999999999 -0.675 0  0.02500000000000002 -0.675 0  0.07500000000000001 -0.675 0  0.125 -0.675 0  0.175 -0.675 0  0.225 -0.675 0  -0.225 -0.625 0  -0.175 -0.625 0  -0.125 -0.625 0  -0.07500000000000001 -0.625 0  -0.02499999999999999 -0.625 0  0.02500000000000002 -0.625 0  0.07500000000000001 -0.625 0  0.125 -0.625 0  0.175 -0.625 0  0.225 -0.625 0  -0.225 -0.575 0  -0.175 -0.575 0  -0.125 -0.575 0  -0.07500000000000001 -0.575 0  -0.02499999999999999 -0.575 0  0.02500000000000002 -0.575 0  0.07500000000000001 -0.575 0  0.125 -0.575 0  0.175 -0.575 0  0.225 -0.575 0  -0.225 -0.525 0  -0.175 -0.525 0  -0.125 -0.525 0  -0.07500000000000001 -0.525 0  -0.02499999999999999 -0.525 0  0.02500000000000002 -0.525 0  0.07500000000000001 -0.525 0  0.125 -0.525 0  0.175 -0.525 0  0.225 -0.525 0  -0.225 -0.475 0  -0.175 -0.475 0  -0.125 -0.475 0  -0.07500000000000001 -0.475 0  -0.02499999999999999 -0.475 0  0.02500000000000002 -0.475 0  0.07500000000000001 -0.475 0  0.125 -0.475 0  0.175 -0.475 0  0.225 -0.475 0  -0.225 -0.425 0  -0.175 -0.425 0  -0.125 -0.425 0  -0.07500000000000001 -0.425 0  -0.02499999999999999 -0.425 0  0.02500000000000002 -0.425 0  0.07500000000000001 -0.425 0  0.125 -0.425 0  0.175 -0.425 0  0.225 -0.425 0  -0.225 -0.375 0  -0.175 -0.375 0  -0.125 -0.375 0  -0.07500000000000001 -0.375 0  -0.02499999999999999 -0.375 0  0.02500000000000002 -0.375 0  0.07500000000000001 -0.375 0  0.125 -0.375 0  0.175 -0.375 0  0.225 -0.375 0  -0.225 -0.325 0  -0.175 -0.325 0  -0.125 -0.325 0  -0.07500000000000001 -0.325 0  -0.02499999999999999 -0.325 0  0.02500000000000002 -0.325 0  0.07500000000000001 -0.325 0  0.125 -0.325 0  0.175 -0.325 0  0.225 -0.325 0  -0.225 -0.275 0  -0.175 -0.275 0  -0.125 -0.275 0  -0.07500000000000001 -0.275 0  -0.02499999999999999 -0.275 0  0.02500000000000002 -0.275 0  0.07500000000000001 -0.275 0  0.125 -0.275 0  0.175 -0.275 0  0.225 -0.275 0  -0.225 -0.225 0  -0.175 -0.225 0  -0.125 -0.225 0  -0.07500000000000001 -0.225 0  -0.02499999999999999 -0.225 0  0.02500000000000002 -0.225 0  0.07500000000000001 -0.225 0  0.125 -0.225 0  0.175 -0.225 0  0.225 -0.225 0  -0.225 -0.175 0  -0.175 -0.175 0  -0.125 -0.175 0  -0.07500000000000001 -0.175 0  -0.02499999999999999 -0.175 0  0.02500000000000002 -0.175 0  0.07500000000000001 -0.175 0  0.125 -0.175 0  0.175 -0.175 0  0.225 -0.175 0  -0.225 -0.125 0  -0.175 -0.125 0  -0.125 -0.125 0  -0.07500000000000001 -0.125 0  -0.02499999999999999 -0.125 0  0.02500000000000002 -0.125 0  0.07500000000000001 -0.125 0  0.125 -0.125 0  0.175 -0.125 0  0.225 -0.125 0  -0.225 -0.07499999999999996 0  -0.175 -0.07499999999999996 0  -0.125 -0.07499999999999996 0  -0.07500000000000001 -0.07499999999999996 0  -0.02499999999999999 -0.07499999999999996 0  0.02500000000000002 -0.07499999999999996 0  0.07500000000000001 -0.07499999999999996 0  0.125 -0.07499999999999996 0  0.175 -0.07499999999999996 0  0.225 -0.07499999999999996 0  -0.225 -0.02500000000000002 0  -0.175 -0.02500000000000002 0  -0.125 -0.02500000000000002 0  -0.07500000000000001 -0.02500000000000002 0  -0.02499999999999999 -0.02500000000000002 0  0.02500000000000002 -0.02500000000000002 0  0.07500000000000001 -0.02500000000000002 0  0.125 -0.02500000000000002 0  0.175 -0.02500000000000002 0  0.225 -0.02500000000000002 0  </DataArray>
</Points>
<Cells>
[...]
<PointData  Vectors="displacement"> 
<DataArray  type="Float64"  Name="displacement"  NumberOfComponents="3" format="ascii">4.0625084764418229e-33 -9.1479558303464344e-18 0.0000000000000000e+00  -9.0277966143151571e-33 4.5739779151732164e-18 0.0000000000000000e+00  1.4112985175972370e-32 -1.2068234264903642e-17 0.0000000000000000e+00  1.4444474582904258e-32 1.5246593050577395e-18 0.0000000000000000e+00  3.4780688937046732e-33 -2.7936532852821729e-21 0.0000000000000000e+00  1.8055593228630314e-32 -6.0986372202309555e-18 0.0000000000000000e+00  -2.5811651892149620e-32 -5.4196873734474335e-19 0.0000000000000000e+00  1.7152813567198800e-32 -2.0328790734103185e-18 0.0000000000000000e+00  9.0721262968122799e-33 -2.7316812548951155e-18 0.0000000000000000e+00  -5.4166779685890967e-33 8.1315162936412771e-18 0.0000000000000000e+00  8.1250169528836403e-33 -8.1315162936412725e-18 0.0000000000000000e+00  -5.4166779685891049e-33 -3.6432891572635587e-02 0.0000000000000000e+00  5.2049062118709405e-17 -3.6432891572635573e-02 0.0000000000000000e+00  8.6900229758388335e-17 -3.6432891572635497e-02 0.0000000000000000e+00  1.2818160651267919e-16 -3.6432891572635538e-02 0.0000000000000000e+00  1.6911588606627859e-16 -3.6432891572635503e-02 0.0000000000000000e+00  1.9854348955917854e-16 -3.6432891572635441e-02 0.0000000000000000e+00  1.7943681068193258e-16 -3.6432891572635469e-02 0.0000000000000000e+00  1.3753840418935443e-16 -3.6432891572635441e-02 0.0000000000000000e+00  8.6889835524270398e-17 -3.6432891572635413e-02 0.0000000000000000e+00  3.2285849250373922e-17 -3.6432891572635441e-02 0.0000000000000000e+00  -7.4477824602531410e-33 -3.6432891572635413e-02 0.0000000000000000e+00  9.9526291986101935e-33 -7.2870160319099042e-02 0.0000000000000000e+00  6.5175172318791328e-17 -7.2870160319099014e-02 0.0000000000000000e+00  1.4127574874345808e-16 -7.2870160319099070e-02 0.0000000000000000e+00  2.1780787000741110e-16 -7.2870160319098903e-02 0.0000000000000000e+00  2.6747047001578008e-16 -7.2870160319098973e-02 0.0000000000000000e+00  2.8263927341075192e-16 -7.2870160319098834e-02 0.0000000000000000e+00  2.5823783545680847e-16 -7.2870160319098737e-02 0.0000000000000000e+00  2.1592750028424349e-16 -7.2870160319098723e-02 0.0000000000000000e+00  1.5339113440335110e-16 -7.2870160319098681e-02 0.0000000000000000e+00  8.1023431993966123e-17 -7.2870160319098612e-02 0.0000000000000000e+00  1.0768871675647375e-32 -7.2870160319098723e-02 0.0000000000000000e+00  -3.6111186457260659e-33 -1.0931615642648627e-01 0.0000000000000000e+00  9.1102457995544528e-17 -1.0931615642648612e-01 0.0000000000000000e+00  1.6340646827941511e-16 -1.0931615642648615e-01 0.0000000000000000e+00  2.3417825492669743e-16 -1.0931615642648608e-01 0.0000000000000000e+00  2.8639508463225866e-16 -1.0931615642648601e-01 0.0000000000000000e+00  3.0087121512068435e-16 -1.0931615642648579e-01 0.0000000000000000e+00  2.7966130539167344e-16 -1.0931615642648575e-01 0.0000000000000000e+00  2.5107708237672738e-16 -1.0931615642648566e-01 0.0000000000000000e+00  1.8679669923583673e-16 -1.0931615642648564e-01 0.0000000000000000e+00  1.0104821581575242e-16 -1.0931615642648564e-01 0.0000000000000000e+00  9.0277966143151629e-34 -1.0931615642648558e-01 0.0000000000000000e+00  4.2623505781498572e-33 -1.4577517627481046e-01 0.0000000000000000e+00  1.1767739446448411e-16 -1.4577517627481043e-01 0.0000000000000000e+00  1.9965907450253760e-16 -1.4577517627481032e-01 0.0000000000000000e+00  2.4734449001190586e-16 -1.4577517627481029e-01 0.0000000000000000e+00  2.8085040475023490e-16 -1.4577517627481007e-01 0.0000000000000000e+00  2.8382990939299395e-16 -1.4577517627480982e-01 0.0000000000000000e+00  2.3911707101254060e-16 -1.4577517627480985e-01 0.0000000000000000e+00  2.3748881564087420e-16 -1.4577517627480974e-01 0.0000000000000000e+00  1.8446697268943513e-16 -1.4577517627480957e-01 0.0000000000000000e+00  8.3815195001129465e-17 -1.4577517627480957e-01 0.0000000000000000e+00  5.0189644832303298e-33 -1.4577517627480949e-01 0.0000000000000000e+00  0.0000000000000000e+00 -1.8225143594839169e-01 0.0000000000000000e+00  1.2036704622379104e-16 -1.8225143594839169e-01 0.0000000000000000e+00  1.9216115884207401e-16 -1.8225143594839155e-01 0.0000000000000000e+00  3.0411314623414183e-16 -1.8225143594839147e-01 0.0000000000000000e+00  2.9749103952373991e-16 -1.8225143594839133e-01 0.0000000000000000e+00  2.8516103592862940e-16 -1.8225143594839091e-01 0.0000000000000000e+00  3.3305592033889590e-16 -1.8225143594839088e-01 0.0000000000000000e+00  2.7489815171107202e-16 -1.8225143594839074e-01 0.0000000000000000e+00  1.6637932274962776e-16 -1.8225143594839055e-01 0.0000000000000000e+00  6.4368969015368704e-17 -1.8225143594839047e-01 0.0000000000000000e+00  5.5679887950228408e-33 -1.8225143594839052e-01 0.0000000000000000e+00  2.7097827505838702e-32 -2.1874904524229399e-01 0.0000000000000000e+00  1.7211907255768757e-16 -2.1874904524229397e-01 0.0000000000000000e+00  2.4906226564778209e-16 -2.1874904524229385e-01 0.0000000000000000e+00  3.1340716394932589e-16 -2.1874904524229358e-01 0.0000000000000000e+00  3.3554221899770629e-16 -2.1874904524229352e-01 0.0000000000000000e+00  3.6044566412834870e-16 -2.1874904524229305e-01 0.0000000000000000e+00  3.0599024246977285e-16 -2.1874904524229288e-01 0.0000000000000000e+00  2.7142612262147182e-16 -2.1874904524229277e-01 0.0000000000000000e+00  1.9809600635168445e-16 -2.1874904524229255e-01 0.0000000000000000e+00  6.5733026477581300e-17 -2.1874904524229252e-01 0.0000000000000000e+00  -6.1904891069589743e-33 -2.1874904524229261e-01 0.0000000000000000e+00  3.6111186457260665e-33 -2.5527198232407294e-01 0.0000000000000000e+00  1.5260059202532469e-16 -2.5527198232407267e-01 0.0000000000000000e+00  3.1097443388785368e-16 -2.5527198232407278e-01 0.0000000000000000e+00  3.6496861346342275e-16 -2.5527198232407228e-01 0.0000000000000000e+00  4.4969575741960705e-16 -2.5527198232407200e-01 0.0000000000000000e+00  4.1037368620054609e-16 -2.5527198232407189e-01 0.0000000000000000e+00  3.3840041137829162e-16 -2.5527198232407156e-01 0.0000000000000000e+00  2.3370544476327259e-16 -2.5527198232407144e-01 0.0000000000000000e+00  1.5912311416386085e-16 -2.5527198232407122e-01 0.0000000000000000e+00  1.0043308677881962e-16 -2.5527198232407111e-01 0.0000000000000000e+00  1.0833355937178198e-32 -2.5527198232407144e-01 0.0000000000000000e+00  2.8009066012761557e-33 -2.9182406920704940e-01 0.0000000000000000e+00  1.2933198257010164e-16 -2.9182406920704890e-01 0.0000000000000000e+00  2.9230224232274431e-16 -2.9182406920704884e-01 0.0000000000000000e+00  4.1423897654613788e-16 -2.9182406920704868e-01 0.0000000000000000e+00  4.6289746279818099e-16 -2.9182406920704856e-01 0.0000000000000000e+00  4.2915676849899979e-16 -2.9182406920704818e-01 0.0000000000000000e+00  3.5526167453507055e-16 -2.9182406920704740e-01 0.0000000000000000e+00  2.4615666374202442e-16 -2.9182406920704762e-01 0.0000000000000000e+00  1.8019584654654949e-16 -2.9182406920704779e-01 0.0000000000000000e+00  1.3290603249635297e-16 -2.9182406920704740e-01 0.0000000000000000e+00  8.0366029849253714e-33 -2.9182406920704745e-01 0.0000000000000000e+00  1.9861152551493386e-32 -3.2840894818632610e-01 0.0000000000000000e+00  1.6247280196553685e-16 -3.2840894818632616e-01 0.0000000000000000e+00  3.2302965074738921e-16 -3.2840894818632604e-01 0.0000000000000000e+00  3.7395993220490393e-16 -3.2840894818632566e-01 0.0000000000000000e+00  3.7359339847167306e-16 -3.2840894818632538e-01 0.0000000000000000e+00  3.7497484902603049e-16 -3.2840894818632488e-01 0.0000000000000000e+00  2.9751130826280605e-16 -3.2840894818632432e-01 0.0000000000000000e+00  2.5203501404418562e-16 -3.2840894818632432e-01 0.0000000000000000e+00  2.4025392407071603e-16 -3.2840894818632466e-01 0.0000000000000000e+00  1.3486777932104213e-16 -3.2840894818632438e-01 0.0000000000000000e+00  -1.1401119708625375e-32 -3.2840894818632443e-01 0.0000000000000000e+00  -1.0834814204382778e-32 -3.6503005938282912e-01 0.0000000000000000e+00  1.9909796525710334e-16 -3.6503005938282906e-01 0.0000000000000000e+00  3.1132783205972758e-16 -3.6503005938282873e-01 0.0000000000000000e+00  3.3894946691487738e-16 -3.6503005938282829e-01 0.0000000000000000e+00  3.3900141713170316e-16 -3.6503005938282790e-01 0.0000000000000000e+00  3.4064322332832442e-16 -3.6503005938282762e-01 0.0000000000000000e+00  3.1840992436686837e-16 -3.6503005938282745e-01 0.0000000000000000e+00  2.4875387414240026e-16 -3.6503005938282723e-01 0.0000000000000000e+00  1.6356340063168337e-16 -3.6503005938282729e-01 0.0000000000000000e+00  1.0285284421098937e-16 -3.6503005938282740e-01 0.0000000000000000e+00  1.4637927367496722e-32 -3.6503005938282701e-01 0.0000000000000000e+00  0.0000000000000000e+00 -4.0169061953381552e-01 0.0000000000000000e+00  2.0140047815769995e-16 -4.0169061953381496e-01 0.0000000000000000e+00  1.9676054004169516e-16 -4.0169061953381463e-01 0.0000000000000000e+00  3.5471541307643547e-16 -4.0169061953381419e-01 0.0000000000000000e+00  3.9780778540965227e-16 -4.0169061953381391e-01 0.0000000000000000e+00  3.7082636839838242e-16 -4.0169061953381363e-01 0.0000000000000000e+00  2.3535794693389401e-16 -4.0169061953381308e-01 0.0000000000000000e+00  2.1499580339560016e-16 -4.0169061953381313e-01 0.0000000000000000e+00  2.0063349177182444e-16 -4.0169061953381313e-01 0.0000000000000000e+00  4.9109462557847530e-17 -4.0169061953381330e-01 0.0000000000000000e+00  -2.7083389842945518e-33 -4.0169061953381296e-01 0.0000000000000000e+00  -2.8290383768949978e-34 -4.3839360216061979e-01 0.0000000000000000e+00  7.2756312154484158e-17 -4.3839360216061884e-01 0.0000000000000000e+00  2.3788194472568287e-16 -4.3839360216061912e-01 0.0000000000000000e+00  3.1698956650560536e-16 -4.3839360216061840e-01 0.0000000000000000e+00  5.0166598545420359e-16 -4.3839360216061773e-01 0.0000000000000000e+00  4.9661113211194097e-16 -4.3839360216061740e-01 0.0000000000000000e+00  4.2867435301169431e-16 -4.3839360216061685e-01 0.0000000000000000e+00  2.6509402001187320e-16 -4.3839360216061757e-01 0.0000000000000000e+00  1.3592216417920152e-16 -4.3839360216061701e-01 0.0000000000000000e+00  7.9138416236289589e-17 -4.3839360216061707e-01 0.0000000000000000e+00  4.3604962943752748e-33 -4.3839360216061740e-01 0.0000000000000000e+00  1.9861152551493362e-32 -4.7514171923590592e-01 0.0000000000000000e+00  2.1846992067422227e-17 -4.7514171923590587e-01 0.0000000000000000e+00  1.9861675223471890e-16 -4.7514171923590576e-01 0.0000000000000000e+00  4.0895277378768444e-16 -4.7514171923590520e-01 0.0000000000000000e+00  4.9120613502757045e-16 -4.7514171923590476e-01 0.0000000000000000e+00  6.0692078859269952e-16 -4.7514171923590398e-01 0.0000000000000000e+00  5.0047232690408796e-16 -4.7514171923590370e-01 0.0000000000000000e+00  3.6364820383643241e-16 -4.7514171923590398e-01 0.0000000000000000e+00  2.1928166175512335e-16 -4.7514171923590409e-01 0.0000000000000000e+00  1.0964928473263699e-16 -4.7514171923590393e-01 0.0000000000000000e+00  -1.0491287081088911e-32 -4.7514171923590404e-01 0.0000000000000000e+00  -2.5112067939555896e-32 -5.1193740446345637e-01 0.0000000000000000e+00  1.7653491731160390e-16 -5.1193740446345648e-01 0.0000000000000000e+00  3.6667500220367908e-16 -5.1193740446345615e-01 0.0000000000000000e+00  4.8004416043711192e-16 -5.1193740446345581e-01 0.0000000000000000e+00  5.0548208357666340e-16 -5.1193740446345537e-01 0.0000000000000000e+00  5.0936272228544478e-16 -5.1193740446345448e-01 0.0000000000000000e+00  5.5347170143951564e-16 -5.1193740446345437e-01 0.0000000000000000e+00  4.7588169138876610e-16 -5.1193740446345404e-01 0.0000000000000000e+00  2.6543087360110610e-16 -5.1193740446345415e-01 0.0000000000000000e+00  1.0644091837197178e-16 -5.1193740446345426e-01 0.0000000000000000e+00  -5.5456464916507510e-33 -5.1193740446345415e-01 0.0000000000000000e+00  7.2222372914521290e-33 -5.4878279827357446e-01 0.0000000000000000e+00  2.4318547721223398e-16 -5.4878279827357479e-01 0.0000000000000000e+00  4.0751965356898495e-16 -5.4878279827357479e-01 0.0000000000000000e+00  5.4131282051117072e-16 -5.4878279827357401e-01 0.0000000000000000e+00  5.7422689024349753e-16 -5.4878279827357368e-01 0.0000000000000000e+00  5.3533369873566727e-16 -5.4878279827357257e-01 0.0000000000000000e+00  6.0416373388946278e-16 -5.4878279827357279e-01 0.0000000000000000e+00  4.6636200650104589e-16 -5.4878279827357257e-01 0.0000000000000000e+00  3.1132783205972743e-16 -5.4878279827357235e-01 0.0000000000000000e+00  1.6303797256163777e-16 -5.4878279827357246e-01 0.0000000000000000e+00  1.8055593228630316e-33 -5.4878279827357213e-01 0.0000000000000000e+00  3.2157940622158673e-32 -5.8567973462662370e-01 0.0000000000000000e+00  3.0098256661108451e-16 -5.8567973462662337e-01 0.0000000000000000e+00  3.6753004015315510e-16 -5.8567973462662326e-01 0.0000000000000000e+00  5.9201777595901989e-16 -5.8567973462662315e-01 0.0000000000000000e+00  6.7689813717441468e-16 -5.8567973462662215e-01 0.0000000000000000e+00  6.8749198226965429e-16 -5.8567973462662171e-01 0.0000000000000000e+00  5.3016355901710650e-16 -5.8567973462662204e-01 0.0000000000000000e+00  3.5385200776033811e-16 -5.8567973462662126e-01 0.0000000000000000e+00  2.5923041641275349e-16 -5.8567973462662126e-01 0.0000000000000000e+00  8.9751754540600056e-17 -5.8567973462662104e-01 0.0000000000000000e+00  -7.3338473683153230e-33 -5.8567973462662126e-01 0.0000000000000000e+00  -2.1666711874356398e-32 -6.2262972970604968e-01 0.0000000000000000e+00  2.0585691828408605e-16 -6.2262972970604902e-01 0.0000000000000000e+00  5.2666746666651018e-16 -6.2262972970604935e-01 0.0000000000000000e+00  6.2744077560071231e-16 -6.2262972970604880e-01 0.0000000000000000e+00  6.6775557235475881e-16 -6.2262972970604835e-01 0.0000000000000000e+00  6.7161815787206180e-16 -6.2262972970604780e-01 0.0000000000000000e+00  4.5593346623479023e-16 -6.2262972970604680e-01 0.0000000000000000e+00  3.0149305982585855e-16 -6.2262972970604680e-01 0.0000000000000000e+00  1.6180703302856854e-16 -6.2262972970604724e-01 0.0000000000000000e+00  6.7296759959376950e-17 -6.2262972970604702e-01 0.0000000000000000e+00  1.5625410760845762e-33 -6.2262972970604757e-01 0.0000000000000000e+00  9.4791864450309224e-33 -6.5963397257060608e-01 0.0000000000000000e+00  9.7079961495284723e-17 -6.5963397257060685e-01 0.0000000000000000e+00  2.6289905818377010e-16 -6.5963397257060608e-01 0.0000000000000000e+00  5.0823356490492582e-16 -6.5963397257060619e-01 0.0000000000000000e+00  6.4841077872973394e-16 -6.5963397257060519e-01 0.0000000000000000e+00  5.6320069619138264e-16 -6.5963397257060463e-01 0.0000000000000000e+00  3.5952816035579149e-16 -6.5963397257060419e-01 0.0000000000000000e+00  2.2569409856582521e-16 -6.5963397257060397e-01 0.0000000000000000e+00  1.1777488646842826e-16 -6.5963397257060419e-01 0.0000000000000000e+00  3.5396581983351702e-17 -6.5963397257060397e-01 0.0000000000000000e+00  -3.6070883793803886e-33 -6.5963397257060519e-01 0.0000000000000000e+00  1.8055593228630350e-32 -6.9669331782341415e-01 0.0000000000000000e+00  1.3959427878658432e-16 -6.9669331782341470e-01 0.0000000000000000e+00  3.7956036973172979e-17 -6.9669331782341415e-01 0.0000000000000000e+00  1.1028859390893058e-16 -6.9669331782341470e-01 0.0000000000000000e+00  1.7962433883545859e-16 -6.9669331782341348e-01 0.0000000000000000e+00  1.2140469248930174e-16 -6.9669331782341293e-01 0.0000000000000000e+00  1.7295990669984869e-16 -6.9669331782341115e-01 0.0000000000000000e+00  1.4010385332009777e-16 -6.9669331782341182e-01 0.0000000000000000e+00  1.1069434028790308e-16 -6.9669331782341137e-01 0.0000000000000000e+00  5.8297571279751099e-17 -6.9669331782341182e-01 0.0000000000000000e+00  -1.2695338988880716e-32 -6.9669331782341259e-01 0.0000000000000000e+00  -1.8958372890061845e-32 -7.3380828034304635e-01 0.0000000000000000e+00  8.5305730132372775e-17 -7.3380828034304590e-01 0.0000000000000000e+00  -1.0917258469746138e-16 -7.3380828034304590e-01 0.0000000000000000e+00  -2.0391062685201701e-16 -7.3380828034304590e-01 0.0000000000000000e+00  -5.1657358802510967e-16 -7.3380828034304568e-01 0.0000000000000000e+00  -4.6219742086457190e-16 -7.3380828034304391e-01 0.0000000000000000e+00  -1.7678781630559510e-16 -7.3380828034304380e-01 0.0000000000000000e+00  4.7579146265470666e-17 -7.3380828034304357e-01 0.0000000000000000e+00  2.1070764774708408e-16 -7.3380828034304302e-01 0.0000000000000000e+00  2.8435243377457566e-16 -7.3380828034304380e-01 0.0000000000000000e+00  2.8888949165808516e-32 -7.3380828034304391e-01 0.0000000000000000e+00  1.5140870922982588e-17 -1.8216161691361740e-02 0.0000000000000000e+00  3.9614985553941739e-17 -1.8216161691361730e-02 0.0000000000000000e+00  5.4482370609693459e-17 -1.8216161691361723e-02 0.0000000000000000e+00  8.0692908979207904e-17 -1.8216161691361719e-02 0.0000000000000000e+00  1.0064104570957262e-16 -1.8216161691361706e-02 0.0000000000000000e+00  1.0112100321008759e-16 -1.8216161691361695e-02 0.0000000000000000e+00  8.0926579307824626e-17 -1.8216161691361692e-02 0.0000000000000000e+00  6.2049366527706497e-17 -1.8216161691361674e-02 0.0000000000000000e+00  3.0461801344410838e-17 -1.8216161691361674e-02 0.0000000000000000e+00  7.3262278659593055e-18 -1.8216161691361664e-02 0.0000000000000000e+00  2.8509156892418318e-17 -5.4650675412539047e-02 0.0000000000000000e+00  8.4223954568209039e-17 -5.4650675412538964e-02 0.0000000000000000e+00  1.5370871708698159e-16 -5.4650675412538964e-02 0.0000000000000000e+00  1.9160949664267567e-16 -5.4650675412538915e-02 0.0000000000000000e+00  2.4003827051939590e-16 -5.4650675412538895e-02 0.0000000000000000e+00  2.4254577563456601e-16 -5.4650675412538798e-02 0.0000000000000000e+00  2.0445840840039996e-16 -5.4650675412538818e-02 0.0000000000000000e+00  1.4739192049436600e-16 -5.4650675412538728e-02 0.0000000000000000e+00  8.7434557122621987e-17 -5.4650675412538756e-02 0.0000000000000000e+00  2.6099828494709615e-17 -5.4650675412538749e-02 0.0000000000000000e+00  4.1884344973769663e-17 -9.1091746644912971e-02 0.0000000000000000e+00  1.2062016171992261e-16 -9.1091746644912985e-02 0.0000000000000000e+00  1.8950389777847025e-16 -9.1091746644912874e-02 0.0000000000000000e+00  2.5397045831572194e-16 -9.1091746644912833e-02 0.0000000000000000e+00  2.9899503871714186e-16 -9.1091746644912763e-02 0.0000000000000000e+00  2.9310616124759535e-16 -9.1091746644912611e-02 0.0000000000000000e+00  2.5180287823477112e-16 -9.1091746644912541e-02 0.0000000000000000e+00  2.1055988642052240e-16 -9.1091746644912444e-02 0.0000000000000000e+00  1.3180320390244136e-16 -9.1091746644912486e-02 0.0000000000000000e+00  5.2022632761642008e-17 -9.1091746644912527e-02 0.0000000000000000e+00  4.7119888095490954e-17 -1.2754370213198921e-01 0.0000000000000000e+00  1.5160311822277634e-16 -1.2754370213198923e-01 0.0000000000000000e+00  2.1477108414893319e-16 -1.2754370213198910e-01 0.0000000000000000e+00  2.7372785234667937e-16 -1.2754370213198904e-01 0.0000000000000000e+00  3.1162863190237347e-16 -1.2754370213198890e-01 0.0000000000000000e+00  2.5419392850748313e-16 -1.2754370213198871e-01 0.0000000000000000e+00  2.6824178030501600e-16 -1.2754370213198854e-01 0.0000000000000000e+00  2.2740467733416458e-16 -1.2754370213198846e-01 0.0000000000000000e+00  1.5287718558401443e-16 -1.2754370213198840e-01 0.0000000000000000e+00  4.2509511446743982e-17 -1.2754370213198843e-01 0.0000000000000000e+00  5.7590974338933328e-17 -1.6401080151222358e-01 0.0000000000000000e+00  1.6642928801323602e-16 -1.6401080151222355e-01 0.0000000000000000e+00  2.4846066597621643e-16 -1.6401080151222328e-01 0.0000000000000000e+00  2.9191797010407722e-16 -1.6401080151222316e-01 0.0000000000000000e+00  2.7793905007508956e-16 -1.6401080151222297e-01 0.0000000000000000e+00  3.1319560349442227e-16 -1.6401080151222291e-01 0.0000000000000000e+00  2.7599207612400831e-16 -1.6401080151222266e-01 0.0000000000000000e+00  2.1477108414893284e-16 -1.6401080151222266e-01 0.0000000000000000e+00  1.3550783002918524e-16 -1.6401080151222247e-01