<?xml version="1.0"?>
<VTKFile type="UnstructuredGrid"  version="0.1"  >
<UnstructuredGrid>
<Piece  NumberOfPoints="431" NumberOfCells="800">
<Points>
<DataArray  type="Float64"  NumberOfComponents="3"  format="ascii">-0.25 -1 0  -0.2 -1 0  -0.15 -1 0  -0.1 -1 0  -0.04999999999999999 -1 0  0 -1 0  0.04999999999999999 -1 0  0.09999999999999998 -1 0  0.15 -1 0  0.2 -1 0  0.25 -1 0  -0.25 -0.95 0  -0.2 -0.95 0  -0.15 -0.95 0  -0.1 -0.95 0  -0.04999999999999999 -0.95 0  0 -0.95 0  0.04999999999999999 -0.95 0  0.09999999999999998 -0.95 0  0.15 -0.95 0  0.2 -0.95 0  0.25 -0.95 0  -0.25 -0.9 0  -0.2 -0.9 0  -0.15 -0.9 0  -0.1 -0.9 0  -0.04999999999999999 -0.9 0  0 -0.9 0  0.04999999999999999 -0.9 0  0.09999999999999998 -0.9 0  0.15 -0.9 0  0.2 -0.9 0  0.25 -0.9 0  -0.25 -0.85 0  -0.2 -0.85 0  -0.15 -0.85 0  -0.1 -0.85 0  -0.04999999999999999 -0.85 0  0 -0.85 0  0.04999999999999999 -0.85 0  0.09999999999999998 -0.85 0  0.15 -0.85 0  0.2 -0.85 0  0.25 -0.85 0  -0.25 -0.8 0  -0.2 -0.8 0  -0.15 -0.8 0  -0.1 -0.8 0  -0.04999999999999999 -0.8 0  0 -0.8 0  0.04999999999999999 -0.8 0  0.09999999999999998 -0.8 0  0.15 -0.8 0  0.2 -0.8 0  0.25 -0.8 0  -0.25 -0.75 0  -0.2 -0.75 0  -0.15 -0.75 0  -0.1 -0.75 0  -0.04999999999999999 -0.75 0  0 -0.75 0  0.04999999999999999 -0.75 0  0.09999999999999998 -0.75 0  0.15 -0.75 0  0.2 -0.75 0  0.25 -0.75 0  -0.25 -0.7 0  -0.2 -0.7 0  -0.15 -0.7 0  -0.1 -0.7 0  -0.04999999999999999 -0.7 0  0 -0.7 0  0.04999999999999999 -0.7 0  0.09999999999999998 -0.7 0  0.15 -0.7 0  0.2 -0.7 0  0.25 -0.7 0  -0.25 -0.65 0  -0.2 -0.65 0  -0.15 -0.65 0  -0.1 -0.65 0  -0.04999999999999999 -0.65 0  0 -0.65 0  0.04999999999999999 -0.65 0  0.09999999999999998 -0.65 0  0.15 -0.65 0  0.2 -0.65 0  0.25 -0.65 0  -0.25 -0.6 0  -0.2 -0.6 0  -0.15 -0.6 0  -0.1 -0.6 0  -0.04999999999999999 -0.6 0  0 -0.6 0  0.04999999999999999 -0.6 0  0.09999999999999998 -0.6 0  0.15 -0.6 0  0.2 -0.6 0  0.25 -0.6 0  -0.25 -0.55 0  -0.2 -0.55 0  -0.15 -0.55 0  -0.1 -0.55 0  -0.04999999999999999 -0.55 0  0 -0.55 0  0.04999999999999999 -0.55 0  0.09999999999999998 -0.55 0  0.15 -0.55 0  0.2 -0.55 0  0.25 -0.55 0  -0.25 -0.5 0  -0.2 -0.5 0  -0.15 -0.5 0  -0.1 -0.5 0  -0.04999999999999999 -0.5 0  0 -0.5 0  0.04999999999999999 -0.5 0  0.09999999999999998 -0.5 0  0.15 -0.5 0  0.2 -0.5 0  0.25 -0.5 0  -0.25 -0.45 0  -0.2 -0.45 0  -0.15 -0.45 0  -0.1 -0.45 0  -0.04999999999999999 -0.45 0  0 -0.45 0  0.04999999999999999 -0.45 0  0.09999999999999998 -0.45 0  0.15 -0.45 0  0.2 -0.45 0  0.25 -0.45 0  -0.25 -0.4 0  -0.2 -0.4 0  -0.15 -0.4 0  -0.1 -0.4 0  -0.04999999999999999 -0.4 0  0 -0.4 0  0.04999999999999999 -0.4 0  0.09999999999999998 -0.4 0  0.15 -0.4 0  0.2 -0.4 0  0.25 -0.4 0  -0.25 -0.35 0  -0.2 -0.35 0  -0.15 -0.35 0  -0.1 -0.35 0  -0.04999999999999999 -0.35 0  0 -0.35 0  0.04999999999999999 -0.35 0  0.09999999999999998 -0.35 0  0.15 -0.35 0  0.2 -0.35 0  0.25 -0.35 0  -0.25 -0.3 0  -0.2 -0.3 0  -0.15 -0.3 0  -0.1 -0.3 0  -0.04999999999999999 -0.3 0  0 -0.3 0  0.04999999999999999 -0.3 0  0.09999999999999998 -0.3 0  0.15 -0.3 0  0.2 -0.3 0  0.25 -0.3 0  -0.25 -0.25 0  -0.2 -0.25 0  -0.15 -0.25 0  -0.1 -0.25 0  -0.04999999999999999 -0.25 0  0 -0.25 0  0.04999999999999999 -0.25 0  0.09999999999999998 -0.25 0  0.15 -0.25 0  0.2 -0.25 0  0.25 -0.25 0  -0.25 -0.2 0  -0.2 -0.2 0  -0.15 -0.2 0  -0.1 -0.2 0  -0.04999999999999999 -0.2 0  0 -0.2 0  0.04999999999999999 -0.2 0  0.09999999999999998 -0.2 0  0.15 -0.2 0  0.2 -0.2 0  0.25 -0.2 0  -0.25 -0.15 0  -0.2 -0.15 0  -0.15 -0.15 0  -0.1 -0.15 0  -0.04999999999999999 -0.15 0  0 -0.15 0  0.04999999999999999 -0.15 0  0.09999999999999998 -0.15 0  0.15 -0.15 0  0.2 -0.15 0  0.25 -0.15 0  -0.25 -0.09999999999999998 0  -0.2 -0.09999999999999998 0  -0.15 -0.09999999999999998 0  -0.1 -0.09999999999999998 0  -0.04999999999999999 -0.09999999999999998 0  0 -0.09999999999999998 0  0.04999999999999999 -0.09999999999999998 0  0.09999999999999998 -0.09999999999999998 0  0.15 -0.09999999999999998 0  0.2 -0.09999999999999998 0  0.25 -0.09999999999999998 0  -0.25 -0.05000000000000004 0  -0.2 -0.05000000000000004 0  -0.15 -0.05000000000000004 0  -0.1 -0.05000000000000004 0  -0.04999999999999999 -0.05000000000000004 0  0 -0.05000000000000004 0  0.04999999999999999 -0.05000000000000004 0  0.09999999999999998 -0.05000000000000004 0  0.15 -0.05000000000000004 0  0.2 -0.05000000000000004 0  0.25 -0.05000000000000004 0  -0.25 0 0  -0.2 0 0  -0.15 0 0  -0.1 0 0  -0.04999999999999999 0 0  0 0 0  0.04999999999999999 0 0  0.09999999999999998 0 0  0.15 0 0  0.2 0 0  0.25 0 0  -0.225 -0.975 0  -0.175 -0.975 0  -0.125 -0.975 0  -0.07500000000000001 -0.975 0  -0.02499999999999999 -0.975 0  0.02500000000000002 -0.975 0  0.07500000000000001 -0.975 0  0.125 -0.975 0  0.175 -0.975 0  0.225 -0.975 0  -0.225 -0.925 0  -0.175 -0.925 0  -0.125 -0.925 0  -0.07500000000000001 -0.925 0  -0.02499999999999999 -0.925 0  0.02500000000000002 -0.925 0  0.07500000000000001 -0.925 0  0.125 -0.925 0  0.175 -0.925 0  0.225 -0.925 0  -0.225 -0.875 0  -0.175 -0.875 0  -0.125 -0.875 0  -0.07500000000000001 -0.875 0  -0.02499999999999999 -0.875 0  0.02500000000000002 -0.875 0  0.07500000000000001 -0.875 0  0.125 -0.875 0  0.175 -0.875 0  0.225 -0.875 0  -0.225 -0.825 0  -0.175 -0.825 0  -0.125 -0.825 0  -0.07500000000000001 -0.825 0  -0.02499999999999999 -0.825 0  0.02500000000000002 -0.825 0  0.07500000000000001 -0.825 0  0.125 -0.825 0  0.175 -0.825 0  0.225 -0.825 0  -0.225 -0.775 0  -0.175 -0.775 0  -0.125 -0.775 0  -0.07500000000000001 -0.775 0  -0.02499999999999999 -0.775 0  0.02500000000000002 -0.775 0  0.07500000000000001 -0.775 0  0.125 -0.775 0  0.175 -0.775 0  0.225 -0.775 0  -0.225 -0.725 0  -0.175 -0.725 0  -0.125 -0.725 0  -0.07500000000000001 -0.725 0  -0.02499999999999999 -0.725 0  0.02500000000000002 -0.725 0  0.07500000000000001 -0.725 0  0.125 -0.725 0  0.175 -0.725 0  0.225 -0.725 0  -0.225 -0.675 0  -0.175 -0.675 0  -0.125 -0.675 0  -0.07500000000000001 -0.675 0  -0.02499999999999999 -0.675 0  0.02500000000000002 -0.675 0  0.07500000000000001 -0.675 0  0.125 -0.675 0  0.175 -0.675 0  0.225 -0.675 0  -0.225 -0.625 0  -0.175 -0.625 0  -0.125 -0.625 0  -0.07500000000000001 -0.625 0  -0.02499999999999999 -0.625 0  0.02500000000000002 -0.625 0  0.07500000000000001 -0.625 0  0.125 -0.625 0  0.175 -0.625 0  0.225 -0.625 0  -0.225 -0.575 0  -0.175 -0.575 0  -0.125 -0.575 0  -0.07500000000000001 -0.575 0  -0.02499999999999999 -0.575 0  0.02500000000000002 -0.575 0  0.07500000000000001 -0.575 0  0.125 -0.575 0  0.175 -0.575 0  0.225 -0.575 0  -0.225 -0.525 0  -0.175 -0.525 0  -0.125 -0.525 0  -0.07500000000000001 -0.525 0  -0.02499999999999999 -0.525 0  0.02500000000000002 -0.525 0  0.07500000000000001 -0.525 0  0.125 -0.525 0  0.175 -0.525 0  0.225 -0.525 0  -0.225 -0.475 0  -0.175 -0.475 0  -0.125 -0.475 0  -0.07500000000000001 -0.475 0  -0.02499999999999999 -0.475 0  0.02500000000000002 -0.475 0  0.07500000000000001 -0.475 0  0.125 -0.475 0  0.175 -0.475 0  0.225 -0.475 0  -0.225 -0.425 0  -0.175 -0.425 0  -0.125 -0.425 0  -0.07500000000000001 -0.425 0  -0.02499999999999999 -0.425 0  0.02500000000000002 -0.425 0  0.07500000000000001 -0.425 0  0.125 -0.425 0  0.175 -0.425 0  0.225 -0.425 0  -0.225 -0.375 0  -0.175 -0.375 0  -0.125 -0.375 0  -0.07500000000000001 -0.375 0  -0.02499999999999999 -0.375 0  0.02500000000000002 -0.375 0  0.07500000000000001 -0.375 0  0.125 -0.375 0  0.175 -0.375 0  0.225 -0.375 0  -0.225 -0.325 0  -0.175 -0.325 0  -0.125 -0.325 0  -0.07500000000000001 -0.325 0  -0.02499999999999999 -0.325 0  0.02500000000000002 -0.325 0  0.07500000000000001 -0.325 0  0.125 -0.325 0  0.175 -0.325 0  0.225 -0.325 0  -0.225 -0.275 0  -0.175 -0.275 0  -0.125 -0.275 0  -0.07500000000000001 -0.275 0  -0.02499999999999999 -0.275 0  0.02500000000000002 -0.275 0  0.07500000000000001 -0.275 0  0.125 -0.275 0  0.175 -0.275 0  0.225 -0.275 0  -0.225 -0.225 0  -0.175 -0.225 0  -0.125 -0.225 0  -0.07500000000000001 -0.225 0  -0.02499999999999999 -0.225 0  0.02500000000000002 -0.225 0  0.07500000000000001 -0.225 0  0.125 -0.225 0  0.175 -0.225 0  0.225 -0.225 0  -0.225 -0.175 0  -0.175 -0.175 0  -0.125 -0.175 0  -0.07500000000000001 -0.175 0  -0.02499999999999999 -0.175 0  0.02500000000000002 -0.175 0  0.07500000000000001 -0.175 0  0.125 -0.175 0  0.175 -0.175 0  0.225 -0.175 0  -0.225 -0.125 0  -0.175 -0.125 0  -0.125 -0.125 0  -0.07500000000000001 -0.125 0  -0.02499999999999999 -0.125 0  0.02500000000000002 -0.125 0  0.07500000000000001 -0.125 0  0.125 -0.125 0  0.175 -0.125 0  0.225 -0.125 0  -0.225 -0.07499999999999996 0  -0.175 -0.07499999999999996 0  -0.125 -0.07499999999999996 0  -0.07500000000000001 -0.07499999999999996 0  -0.02499999999999999 -0.07499999999999996 0  0.02500000000000002 -0.07499999999999996 0  0.07500000000000001 -0.07499999999999996 0  0.125 -0.07499999999999996 0  0.175 -0.07499999999999996 0  0.225 -0.07499999999999996 0  -0.225 -0.02500000000000002 0  -0.175 -0.02500000000000002 0  -0.125 -0.02500000000000002 0  -0.07500000000000001 -0.02500000000000002 0  -0.02499999999999999 -0.02500000000000002 0  0.02500000000000002 -0.02500000000000002 0  0.07500000000000001 -0.02500000000000002 0  0.125 -0.02500000000000002 0  0.175 -0.02500000000000002 0  0.225 -0.02500000000000002 0  </DataArray>
</Points>
<Cells>
[...]
<PointData  Vectors="displacement"> 
<DataArray  type="Float64"  Name="displacement"  NumberOfComponents="3" format="ascii">-2.7083389842945470e-33 -7.1150767569361167e-18 0.0000000000000000e+00  -9.0277966143151578e-34 3.5575383784680576e-18 0.0000000000000000e+00  1.2469644073522815e-32 -1.7628873214730110e-18 0.0000000000000000e+00  9.0277966143151612e-33 -5.0821976835257982e-18 0.0000000000000000e+00  5.3541510609616565e-33 2.0453277152474821e-18 0.0000000000000000e+00  4.5138983071575786e-33 -5.0821976835257963e-19 0.0000000000000000e+00  -1.2130220079722881e-32 2.4150365164098177e-18 0.0000000000000000e+00  7.2222372914521262e-33 -8.6397360619938542e-18 0.0000000000000000e+00  -1.1086590494384085e-35 3.3034284942917675e-18 0.0000000000000000e+00  3.6111186457260645e-33 -3.0493186101154789e-18 0.0000000000000000e+00  -2.0312542382209101e-33 1.0164395367051591e-18 0.0000000000000000e+00  -3.6111186457260700e-33 -3.6075925566722261e-02 0.0000000000000000e+00  5.3176692882968772e-17 -3.6075925566722254e-02 0.0000000000000000e+00  9.7762758478186888e-17 -3.6075925566722226e-02 0.0000000000000000e+00  1.2801292877393416e-16 -3.6075925566722199e-02 0.0000000000000000e+00  1.4296557335248233e-16 -3.6075925566722171e-02 0.0000000000000000e+00  1.3310101341533956e-16 -3.6075925566722129e-02 0.0000000000000000e+00  9.1567722567676814e-17 -3.6075925566722108e-02 0.0000000000000000e+00  5.1799610921071738e-17 -3.6075925566722129e-02 0.0000000000000000e+00  3.2629587283181636e-17 -3.6075925566722178e-02 0.0000000000000000e+00  1.6617716525927731e-17 -3.6075925566722129e-02 0.0000000000000000e+00  1.8626461904716593e-33 -3.6075925566722164e-02 0.0000000000000000e+00  7.2883960600426618e-33 -7.2158429121402107e-02 0.0000000000000000e+00  6.5175172318791316e-17 -7.2158429121402079e-02 0.0000000000000000e+00  1.4005721301318640e-16 -7.2158429121402093e-02 0.0000000000000000e+00  1.9864039909696303e-16 -7.2158429121402010e-02 0.0000000000000000e+00  2.3261499600798195e-16 -7.2158429121401899e-02 0.0000000000000000e+00  2.1300100169718190e-16 -7.2158429121401843e-02 0.0000000000000000e+00  1.4972579207872766e-16 -7.2158429121401746e-02 0.0000000000000000e+00  8.9806047180164933e-17 -7.2158429121401801e-02 0.0000000000000000e+00  5.2132633407916252e-17 -7.2158429121401857e-02 0.0000000000000000e+00  2.7347264687149086e-17 -7.2158429121401801e-02 0.0000000000000000e+00  -2.2569491535787917e-33 -7.2158429121401899e-02 0.0000000000000000e+00  1.8055593228630329e-33 -1.0825404809651411e-01 0.0000000000000000e+00  6.6304212396389683e-17 -1.0825404809651405e-01 0.0000000000000000e+00  1.5785407435644384e-16 -1.0825404809651400e-01 0.0000000000000000e+00  2.4087031694178353e-16 -1.0825404809651391e-01 0.0000000000000000e+00  2.6120353221174464e-16 -1.0825404809651384e-01 0.0000000000000000e+00  2.3757468081081848e-16 -1.0825404809651361e-01 0.0000000000000000e+00  1.8676967425041496e-16 -1.0825404809651354e-01 0.0000000000000000e+00  1.4736772567437666e-16 -1.0825404809651359e-01 0.0000000000000000e+00  9.6857547751915416e-17 -1.0825404809651355e-01 0.0000000000000000e+00  4.8915492201710996e-17 -1.0825404809651362e-01 0.0000000000000000e+00  6.3194576300206135e-33 -1.0825404809651371e-01 0.0000000000000000e+00  1.2787051734449572e-32 -1.4436923906360435e-01 0.0000000000000000e+00  1.0138360138478636e-16 -1.4436923906360416e-01 0.0000000000000000e+00  1.7421671607549346e-16 -1.4436923906360438e-01 0.0000000000000000e+00  2.2785778646116196e-16 -1.4436923906360408e-01 0.0000000000000000e+00  2.6618259391252531e-16 -1.4436923906360385e-01 0.0000000000000000e+00  2.5741298614313442e-16 -1.4436923906360369e-01 0.0000000000000000e+00  2.2744227731030083e-16 -1.4436923906360366e-01 0.0000000000000000e+00  1.9085044704911442e-16 -1.4436923906360363e-01 0.0000000000000000e+00  1.4349584902844527e-16 -1.4436923906360366e-01 0.0000000000000000e+00  8.1348669358537433e-17 -1.4436923906360363e-01 0.0000000000000000e+00  -8.9834746558252689e-33 -1.4436923906360360e-01 0.0000000000000000e+00  -1.9861152551493353e-32 -1.8051033792638002e-01 0.0000000000000000e+00  1.1725590397354159e-16 -1.8051033792638008e-01 0.0000000000000000e+00  1.4322566648945661e-16 -1.8051033792637991e-01 0.0000000000000000e+00  2.4163650899049470e-16 -1.8051033792637980e-01 0.0000000000000000e+00  2.6981745445176389e-16 -1.8051033792637966e-01 0.0000000000000000e+00  3.0533466728484018e-16 -1.8051033792637941e-01 0.0000000000000000e+00  3.3031288431857821e-16 -1.8051033792637924e-01 0.0000000000000000e+00  2.7868164967013108e-16 -1.8051033792637916e-01 0.0000000000000000e+00  1.7870271610199180e-16 -1.8051033792637911e-01 0.0000000000000000e+00  7.8385591360837837e-17 -1.8051033792637908e-01 0.0000000000000000e+00  2.4657323101223745e-32 -1.8051033792637919e-01 0.0000000000000000e+00  1.8213171539308882e-32 -2.1668352085775655e-01 0.0000000000000000e+00  1.3712595737384515e-16 -2.1668352085775630e-01 0.0000000000000000e+00  1.9371509550383066e-16 -2.1668352085775633e-01 0.0000000000000000e+00  2.7353911871944334e-16 -2.1668352085775597e-01 0.0000000000000000e+00  3.1478703019372489e-16 -2.1668352085775594e-01 0.0000000000000000e+00  3.5213507925914142e-16 -2.1668352085775558e-01 0.0000000000000000e+00  2.9613129107734582e-16 -2.1668352085775552e-01 0.0000000000000000e+00  2.7160346023237459e-16 -2.1668352085775533e-01 0.0000000000000000e+00  2.1942499357271957e-16 -2.1668352085775536e-01 0.0000000000000000e+00  6.4884993274467319e-17 -2.1668352085775541e-01 0.0000000000000000e+00  -1.1478198552486433e-32 -2.1668352085775539e-01 0.0000000000000000e+00  -1.8055593228630333e-33 -2.5289476622169660e-01 0.0000000000000000e+00  1.1904299619764383e-16 -2.5289476622169654e-01 0.0000000000000000e+00  2.7206674551457066e-16 -2.5289476622169632e-01 0.0000000000000000e+00  3.3130581712958604e-16 -2.5289476622169610e-01 0.0000000000000000e+00  3.5629740780168848e-16 -2.5289476622169604e-01 0.0000000000000000e+00  3.3952091174522856e-16 -2.5289476622169582e-01 0.0000000000000000e+00  3.0409523850696588e-16 -2.5289476622169532e-01 0.0000000000000000e+00  2.2653752030728734e-16 -2.5289476622169538e-01 0.0000000000000000e+00  1.5566391602986389e-16 -2.5289476622169543e-01 0.0000000000000000e+00  9.2197208036920287e-17 -2.5289476622169521e-01 0.0000000000000000e+00  9.0277966143151653e-33 -2.5289476622169549e-01 0.0000000000000000e+00  3.0570192271635157e-32 -2.8914981771461029e-01 0.0000000000000000e+00  1.1552751898869080e-16 -2.8914981771460974e-01 0.0000000000000000e+00  2.5771026098277455e-16 -2.8914981771460968e-01 0.0000000000000000e+00  3.7532299753867174e-16 -2.8914981771460935e-01 0.0000000000000000e+00  4.1089125647700585e-16 -2.8914981771460918e-01 0.0000000000000000e+00  3.8299809339847743e-16 -2.8914981771460907e-01 0.0000000000000000e+00  3.0193950684570912e-16 -2.8914981771460868e-01 0.0000000000000000e+00  2.3302311736957720e-16 -2.8914981771460874e-01 0.0000000000000000e+00  1.5001569407669701e-16 -2.8914981771460857e-01 0.0000000000000000e+00  9.8392167068424108e-17 -2.8914981771460868e-01 0.0000000000000000e+00  4.2909741999123550e-33 -2.8914981771460885e-01 0.0000000000000000e+00  9.0277966143151749e-34 -3.2545414895355368e-01 0.0000000000000000e+00  1.1841355363382343e-16 -3.2545414895355407e-01 0.0000000000000000e+00  2.6132485278294709e-16 -3.2545414895355368e-01 0.0000000000000000e+00  3.2753847805580721e-16 -3.2545414895355335e-01 0.0000000000000000e+00  2.9057264325574603e-16 -3.2545414895355329e-01 0.0000000000000000e+00  3.1843460552627069e-16 -3.2545414895355262e-01 0.0000000000000000e+00  2.8183343859495472e-16 -3.2545414895355257e-01 0.0000000000000000e+00  2.3198247486117194e-16 -3.2545414895355229e-01 0.0000000000000000e+00  2.2400243851802667e-16 -3.2545414895355240e-01 0.0000000000000000e+00  1.3730009115148857e-16 -3.2545414895355229e-01 0.0000000000000000e+00  -9.5179777586080688e-33 -3.2545414895355285e-01 0.0000000000000000e+00  1.7629932863664958e-33 -3.6181292972956369e-01 0.0000000000000000e+00  8.2873775001511139e-17 -3.6181292972956403e-01 0.0000000000000000e+00  2.3868467124579119e-16 -3.6181292972956397e-01 0.0000000000000000e+00  3.4922701092591514e-16 -3.6181292972956325e-01 0.0000000000000000e+00  3.1824622832772166e-16 -3.6181292972956292e-01 0.0000000000000000e+00  2.9337583523549461e-16 -3.6181292972956280e-01 0.0000000000000000e+00  2.7148219498621005e-16 -3.6181292972956242e-01 0.0000000000000000e+00  2.3608619307430819e-16 -3.6181292972956225e-01 0.0000000000000000e+00  1.7445993193264546e-16 -3.6181292972956264e-01 0.0000000000000000e+00  1.2663226209194391e-16 -3.6181292972956236e-01 0.0000000000000000e+00  2.9340338996524263e-32 -3.6181292972956219e-01 0.0000000000000000e+00  2.2569491535787937e-33 -3.9823099413417390e-01 0.0000000000000000e+00  1.5453948471544361e-16 -3.9823099413417329e-01 0.0000000000000000e+00  1.3145117706275440e-16 -3.9823099413417357e-01 0.0000000000000000e+00  3.1231341208180764e-16 -3.9823099413417279e-01 0.0000000000000000e+00  3.7013420033767619e-16 -3.9823099413417257e-01 0.0000000000000000e+00  3.7431869352533086e-16 -3.9823099413417218e-01 0.0000000000000000e+00  2.3563221981286715e-16 -3.9823099413417185e-01 0.0000000000000000e+00  1.8845243294050976e-16 -3.9823099413417201e-01 0.0000000000000000e+00  1.7987830296784265e-16 -3.9823099413417185e-01 0.0000000000000000e+00  4.3209677014185164e-17 -3.9823099413417173e-01 0.0000000000000000e+00  -6.3194576300206217e-33 -3.9823099413417207e-01 0.0000000000000000e+00  -8.2578110803281052e-33 -4.3471281075563267e-01 0.0000000000000000e+00  3.7283366803891933e-17 -4.3471281075563173e-01 0.0000000000000000e+00  1.9536868679933019e-16 -4.3471281075563245e-01 0.0000000000000000e+00  2.6447326358459297e-16 -4.3471281075563201e-01 0.0000000000000000e+00  4.5322747713746036e-16 -4.3471281075563090e-01 0.0000000000000000e+00  4.9250333432781991e-16 -4.3471281075563090e-01 0.0000000000000000e+00  4.1740443870179717e-16 -4.3471281075563034e-01 0.0000000000000000e+00  2.1220970279674453e-16 -4.3471281075563073e-01 0.0000000000000000e+00  1.1930179814476280e-16 -4.3471281075563123e-01 0.0000000000000000e+00  5.6087046029450458e-17 -4.3471281075563067e-01 0.0000000000000000e+00  3.0957483367726894e-34 -4.3471281075563123e-01 0.0000000000000000e+00  9.0277966143151653e-33 -4.7126245512857279e-01 0.0000000000000000e+00  3.8373443673770809e-17 -4.7126245512857257e-01 0.0000000000000000e+00  2.0716340387437955e-16 -4.7126245512857257e-01 0.0000000000000000e+00  3.8262521320344797e-16 -4.7126245512857229e-01 0.0000000000000000e+00  4.7391014435758562e-16 -4.7126245512857201e-01 0.0000000000000000e+00  5.2842857942829362e-16 -4.7126245512857118e-01 0.0000000000000000e+00  4.4750715586583447e-16 -4.7126245512857073e-01 0.0000000000000000e+00  3.4181201561557598e-16 -4.7126245512857151e-01 0.0000000000000000e+00  2.1236887239508179e-16 -4.7126245512857190e-01 0.0000000000000000e+00  1.1876769161290402e-16 -4.7126245512857123e-01 0.0000000000000000e+00  8.3048675885594571e-33 -4.7126245512857157e-01 0.0000000000000000e+00  1.4808475201718563e-32 -5.0788358460698479e-01 0.0000000000000000e+00  1.6310405990483491e-16 -5.0788358460698524e-01 0.0000000000000000e+00  2.9749103952373971e-16 -5.0788358460698479e-01 0.0000000000000000e+00  4.1515339655885929e-16 -5.0788358460698446e-01 0.0000000000000000e+00  3.9067994550463899e-16 -5.0788358460698368e-01 0.0000000000000000e+00  4.0558970999042663e-16 -5.0788358460698335e-01 0.0000000000000000e+00  5.5001250330551847e-16 -5.0788358460698302e-01 0.0000000000000000e+00  5.3854102402204202e-16 -5.0788358460698380e-01 0.0000000000000000e+00  3.4714587781791980e-16 -5.0788358460698313e-01 0.0000000000000000e+00  1.4250769769080656e-16 -5.0788358460698368e-01 0.0000000000000000e+00  -1.8055593228630350e-32 -5.0788358460698346e-01 0.0000000000000000e+00  2.5277830520082449e-32 -5.4457941581541225e-01 0.0000000000000000e+00  2.9852864231061081e-16 -5.4457941581541180e-01 0.0000000000000000e+00  3.7173579051235980e-16 -5.4457941581541192e-01 0.0000000000000000e+00  4.2552591081579033e-16 -5.4457941581541125e-01 0.0000000000000000e+00  5.4655330517152131e-16 -5.4457941581541136e-01 0.0000000000000000e+00  5.6893648652713371e-16 -5.4457941581541047e-01 0.0000000000000000e+00  6.2095777394693591e-16 -5.4457941581541069e-01 0.0000000000000000e+00  5.1442857548894547e-16 -5.4457941581541036e-01 0.0000000000000000e+00  3.5975660593568510e-16 -5.4457941581541092e-01 0.0000000000000000e+00  1.8758449026224095e-16 -5.4457941581541025e-01 0.0000000000000000e+00  5.0555661040164886e-32 -5.4457941581541058e-01 0.0000000000000000e+00  7.0616120049970949e-32 -5.8135270481739065e-01 0.0000000000000000e+00  3.1637114896413254e-16 -5.8135270481739132e-01 0.0000000000000000e+00  4.0798306040594355e-16 -5.8135270481739021e-01 0.0000000000000000e+00  5.9795820556706032e-16 -5.8135270481739054e-01 0.0000000000000000e+00  6.6623893162961895e-16 -5.8135270481738999e-01 0.0000000000000000e+00  6.8790749142051527e-16 -5.8135270481738988e-01 0.0000000000000000e+00  5.8156825704264312e-16 -5.8135270481738921e-01 0.0000000000000000e+00  4.2663207627490272e-16 -5.8135270481738899e-01 0.0000000000000000e+00  3.1292568432279425e-16 -5.8135270481738910e-01 0.0000000000000000e+00  1.0012035609439075e-16 -5.8135270481738932e-01 0.0000000000000000e+00  -9.3570074964916128e-34 -5.8135270481738932e-01 0.0000000000000000e+00  -4.5138983071575832e-34 -6.1820573012340418e-01 0.0000000000000000e+00  1.9649605773377159e-16 -6.1820573012340385e-01 0.0000000000000000e+00  5.3623876532546995e-16 -6.1820573012340430e-01 0.0000000000000000e+00  6.4742575232017100e-16 -6.1820573012340385e-01 0.0000000000000000e+00  6.3871244783893944e-16 -6.1820573012340330e-01 0.0000000000000000e+00  6.8451655481137069e-16 -6.1820573012340230e-01 0.0000000000000000e+00  5.2183606495201017e-16 -6.1820573012340196e-01 0.0000000000000000e+00  3.8215166240975727e-16 -6.1820573012340208e-01 0.0000000000000000e+00  1.9206657139309770e-16 -6.1820573012340241e-01 0.0000000000000000e+00  7.3010902671354357e-17 -6.1820573012340252e-01 0.0000000000000000e+00  -1.2178020024994232e-32 -6.1820573012340296e-01 0.0000000000000000e+00  1.2187525429325473e-32 -6.5514027864310453e-01 0.0000000000000000e+00  5.4867690218901371e-17 -6.5514027864310442e-01 0.0000000000000000e+00  3.0440943579173379e-16 -6.5514027864310498e-01 0.0000000000000000e+00  5.9384365153658423e-16 -6.5514027864310409e-01 0.0000000000000000e+00  7.2772125944563844e-16 -6.5514027864310376e-01 0.0000000000000000e+00  6.4124885408968945e-16 -6.5514027864310298e-01 0.0000000000000000e+00  4.3335999826289215e-16 -6.5514027864310176e-01 0.0000000000000000e+00  2.5692653640554098e-16 -6.5514027864310254e-01 0.0000000000000000e+00  1.7412535919616620e-16 -6.5514027864310276e-01 0.0000000000000000e+00  8.2757676992871719e-17 -6.5514027864310231e-01 0.0000000000000000e+00  3.5224527861211845e-33 -6.5514027864310342e-01 0.0000000000000000e+00  -1.2638915260041246e-32 -6.9215763466842306e-01 0.0000000000000000e+00  1.7962952155928580e-16 -6.9215763466842428e-01 0.0000000000000000e+00  1.3503049309363085e-16 -6.9215763466842373e-01 0.0000000000000000e+00  2.7551431781802915e-16 -6.9215763466842428e-01 0.0000000000000000e+00  3.5960761274807065e-16 -6.9215763466842295e-01 0.0000000000000000e+00  3.0849349998613988e-16 -6.9215763466842228e-01 0.0000000000000000e+00  2.6289905818376990e-16 -6.9215763466842128e-01 0.0000000000000000e+00  1.6615722074770552e-16 -6.9215763466842128e-01 0.0000000000000000e+00  1.5220471789586667e-16 -6.9215763466842128e-01 0.0000000000000000e+00  1.0371179907664968e-16 -6.9215763466842162e-01 0.0000000000000000e+00  1.2413220344683366e-33 -6.9215763466842206e-01 0.0000000000000000e+00  -1.1284745767893948e-32 -7.2925857195548471e-01 0.0000000000000000e+00  1.9904670364220307e-16 -7.2925857195548438e-01 0.0000000000000000e+00  2.4995977964452575e-17 -7.2925857195548494e-01 0.0000000000000000e+00  -8.1564250740806802e-17 -7.2925857195548516e-01 0.0000000000000000e+00  -2.4469275222242039e-16 -7.2925857195548394e-01 0.0000000000000000e+00  -3.1266296117309261e-16 -7.2925857195548316e-01 0.0000000000000000e+00  -5.6338411620074924e-17 -7.2925857195548238e-01 0.0000000000000000e+00  1.3594041790134459e-16 -7.2925857195548272e-01 0.0000000000000000e+00  2.3789573132735329e-16 -7.2925857195548238e-01 0.0000000000000000e+00  2.5591719039711809e-16 -7.2925857195548305e-01 0.0000000000000000e+00  3.6111186457260645e-33 -7.2925857195548294e-01 0.0000000000000000e+00  1.7637979575887037e-17 -1.8037535847335025e-02 0.0000000000000000e+00  3.9530366880227831e-17 -1.8037535847335005e-02 0.0000000000000000e+00  5.7509168976898668e-17 -1.8037535847335001e-02 0.0000000000000000e+00  7.6057336553665395e-17 -1.8037535847335001e-02 0.0000000000000000e+00  7.4156559996527221e-17 -1.8037535847334977e-02 0.0000000000000000e+00  5.7666991758304837e-17 -1.8037535847334963e-02 0.0000000000000000e+00  3.2740848766457923e-17 -1.8037535847334973e-02 0.0000000000000000e+00  2.4214386937641557e-17 -1.8037535847334970e-02 0.0000000000000000e+00  1.6353017432533049e-17 -1.8037535847334963e-02 0.0000000000000000e+00  -1.9399025898596483e-18 -1.8037535847334987e-02 0.0000000000000000e+00  3.1126928453278936e-17 -5.4115899168186460e-02 0.0000000000000000e+00  8.8435152296619516e-17 -5.4115899168186328e-02 0.0000000000000000e+00  1.5370871708698161e-16 -5.4115899168186335e-02 0.0000000000000000e+00  1.8108150232164940e-16 -5.4115899168186279e-02 0.0000000000000000e+00  1.8950389777847040e-16 -5.4115899168186238e-02 0.0000000000000000e+00  1.5580772010310375e-16 -5.4115899168186196e-02 0.0000000000000000e+00  9.4397767291109138e-17 -5.4115899168186196e-02 0.0000000000000000e+00  5.0534372740925436e-17 -5.4115899168186210e-02 0.0000000000000000e+00  3.1383123453705067e-17 -5.4115899168186196e-02 0.0000000000000000e+00  1.3115377649788875e-17 -5.4115899168186252e-02 0.0000000000000000e+00  3.6648801852048451e-17 -9.0204117073612089e-02 0.0000000000000000e+00  1.0481380550219764e-16 -9.0204117073612033e-02 0.0000000000000000e+00  1.9371509550688062e-16 -9.0204117073612006e-02 0.0000000000000000e+00  2.4172678132638700e-16 -9.0204117073611895e-02 0.0000000000000000e+00  2.5477746256883224e-16 -9.0204117073611687e-02 0.0000000000000000e+00  1.9976144448601078e-16 -9.0204117073611631e-02 0.0000000000000000e+00  1.3584314547323032e-16 -9.0204117073611728e-02 0.0000000000000000e+00  9.4751948889235040e-17 -9.0204117073611714e-02 0.0000000000000000e+00  5.8594868392579775e-17 -9.0204117073611742e-02 0.0000000000000000e+00  1.2484514804418066e-17 -9.0204117073611756e-02 0.0000000000000000e+00  3.4031030291187907e-17 -1.2630869176521381e-01 0.0000000000000000e+00  1.2212473412390322e-16 -1.2630869176521381e-01 0.0000000000000000e+00  2.1898228187734360e-16 -1.2630869176521367e-01 0.0000000000000000e+00  2.6109425916144810e-16 -1.2630869176521359e-01 0.0000000000000000e+00  2.6951665461826898e-16 -1.2630869176521342e-01 0.0000000000000000e+00  2.1862948831663298e-16 -1.2630869176521320e-01 0.0000000000000000e+00  1.9301714588247101e-16 -1.2630869176521323e-01 0.0000000000000000e+00  1.4739192049436591e-16 -1.2630869176521323e-01 0.0000000000000000e+00  9.5760154953510922e-17 -1.2630869176521325e-01 0.0000000000000000e+00  3.9970454046088954e-17 -1.2630869176521328e-01 0.0000000000000000e+00  6.8062060582375665e-17 -1.6243602459956746e-01 0.0000000000000000e+00  1.5296855929206241e-16 -1.6243602459956738e-01 0.0000000000000000e+00  1.9371509550688074e-16 -1.6243602459956716e-01 0.0000000000000000e+00  2.5841767043854774e-16 -1.6243602459956707e-01 0.0000000000000000e+00  2.6109425916144780e-16 -1.6243602459956694e-01 0.0000000000000000e+00  3.0924909118278620e-16 -1.6243602459956669e-01 0.0000000000000000e+00  2.6574887227437226e-16 -1.6243602459956660e-01 0.0000000000000000e+00  1.9371509550688067e-16 -1.6243602459956666e-01 0.0000000000000000e+00  1.2122571273314666e-16 -1.6243602459956671e-01 