<?xml version="1.0"?>
<VTKFile type="UnstructuredGrid"  version="0.1"  >
<UnstructuredGrid>
<Piece  NumberOfPoints="431" NumberOfCells="800">
<Points>
<DataArray  type="Float64"  NumberOfComponents="3"  format="ascii">-0.25 -1 0  -0.2 -1 0  -0.15 -1 0  -0.1 -1 0  -0.04999999999999999 -1 0  0 -1 0  0.04999999999999999 -1 0  0.09999999999999998 -1 0  0.15 -1 0  0.2 -1 0  0.25 -1 0  -0.25 -0.95 0  -0.2 -0.95 0  -0.15 -0.95 0  -0.1 -0.95 0  -0.04999999999999999 -0.95 0  0 -0.95 0  0.04999999999999999 -0.95 0  0.09999999999999998 -0.95 0  0.15 -0.95 0  0.2 -0.95 0  0.25 -0.95 0  -0.25 -0.9 0  -0.2 -0.9 0  -0.15 -0.9 0  -0.1 -0.9 0  -0.04999999999999999 -0.9 0  0 -0.9 0  0.04999999999999999 -0.9 0  0.09999999999999998 -0.9 0  0.15 -0.9 0  0.2 -0.9 0  0.25 -0.9 0  -0.25 -0.85 0  -0.2 -0.85 0  -0.15 -0.85 0  -0.1 -0.85 0  -0.04999999999999999 -0.85 0  0 -0.85 0  0.04999999999999999 -0.85 0  0.09999999999999998 -0.85 0  0.15 -0.85 0  0.2 -0.85 0  0.25 -0.85 0  -0.25 -0.8 0  -0.2 -0.8 0  -0.15 -0.8 0  -0.1 -0.8 0  -0.04999999999999999 -0.8 0  0 -0.8 0  0.04999999999999999 -0.8 0  0.09999999999999998 -0.8 0  0.15 -0.8 0  0.2 -0.8 0  0.25 -0.8 0  -0.25 -0.75 0  -0.2 -0.75 0  -0.15 -0.75 0  -0.1 -0.75 0  -0.04999999999999999 -0.75 0  0 -0.75 0  0.04999999999999999 -0.75 0  0.09999999999999998 -0.75 0  0.15 -0.75 0  0.2 -0.75 0  0.25 -0.75 0  -0.25 -0.7 0  -0.2 -0.7 0  -0.15 -0.7 0  -0.1 -0.7 0  -0.04999999999999999 -0.7 0  0 -0.7 0  0.04999999999999999 -0.7 0  0.09999999999999998 -0.7 0  0.15 -0.7 0  0.2 -0.7 0  0.25 -0.7 0  -0.25 -0.65 0  -0.2 -0.65 0  -0.15 -0.65 0  -0.1 -0.65 0  -0.04999999999999999 -0.65 0  0 -0.65 0  0.04999999999999999 -0.65 0  0.09999999999999998 -0.65 0  0.15 -0.65 0  0.2 -0.65 0  0.25 -0.65 0  -0.25 -0.6 0  -0.2 -0.6 0  -0.15 -0.6 0  -0.1 -0.6 0  -0.04999999999999999 -0.6 0  0 -0.6 0  0.04999999999999999 -0.6 0  0.09999999999999998 -0.6 0  0.15 -0.6 0  0.2 -0.6 0  0.25 -0.6 0  -0.25 -0.55 0  -0.2 -0.55 0  -0.15 -0.55 0  -0.1 -0.55 0  -0.04999999999999999 -0.55 0  0 -0.55 0  0.04999999999999999 -0.55 0  0.09999999999999998 -0.55 0  0.15 -0.55 0  0.2 -0.55 0  0.25 -0.55 0  -0.25 -0.5 0  -0.2 -0.5 0  -0.15 -0.5 0  -0.1 -0.5 0  -0.04999999999999999 -0.5 0  0 -0.5 0  0.04999999999999999 -0.5 0  0.09999999999999998 -0.5 0  0.15 -0.5 0  0.2 -0.5 0  0.25 -0.5 0  -0.25 -0.45 0  -0.2 -0.45 0  -0.15 -0.45 0  -0.1 -0.45 0  -0.04999999999999999 -0.45 0  0 -0.45 0  0.04999999999999999 -0.45 0  0.09999999999999998 -0.45 0  0.15 -0.45 0  0.2 -0.45 0  0.25 -0.45 0  -0.25 -0.4 0  -0.2 -0.4 0  -0.15 -0.4 0  -0.1 -0.4 0  -0.04999999999999999 -0.4 0  0 -0.4 0  0.04999999999999999 -0.4 0  0.09999999999999998 -0.4 0  0.15 -0.4 0  0.2 -0.4 0  0.25 -0.4 0  -0.25 -0.35 0  -0.2 -0.35 0  -0.15 -0.35 0  -0.1 -0.35 0  -0.04999999999999999 -0.35 0  0 -0.35 0  0.04999999999999999 -0.35 0  0.09999999999999998 -0.35 0  0.15 -0.35 0  0.2 -0.35 0  0.25 -0.35 0  -0.25 -0.3 0  -0.2 -0.3 0  -0.15 -0.3 0  -0.1 -0.3 0  -0.04999999999999999 -0.3 0  0 -0.3 0  0.04999999999999999 -0.3 0  0.09999999999999998 -0.3 0  0.15 -0.3 0  0.2 -0.3 0  0.25 -0.3 0  -0.25 -0.25 0  -0.2 -0.25 0  -0.15 -0.25 0  -0.1 -0.25 0  -0.04999999999999999 -0.25 0  0 -0.25 0  0.04999999999999999 -0.25 0  0.09999999999999998 -0.25 0  0.15 -0.25 0  0.2 -0.25 0  0.25 -0.25 0  -0.25 -0.2 0  -0.2 -0.2 0  -0.15 -0.2 0  -0.1 -0.2 0  -0.04999999999999999 -0.2 0  0 -0.2 0  0.04999999999999999 -0.2 0  0.09999999999999998 -0.2 0  0.15 -0.2 0  0.2 -0.2 0  0.25 -0.2 0  -0.25 -0.15 0  -0.2 -0.15 0  -0.15 -0.15 0  -0.1 -0.15 0  -0.04999999999999999 -0.15 0  0 -0.15 0  0.04999999999999999 -0.15 0  0.09999999999999998 -0.15 0  0.15 -0.15 0  0.2 -0.15 0  0.25 -0.15 0  -0.25 -0.09999999999999998 0  -0.2 -0.09999999999999998 0  -0.15 -0.09999999999999998 0  -0.1 -0.09999999999999998 0  -0.04999999999999999 -0.09999999999999998 0  0 -0.09999999999999998 0  0.04999999999999999 -0.09999999999999998 0  0.09999999999999998 -0.09999999999999998 0  0.15 -0.09999999999999998 0  0.2 -0.09999999999999998 0  0.25 -0.09999999999999998 0  -0.25 -0.05000000000000004 0  -0.2 -0.05000000000000004 0  -0.15 -0.05000000000000004 0  -0.1 -0.05000000000000004 0  -0.04999999999999999 -0.05000000000000004 0  0 -0.05000000000000004 0  0.04999999999999999 -0.05000000000000004 0  0.09999999999999998 -0.05000000000000004 0  0.15 -0.05000000000000004 0  0.2 -0.05000000000000004 0  0.25 -0.05000000000000004 0  -0.25 0 0  -0.2 0 0  -0.15 0 0  -0.1 0 0  -0.04999999999999999 0 0  0 0 0  0.04999999999999999 0 0  0.09999999999999998 0 0  0.15 0 0  0.2 0 0  0.25 0 0  -0.225 -0.975 0  -0.175 -0.975 0  -0.125 -0.975 0  -0.07500000000000001 -0.975 0  -0.02499999999999999 -0.975 0  0.02500000000000002 -0.975 0  0.07500000000000001 -0.975 0  0.125 -0.975 0  0.175 -0.975 0  0.225 -0.975 0  -0.225 -0.925 0  -0.175 -0.925 0  -0.125 -0.925 0  -0.07500000000000001 -0.925 0  -0.02499999999999999 -0.925 0  0.02500000000000002 -0.925 0  0.07500000000000001 -0.925 0  0.125 -0.925 0  0.175 -0.925 0  0.225 -0.925 0  -0.225 -0.875 0  -0.175 -0.875 0  -0.125 -0.875 0  -0.07500000000000001 -0.875 0  -0.02499999999999999 -0.875 0  0.02500000000000002 -0.875 0  0.07500000000000001 -0.875 0  0.125 -0.875 0  0.175 -0.875 0  0.225 -0.875 0  -0.225 -0.825 0  -0.175 -0.825 0  -0.125 -0.825 0  -0.07500000000000001 -0.825 0  -0.02499999999999999 -0.825 0  0.02500000000000002 -0.825 0  0.07500000000000001 -0.825 0  0.125 -0.825 0  0.175 -0.825 0  0.225 -0.825 0  -0.225 -0.775 0  -0.175 -0.775 0  -0.125 -0.775 0  -0.07500000000000001 -0.775 0  -0.02499999999999999 -0.775 0  0.02500000000000002 -0.775 0  0.07500000000000001 -0.775 0  0.125 -0.775 0  0.175 -0.775 0  0.225 -0.775 0  -0.225 -0.725 0  -0.175 -0.725 0  -0.125 -0.725 0  -0.07500000000000001 -0.725 0  -0.02499999999999999 -0.725 0  0.02500000000000002 -0.725 0  0.07500000000000001 -0.725 0  0.125 -0.725 0  0.175 -0.725 0  0.225 -0.725 0  -0.225 -0.675 0  -0.175 -0.675 0  -0.125 -0.675 0  -0.07500000000000001 -0.675 0  -0.02499999999999999 -0.675 0  0.02500000000000002 -0.675 0  0.07500000000000001 -0.675 0  0.125 -0.675 0  0.175 -0.675 0  0.225 -0.675 0  -0.225 -0.625 0  -0.175 -0.625 0  -0.125 -0.625 0  -0.07500000000000001 -0.625 0  -0.02499999999999999 -0.625 0  0.02500000000000002 -0.625 0  0.07500000000000001 -0.625 0  0.125 -0.625 0  0.175 -0.625 0  0.225 -0.625 0  -0.225 -0.575 0  -0.175 -0.575 0  -0.125 -0.575 0  -0.07500000000000001 -0.575 0  -0.02499999999999999 -0.575 0  0.02500000000000002 -0.575 0  0.07500000000000001 -0.575 0  0.125 -0.575 0  0.175 -0.575 0  0.225 -0.575 0  -0.225 -0.525 0  -0.175 -0.525 0  -0.125 -0.525 0  -0.07500000000000001 -0.525 0  -0.02499999999999999 -0.525 0  0.02500000000000002 -0.525 0  0.07500000000000001 -0.525 0  0.125 -0.525 0  0.175 -0.525 0  0.225 -0.525 0  -0.225 -0.475 0  -0.175 -0.475 0  -0.125 -0.475 0  -0.07500000000000001 -0.475 0  -0.02499999999999999 -0.475 0  0.02500000000000002 -0.475 0  0.07500000000000001 -0.475 0  0.125 -0.475 0  0.175 -0.475 0  0.225 -0.475 0  -0.225 -0.425 0  -0.175 -0.425 0  -0.125 -0.425 0  -0.07500000000000001 -0.425 0  -0.02499999999999999 -0.425 0  0.02500000000000002 -0.425 0  0.07500000000000001 -0.425 0  0.125 -0.425 0  0.175 -0.425 0  0.225 -0.425 0  -0.225 -0.375 0  -0.175 -0.375 0  -0.125 -0.375 0  -0.07500000000000001 -0.375 0  -0.02499999999999999 -0.375 0  0.02500000000000002 -0.375 0  0.07500000000000001 -0.375 0  0.125 -0.375 0  0.175 -0.375 0  0.225 -0.375 0  -0.225 -0.325 0  -0.175 -0.325 0  -0.125 -0.325 0  -0.07500000000000001 -0.325 0  -0.02499999999999999 -0.325 0  0.02500000000000002 -0.325 0  0.07500000000000001 -0.325 0  0.125 -0.325 0  0.175 -0.325 0  0.225 -0.325 0  -0.225 -0.275 0  -0.175 -0.275 0  -0.125 -0.275 0  -0.07500000000000001 -0.275 0  -0.02499999999999999 -0.275 0  0.02500000000000002 -0.275 0  0.07500000000000001 -0.275 0  0.125 -0.275 0  0.175 -0.275 0  0.225 -0.275 0  -0.225 -0.225 0  -0.175 -0.225 0  -0.125 -0.225 0  -0.07500000000000001 -0.225 0  -0.02499999999999999 -0.225 0  0.02500000000000002 -0.225 0  0.07500000000000001 -0.225 0  0.125 -0.225 0  0.175 -0.225 0  0.225 -0.225 0  -0.225 -0.175 0  -0.175 -0.175 0  -0.125 -0.175 0  -0.07500000000000001 -0.175 0  -0.02499999999999999 -0.175 0  0.02500000000000002 -0.175 0  0.07500000000000001 -0.175 0  0.125 -0.175 0  0.175 -0.175 0  0.225 -0.175 0  -0.225 -0.125 0  -0.175 -0.125 0  -0.125 -0.125 0  -0.07500000000000001 -0.125 0  -0.02499999999999999 -0.125 0  0.02500000000000002 -0.125 0  0.07500000000000001 -0.125 0  0.125 -0.125 0  0.175 -0.125 0  0.225 -0.125 0  -0.225 -0.07499999999999996 0  -0.175 -0.07499999999999996 0  -0.125 -0.07499999999999996 0  -0.07500000000000001 -0.07499999999999996 0  -0.02499999999999999 -0.07499999999999996 0  0.02500000000000002 -0.07499999999999996 0  0.07500000000000001 -0.07499999999999996 0  0.125 -0.07499999999999996 0  0.175 -0.07499999999999996 0  0.225 -0.07499999999999996 0  -0.225 -0.02500000000000002 0  -0.175 -0.02500000000000002 0  -0.125 -0.02500000000000002 0  -0.07500000000000001 -0.02500000000000002 0  -0.02499999999999999 -0.02500000000000002 0  0.02500000000000002 -0.02500000000000002 0  0.07500000000000001 -0.02500000000000002 0  0.125 -0.02500000000000002 0  0.175 -0.02500000000000002 0  0.225 -0.02500000000000002 0  </DataArray>
</Points>
<Cells>
[...]
<PointData  Vectors="displacement"> 
<DataArray  type="Float64"  Name="displacement"  NumberOfComponents="3" format="ascii">3.1597288150103054e-33 0.0000000000000000e+00 0.0000000000000000e+00  1.8055593228630316e-33 1.5246593050577389e-18 0.0000000000000000e+00  3.9567139848678163e-33 -5.1735184231516517e-18 0.0000000000000000e+00  7.2222372914521290e-33 -4.5739779151732187e-18 0.0000000000000000e+00  -2.6669028084280541e-35 2.5805246574950257e-18 0.0000000000000000e+00  4.4236203410144274e-32 -1.0164395367051592e-17 0.0000000000000000e+00  -5.1737914483504416e-33 7.6486082520328195e-18 0.0000000000000000e+00  -3.8368135610839423e-33 -7.1150767569361151e-18 0.0000000000000000e+00  1.3766718671186805e-33 -2.3822801641527170e-18 0.0000000000000000e+00  -4.2882033917997014e-33 2.0328790734103193e-18 0.0000000000000000e+00  1.8055593228630312e-33 -5.0821976835257951e-18 0.0000000000000000e+00  1.8055593228630350e-33 -3.6272521181955793e-02 0.0000000000000000e+00  5.7627866952413720e-17 -3.6272521181955758e-02 0.0000000000000000e+00  9.7762758478186863e-17 -3.6272521181955744e-02 0.0000000000000000e+00  1.1956640758125348e-16 -3.6272521181955744e-02 0.0000000000000000e+00  1.5274950228052298e-16 -3.6272521181955709e-02 0.0000000000000000e+00  1.5623431881802482e-16 -3.6272521181955661e-02 0.0000000000000000e+00  1.0200593375935821e-16 -3.6272521181955716e-02 0.0000000000000000e+00  4.4745638403670861e-17 -3.6272521181955633e-02 0.0000000000000000e+00  8.0089223440012611e-18 -3.6272521181955619e-02 0.0000000000000000e+00  -1.6142924625186933e-17 -3.6272521181955661e-02 0.0000000000000000e+00  -3.7805999092586001e-33 -3.6272521181955661e-02 0.0000000000000000e+00  1.8276122457265433e-33 -7.2550408274526634e-02 0.0000000000000000e+00  7.0606436678690636e-17 -7.2550408274526523e-02 0.0000000000000000e+00  1.5751056233066003e-16 -7.2550408274526509e-02 0.0000000000000000e+00  2.0400485870320053e-16 -7.2550408274526440e-02 0.0000000000000000e+00  2.3208780609939530e-16 -7.2550408274526412e-02 0.0000000000000000e+00  2.2113280867360670e-16 -7.2550408274526301e-02 0.0000000000000000e+00  1.3453121019142202e-16 -7.2550408274526246e-02 0.0000000000000000e+00  7.0766310043394660e-17 -7.2550408274526204e-02 0.0000000000000000e+00  2.8076164930710691e-17 -7.2550408274526149e-02 0.0000000000000000e+00  5.7282866295812746e-18 -7.2550408274526232e-02 0.0000000000000000e+00  9.8338498834504490e-34 -7.2550408274526315e-02 0.0000000000000000e+00  1.9861152551493362e-32 -1.0883899410570423e-01 0.0000000000000000e+00  7.7799967711813216e-17 -1.0883899410570411e-01 0.0000000000000000e+00  1.7387497620638476e-16 -1.0883899410570415e-01 0.0000000000000000e+00  2.4107300433244721e-16 -1.0883899410570394e-01 0.0000000000000000e+00  2.6667916625991433e-16 -1.0883899410570402e-01 0.0000000000000000e+00  2.5583597451185417e-16 -1.0883899410570369e-01 0.0000000000000000e+00  2.1013277414760536e-16 -1.0883899410570362e-01 0.0000000000000000e+00  1.4847592807498234e-16 -1.0883899410570365e-01 0.0000000000000000e+00  8.9939151483921435e-17 -1.0883899410570361e-01 0.0000000000000000e+00  4.4572374848883019e-17 -1.0883899410570368e-01 0.0000000000000000e+00  -2.7083389842945490e-33 -1.0883899410570369e-01 0.0000000000000000e+00  4.2623505781498572e-33 -1.4514354554219899e-01 0.0000000000000000e+00  1.2491908027768334e-16 -1.4514354554219913e-01 0.0000000000000000e+00  2.0943537351843008e-16 -1.4514354554219891e-01 0.0000000000000000e+00  2.5603133376344229e-16 -1.4514354554219894e-01 0.0000000000000000e+00  2.7490490795742755e-16 -1.4514354554219866e-01 0.0000000000000000e+00  2.6018304714887403e-16 -1.4514354554219858e-01 0.0000000000000000e+00  2.2657747777680176e-16 -1.4514354554219830e-01 0.0000000000000000e+00  1.8767501126204675e-16 -1.4514354554219822e-01 0.0000000000000000e+00  1.1606931853761479e-16 -1.4514354554219824e-01 0.0000000000000000e+00  7.2375242378663749e-17 -1.4514354554219835e-01 0.0000000000000000e+00  -1.2476135294981191e-33 -1.4514354554219830e-01 0.0000000000000000e+00  1.2638915260041224e-32 -1.8146923101745607e-01 0.0000000000000000e+00  1.4509799042728924e-16 -1.8146923101745605e-01 0.0000000000000000e+00  2.1586882730339309e-16 -1.8146923101745585e-01 0.0000000000000000e+00  2.9563698255986972e-16 -1.8146923101745571e-01 0.0000000000000000e+00  2.7673585071975802e-16 -1.8146923101745571e-01 0.0000000000000000e+00  2.7493677500566700e-16 -1.8146923101745527e-01 0.0000000000000000e+00  2.9472097851799991e-16 -1.8146923101745524e-01 0.0000000000000000e+00  2.3187437491948463e-16 -1.8146923101745491e-01 0.0000000000000000e+00  1.3929353111057721e-16 -1.8146923101745505e-01 0.0000000000000000e+00  5.9064999913904588e-17 -1.8146923101745494e-01 0.0000000000000000e+00  -7.8112411071088068e-33 -1.8146923101745499e-01 0.0000000000000000e+00  3.0750754971258968e-32 -2.1782108866654296e-01 0.0000000000000000e+00  1.4245106932056737e-16 -2.1782108866654262e-01 0.0000000000000000e+00  2.3522547311179428e-16 -2.1782108866654259e-01 0.0000000000000000e+00  3.3793609268530282e-16 -2.1782108866654232e-01 0.0000000000000000e+00  3.6321580406968221e-16 -2.1782108866654204e-01 0.0000000000000000e+00  3.3438792225168264e-16 -2.1782108866654204e-01 0.0000000000000000e+00  2.6101623259022970e-16 -2.1782108866654173e-01 0.0000000000000000e+00  2.4635866687455032e-16 -2.1782108866654151e-01 0.0000000000000000e+00  2.0561456851947455e-16 -2.1782108866654146e-01 0.0000000000000000e+00  5.1035068270557977e-17 -2.1782108866654140e-01 0.0000000000000000e+00  2.4504019381712618e-33 -2.1782108866654151e-01 0.0000000000000000e+00  -1.5347254244335783e-32 -2.5420399526437254e-01 0.0000000000000000e+00  1.2121312351039066e-16 -2.5420399526437232e-01 0.0000000000000000e+00  2.8344655220343389e-16 -2.5420399526437243e-01 0.0000000000000000e+00  3.4744489432312839e-16 -2.5420399526437171e-01 0.0000000000000000e+00  3.8743019100766157e-16 -2.5420399526437171e-01 0.0000000000000000e+00  3.6011440620639304e-16 -2.5420399526437149e-01 0.0000000000000000e+00  2.9074229225547442e-16 -2.5420399526437121e-01 0.0000000000000000e+00  2.0502376867954100e-16 -2.5420399526437121e-01 0.0000000000000000e+00  1.5220471789586685e-16 -2.5420399526437104e-01 0.0000000000000000e+00  1.0860067830649079e-16 -2.5420399526437087e-01 0.0000000000000000e+00  3.6111186457260659e-33 -2.5420399526437104e-01 0.0000000000000000e+00  1.0911817621949935e-32 -2.9062263615876438e-01 0.0000000000000000e+00  9.7989061159849456e-17 -2.9062263615876427e-01 0.0000000000000000e+00  2.4560306751378527e-16 -2.9062263615876416e-01 0.0000000000000000e+00  3.5975660593568549e-16 -2.9062263615876394e-01 0.0000000000000000e+00  4.0502599010966969e-16 -2.9062263615876349e-01 0.0000000000000000e+00  3.9434858727565525e-16 -2.9062263615876327e-01 0.0000000000000000e+00  3.0022721926604806e-16 -2.9062263615876277e-01 0.0000000000000000e+00  2.2653096116454983e-16 -2.9062263615876305e-01 0.0000000000000000e+00  1.9193144646598852e-16 -2.9062263615876288e-01 0.0000000000000000e+00  1.1267954918009749e-16 -2.9062263615876299e-01 0.0000000000000000e+00  3.9632631676795417e-33 -2.9062263615876310e-01 0.0000000000000000e+00  9.0277966143151749e-33 -3.2708147638371682e-01 0.0000000000000000e+00  1.4227896225432836e-16 -3.2708147638371676e-01 0.0000000000000000e+00  2.6944923902539125e-16 -3.2708147638371665e-01 0.0000000000000000e+00  3.2592331985338169e-16 -3.2708147638371610e-01 0.0000000000000000e+00  3.0095023765773658e-16 -3.2708147638371593e-01 0.0000000000000000e+00  3.3210160681351112e-16 -3.2708147638371532e-01 0.0000000000000000e+00  2.8972811246131305e-16 -3.2708147638371521e-01 0.0000000000000000e+00  2.7397930220672892e-16 -3.2708147638371465e-01 0.0000000000000000e+00  2.2546537160080392e-16 -3.2708147638371543e-01 0.0000000000000000e+00  1.1125981285042524e-16 -3.2708147638371493e-01 0.0000000000000000e+00  -4.9300233073486772e-33 -3.2708147638371537e-01 0.0000000000000000e+00  -7.1937450210728616e-33 -3.6358473313098683e-01 0.0000000000000000e+00  1.1284103078324319e-16 -3.6358473313098733e-01 0.0000000000000000e+00  2.4560306751378508e-16 -3.6358473313098694e-01 0.0000000000000000e+00  3.3814689235044602e-16 -3.6358473313098666e-01 0.0000000000000000e+00  3.1824622832772146e-16 -3.6358473313098605e-01 0.0000000000000000e+00  3.4227262403379873e-16 -3.6358473313098572e-01 0.0000000000000000e+00  3.3183053176924468e-16 -3.6358473313098510e-01 0.0000000000000000e+00  2.8564631308211480e-16 -3.6358473313098549e-01 0.0000000000000000e+00  1.9044790986531060e-16 -3.6358473313098549e-01 0.0000000000000000e+00  1.3103311186711929e-16 -3.6358473313098538e-01 0.0000000000000000e+00  2.5277830520082443e-32 -3.6358473313098555e-01 0.0000000000000000e+00  4.5138983071575875e-33 -4.0013634974970330e-01 0.0000000000000000e+00  1.4434581177166603e-16 -4.0013634974970280e-01 0.0000000000000000e+00  2.0733462431621708e-16 -4.0013634974970264e-01 0.0000000000000000e+00  3.4430423857492383e-16 -4.0013634974970208e-01 0.0000000000000000e+00  3.4937901153369494e-16 -4.0013634974970180e-01 0.0000000000000000e+00  4.0161686073225785e-16 -4.0013634974970153e-01 0.0000000000000000e+00  3.0481618249280671e-16 -4.0013634974970069e-01 0.0000000000000000e+00  2.8795025104533579e-16 -4.0013634974970141e-01 0.0000000000000000e+00  2.3522547311179418e-16 -4.0013634974970103e-01 0.0000000000000000e+00  5.2420271217092985e-17 -4.0013634974970125e-01 0.0000000000000000e+00  0.0000000000000000e+00 -4.0013634974970125e-01 0.0000000000000000e+00  5.5275004535777554e-33 -4.3673997143430332e-01 0.0000000000000000e+00  7.0012392139326647e-17 -4.3673997143430260e-01 0.0000000000000000e+00  2.4495995731382458e-16 -4.3673997143430293e-01 0.0000000000000000e+00  3.1418572426808851e-16 -4.3673997143430204e-01 0.0000000000000000e+00  5.1376003742813130e-16 -4.3673997143430154e-01 0.0000000000000000e+00  5.1585292173229946e-16 -4.3673997143430165e-01 0.0000000000000000e+00  4.3349860388629510e-16 -4.3673997143430104e-01 0.0000000000000000e+00  3.1226016663999093e-16 -4.3673997143430104e-01 0.0000000000000000e+00  1.6280526842758810e-16 -4.3673997143430132e-01 0.0000000000000000e+00  8.3784261706909308e-17 -4.3673997143430104e-01 0.0000000000000000e+00  1.9168954306623454e-34 -4.3673997143430171e-01 0.0000000000000000e+00  1.0833355937178198e-32 -4.7339892275070172e-01 0.0000000000000000e+00  8.0645992046300069e-17 -4.7339892275070111e-01 0.0000000000000000e+00  2.5188975474754354e-16 -4.7339892275070161e-01 0.0000000000000000e+00  4.2960245858053539e-16 -4.7339892275070072e-01 0.0000000000000000e+00  5.0504292756355851e-16 -4.7339892275070072e-01 0.0000000000000000e+00  5.2030220892729885e-16 -4.7339892275069978e-01 0.0000000000000000e+00  4.5383649190471120e-16 -4.7339892275069928e-01 0.0000000000000000e+00  3.5705410739350033e-16 -4.7339892275069972e-01 0.0000000000000000e+00  2.2070158316611351e-16 -4.7339892275069995e-01 0.0000000000000000e+00  1.1814193375828756e-16 -4.7339892275069995e-01 0.0000000000000000e+00  -2.6836536029272810e-33 -4.7339892275069995e-01 0.0000000000000000e+00  1.1189536601653602e-32 -5.1011618713923357e-01 0.0000000000000000e+00  2.0482050804904709e-16 -5.1011618713923390e-01 0.0000000000000000e+00  3.9434858727565491e-16 -5.1011618713923357e-01 0.0000000000000000e+00  4.7454078260863667e-16 -5.1011618713923346e-01 0.0000000000000000e+00  4.4873637043713084e-16 -5.1011618713923268e-01 0.0000000000000000e+00  4.2928474346105818e-16 -5.1011618713923201e-01 0.0000000000000000e+00  4.9120613502757015e-16 -5.1011618713923201e-01 0.0000000000000000e+00  4.3105835300837830e-16 -5.1011618713923212e-01 0.0000000000000000e+00  2.5903256129593722e-16 -5.1011618713923201e-01 0.0000000000000000e+00  9.5150903971544646e-17 -5.1011618713923212e-01 0.0000000000000000e+00  -1.3541694921472763e-32 -5.1011618713923212e-01 0.0000000000000000e+00  3.6111186457260645e-33 -5.4689438852075400e-01 0.0000000000000000e+00  2.9347921190505677e-16 -5.4689438852075389e-01 0.0000000000000000e+00  4.4725406536751321e-16 -5.4689438852075423e-01 0.0000000000000000e+00  4.9792534903299590e-16 -5.4689438852075289e-01 0.0000000000000000e+00  4.5661415368760020e-16 -5.4689438852075278e-01 0.0000000000000000e+00  4.5692806317729099e-16 -5.4689438852075245e-01 0.0000000000000000e+00  5.8152957148343665e-16 -5.4689438852075278e-01 0.0000000000000000e+00  4.3431886579167342e-16 -5.4689438852075245e-01 0.0000000000000000e+00  3.1132783205972733e-16 -5.4689438852075201e-01 0.0000000000000000e+00  1.5500833902730229e-16 -5.4689438852075190e-01 0.0000000000000000e+00  1.2638915260041222e-32 -5.4689438852075223e-01 0.0000000000000000e+00  6.9099048908225919e-32 -5.8373577511929087e-01 0.0000000000000000e+00  3.0369819879103424e-16 -5.8373577511929120e-01 0.0000000000000000e+00  3.8547496201662851e-16 -5.8373577511929053e-01 0.0000000000000000e+00  5.2785370432118915e-16 -5.8373577511929009e-01 0.0000000000000000e+00  5.8751164763921044e-16 -5.8373577511928942e-01 0.0000000000000000e+00  5.8361131643123546e-16 -5.8373577511928953e-01 0.0000000000000000e+00  4.7134067023010625e-16 -5.8373577511928965e-01 0.0000000000000000e+00  3.5775036190743976e-16 -5.8373577511928865e-01 0.0000000000000000e+00  3.3064731851317350e-16 -5.8373577511928898e-01 0.0000000000000000e+00  1.0985263720273491e-16 -5.8373577511928854e-01 0.0000000000000000e+00  4.3311203842932470e-33 -5.8373577511928887e-01 0.0000000000000000e+00  -7.2222372914521331e-33 -6.2064220560099992e-01 0.0000000000000000e+00  1.9364588776919649e-16 -6.2064220560099925e-01 0.0000000000000000e+00  4.6164310813586022e-16 -6.2064220560100003e-01 0.0000000000000000e+00  5.9117071157220409e-16 -6.2064220560099848e-01 0.0000000000000000e+00  7.6461020095931696e-16 -6.2064220560099859e-01 0.0000000000000000e+00  6.9589801964652256e-16 -6.2064220560099781e-01 0.0000000000000000e+00  4.5461587029832435e-16 -6.2064220560099803e-01 0.0000000000000000e+00  3.5265452421990245e-16 -6.2064220560099759e-01 0.0000000000000000e+00  2.1939136524697263e-16 -6.2064220560099759e-01 0.0000000000000000e+00  1.1694191074908132e-16 -6.2064220560099714e-01 0.0000000000000000e+00  -1.0080024339940500e-32 -6.2064220560099803e-01 0.0000000000000000e+00  3.2161525438497775e-32 -6.5761513761486590e-01 0.0000000000000000e+00  1.3212056068574837e-16 -6.5761513761486579e-01 0.0000000000000000e+00  2.4906226564778214e-16 -6.5761513761486590e-01 0.0000000000000000e+00  5.2715274376181062e-16 -6.5761513761486579e-01 0.0000000000000000e+00  7.0840713048441910e-16 -6.5761513761486468e-01 0.0000000000000000e+00  6.5735574540111287e-16 -6.5761513761486434e-01 0.0000000000000000e+00  3.9215998572188262e-16 -6.5761513761486345e-01 0.0000000000000000e+00  2.0462643336790320e-16 -6.5761513761486379e-01 0.0000000000000000e+00  7.8703513794786676e-17 -6.5761513761486412e-01 0.0000000000000000e+00  8.6289347718986542e-17 -6.5761513761486357e-01 0.0000000000000000e+00  1.9184067805419722e-33 -6.5761513761486434e-01 0.0000000000000000e+00  -1.8055593228630350e-32 -6.9465561880581528e-01 0.0000000000000000e+00  1.2091104762667690e-16 -6.9465561880581650e-01 0.0000000000000000e+00  1.0835015947225937e-16 -6.9465561880581572e-01 0.0000000000000000e+00  2.1616966161420737e-16 -6.9465561880581606e-01 0.0000000000000000e+00  2.2421574027193096e-16 -6.9465561880581483e-01 0.0000000000000000e+00  2.1864876805567287e-16 -6.9465561880581383e-01 0.0000000000000000e+00  2.3176627497779711e-16 -6.9465561880581317e-01 0.0000000000000000e+00  1.1762300595548058e-16 -6.9465561880581328e-01 0.0000000000000000e+00  1.3836792535987888e-16 -6.9465561880581372e-01 0.0000000000000000e+00  7.8652503297762288e-17 -6.9465561880581395e-01 0.0000000000000000e+00  -1.5798644075051558e-33 -6.9465561880581406e-01 0.0000000000000000e+00  4.5138983071575854e-33 -7.3176428035563668e-01 0.0000000000000000e+00  5.6870486754915142e-17 -7.3176428035563612e-01 0.0000000000000000e+00  -4.8946930560577825e-17 -7.3176428035563668e-01 0.0000000000000000e+00  -1.9031658506188249e-16 -7.3176428035563679e-01 0.0000000000000000e+00  -4.6219742086457190e-16 -7.3176428035563601e-01 0.0000000000000000e+00  -4.2821231638923571e-16 -7.3176428035563479e-01 0.0000000000000000e+00  -3.9571566751851617e-17 -7.3176428035563368e-01 0.0000000000000000e+00  2.7188083580268928e-16 -7.3176428035563423e-01 0.0000000000000000e+00  3.3985104475336160e-16 -7.3176428035563401e-01 0.0000000000000000e+00  1.9904670364220307e-16 -7.3176428035563512e-01 0.0000000000000000e+00  1.1059050852536073e-32 -7.3176428035563523e-01 0.0000000000000000e+00  1.6496051101005107e-17 -1.8135912323305602e-02 0.0000000000000000e+00  4.3989191405085418e-17 -1.8135912323305570e-02 0.0000000000000000e+00  5.2968971426090876e-17 -1.8135912323305567e-02 0.0000000000000000e+00  7.3685590770813494e-17 -1.8135912323305556e-02 0.0000000000000000e+00  8.3993654689944081e-17 -1.8135912323305550e-02 0.0000000000000000e+00  7.3098237904442691e-17 -1.8135912323305539e-02 0.0000000000000000e+00  3.8720079434118452e-17 -1.8135912323305529e-02 0.0000000000000000e+00  1.2107193468820782e-17 -1.8135912323305518e-02 0.0000000000000000e+00  -3.3261025016610159e-18 -1.8135912323305515e-02 0.0000000000000000e+00  -1.0077862745192861e-17 -1.8135912323305515e-02 0.0000000000000000e+00  3.2521027192324374e-17 -5.4410422072410258e-02 0.0000000000000000e+00  9.4751948889235188e-17 -5.4410422072410251e-02 0.0000000000000000e+00  1.5581431595118678e-16 -5.4410422072410189e-02 0.0000000000000000e+00  1.7476470572903389e-16 -5.4410422072410168e-02 0.0000000000000000e+00  2.1266548528472789e-16 -5.4410422072410113e-02 0.0000000000000000e+00  1.6469209315144026e-16 -5.4410422072410022e-02 0.0000000000000000e+00  8.7605223434240851e-17 -5.4410422072409974e-02 0.0000000000000000e+00  2.9478384098873201e-17 -5.4410422072410008e-02 0.0000000000000000e+00  -1.9955539047009644e-18 -5.4410422072410002e-02 0.0000000000000000e+00  -8.2720893240762256e-18 -5.4410422072410029e-02 0.0000000000000000e+00  4.1884344973769650e-17 -9.0692970574445822e-02 0.0000000000000000e+00  1.1155349224580525e-16 -9.0692970574445794e-02 0.0000000000000000e+00  2.0634868869211196e-16 -9.0692970574445780e-02 0.0000000000000000e+00  2.3890692972246067e-16 -9.0692970574445739e-02 0.0000000000000000e+00  2.6109425916144790e-16 -9.0692970574445614e-02 0.0000000000000000e+00  2.2350745756488911e-16 -9.0692970574445420e-02 0.0000000000000000e+00  1.3315460004838411e-16 -9.0692970574445392e-02 0.0000000000000000e+00  8.2118355704003758e-17 -9.0692970574445350e-02 0.0000000000000000e+00  3.5439155883180437e-17 -9.0692970574445447e-02 0.0000000000000000e+00  2.3229835840881828e-17 -9.0692970574445433e-02 0.0000000000000000e+00  3.9266573412909075e-17 -1.2698886191826464e-01 0.0000000000000000e+00  1.5160311822277639e-16 -1.2698886191826469e-01 0.0000000000000000e+00  2.2319347960575394e-16 -1.2698886191826461e-01 0.0000000000000000e+00  2.6530545688985863e-16 -1.2698886191826439e-01 0.0000000000000000e+00  2.7372785234667951e-16 -1.2698886191826422e-01 0.0000000000000000e+00  2.2266957676233178e-16 -1.2698886191826403e-01 0.0000000000000000e+00  2.1116736109194890e-16 -1.2698886191826395e-01 0.0000000000000000e+00  1.3054712958072407e-16 -1.2698886191826400e-01 0.0000000000000000e+00  7.6615378959230497e-17 -1.2698886191826400e-01 0.0000000000000000e+00  4.1346984537623106e-17 -1.2698886191826400e-01 0.0000000000000000e+00  6.8062060582375665e-17 -1.6330331792966218e-01 0.0000000000000000e+00  1.9395588755087825e-16 -1.6330331792966210e-01 0.0000000000000000e+00  2.4003827051939560e-16 -1.6330331792966207e-01 0.0000000000000000e+00  2.8177955851129019e-16 -1.6330331792966182e-01 0.0000000000000000e+00  2.6109425916144790e-16 -1.6330331792966157e-01 0.0000000000000000e+00  2.7273053371242438e-16 -1.6330331792966149e-01 0.0000000000000000e+00  2.5453967207093998e-16 -1.6330331792966132e-01 0.0000000000000000e+00  1.6423671140800752e-16 -1.6330331792966124e-01 0.0000000000000000e+00  1.1108554164057735e-16 -1.6330331792966132e-0