<?xml version="1.0"?>
<VTKFile type="UnstructuredGrid"  version="0.1"  >
<UnstructuredGrid>
<Piece  NumberOfPoints="431" NumberOfCells="800">
<Points>
<DataArray  type="Float64"  NumberOfComponents="3"  format="ascii">-0.25 -1 0  -0.2 -1 0  -0.15 -1 0  -0.1 -1 0  -0.04999999999999999 -1 0  0 -1 0  0.04999999999999999 -1 0  0.09999999999999998 -1 0  0.15 -1 0  0.2 -1 0  0.25 -1 0  -0.25 -0.95 0  -0.2 -0.95 0  -0.15 -0.95 0  -0.1 -0.95 0  -0.04999999999999999 -0.95 0  0 -0.95 0  0.04999999999999999 -0.95 0  0.09999999999999998 -0.95 0  0.15 -0.95 0  0.2 -0.95 0  0.25 -0.95 0  -0.25 -0.9 0  -0.2 -0.9 0  -0.15 -0.9 0  -0.1 -0.9 0  -0.04999999999999999 -0.9 0  0 -0.9 0  0.04999999999999999 -0.9 0  0.09999999999999998 -0.9 0  0.15 -0.9 0  0.2 -0.9 0  0.25 -0.9 0  -0.25 -0.85 0  -0.2 -0.85 0  -0.15 -0.85 0  -0.1 -0.85 0  -0.04999999999999999 -0.85 0  0 -0.85 0  0.04999999999999999 -0.85 0  0.09999999999999998 -0.85 0  0.15 -0.85 0  0.2 -0.85 0  0.25 -0.85 0  -0.25 -0.8 0  -0.2 -0.8 0  -0.15 -0.8 0  -0.1 -0.8 0  -0.04999999999999999 -0.8 0  0 -0.8 0  0.04999999999999999 -0.8 0  0.09999999999999998 -0.8 0  0.15 -0.8 0  0.2 -0.8 0  0.25 -0.8 0  -0.25 -0.75 0  -0.2 -0.75 0  -0.15 -0.75 0  -0.1 -0.75 0  -0.04999999999999999 -0.75 0  0 -0.75 0  0.04999999999999999 -0.75 0  0.09999999999999998 -0.75 0  0.15 -0.75 0  0.2 -0.75 0  0.25 -0.75 0  -0.25 -0.7 0  -0.2 -0.7 0  -0.15 -0.7 0  -0.1 -0.7 0  -0.04999999999999999 -0.7 0  0 -0.7 0  0.04999999999999999 -0.7 0  0.09999999999999998 -0.7 0  0.15 -0.7 0  0.2 -0.7 0  0.25 -0.7 0  -0.25 -0.65 0  -0.2 -0.65 0  -0.15 -0.65 0  -0.1 -0.65 0  -0.04999999999999999 -0.65 0  0 -0.65 0  0.04999999999999999 -0.65 0  0.09999999999999998 -0.65 0  0.15 -0.65 0  0.2 -0.65 0  0.25 -0.65 0  -0.25 -0.6 0  -0.2 -0.6 0  -0.15 -0.6 0  -0.1 -0.6 0  -0.04999999999999999 -0.6 0  0 -0.6 0  0.04999999999999999 -0.6 0  0.09999999999999998 -0.6 0  0.15 -0.6 0  0.2 -0.6 0  0.25 -0.6 0  -0.25 -0.55 0  -0.2 -0.55 0  -0.15 -0.55 0  -0.1 -0.55 0  -0.04999999999999999 -0.55 0  0 -0.55 0  0.04999999999999999 -0.55 0  0.09999999999999998 -0.55 0  0.15 -0.55 0  0.2 -0.55 0  0.25 -0.55 0  -0.25 -0.5 0  -0.2 -0.5 0  -0.15 -0.5 0  -0.1 -0.5 0  -0.04999999999999999 -0.5 0  0 -0.5 0  0.04999999999999999 -0.5 0  0.09999999999999998 -0.5 0  0.15 -0.5 0  0.2 -0.5 0  0.25 -0.5 0  -0.25 -0.45 0  -0.2 -0.45 0  -0.15 -0.45 0  -0.1 -0.45 0  -0.04999999999999999 -0.45 0  0 -0.45 0  0.04999999999999999 -0.45 0  0.09999999999999998 -0.45 0  0.15 -0.45 0  0.2 -0.45 0  0.25 -0.45 0  -0.25 -0.4 0  -0.2 -0.4 0  -0.15 -0.4 0  -0.1 -0.4 0  -0.04999999999999999 -0.4 0  0 -0.4 0  0.04999999999999999 -0.4 0  0.09999999999999998 -0.4 0  0.15 -0.4 0  0.2 -0.4 0  0.25 -0.4 0  -0.25 -0.35 0  -0.2 -0.35 0  -0.15 -0.35 0  -0.1 -0.35 0  -0.04999999999999999 -0.35 0  0 -0.35 0  0.04999999999999999 -0.35 0  0.09999999999999998 -0.35 0  0.15 -0.35 0  0.2 -0.35 0  0.25 -0.35 0  -0.25 -0.3 0  -0.2 -0.3 0  -0.15 -0.3 0  -0.1 -0.3 0  -0.04999999999999999 -0.3 0  0 -0.3 0  0.04999999999999999 -0.3 0  0.09999999999999998 -0.3 0  0.15 -0.3 0  0.2 -0.3 0  0.25 -0.3 0  -0.25 -0.25 0  -0.2 -0.25 0  -0.15 -0.25 0  -0.1 -0.25 0  -0.04999999999999999 -0.25 0  0 -0.25 0  0.04999999999999999 -0.25 0  0.09999999999999998 -0.25 0  0.15 -0.25 0  0.2 -0.25 0  0.25 -0.25 0  -0.25 -0.2 0  -0.2 -0.2 0  -0.15 -0.2 0  -0.1 -0.2 0  -0.04999999999999999 -0.2 0  0 -0.2 0  0.04999999999999999 -0.2 0  0.09999999999999998 -0.2 0  0.15 -0.2 0  0.2 -0.2 0  0.25 -0.2 0  -0.25 -0.15 0  -0.2 -0.15 0  -0.15 -0.15 0  -0.1 -0.15 0  -0.04999999999999999 -0.15 0  0 -0.15 0  0.04999999999999999 -0.15 0  0.09999999999999998 -0.15 0  0.15 -0.15 0  0.2 -0.15 0  0.25 -0.15 0  -0.25 -0.09999999999999998 0  -0.2 -0.09999999999999998 0  -0.15 -0.09999999999999998 0  -0.1 -0.09999999999999998 0  -0.04999999999999999 -0.09999999999999998 0  0 -0.09999999999999998 0  0.04999999999999999 -0.09999999999999998 0  0.09999999999999998 -0.09999999999999998 0  0.15 -0.09999999999999998 0  0.2 -0.09999999999999998 0  0.25 -0.09999999999999998 0  -0.25 -0.05000000000000004 0  -0.2 -0.05000000000000004 0  -0.15 -0.05000000000000004 0  -0.1 -0.05000000000000004 0  -0.04999999999999999 -0.05000000000000004 0  0 -0.05000000000000004 0  0.04999999999999999 -0.05000000000000004 0  0.09999999999999998 -0.05000000000000004 0  0.15 -0.05000000000000004 0  0.2 -0.05000000000000004 0  0.25 -0.05000000000000004 0  -0.25 0 0  -0.2 0 0  -0.15 0 0  -0.1 0 0  -0.04999999999999999 0 0  0 0 0  0.04999999999999999 0 0  0.09999999999999998 0 0  0.15 0 0  0.2 0 0  0.25 0 0  -0.225 -0.975 0  -0.175 -0.975 0  -0.125 -0.975 0  -0.07500000000000001 -0.975 0  -0.02499999999999999 -0.975 0  0.02500000000000002 -0.975 0  0.07500000000000001 -0.975 0  0.125 -0.975 0  0.175 -0.975 0  0.225 -0.975 0  -0.225 -0.925 0  -0.175 -0.925 0  -0.125 -0.925 0  -0.07500000000000001 -0.925 0  -0.02499999999999999 -0.925 0  0.02500000000000002 -0.925 0  0.07500000000000001 -0.925 0  0.125 -0.925 0  0.175 -0.925 0  0.225 -0.925 0  -0.225 -0.875 0  -0.175 -0.875 0  -0.125 -0.875 0  -0.07500000000000001 -0.875 0  -0.02499999999999999 -0.875 0  0.02500000000000002 -0.875 0  0.07500000000000001 -0.875 0  0.125 -0.875 0  0.175 -0.875 0  0.225 -0.875 0  -0.225 -0.825 0  -0.175 -0.825 0  -0.125 -0.825 0  -0.07500000000000001 -0.825 0  -0.02499999999999999 -0.825 0  0.02500000000000002 -0.825 0  0.07500000000000001 -0.825 0  0.125 -0.825 0  0.175 -0.825 0  0.225 -0.825 0  -0.225 -0.775 0  -0.175 -0.775 0  -0.125 -0.775 0  -0.07500000000000001 -0.775 0  -0.02499999999999999 -0.775 0  0.02500000000000002 -0.775 0  0.07500000000000001 -0.775 0  0.125 -0.775 0  0.175 -0.775 0  0.225 -0.775 0  -0.225 -0.725 0  -0.175 -0.725 0  -0.125 -0.725 0  -0.07500000000000001 -0.725 0  -0.02499999999999999 -0.725 0  0.02500000000000002 -0.725 0  0.07500000000000001 -0.725 0  0.125 -0.725 0  0.175 -0.725 0  0.225 -0.725 0  -0.225 -0.675 0  -0.175 -0.675 0  -0.125 -0.675 0  -0.07500000000000001 -0.675 0  -0.02499999999999999 -0.675 0  0.02500000000000002 -0.675 0  0.07500000000000001 -0.675 0  0.125 -0.675 0  0.175 -0.675 0  0.225 -0.675 0  -0.225 -0.625 0  -0.175 -0.625 0  -0.125 -0.625 0  -0.07500000000000001 -0.625 0  -0.02499999999999999 -0.625 0  0.02500000000000002 -0.625 0  0.07500000000000001 -0.625 0  0.125 -0.625 0  0.175 -0.625 0  0.225 -0.625 0  -0.225 -0.575 0  -0.175 -0.575 0  -0.125 -0.575 0  -0.07500000000000001 -0.575 0  -0.02499999999999999 -0.575 0  0.02500000000000002 -0.575 0  0.07500000000000001 -0.575 0  0.125 -0.575 0  0.175 -0.575 0  0.225 -0.575 0  -0.225 -0.525 0  -0.175 -0.525 0  -0.125 -0.525 0  -0.07500000000000001 -0.525 0  -0.02499999999999999 -0.525 0  0.02500000000000002 -0.525 0  0.07500000000000001 -0.525 0  0.125 -0.525 0  0.175 -0.525 0  0.225 -0.525 0  -0.225 -0.475 0  -0.175 -0.475 0  -0.125 -0.475 0  -0.07500000000000001 -0.475 0  -0.02499999999999999 -0.475 0  0.02500000000000002 -0.475 0  0.07500000000000001 -0.475 0  0.125 -0.475 0  0.175 -0.475 0  0.225 -0.475 0  -0.225 -0.425 0  -0.175 -0.425 0  -0.125 -0.425 0  -0.07500000000000001 -0.425 0  -0.02499999999999999 -0.425 0  0.02500000000000002 -0.425 0  0.07500000000000001 -0.425 0  0.125 -0.425 0  0.175 -0.425 0  0.225 -0.425 0  -0.225 -0.375 0  -0.175 -0.375 0  -0.125 -0.375 0  -0.07500000000000001 -0.375 0  -0.02499999999999999 -0.375 0  0.02500000000000002 -0.375 0  0.07500000000000001 -0.375 0  0.125 -0.375 0  0.175 -0.375 0  0.225 -0.375 0  -0.225 -0.325 0  -0.175 -0.325 0  -0.125 -0.325 0  -0.07500000000000001 -0.325 0  -0.02499999999999999 -0.325 0  0.02500000000000002 -0.325 0  0.07500000000000001 -0.325 0  0.125 -0.325 0  0.175 -0.325 0  0.225 -0.325 0  -0.225 -0.275 0  -0.175 -0.275 0  -0.125 -0.275 0  -0.07500000000000001 -0.275 0  -0.02499999999999999 -0.275 0  0.02500000000000002 -0.275 0  0.07500000000000001 -0.275 0  0.125 -0.275 0  0.175 -0.275 0  0.225 -0.275 0  -0.225 -0.225 0  -0.175 -0.225 0  -0.125 -0.225 0  -0.07500000000000001 -0.225 0  -0.02499999999999999 -0.225 0  0.02500000000000002 -0.225 0  0.07500000000000001 -0.225 0  0.125 -0.225 0  0.175 -0.225 0  0.225 -0.225 0  -0.225 -0.175 0  -0.175 -0.175 0  -0.125 -0.175 0  -0.07500000000000001 -0.175 0  -0.02499999999999999 -0.175 0  0.02500000000000002 -0.175 0  0.07500000000000001 -0.175 0  0.125 -0.175 0  0.175 -0.175 0  0.225 -0.175 0  -0.225 -0.125 0  -0.175 -0.125 0  -0.125 -0.125 0  -0.07500000000000001 -0.125 0  -0.02499999999999999 -0.125 0  0.02500000000000002 -0.125 0  0.07500000000000001 -0.125 0  0.125 -0.125 0  0.175 -0.125 0  0.225 -0.125 0  -0.225 -0.07499999999999996 0  -0.175 -0.07499999999999996 0  -0.125 -0.07499999999999996 0  -0.07500000000000001 -0.07499999999999996 0  -0.02499999999999999 -0.07499999999999996 0  0.02500000000000002 -0.07499999999999996 0  0.07500000000000001 -0.07499999999999996 0  0.125 -0.07499999999999996 0  0.175 -0.07499999999999996 0  0.225 -0.07499999999999996 0  -0.225 -0.02500000000000002 0  -0.175 -0.02500000000000002 0  -0.125 -0.02500000000000002 0  -0.07500000000000001 -0.02500000000000002 0  -0.02499999999999999 -0.02500000000000002 0  0.02500000000000002 -0.02500000000000002 0  0.07500000000000001 -0.02500000000000002 0  0.125 -0.02500000000000002 0  0.175 -0.02500000000000002 0  0.225 -0.02500000000000002 0  </DataArray>
</Points>
<Cells>
[...]
<PointData  Vectors="displacement"> 
<DataArray  type="Float64"  Name="displacement"  NumberOfComponents="3" format="ascii">3.9496610187628818e-34 -8.8938459461701459e-19 0.0000000000000000e+00  -1.1284745767893947e-34 6.3527471044072453e-20 0.0000000000000000e+00  3.0909623954872023e-33 -8.8119550655273961e-19 0.0000000000000000e+00  2.7083389842945484e-33 -6.3527471044072477e-19 0.0000000000000000e+00  4.6710903803339035e-34 1.9527271907718455e-19 0.0000000000000000e+00  9.0277966143151578e-34 -4.4469229730850720e-19 0.0000000000000000e+00  3.0495262196207170e-33 9.0991935332364350e-19 0.0000000000000000e+00  1.2413220344683342e-33 -3.1763735522036224e-19 0.0000000000000000e+00  1.3518187633218171e-33 -5.7968817327716112e-19 0.0000000000000000e+00  9.0277966143151612e-34 5.0821976835257982e-19 0.0000000000000000e+00  -6.7708474607363675e-34 -6.3527471044072439e-19 0.0000000000000000e+00  2.2569491535787937e-34 -4.2912939397757519e-03 0.0000000000000000e+00  6.7732032090053700e-18 -4.2912939397757527e-03 0.0000000000000000e+00  1.3804463581410645e-17 -4.2912939397757493e-03 0.0000000000000000e+00  2.3164990138740362e-17 -4.2912939397757527e-03 0.0000000000000000e+00  2.5563022969094271e-17 -4.2912939397757519e-03 0.0000000000000000e+00  2.7860338059797237e-17 -4.2912939397757458e-03 0.0000000000000000e+00  2.2403965484584496e-17 -4.2912939397757440e-03 0.0000000000000000e+00  1.1773724513208764e-17 -4.2912939397757423e-03 0.0000000000000000e+00  9.9352207005336399e-18 -4.2912939397757380e-03 0.0000000000000000e+00  8.7836501637046618e-18 -4.2912939397757432e-03 0.0000000000000000e+00  3.9494343132692986e-34 -4.2912939397757432e-03 0.0000000000000000e+00  -1.0156271191104562e-33 -8.5825878795515124e-03 0.0000000000000000e+00  9.7310153114862094e-18 -8.5825878795515020e-03 0.0000000000000000e+00  2.6750349579522915e-17 -8.5825878795515037e-03 0.0000000000000000e+00  3.8915979007465978e-17 -8.5825878795514950e-03 0.0000000000000000e+00  4.7155663066385764e-17 -8.5825878795514950e-03 0.0000000000000000e+00  4.2917734660944727e-17 -8.5825878795514812e-03 0.0000000000000000e+00  3.3674507584630196e-17 -8.5825878795514742e-03 0.0000000000000000e+00  2.4420299551431292e-17 -8.5825878795514777e-03 0.0000000000000000e+00  2.0786608570640515e-17 -8.5825878795514794e-03 0.0000000000000000e+00  1.3351858218085714e-17 -8.5825878795514673e-03 0.0000000000000000e+00  8.8665859604881071e-34 -8.5825878795514794e-03 0.0000000000000000e+00  5.8680677993048572e-33 -1.2873881819327269e-02 0.0000000000000000e+00  1.2201094639507142e-17 -1.2873881819327264e-02 0.0000000000000000e+00  2.9016461356706667e-17 -1.2873881819327268e-02 0.0000000000000000e+00  4.2699476966525150e-17 -1.2873881819327245e-02 0.0000000000000000e+00  4.9334546159171344e-17 -1.2873881819327245e-02 0.0000000000000000e+00  4.3320459949982075e-17 -1.2873881819327217e-02 0.0000000000000000e+00  3.8051179473966749e-17 -1.2873881819327217e-02 0.0000000000000000e+00  3.2081602499983394e-17 -1.2873881819327219e-02 0.0000000000000000e+00  3.2862382272971263e-17 -1.2873881819327217e-02 0.0000000000000000e+00  2.1773854502036012e-17 -1.2873881819327207e-02 0.0000000000000000e+00  2.2569491535787907e-34 -1.2873881819327202e-02 0.0000000000000000e+00  0.0000000000000000e+00 -1.7165175759103059e-02 0.0000000000000000e+00  1.6406944420529061e-17 -1.7165175759103077e-02 0.0000000000000000e+00  2.9816922540537315e-17 -1.7165175759103059e-02 0.0000000000000000e+00  3.7186379940467446e-17 -1.7165175759103056e-02 0.0000000000000000e+00  3.8699779124091143e-17 -1.7165175759103004e-02 0.0000000000000000e+00  4.5587772283485537e-17 -1.7165175759102990e-02 0.0000000000000000e+00  4.7239674517396125e-17 -1.7165175759102990e-02 0.0000000000000000e+00  4.4104776208461396e-17 -1.7165175759102983e-02 0.0000000000000000e+00  3.5198170850602929e-17 -1.7165175759102980e-02 0.0000000000000000e+00  1.8467285587118348e-17 -1.7165175759102966e-02 0.0000000000000000e+00  1.4143804471677346e-33 -1.7165175759102959e-02 0.0000000000000000e+00  -2.2569491535787903e-34 -2.1456469698879203e-02 0.0000000000000000e+00  1.4734904062306744e-17 -2.1456469698879207e-02 0.0000000000000000e+00  2.5295386354852850e-17 -2.1456469698879179e-02 0.0000000000000000e+00  3.6471567049306705e-17 -2.1456469698879162e-02 0.0000000000000000e+00  4.4537175975211047e-17 -2.1456469698879162e-02 0.0000000000000000e+00  5.6796050362542404e-17 -2.1456469698879106e-02 0.0000000000000000e+00  5.7051433287117077e-17 -2.1456469698879092e-02 0.0000000000000000e+00  4.6726199794380956e-17 -2.1456469698879110e-02 0.0000000000000000e+00  3.4407873626783343e-17 -2.1456469698879082e-02 0.0000000000000000e+00  1.6880765660259846e-17 -2.1456469698879068e-02 0.0000000000000000e+00  -8.4295337028641506e-34 -2.1456469698879085e-02 0.0000000000000000e+00  3.7316053018730467e-33 -2.5747763638658050e-02 0.0000000000000000e+00  1.7598480905679759e-17 -2.5747763638658015e-02 0.0000000000000000e+00  2.7241185305226181e-17 -2.5747763638657994e-02 0.0000000000000000e+00  4.3324238596388039e-17 -2.5747763638657991e-02 0.0000000000000000e+00  5.0590772709705756e-17 -2.5747763638657974e-02 0.0000000000000000e+00  5.9119179587251297e-17 -2.5747763638657949e-02 0.0000000000000000e+00  5.1493770351885728e-17 -2.5747763638657890e-02 0.0000000000000000e+00  4.5007831479845871e-17 -2.5747763638657901e-02 0.0000000000000000e+00  3.5255172448087380e-17 -2.5747763638657866e-02 0.0000000000000000e+00  1.5748900066134041e-17 -2.5747763638657870e-02 0.0000000000000000e+00  -2.0796174343690304e-33 -2.5747763638657890e-02 0.0000000000000000e+00  -1.1284745767893958e-33 -3.0039057578458744e-02 0.0000000000000000e+00  1.0428038121292474e-17 -3.0039057578458712e-02 0.0000000000000000e+00  3.5283655323768371e-17 -3.0039057578458688e-02 0.0000000000000000e+00  4.6627110564255241e-17 -3.0039057578458674e-02 0.0000000000000000e+00  5.4914770377202025e-17 -3.0039057578458653e-02 0.0000000000000000e+00  5.1714190531468766e-17 -3.0039057578458594e-02 0.0000000000000000e+00  5.0540276717510894e-17 -3.0039057578458577e-02 0.0000000000000000e+00  4.2599111463456379e-17 -3.0039057578458563e-02 0.0000000000000000e+00  3.3294782039720890e-17 -3.0039057578458511e-02 0.0000000000000000e+00  2.1540653832762261e-17 -3.0039057578458508e-02 0.0000000000000000e+00  3.8368135610839451e-33 -3.0039057578458535e-02 0.0000000000000000e+00  1.4820045027991985e-33 -3.4330351518437295e-02 0.0000000000000000e+00  1.5954339057204128e-17 -3.4330351518437219e-02 0.0000000000000000e+00  3.3835281748157931e-17 -3.4330351518437233e-02 0.0000000000000000e+00  5.3347321222734609e-17 -3.4330351518437191e-02 0.0000000000000000e+00  5.5806594896123028e-17 -3.4330351518437136e-02 0.0000000000000000e+00  5.0536722738862092e-17 -3.4330351518437108e-02 0.0000000000000000e+00  4.2314154874442927e-17 -3.4330351518437018e-02 0.0000000000000000e+00  4.2704714144593412e-17 -3.4330351518437045e-02 0.0000000000000000e+00  3.6105380523593425e-17 -3.4330351518437038e-02 0.0000000000000000e+00  1.3325602039340131e-17 -3.4330351518437011e-02 0.0000000000000000e+00  -1.4439688641618771e-33 -3.4330351518437038e-02 0.0000000000000000e+00  9.0277966143151749e-34 -3.8621645459862394e-02 0.0000000000000000e+00  1.5452579709386552e-17 -3.8621645459862422e-02 0.0000000000000000e+00  2.8754584488849841e-17 -3.8621645459862387e-02 0.0000000000000000e+00  3.4100183130054299e-17 -3.8621645459862332e-02 0.0000000000000000e+00  4.2375177141462938e-17 -3.8621645459862304e-02 0.0000000000000000e+00  4.3848196310606813e-17 -3.8621645459862262e-02 0.0000000000000000e+00  3.9132178890840807e-17 -3.8621645459862151e-02 0.0000000000000000e+00  3.5010868614008427e-17 -3.8621645459862193e-02 0.0000000000000000e+00  2.5656104976504933e-17 -3.8621645459862124e-02 0.0000000000000000e+00  9.5683602590412909e-18 -3.8621645459862158e-02 0.0000000000000000e+00  -1.9025376068058737e-33 -3.8621645459862172e-02 0.0000000000000000e+00  -6.7787459051295161e-34 -4.2912939413055406e-02 0.0000000000000000e+00  1.4403635849238435e-17 -4.2912939413055400e-02 0.0000000000000000e+00  2.8105984838725416e-17 -4.2912939413055379e-02 0.0000000000000000e+00  3.3555199195998923e-17 -4.2912939413055254e-02 0.0000000000000000e+00  3.4159581573220088e-17 -4.2912939413055289e-02 0.0000000000000000e+00  3.8434128311699253e-17 -4.2912939413055205e-02 0.0000000000000000e+00  4.4347550869734838e-17 -4.2912939413055157e-02 0.0000000000000000e+00  3.3953081717429541e-17 -4.2912939413055122e-02 0.0000000000000000e+00  2.3163577137544446e-17 -4.2912939413055129e-02 0.0000000000000000e+00  1.8752164638648255e-17 -4.2912939413055060e-02 0.0000000000000000e+00  2.2730702189614950e-33 -4.2912939413055122e-02 0.0000000000000000e+00  2.8211864419734922e-35 -4.7204233461973617e-02 0.0000000000000000e+00  1.3858610646968306e-17 -4.7204233461973590e-02 0.0000000000000000e+00  1.7782204782355575e-17 -4.7204233461973492e-02 0.0000000000000000e+00  3.8490356344730302e-17 -4.7204233461973479e-02 0.0000000000000000e+00  4.3239976674962216e-17 -4.7204233461973430e-02 0.0000000000000000e+00  4.6267990458914719e-17 -4.7204233461973374e-02 0.0000000000000000e+00  3.5509839821366757e-17 -4.7204233461973270e-02 0.0000000000000000e+00  2.9050873669269862e-17 -4.7204233461973305e-02 0.0000000000000000e+00  3.0267983672473507e-17 -4.7204233461973284e-02 0.0000000000000000e+00  1.0999474993100290e-17 -4.7204233461973256e-02 0.0000000000000000e+00  -2.2569491535787933e-34 -4.7204233461973263e-02 0.0000000000000000e+00  -1.5322982122701226e-34 -5.1495528289569450e-02 0.0000000000000000e+00  3.4900116687634090e-18 -5.1495528289569444e-02 0.0000000000000000e+00  2.2998262593995510e-17 -5.1495528289569416e-02 0.0000000000000000e+00  3.4375781456594960e-17 -5.1495528289569312e-02 0.0000000000000000e+00  5.8815889777842471e-17 -5.1495528289569228e-02 0.0000000000000000e+00  5.5590395012748298e-17 -5.1495528289569242e-02 0.0000000000000000e+00  4.3934846977506807e-17 -5.1495528289569097e-02 0.0000000000000000e+00  3.7132177406881825e-17 -5.1495528289569104e-02 0.0000000000000000e+00  2.3349587404479585e-17 -5.1495528289569097e-02 0.0000000000000000e+00  1.4497641370410072e-17 -5.1495528289569048e-02 0.0000000000000000e+00  -1.3950703982647251e-33 -5.1495528289569110e-02 0.0000000000000000e+00  1.1284745767893957e-33 -5.5786829451325570e-02 0.0000000000000000e+00  4.6226947983076493e-18 -5.5786829451325487e-02 0.0000000000000000e+00  1.5350191719611570e-17 -5.5786829451325508e-02 0.0000000000000000e+00  4.5736566244732043e-17 -5.5786829451325438e-02 0.0000000000000000e+00  5.5347170143951628e-17 -5.5786829451325383e-02 0.0000000000000000e+00  5.4224414825832309e-17 -5.5786829451325286e-02 0.0000000000000000e+00  5.0969122505611750e-17 -5.5786829451325119e-02 0.0000000000000000e+00  4.5577637913952344e-17 -5.5786829451325202e-02 0.0000000000000000e+00  3.6182701730189128e-17 -5.5786829451325175e-02 0.0000000000000000e+00  1.9264015776517742e-17 -5.5786829451325175e-02 0.0000000000000000e+00  5.7261268564430646e-34 -5.5786829451325182e-02 0.0000000000000000e+00  9.1795996865161001e-36 -6.0078182138365306e-02 0.0000000000000000e+00  9.1320512732759654e-18 -6.0078182138365382e-02 0.0000000000000000e+00  2.9403184138974285e-17 -6.0078182138365320e-02 0.0000000000000000e+00  4.1094922220498952e-17 -6.0078182138365244e-02 0.0000000000000000e+00  4.2375177141462981e-17 -6.0078182138365160e-02 0.0000000000000000e+00  4.6772779742261404e-17 -6.0078182138365036e-02 0.0000000000000000e+00  5.7941568744449254e-17 -6.0078182138364966e-02 0.0000000000000000e+00  6.7933833137182270e-17 -6.0078182138365008e-02 0.0000000000000000e+00  3.9855940776505063e-17 -6.0078182138364911e-02 0.0000000000000000e+00  1.6644837625711045e-17 -6.0078182138364945e-02 0.0000000000000000e+00  7.4156900760446080e-34 -6.0078182138364931e-02 0.0000000000000000e+00  -1.3541694921472742e-33 -6.4369953958287887e-02 0.0000000000000000e+00  1.3460196998137945e-17 -6.4369953958287873e-02 0.0000000000000000e+00  2.4996370910606187e-17 -6.4369953958287929e-02 0.0000000000000000e+00  4.6882731121988963e-17 -6.4369953958287804e-02 0.0000000000000000e+00  6.0968367111696636e-17 -6.4369953958287734e-02 0.0000000000000000e+00  5.5558445124005144e-17 -6.4369953958287568e-02 0.0000000000000000e+00  7.0564650396776779e-17 -6.4369953958287582e-02 0.0000000000000000e+00  6.9577539418451852e-17 -6.4369953958287499e-02 0.0000000000000000e+00  5.0158372942956105e-17 -6.4369953958287499e-02 0.0000000000000000e+00  2.4822867440274466e-17 -6.4369953958287443e-02 0.0000000000000000e+00  2.2569491535787893e-33 -6.4369953958287471e-02 0.0000000000000000e+00  1.7808423391841265e-33 -6.8665135218406684e-02 0.0000000000000000e+00  3.1060043058173964e-17 -6.8665135218406559e-02 0.0000000000000000e+00  2.9574586991376710e-17 -6.8665135218406670e-02 0.0000000000000000e+00  5.1671772126579790e-17 -6.8665135218406573e-02 0.0000000000000000e+00  6.1784056564599836e-17 -6.8665135218406462e-02 0.0000000000000000e+00  7.0913561746937950e-17 -6.8665135218406323e-02 0.0000000000000000e+00  6.2094726205013729e-17 -6.8665135218406226e-02 0.0000000000000000e+00  5.2842087248308184e-17 -6.8665135218406254e-02 0.0000000000000000e+00  4.2375177141462894e-17 -6.8665135218406129e-02 0.0000000000000000e+00  2.1935143834450667e-17 -6.8665135218406184e-02 0.0000000000000000e+00  -2.1681565371591330e-33 -6.8665135218406170e-02 0.0000000000000000e+00  1.7773474584432984e-33 -7.2988050600399854e-02 0.0000000000000000e+00  1.4607518549661299e-17 -7.2988050600399770e-02 0.0000000000000000e+00  5.4309219399223990e-17 -7.2988050600399798e-02 0.0000000000000000e+00  4.8861173642707267e-17 -7.2988050600399673e-02 0.0000000000000000e+00  5.7472366444215736e-17 -7.2988050600399618e-02 0.0000000000000000e+00  6.8840778344723310e-17 -7.2988050600399465e-02 0.0000000000000000e+00  5.7569861211774726e-17 -7.2988050600399382e-02 0.0000000000000000e+00  3.9415941237770239e-17 -7.2988050600399271e-02 0.0000000000000000e+00  2.4538686763041042e-17 -7.2988050600399354e-02 0.0000000000000000e+00  1.2301672335995821e-17 -7.2988050600399285e-02 0.0000000000000000e+00  -1.2430966298752459e-33 -7.2988050600399368e-02 0.0000000000000000e+00  2.1158898314801167e-35 -7.7536569445683809e-02 0.0000000000000000e+00  3.4028977792114097e-18 -7.7536569445683878e-02 0.0000000000000000e+00  3.4591981339969767e-18 -7.7536569445683864e-02 0.0000000000000000e+00  3.0484183555848349e-17 -7.7536569445683642e-02 0.0000000000000000e+00  5.3614192953775387e-17 -7.7536569445683712e-02 0.0000000000000000e+00  4.9185473467769498e-17 -7.7536569445683517e-02 0.0000000000000000e+00  2.1133538599887789e-17 -7.7536569445683351e-02 0.0000000000000000e+00  1.1242393935490170e-17 -7.7536569445683406e-02 0.0000000000000000e+00  5.6211969677450866e-18 -7.7536569445683309e-02 0.0000000000000000e+00  4.0767831147812666e-18 -7.7536569445683365e-02 0.0000000000000000e+00  -1.2241934024992102e-33 -7.7536569445683379e-02 0.0000000000000000e+00  -1.1284745767893969e-34 -8.3920261687816980e-02 0.0000000000000000e+00  -6.5627777682116266e-18 -8.3920261687817077e-02 0.0000000000000000e+00  -3.2532204518461147e-17 -8.3920261687816924e-02 0.0000000000000000e+00  -2.4950533761737295e-17 -8.3920261687817022e-02 0.0000000000000000e+00  -1.5790782228057904e-17 -8.3920261687816744e-02 0.0000000000000000e+00  -2.1802874346234718e-17 -8.3920261687816730e-02 0.0000000000000000e+00  -1.2539593235739039e-17 -8.3920261687816453e-02 0.0000000000000000e+00  -2.3283885934074093e-17 -8.3920261687816453e-02 0.0000000000000000e+00  -8.6479953349924303e-18 -8.3920261687816453e-02 0.0000000000000000e+00  3.4569584253180374e-19 -8.3920261687816522e-02 0.0000000000000000e+00  1.3400635599374088e-33 -8.3920261687816480e-02 0.0000000000000000e+00  -3.1315169505905719e-33 -1.0523218839663380e-01 0.0000000000000000e+00  -2.2215033888638743e-17 -1.0523218839663381e-01 0.0000000000000000e+00  -5.8836712122925694e-17 -1.0523218839663379e-01 0.0000000000000000e+00  -1.0280494103789190e-16 -1.0523218839663372e-01 0.0000000000000000e+00  -1.4613594924394549e-16 -1.0523218839663356e-01 0.0000000000000000e+00  -1.2829376939439404e-16 -1.0523218839663336e-01 0.0000000000000000e+00  -8.2017215764835859e-17 -1.0523218839663329e-01 0.0000000000000000e+00  -3.1436221639685930e-17 -1.0523218839663322e-01 0.0000000000000000e+00  -1.0195531342600852e-17 -1.0523218839663326e-01 0.0000000000000000e+00  -1.0663216266546583e-17 -1.0523218839663320e-01 0.0000000000000000e+00  1.8055593228630322e-33 -1.0523218839663336e-01 0.0000000000000000e+00  1.7610463227094686e-18 -2.1456469698878746e-03 0.0000000000000000e+00  5.0984489653571839e-18 -2.1456469698878729e-03 0.0000000000000000e+00  9.9316821423920377e-18 -2.1456469698878733e-03 0.0000000000000000e+00  1.2601543860896783e-17 -2.1456469698878751e-03 0.0000000000000000e+00  1.4188117346274342e-17 -2.1456469698878738e-03 0.0000000000000000e+00  1.4153730637061637e-17 -2.1456469698878738e-03 0.0000000000000000e+00  9.3844893301526058e-18 -2.1456469698878733e-03 0.0000000000000000e+00  5.9590092854352237e-18 -2.1456469698878720e-03 0.0000000000000000e+00  3.2960953273637000e-18 -2.1456469698878725e-03 0.0000000000000000e+00  2.8617002744028885e-18 -2.1456469698878751e-03 0.0000000000000000e+00  6.4244175820807047e-18 -6.4369409096636260e-03 0.0000000000000000e+00  1.3159992901282669e-17 -6.4369409096636165e-03 0.0000000000000000e+00  2.8425584666770566e-17 -6.4369409096636234e-03 0.0000000000000000e+00  3.6058380549514507e-17 -6.4369409096636208e-03 0.0000000000000000e+00  3.6058380549514507e-17 -6.4369409096636165e-03 0.0000000000000000e+00  3.5470220319647552e-17 -6.4369409096636087e-03 0.0000000000000000e+00  2.4210618377696716e-17 -6.4369409096636026e-03 0.0000000000000000e+00  1.5002391907462241e-17 -6.4369409096636061e-03 0.0000000000000000e+00  1.3882247457506681e-17 -6.4369409096636044e-03 0.0000000000000000e+00  4.9740717800593067e-18 -6.4369409096636044e-03 0.0000000000000000e+00  3.5994358961833299e-18 -1.0728234849439390e-02 0.0000000000000000e+00  2.0421464289569879e-17 -1.0728234849439381e-02 0.0000000000000000e+00  3.5005581117411847e-17 -1.0728234849439378e-02 0.0000000000000000e+00  4.4627650926940556e-17 -1.0728234849439374e-02 0.0000000000000000e+00  4.5796775296463624e-17 -1.0728234849439364e-02 0.0000000000000000e+00  4.1887698234522542e-17 -1.0728234849439343e-02 0.0000000000000000e+00  3.1621582942646526e-17 -1.0728234849439350e-02 0.0000000000000000e+00  2.8425584666770535e-17 -1.0728234849439341e-02 0.0000000000000000e+00  2.2428387901628090e-17 -1.0728234849439340e-02 0.0000000000000000e+00  1.0679006747230213e-17 -1.0728234849439336e-02 0.0000000000000000e+00  2.9449930059681808e-18 -1.5019528789215175e-02 0.0000000000000000e+00  2.5267186370462709e-17 -1.5019528789215164e-02 0.0000000000000000e+00  3.3163182111232329e-17 -1.5019528789215159e-02 0.0000000000000000e+00  4.7375974444617625e-17 -1.5019528789215154e-02 0.0000000000000000e+00  4.3164776716207160e-17 -1.5019528789215133e-02 0.0000000000000000e+00  4.5876124472231982e-17 -1.5019528789215104e-02 0.0000000000000000e+00  4.1814702444273552e-17 -1.5019528789215100e-02 0.0000000000000000e+00  3.6847980123591495e-17 -1.5019528789215092e-02 0.0000000000000000e+00  2.7486732632472164e-17 -1.5019528789215079e-02 0.0000000000000000e+00  9.8523645185008093e-18 -1.5019528789215085e-02 0.0000000000000000e+00  7.8533146825818098e-18 -1.9310822728991067e-02 0.0000000000000000e+00  2.3423715367500661e-17 -1.9310822728991060e-02 0.0000000000000000e+00  3.2110382679129695e-17 -1.9310822728991046e-02 0.0000000000000000e+00  3.7280276571071570e-17 -1.9310822728991029e-02 0.0000000000000000e+00  4.8955173592771466e-17 -1.9310822728991015e-02 0.0000000000000000e+00  5.3415791436457900e-17 -1.9310822728990977e-02 0.0000000000000000e+00  5.0847638587345044e-17 -1.9310822728990963e-02 0.0000000000000000e+00  4.0006378419899300e-17 -1.9310822728990953e-02 0.0000000000000000e+00  2.5973159036388958e-17 -1.931082272