<?xml version="1.0"?>
<VTKFile type="UnstructuredGrid"  version="0.1"  >
<UnstructuredGrid>
<Piece  NumberOfPoints="431" NumberOfCells="800">
<Points>
<DataArray  type="Float64"  NumberOfComponents="3"  format="ascii">-0.25 -1 0  -0.2 -1 0  -0.15 -1 0  -0.1 -1 0  -0.04999999999999999 -1 0  0 -1 0  0.04999999999999999 -1 0  0.09999999999999998 -1 0  0.15 -1 0  0.2 -1 0  0.25 -1 0  -0.25 -0.95 0  -0.2 -0.95 0  -0.15 -0.95 0  -0.1 -0.95 0  -0.04999999999999999 -0.95 0  0 -0.95 0  0.04999999999999999 -0.95 0  0.09999999999999998 -0.95 0  0.15 -0.95 0  0.2 -0.95 0  0.25 -0.95 0  -0.25 -0.9 0  -0.2 -0.9 0  -0.15 -0.9 0  -0.1 -0.9 0  -0.04999999999999999 -0.9 0  0 -0.9 0  0.04999999999999999 -0.9 0  0.09999999999999998 -0.9 0  0.15 -0.9 0  0.2 -0.9 0  0.25 -0.9 0  -0.25 -0.85 0  -0.2 -0.85 0  -0.15 -0.85 0  -0.1 -0.85 0  -0.04999999999999999 -0.85 0  0 -0.85 0  0.04999999999999999 -0.85 0  0.09999999999999998 -0.85 0  0.15 -0.85 0  0.2 -0.85 0  0.25 -0.85 0  -0.25 -0.8 0  -0.2 -0.8 0  -0.15 -0.8 0  -0.1 -0.8 0  -0.04999999999999999 -0.8 0  0 -0.8 0  0.04999999999999999 -0.8 0  0.09999999999999998 -0.8 0  0.15 -0.8 0  0.2 -0.8 0  0.25 -0.8 0  -0.25 -0.75 0  -0.2 -0.75 0  -0.15 -0.75 0  -0.1 -0.75 0  -0.04999999999999999 -0.75 0  0 -0.75 0  0.04999999999999999 -0.75 0  0.09999999999999998 -0.75 0  0.15 -0.75 0  0.2 -0.75 0  0.25 -0.75 0  -0.25 -0.7 0  -0.2 -0.7 0  -0.15 -0.7 0  -0.1 -0.7 0  -0.04999999999999999 -0.7 0  0 -0.7 0  0.04999999999999999 -0.7 0  0.09999999999999998 -0.7 0  0.15 -0.7 0  0.2 -0.7 0  0.25 -0.7 0  -0.25 -0.65 0  -0.2 -0.65 0  -0.15 -0.65 0  -0.1 -0.65 0  -0.04999999999999999 -0.65 0  0 -0.65 0  0.04999999999999999 -0.65 0  0.09999999999999998 -0.65 0  0.15 -0.65 0  0.2 -0.65 0  0.25 -0.65 0  -0.25 -0.6 0  -0.2 -0.6 0  -0.15 -0.6 0  -0.1 -0.6 0  -0.04999999999999999 -0.6 0  0 -0.6 0  0.04999999999999999 -0.6 0  0.09999999999999998 -0.6 0  0.15 -0.6 0  0.2 -0.6 0  0.25 -0.6 0  -0.25 -0.55 0  -0.2 -0.55 0  -0.15 -0.55 0  -0.1 -0.55 0  -0.04999999999999999 -0.55 0  0 -0.55 0  0.04999999999999999 -0.55 0  0.09999999999999998 -0.55 0  0.15 -0.55 0  0.2 -0.55 0  0.25 -0.55 0  -0.25 -0.5 0  -0.2 -0.5 0  -0.15 -0.5 0  -0.1 -0.5 0  -0.04999999999999999 -0.5 0  0 -0.5 0  0.04999999999999999 -0.5 0  0.09999999999999998 -0.5 0  0.15 -0.5 0  0.2 -0.5 0  0.25 -0.5 0  -0.25 -0.45 0  -0.2 -0.45 0  -0.15 -0.45 0  -0.1 -0.45 0  -0.04999999999999999 -0.45 0  0 -0.45 0  0.04999999999999999 -0.45 0  0.09999999999999998 -0.45 0  0.15 -0.45 0  0.2 -0.45 0  0.25 -0.45 0  -0.25 -0.4 0  -0.2 -0.4 0  -0.15 -0.4 0  -0.1 -0.4 0  -0.04999999999999999 -0.4 0  0 -0.4 0  0.04999999999999999 -0.4 0  0.09999999999999998 -0.4 0  0.15 -0.4 0  0.2 -0.4 0  0.25 -0.4 0  -0.25 -0.35 0  -0.2 -0.35 0  -0.15 -0.35 0  -0.1 -0.35 0  -0.04999999999999999 -0.35 0  0 -0.35 0  0.04999999999999999 -0.35 0  0.09999999999999998 -0.35 0  0.15 -0.35 0  0.2 -0.35 0  0.25 -0.35 0  -0.25 -0.3 0  -0.2 -0.3 0  -0.15 -0.3 0  -0.1 -0.3 0  -0.04999999999999999 -0.3 0  0 -0.3 0  0.04999999999999999 -0.3 0  0.09999999999999998 -0.3 0  0.15 -0.3 0  0.2 -0.3 0  0.25 -0.3 0  -0.25 -0.25 0  -0.2 -0.25 0  -0.15 -0.25 0  -0.1 -0.25 0  -0.04999999999999999 -0.25 0  0 -0.25 0  0.04999999999999999 -0.25 0  0.09999999999999998 -0.25 0  0.15 -0.25 0  0.2 -0.25 0  0.25 -0.25 0  -0.25 -0.2 0  -0.2 -0.2 0  -0.15 -0.2 0  -0.1 -0.2 0  -0.04999999999999999 -0.2 0  0 -0.2 0  0.04999999999999999 -0.2 0  0.09999999999999998 -0.2 0  0.15 -0.2 0  0.2 -0.2 0  0.25 -0.2 0  -0.25 -0.15 0  -0.2 -0.15 0  -0.15 -0.15 0  -0.1 -0.15 0  -0.04999999999999999 -0.15 0  0 -0.15 0  0.04999999999999999 -0.15 0  0.09999999999999998 -0.15 0  0.15 -0.15 0  0.2 -0.15 0  0.25 -0.15 0  -0.25 -0.09999999999999998 0  -0.2 -0.09999999999999998 0  -0.15 -0.09999999999999998 0  -0.1 -0.09999999999999998 0  -0.04999999999999999 -0.09999999999999998 0  0 -0.09999999999999998 0  0.04999999999999999 -0.09999999999999998 0  0.09999999999999998 -0.09999999999999998 0  0.15 -0.09999999999999998 0  0.2 -0.09999999999999998 0  0.25 -0.09999999999999998 0  -0.25 -0.05000000000000004 0  -0.2 -0.05000000000000004 0  -0.15 -0.05000000000000004 0  -0.1 -0.05000000000000004 0  -0.04999999999999999 -0.05000000000000004 0  0 -0.05000000000000004 0  0.04999999999999999 -0.05000000000000004 0  0.09999999999999998 -0.05000000000000004 0  0.15 -0.05000000000000004 0  0.2 -0.05000000000000004 0  0.25 -0.05000000000000004 0  -0.25 0 0  -0.2 0 0  -0.15 0 0  -0.1 0 0  -0.04999999999999999 0 0  0 0 0  0.04999999999999999 0 0  0.09999999999999998 0 0  0.15 0 0  0.2 0 0  0.25 0 0  -0.225 -0.975 0  -0.175 -0.975 0  -0.125 -0.975 0  -0.07500000000000001 -0.975 0  -0.02499999999999999 -0.975 0  0.02500000000000002 -0.975 0  0.07500000000000001 -0.975 0  0.125 -0.975 0  0.175 -0.975 0  0.225 -0.975 0  -0.225 -0.925 0  -0.175 -0.925 0  -0.125 -0.925 0  -0.07500000000000001 -0.925 0  -0.02499999999999999 -0.925 0  0.02500000000000002 -0.925 0  0.07500000000000001 -0.925 0  0.125 -0.925 0  0.175 -0.925 0  0.225 -0.925 0  -0.225 -0.875 0  -0.175 -0.875 0  -0.125 -0.875 0  -0.07500000000000001 -0.875 0  -0.02499999999999999 -0.875 0  0.02500000000000002 -0.875 0  0.07500000000000001 -0.875 0  0.125 -0.875 0  0.175 -0.875 0  0.225 -0.875 0  -0.225 -0.825 0  -0.175 -0.825 0  -0.125 -0.825 0  -0.07500000000000001 -0.825 0  -0.02499999999999999 -0.825 0  0.02500000000000002 -0.825 0  0.07500000000000001 -0.825 0  0.125 -0.825 0  0.175 -0.825 0  0.225 -0.825 0  -0.225 -0.775 0  -0.175 -0.775 0  -0.125 -0.775 0  -0.07500000000000001 -0.775 0  -0.02499999999999999 -0.775 0  0.02500000000000002 -0.775 0  0.07500000000000001 -0.775 0  0.125 -0.775 0  0.175 -0.775 0  0.225 -0.775 0  -0.225 -0.725 0  -0.175 -0.725 0  -0.125 -0.725 0  -0.07500000000000001 -0.725 0  -0.02499999999999999 -0.725 0  0.02500000000000002 -0.725 0  0.07500000000000001 -0.725 0  0.125 -0.725 0  0.175 -0.725 0  0.225 -0.725 0  -0.225 -0.675 0  -0.175 -0.675 0  -0.125 -0.675 0  -0.07500000000000001 -0.675 0  -0.02499999999999999 -0.675 0  0.02500000000000002 -0.675 0  0.07500000000000001 -0.675 0  0.125 -0.675 0  0.175 -0.675 0  0.225 -0.675 0  -0.225 -0.625 0  -0.175 -0.625 0  -0.125 -0.625 0  -0.07500000000000001 -0.625 0  -0.02499999999999999 -0.625 0  0.02500000000000002 -0.625 0  0.07500000000000001 -0.625 0  0.125 -0.625 0  0.175 -0.625 0  0.225 -0.625 0  -0.225 -0.575 0  -0.175 -0.575 0  -0.125 -0.575 0  -0.07500000000000001 -0.575 0  -0.02499999999999999 -0.575 0  0.02500000000000002 -0.575 0  0.07500000000000001 -0.575 0  0.125 -0.575 0  0.175 -0.575 0  0.225 -0.575 0  -0.225 -0.525 0  -0.175 -0.525 0  -0.125 -0.525 0  -0.07500000000000001 -0.525 0  -0.02499999999999999 -0.525 0  0.02500000000000002 -0.525 0  0.07500000000000001 -0.525 0  0.125 -0.525 0  0.175 -0.525 0  0.225 -0.525 0  -0.225 -0.475 0  -0.175 -0.475 0  -0.125 -0.475 0  -0.07500000000000001 -0.475 0  -0.02499999999999999 -0.475 0  0.02500000000000002 -0.475 0  0.07500000000000001 -0.475 0  0.125 -0.475 0  0.175 -0.475 0  0.225 -0.475 0  -0.225 -0.425 0  -0.175 -0.425 0  -0.125 -0.425 0  -0.07500000000000001 -0.425 0  -0.02499999999999999 -0.425 0  0.02500000000000002 -0.425 0  0.07500000000000001 -0.425 0  0.125 -0.425 0  0.175 -0.425 0  0.225 -0.425 0  -0.225 -0.375 0  -0.175 -0.375 0  -0.125 -0.375 0  -0.07500000000000001 -0.375 0  -0.02499999999999999 -0.375 0  0.02500000000000002 -0.375 0  0.07500000000000001 -0.375 0  0.125 -0.375 0  0.175 -0.375 0  0.225 -0.375 0  -0.225 -0.325 0  -0.175 -0.325 0  -0.125 -0.325 0  -0.07500000000000001 -0.325 0  -0.02499999999999999 -0.325 0  0.02500000000000002 -0.325 0  0.07500000000000001 -0.325 0  0.125 -0.325 0  0.175 -0.325 0  0.225 -0.325 0  -0.225 -0.275 0  -0.175 -0.275 0  -0.125 -0.275 0  -0.07500000000000001 -0.275 0  -0.02499999999999999 -0.275 0  0.02500000000000002 -0.275 0  0.07500000000000001 -0.275 0  0.125 -0.275 0  0.175 -0.275 0  0.225 -0.275 0  -0.225 -0.225 0  -0.175 -0.225 0  -0.125 -0.225 0  -0.07500000000000001 -0.225 0  -0.02499999999999999 -0.225 0  0.02500000000000002 -0.225 0  0.07500000000000001 -0.225 0  0.125 -0.225 0  0.175 -0.225 0  0.225 -0.225 0  -0.225 -0.175 0  -0.175 -0.175 0  -0.125 -0.175 0  -0.07500000000000001 -0.175 0  -0.02499999999999999 -0.175 0  0.02500000000000002 -0.175 0  0.07500000000000001 -0.175 0  0.125 -0.175 0  0.175 -0.175 0  0.225 -0.175 0  -0.225 -0.125 0  -0.175 -0.125 0  -0.125 -0.125 0  -0.07500000000000001 -0.125 0  -0.02499999999999999 -0.125 0  0.02500000000000002 -0.125 0  0.07500000000000001 -0.125 0  0.125 -0.125 0  0.175 -0.125 0  0.225 -0.125 0  -0.225 -0.07499999999999996 0  -0.175 -0.07499999999999996 0  -0.125 -0.07499999999999996 0  -0.07500000000000001 -0.07499999999999996 0  -0.02499999999999999 -0.07499999999999996 0  0.02500000000000002 -0.07499999999999996 0  0.07500000000000001 -0.07499999999999996 0  0.125 -0.07499999999999996 0  0.175 -0.07499999999999996 0  0.225 -0.07499999999999996 0  -0.225 -0.02500000000000002 0  -0.175 -0.02500000000000002 0  -0.125 -0.02500000000000002 0  -0.07500000000000001 -0.02500000000000002 0  -0.02499999999999999 -0.02500000000000002 0  0.02500000000000002 -0.02500000000000002 0  0.07500000000000001 -0.02500000000000002 0  0.125 -0.02500000000000002 0  0.175 -0.02500000000000002 0  0.225 -0.02500000000000002 0  </DataArray>
</Points>
<Cells>
[...]
<PointData  Vectors="displacement"> 
<DataArray  type="Float64"  Name="displacement"  NumberOfComponents="3" format="ascii">4.5138983071575721e-34 -8.1315162936412756e-18 0.0000000000000000e+00  7.2222372914521262e-33 0.0000000000000000e+00 0.0000000000000000e+00  8.9784258515806238e-33 -2.9063818002663153e-18 0.0000000000000000e+00  -7.2222372914521290e-33 -4.5739779151732187e-18 0.0000000000000000e+00  2.5339622365037532e-32 3.0233238197933599e-18 0.0000000000000000e+00  3.6111186457260628e-32 -5.5904174518783761e-18 0.0000000000000000e+00  1.1987617921288752e-32 -5.0429893224907847e-18 0.0000000000000000e+00  5.4166779685890947e-33 -3.0493186101154778e-18 0.0000000000000000e+00  5.4301083122596785e-33 -1.9058241313221736e-19 0.0000000000000000e+00  -5.4166779685890967e-33 9.1479558303464375e-18 0.0000000000000000e+00  2.4826440689366678e-33 -1.1180834903756749e-17 0.0000000000000000e+00  5.4166779685891049e-33 -3.5539479407517588e-02 0.0000000000000000e+00  4.3443458917782527e-17 -3.5539479407517581e-02 0.0000000000000000e+00  7.2416858131990294e-17 -3.5539479407517553e-02 0.0000000000000000e+00  1.2578755228459260e-16 -3.5539479407517553e-02 0.0000000000000000e+00  1.5578691557533919e-16 -3.5539479407517532e-02 0.0000000000000000e+00  1.6769137861757007e-16 -3.5539479407517505e-02 0.0000000000000000e+00  1.3972776200897120e-16 -3.5539479407517505e-02 0.0000000000000000e+00  9.7418916142798572e-17 -3.5539479407517470e-02 0.0000000000000000e+00  5.8975425172239271e-17 -3.5539479407517477e-02 0.0000000000000000e+00  1.3768965121482991e-17 -3.5539479407517525e-02 0.0000000000000000e+00  -2.2564176504407883e-33 -3.5539479407517470e-02 0.0000000000000000e+00  6.4076693214746564e-33 -7.1088844171950646e-02 0.0000000000000000e+00  5.4312643598992776e-17 -7.1088844171950535e-02 0.0000000000000000e+00  1.3705955877834109e-16 -7.1088844171950535e-02 0.0000000000000000e+00  1.9972815476019253e-16 -7.1088844171950480e-02 0.0000000000000000e+00  2.6303137762722739e-16 -7.1088844171950480e-02 0.0000000000000000e+00  2.7222837639535594e-16 -7.1088844171950355e-02 0.0000000000000000e+00  2.2369954123651151e-16 -7.1088844171950299e-02 0.0000000000000000e+00  1.5985824489329421e-16 -7.1088844171950313e-02 0.0000000000000000e+00  9.9035248780851483e-17 -7.1088844171950327e-02 0.0000000000000000e+00  4.8329766452541214e-17 -7.1088844171950258e-02 0.0000000000000000e+00  -6.4484261530822609e-33 -7.1088844171950397e-02 0.0000000000000000e+00  4.5138983071575827e-33 -1.0665791870370191e-01 0.0000000000000000e+00  6.3297853819575614e-17 -1.0665791870370191e-01 0.0000000000000000e+00  1.6307651138769478e-16 -1.0665791870370188e-01 0.0000000000000000e+00  2.7375634607699886e-16 -1.0665791870370178e-01 0.0000000000000000e+00  3.2851878993428683e-16 -1.0665791870370162e-01 0.0000000000000000e+00  3.1371465848377169e-16 -1.0665791870370153e-01 0.0000000000000000e+00  2.5130533943779608e-16 -1.0665791870370143e-01 0.0000000000000000e+00  2.0948321530119317e-16 -1.0665791870370156e-01 0.0000000000000000e+00  1.6604151043185483e-16 -1.0665791870370143e-01 0.0000000000000000e+00  9.1128536858462757e-17 -1.0665791870370153e-01 0.0000000000000000e+00  1.8055593228630326e-33 -1.0665791870370148e-01 0.0000000000000000e+00  1.7049402312599429e-32 -1.4225640589590458e-01 0.0000000000000000e+00  1.0590965501803573e-16 -1.4225640589590466e-01 0.0000000000000000e+00  1.9429206417716783e-16 -1.4225640589590474e-01 0.0000000000000000e+00  2.6203425865027089e-16 -1.4225640589590449e-01 0.0000000000000000e+00  3.1819217835687768e-16 -1.4225640589590446e-01 0.0000000000000000e+00  3.2381337532462303e-16 -1.4225640589590410e-01 0.0000000000000000e+00  3.0008543812423761e-16 -1.4225640589590405e-01 0.0000000000000000e+00  2.4315730633310747e-16 -1.4225640589590410e-01 0.0000000000000000e+00  2.1957482784738713e-16 -1.4225640589590402e-01 0.0000000000000000e+00  1.3000786400749991e-16 -1.4225640589590410e-01 0.0000000000000000e+00  2.1994937649659941e-33 -1.4225640589590394e-01 0.0000000000000000e+00  -3.7916745780123678e-32 -1.7789382730285974e-01 0.0000000000000000e+00  1.4686707931370641e-16 -1.7789382730285982e-01 0.0000000000000000e+00  1.9997137962898898e-16 -1.7789382730285958e-01 0.0000000000000000e+00  2.6943142021831313e-16 -1.7789382730285952e-01 0.0000000000000000e+00  3.1132783205972763e-16 -1.7789382730285952e-01 0.0000000000000000e+00  3.5010254073482733e-16 -1.7789382730285910e-01 0.0000000000000000e+00  3.6116190517762099e-16 -1.7789382730285908e-01 0.0000000000000000e+00  3.0278793666642253e-16 -1.7789382730285899e-01 0.0000000000000000e+00  2.1011926165489416e-16 -1.7789382730285908e-01 0.0000000000000000e+00  9.8752832710460038e-17 -1.7789382730285871e-01 0.0000000000000000e+00  1.9762748330641018e-32 -1.7789382730285908e-01 0.0000000000000000e+00  1.6268811466285953e-32 -2.1357946443648709e-01 0.0000000000000000e+00  1.5135583838915071e-16 -2.1357946443648676e-01 0.0000000000000000e+00  2.3349587404479579e-16 -2.1357946443648682e-01 0.0000000000000000e+00  2.8991404961879689e-16 -2.1357946443648668e-01 0.0000000000000000e+00  3.2516462459571539e-16 -2.1357946443648673e-01 0.0000000000000000e+00  3.6725345517675520e-16 -2.1357946443648645e-01 0.0000000000000000e+00  3.3164310627853791e-16 -2.1357946443648573e-01 0.0000000000000000e+00  2.9525390418948817e-16 -2.1357946443648607e-01 0.0000000000000000e+00  1.8599568080715637e-16 -2.1357946443648571e-01 0.0000000000000000e+00  4.6994541624096018e-17 -2.1357946443648604e-01 0.0000000000000000e+00  -1.6701423736483069e-32 -2.1357946443648590e-01 0.0000000000000000e+00  -9.9305762757466835e-33 -2.4932230154271820e-01 0.0000000000000000e+00  1.0855372679961563e-16 -2.4932230154271795e-01 0.0000000000000000e+00  2.7349301331779152e-16 -2.4932230154271781e-01 0.0000000000000000e+00  3.2179798887973246e-16 -2.4932230154271770e-01 0.0000000000000000e+00  3.4937901153369504e-16 -2.4932230154271773e-01 0.0000000000000000e+00  3.4560408525452231e-16 -2.4932230154271731e-01 0.0000000000000000e+00  3.2989582027762082e-16 -2.4932230154271701e-01 0.0000000000000000e+00  2.1981146140071954e-16 -2.4932230154271687e-01 0.0000000000000000e+00  1.3490872722588214e-16 -2.4932230154271681e-01 0.0000000000000000e+00  1.0256378298999779e-16 -2.4932230154271687e-01 0.0000000000000000e+00  6.3194576300206149e-33 -2.4932230154271709e-01 0.0000000000000000e+00  3.6428467406156709e-33 -2.8513097021063277e-01 0.0000000000000000e+00  8.7013381099219706e-17 -2.8513097021063277e-01 0.0000000000000000e+00  2.4127906984628904e-16 -2.8513097021063261e-01 0.0000000000000000e+00  3.8440339264041426e-16 -2.8513097021063216e-01 0.0000000000000000e+00  4.1143175618544307e-16 -2.8513097021063211e-01 0.0000000000000000e+00  3.6645880232030484e-16 -2.8513097021063188e-01 0.0000000000000000e+00  2.8041408490223638e-16 -2.8513097021063122e-01 0.0000000000000000e+00  1.8929351396610053e-16 -2.8513097021063161e-01 0.0000000000000000e+00  1.2492975135886341e-16 -2.8513097021063161e-01 0.0000000000000000e+00  8.4280178033095058e-17 -2.8513097021063144e-01 0.0000000000000000e+00  -4.7121370330355402e-33 -2.8513097021063172e-01 0.0000000000000000e+00  1.9861152551493386e-32 -3.2101369615584191e-01 0.0000000000000000e+00  1.1278347195664242e-16 -3.2101369615584185e-01 0.0000000000000000e+00  2.6302067061816838e-16 -3.2101369615584174e-01 0.0000000000000000e+00  3.6693511300822694e-16 -3.2101369615584119e-01 0.0000000000000000e+00  3.4246061526570047e-16 -3.2101369615584108e-01 0.0000000000000000e+00  2.9241006059296494e-16 -3.2101369615584063e-01 0.0000000000000000e+00  2.5584553698866679e-16 -3.2101369615584030e-01 0.0000000000000000e+00  2.1809163235434027e-16 -3.2101369615583997e-01 0.0000000000000000e+00  1.9684410584067357e-16 -3.2101369615584024e-01 0.0000000000000000e+00  1.0170183953087431e-16 -3.2101369615584063e-01 0.0000000000000000e+00  1.5414257422332667e-32 -3.2101369615584047e-01 0.0000000000000000e+00  -1.8087233444667712e-32 -3.5697824850621485e-01 0.0000000000000000e+00  1.5549947192332501e-16 -3.5697824850621496e-01 0.0000000000000000e+00  2.6635825631776672e-16 -3.5697824850621462e-01 0.0000000000000000e+00  3.5805300437992789e-16 -3.5697824850621446e-01 0.0000000000000000e+00  3.5283820966769127e-16 -3.5697824850621385e-01 0.0000000000000000e+00  3.1021169894999971e-16 -3.5697824850621351e-01 0.0000000000000000e+00  2.8956963191363141e-16 -3.5697824850621346e-01 0.0000000000000000e+00  2.7631541779756988e-16 -3.5697824850621335e-01 0.0000000000000000e+00  1.9447267431410168e-16 -3.5697824850621340e-01 0.0000000000000000e+00  1.3720768613928955e-16 -3.5697824850621329e-01 0.0000000000000000e+00  1.0446450367993254e-32 -3.5697824850621362e-01 0.0000000000000000e+00  -4.5138983071575875e-33 -3.9303189190262405e-01 0.0000000000000000e+00  1.6283153539640184e-16 -3.9303189190262383e-01 0.0000000000000000e+00  1.9156925325077183e-16 -3.9303189190262366e-01 0.0000000000000000e+00  3.3984590680094976e-16 -3.9303189190262316e-01 0.0000000000000000e+00  3.5629740780168858e-16 -3.9303189190262250e-01 0.0000000000000000e+00  3.7724016187891469e-16 -3.9303189190262294e-01 0.0000000000000000e+00  2.9282840058119476e-16 -3.9303189190262217e-01 0.0000000000000000e+00  2.5757440245854409e-16 -3.9303189190262244e-01 0.0000000000000000e+00  2.4906226564778204e-16 -3.9303189190262183e-01 0.0000000000000000e+00  9.6366033045713883e-17 -3.9303189190262211e-01 0.0000000000000000e+00  5.4166779685891036e-33 -3.9303189190262222e-01 0.0000000000000000e+00  -6.1382019112535890e-33 -4.2918134171001648e-01 0.0000000000000000e+00  6.8343409862066014e-17 -4.2918134171001554e-01 0.0000000000000000e+00  2.3604466798239425e-16 -4.2918134171001632e-01 0.0000000000000000e+00  3.0492966676110467e-16 -4.2918134171001499e-01 0.0000000000000000e+00  4.8781483461805628e-16 -4.2918134171001499e-01 0.0000000000000000e+00  5.0244852896306105e-16 -4.2918134171001460e-01 0.0000000000000000e+00  4.0697027310295241e-16 -4.2918134171001415e-01 0.0000000000000000e+00  2.3980379455371765e-16 -4.2918134171001437e-01 0.0000000000000000e+00  1.2537566361832390e-16 -4.2918134171001426e-01 0.0000000000000000e+00  1.2739935227644005e-16 -4.2918134171001410e-01 0.0000000000000000e+00  1.1106658373744379e-32 -4.2918134171001449e-01 0.0000000000000000e+00  1.4444474582904263e-32 -4.6543272261495605e-01 0.0000000000000000e+00  5.7830755274792862e-17 -4.6543272261495588e-01 0.0000000000000000e+00  2.5747379236033359e-16 -4.6543272261495550e-01 0.0000000000000000e+00  4.7171030399010793e-16 -4.6543272261495539e-01 0.0000000000000000e+00  5.9844127718147659e-16 -4.6543272261495533e-01 0.0000000000000000e+00  5.7591230791986520e-16 -4.6543272261495411e-01 0.0000000000000000e+00  4.6503497023889112e-16 -4.6543272261495428e-01 0.0000000000000000e+00  3.3781231777314234e-16 -4.6543272261495472e-01 0.0000000000000000e+00  2.3083411363767774e-16 -4.6543272261495472e-01 0.0000000000000000e+00  1.2593037038636254e-16 -4.6543272261495472e-01 0.0000000000000000e+00  -3.8262341119265438e-33 -4.6543272261495411e-01 0.0000000000000000e+00  -7.0047652434124415e-33 -5.0179153086489681e-01 0.0000000000000000e+00  1.8378312096717609e-16 -5.0179153086489658e-01 0.0000000000000000e+00  3.4591981339969748e-16 -5.0179153086489725e-01 0.0000000000000000e+00  4.5256563285653897e-16 -5.0179153086489636e-01 0.0000000000000000e+00  3.8825445306302766e-16 -5.0179153086489570e-01 0.0000000000000000e+00  4.0460601987620776e-16 -5.0179153086489503e-01 0.0000000000000000e+00  4.9120613502757005e-16 -5.0179153086489492e-01 0.0000000000000000e+00  4.2707984613882633e-16 -5.0179153086489470e-01 0.0000000000000000e+00  2.7415894351960513e-16 -5.0179153086489514e-01 0.0000000000000000e+00  1.1805487576366750e-16 -5.0179153086489492e-01 0.0000000000000000e+00  2.3794692504873568e-32 -5.0179153086489514e-01 0.0000000000000000e+00  1.4444474582904258e-32 -5.3826260038198603e-01 0.0000000000000000e+00  3.1372695676029970e-16 -5.3826260038198626e-01 0.0000000000000000e+00  3.9961146050788826e-16 -5.3826260038198626e-01 0.0000000000000000e+00  4.0001422822048367e-16 -5.3826260038198503e-01 0.0000000000000000e+00  4.3931816301761507e-16 -5.3826260038198492e-01 0.0000000000000000e+00  4.2869370965781161e-16 -5.3826260038198437e-01 0.0000000000000000e+00  5.3064259486647475e-16 -5.3826260038198426e-01 0.0000000000000000e+00  4.4716213551861497e-16 -5.3826260038198459e-01 0.0000000000000000e+00  3.0440943579173355e-16 -5.3826260038198426e-01 0.0000000000000000e+00  1.4962945669003704e-16 -5.3826260038198415e-01 0.0000000000000000e+00  2.0763932212924862e-32 -5.3826260038198415e-01 0.0000000000000000e+00  4.2189577319701524e-32 -5.7485007296032897e-01 0.0000000000000000e+00  2.9419348616121067e-16 -5.7485007296032820e-01 0.0000000000000000e+00  3.5028432597983881e-16 -5.7485007296032797e-01 0.0000000000000000e+00  5.1707918044581494e-16 -5.7485007296032808e-01 0.0000000000000000e+00  5.7472562266528181e-16 -5.7485007296032720e-01 0.0000000000000000e+00  6.2479063796778172e-16 -5.7485007296032709e-01 0.0000000000000000e+00  5.1244185681323837e-16 -5.7485007296032686e-01 0.0000000000000000e+00  4.2507754992477180e-16 -5.7485007296032642e-01 0.0000000000000000e+00  2.8088080785883423e-16 -5.7485007296032675e-01 0.0000000000000000e+00  7.6525908574634217e-17 -5.7485007296032675e-01 0.0000000000000000e+00  1.5232249472456906e-35 -5.7485007296032664e-01 0.0000000000000000e+00  3.1597288150103083e-32 -6.1155737273044963e-01 0.0000000000000000e+00  1.8194805945424054e-16 -6.1155737273044875e-01 0.0000000000000000e+00  4.5163369226412697e-16 -6.1155737273044941e-01 0.0000000000000000e+00  5.7616086576274874e-16 -6.1155737273044819e-01 0.0000000000000000e+00  6.6981408892281683e-16 -6.1155737273044808e-01 0.0000000000000000e+00  6.7346905193884010e-16 -6.1155737273044730e-01 0.0000000000000000e+00  5.0778685963494080e-16 -6.1155737273044697e-01 0.0000000000000000e+00  3.7341372454515775e-16 -6.1155737273044741e-01 0.0000000000000000e+00  2.0508079093530791e-16 -6.1155737273044708e-01 0.0000000000000000e+00  8.6334473054232272e-17 -6.1155737273044719e-01 0.0000000000000000e+00  -2.1325149261439680e-34 -6.1155737273044741e-01 0.0000000000000000e+00  4.1753559341207639e-33 -6.4838718504838788e-01 0.0000000000000000e+00  7.2892569448230284e-17 -6.4838718504838844e-01 0.0000000000000000e+00  2.4906226564778229e-16 -6.4838718504838810e-01 0.0000000000000000e+00  4.6757616339933930e-16 -6.4838718504838777e-01 0.0000000000000000e+00  6.1408098461405496e-16 -6.4838718504838666e-01 0.0000000000000000e+00  6.0287337479066043e-16 -6.4838718504838611e-01 0.0000000000000000e+00  3.8508661805311015e-16 -6.4838718504838522e-01 0.0000000000000000e+00  2.3728612825021068e-16 -6.4838718504838577e-01 0.0000000000000000e+00  1.4553630274302511e-16 -6.4838718504838611e-01 0.0000000000000000e+00  6.9956365199248449e-17 -6.4838718504838588e-01 0.0000000000000000e+00  7.5688401971803010e-33 -6.4838718504838655e-01 0.0000000000000000e+00  7.2222372914521399e-33 -6.8534143993958874e-01 0.0000000000000000e+00  1.4114745773846299e-16 -6.8534143993958963e-01 0.0000000000000000e+00  3.2448410519864358e-17 -6.8534143993958963e-01 0.0000000000000000e+00  9.5242986220955744e-17 -6.8534143993958874e-01 0.0000000000000000e+00  2.0067678967155981e-16 -6.8534143993958863e-01 0.0000000000000000e+00  1.9218226232845802e-16 -6.8534143993958729e-01 0.0000000000000000e+00  2.1447028430781228e-16 -6.8534143993958663e-01 0.0000000000000000e+00  1.5475621069836070e-16 -6.8534143993958729e-01 0.0000000000000000e+00  1.7987830296784255e-16 -6.8534143993958674e-01 0.0000000000000000e+00  1.3884094873850566e-16 -6.8534143993958718e-01 0.0000000000000000e+00  -4.8524406801944063e-33 -6.8534143993958718e-01 0.0000000000000000e+00  -1.8055593228630343e-33 -7.2242130019965101e-01 0.0000000000000000e+00  5.6870486754915142e-17 -7.2242130019965067e-01 0.0000000000000000e+00  -1.2790048473811206e-16 -7.2242130019965067e-01 0.0000000000000000e+00  -2.1750466864215136e-16 -7.2242130019965090e-01 0.0000000000000000e+00  -4.0782125370403402e-16 -7.2242130019965045e-01 0.0000000000000000e+00  -3.4664806564842905e-16 -7.2242130019964879e-01 0.0000000000000000e+00  -6.5382072793179821e-17 -7.2242130019964856e-01 0.0000000000000000e+00  2.1750466864215143e-16 -7.2242130019964823e-01 0.0000000000000000e+00  2.0391062685201701e-16 -7.2242130019964845e-01 0.0000000000000000e+00  1.4217621688728783e-16 -7.2242130019964845e-01 0.0000000000000000e+00  0.0000000000000000e+00 -7.2242130019964923e-01 0.0000000000000000e+00  1.2822618537228319e-17 -1.7769098107114759e-02 0.0000000000000000e+00  3.0747875876473487e-17 -1.7769098107114752e-02 0.0000000000000000e+00  5.3725671017892177e-17 -1.7769098107114748e-02 0.0000000000000000e+00  7.3124482775829061e-17 -1.7769098107114748e-02 0.0000000000000000e+00  8.6263753465347909e-17 -1.7769098107114731e-02 0.0000000000000000e+00  8.2098863606592545e-17 -1.7769098107114720e-02 0.0000000000000000e+00  6.0009437911782622e-17 -1.7769098107114727e-02 0.0000000000000000e+00  4.0105078365468838e-17 -1.7769098107114727e-02 0.0000000000000000e+00  1.6782469714315404e-17 -1.7769098107114720e-02 0.0000000000000000e+00  6.3287602222371430e-19 -1.7769098107114720e-02 0.0000000000000000e+00  2.7029845194757683e-17 -5.3312240955458626e-02 0.0000000000000000e+00  7.3695960247182965e-17 -5.3312240955458584e-02 0.0000000000000000e+00  1.4107512390175022e-16 -5.3312240955458584e-02 0.0000000000000000e+00  1.8739829891426518e-16 -5.3312240955458536e-02 0.0000000000000000e+00  2.3161587506257492e-16 -5.3312240955458515e-02 0.0000000000000000e+00  2.0533227005034351e-16 -5.3312240955458480e-02 0.0000000000000000e+00  1.5773388039167560e-16 -5.3312240955458438e-02 0.0000000000000000e+00  1.0317434434605613e-16 -5.3312240955458425e-02 0.0000000000000000e+00  5.2674447137058694e-17 -5.3312240955458466e-02 0.0000000000000000e+00  1.0753104492385767e-17 -5.3312240955458487e-02 0.0000000000000000e+00  3.1413258730327239e-17 -8.8870193208501494e-02 0.0000000000000000e+00  9.4899570800476022e-17 -8.8870193208501522e-02 0.0000000000000000e+00  1.9582069437108586e-16 -8.8870193208501397e-02 0.0000000000000000e+00  2.7166227689730735e-16 -8.8870193208501369e-02 0.0000000000000000e+00  3.0531183530975747e-16 -8.8870193208501244e-02 0.0000000000000000e+00  2.7699650751017128e-16 -8.8870193208501189e-02 0.0000000000000000e+00  2.0478975828203547e-16 -8.8870193208501119e-02 0.0000000000000000e+00  1.6634231027221276e-16 -8.8870193208501161e-02 0.0000000000000000e+00  9.6239498086172935e-17 -8.8870193208501203e-02 0.0000000000000000e+00  4.5278608565761539e-17 -8.8870193208501175e-02 0.0000000000000000e+00  2.6177715608606083e-17 -1.2445272633192332e-01 0.0000000000000000e+00  1.3475832730913451e-16 -1.2445272633192321e-01 0.0000000000000000e+00  2.2319347960575409e-16 -1.2445272633192325e-01 0.0000000000000000e+00  3.2005102735919460e-16 -1.2445272633192303e-01 0.0000000000000000e+00  3.3689581827283640e-16 -1.2445272633192292e-01 0.0000000000000000e+00  2.8416008421808669e-16 -1.2445272633192277e-01 0.0000000000000000e+00  2.5690891141791236e-16 -1.2445272633192271e-01 0.0000000000000000e+00  2.1477108414893311e-16 -1.2445272633192275e-01 0.0000000000000000e+00  1.6071649987928610e-16 -1.2445272633192275e-01 0.0000000000000000e+00  5.8700132950800380e-17 -1.2445272633192274e-01 0.0000000000000000e+00  6.2826517460654528e-17 -1.6006946024216387e-01 0.0000000000000000e+00  1.8595108932897188e-16 -1.6006946024216387e-01 0.0000000000000000e+00  2.2740467733416428e-16 -1.6006946024216379e-01 0.0000000000000000e+00  2.8434968800560273e-16 -1.6006946024216351e-01 0.0000000000000000e+00  3.2426222508760469e-16 -1.6006946024216340e-01 0.0000000000000000e+00  3.6266818676727371e-16 -1.6006946024216323e-01 0.0000000000000000e+00  2.9823481412579784e-16 -1.6006946024216312e-01 0.0000000000000000e+00  2.3582707279098516e-16 -1.6006946024216318e-01 0.0000000000000000e+00  1.9136774052225553e-16 -1.6006946024216312e-01 0.