<?xml version="1.0"?>
<VTKFile type="UnstructuredGrid"  version="0.1"  >
<UnstructuredGrid>
<Piece  NumberOfPoints="431" NumberOfCells="800">
<Points>
<DataArray  type="Float64"  NumberOfComponents="3"  format="ascii">-0.25 -1 0  -0.2 -1 0  -0.15 -1 0  -0.1 -1 0  -0.04999999999999999 -1 0  0 -1 0  0.04999999999999999 -1 0  0.09999999999999998 -1 0  0.15 -1 0  0.2 -1 0  0.25 -1 0  -0.25 -0.95 0  -0.2 -0.95 0  -0.15 -0.95 0  -0.1 -0.95 0  -0.04999999999999999 -0.95 0  0 -0.95 0  0.04999999999999999 -0.95 0  0.09999999999999998 -0.95 0  0.15 -0.95 0  0.2 -0.95 0  0.25 -0.95 0  -0.25 -0.9 0  -0.2 -0.9 0  -0.15 -0.9 0  -0.1 -0.9 0  -0.04999999999999999 -0.9 0  0 -0.9 0  0.04999999999999999 -0.9 0  0.09999999999999998 -0.9 0  0.15 -0.9 0  0.2 -0.9 0  0.25 -0.9 0  -0.25 -0.85 0  -0.2 -0.85 0  -0.15 -0.85 0  -0.1 -0.85 0  -0.04999999999999999 -0.85 0  0 -0.85 0  0.04999999999999999 -0.85 0  0.09999999999999998 -0.85 0  0.15 -0.85 0  0.2 -0.85 0  0.25 -0.85 0  -0.25 -0.8 0  -0.2 -0.8 0  -0.15 -0.8 0  -0.1 -0.8 0  -0.04999999999999999 -0.8 0  0 -0.8 0  0.04999999999999999 -0.8 0  0.09999999999999998 -0.8 0  0.15 -0.8 0  0.2 -0.8 0  0.25 -0.8 0  -0.25 -0.75 0  -0.2 -0.75 0  -0.15 -0.75 0  -0.1 -0.75 0  -0.04999999999999999 -0.75 0  0 -0.75 0  0.04999999999999999 -0.75 0  0.09999999999999998 -0.75 0  0.15 -0.75 0  0.2 -0.75 0  0.25 -0.75 0  -0.25 -0.7 0  -0.2 -0.7 0  -0.15 -0.7 0  -0.1 -0.7 0  -0.04999999999999999 -0.7 0  0 -0.7 0  0.04999999999999999 -0.7 0  0.09999999999999998 -0.7 0  0.15 -0.7 0  0.2 -0.7 0  0.25 -0.7 0  -0.25 -0.65 0  -0.2 -0.65 0  -0.15 -0.65 0  -0.1 -0.65 0  -0.04999999999999999 -0.65 0  0 -0.65 0  0.04999999999999999 -0.65 0  0.09999999999999998 -0.65 0  0.15 -0.65 0  0.2 -0.65 0  0.25 -0.65 0  -0.25 -0.6 0  -0.2 -0.6 0  -0.15 -0.6 0  -0.1 -0.6 0  -0.04999999999999999 -0.6 0  0 -0.6 0  0.04999999999999999 -0.6 0  0.09999999999999998 -0.6 0  0.15 -0.6 0  0.2 -0.6 0  0.25 -0.6 0  -0.25 -0.55 0  -0.2 -0.55 0  -0.15 -0.55 0  -0.1 -0.55 0  -0.04999999999999999 -0.55 0  0 -0.55 0  0.04999999999999999 -0.55 0  0.09999999999999998 -0.55 0  0.15 -0.55 0  0.2 -0.55 0  0.25 -0.55 0  -0.25 -0.5 0  -0.2 -0.5 0  -0.15 -0.5 0  -0.1 -0.5 0  -0.04999999999999999 -0.5 0  0 -0.5 0  0.04999999999999999 -0.5 0  0.09999999999999998 -0.5 0  0.15 -0.5 0  0.2 -0.5 0  0.25 -0.5 0  -0.25 -0.45 0  -0.2 -0.45 0  -0.15 -0.45 0  -0.1 -0.45 0  -0.04999999999999999 -0.45 0  0 -0.45 0  0.04999999999999999 -0.45 0  0.09999999999999998 -0.45 0  0.15 -0.45 0  0.2 -0.45 0  0.25 -0.45 0  -0.25 -0.4 0  -0.2 -0.4 0  -0.15 -0.4 0  -0.1 -0.4 0  -0.04999999999999999 -0.4 0  0 -0.4 0  0.04999999999999999 -0.4 0  0.09999999999999998 -0.4 0  0.15 -0.4 0  0.2 -0.4 0  0.25 -0.4 0  -0.25 -0.35 0  -0.2 -0.35 0  -0.15 -0.35 0  -0.1 -0.35 0  -0.04999999999999999 -0.35 0  0 -0.35 0  0.04999999999999999 -0.35 0  0.09999999999999998 -0.35 0  0.15 -0.35 0  0.2 -0.35 0  0.25 -0.35 0  -0.25 -0.3 0  -0.2 -0.3 0  -0.15 -0.3 0  -0.1 -0.3 0  -0.04999999999999999 -0.3 0  0 -0.3 0  0.04999999999999999 -0.3 0  0.09999999999999998 -0.3 0  0.15 -0.3 0  0.2 -0.3 0  0.25 -0.3 0  -0.25 -0.25 0  -0.2 -0.25 0  -0.15 -0.25 0  -0.1 -0.25 0  -0.04999999999999999 -0.25 0  0 -0.25 0  0.04999999999999999 -0.25 0  0.09999999999999998 -0.25 0  0.15 -0.25 0  0.2 -0.25 0  0.25 -0.25 0  -0.25 -0.2 0  -0.2 -0.2 0  -0.15 -0.2 0  -0.1 -0.2 0  -0.04999999999999999 -0.2 0  0 -0.2 0  0.04999999999999999 -0.2 0  0.09999999999999998 -0.2 0  0.15 -0.2 0  0.2 -0.2 0  0.25 -0.2 0  -0.25 -0.15 0  -0.2 -0.15 0  -0.15 -0.15 0  -0.1 -0.15 0  -0.04999999999999999 -0.15 0  0 -0.15 0  0.04999999999999999 -0.15 0  0.09999999999999998 -0.15 0  0.15 -0.15 0  0.2 -0.15 0  0.25 -0.15 0  -0.25 -0.09999999999999998 0  -0.2 -0.09999999999999998 0  -0.15 -0.09999999999999998 0  -0.1 -0.09999999999999998 0  -0.04999999999999999 -0.09999999999999998 0  0 -0.09999999999999998 0  0.04999999999999999 -0.09999999999999998 0  0.09999999999999998 -0.09999999999999998 0  0.15 -0.09999999999999998 0  0.2 -0.09999999999999998 0  0.25 -0.09999999999999998 0  -0.25 -0.05000000000000004 0  -0.2 -0.05000000000000004 0  -0.15 -0.05000000000000004 0  -0.1 -0.05000000000000004 0  -0.04999999999999999 -0.05000000000000004 0  0 -0.05000000000000004 0  0.04999999999999999 -0.05000000000000004 0  0.09999999999999998 -0.05000000000000004 0  0.15 -0.05000000000000004 0  0.2 -0.05000000000000004 0  0.25 -0.05000000000000004 0  -0.25 0 0  -0.2 0 0  -0.15 0 0  -0.1 0 0  -0.04999999999999999 0 0  0 0 0  0.04999999999999999 0 0  0.09999999999999998 0 0  0.15 0 0  0.2 0 0  0.25 0 0  -0.225 -0.975 0  -0.175 -0.975 0  -0.125 -0.975 0  -0.07500000000000001 -0.975 0  -0.02499999999999999 -0.975 0  0.02500000000000002 -0.975 0  0.07500000000000001 -0.975 0  0.125 -0.975 0  0.175 -0.975 0  0.225 -0.975 0  -0.225 -0.925 0  -0.175 -0.925 0  -0.125 -0.925 0  -0.07500000000000001 -0.925 0  -0.02499999999999999 -0.925 0  0.02500000000000002 -0.925 0  0.07500000000000001 -0.925 0  0.125 -0.925 0  0.175 -0.925 0  0.225 -0.925 0  -0.225 -0.875 0  -0.175 -0.875 0  -0.125 -0.875 0  -0.07500000000000001 -0.875 0  -0.02499999999999999 -0.875 0  0.02500000000000002 -0.875 0  0.07500000000000001 -0.875 0  0.125 -0.875 0  0.175 -0.875 0  0.225 -0.875 0  -0.225 -0.825 0  -0.175 -0.825 0  -0.125 -0.825 0  -0.07500000000000001 -0.825 0  -0.02499999999999999 -0.825 0  0.02500000000000002 -0.825 0  0.07500000000000001 -0.825 0  0.125 -0.825 0  0.175 -0.825 0  0.225 -0.825 0  -0.225 -0.775 0  -0.175 -0.775 0  -0.125 -0.775 0  -0.07500000000000001 -0.775 0  -0.02499999999999999 -0.775 0  0.02500000000000002 -0.775 0  0.07500000000000001 -0.775 0  0.125 -0.775 0  0.175 -0.775 0  0.225 -0.775 0  -0.225 -0.725 0  -0.175 -0.725 0  -0.125 -0.725 0  -0.07500000000000001 -0.725 0  -0.02499999999999999 -0.725 0  0.02500000000000002 -0.725 0  0.07500000000000001 -0.725 0  0.125 -0.725 0  0.175 -0.725 0  0.225 -0.725 0  -0.225 -0.675 0  -0.175 -0.675 0  -0.125 -0.675 0  -0.07500000000000001 -0.675 0  -0.02499999999999999 -0.675 0  0.02500000000000002 -0.675 0  0.07500000000000001 -0.675 0  0.125 -0.675 0  0.175 -0.675 0  0.225 -0.675 0  -0.225 -0.625 0  -0.175 -0.625 0  -0.125 -0.625 0  -0.07500000000000001 -0.625 0  -0.02499999999999999 -0.625 0  0.02500000000000002 -0.625 0  0.07500000000000001 -0.625 0  0.125 -0.625 0  0.175 -0.625 0  0.225 -0.625 0  -0.225 -0.575 0  -0.175 -0.575 0  -0.125 -0.575 0  -0.07500000000000001 -0.575 0  -0.02499999999999999 -0.575 0  0.02500000000000002 -0.575 0  0.07500000000000001 -0.575 0  0.125 -0.575 0  0.175 -0.575 0  0.225 -0.575 0  -0.225 -0.525 0  -0.175 -0.525 0  -0.125 -0.525 0  -0.07500000000000001 -0.525 0  -0.02499999999999999 -0.525 0  0.02500000000000002 -0.525 0  0.07500000000000001 -0.525 0  0.125 -0.525 0  0.175 -0.525 0  0.225 -0.525 0  -0.225 -0.475 0  -0.175 -0.475 0  -0.125 -0.475 0  -0.07500000000000001 -0.475 0  -0.02499999999999999 -0.475 0  0.02500000000000002 -0.475 0  0.07500000000000001 -0.475 0  0.125 -0.475 0  0.175 -0.475 0  0.225 -0.475 0  -0.225 -0.425 0  -0.175 -0.425 0  -0.125 -0.425 0  -0.07500000000000001 -0.425 0  -0.02499999999999999 -0.425 0  0.02500000000000002 -0.425 0  0.07500000000000001 -0.425 0  0.125 -0.425 0  0.175 -0.425 0  0.225 -0.425 0  -0.225 -0.375 0  -0.175 -0.375 0  -0.125 -0.375 0  -0.07500000000000001 -0.375 0  -0.02499999999999999 -0.375 0  0.02500000000000002 -0.375 0  0.07500000000000001 -0.375 0  0.125 -0.375 0  0.175 -0.375 0  0.225 -0.375 0  -0.225 -0.325 0  -0.175 -0.325 0  -0.125 -0.325 0  -0.07500000000000001 -0.325 0  -0.02499999999999999 -0.325 0  0.02500000000000002 -0.325 0  0.07500000000000001 -0.325 0  0.125 -0.325 0  0.175 -0.325 0  0.225 -0.325 0  -0.225 -0.275 0  -0.175 -0.275 0  -0.125 -0.275 0  -0.07500000000000001 -0.275 0  -0.02499999999999999 -0.275 0  0.02500000000000002 -0.275 0  0.07500000000000001 -0.275 0  0.125 -0.275 0  0.175 -0.275 0  0.225 -0.275 0  -0.225 -0.225 0  -0.175 -0.225 0  -0.125 -0.225 0  -0.07500000000000001 -0.225 0  -0.02499999999999999 -0.225 0  0.02500000000000002 -0.225 0  0.07500000000000001 -0.225 0  0.125 -0.225 0  0.175 -0.225 0  0.225 -0.225 0  -0.225 -0.175 0  -0.175 -0.175 0  -0.125 -0.175 0  -0.07500000000000001 -0.175 0  -0.02499999999999999 -0.175 0  0.02500000000000002 -0.175 0  0.07500000000000001 -0.175 0  0.125 -0.175 0  0.175 -0.175 0  0.225 -0.175 0  -0.225 -0.125 0  -0.175 -0.125 0  -0.125 -0.125 0  -0.07500000000000001 -0.125 0  -0.02499999999999999 -0.125 0  0.02500000000000002 -0.125 0  0.07500000000000001 -0.125 0  0.125 -0.125 0  0.175 -0.125 0  0.225 -0.125 0  -0.225 -0.07499999999999996 0  -0.175 -0.07499999999999996 0  -0.125 -0.07499999999999996 0  -0.07500000000000001 -0.07499999999999996 0  -0.02499999999999999 -0.07499999999999996 0  0.02500000000000002 -0.07499999999999996 0  0.07500000000000001 -0.07499999999999996 0  0.125 -0.07499999999999996 0  0.175 -0.07499999999999996 0  0.225 -0.07499999999999996 0  -0.225 -0.02500000000000002 0  -0.175 -0.02500000000000002 0  -0.125 -0.02500000000000002 0  -0.07500000000000001 -0.02500000000000002 0  -0.02499999999999999 -0.02500000000000002 0  0.02500000000000002 -0.02500000000000002 0  0.07500000000000001 -0.02500000000000002 0  0.125 -0.02500000000000002 0  0.175 -0.02500000000000002 0  0.225 -0.02500000000000002 0  </DataArray>
</Points>
<Cells>
[...]
<PointData  Vectors="displacement"> 
<DataArray  type="Float64"  Name="displacement"  NumberOfComponents="3" format="ascii">0.0000000000000000e+00 -4.0657581468206378e-18 0.0000000000000000e+00  -9.0277966143151578e-34 -6.0986372202309555e-18 0.0000000000000000e+00  2.1807771196455056e-32 -5.0504339480037611e-18 0.0000000000000000e+00  1.6250033905767292e-32 -1.5246593050577395e-18 0.0000000000000000e+00  1.8073085902457257e-32 2.5303565797254436e-18 0.0000000000000000e+00  1.6250033905767283e-32 -3.5575383784680576e-18 0.0000000000000000e+00  3.3935787224270149e-33 -2.0839988352660964e-18 0.0000000000000000e+00  3.7013966118692145e-32 -4.0657581468206370e-18 0.0000000000000000e+00  5.3871219105364243e-33 -9.5291206566108673e-19 0.0000000000000000e+00  5.4166779685890967e-33 -2.0328790734103193e-18 0.0000000000000000e+00  0.0000000000000000e+00 -9.1479558303464313e-18 0.0000000000000000e+00  0.0000000000000000e+00 -3.4189032094714397e-02 0.0000000000000000e+00  5.8992893667043518e-17 -3.4189032094714342e-02 0.0000000000000000e+00  9.0521072664987886e-17 -3.4189032094714307e-02 0.0000000000000000e+00  1.3594613562704263e-16 -3.4189032094714356e-02 0.0000000000000000e+00  1.7264271661837261e-16 -3.4189032094714314e-02 0.0000000000000000e+00  1.9828273966306875e-16 -3.4189032094714238e-02 0.0000000000000000e+00  1.8650169752508305e-16 -3.4189032094714203e-02 0.0000000000000000e+00  1.4462722851478941e-16 -3.4189032094714224e-02 0.0000000000000000e+00  9.8770610257170629e-17 -3.4189032094714210e-02 0.0000000000000000e+00  3.8932935860744999e-17 -3.4189032094714189e-02 0.0000000000000000e+00  4.9656816462241742e-33 -3.4189032094714203e-02 0.0000000000000000e+00  -8.8211691454039080e-35 -6.8396275503064430e-02 0.0000000000000000e+00  7.4227279585290137e-17 -6.8396275503064388e-02 0.0000000000000000e+00  1.7120992818385734e-16 -6.8396275503064374e-02 0.0000000000000000e+00  2.1711873287915379e-16 -6.8396275503064305e-02 0.0000000000000000e+00  2.8364934584874867e-16 -6.8396275503064319e-02 0.0000000000000000e+00  2.9965220761458653e-16 -6.8396275503064138e-02 0.0000000000000000e+00  2.7613788149018440e-16 -6.8396275503064055e-02 0.0000000000000000e+00  2.0962977105136049e-16 -6.8396275503064055e-02 0.0000000000000000e+00  1.5076517563111465e-16 -6.8396275503064000e-02 0.0000000000000000e+00  8.8625787706064771e-17 -6.8396275503064013e-02 0.0000000000000000e+00  -1.3670663444534393e-32 -6.8396275503064055e-02 0.0000000000000000e+00  3.2500067811534594e-32 -1.0263982925988331e-01 0.0000000000000000e+00  9.6730573073516229e-17 -1.0263982925988321e-01 0.0000000000000000e+00  1.8737264383124197e-16 -1.0263982925988319e-01 0.0000000000000000e+00  2.8922139398465327e-16 -1.0263982925988317e-01 0.0000000000000000e+00  3.3487122406503134e-16 -1.0263982925988308e-01 0.0000000000000000e+00  3.3715702581668456e-16 -1.0263982925988285e-01 0.0000000000000000e+00  2.8387044687112697e-16 -1.0263982925988277e-01 0.0000000000000000e+00  2.4478682364265068e-16 -1.0263982925988280e-01 0.0000000000000000e+00  1.8679669923583660e-16 -1.0263982925988271e-01 0.0000000000000000e+00  1.0517582839187384e-16 -1.0263982925988271e-01 0.0000000000000000e+00  1.4444474582904261e-32 -1.0263982925988273e-01 0.0000000000000000e+00  -1.7049402312599429e-32 -1.3693756853463479e-01 0.0000000000000000e+00  1.2039302664443392e-16 -1.3693756853463468e-01 0.0000000000000000e+00  2.1627691089691964e-16 -1.3693756853463457e-01 0.0000000000000000e+00  2.7828303113515887e-16 -1.3693756853463454e-01 0.0000000000000000e+00  3.1170618185563355e-16 -1.3693756853463437e-01 0.0000000000000000e+00  3.0827400870705855e-16 -1.3693756853463407e-01 0.0000000000000000e+00  3.0570663509198247e-16 -1.3693756853463401e-01 0.0000000000000000e+00  2.5454833768841797e-16 -1.3693756853463390e-01 0.0000000000000000e+00  2.0608496780857518e-16 -1.3693756853463393e-01 0.0000000000000000e+00  1.0646559606411895e-16 -1.3693756853463382e-01 0.0000000000000000e+00  -1.7295156952267853e-32 -1.3693756853463390e-01 0.0000000000000000e+00  3.2500067811534583e-32 -1.7130703442505127e-01 0.0000000000000000e+00  1.3145121561466193e-16 -1.7130703442505107e-01 0.0000000000000000e+00  2.0680870094071741e-16 -1.7130703442505096e-01 0.0000000000000000e+00  2.8266211363042698e-16 -1.7130703442505082e-01 0.0000000000000000e+00  2.9403184138974275e-16 -1.7130703442505077e-01 0.0000000000000000e+00  3.1071012150841535e-16 -1.7130703442505044e-01 0.0000000000000000e+00  3.3651511847289307e-16 -1.7130703442505033e-01 0.0000000000000000e+00  2.8095174844556673e-16 -1.7130703442505016e-01 0.0000000000000000e+00  1.8902626053313924e-16 -1.7130703442505005e-01 0.0000000000000000e+00  9.1581866485280659e-17 -1.7130703442505008e-01 0.0000000000000000e+00  1.4631722651007505e-32 -1.7130703442505002e-01 0.0000000000000000e+00  -1.0857877665967875e-32 -2.0576532581043402e-01 0.0000000000000000e+00  1.3409363523185656e-16 -2.0576532581043377e-01 0.0000000000000000e+00  1.9717429363782748e-16 -2.0576532581043361e-01 0.0000000000000000e+00  2.8092590625225304e-16 -2.0576532581043364e-01 0.0000000000000000e+00  3.2170542646171867e-16 -2.0576532581043333e-01 0.0000000000000000e+00  3.2790652226469430e-16 -2.0576532581043294e-01 0.0000000000000000e+00  2.7315742899308044e-16 -2.0576532581043272e-01 0.0000000000000000e+00  2.5840662522706682e-16 -2.0576532581043266e-01 0.0000000000000000e+00  1.9440545000488842e-16 -2.0576532581043241e-01 0.0000000000000000e+00  7.0440055836926798e-17 -2.0576532581043253e-01 0.0000000000000000e+00  -1.0124029060339157e-32 -2.0576532581043247e-01 0.0000000000000000e+00  1.6250033905767300e-32 -2.4032899393137744e-01 0.0000000000000000e+00  9.0741460981172836e-17 -2.4032899393137744e-01 0.0000000000000000e+00  2.5079966999161940e-16 -2.4032899393137738e-01 0.0000000000000000e+00  3.2854807553141234e-16 -2.4032899393137691e-01 0.0000000000000000e+00  3.6321580406968261e-16 -2.4032899393137680e-01 0.0000000000000000e+00  3.2563612594715419e-16 -2.4032899393137644e-01 0.0000000000000000e+00  2.6018312598678941e-16 -2.4032899393137627e-01 0.0000000000000000e+00  1.8845877840224088e-16 -2.4032899393137613e-01 0.0000000000000000e+00  1.3144952909188510e-16 -2.4032899393137588e-01 0.0000000000000000e+00  8.9116068605476454e-17 -2.4032899393137572e-01 0.0000000000000000e+00  1.5347254244335780e-32 -2.4032899393137616e-01 0.0000000000000000e+00  -4.7572153851951988e-33 -2.7501394034586829e-01 0.0000000000000000e+00  9.1199980709975418e-17 -2.7501394034586801e-01 0.0000000000000000e+00  2.4560306751378532e-16 -2.7501394034586818e-01 0.0000000000000000e+00  3.3900141713170311e-16 -2.7501394034586751e-01 0.0000000000000000e+00  3.6702632701416353e-16 -2.7501394034586735e-01 0.0000000000000000e+00  3.3035342179671089e-16 -2.7501394034586713e-01 0.0000000000000000e+00  2.5009273882292574e-16 -2.7501394034586663e-01 0.0000000000000000e+00  2.0584015783320159e-16 -2.7501394034586679e-01 0.0000000000000000e+00  1.5015081900380615e-16 -2.7501394034586657e-01 0.0000000000000000e+00  7.0661404546736577e-17 -2.7501394034586657e-01 0.0000000000000000e+00  -4.3322844299555379e-33 -2.7501394034586679e-01 0.0000000000000000e+00  1.9861152551493386e-32 -3.0983531889089105e-01 0.0000000000000000e+00  1.4952064806752738e-16 -3.0983531889089116e-01 0.0000000000000000e+00  2.7565485130288387e-16 -3.0983531889089083e-01 0.0000000000000000e+00  3.1645739946614124e-16 -3.0983531889089055e-01 0.0000000000000000e+00  2.6981745445176398e-16 -3.0983531889089000e-01 0.0000000000000000e+00  2.3825888954112893e-16 -3.0983531889088967e-01 0.0000000000000000e+00  2.2353716691684364e-16 -3.0983531889088917e-01 0.0000000000000000e+00  2.1657823317071672e-16 -3.0983531889088917e-01 0.0000000000000000e+00  2.0064070061041210e-16 -3.0983531889088944e-01 0.0000000000000000e+00  1.2179283248979536e-16 -3.0983531889088939e-01 0.0000000000000000e+00  -1.5181509540869854e-32 -3.0983531889088933e-01 0.0000000000000000e+00  -2.7056070463333385e-32 -3.4480744225398563e-01 0.0000000000000000e+00  1.5705536250886367e-16 -3.4480744225398580e-01 0.0000000000000000e+00  2.5252146378177896e-16 -3.4480744225398580e-01 0.0000000000000000e+00  3.0103839741430067e-16 -3.4480744225398463e-01 0.0000000000000000e+00  2.9057264325574583e-16 -3.4480744225398485e-01 0.0000000000000000e+00  2.8022553730190981e-16 -3.4480744225398419e-01 0.0000000000000000e+00  2.5629106450704849e-16 -3.4480744225398374e-01 0.0000000000000000e+00  1.9288417290610040e-16 -3.4480744225398396e-01 0.0000000000000000e+00  1.3256748322307191e-16 -3.4480744225398396e-01 0.0000000000000000e+00  9.4660287874183725e-17 -3.4480744225398369e-01 0.0000000000000000e+00  1.9474246982308410e-32 -3.4480744225398391e-01 0.0000000000000000e+00  -5.4166779685891049e-33 -3.7994369373076642e-01 0.0000000000000000e+00  1.4967485933083445e-16 -3.7994369373076625e-01 0.0000000000000000e+00  1.6795817082325217e-16 -3.7994369373076575e-01 0.0000000000000000e+00  2.8409058714926306e-16 -3.7994369373076586e-01 0.0000000000000000e+00  3.1824622832772151e-16 -3.7994369373076531e-01 0.0000000000000000e+00  3.5700877881470679e-16 -3.7994369373076503e-01 0.0000000000000000e+00  2.7289603041413263e-16 -3.7994369373076448e-01 0.0000000000000000e+00  2.2296503865319504e-16 -3.7994369373076448e-01 0.0000000000000000e+00  1.8679669923583658e-16 -3.7994369373076431e-01 0.0000000000000000e+00  5.9775708460807404e-17 -3.7994369373076442e-01 0.0000000000000000e+00  5.4166779685891036e-33 -3.7994369373076453e-01 0.0000000000000000e+00  5.2999596447471012e-33 -4.1525644471245521e-01 0.0000000000000000e+00  5.6009913711461322e-17 -4.1525644471245499e-01 0.0000000000000000e+00  2.1335212553598355e-16 -4.1525644471245493e-01 0.0000000000000000e+00  2.7500625165275938e-16 -4.1525644471245399e-01 0.0000000000000000e+00  4.6014246635117887e-16 -4.1525644471245321e-01 0.0000000000000000e+00  4.6526214902259355e-16 -4.1525644471245338e-01 0.0000000000000000e+00  3.8544029568952118e-16 -4.1525644471245265e-01 0.0000000000000000e+00  2.4535465433150062e-16 -4.1525644471245310e-01 0.0000000000000000e+00  1.5981225129211804e-16 -4.1525644471245277e-01 0.0000000000000000e+00  1.0388629486775023e-16 -4.1525644471245265e-01 0.0000000000000000e+00  -3.2944908459438642e-33 -4.1525644471245315e-01 0.0000000000000000e+00  1.0833355937178198e-32 -4.5075697841213652e-01 0.0000000000000000e+00  4.7814180184994156e-17 -4.5075697841213586e-01 0.0000000000000000e+00  2.2375336680021842e-16 -4.5075697841213613e-01 0.0000000000000000e+00  4.2813649558668348e-16 -4.5075697841213552e-01 0.0000000000000000e+00  5.5347170143951642e-16 -4.5075697841213508e-01 0.0000000000000000e+00  5.4503042385904003e-16 -4.5075697841213413e-01 0.0000000000000000e+00  4.5663695601905073e-16 -4.5075697841213425e-01 0.0000000000000000e+00  3.4127151590713901e-16 -4.5075697841213469e-01 0.0000000000000000e+00  2.2004904560863266e-16 -4.5075697841213463e-01 0.0000000000000000e+00  1.2240588291843954e-16 -4.5075697841213402e-01 0.0000000000000000e+00  2.0845041323131613e-32 -4.5075697841213491e-01 0.0000000000000000e+00  -1.4355816073260315e-32 -4.8645542029999750e-01 0.0000000000000000e+00  1.5066373070238879e-16 -4.8645542029999839e-01 0.0000000000000000e+00  3.2516462459571549e-16 -4.8645542029999805e-01 0.0000000000000000e+00  4.8497361425310088e-16 -4.8645542029999733e-01 0.0000000000000000e+00  4.1914401140020396e-16 -4.8645542029999689e-01 0.0000000000000000e+00  3.9538040249244208e-16 -4.8645542029999611e-01 0.0000000000000000e+00  5.1196132383155204e-16 -4.8645542029999594e-01 0.0000000000000000e+00  5.2252276197362640e-16 -4.8645542029999594e-01 0.0000000000000000e+00  3.1378715503591554e-16 -4.8645542029999600e-01 0.0000000000000000e+00  1.0904176499291479e-16 -4.8645542029999600e-01 0.0000000000000000e+00  -2.8373075073561981e-32 -4.8645542029999594e-01 0.0000000000000000e+00  0.0000000000000000e+00 -5.2236067567643685e-01 0.0000000000000000e+00  2.7126239335594180e-16 -5.2236067567643740e-01 0.0000000000000000e+00  4.0813999014075070e-16 -5.2236067567643651e-01 0.0000000000000000e+00  4.4698798526587113e-16 -5.2236067567643651e-01 0.0000000000000000e+00  5.3963490890352728e-16 -5.2236067567643585e-01 0.0000000000000000e+00  5.6794988028117725e-16 -5.2236067567643529e-01 0.0000000000000000e+00  5.9769701412349899e-16 -5.2236067567643540e-01 0.0000000000000000e+00  4.6219563731412484e-16 -5.2236067567643474e-01 0.0000000000000000e+00  3.1824622832772146e-16 -5.2236067567643496e-01 0.0000000000000000e+00  1.4002627181722517e-16 -5.2236067567643485e-01 0.0000000000000000e+00  1.8055593228630314e-32 -5.2236067567643507e-01 0.0000000000000000e+00  1.7199750870929065e-32 -5.5848037476791879e-01 0.0000000000000000e+00  2.7563666626488806e-16 -5.5848037476791856e-01 0.0000000000000000e+00  3.4627938567370140e-16 -5.5848037476791890e-01 0.0000000000000000e+00  5.0781298856929732e-16 -5.5848037476791790e-01 0.0000000000000000e+00  5.9641429586194658e-16 -5.5848037476791823e-01 0.0000000000000000e+00  6.3181713417746282e-16 -5.5848037476791679e-01 0.0000000000000000e+00  5.1822763881540059e-16 -5.5848037476791679e-01 0.0000000000000000e+00  3.9818530325974013e-16 -5.5848037476791623e-01 0.0000000000000000e+00  2.5408215668989086e-16 -5.5848037476791623e-01 0.0000000000000000e+00  8.4570329986433024e-17 -5.5848037476791668e-01 0.0000000000000000e+00  -5.4570309980757918e-33 -5.5848037476791679e-01 0.0000000000000000e+00  -7.2222372914521331e-33 -5.9482082568409345e-01 0.0000000000000000e+00  2.1040766254916859e-16 -5.9482082568409334e-01 0.0000000000000000e+00  5.0017325271034779e-16 -5.9482082568409300e-01 0.0000000000000000e+00  6.2602703105083173e-16 -5.9482082568409267e-01 0.0000000000000000e+00  6.3322038297842589e-16 -5.9482082568409167e-01 0.0000000000000000e+00  5.4255036079748142e-16 -5.9482082568409178e-01 0.0000000000000000e+00  4.4247425406594263e-16 -5.9482082568409067e-01 0.0000000000000000e+00  3.2138154890205365e-16 -5.9482082568409111e-01 0.0000000000000000e+00  1.7643261732655662e-16 -5.9482082568409034e-01 0.0000000000000000e+00  6.3449614371114979e-17 -5.9482082568409111e-01 0.0000000000000000e+00  5.6494241281363582e-34 -5.9482082568409123e-01 0.0000000000000000e+00  8.9149491566362257e-33 -6.3138697552619949e-01 0.0000000000000000e+00  1.3710361415386495e-16 -6.3138697552619927e-01 0.0000000000000000e+00  3.0440943579173369e-16 -6.3138697552619938e-01 0.0000000000000000e+00  4.6516080532726161e-16 -6.3138697552619905e-01 0.0000000000000000e+00  4.9885441703465322e-16 -6.3138697552619893e-01 0.0000000000000000e+00  4.5283065572854173e-16 -6.3138697552619727e-01 0.0000000000000000e+00  2.9653165254126429e-16 -6.3138697552619671e-01 0.0000000000000000e+00  1.4973193172976757e-16 -6.3138697552619771e-01 0.0000000000000000e+00  1.4130013627814998e-16 -6.3138697552619649e-01 0.0000000000000000e+00  9.5220393744232355e-17 -6.3138697552619716e-01 0.0000000000000000e+00  4.3446271206391719e-33 -6.3138697552619794e-01 0.0000000000000000e+00  1.8055593228630350e-32 -6.6818237988653939e-01 0.0000000000000000e+00  1.4095828284051079e-16 -6.6818237988654006e-01 0.0000000000000000e+00  3.4888388918589842e-17 -6.6818237988653995e-01 0.0000000000000000e+00  1.0970589788543795e-16 -6.6818237988653906e-01 0.0000000000000000e+00  1.5877306646277758e-16 -6.6818237988653861e-01 0.0000000000000000e+00  6.2560750969344121e-17 -6.6818237988653806e-01 0.0000000000000000e+00  6.3995165478944006e-17 -6.6818237988653695e-01 0.0000000000000000e+00  2.4873048808258192e-17 -6.6818237988653706e-01 0.0000000000000000e+00  9.6857547751915182e-17 -6.6818237988653695e-01 0.0000000000000000e+00  9.5899526996900557e-17 -6.6818237988653673e-01 0.0000000000000000e+00  -1.0269118648783512e-32 -6.6818237988653706e-01 0.0000000000000000e+00  -1.8958372890061845e-32 -7.0520918092706908e-01 0.0000000000000000e+00  2.8435243377457590e-17 -7.0520918092706841e-01 0.0000000000000000e+00  -1.4902003672334664e-16 -7.0520918092706864e-01 0.0000000000000000e+00  -2.9227189848789097e-16 -7.0520918092706864e-01 0.0000000000000000e+00  -4.8938550444484059e-16 -7.0520918092706764e-01 0.0000000000000000e+00  -4.8938550444484069e-16 -7.0520918092706675e-01 0.0000000000000000e+00  -2.5776902024257293e-16 -7.0520918092706653e-01 0.0000000000000000e+00  3.3985104475336154e-17 -7.0520918092706597e-01 0.0000000000000000e+00  7.4767229845739654e-17 -7.0520918092706586e-01 0.0000000000000000e+00  1.4217621688728790e-16 -7.0520918092706586e-01 0.0000000000000000e+00  2.1215322043640629e-32 -7.0520918092706675e-01 0.0000000000000000e+00  2.1160072221305969e-17 -1.7093334064975384e-02 0.0000000000000000e+00  4.1942114997120015e-17 -1.7093334064975381e-02 0.0000000000000000e+00  5.3725671017892164e-17 -1.7093334064975377e-02 0.0000000000000000e+00  8.2864598164675811e-17 -1.7093334064975360e-02 0.0000000000000000e+00  1.0215444489317522e-16 -1.7093334064975350e-02 0.0000000000000000e+00  1.0015132325523505e-16 -1.7093334064975332e-02 0.0000000000000000e+00  8.5760981394743954e-17 -1.7093334064975332e-02 0.0000000000000000e+00  6.5076164894911675e-17 -1.7093334064975325e-02 0.0000000000000000e+00  3.7925559165652363e-17 -1.7093334064975315e-02 0.0000000000000000e+00  8.9978460550936904e-18 -1.7093334064975308e-02 0.0000000000000000e+00  3.4759312132118338e-17 -5.1289115139058337e-02 0.0000000000000000e+00  9.8963146617645640e-17 -5.1289115139058261e-02 0.0000000000000000e+00  1.6423671140800779e-16 -5.1289115139058296e-02 0.0000000000000000e+00  1.9582069437108613e-16 -5.1289115139058206e-02 0.0000000000000000e+00  2.5688306143303761e-16 -5.1289115139058136e-02 0.0000000000000000e+00  2.4859205821832440e-16 -5.1289115139058088e-02 0.0000000000000000e+00  2.0859619509064847e-16 -5.1289115139058067e-02 0.0000000000000000e+00  1.5160311822277632e-16 -5.1289115139058074e-02 0.0000000000000000e+00  9.5397862779903020e-17 -5.1289115139058039e-02 0.0000000000000000e+00  2.8741778509306107e-17 -5.1289115139058032e-02 0.0000000000000000e+00  5.2355431217212061e-17 -8.5512178861207849e-02 0.0000000000000000e+00  1.2959418640765308e-16 -8.5512178861207808e-02 0.0000000000000000e+00  2.2529907846995911e-16 -8.5512178861207683e-02 0.0000000000000000e+00  2.8826083200621195e-16 -8.5512178861207586e-02 0.0000000000000000e+00  3.3057902168022020e-16 -8.5512178861207558e-02 0.0000000000000000e+00  3.0823943565174851e-16 -8.5512178861207433e-02 0.0000000000000000e+00  2.5017381505099821e-16 -8.5512178861207336e-02 0.0000000000000000e+00  2.0003189209949630e-16 -8.5512178861207336e-02 0.0000000000000000e+00  1.4141822371594109e-16 -8.5512178861207280e-02 0.0000000000000000e+00  5.4312293335304630e-17 -8.5512178861207280e-02 0.0000000000000000e+00  6.2826517460654540e-17 -1.1978052672876312e-01 0.0000000000000000e+00  1.5581431595118676e-16 -1.1978052672876305e-01 0.0000000000000000e+00  2.4846066597621673e-16 -1.1978052672876299e-01 0.0000000000000000e+00  3.1583982963078421e-16 -1.1978052672876280e-01 0.0000000000000000e+00  3.4110701600124679e-16 -1.1978052672876274e-01 0.0000000000000000e+00  3.0374937990135848e-16 -1.1978052672876248e-01 0.0000000000000000e+00  2.7659015080150496e-16 -1.1978052672876235e-01 0.0000000000000000e+00  2.3161587506257512e-16 -1.1978052672876228e-01 0.0000000000000000e+00  1.5785398459450793e-16 -1.1978052672876230e-01 0.0000000000000000e+00  5.3509911535808685e-17 -1.1978052672876230e-01 0.0000000000000000e+00  5.7590974338933279e-17 -1.5411188104725262e-01 0.0000000000000000e+00  1.8183392354618506e-16 -1.5411188104725265e-01 0.0000000000000000e+00  2.5267186370462687e-16 -1.5411188104725240e-01 0.0000000000000000e+00  3.0645970121633877e-16 -1.5411188104725221e-01 0.0000000000000000e+00  3.0320623644555234e-16 -1.5411188104725201e-01 0.0000000000000000e+00  3.2995459429469211e-16 -1.5411188104725182e-01 0.0000000000000000e+00  3.0903305830114357e-16 -1.5411188104725165e-01 0.0000000000000000e+00  2.3161587506257462e-16 -1.5411188104725157e-01 0.0000000000000000e+00  1.4569331203487906e-16 -1.5411188104725151e-