<?xml version="1.0"?>
<VTKFile type="UnstructuredGrid"  version="0.1"  >
<UnstructuredGrid>
<Piece  NumberOfPoints="1250" NumberOfCells="2352">
<Points>
<DataArray  type="Float64"  NumberOfComponents="3"  format="ascii">0 0 0  0.0336 0 0  0.0336 0.07729999999999999 0  0 0.07729999999999999 0  0.001400000000000002 0 0  0.002800000000000005 0 0  0.004200000000000008 0 0  0.005600000000000009 0 0  0.007000000000000011 0 0  0.008400000000000013 0 0  0.009800000000000019 0 0  0.01120000000000002 0 0  0.01260000000000003 0 0  0.01400000000000003 0 0  0.01540000000000004 0 0  0.01680000000000005 0 0  0.01820000000000004 0 0  0.01960000000000004 0 0  0.02100000000000004 0 0  0.02240000000000003 0 0  0.02380000000000003 0 0  0.02520000000000002 0 0  0.02660000000000002 0 0  0.02800000000000001 0 0  0.02940000000000001 0 0  0.03080000000000001 0 0  0.0322 0 0  0.0336 0.001577551020408161 0  0.0336 0.003155102040816321 0  0.0336 0.004732653061224482 0  0.0336 0.006310204081632642 0  0.0336 0.007887755102040803 0  0.0336 0.009465306122448964 0  0.0336 0.01104285714285712 0  0.0336 0.01262040816326528 0  0.0336 0.01419795918367344 0  0.0336 0.0157755102040816 0  0.0336 0.01735306122448976 0  0.0336 0.01893061224489792 0  0.0336 0.02050816326530608 0  0.0336 0.02208571428571425 0  0.0336 0.02366326530612241 0  0.0336 0.02524081632653058 0  0.0336 0.02681836734693874 0  0.0336 0.02839591836734691 0  0.0336 0.02997346938775507 0  0.0336 0.03155102040816323 0  0.0336 0.0331285714285714 0  0.0336 0.03470612244897956 0  0.0336 0.03628367346938772 0  0.0336 0.03786122448979588 0  0.0336 0.03943877551020405 0  0.0336 0.04101632653061221 0  0.0336 0.04259387755102037 0  0.0336 0.04417142857142854 0  0.0336 0.04574897959183671 0  0.0336 0.04732653061224486 0  0.0336 0.04890408163265302 0  0.0336 0.05048163265306119 0  0.0336 0.05205918367346936 0  0.0336 0.05363673469387752 0  0.0336 0.05521428571428568 0  0.0336 0.05679183673469385 0  0.0336 0.05836938775510202 0  0.0336 0.05994693877551018 0  0.0336 0.06152448979591834 0  0.0336 0.0631020408163265 0  0.0336 0.06467959183673468 0  0.0336 0.06625714285714283 0  0.0336 0.06783469387755101 0  0.0336 0.06941224489795916 0  0.0336 0.07098979591836733 0  0.0336 0.07256734693877549 0  0.0336 0.07414489795918365 0  0.0336 0.07572244897959182 0  0.03219999999999999 0.07729999999999999 0  0.03079999999999999 0.07729999999999999 0  0.02939999999999999 0.07729999999999999 0  0.02799999999999999 0.07729999999999999 0  0.02659999999999999 0.07729999999999999 0  0.02519999999999999 0.07729999999999999 0  0.02379999999999998 0.07729999999999999 0  0.02239999999999998 0.07729999999999999 0  0.02099999999999997 0.07729999999999999 0  0.01959999999999996 0.07729999999999999 0  0.01819999999999996 0.07729999999999999 0  0.01679999999999995 0.07729999999999999 0  0.01539999999999996 0.07729999999999999 0  0.01399999999999996 0.07729999999999999 0  0.01259999999999996 0.07729999999999999 0  0.01119999999999997 0.07729999999999999 0  0.009799999999999972 0.07729999999999999 0  0.008399999999999977 0.07729999999999999 0  0.006999999999999978 0.07729999999999999 0  0.005599999999999983 0.07729999999999999 0  0.004199999999999988 0.07729999999999999 0  0.00279999999999999 0.07729999999999999 0  0.001399999999999998 0.07729999999999999 0  0 0.07572244897959184 0  0 0.07414489795918368 0  0 0.07256734693877551 0  0 0.07098979591836735 0  0 0.06941224489795919 0  0 0.06783469387755103 0  0 0.06625714285714288 0  0 0.06467959183673472 0  0 0.06310204081632656 0  0 0.0615244897959184 0  0 0.05994693877551023 0  0 0.05836938775510207 0  0 0.05679183673469392 0  0 0.05521428571428574 0  0 0.05363673469387759 0  0 0.05205918367346941 0  0 0.05048163265306126 0  0 0.04890408163265308 0  0 0.04732653061224493 0  0 0.04574897959183676 0  0 0.0441714285714286 0  0 0.04259387755102043 0  0 0.04101632653061228 0  0 0.03943877551020411 0  0 0.03786122448979595 0  0 0.03628367346938779 0  0 0.03470612244897962 0  0 0.03312857142857146 0  0 0.03155102040816329 0  0 0.02997346938775513 0  0 0.02839591836734697 0  0 0.0268183673469388 0  0 0.02524081632653064 0  0 0.02366326530612247 0  0 0.02208571428571431 0  0 0.02050816326530614 0  0 0.01893061224489798 0  0 0.01735306122448981 0  0 0.01577551020408165 0  0 0.01419795918367349 0  0 0.01262040816326532 0  0 0.01104285714285716 0  0 0.009465306122448988 0  0 0.00788775510204083 0  0 0.006310204081632659 0  0 0.004732653061224501 0  0 0.003155102040816343 0  0 0.001577551020408172 0  0.001400000000000004 0.001577551020408172 0  0.001400000000000004 0.003155102040816329 0  0.001400000000000002 0.004732653061224501 0  0.001400000000000002 0.006310204081632645 0  0.001400000000000005 0.007887755102040823 0  0.001400000000000002 0.009465306122448981 0  0.001400000000000002 0.01104285714285717 0  0.001400000000000004 0.01262040816326531 0  0.0014 0.01419795918367349 0  0.001400000000000002 0.01577551020408166 0  0.001400000000000005 0.0173530612244898 0  0.001400000000000002 0.01893061224489797 0  0.001400000000000002 0.02050816326530613 0  0.001400000000000002 0.02208571428571431 0  0.001400000000000002 0.02366326530612247 0  0.001400000000000002 0.02524081632653063 0  0.001400000000000002 0.0268183673469388 0  0.001400000000000002 0.02839591836734696 0  0.001400000000000002 0.02997346938775513 0  0.001400000000000002 0.03155102040816328 0  0.001400000000000002 0.03312857142857147 0  0.001399999999999997 0.03470612244897962 0  0.001400000000000005 0.03628367346938778 0  0.001400000000000002 0.03786122448979594 0  0.001400000000000002 0.03943877551020411 0  0.001400000000000002 0.04101632653061228 0  0.001400000000000002 0.04259387755102043 0  0.001400000000000002 0.0441714285714286 0  0.0014 0.04574897959183676 0  0.001400000000000002 0.04732653061224492 0  0.001400000000000004 0.04890408163265308 0  0.001400000000000002 0.05048163265306126 0  0.001400000000000002 0.05205918367346941 0  0.0014 0.05363673469387758 0  0.001400000000000004 0.05521428571428574 0  0.001399999999999998 0.05679183673469391 0  0.001400000000000002 0.05836938775510207 0  0.0014 0.05994693877551023 0  0.001400000000000002 0.0615244897959184 0  0.001400000000000002 0.06310204081632656 0  0.001400000000000002 0.06467959183673472 0  0.0014 0.06625714285714286 0  0.001400000000000002 0.06783469387755102 0  0.001399999999999998 0.06941224489795919 0  0.001400000000000002 0.07098979591836735 0  0.0014 0.07256734693877552 0  0.001400000000000002 0.07414489795918368 0  0.001400000000000002 0.07572244897959184 0  0.002800000000000006 0.001577551020408165 0  0.002800000000000004 0.003155102040816343 0  0.002800000000000002 0.004732653061224487 0  0.002800000000000002 0.006310204081632652 0  0.002800000000000002 0.007887755102040813 0  0.0028 0.009465306122448981 0  0.002799999999999997 0.01104285714285715 0  0.0028 0.01262040816326532 0  0.0028 0.01419795918367348 0  0.0028 0.01577551020408165 0  0.002799999999999997 0.0173530612244898 0  0.0028 0.01893061224489797 0  0.002800000000000004 0.02050816326530613 0  0.0028 0.0220857142857143 0  0.0028 0.02366326530612247 0  0.002800000000000004 0.02524081632653064 0  0.0028 0.0268183673469388 0  0.0028 0.02839591836734696 0  0.002799999999999995 0.02997346938775512 0  0.002799999999999997 0.03155102040816328 0  0.002799999999999995 0.03312857142857146 0  0.0028 0.03470612244897962 0  0.002799999999999995 0.03628367346938778 0  0.002799999999999997 0.03786122448979594 0  0.002799999999999997 0.03943877551020411 0  0.002799999999999997 0.04101632653061228 0  0.002799999999999997 0.04259387755102043 0  0.002799999999999995 0.0441714285714286 0  0.002799999999999997 0.04574897959183676 0  0.002799999999999997 0.04732653061224493 0  0.002799999999999995 0.04890408163265308 0  0.002799999999999993 0.05048163265306124 0  0.002799999999999995 0.05205918367346941 0  0.002799999999999995 0.05363673469387757 0  0.002799999999999992 0.05521428571428574 0  0.002799999999999997 0.05679183673469391 0  0.002799999999999993 0.05836938775510207 0  0.002799999999999993 0.05994693877551022 0  0.002799999999999992 0.0615244897959184 0  0.002799999999999988 0.06310204081632655 0  0.002799999999999992 0.0646795918367347 0  0.002799999999999992 0.06625714285714286 0  0.00279999999999999 0.06783469387755103 0  0.00279999999999999 0.06941224489795919 0  0.002799999999999988 0.07098979591836735 0  0.00279999999999999 0.07256734693877552 0  0.002799999999999988 0.07414489795918368 0  0.00279999999999999 0.07572244897959184 0  0.004200000000000006 0.001577551020408172 0  0.004200000000000006 0.003155102040816329 0  0.004200000000000008 0.00473265306122448 0  0.004200000000000009 0.006310204081632652 0  0.004200000000000008 0.00788775510204082 0  0.004200000000000008 0.009465306122448978 0  0.004200000000000006 0.01104285714285716 0  0.004200000000000006 0.01262040816326532 0  0.004200000000000004 0.01419795918367349 0  0.004200000000000002 0.01577551020408165 0  0.004200000000000004 0.0173530612244898 0  0.004200000000000006 0.01893061224489797 0  0.004200000000000006 0.02050816326530613 0  0.004200000000000002 0.0220857142857143 0  0.004200000000000004 0.02366326530612247 0  0.004199999999999999 0.02524081632653062 0  0.004200000000000004 0.0268183673469388 0  0.004200000000000004 0.02839591836734696 0  0.004200000000000002 0.02997346938775512 0  0.004199999999999999 0.03155102040816328 0  0.004200000000000001 0.03312857142857145 0  0.004200000000000001 0.03470612244897962 0  0.004199999999999995 0.03628367346938778 0  0.004199999999999999 0.03786122448979594 0  0.004199999999999999 0.0394387755102041 0  0.004199999999999997 0.04101632653061227 0  0.004199999999999999 0.04259387755102043 0  0.004199999999999999 0.04417142857142859 0  0.004199999999999999 0.04574897959183676 0  0.004199999999999999 0.04732653061224492 0  0.004199999999999997 0.04890408163265308 0  0.004199999999999997 0.05048163265306124 0  0.004199999999999999 0.05205918367346941 0  0.004199999999999992 0.05363673469387757 0  0.0
[...]
<PointData  Scalars=" mean stress"> 
<DataArray  type="Float64"  Name=" mean stress"  format="ascii">2.2867501402519835e+05  2.3152621860480489e+05  6.7750006107363733e+04  6.7749988131929713e+04  9.1063032635748270e+04  5.0761746388475862e+04  4.4588795393782399e+04  4.1248220927688541e+04  3.7755783932326478e+04  3.5061439304635533e+04  3.2857973615114548e+04  3.1121188589918092e+04  2.9809196393798011e+04  2.8902424664348928e+04  2.8382645385881588e+04  2.8239208013582174e+04  2.8467997940284415e+04  2.9071713527205135e+04  3.0059856806731001e+04  3.1449854045779946e+04  3.3270497455123121e+04  3.5559772548572357e+04  3.8557547007222063e+04  4.1998016991991775e+04  4.8328200804441869e+04  5.5576923356954168e+04  4.9749820520939349e+04  7.1380417274018269e+04  6.5157439178056004e+04  5.7947770393924802e+04  5.7440270712237507e+04  5.6894776370087049e+04  5.7416808412345097e+04  5.8231923377449137e+04  5.9128297939542943e+04  5.9985270047344908e+04  6.0773504962666841e+04  6.1509738052015171e+04  6.2220235269703604e+04  6.2922904668093732e+04  6.3624590495601951e+04  6.4324031379183049e+04  6.5014219969219455e+04  6.5682819300346600e+04  6.6311662533883544e+04  6.6877462835200131e+04  6.7355980675390208e+04  6.7729623134054520e+04  6.7994414085377721e+04  6.8160779160356149e+04  6.8248045870020927e+04  6.8277617145950659e+04  6.8268497571308661e+04  6.8235587491985571e+04  6.8189685502701657e+04  6.8138188473582602e+04  6.8085921329054137e+04  6.8035864965727858e+04  6.7989723272671472e+04  6.7948339572266443e+04  6.7911992760342502e+04  6.7880603900595102e+04  6.7853878511047282e+04  6.7831403549822615e+04  6.7812712859687526e+04  6.7797330868565274e+04  6.7784801512508595e+04  6.7774707375709302e+04  6.7766682673905292e+04  6.7760422799643275e+04  6.7755691404170677e+04  6.7752328164634106e+04  6.7750236560975231e+04  6.7749381989928806e+04  6.7749519966678505e+04  6.7750406473076306e+04  6.7750571204840162e+04  6.7749993599140638e+04  6.7748513663041784e+04  6.7746289637460170e+04  6.7743565852748608e+04  6.7740629070035357e+04  6.7737764129708681e+04  6.7735231627067988e+04  6.7733250725305086e+04  6.7731986914418289e+04  6.7731543492662327e+04  6.7731956529561474e+04  6.7733193166165511e+04  6.7735153224975351e+04  6.7737674166534271e+04  6.7740539517149795e+04  6.7743491050209894e+04  6.7746245331580023e+04  6.7748516047268815e+04  6.7750046890785554e+04  6.7750664451202130e+04  6.7750414125699535e+04  6.7749463605071796e+04  6.7749258211478125e+04  6.7750175054757361e+04  6.7752317889389247e+04  6.7755728344039031e+04  6.7760503448441537e+04  6.7766812472568112e+04  6.7774898291193866e+04  6.7785072269589058e+04  6.7797707417920799e+04  6.7813229593612006e+04  6.7832105127701449e+04  6.7854822269728495e+04  6.7881862779828385e+04  6.7913658547113315e+04  6.7950525961431282e+04  6.7992567759201891e+04  6.8039527248391940e+04  6.8090574765325611e+04  6.8143996790401157e+04  6.8196752250229692e+04  6.8243866581174138e+04  6.8277624231802532e+04  6.8286663078412210e+04  6.8255250768876140e+04  6.8163348209855234e+04  6.7988622589712162e+04  6.7711657400441632e+04  6.7323264471411836e+04  6.6830025784452067e+04  6.6252690923753704e+04  6.5617828105450084e+04  6.4949500502448493e+04  6.4265506168736400e+04  6.3577149846166576e+04  6.2889650536249937e+04  6.2201081625679944e+04  6.1499287955189488e+04  6.0759616525080346e+04  5.9951469856704687e+04  5.9056093413099261e+04  5.8100363695698412e+04  5.7231832734317395e+04  5.6419062257701829e+04  5.7424215526715197e+04  5.7339599083954927e+04  4.7762273200487776e+04  1.3743303085656889e+05  1.0277983785707371e+05  7.7663049495280255e+04  6.1367862243628668e+04  6.1781398535944398e+04  6.1071395644888289e+04  6.0983814424703633e+04  6.1227831248848910e+04  6.1620938060738212e+04  6.2083936323899885e+04  6.2564499531802336e+04  6.3053126316964888e+04  6.3552019132338115e+04  6.4061846362112621e+04  6.4579522329335567e+04  6.5099352760079557e+04  6.5613811333115518e+04  6.6113306294375026e+04  6.6585206177077751e+04  6.7013269772002619e+04  6.7379171917176645e+04  6.7668404144801083e+04  6.7877488637882343e+04  6.8014458804911730e+04  6.8093121304111293e+04  6.8128252173988105e+04  6.8132910024635174e+04  6.8117533782564526e+04  6.8089988672937994e+04  6.8055988403509269e+04  6.8019496615980242e+04  6.7983151228085873e+04  6.7948617830578572e+04  6.7916864761257239e+04  6.7888375288989046e+04  6.7863303619808008e+04  6.7841588820853722e+04  6.7823036538635381e+04  6.7807376988400501e+04  6.7794305618316372e+04  6.7783511275008248e+04  6.7774695444631929e+04  6.7767585146449899e+04  6.7761941212826539e+04  6.7757562697247267e+04  6.7754287423905043e+04  6.7751987101565377e+04  6.7750548103156078e+04  6.7750003406576769e+04  7.7597747953575948e+04  8.0580562196469284e+04  6.6706794809010244e+04  6.4657912966690310e+04  6.4196427124313297e+04  6.3917695919367732e+04  6.3890652319116161e+04  6.3995633654797544e+04  6.4158925571379055e+04  6.4355560421848313e+04  6.4599242492054014e+04  6.4895345463565071e+04  6.5231454736237036e+04  6.5590459111797303e+04  6.5959139904890122e+04  6.6327751809935813e+04  6.6688676297443511e+04  6.7033390313932323e+04  6.7348357101400805e+04  6.7613104900547332e+04  6.7808554639102455e+04  6.7933082853043059e+04  6.8002466537337328e+04  6.8034820995715199e+04  6.8043503154273800e+04  6.8036972216384049e+04  6.8020924198383014e+04  6.7999131173735004e+04  6.7974280483798793e+04  6.7948328431293572e+04  6.7922653921888297e+04  6.7898197646500237e+04  6.7875554051369647e+04  6.7855054617669753e+04  6.7836836047409437e+04  6.7820896358956699e+04  6.7807139550812877e+04  6.7795410259009223e+04  6.7785519965666041e+04  6.7777266277152550e+04  6.7770446657532782e+04  6.7764867819848965e+04  6.7760351911368096e+04  6.7756740932550601e+04  6.7753901390129395e+04  6.7751744758660614e+04  6.7750254647927170e+04  6.7749658404058442e+04  5.9232148012320147e+04  6.7847065606292075e+04  6.8564656004555989e+04  6.6441004223519849e+04  6.5919543760133602e+04  6.5799958303731750e+04  6.5837699366269691e+04  6.5923844085105127e+04  6.5967010105119465e+04  6.5977169186117433e+04  6.6038768467985938e+04  6.6173997349739453e+04  6.6367206965889767e+04  6.6591644353942887e+04  6.6830116301742586e+04  6.7073066070198096e+04  6.7315003851979302e+04  6.7552028080447053e+04  6.7773858216753113e+04  6.7953342251478462e+04  6.8057570550327015e+04  6.8087911398682918e+04  6.8075121364825958e+04  6.8044401566712957e+04  6.8010838523818398e+04  6.7979207258053997e+04  6.7950636155154454e+04  6.7925099658032574e+04  6.7902123933502793e+04  6.7881369873252930e+04  6.7862611797160993e+04  6.7845723212563753e+04  6.7830623597916870e+04  6.7817242809355463e+04  6.7805501011153348e+04  6.7795300923464558e+04  6.7786527851572289e+04  6.7779053629488277e+04  6.7772741957799590e+04  6.7767453615960039e+04  6.7763050832712877e+04  6.7759400746680200e+04  6.7756378567652791e+04  6.7753872924519179e+04  6.7751796158217854e+04  6.7750117444395713e+04  6.7748927834606162e+04  6.7748571608499013e+04  5.1143851604943047e+04  6.0200647025309059e+04  6.4561482092111728e+04  6.5690082349772856e+04  6.6148239714540119e+04  6.6591004536817156e+04  6.6998572371538656e+04  6.7320973450218400e+04  6.7428437647754647e+04  6.7346822310772317e+04  6.7328955068750700e+04  6.7376856036303361e+04  6.7470384024080835e+04  6.7589893663122479e+04  6.7720538334422206e+04  6.7855410362195675e+04  6.7989915393064352e+04  6.8122233594715814e+04  6.8252681587626037e+04  6.8356344442609989e+04  6.8364280849262534e+04  6.8281924477044973e+04  6.8180017723469398e+04  6.8084252086413006e+04  6.8004786136886571e+04  6.7943940169805748e+04  6.7898220261128852e+04  6.7864319546596933e+04  6.7839058420508896e+04  6.7820007272449104e+04  6.7805397640588213e+04  6.7793995119258238e+04  6.7784954257676058e+04  6.7777696482921354e+04  6.7771820408448562e+04  6.7767039542318438e+04  6.7763141218620600e+04  6.7759960260864798e+04  6.7757362388288428e+04  6.7755233787025587e+04  6.7753474581634058e+04  6.7751995163750194e+04  6.7750715454204808e+04  6.7749569609368380e+04  6.7748520065740275e+04  6.7747590131532765e+04  6.7746938934488717e+04  6.7746931734458165e+04  4.6125845359273088e+04  5.4175911280265929e+04  5.9925160065931988e+04  6.3203507784519483e+04  6.5117771077729296e+04  6.6408983050333423e+04  6.7379757145705487e+04  6.8148701786614110e+04  6.8524867772989965e+04  6.8458917332291370e+04  6.8437667339888518e+04  6.8459478658286724e+04  6.8489763338278746e+04  6.8534578679166778e+04  6.8586814025693748e+04  6.8640359638603186e+04  6.8685028754663770e+04  6.8713976300228605e+04  6.8714489399444748e+04  6.8717920000853584e+04  6.8646463646722055e+04  6.8461906644576637e+04  6.8272692208780296e+04  6.8122397040281285e+04  6.8004257967360565e+04  6.7917567583013995e+04  6.7855662431584860e+04  6.7812723710600185e+04  6.7783693126459097e+04  6.7764577902688208e+04  6.7752387065324219e+04  6.7744946419633692e+04  6.7740713135690079e+04  6.7738608333103111e+04  6.7737885312168582e+04  6.7738030436282919e+04  6.7738691502155110e+04  6.7739626966131487e+04  6.7740670352056070e+04  6.7741705417827776e+04  6.7742649018268479e+04  6.7743439971309635e+04  6.7744033526564803e+04  6.7744402790157677e+04  6.7744551158851755e+04  6.7744536601019572e+04  6.7744535317631991e+04  6.7744860842781694e+04  4.2528064140736700e+04  4.9902074944618231e+04  5.6006543622217250e+04  6.0407068516003303e+04  6.3435654104218040e+04  6.5559118363084606e+04  6.7100017268126103e+04  6.8286047673818393e+04  6.9151470240425188e+04  6.9766972543389173e+04  6.9795801051805727e+04  6.9770585538543994e+04  6.9719326543081217e+04  6.9693427038247959e+04  6.9684962263920708e+04  6.9674968601974964e+04  6.9642276248135691e+04  6.9539154033092273e+04  6.9335149890599088e+04  6.8994771607614719e+04  6.8775348206609924e+04  6.8559837061972386e+04  6.8322584868975900e+04  6.8137582023481707e+04  6.7995076619043990e+04  6.7890634829207542e+04  6.7816950215283592e+04  6.7766931702274800e+04  6.7734569941818729e+04  6.7714972499967436e+04  6.7704362118053439e+04  6.7699901166280906e+04  6.7699510614211962e+04  6.7701695514277526e+04  6.7705399248490736e+04  6.7709887412987591e+04  6.7714658917012959e+04  6.7719379287005286e+04  6.7723831285824577e+04  6.7727878673585554e+04  6.7731439984056909e+04  6.7734470313004858e+04  6.7736950311599052e+04  6.7738882374256442e+04  6.7740296908749151e+04  6.7741264201054437e+04  6.7741935198361098e+04  6.7742522804503678e+04  3.9819835245520502e+04  4.6749613964653101e+04  5.2912500281297267e+04  5.7869269565414535e+04  6.1626590938760375e+04  6.4405874647338649e+04  6.6443664595076261e+04  6.7924257824791130e+04  6.9466552575334747e+04  7.0716150623572175e+04  7.1132752861888526e+04  7.1145192906274577e+04  7.1050494678511881e+04  7.0956573781847968e+04  7.0874411645710177e+04  7.0785660125089780e+04  7.0633836904933414e+04  7.0350285273857604e+04  6.9870623817201951e+04  6.9315522588315158e+04  6.8818397971204904e+04  6.8568801465002107e+04  6.8324710487004122e+04  6.8125433487976115e+04  6.7972480044068812e+04  6.7859298669465570e+04  6.7779263497127482e+04  6.7725204946991726e+04  6.7690922941315483e+04  6.7671213157601072e+04  6.7661931030360443e+04  6.7659865370519285e+04  6.7662591554326660e+04  6.7668316710423256e+04  6.7675742036846888e+04  6.7683946679036890e+04  6.7692293961579810e+04  6.7700357416682193e+04  6.7707863394665808e+04  6.7714647094316897e+04  6.7720619385875121e+04  6.7725742448515230e+04  6.7730013076178991e+04  6.7733452534930489e+04  6.7736104185059448e+04  6.7738031797701027e+04  6.7739335595130935e+04  6.7740107055801724e+04  3.7787403106034428e+04  4.4433164857801719e+04  5.0557246300663370e+04  5.5783789000932171e+04  5.9991160104131050e+04  6.3247123669175737e+04  6.5720474967499249e+04  6.7537936203014207e+04  6.9218351172469978e+04  7.1112285723539899e+04  7.2045950914887682e+04  7.2369608305915070e+04  7.2365470442106584e+04  7.2245538129324981e+04  7.2095396801905517e+04  7.1891565366206662e+04  7.1535699971118636e+04  7.0956912069742844e+04  7.0262402793773552e+04  6.9523206114611748e+04  6.8891856408597319e+04  6.8550834165997949e+04  6.8299133685774010e+04  6.8095539460875181e+04  6.7940180317553735e+04  6.7824767199889131e+04  6.7742856171849126e+04  6.7687567602905634e+04  6.7652894976602649e+04  6.7633687795395308e+04  6.7625738555553020e+04  6.7625696734744735e+04  6.7630961895196670e+04  6.7639559856767897e+04  6.7650025469733941e+04  6.7661297658607917e+04  6.7672629877394342e+04  6.7683515785236741e+04  6.7693628856352327e+04  6.7702774130109523e+04  6.7710850290309405e+04  6.7717820382102422e+04  6.7723689812057870e+04  6.7728489758296448e+04  6.7732265648442641e+04  6.7735062697068322e+04  6.7736919837354973e+04  6.7737808342115371e+04  3.6298058557762488e+04  4.2766503836524127e+04  4.8837617554395227e+04  5.4194813665608592e+04  5.8674607168751099e+04  6.2260423121274820e+04  6.5065345908843563e+04  6.7177027263255019e+04  6.8947097238391070e+04  7.1009867544661800e+04  7.2504158233134585e+04  7.3310770942667019e+04  7.3581366040164605e+04  7.3536877507389785e+04  7.3325274497427308e+04  7.2911677692492187e+04  7.2237888260497639e+04  7.1387096087580358e+04  7.0493920086585043e+04  6.9662668794220386e+04  6.8944111930310421e+04  6.8542431611791850e+04  6.8270186847048099e+04  6.8061586029339014e+04  6.7905988820251951e+04  6.7791297066344006e+04  6.7710075696224230e+04  6.7655379357383426e+04  6.7621393007190287e+04  6.7603145231693168e+04  6.7596521611048898e+04  6.7598177882634525e+04  6.7605457880388349e+04  6.7616298046639698e+04  6.7629133346257862e+04  6.7642808059972827e+04  6.7656495210034176e+04  6.7669626099357585e+04  6.7681830347628740e+04  6.7692885987522910e+04  6.7702678700791337e+04  6.7711168918658441e+04  6.7718365364588375e+04  6.7724302729372605e+04  6.7729021965916792e+04  6.7732545258272221e+04  6.7734851865444361e+04  6.7735808883533071e+04  3.5282965513048235e+04  4.1644576003201648e+04  4.7673865418712267e+04  5.3095119568668269e+04  5.7734674585308989e+04  6.1536122527350883e+04  6.4561352625326224e+04  6.6903578614760889e+04  6.8710842288253669e+04  7.0763703632773118e+04  7.2599517610224328e+04  7.3887218707149368e+04  7.4560702261314800e+04  7.4719549367205735e+04  7.4420346575520976e+04  7.3700267496604196e+04  7.2708099841151241e+04  7.1643260617253691e+04  7.0629185118170542e+04  6.9741313382952256e+04  6.8976441025516237e+04  6.8540612501911353e+04  6.8249205348945427e+04  6.8033611125102529e+04  6.7877269562536807e+04  6.7763789165015041e+04  6.7684043062955694e+04  6.7630616198621457e+04  6.7597716538364024e+04  6.7580522001709789e+04  6.7575045761322821e+04  6.7578009091765707e+04  6.7586763572376149e+04  6.7599214225509655e+04  6.7613744342737700e+04  6.7629141071206221e+04  6.7644524424442847e+04  6.7659282045902015e+04  6.7673011262849803e+04  6.7685469078222130e+04  6.7696529949553005e+04  6.7706150491382854e+04  6.7714339704454804e+04  6.7721132225857291e+04  6.7726562266445020e+04  6.7730630995643864e+04  6.7733268707127674e+04  6.7734264142874090e+04  3.4702877764086465e+04  4.1008421893269879e+04  4.7014098842540174e+04  5.2466219149941819e+04  5.7189164578936732e+04  6.1111960727798949e+04  6.4262023097483252e+04  6.6739737611106000e+04  6.8559163786311052e+04  7.0586367736171160e+04  7.2557834909624056e+04  7.4158125908418107e+04  7.5232547434906024e+04  7.5580113693425883e+04  7.5152954884265127e+04  7.4168865337396695e+04  7.2968941985613681e+04  7.1775821047392164e+04  7.0700111205329813e+04  6.9776603603349926e+04  6.8993248958011987e+04  6.8541231033579854e+04  6.8237592370136161e+04  6.8016380617377305e+04  6.7858898060587773e+04  6.7746146828732453e+04  6.7667547691069500e+04  6.7615166092402011e+04  6.7583133056437815e+04  6.7566703266576849e+04  6.7561982497434583e+04  6.7565754432108733e+04  6.7575394650095623e+04  6.7588803141200377e+04  6.7604340692553917e+04  6.7620764656844447e+04  6.7637165036779203e+04  6.7652903461829046e+04  6.7667557226467747e+04  6.7680869714645829e+04  6.7692707574666245e+04  6.7703024082101168e+04  6.7711827342541990e+04  6.7719150795585985e+04  6.7725023109407441e+04  6.7729431271904905e+04  6.7732273509175429e+04  6.7733292185554601e+04  3.4537702139269859e+04  4.0828763257757455e+04  4.6830610802086485e+04  5.2294253206023634e+04  5.7041975511273493e+04  6.1000863253276846e+04  6.4185337878008824e+04  6.6704999383881019e+04  6.8531188765680010e+04  7.0558260767093016e+04  7.2534947631463991e+04  7.4293945702534344e+04  7.5530195448347469e+04  7.5879552875047244e+04  7.5353409610255359e+04  7.4297090060632501e+04  7.3048090678538909e+04  7.1823541241423722e+04  7.0720235058771257e+04  6.9784660225010943e+04  6.8997786209163605e+04  6.8542088987595154e+04  6.8234539019597796e+04  6.8011356811822407e+04  6.7853301524311653e+04  6.7740676653288363e+04  6.7662395996527994e+04  6.7610318511276113e+04  6.7578526428233861e+04  6.7562301817514919e+04  6.7557781924271738e+04  6.7561775462043646e+04  6.7571668824207431e+04  6.7585361918369119e+04  6.7601208436747140e+04  6.7617955356525446e+04  6.7634681742606597e+04  6.7650739408856214e+04  6.7665697813426945e+04  6.7679294744804763e+04  6.7691393353327614e+04  6.7701945089877830e+04  6.7710957220394965e+04  6.7718462443394514e+04  6.7724487295979823e+04  6.7729014336730572e+04  6.7731930228898957e+04  6.7732966272661084e+04  3.4781359746999166e+04  4.1098218960002429e+04  4.7117085734905362e+04  5.2576328792567248e+04  5.7294385868988087e+04  6.1206631596731815e+04  6.4336539660864029e+04  6.6803222069044554e+04  6.8638126603508761e+04  7.0675007523277105e+04  7.2648152304408533e+04  7.4343540191147084e+04  7.5356629762558412e+04  7.5527277475265306e+04  7.5020320951962814e+04  7.4089489881823567e+04  7.2951801732056934e+04  7.1782705604881994e+04  7.0699817507505199e+04  6.9771642099962890e+04  6.8991140085095540e+04  6.8542708069774293e+04  6.8239717136050676e+04  6.8018727121304444e+04  6.7861072778077869e+04  6.7748068753852553e+04  6.7669151070621578e+04  6.7616485448314736e+04  6.7584179759752864e+04  6.7567510194514020e+04  6.7562581860346007e+04  6.7566180558096181e+04  6.7575680803285271e+04  6.7588979974916365e+04  6.7604435152166639e+04  6.7620799443959098e+04  6.7637158562171113e+04  6.7652870127729751e+04  6.7667507907833657e+04  6.7680812333928377e+04  6.7692647701488255e+04  6.7702965538754361e+04  6.7711772779687395e+04  6.7719102405627156e+04  6.7724982993731246e+04  6.7729403381252399e+04  6.7732260395518577e+04  6.7733310505183996e+04  3.5440495940496148e+04  4.1829345516350055e+04  4.7887903551123549e+04  5.3322589518543209e+04  5.7948242912428657e+04  6.1723830002112765e+04  6.4708785116892162e+04  6.7037418869466361e+04  6.8822179036569170e+04  7.0964670585461339e+04  7.2854704857277262e+04  7.4141248607431102e+04  7.4679319085853727e+04  7.4659553663838160e+04  7.4267531863118624e+04  7.3570933466539573e+04  7.2652847184146274e+04  7.1631930663628460e+04  7.0627521121851969e+04  6.9734491369768934e+04  6.8974636502093534e+04  6.8543502021131164e+04  6.8253342285533232e+04  6.8038222036243620e+04  6.7881311991789960e+04  6.7767434915741396e+04  6.7687087599080274e+04  6.7633122799645033e+04  6.7599706522184613e+04  6.7582051908058667e+04  6.7576176892761898e+04  6.7578807450048262e+04  6.7587293714465035e+04  6.7599535738718536e+04  6.7613909483880663e+04  6.7629193707649945e+04  6.7644499974498467e+04  6.7659208082386351e+04  6.7672908495246011e+04  6.7685352500263194e+04  6.7696410017286238e+04  6.7706034297755221e+04  6.7714232085929194e+04  6.7721037136219456e+04  6.7726483481774994e+04  6.7730575922785167e+04  6.7733242074759328e+04  6.7734298420096893e+04  3.6536314331702881e+04  4.3058170597524986e+04  4.9180036314660327e+04  5.4554598758520631e+04  5.9002737684096479e+04  6.2532207689559378e+04  6.5270017114916503e+04  6.7376360126128056e+04  6.9107556600593729e+04  7.1360805112799149e+04  7.2846110906861839e+04  7.3