<?xml version="1.0"?>
<VTKFile type="UnstructuredGrid"  version="0.1"  >
<UnstructuredGrid>
<Piece  NumberOfPoints="1250" NumberOfCells="2352">
<Points>
<DataArray  type="Float64"  NumberOfComponents="3"  format="ascii">0 0 0  0.0336 0 0  0.0336 0.07729999999999999 0  0 0.07729999999999999 0  0.001400000000000002 0 0  0.002800000000000005 0 0  0.004200000000000008 0 0  0.005600000000000009 0 0  0.007000000000000011 0 0  0.008400000000000013 0 0  0.009800000000000019 0 0  0.01120000000000002 0 0  0.01260000000000003 0 0  0.01400000000000003 0 0  0.01540000000000004 0 0  0.01680000000000005 0 0  0.01820000000000004 0 0  0.01960000000000004 0 0  0.02100000000000004 0 0  0.02240000000000003 0 0  0.02380000000000003 0 0  0.02520000000000002 0 0  0.02660000000000002 0 0  0.02800000000000001 0 0  0.02940000000000001 0 0  0.03080000000000001 0 0  0.0322 0 0  0.0336 0.001577551020408161 0  0.0336 0.003155102040816321 0  0.0336 0.004732653061224482 0  0.0336 0.006310204081632642 0  0.0336 0.007887755102040803 0  0.0336 0.009465306122448964 0  0.0336 0.01104285714285712 0  0.0336 0.01262040816326528 0  0.0336 0.01419795918367344 0  0.0336 0.0157755102040816 0  0.0336 0.01735306122448976 0  0.0336 0.01893061224489792 0  0.0336 0.02050816326530608 0  0.0336 0.02208571428571425 0  0.0336 0.02366326530612241 0  0.0336 0.02524081632653058 0  0.0336 0.02681836734693874 0  0.0336 0.02839591836734691 0  0.0336 0.02997346938775507 0  0.0336 0.03155102040816323 0  0.0336 0.0331285714285714 0  0.0336 0.03470612244897956 0  0.0336 0.03628367346938772 0  0.0336 0.03786122448979588 0  0.0336 0.03943877551020405 0  0.0336 0.04101632653061221 0  0.0336 0.04259387755102037 0  0.0336 0.04417142857142854 0  0.0336 0.04574897959183671 0  0.0336 0.04732653061224486 0  0.0336 0.04890408163265302 0  0.0336 0.05048163265306119 0  0.0336 0.05205918367346936 0  0.0336 0.05363673469387752 0  0.0336 0.05521428571428568 0  0.0336 0.05679183673469385 0  0.0336 0.05836938775510202 0  0.0336 0.05994693877551018 0  0.0336 0.06152448979591834 0  0.0336 0.0631020408163265 0  0.0336 0.06467959183673468 0  0.0336 0.06625714285714283 0  0.0336 0.06783469387755101 0  0.0336 0.06941224489795916 0  0.0336 0.07098979591836733 0  0.0336 0.07256734693877549 0  0.0336 0.07414489795918365 0  0.0336 0.07572244897959182 0  0.03219999999999999 0.07729999999999999 0  0.03079999999999999 0.07729999999999999 0  0.02939999999999999 0.07729999999999999 0  0.02799999999999999 0.07729999999999999 0  0.02659999999999999 0.07729999999999999 0  0.02519999999999999 0.07729999999999999 0  0.02379999999999998 0.07729999999999999 0  0.02239999999999998 0.07729999999999999 0  0.02099999999999997 0.07729999999999999 0  0.01959999999999996 0.07729999999999999 0  0.01819999999999996 0.07729999999999999 0  0.01679999999999995 0.07729999999999999 0  0.01539999999999996 0.07729999999999999 0  0.01399999999999996 0.07729999999999999 0  0.01259999999999996 0.07729999999999999 0  0.01119999999999997 0.07729999999999999 0  0.009799999999999972 0.07729999999999999 0  0.008399999999999977 0.07729999999999999 0  0.006999999999999978 0.07729999999999999 0  0.005599999999999983 0.07729999999999999 0  0.004199999999999988 0.07729999999999999 0  0.00279999999999999 0.07729999999999999 0  0.001399999999999998 0.07729999999999999 0  0 0.07572244897959184 0  0 0.07414489795918368 0  0 0.07256734693877551 0  0 0.07098979591836735 0  0 0.06941224489795919 0  0 0.06783469387755103 0  0 0.06625714285714288 0  0 0.06467959183673472 0  0 0.06310204081632656 0  0 0.0615244897959184 0  0 0.05994693877551023 0  0 0.05836938775510207 0  0 0.05679183673469392 0  0 0.05521428571428574 0  0 0.05363673469387759 0  0 0.05205918367346941 0  0 0.05048163265306126 0  0 0.04890408163265308 0  0 0.04732653061224493 0  0 0.04574897959183676 0  0 0.0441714285714286 0  0 0.04259387755102043 0  0 0.04101632653061228 0  0 0.03943877551020411 0  0 0.03786122448979595 0  0 0.03628367346938779 0  0 0.03470612244897962 0  0 0.03312857142857146 0  0 0.03155102040816329 0  0 0.02997346938775513 0  0 0.02839591836734697 0  0 0.0268183673469388 0  0 0.02524081632653064 0  0 0.02366326530612247 0  0 0.02208571428571431 0  0 0.02050816326530614 0  0 0.01893061224489798 0  0 0.01735306122448981 0  0 0.01577551020408165 0  0 0.01419795918367349 0  0 0.01262040816326532 0  0 0.01104285714285716 0  0 0.009465306122448988 0  0 0.00788775510204083 0  0 0.006310204081632659 0  0 0.004732653061224501 0  0 0.003155102040816343 0  0 0.001577551020408172 0  0.001400000000000004 0.001577551020408172 0  0.001400000000000004 0.003155102040816329 0  0.001400000000000002 0.004732653061224501 0  0.001400000000000002 0.006310204081632645 0  0.001400000000000005 0.007887755102040823 0  0.001400000000000002 0.009465306122448981 0  0.001400000000000002 0.01104285714285717 0  0.001400000000000004 0.01262040816326531 0  0.0014 0.01419795918367349 0  0.001400000000000002 0.01577551020408166 0  0.001400000000000005 0.0173530612244898 0  0.001400000000000002 0.01893061224489797 0  0.001400000000000002 0.02050816326530613 0  0.001400000000000002 0.02208571428571431 0  0.001400000000000002 0.02366326530612247 0  0.001400000000000002 0.02524081632653063 0  0.001400000000000002 0.0268183673469388 0  0.001400000000000002 0.02839591836734696 0  0.001400000000000002 0.02997346938775513 0  0.001400000000000002 0.03155102040816328 0  0.001400000000000002 0.03312857142857147 0  0.001399999999999997 0.03470612244897962 0  0.001400000000000005 0.03628367346938778 0  0.001400000000000002 0.03786122448979594 0  0.001400000000000002 0.03943877551020411 0  0.001400000000000002 0.04101632653061228 0  0.001400000000000002 0.04259387755102043 0  0.001400000000000002 0.0441714285714286 0  0.0014 0.04574897959183676 0  0.001400000000000002 0.04732653061224492 0  0.001400000000000004 0.04890408163265308 0  0.001400000000000002 0.05048163265306126 0  0.001400000000000002 0.05205918367346941 0  0.0014 0.05363673469387758 0  0.001400000000000004 0.05521428571428574 0  0.001399999999999998 0.05679183673469391 0  0.001400000000000002 0.05836938775510207 0  0.0014 0.05994693877551023 0  0.001400000000000002 0.0615244897959184 0  0.001400000000000002 0.06310204081632656 0  0.001400000000000002 0.06467959183673472 0  0.0014 0.06625714285714286 0  0.001400000000000002 0.06783469387755102 0  0.001399999999999998 0.06941224489795919 0  0.001400000000000002 0.07098979591836735 0  0.0014 0.07256734693877552 0  0.001400000000000002 0.07414489795918368 0  0.001400000000000002 0.07572244897959184 0  0.002800000000000006 0.001577551020408165 0  0.002800000000000004 0.003155102040816343 0  0.002800000000000002 0.004732653061224487 0  0.002800000000000002 0.006310204081632652 0  0.002800000000000002 0.007887755102040813 0  0.0028 0.009465306122448981 0  0.002799999999999997 0.01104285714285715 0  0.0028 0.01262040816326532 0  0.0028 0.01419795918367348 0  0.0028 0.01577551020408165 0  0.002799999999999997 0.0173530612244898 0  0.0028 0.01893061224489797 0  0.002800000000000004 0.02050816326530613 0  0.0028 0.0220857142857143 0  0.0028 0.02366326530612247 0  0.002800000000000004 0.02524081632653064 0  0.0028 0.0268183673469388 0  0.0028 0.02839591836734696 0  0.002799999999999995 0.02997346938775512 0  0.002799999999999997 0.03155102040816328 0  0.002799999999999995 0.03312857142857146 0  0.0028 0.03470612244897962 0  0.002799999999999995 0.03628367346938778 0  0.002799999999999997 0.03786122448979594 0  0.002799999999999997 0.03943877551020411 0  0.002799999999999997 0.04101632653061228 0  0.002799999999999997 0.04259387755102043 0  0.002799999999999995 0.0441714285714286 0  0.002799999999999997 0.04574897959183676 0  0.002799999999999997 0.04732653061224493 0  0.002799999999999995 0.04890408163265308 0  0.002799999999999993 0.05048163265306124 0  0.002799999999999995 0.05205918367346941 0  0.002799999999999995 0.05363673469387757 0  0.002799999999999992 0.05521428571428574 0  0.002799999999999997 0.05679183673469391 0  0.002799999999999993 0.05836938775510207 0  0.002799999999999993 0.05994693877551022 0  0.002799999999999992 0.0615244897959184 0  0.002799999999999988 0.06310204081632655 0  0.002799999999999992 0.0646795918367347 0  0.002799999999999992 0.06625714285714286 0  0.00279999999999999 0.06783469387755103 0  0.00279999999999999 0.06941224489795919 0  0.002799999999999988 0.07098979591836735 0  0.00279999999999999 0.07256734693877552 0  0.002799999999999988 0.07414489795918368 0  0.00279999999999999 0.07572244897959184 0  0.004200000000000006 0.001577551020408172 0  0.004200000000000006 0.003155102040816329 0  0.004200000000000008 0.00473265306122448 0  0.004200000000000009 0.006310204081632652 0  0.004200000000000008 0.00788775510204082 0  0.004200000000000008 0.009465306122448978 0  0.004200000000000006 0.01104285714285716 0  0.004200000000000006 0.01262040816326532 0  0.004200000000000004 0.01419795918367349 0  0.004200000000000002 0.01577551020408165 0  0.004200000000000004 0.0173530612244898 0  0.004200000000000006 0.01893061224489797 0  0.004200000000000006 0.02050816326530613 0  0.004200000000000002 0.0220857142857143 0  0.004200000000000004 0.02366326530612247 0  0.004199999999999999 0.02524081632653062 0  0.004200000000000004 0.0268183673469388 0  0.004200000000000004 0.02839591836734696 0  0.004200000000000002 0.02997346938775512 0  0.004199999999999999 0.03155102040816328 0  0.004200000000000001 0.03312857142857145 0  0.004200000000000001 0.03470612244897962 0  0.004199999999999995 0.03628367346938778 0  0.004199999999999999 0.03786122448979594 0  0.004199999999999999 0.0394387755102041 0  0.004199999999999997 0.04101632653061227 0  0.004199999999999999 0.04259387755102043 0  0.004199999999999999 0.04417142857142859 0  0.004199999999999999 0.04574897959183676 0  0.004199999999999999 0.04732653061224492 0  0.004199999999999997 0.04890408163265308 0  0.004199999999999997 0.05048163265306124 0  0.004199999999999999 0.05205918367346941 0  0.004199999999999992 0.05363673469387757 0  0.0
[...]
<PointData  Scalars=" mean stress"> 
<DataArray  type="Float64"  Name=" mean stress"  format="ascii">6.2895452384626574e+05  1.3552090915918783e+06  2.9607875037659542e+06  2.9786523359350949e+06  9.2784117067068466e+04  1.9503331129951290e+04  4.0059464203115102e+04  4.7685228594523534e+04  3.8960685742612841e+04  3.4266762094268866e+04  3.2846310781607644e+04  3.1093689415227032e+04  2.9436408056695320e+04  2.8508889673280519e+04  2.8042785741211566e+04  2.7890781662710455e+04  2.8119753233890551e+04  2.8747112499857987e+04  2.9795901935295275e+04  3.1273713688856682e+04  3.3243492845858163e+04  3.6284121783157359e+04  3.7317437283239000e+04  5.3309694876089576e+04  1.5875249761129948e+04  2.2216055988165439e+05  3.6198578326479699e+04  3.3887106140853302e+06  1.9733304007720405e+06  2.3413915767909717e+06  2.2092113629535185e+06  2.2064414859393896e+06  2.1783774204846853e+06  2.1538629453207692e+06  2.1294981917831008e+06  2.1054242812996185e+06  2.0825627044479102e+06  2.0608491359336979e+06  2.0388901862258266e+06  2.0135420423182675e+06  1.9813883559650199e+06  1.9418046937809766e+06  1.8999350205842557e+06  1.8672452345169077e+06  1.8589816754362527e+06  1.8896839101115635e+06  1.9684823005915449e+06  2.0959039710693315e+06  2.2629645411897358e+06  2.4534594622759614e+06  2.6483837180199968e+06  2.8303784411035962e+06  2.9867202773912903e+06  3.1104853732305686e+06  3.2002180406802893e+06  3.2583621526574078e+06  3.2893362396371001e+06  3.2983796895287135e+06  3.2906472502878746e+06  3.2706824615938896e+06  3.2422640348631865e+06  3.2084589326659841e+06  3.1717681635485906e+06  3.1342741153760678e+06  3.0977422925020494e+06  3.0636649982912852e+06  3.0332533165718107e+06  3.0073985710791061e+06  2.9866334589885199e+06  2.9711170443086005e+06  2.9606563020286541e+06  2.9547708717827848e+06  2.9527729098922941e+06  2.9539237967408523e+06  2.9576336509207468e+06  2.9676273260409003e+06  2.9732855731427362e+06  2.9795530779100754e+06  2.9859333589517311e+06  2.9920375602123099e+06  2.9976381432023095e+06  3.0025606729468233e+06  3.0066877625698713e+06  3.0099335638507428e+06  3.0122394674806842e+06  3.0135714869885799e+06  3.0139206801596261e+06  3.0133040694504357e+06  3.0117657107658470e+06  3.0093779403452887e+06  3.0062433953884644e+06  3.0024973260639263e+06  2.9983126211499427e+06  2.9938986508212942e+06  2.9895244200782538e+06  2.9854614323792309e+06  2.9821515357331666e+06  2.9797233836763366e+06  2.9715278192010280e+06  2.9661410206782250e+06  2.9639549880525349e+06  2.9653506051274519e+06  2.9707473834889163e+06  2.9802546449794485e+06  2.9936978601197200e+06  3.0104781793135051e+06  3.0295789793316522e+06  3.0497756470635543e+06  3.0700040223294781e+06  3.0896291995602027e+06  3.1084675967694749e+06  3.1266123988053612e+06  3.1442546218074891e+06  3.1616000101916036e+06  3.1788547375551965e+06  3.1962111231735568e+06  3.2138507328225877e+06  3.2320095982555808e+06  3.2509362415281753e+06  3.2710668016698146e+06  3.2930650741559435e+06  3.3169095448877811e+06  3.3475209353113002e+06  3.3684784766752790e+06  3.1559473933007373e+06  2.2536519500543000e+06  1.3342568122131485e+06  1.2204703725700281e+06  1.2584309624384909e+06  1.3037748534171889e+06  1.3469816159616795e+06  1.3924981091929306e+06  1.4352756677725909e+06  1.4802074403927955e+06  1.5154683313774534e+06  1.5496313537723026e+06  1.5678128144446870e+06  1.5773815563585947e+06  1.5651788539138490e+06  1.5318911462908348e+06  1.4695780345115433e+06  1.3670664546001181e+06  1.2400866945032636e+06  1.0437552653598274e+06  8.8228421066776419e+05  7.7364265645616839e+05  3.3421377484979824e+05  6.9497542694705038e+05  8.9570768433770898e+05  1.0843795656421944e+06  1.2541860225643876e+06  1.3853738354168124e+06  1.4767867797920690e+06  1.5412060581729605e+06  1.5680242093582640e+06  1.5819796134065378e+06  1.5686566525744982e+06  1.5500979466859247e+06  1.5156021888418992e+06  1.4783826428411172e+06  1.4352584506061960e+06  1.3910384745620096e+06  1.3428852798890423e+06  1.3050809333035653e+06  1.3532642463230405e+06  2.1464436811342142e+06  3.1563922990898923e+06  3.3947147027058993e+06  3.3585267537897020e+06  3.3221319246961637e+06  3.2931973372039585e+06  3.2674591432865639e+06  3.2443537097051446e+06  3.2228163142017494e+06  3.2026857122180252e+06  3.1836684305081796e+06  3.1654087720469693e+06  3.1476307244435013e+06  3.1300717361549023e+06  3.1124705812121453e+06  3.0945884460217799e+06  3.0762011979724485e+06  3.0571729994271342e+06  3.0376145423800326e+06  3.0180753355211439e+06  2.9995510054582097e+06  2.9832403693775241e+06  2.9701709485435919e+06  2.9609581396339261e+06  2.9557899752108920e+06  2.9545380164813837e+06  2.9568120889263386e+06  2.9621704940662170e+06  2.9693922279653810e+06  1.2721989668932646e+05  3.6121228072072356e+05  6.6814069455640076e+05  9.1189374256480695e+05  1.1119404644333129e+06  1.2714841115664591e+06  1.4025927155844006e+06  1.4871674715277664e+06  1.5494493170605700e+06  1.5739385077140608e+06  1.5843370166985986e+06  1.5717889536243570e+06  1.5494886212957301e+06  1.5165718330051480e+06  1.4777100706201405e+06  1.4309995175452556e+06  1.3929165925158586e+06  1.3958761098723977e+06  2.0906197082151186e+06  3.1462135337954205e+06  3.4404475518660760e+06  3.4045751654525767e+06  3.3514220236412557e+06  3.3079110362816220e+06  3.2735669996677795e+06  3.2447210177083169e+06  3.2190249252471193e+06  3.1956967728758254e+06  3.1741785728322533e+06  3.1540525840899749e+06  3.1349658248074446e+06  3.1165644802496214e+06  3.0984986776614212e+06  3.0804568507859968e+06  3.0621608453296637e+06  3.0434221682524667e+06  3.0242825738792066e+06  3.0052108755920380e+06  2.9871346833569873e+06  2.9712232101658643e+06  2.9585127756433222e+06  2.9496407052165759e+06  2.9448076761078383e+06  2.9438829065542603e+06  2.9464664325045734e+06  2.9521006046138182e+06  2.9596232729596039e+06  2.9699065925323106e+06  5.2177510952545257e+04  1.5239682590019066e+05  3.8767940162129857e+05  6.7779302530399442e+05  9.2497116612648999e+05  1.1347660101949957e+06  1.2910459193002703e+06  1.4183149835445629e+06  1.4995913771082226e+06  1.5558753740104968e+06  1.5808084039247737e+06  1.5862237416386839e+06  1.5747349315091101e+06  1.5503149354929721e+06  1.5134444397745084e+06  1.4805160482397890e+06  1.4556490142559744e+06  2.0387132922962543e+06  3.1394381595453112e+06  3.5134679437122601e+06  3.4745629161192211e+06  3.4072564026866774e+06  3.3494860200523529e+06  3.3006244571494060e+06  3.2594657091202443e+06  3.2250872688535722e+06  3.1958041995890839e+06  3.1700275606893892e+06  3.1467168460420445e+06  3.1252174231332736e+06  3.1050459602462645e+06  3.0857581406595036e+06  3.0669449663033700e+06  3.0482430048403796e+06  3.0293818863936784e+06  3.0103165420697602e+06  2.9914247062473311e+06  2.9735608431185614e+06  2.9578624238548782e+06  2.9453759532799348e+06  2.9367640673121456e+06  2.9322455754770283e+06  2.9316894086110871e+06  2.9346949064621688e+06  2.9407712835109211e+06  2.9488457761953971e+06  2.9593634627719270e+06  2.9719030951301851e+06  4.9642208834754398e+04  5.9797358843059003e+04  1.7897032798158331e+05  4.1420651815895259e+05  6.9793699448655010e+05  9.4395887550144177e+05  1.1550333946860738e+06  1.3117132255437365e+06  1.4318710731175526e+06  1.5125519320428963e+06  1.5622560703814253e+06  1.5870931583541248e+06  1.5897336690255294e+06  1.5742257883189523e+06  1.5540901574125015e+06  1.5203176976486095e+06  1.9909529543846557e+06  3.1269573555867961e+06  3.5940555048722601e+06  3.5596762552334634e+06  3.4860198425795590e+06  3.4166878263458670e+06  3.3546683476427477e+06  3.2991849193287231e+06  3.2510141928846836e+06  3.2102519458853360e+06  3.1759349977398296e+06  3.1465669396965094e+06  3.1207381595380954e+06  3.0974014819171638e+06  3.0757899021308082e+06  3.0553082561596204e+06  3.0354719288582057e+06  3.0158981918750885e+06  2.9964254030713709e+06  2.9773145701301703e+06  2.9593289610205460e+06  2.9435633602966815e+06  2.9310697645724174e+06  2.9225359568359358e+06  2.9182004859075537e+06  2.9179363589316104e+06  2.9213448512169649e+06  2.9279074716432118e+06  2.9366293080547550e+06  2.9476056479933318e+06  2.9606768146650111e+06  2.9746999121285528e+06  5.1180039950466176e+04  5.0651504794812754e+04  6.7839144888727344e+04  2.0779210933064783e+05  4.4536813881431101e+05  7.2101694143668481e+05  9.6749908887521096e+05  1.1737026841492890e+06  1.3317778562320115e+06  1.4451822058731972e+06  1.5242657447605981e+06  1.5701378763139753e+06  1.5908561622627885e+06  1.5948017232529521e+06  1.5735727690104009e+06  1.9368638970893086e+06  3.0961562936818232e+06  3.6747542628553822e+06  3.6507141838764464e+06  3.5763684103040802e+06  3.5010969791351301e+06  3.4310313969168463e+06  3.3644044547373019e+06  3.3030431839898312e+06  3.2483025497530499e+06  3.2008582553693862e+06  3.1605435967328805e+06  3.1263661372934170e+06  3.0969712537272200e+06  3.0710250710538281e+06  3.0474245387723739e+06  3.0253476943998015e+06  3.0041886501758397e+06  2.9836109857290969e+06  2.9637172208842584e+06  2.9451443141077319e+06  2.9289181490131868e+06  2.9160819892100128e+06  2.9073440429062936e+06  2.9029614497451247e+06  2.9028111181424754e+06  2.9064949559114273e+06  2.9134702309409985e+06  2.9228104478858216e+06  2.9343326583104441e+06  2.9480296488950956e+06  2.9627095410873741e+06  2.9781392531454777e+06  4.4771952241260391e+04  5.3722080257999114e+04  5.0844935816686513e+04  8.2843933356928057e+04  2.3775771162733267e+05  4.7930163743769767e+05  7.4524986067321361e+05  9.9253899166579172e+05  1.1933201730343068e+06  1.3498633876058434e+06  1.4594168993418710e+06  1.5342696374040323e+06  1.5774835489416157e+06  1.5913891020501957e+06  1.8616096237021196e+06  3.0296010170968454e+06  3.7435110928431302e+06  3.7382646038932009e+06  3.6683806202992201e+06  3.5924521883172141e+06  3.5201228033396541e+06  3.4477036113255676e+06  3.3776096946974923e+06  3.3115519785015532e+06  3.2509917197352485e+06  3.1970921237583701e+06  3.1503322324199998e+06  3.1104034152678549e+06  3.0763139471242814e+06  3.0467262624758421e+06  3.0203507706417199e+06  2.9961228890579920e+06  2.9733380534103862e+06  2.9518151355022802e+06  2.9319847523226230e+06  2.9147489615774117e+06  2.9011065336830756e+06  2.8917675724388817e+06  2.8870007235610117e+06  2.8866849079248379e+06  2.8904188175164652e+06  2.8976354389821221e+06  2.9074585202558576e+06  2.9194902271840810e+06  2.9337905622783112e+06  2.9491934810686056e+06  2.9653554395823558e+06  2.9818363427697071e+06  3.9690186288204633e+04  4.9467975406487698e+04  5.5545450431583828e+04  5.1795373148733357e+04  1.0490516734658308e+05  2.6819739797204611e+05  5.1277548728198378e+05  7.7245817344565270e+05  1.0170304448735267e+06  1.2144373232159151e+06  1.3670397212290128e+06  1.4706019151308453e+06  1.5425211581383271e+06  1.7449221255163532e+06  2.9029064295966909e+06  3.7812280936010443e+06  3.8082455756156472e+06  3.7501339923797501e+06  3.6806599485924053e+06  3.6118868642789959e+06  3.5391184033670123e+06  3.4658141159397308e+06  3.3935181855665785e+06  3.3238489156947541e+06  3.2584408429048005e+06  3.1986871126595633e+06  3.1455577124608364e+06  3.0993530566845355e+06  3.0596042210016567e+06  3.0252946125500579e+06  2.9951731392718242e+06  2.9681121805715864e+06  2.9434682582632927e+06  2.9212872832585010e+06  2.9022116828199392e+06  2.8871035327404770e+06  2.8766173671865049e+06  2.8710013415223262e+06  2.8701226129258745e+06  2.8735710262424489e+06  2.8807563231878844e+06  2.8908328347345907e+06  2.9032356807999741e+06  2.9180189545612638e+06  2.9340884906733874e+06  2.9509821193301277e+06  2.9682501472666990e+06  2.9855255674477816e+06  3.7489640861863707e+04  4.4397777117005688e+04  5.3862811533093067e+04  5.7056587974572642e+04  5.5455331330124645e+04  1.3044161779144172e+05  3.0076161215785652e+05  5.4457752129504480e+05  8.0257305531139881e+05  1.0424441567879746e+06  1.2314113875278684e+06  1.3861650269403502e+06  1.5602482077767639e+06  2.6858317250150135e+06  3.7608684727281635e+06  3.8402323626569980e+06  3.8032784105179529e+06  3.7512192107865810e+06  3.6945276479151249e+06  3.6281907670888253e+06  3.5575931490226584e+06  3.4846345503362273e+06  3.4112078785848212e+06  3.3390618468909995e+06  3.2698482001495161e+06  3.2050914229495525e+06  3.1460479321804699e+06  3.0934702769758152e+06  3.0474612978495499e+06  3.0075023954339488e+06  2.9726798495289222e+06  2.9421505251562572e+06  2.9155610530257588e+06  2.8931518497098135e+06  2.8754857624285812e+06  2.8630276967349560e+06  2.8559092734343125e+06  2.8539250676652454e+06  2.8566232534590112e+06  2.8633821156376954e+06  2.8733713779593688e+06  2.8858998883274044e+06  2.9009593048536214e+06  2.9175429198067444e+06  2.9350666263623820e+06  2.9530716875393107e+06  2.9711515444698459e+06  2.9889677079110472e+06  3.5829035051868494e+04  4.2347785588335173e+04  4.9325754684038766e+04  5.7945905018616104e+04  5.7981652905153634e+04  6.5140027892871221e+04  1.5581469472736793e+05  3.3463143909231696e+05  5.7763962828878744e+05  8.2928078635946894e+05  1.0739852716091131e+06  1.2697683114061214e+06  2.3422807129096547e+06  3.6455644277152545e+06  3.8067932402230953e+06  3.8021316811110210e+06  3.7827909188348111e+06  3.7503469172599469e+06  3.7006322733703637e+06  3.6410755115381912e+06  3.5742870057689170e+06  3.5030945490325685e+06  3.4297834736807696e+06  3.3562940052286405e+06  3.2843563995669493e+06  3.2155569308476639e+06  3.1512919081886848e+06  3.0926298403755925e+06  3.0401751338017024e+06  2.9939906510476992e+06  2.9538213926177332e+06  2.9194682467859075e+06  2.8910181599835074e+06  2.8687480307597714e+06  2.8528239131814474e+06  2.8431153968429938e+06  2.8392102569427700e+06  2.8405118370209942e+06  2.8463051825883202e+06  2.8557350479890518e+06  2.8680104324106704e+06  2.8830286194388890e+06  2.8998725101404162e+06  2.9178375051574558e+06  2.9364386250353707e+06  2.9552285067880228e+06  2.9738411637920490e+06  2.9919748767264327e+06  3.4444361020097705e+04  4.1177475385017489e+04  4.7567645894052803e+04  5.4708210226315518e+04  6.1482526395135770e+04  5.8704651323483537e+04  8.0610206186454161e+04  1.8185805912440721e+05  3.6439409140859591e+05  6.1928049583207525e+05  8.4634051628891029e+05  1.8373779067427185e+06  3.3865220711707035e+06  3.6710554051539088e+06  3.7119289226046256e+06  3.7458566829814529e+06  3.7539477755267294e+06  3.7352464559087707e+06  3.6989245869181482e+06  3.6483562612024243e+06  3.5875967261174559e+06  3.5199565912781646e+06  3.4482055388480206e+06  3.3746069350478412e+06  3.3010554153481657e+06  3.2292128555307449e+06  3.1605656179174222e+06  3.0964011081115380e+06  3.0377210726660308e+06  2.9852702118256949e+06  2.9396855161055154e+06  2.9015860507025155e+06  2.8714566576646841e+06  2.8494081508316910e+06  2.8350844401960145e+06  2.8277779392910078e+06  2.8266083607062162e+06  2.8306326855684281e+06  2.8388564895456256e+06  2.8503496085645193e+06  2.8648718341179010e+06  2.8815866829677122e+06  2.8996885574830910e+06  2.9186501382000153e+06  2.9379720192278763e+06  2.9572498899887414e+06  2.9761484408498723e+06  2.9943965884953681e+06  3.3756896405546599e+04  4.0287254825222219e+04  4.7073950059859169e+04  5.3227916677433299e+04  6.0272119980010677e+04  6.4473164878516225e+04  6.2088678999939737e+04  9.4890485018805295e+04  2.1420971902744801e+05  3.7605140494657890e+05  1.1990467323267488e+06  2.9508791830854909e+06  3.3936568893061662e+06  3.4889949602841777e+06  3.6007924376241933e+06  3.6701621292348523e+06  3.7019391222445010e+06  3.7057896972384932e+06  3.6859006549395430e+06  3.6476583556847945e+06  3.5955912811387172e+06  3.5336780428382717e+06  3.4652315959146284e+06  3.3929311190368324e+06  3.3189495572930216e+06  3.2451138832498612e+06  3.1730254621064290e+06  3.1041461769712069e+06  3.0399038238417562e+06  2.9818103738807733e+06  2.9314247658088305e+06  2.8900591582632610e+06  2.8583860185718862e+06  2.8362778872136134e+06  2.8229672058026367e+06  2.8173352784691439e+06  2.8181347190300901e+06  2.8240922267817562e+06  2.8340175990553899e+06  2.8474184449463706e+06  2.8634627112621316e+06  2.8812460416218438e+06  2.9001919970423700e+06  2.9197537831472591e+06  2.9394760247329609e+06  2.9589740936434148e+06  2.9779369109806768e+06  2.9961160515373326e+06  3.3652523730421584e+04  4.0072030104008103e+04  4.6930237595034414e+04  5.3440015227908654e+04  5.9344914085021446e+04  6.5334342132198151e+04  6.5762714994995287e+04  7.1101569720931686e+04  9.5924400342905006e+04  6.1051726313936291e+05  2.4130140278659835e+06  2.9931428287677057e+06  3.1116738073917287e+06  3.3093053800255978e+06  3.4561248199316561e+06  3.5603080750334952e+06  3.6259968200547653e+06  3.6565413589459984e+06  3.6579911732048080e+06  3.6359948536203718e+06  3.5958926305993013e+06  3.5423602581390115e+06  3.4793235494357292e+06  3.4099823570166333e+06  3.3369201500843987e+06  3.2622400694313454e+06  3.1877445385196093e+06  3.1151886945874603e+06  3.0465538308868813e+06  2.9841107244424145e+06  2.9300946662899568e+06  2.8861475602755384e+06  2.8529462718105614e+06  2.8302249477918129e+06  2.8170431313172379e+06  2.8120743043641211e+06  2.8138132578786723e+06  2.8207507869513752e+06  2.8320102898040838e+06  2.8466037518928521e+06  2.8634410042506838e+06  2.8818328748959182e+06  2.9011784454812310e+06  2.9209791209632945e+06  2.9407999055704242e+06  2.9602738467029599e+06  2.9791003346674955e+06  2.9970454159873133e+06  3.4000591162534998e+04  4.0532147201270520e+04  4.7310478670274038e+04  5.4195232103156421e+04  5.9789248482684568e+04  6.5751489674314405e+04  6.8568490844618835e+04  6.4404574154364323e+04  2.8961496089168423e+05  1.9773335309661219e+06  2.6329535622573635e+06  2.6640317296870290e+06  2.8937105599704664e+06  3.0943501698159883e+06  3.2738921087505128e+06  3.4173253686743043e+06  3.5196051913015801e+06  3.5825689007830550e+06  3.6106508206539839e+06  3.6096773821156030e+06  3.5855394089070233e+06  3.5436227367321160e+06  3.4885602241568230e+06  3.4242007379688849e+06  3.3536586719884737e+06  3.2794547304300205e+06  3.2037982884264132e+06  3.1289865060309195e+06  3.0576648351315870e+06  2.9926542857728978e+06  2.9364198249100628e+06  2.8905870239144643e+06  2.8557938778602700e+06  2.8318110575940940e+06  2.8177484606528678e+06  2.8122544159198664e+06  2.8137239533631657e+06  2.8209548550971416e+06  2.8327137311836756e+06  2.8476077054817928e+06  2.8646836601940193e+06  2.8831822432825444e+06  2.9025162852507522e+06  2.9222042392832469e+06  2.9418357529521473e+06  2.9610536971060461e+06  2.9795592680709194e+06  2.9971231293022381e+06  3.4835578940945925e+04  4.1514975089795429e+04  4.8553385918654902e+04  5.4841494002183637e+04  6.2465356557978004e+04  6.2630850673565830e+04  7.7828898849909398e+04  1.5541580463475370e+05  1.7202845561707311e+06  2.5103058526313165e+06  2.3463762191009028e+06  2.5035778458393677e+06  2.6668883308775718e+06  2.8669906504130163e+06  3.0652167834984614e+06  3.2403218027185448e+06  3.3797639298460535e+06  3.4788508873308883e+06  3.5388552666065954e+06  3.5642491887433226e+06  3.5608234931517597e+06  3.5344632877897625e+06  3.4905412157025118e+06  3.4336553369237129e+06  3.3675911966871414e+06  3.2955160130710653e+06  3.2203691650138353e+06  3.1452382697154973e+06  3.0733602389436448e+06  3.0077211965028904e+06  2.9506277693336643e+06  2.9035393204570878e+06  2.8671099601334911e+06  2.8412780491046626e+06  2.8253435945554543e+06  2.8180899319694526e+06  2.8183623295631097e+06  2.8248698494177973e+06  2.8359845229165498e+06  2.8504145262092794e+06  2.8670999270806420e+06  2.8852145055718506e+06  2.9041296412210199e+06  2.9233631034281799e+06  2.9425191078711776e+06  2.9612518428683290e+06  2.9792611002872749e+06  2.9963129087339905e+06  3.6168736699081470e+04  4.3240801792471182e+04  4.9851333479412562e+04  5.8378110199632727e+04  5.8024457314258761e+04  8.3482522549912261e+04  6.4738254931220581e+04  1.4856996860444045e+06  2.5592270994766708e+06  2.2493291097002779e+06  2.3093490055526467e+06  2.3