<?xml version="1.0"?>
<VTKFile type="UnstructuredGrid"  version="0.1"  >
<UnstructuredGrid>
<Piece  NumberOfPoints="1250" NumberOfCells="2352">
<Points>
<DataArray  type="Float64"  NumberOfComponents="3"  format="ascii">0 0 0  0.0336 0 0  0.0336 0.07729999999999999 0  0 0.07729999999999999 0  0.001400000000000002 0 0  0.002800000000000005 0 0  0.004200000000000008 0 0  0.005600000000000009 0 0  0.007000000000000011 0 0  0.008400000000000013 0 0  0.009800000000000019 0 0  0.01120000000000002 0 0  0.01260000000000003 0 0  0.01400000000000003 0 0  0.01540000000000004 0 0  0.01680000000000005 0 0  0.01820000000000004 0 0  0.01960000000000004 0 0  0.02100000000000004 0 0  0.02240000000000003 0 0  0.02380000000000003 0 0  0.02520000000000002 0 0  0.02660000000000002 0 0  0.02800000000000001 0 0  0.02940000000000001 0 0  0.03080000000000001 0 0  0.0322 0 0  0.0336 0.001577551020408161 0  0.0336 0.003155102040816321 0  0.0336 0.004732653061224482 0  0.0336 0.006310204081632642 0  0.0336 0.007887755102040803 0  0.0336 0.009465306122448964 0  0.0336 0.01104285714285712 0  0.0336 0.01262040816326528 0  0.0336 0.01419795918367344 0  0.0336 0.0157755102040816 0  0.0336 0.01735306122448976 0  0.0336 0.01893061224489792 0  0.0336 0.02050816326530608 0  0.0336 0.02208571428571425 0  0.0336 0.02366326530612241 0  0.0336 0.02524081632653058 0  0.0336 0.02681836734693874 0  0.0336 0.02839591836734691 0  0.0336 0.02997346938775507 0  0.0336 0.03155102040816323 0  0.0336 0.0331285714285714 0  0.0336 0.03470612244897956 0  0.0336 0.03628367346938772 0  0.0336 0.03786122448979588 0  0.0336 0.03943877551020405 0  0.0336 0.04101632653061221 0  0.0336 0.04259387755102037 0  0.0336 0.04417142857142854 0  0.0336 0.04574897959183671 0  0.0336 0.04732653061224486 0  0.0336 0.04890408163265302 0  0.0336 0.05048163265306119 0  0.0336 0.05205918367346936 0  0.0336 0.05363673469387752 0  0.0336 0.05521428571428568 0  0.0336 0.05679183673469385 0  0.0336 0.05836938775510202 0  0.0336 0.05994693877551018 0  0.0336 0.06152448979591834 0  0.0336 0.0631020408163265 0  0.0336 0.06467959183673468 0  0.0336 0.06625714285714283 0  0.0336 0.06783469387755101 0  0.0336 0.06941224489795916 0  0.0336 0.07098979591836733 0  0.0336 0.07256734693877549 0  0.0336 0.07414489795918365 0  0.0336 0.07572244897959182 0  0.03219999999999999 0.07729999999999999 0  0.03079999999999999 0.07729999999999999 0  0.02939999999999999 0.07729999999999999 0  0.02799999999999999 0.07729999999999999 0  0.02659999999999999 0.07729999999999999 0  0.02519999999999999 0.07729999999999999 0  0.02379999999999998 0.07729999999999999 0  0.02239999999999998 0.07729999999999999 0  0.02099999999999997 0.07729999999999999 0  0.01959999999999996 0.07729999999999999 0  0.01819999999999996 0.07729999999999999 0  0.01679999999999995 0.07729999999999999 0  0.01539999999999996 0.07729999999999999 0  0.01399999999999996 0.07729999999999999 0  0.01259999999999996 0.07729999999999999 0  0.01119999999999997 0.07729999999999999 0  0.009799999999999972 0.07729999999999999 0  0.008399999999999977 0.07729999999999999 0  0.006999999999999978 0.07729999999999999 0  0.005599999999999983 0.07729999999999999 0  0.004199999999999988 0.07729999999999999 0  0.00279999999999999 0.07729999999999999 0  0.001399999999999998 0.07729999999999999 0  0 0.07572244897959184 0  0 0.07414489795918368 0  0 0.07256734693877551 0  0 0.07098979591836735 0  0 0.06941224489795919 0  0 0.06783469387755103 0  0 0.06625714285714288 0  0 0.06467959183673472 0  0 0.06310204081632656 0  0 0.0615244897959184 0  0 0.05994693877551023 0  0 0.05836938775510207 0  0 0.05679183673469392 0  0 0.05521428571428574 0  0 0.05363673469387759 0  0 0.05205918367346941 0  0 0.05048163265306126 0  0 0.04890408163265308 0  0 0.04732653061224493 0  0 0.04574897959183676 0  0 0.0441714285714286 0  0 0.04259387755102043 0  0 0.04101632653061228 0  0 0.03943877551020411 0  0 0.03786122448979595 0  0 0.03628367346938779 0  0 0.03470612244897962 0  0 0.03312857142857146 0  0 0.03155102040816329 0  0 0.02997346938775513 0  0 0.02839591836734697 0  0 0.0268183673469388 0  0 0.02524081632653064 0  0 0.02366326530612247 0  0 0.02208571428571431 0  0 0.02050816326530614 0  0 0.01893061224489798 0  0 0.01735306122448981 0  0 0.01577551020408165 0  0 0.01419795918367349 0  0 0.01262040816326532 0  0 0.01104285714285716 0  0 0.009465306122448988 0  0 0.00788775510204083 0  0 0.006310204081632659 0  0 0.004732653061224501 0  0 0.003155102040816343 0  0 0.001577551020408172 0  0.001400000000000004 0.001577551020408172 0  0.001400000000000004 0.003155102040816329 0  0.001400000000000002 0.004732653061224501 0  0.001400000000000002 0.006310204081632645 0  0.001400000000000005 0.007887755102040823 0  0.001400000000000002 0.009465306122448981 0  0.001400000000000002 0.01104285714285717 0  0.001400000000000004 0.01262040816326531 0  0.0014 0.01419795918367349 0  0.001400000000000002 0.01577551020408166 0  0.001400000000000005 0.0173530612244898 0  0.001400000000000002 0.01893061224489797 0  0.001400000000000002 0.02050816326530613 0  0.001400000000000002 0.02208571428571431 0  0.001400000000000002 0.02366326530612247 0  0.001400000000000002 0.02524081632653063 0  0.001400000000000002 0.0268183673469388 0  0.001400000000000002 0.02839591836734696 0  0.001400000000000002 0.02997346938775513 0  0.001400000000000002 0.03155102040816328 0  0.001400000000000002 0.03312857142857147 0  0.001399999999999997 0.03470612244897962 0  0.001400000000000005 0.03628367346938778 0  0.001400000000000002 0.03786122448979594 0  0.001400000000000002 0.03943877551020411 0  0.001400000000000002 0.04101632653061228 0  0.001400000000000002 0.04259387755102043 0  0.001400000000000002 0.0441714285714286 0  0.0014 0.04574897959183676 0  0.001400000000000002 0.04732653061224492 0  0.001400000000000004 0.04890408163265308 0  0.001400000000000002 0.05048163265306126 0  0.001400000000000002 0.05205918367346941 0  0.0014 0.05363673469387758 0  0.001400000000000004 0.05521428571428574 0  0.001399999999999998 0.05679183673469391 0  0.001400000000000002 0.05836938775510207 0  0.0014 0.05994693877551023 0  0.001400000000000002 0.0615244897959184 0  0.001400000000000002 0.06310204081632656 0  0.001400000000000002 0.06467959183673472 0  0.0014 0.06625714285714286 0  0.001400000000000002 0.06783469387755102 0  0.001399999999999998 0.06941224489795919 0  0.001400000000000002 0.07098979591836735 0  0.0014 0.07256734693877552 0  0.001400000000000002 0.07414489795918368 0  0.001400000000000002 0.07572244897959184 0  0.002800000000000006 0.001577551020408165 0  0.002800000000000004 0.003155102040816343 0  0.002800000000000002 0.004732653061224487 0  0.002800000000000002 0.006310204081632652 0  0.002800000000000002 0.007887755102040813 0  0.0028 0.009465306122448981 0  0.002799999999999997 0.01104285714285715 0  0.0028 0.01262040816326532 0  0.0028 0.01419795918367348 0  0.0028 0.01577551020408165 0  0.002799999999999997 0.0173530612244898 0  0.0028 0.01893061224489797 0  0.002800000000000004 0.02050816326530613 0  0.0028 0.0220857142857143 0  0.0028 0.02366326530612247 0  0.002800000000000004 0.02524081632653064 0  0.0028 0.0268183673469388 0  0.0028 0.02839591836734696 0  0.002799999999999995 0.02997346938775512 0  0.002799999999999997 0.03155102040816328 0  0.002799999999999995 0.03312857142857146 0  0.0028 0.03470612244897962 0  0.002799999999999995 0.03628367346938778 0  0.002799999999999997 0.03786122448979594 0  0.002799999999999997 0.03943877551020411 0  0.002799999999999997 0.04101632653061228 0  0.002799999999999997 0.04259387755102043 0  0.002799999999999995 0.0441714285714286 0  0.002799999999999997 0.04574897959183676 0  0.002799999999999997 0.04732653061224493 0  0.002799999999999995 0.04890408163265308 0  0.002799999999999993 0.05048163265306124 0  0.002799999999999995 0.05205918367346941 0  0.002799999999999995 0.05363673469387757 0  0.002799999999999992 0.05521428571428574 0  0.002799999999999997 0.05679183673469391 0  0.002799999999999993 0.05836938775510207 0  0.002799999999999993 0.05994693877551022 0  0.002799999999999992 0.0615244897959184 0  0.002799999999999988 0.06310204081632655 0  0.002799999999999992 0.0646795918367347 0  0.002799999999999992 0.06625714285714286 0  0.00279999999999999 0.06783469387755103 0  0.00279999999999999 0.06941224489795919 0  0.002799999999999988 0.07098979591836735 0  0.00279999999999999 0.07256734693877552 0  0.002799999999999988 0.07414489795918368 0  0.00279999999999999 0.07572244897959184 0  0.004200000000000006 0.001577551020408172 0  0.004200000000000006 0.003155102040816329 0  0.004200000000000008 0.00473265306122448 0  0.004200000000000009 0.006310204081632652 0  0.004200000000000008 0.00788775510204082 0  0.004200000000000008 0.009465306122448978 0  0.004200000000000006 0.01104285714285716 0  0.004200000000000006 0.01262040816326532 0  0.004200000000000004 0.01419795918367349 0  0.004200000000000002 0.01577551020408165 0  0.004200000000000004 0.0173530612244898 0  0.004200000000000006 0.01893061224489797 0  0.004200000000000006 0.02050816326530613 0  0.004200000000000002 0.0220857142857143 0  0.004200000000000004 0.02366326530612247 0  0.004199999999999999 0.02524081632653062 0  0.004200000000000004 0.0268183673469388 0  0.004200000000000004 0.02839591836734696 0  0.004200000000000002 0.02997346938775512 0  0.004199999999999999 0.03155102040816328 0  0.004200000000000001 0.03312857142857145 0  0.004200000000000001 0.03470612244897962 0  0.004199999999999995 0.03628367346938778 0  0.004199999999999999 0.03786122448979594 0  0.004199999999999999 0.0394387755102041 0  0.004199999999999997 0.04101632653061227 0  0.004199999999999999 0.04259387755102043 0  0.004199999999999999 0.04417142857142859 0  0.004199999999999999 0.04574897959183676 0  0.004199999999999999 0.04732653061224492 0  0.004199999999999997 0.04890408163265308 0  0.004199999999999997 0.05048163265306124 0  0.004199999999999999 0.05205918367346941 0  0.004199999999999992 0.05363673469387757 0  0.0
[...]
<PointData  Scalars=" mean stress"> 
<DataArray  type="Float64"  Name=" mean stress"  format="ascii">7.3662773262636430e+04  7.3770334575205707e+04  3.7749994808166542e+04  3.7749989395481840e+04  4.0080691768331140e+04  2.9031076607645369e+04  2.5319157066123302e+04  2.2786654678422630e+04  2.0922190607092482e+04  1.9434270833245384e+04  1.8243799791905603e+04  1.7308640536718049e+04  1.6602026928551793e+04  1.6108179586478429e+04  1.5817824170024207e+04  1.5726376595501868e+04  1.5832831999465961e+04  1.6139518941040245e+04  1.6652706419691593e+04  1.7384261543223940e+04  1.8354734019825552e+04  1.9598942386580649e+04  2.1181141404714359e+04  2.3203735431605422e+04  2.5967013686871513e+04  3.0213087862537835e+04  3.6080226917640794e+04  4.6063768748419119e+04  3.5871040067588066e+04  3.3568773119489677e+04  3.2443984421430949e+04  3.2121533905924734e+04  3.2224868778119646e+04  3.2553434476027505e+04  3.3000431969003635e+04  3.3499894261461966e+04  3.4010863108863115e+04  3.4507570106770829e+04  3.4974166175625884e+04  3.5401535756247242e+04  3.5785212744159224e+04  3.6123947991476191e+04  3.6418683404955191e+04  3.6671800335617670e+04  3.6886564090616594e+04  3.7066714795805412e+04  3.7216170360674580e+04  3.7338816300565653e+04  3.7438362866551011e+04  3.7518253894879381e+04  3.7581614792237946e+04  3.7631229494779625e+04  3.7669538256343738e+04  3.7698649821415624e+04  3.7720362967825902e+04  3.7736193594373122e+04  3.7747404506105275e+04  3.7755035839928307e+04  3.7759934701085760e+04  3.7762783070771031e+04  3.7764123419887321e+04  3.7764381744824132e+04  3.7763887946909475e+04  3.7762893624487850e+04  3.7761587450186533e+04  3.7760108377998637e+04  3.7758556978450688e+04  3.7757005240573744e+04  3.7755505235388293e+04  3.7754097063825982e+04  3.7752816595338583e+04  3.7751703998550671e+04  3.7750809460754688e+04  3.7750213527842352e+04  3.7749940423833941e+04  3.7750054792379495e+04  3.7749855521901038e+04  3.7749418722047434e+04  3.7748766883652439e+04  3.7747992375940317e+04  3.7747174130932603e+04  3.7746379569548197e+04  3.7745662434994701e+04  3.7745064084489255e+04  3.7744614905064460e+04  3.7744335604951273e+04  3.7744238239532649e+04  3.7744326868875221e+04  3.7744597797582603e+04  3.7745039380482092e+04  3.7745631415808013e+04  3.7746344185883114e+04  3.7747137249077954e+04  3.7747958149353835e+04  3.7748741285448807e+04  3.7749407859955470e+04  3.7749868606479147e+04  3.7750040238824135e+04  3.7749947259682282e+04  3.7750204895699266e+04  3.7750834124403984e+04  3.7751745309428552e+04  3.7752870670156939e+04  3.7754161251580525e+04  3.7755579105955316e+04  3.7757089327450260e+04  3.7758652246613288e+04  3.7760215856416980e+04  3.7761707927861244e+04  3.7763027357491053e+04  3.7764034327387359e+04  3.7764538901166408e+04  3.7764287718425163e+04  3.7762948490472489e+04  3.7760092050892119e+04  3.7755171785771701e+04  3.7747500371525253e+04  3.7736223895477138e+04  3.7720293640714459e+04  3.7698436098647078e+04  3.7669122149350886e+04  3.7630536842447698e+04  3.7580551843290938e+04  3.7516703405027256e+04  3.7436179712220161e+04  3.7335822641532301e+04  3.7212150425835185e+04  3.7061409420864380e+04  3.6879665203739569e+04  3.6662945664991799e+04  3.6407451765928250e+04  3.6109855593395412e+04  3.5767711031490559e+04  3.5380011356650306e+04  3.4947943683860423e+04  3.4475918603351500e+04  3.3973007554364842e+04  3.3455046674339501e+04  3.2947799739073998e+04  3.2492462277717219e+04  3.2155871895666849e+04  3.2040670499320440e+04  3.2392814641337311e+04  3.3509087484615833e+04  3.6710662491798023e+04  5.2665153069331929e+04  4.5555635046538569e+04  4.1894151361475866e+04  3.7632350736584092e+04  3.5716243377856787e+04  3.4762616985323293e+04  3.4367926676120231e+04  3.4298033233312759e+04  3.4417797525659356e+04  3.4646949155852890e+04  3.4933828388402537e+04  3.5244831926689294e+04  3.5557999762851920e+04  3.5859230795221309e+04  3.6139868095366961e+04  3.6395070333285978e+04  3.6622670032960697e+04  3.6822349227015984e+04  3.6995034185011667e+04  3.7142448159579406e+04  3.7266781884545970e+04  3.7370453646563408e+04  3.7455938170598100e+04  3.7525648427591950e+04  3.7581857896896145e+04  3.7626653381080658e+04  3.7661910485882545e+04  3.7689285508896544e+04  3.7710218819852977e+04  3.7725945918395097e+04  3.7737513260138046e+04  3.7745796677535975e+04  3.7751520813283758e+04  3.7755278452516417e+04  3.7757549005878129e+04  3.7758715676242166e+04  3.7759081053344198e+04  3.7758881036855259e+04  3.7758297100752177e+04  3.7757466990651439e+04  3.7756493997821730e+04  3.7755454983721807e+04  3.7754407335623662e+04  3.7753395014292422e+04  3.7752453741058547e+04  3.7751615137427500e+04  3.7750909723861347e+04  3.7750361632077140e+04  3.7750018127180811e+04  3.6666311053074467e+04  3.8838279395070320e+04  3.8043876847349617e+04  3.6962221039135133e+04  3.6239030967597471e+04  3.5827951531362407e+04  3.5647570611211588e+04  3.5623146852633210e+04  3.5699804864723948e+04  3.5838552945386320e+04  3.6011906314574095e+04  3.6200717966480901e+04  3.6391868288683690e+04  3.6576623557521147e+04  3.6749448931135979e+04  3.6907134921839905e+04  3.7048145084368960e+04  3.7172124116274412e+04  3.7279525607137381e+04  3.7371331071473498e+04  3.7448839725524245e+04  3.7513513548129369e+04  3.7566865611397378e+04  3.7610382131908402e+04  3.7645470554610365e+04  3.7673427453196156e+04  3.7695421232480752e+04  3.7712485617706414e+04  3.7725520752195283e+04  3.7735299423437849e+04  3.7742476516911534e+04  3.7747600271570504e+04  3.7751124294683075e+04  3.7753419599233377e+04  3.7754786166122067e+04  3.7755463716854269e+04  3.7755641519957309e+04  3.7755467154333317e+04  3.7755054221910330e+04  3.7754489045527087e+04  3.7753836409858268e+04  3.7753144404419261e+04  3.7752448417357642e+04  3.7751774408843972e+04  3.7751141391050616e+04  3.7750566678105402e+04  3.7750076313525882e+04  3.7749743576383968e+04  3.1160701973682670e+04  3.4787018572172565e+04  3.6214977037815974e+04  3.6555522144286522e+04  3.6551019241047863e+04  3.6489632271381633e+04  3.6456434902774010e+04  3.6468529684672620e+04  3.6520568017132944e+04  3.6601693999781332e+04  3.6701141549413915e+04  3.6809926007796232e+04  3.6921148580411369e+04  3.7029816203954368e+04  3.7132525071586999e+04  3.7227134049180255e+04  3.7312471785092137e+04  3.7388089196599853e+04  3.7454056976664127e+04  3.7510803643465530e+04  3.7558988583333441e+04  3.7599404601031725e+04  3.7632904937385982e+04  3.7660350264872606e+04  3.7682571730955446e+04  3.7700346656715039e+04  3.7714384004518375e+04  3.7725317198308192e+04  3.7733702308877066e+04  3.7740020000657358e+04  3.7744679973673607e+04  3.7748026923560341e+04  3.7750347285631833e+04  3.7751876228266723e+04  3.7752804520648562e+04  3.7753285024729434e+04  3.7753438655619262e+04  3.7753359723579772e+04  3.7753120618360321e+04  3.7752775828037797e+04  3.7752365306143751e+04  3.7751917233532593e+04  3.7751450264410531e+04  3.7750975723532712e+04  3.7750500467056394e+04  3.7750033511469679e+04  3.7749607694823157e+04  3.7749305667430090e+04  2.7599800954896680e+04  3.1463636348727890e+04  3.3945128149084929e+04  3.5344932492233966e+04  3.6108448140635854e+04  3.6537344006679356e+04  3.6796441001129788e+04  3.6968458962707409e+04  3.7094203063851608e+04  3.7193687107418460e+04  3.7276771701344653e+04  3.7348360716102434e+04  3.7410951639925945e+04  3.7465892914891527e+04  3.7514003784918095e+04  3.7555876843621416e+04  3.7592020998454107e+04  3.7622923810982647e+04  3.7649073370393628e+04  3.7670960493413120e+04  3.7689072195198467e+04  3.7703882236686652e+04  3.7715841781777446e+04  3.7725371648043088e+04  3.7732856744256693e+04  3.7738642773973297e+04  3.7743034998671043e+04  3.7746298712182528e+04  3.7748661028838440e+04  3.7750313595706262e+04  3.7751415880565059e+04  3.7752098744491639e+04  3.7752468069622242e+04  3.7752608271332763e+04  3.7752585575346922e+04  3.7752450982039445e+04  3.7752242872190182e+04  3.7751989231327490e+04  3.7751709486106862e+04  3.7751415961107705e+04  3.7751114985580090e+04  3.7750807745023660e+04  3.7750491082162407e+04  3.7750158825100458e+04  3.7749805183337521e+04  3.7749431072164167e+04  3.7749065209447370e+04  3.7748772736157356e+04  2.5111361345091365e+04  2.8903929592168352e+04  3.1847376886222693e+04  3.3911270167799215e+04  3.5289967722995032e+04  3.6196098415893182e+04  3.6791639948386197e+04  3.7184848702591487e+04  3.7445020801628365e+04  3.7616396444426602e+04  3.7727654752513110e+04  3.7797806780696548e+04  3.7839739844483294e+04  3.7862355518581418e+04  3.7871885705328081e+04  3.7872727475168176e+04  3.7867990714949585e+04  3.7859869025154127e+04  3.7849897721042711e+04  3.7839136957474424e+04  3.7828303523015362e+04  3.7817866534049615e+04  3.7808117288453177e+04  3.7799220415165408e+04  3.7791251392493723e+04  3.7784224086340015e+04  3.7778110952327646e+04  3.7772857821733014e+04  3.7768394668159148e+04  3.7764643374974083e+04  3.7761523252349623e+04  3.7758954858260877e+04  3.7756862537593603e+04  3.7755175991611708e+04  3.7753831114642053e+04  3.7752770277657000e+04  3.7751942194500058e+04  3.7751301472546111e+04  3.7750807925699242e+04  3.7750425718497449e+04  3.7750122422047869e+04  3.7749868124508554e+04  3.7749634895033378e+04  3.7749397038497213e+04  3.7749133694278702e+04  3.7748833035185591e+04  3.7748506310540877e+04  3.7748184516315217e+04  2.3293771451964196e+04  2.6964249500651444e+04  3.0093521306060964e+04  3.2543878275605079e+04  3.4360299250811404e+04  3.5661754899769781e+04  3.6573321447448543e+04  3.7199436045446011e+04  3.7619701927291899e+04  3.7892642126720799e+04  3.8060815611506638e+04  3.8155159813589649e+04  3.8198217721491397e+04  3.8206433982230796e+04  3.8191779496242678e+04  3.8162914334851892e+04  3.8126034824612369e+04  3.8085501005665486e+04  3.8044307394380696e+04  3.8004438984074914e+04  3.7967141363160161e+04  3.7933125594490324e+04  3.7902723107189828e+04  3.7876002145250153e+04  3.7852854643361192e+04  3.7833060397816334e+04  3.7816333863515625e+04  3.7802357714438040e+04  3.7790806373628140e+04  3.7781361992194506e+04  3.7773724790732835e+04  3.7767619236176877e+04  3.7762797184245319e+04  3.7759038850713718e+04  3.7756152266252189e+04  3.7753971706650147e+04  3.7752355463359774e+04  3.7751183221840365e+04  3.7750353244195961e+04  3.7749779508892912e+04  3.7749388950162371e+04  3.7749118962696179e+04  3.7748915473471970e+04  3.7748731825010436e+04  3.7748529503183570e+04  3.7748279243793615e+04  3.7747966898600527e+04  3.7747583241021035e+04  2.1923904702342352e+04  2.5495773573212919e+04  2.8693653059733348e+04  3.1362295913062790e+04  3.3472311256891146e+04  3.5074173944255796e+04  3.6251366642826099e+04  3.7091041868001477e+04  3.7670740424229480e+04  3.8054524119018948e+04  3.8293345481212309e+04  3.8426880250332564e+04  3.8485597982946631e+04  3.8492633341017674e+04  3.8465349748544621e+04  3.8416606411451306e+04  3.8355772227235313e+04  3.8289532424973644e+04  3.8222527563155949e+04  3.8157857332659136e+04  3.8097475456529435e+04  3.8042497058732668e+04  3.7993435949661856e+04  3.7950386090509630e+04  3.7913158869521569e+04  3.7881385635234801e+04  3.7854593110619273e+04  3.7832257803595501e+04  3.7813844288884276e+04  3.7798831224194881e+04  3.7786728143532702e+04  3.7777085410034750e+04  3.7769499180814091e+04  3.7763612813346990e+04  3.7759115805880829e+04  3.7755741097443744e+04  3.7753261342811187e+04  3.7751484614995999e+04  3.7750249865425321e+04  3.7749422386103739e+04  3.7748889471738665e+04  3.7748556450805641e+04  3.7748343313914083e+04  3.7748182001080189e+04  3.7748014799807461e+04  3.7747792258818445e+04  3.7747472531036372e+04  3.7747008115058386e+04  2.0890536075261931e+04  2.4393785652722727e+04  2.7613440477767574e+04  3.0404419262196221e+04  3.2705023258637801e+04  3.4522846885604289e+04  3.5907246798704800e+04  3.6925427041847681e+04  3.7646939791869132e+04  3.8135632134844978e+04  3.8446388095018374e+04  3.8624506644690104e+04  3.8706336952722828e+04  3.8720414141345849e+04  3.8688713032374872e+04  3.8627842413760780e+04  3.8550106779971298e+04  3.8464413952472823e+04  3.8377031304282311e+04  3.8292204092792774e+04  3.8212653405705030e+04  3.8139971848299705e+04  3.8074934072426731e+04  3.8017737477021074e+04  3.7968186383643239e+04  3.7925830971710311e+04  3.7890070383096972e+04  3.7860227737041947e+04  3.7835603353361184e+04  3.7815511258984123e+04  3.7799303032193362e+04  3.7786382196016406e+04  3.7776211682968715e+04  3.7768316333159433e+04  3.7762281936109597e+04  3.7757751964690971e+04  3.7754422862286388e+04  3.7752038518780631e+04  3.7750384397715403e+04  3.7749281646116448e+04  3.7748581428250822e+04  3.7748159644410254e+04  3.7747912169079769e+04  3.7747750526226671e+04  3.7747598030656249e+04  3.7747384955353053e+04  3.7747043320297409e+04  3.7746493072703313e+04  2.0131412231277522e+04  2.3590654998295904e+04  2.6814733159595686e+04  2.9674032487656114e+04  3.2094988459139880e+04  3.4060736430598219e+04  3.5596536013808131e+04  3.6752414298709962e+04  3.7588667436303549e+04  3.8166161485977005e+04  3.8540823281350124e+04  3.8761116114678283e+04  3.8867363081640113e+04  3.8892096424471943e+04  3.8860901700934417e+04  3.8793441638516728e+04  3.8704485419562159e+04  3.8604855682944239e+04  3.8502256013977145e+04  3.8401969843882289e+04  3.8307436405896973e+04  3.8220716308072064e+04  3.8142861778768194e+04  3.8074206746013791e+04  3.8014590813342795e+04  3.7963529573732958e+04  3.7920341938795544e+04  3.7884243453106872e+04  3.7854413009874079e+04  3.7830039021590354e+04  3.7810349932986661e+04  3.7794632981969793e+04  3.7782244298761383e+04  3.7772612762772915e+04  3.7765239490280335e+04  3.7759694384609575e+04  3.7755610827244578e+04  3.7752679308280160e+04  3.7750640575194295e+04  3.7749278706643781e+04  3.7748414384803371e+04  3.7747898515622357e+04  3.7747606251027290e+04  3.7747431237250537e+04  3.7747279872828993e+04  3.7747064428313221e+04  3.7746694859420117e+04  3.7746065683301160e+04  1.9610897555143580e+04  2.3044025021302314e+04  2.6267108654563188e+04  2.9163625104628445e+04  3.1656923423096629e+04  3.3717279795785289e+04  3.5354761017013225e+04  3.6606978167192159e+04  3.7526413321097527e+04  3.8170426559576175e+04  3.8594574194785149e+04  3.8848837595149060e+04  3.8975963179509337e+04  3.9011156651340090e+04  3.8982546769478431e+04  3.8912021886648785e+04  3.8816192892794708e+04  3.8707342478919309e+04  3.8594289371491926e+04  3.8483137926768766e+04  3.8377907240389497e+04  3.8281046432889343e+04  3.8193848544633642e+04  3.8116777404836284e+04  3.8049721700231101e+04  3.7992189308389199e+04  3.7943453378326769e+04  3.7902659965479710e+04  3.7868905429080376e+04  3.7841290355858262e+04  3.7818955512770459e+04  3.7801104254391459e+04  3.7787014905368786e+04  3.7776045887325861e+04  3.7767635742996434e+04  3.7761299709318111e+04  3.7756624087758843e+04  3.7753259337785152e+04  3.7750912563416765e+04  3.7749339857145766e+04  3.7748338797862205e+04  3.7747741242479133e+04  3.7747406410168966e+04  3.7747214035567828e+04  3.7747057244780226e+04  3.7746834326601776e+04  3.7746438696928388e+04  3.7745746936896903e+04  1.9308734690350077e+04  2.2728545635322789e+04  2.5949737876070631e+04  2.8864279129613318e+04  3.1395479356224161e+04  3.3507746650716050e+04  3.5203030277112215e+04  3.6511640272588818e+04  3.7481009161475944e+04  3.8165874019823234e+04  3.8621100027531262e+04  3.8897240354448404e+04  3.9038288220574483e+04  3.9080949071357027e+04  3.9054842039354793e+04  3.8983195987240550e+04  3.8883752879167267e+04  3.8769705860006012e+04  3.8650578252215353e+04  3.8532999738826300e+04  3.8421365654467474e+04  3.8318381612409423e+04  3.8225503764797766e+04  3.8143288244410949e+04  3.8071663914228091e+04  3.8010141753675060e+04  3.7957972789158870e+04  3.7914264850827261e+04  3.7878066829088937e+04  3.7848427621540839e+04  3.7824435648457627e+04  3.7805243683030392e+04  3.7790082784605787e+04  3.7778268323524004e+04  3.7769200426909163e+04  3.7762360636718746e+04  3.7757306136499552e+04  3.7753662554247167e+04  3.7751116069236443e+04  3.7749405323652376e+04  3.7748313449974092e+04  3.7747660348787998e+04  3.7747295184469149e+04  3.7747088860296477e+04  3.7746926055258766e+04  3.7746696265515966e+04  3.7746282683632518e+04  3.7745551441793541e+04  1.9214632318174401e+04  2.2630874631624258e+04  2.5850738243830729e+04  2.8769641186489796e+04  3.1311410750976996e+04  3.3439082720877486e+04  3.5152213925705568e+04  3.6478765938714292e+04  3.7464413519633104e+04  3.8162880591148547e+04  3.8628661487799545e+04  3.8912388312812989e+04  3.9058393392226317e+04  3.9103836476534372e+04  3.9078810782245622e+04  3.9006984361024122e+04  3.8906477490003504e+04  3.8790792760337303e+04  3.8669696249958426e+04  3.8550000937711004e+04  3.8436235163877507e+04  3.8331196617759088e+04  3.8236401249996015e+04  3.8152440263283781e+04  3.8079259197474814e+04  3.8016372478282421e+04  3.7963025450874455e+04  3.7918314322698912e+04  3.7881272836243377e+04  3.7850933001401507e+04  3.7826365890220048e+04  3.7806707348407610e+04  3.7791172503074245e+04  3.7779062130775244e+04  3.7769763276404366e+04  3.7762745962964946e+04  3.7757557386688371e+04  3.7753814633682996e+04  3.7751196666614174e+04  3.7749436095550569e+04  3.7748311049350894e+04  3.7747637282129792e+04  3.7747260470235335e+04  3.7747048466441425e+04  3.7746883043772461e+04  3.7746650758515600e+04  3.7746231284436923e+04  3.7745487726881016e+04  1.9325805332813488e+04  2.2747106112401321e+04  2.5966302765742064e+04  2.8877315575210181e+04  3.1404408349086414e+04  3.3512975225779795e+04  3.5205401847854599e+04  3.6512108022967863e+04  3.7480408157272628e+04  3.8164831668345432e+04  3.8620026545061985e+04  3.8896366349347547e+04  3.9037714622823252e+04  3.9080692967673574e+04  3.9054872551714456e+04  3.8983459451247669e+04  3.8884188945097230e+04  3.8770256918580824e+04  3.8651194259651784e+04  3.8533640104343031e+04  3.8421999369933183e+04  3.8318986421723312e+04  3.8226064887417298e+04  3.8143796967491908e+04  3.8072116234831155e+04  3.8010537165538619e+04  3.7958313254043940e+04  3.7914553961522346e+04  3.7878309152534370e+04  3.7848628201152802e+04  3.7824599641060282e+04  3.7805376105703865e+04  3.7790188348508476e+04  3.7778351334536863e+04  3.7769264736048957e+04  3.7762409626363151e+04  3.7757342731361037e+04  3.7753689248747411e+04  3.7751134965347985e+04  3.7749418175895262e+04  3.7748321715947677e+04  3.7747665248181991e+04  3.7747297763219489e+04  3.7747090082516632e+04  3.7746926853644502e+04  3.7746697767377031e+04  3.7746285803627739e+04  3.7745558479833024e+04  1.9646309017927215e+04  2.3081978422036635e+04  2.6300290384155694e+04  2.9189130134357452e+04  3.1673883150337515e+04  3.3726789435488805e+04  3.5358702657996786e+04  3.6607350870739676e+04  3.7524884489541262e+04  3.8168201038984473e+04  3.8592413239410562e+04  3.8847149632105793e+04  3.8974909940588390e+04  3.9010745834848232e+04  3.8982701101166145e+04  3.8912626406645133e+04  3.8817124414495396e+04  3.8708486334950117e+04  3.8595547616153592e+04  3.8484432169291184e+04  3.8379178338901045e+04  3.8282252521590941e+04  3.8194962333785283e+04  3.8117783319154871e+04  3.8050613175757841e+04  3.7992966408969834e+04  3.7944120794106020e+04  3.7903225397043403e+04  3.7869378328254817e+04  3.7841680978324512e+04  3.7819274232296106e+04  3.7801361089259677e+04  3.7787219211812146e+04  3.7776206180555906e+04  3.7767759612720925e+04  3.7761393802785657e+04  3.7756694139026884e+04  3.7753310227127586e+04  3.7750948395402673e+04  3.7749364051050747e+04  3.7748354187155659e+04  3.7747750189745137e+04  3.7747410931317667e+04  3.7747215982229332e+04  3.7747058405112854e+04  3.7746836899843423e+04  3.7746444471845840e+04  3.7745760628070879e+04  2.0187897929460116e+04  2.3649648252046249e+04  2.6864375301137996e+04  2.9710514642654351e+04  3.2117903937054620e+04  3.4072537759775892e+04  3.5600474779454824e+04  3.6751635602239818e+04  3.7585635440326274e+04  3.8162543718688517e+04  3.8537601405523739e+04  3.8