<?xml version="1.0"?>
<VTKFile type="UnstructuredGrid"  version="0.1"  >
<UnstructuredGrid>
<Piece  NumberOfPoints="1250" NumberOfCells="2352">
<Points>
<DataArray  type="Float64"  NumberOfComponents="3"  format="ascii">0 0 0  0.0336 0 0  0.0336 0.07729999999999999 0  0 0.07729999999999999 0  0.001400000000000002 0 0  0.002800000000000005 0 0  0.004200000000000008 0 0  0.005600000000000009 0 0  0.007000000000000011 0 0  0.008400000000000013 0 0  0.009800000000000019 0 0  0.01120000000000002 0 0  0.01260000000000003 0 0  0.01400000000000003 0 0  0.01540000000000004 0 0  0.01680000000000005 0 0  0.01820000000000004 0 0  0.01960000000000004 0 0  0.02100000000000004 0 0  0.02240000000000003 0 0  0.02380000000000003 0 0  0.02520000000000002 0 0  0.02660000000000002 0 0  0.02800000000000001 0 0  0.02940000000000001 0 0  0.03080000000000001 0 0  0.0322 0 0  0.0336 0.001577551020408161 0  0.0336 0.003155102040816321 0  0.0336 0.004732653061224482 0  0.0336 0.006310204081632642 0  0.0336 0.007887755102040803 0  0.0336 0.009465306122448964 0  0.0336 0.01104285714285712 0  0.0336 0.01262040816326528 0  0.0336 0.01419795918367344 0  0.0336 0.0157755102040816 0  0.0336 0.01735306122448976 0  0.0336 0.01893061224489792 0  0.0336 0.02050816326530608 0  0.0336 0.02208571428571425 0  0.0336 0.02366326530612241 0  0.0336 0.02524081632653058 0  0.0336 0.02681836734693874 0  0.0336 0.02839591836734691 0  0.0336 0.02997346938775507 0  0.0336 0.03155102040816323 0  0.0336 0.0331285714285714 0  0.0336 0.03470612244897956 0  0.0336 0.03628367346938772 0  0.0336 0.03786122448979588 0  0.0336 0.03943877551020405 0  0.0336 0.04101632653061221 0  0.0336 0.04259387755102037 0  0.0336 0.04417142857142854 0  0.0336 0.04574897959183671 0  0.0336 0.04732653061224486 0  0.0336 0.04890408163265302 0  0.0336 0.05048163265306119 0  0.0336 0.05205918367346936 0  0.0336 0.05363673469387752 0  0.0336 0.05521428571428568 0  0.0336 0.05679183673469385 0  0.0336 0.05836938775510202 0  0.0336 0.05994693877551018 0  0.0336 0.06152448979591834 0  0.0336 0.0631020408163265 0  0.0336 0.06467959183673468 0  0.0336 0.06625714285714283 0  0.0336 0.06783469387755101 0  0.0336 0.06941224489795916 0  0.0336 0.07098979591836733 0  0.0336 0.07256734693877549 0  0.0336 0.07414489795918365 0  0.0336 0.07572244897959182 0  0.03219999999999999 0.07729999999999999 0  0.03079999999999999 0.07729999999999999 0  0.02939999999999999 0.07729999999999999 0  0.02799999999999999 0.07729999999999999 0  0.02659999999999999 0.07729999999999999 0  0.02519999999999999 0.07729999999999999 0  0.02379999999999998 0.07729999999999999 0  0.02239999999999998 0.07729999999999999 0  0.02099999999999997 0.07729999999999999 0  0.01959999999999996 0.07729999999999999 0  0.01819999999999996 0.07729999999999999 0  0.01679999999999995 0.07729999999999999 0  0.01539999999999996 0.07729999999999999 0  0.01399999999999996 0.07729999999999999 0  0.01259999999999996 0.07729999999999999 0  0.01119999999999997 0.07729999999999999 0  0.009799999999999972 0.07729999999999999 0  0.008399999999999977 0.07729999999999999 0  0.006999999999999978 0.07729999999999999 0  0.005599999999999983 0.07729999999999999 0  0.004199999999999988 0.07729999999999999 0  0.00279999999999999 0.07729999999999999 0  0.001399999999999998 0.07729999999999999 0  0 0.07572244897959184 0  0 0.07414489795918368 0  0 0.07256734693877551 0  0 0.07098979591836735 0  0 0.06941224489795919 0  0 0.06783469387755103 0  0 0.06625714285714288 0  0 0.06467959183673472 0  0 0.06310204081632656 0  0 0.0615244897959184 0  0 0.05994693877551023 0  0 0.05836938775510207 0  0 0.05679183673469392 0  0 0.05521428571428574 0  0 0.05363673469387759 0  0 0.05205918367346941 0  0 0.05048163265306126 0  0 0.04890408163265308 0  0 0.04732653061224493 0  0 0.04574897959183676 0  0 0.0441714285714286 0  0 0.04259387755102043 0  0 0.04101632653061228 0  0 0.03943877551020411 0  0 0.03786122448979595 0  0 0.03628367346938779 0  0 0.03470612244897962 0  0 0.03312857142857146 0  0 0.03155102040816329 0  0 0.02997346938775513 0  0 0.02839591836734697 0  0 0.0268183673469388 0  0 0.02524081632653064 0  0 0.02366326530612247 0  0 0.02208571428571431 0  0 0.02050816326530614 0  0 0.01893061224489798 0  0 0.01735306122448981 0  0 0.01577551020408165 0  0 0.01419795918367349 0  0 0.01262040816326532 0  0 0.01104285714285716 0  0 0.009465306122448988 0  0 0.00788775510204083 0  0 0.006310204081632659 0  0 0.004732653061224501 0  0 0.003155102040816343 0  0 0.001577551020408172 0  0.001400000000000004 0.001577551020408172 0  0.001400000000000004 0.003155102040816329 0  0.001400000000000002 0.004732653061224501 0  0.001400000000000002 0.006310204081632645 0  0.001400000000000005 0.007887755102040823 0  0.001400000000000002 0.009465306122448981 0  0.001400000000000002 0.01104285714285717 0  0.001400000000000004 0.01262040816326531 0  0.0014 0.01419795918367349 0  0.001400000000000002 0.01577551020408166 0  0.001400000000000005 0.0173530612244898 0  0.001400000000000002 0.01893061224489797 0  0.001400000000000002 0.02050816326530613 0  0.001400000000000002 0.02208571428571431 0  0.001400000000000002 0.02366326530612247 0  0.001400000000000002 0.02524081632653063 0  0.001400000000000002 0.0268183673469388 0  0.001400000000000002 0.02839591836734696 0  0.001400000000000002 0.02997346938775513 0  0.001400000000000002 0.03155102040816328 0  0.001400000000000002 0.03312857142857147 0  0.001399999999999997 0.03470612244897962 0  0.001400000000000005 0.03628367346938778 0  0.001400000000000002 0.03786122448979594 0  0.001400000000000002 0.03943877551020411 0  0.001400000000000002 0.04101632653061228 0  0.001400000000000002 0.04259387755102043 0  0.001400000000000002 0.0441714285714286 0  0.0014 0.04574897959183676 0  0.001400000000000002 0.04732653061224492 0  0.001400000000000004 0.04890408163265308 0  0.001400000000000002 0.05048163265306126 0  0.001400000000000002 0.05205918367346941 0  0.0014 0.05363673469387758 0  0.001400000000000004 0.05521428571428574 0  0.001399999999999998 0.05679183673469391 0  0.001400000000000002 0.05836938775510207 0  0.0014 0.05994693877551023 0  0.001400000000000002 0.0615244897959184 0  0.001400000000000002 0.06310204081632656 0  0.001400000000000002 0.06467959183673472 0  0.0014 0.06625714285714286 0  0.001400000000000002 0.06783469387755102 0  0.001399999999999998 0.06941224489795919 0  0.001400000000000002 0.07098979591836735 0  0.0014 0.07256734693877552 0  0.001400000000000002 0.07414489795918368 0  0.001400000000000002 0.07572244897959184 0  0.002800000000000006 0.001577551020408165 0  0.002800000000000004 0.003155102040816343 0  0.002800000000000002 0.004732653061224487 0  0.002800000000000002 0.006310204081632652 0  0.002800000000000002 0.007887755102040813 0  0.0028 0.009465306122448981 0  0.002799999999999997 0.01104285714285715 0  0.0028 0.01262040816326532 0  0.0028 0.01419795918367348 0  0.0028 0.01577551020408165 0  0.002799999999999997 0.0173530612244898 0  0.0028 0.01893061224489797 0  0.002800000000000004 0.02050816326530613 0  0.0028 0.0220857142857143 0  0.0028 0.02366326530612247 0  0.002800000000000004 0.02524081632653064 0  0.0028 0.0268183673469388 0  0.0028 0.02839591836734696 0  0.002799999999999995 0.02997346938775512 0  0.002799999999999997 0.03155102040816328 0  0.002799999999999995 0.03312857142857146 0  0.0028 0.03470612244897962 0  0.002799999999999995 0.03628367346938778 0  0.002799999999999997 0.03786122448979594 0  0.002799999999999997 0.03943877551020411 0  0.002799999999999997 0.04101632653061228 0  0.002799999999999997 0.04259387755102043 0  0.002799999999999995 0.0441714285714286 0  0.002799999999999997 0.04574897959183676 0  0.002799999999999997 0.04732653061224493 0  0.002799999999999995 0.04890408163265308 0  0.002799999999999993 0.05048163265306124 0  0.002799999999999995 0.05205918367346941 0  0.002799999999999995 0.05363673469387757 0  0.002799999999999992 0.05521428571428574 0  0.002799999999999997 0.05679183673469391 0  0.002799999999999993 0.05836938775510207 0  0.002799999999999993 0.05994693877551022 0  0.002799999999999992 0.0615244897959184 0  0.002799999999999988 0.06310204081632655 0  0.002799999999999992 0.0646795918367347 0  0.002799999999999992 0.06625714285714286 0  0.00279999999999999 0.06783469387755103 0  0.00279999999999999 0.06941224489795919 0  0.002799999999999988 0.07098979591836735 0  0.00279999999999999 0.07256734693877552 0  0.002799999999999988 0.07414489795918368 0  0.00279999999999999 0.07572244897959184 0  0.004200000000000006 0.001577551020408172 0  0.004200000000000006 0.003155102040816329 0  0.004200000000000008 0.00473265306122448 0  0.004200000000000009 0.006310204081632652 0  0.004200000000000008 0.00788775510204082 0  0.004200000000000008 0.009465306122448978 0  0.004200000000000006 0.01104285714285716 0  0.004200000000000006 0.01262040816326532 0  0.004200000000000004 0.01419795918367349 0  0.004200000000000002 0.01577551020408165 0  0.004200000000000004 0.0173530612244898 0  0.004200000000000006 0.01893061224489797 0  0.004200000000000006 0.02050816326530613 0  0.004200000000000002 0.0220857142857143 0  0.004200000000000004 0.02366326530612247 0  0.004199999999999999 0.02524081632653062 0  0.004200000000000004 0.0268183673469388 0  0.004200000000000004 0.02839591836734696 0  0.004200000000000002 0.02997346938775512 0  0.004199999999999999 0.03155102040816328 0  0.004200000000000001 0.03312857142857145 0  0.004200000000000001 0.03470612244897962 0  0.004199999999999995 0.03628367346938778 0  0.004199999999999999 0.03786122448979594 0  0.004199999999999999 0.0394387755102041 0  0.004199999999999997 0.04101632653061227 0  0.004199999999999999 0.04259387755102043 0  0.004199999999999999 0.04417142857142859 0  0.004199999999999999 0.04574897959183676 0  0.004199999999999999 0.04732653061224492 0  0.004199999999999997 0.04890408163265308 0  0.004199999999999997 0.05048163265306124 0  0.004199999999999999 0.05205918367346941 0  0.004199999999999992 0.05363673469387757 0  0.0
[...]
<PointData  Scalars=" mean stress"> 
<DataArray  type="Float64"  Name=" mean stress"  format="ascii">4.9298263162642128e+04  4.6806412183169108e+04  2.5249996522392728e+04  2.5249992903379742e+04  2.6822638627825145e+04  1.9427800686943323e+04  1.6943788833815128e+04  1.5249108661417102e+04  1.4001359708723578e+04  1.3005418899864571e+04  1.2208319348552854e+04  1.1581836381197985e+04  1.1108034381208421e+04  1.0776330196523633e+04  1.0580491940138872e+04  1.0517420545984884e+04  1.0586399149824681e+04  1.0788916761541514e+04  1.1129056717533029e+04  1.1614576502957152e+04  1.2258934804932200e+04  1.3085015463584756e+04  1.4134802976735398e+04  1.5477714516566251e+04  1.7310352626992408e+04  2.0105925038462286e+04  2.4337364656490648e+04  3.1429615543160660e+04  2.4092970540074013e+04  2.2535412710774544e+04  2.1739835228332326e+04  2.1507766855641970e+04  2.1567812845163855e+04  2.1782265757405388e+04  2.2078030268280603e+04  2.2410061525662641e+04  2.2750512531779710e+04  2.3081886015676231e+04  2.3393423772900245e+04  2.3678929373988889e+04  2.3935350272540400e+04  2.4161806729338001e+04  2.4358898129821151e+04  2.4528195749021052e+04  2.4671868371754110e+04  2.4792406786854983e+04  2.4892423864381693e+04  2.4974513109206975e+04  2.5041152483426173e+04  2.5094642990504810e+04  2.5137073553184371e+04  2.5170305354698474e+04  2.5195970173232625e+04  2.5215478383576898e+04  2.5230033260512249e+04  2.5240649017547359e+04  2.5248170670438707e+04  2.5253294344831829e+04  2.5256587068256660e+04  2.5258505415139505e+04  2.5259412624679011e+04  2.5259593999808454e+04  2.5259270533424355e+04  2.5258610806937875e+04  2.5257741275670760e+04  2.5256755104088752e+04  2.5255719749840187e+04  2.5254683522769188e+04  2.5253681382667779e+04  2.5252740258468813e+04  2.5251884227707294e+04  2.5251140225971689e+04  2.5250541879478184e+04  2.5250143123416878e+04  2.5249960240795626e+04  2.5250036575968821e+04  2.5249903118543876e+04  2.5249610830243626e+04  2.5249174811564735e+04  2.5248656862676307e+04  2.5248109764470195e+04  2.5247578579702396e+04  2.5247099214206501e+04  2.5246699287670832e+04  2.5246399086117777e+04  2.5246212429764699e+04  2.5246147362200190e+04  2.5246206591950413e+04  2.5246387653523288e+04  2.5246682776889898e+04  2.5247078479909738e+04  2.5247554923822398e+04  2.5248085101228542e+04  2.5248633967724916e+04  2.5249157678914591e+04  2.5249603547582174e+04  2.5249911855526996e+04  2.5250026830338040e+04  2.5249964832254165e+04  2.5250137374938717e+04  2.5250558402995426e+04  2.5251167876999294e+04  2.5251920406493588e+04  2.5252783190197093e+04  2.5253730777168454e+04  2.5254739733656381e+04  2.5255783418647719e+04  2.5256826914906098e+04  2.5257821752594413e+04  2.5258700119437333e+04  2.5259368277099660e+04  2.5259698932358642e+04  2.5259522337842882e+04  2.5258615924291804e+04  2.5256692300415623e+04  2.5253385504396101e+04  2.5248235460260243e+04  2.5240670691228934e+04  2.5229989480455748e+04  2.5215339858523814e+04  2.5195699049290401e+04  2.5169853335435266e+04  2.5136379727818057e+04  2.5093631354769692e+04  2.5039729145606583e+04  2.4972563183720500e+04  2.4889808066028178e+04  2.4788957747643399e+04  2.4667386703722805e+04  2.4522445861137694e+04  2.4351603758667170e+04  2.4152646035606445e+04  2.3923950146335137e+04  2.3664858206596546e+04  2.3376181330638981e+04  2.3060887839578008e+04  2.2725064015753163e+04  2.2379320558062602e+04  2.2040907514020513e+04  2.1737395735038055e+04  2.1513507713286952e+04  2.1437915054272078e+04  2.1675184519585033e+04  2.2423866325677929e+04  2.4567936929196767e+04  3.5246578618417116e+04  3.0486589995854269e+04  2.8034892554373720e+04  2.5181382344555208e+04  2.3897729974856422e+04  2.3258240436124008e+04  2.2992888310245235e+04  2.2945003619553354e+04  2.3024161187756719e+04  2.3176647721728645e+04  2.3367890728669045e+04  2.3575396804049986e+04  2.3784461098144548e+04  2.3985635927878899e+04  2.4173115833172549e+04  2.4343648556681295e+04  2.4495771616420636e+04  2.4629261092177625e+04  2.4744726847257280e+04  2.4843313356816503e+04  2.4926479229392691e+04  2.4995836595456491e+04  2.5053036497414916e+04  2.5099689667940416e+04  2.5137314369740034e+04  2.5167304681604932e+04  2.5190913960137645e+04  2.5209249294759713e+04  2.5223273667535130e+04  2.5233813265875800e+04  2.5241568000688283e+04  2.5247123774258973e+04  2.5250965437471768e+04  2.5253489689413575e+04  2.5255017417230076e+04  2.5255805162077464e+04  2.5256055538707449e+04  2.5255926540925269e+04  2.5255539740577042e+04  2.5254987440558827e+04  2.5254338877361941e+04  2.5253645588964406e+04  2.5252946068471087e+04  2.5252269810973470e+04  2.5251640785169784e+04  2.5251080204698646e+04  2.5250608537116583e+04  2.5250241968832674e+04  2.5250012135309738e+04  2.4537079434975814e+04  2.5988983425255963e+04  2.5455662898066832e+04  2.4730326723473034e+04  2.4245081624485800e+04  2.3968872549000254e+04  2.3847197840594439e+04  2.3830025710329603e+04  2.3880621277632577e+04  2.3972879776538495e+04  2.4088396993660521e+04  2.4214348368751424e+04  2.4341943024772794e+04  2.4465325497297068e+04  2.4580781616582881e+04  2.4686154130046674e+04  2.4780406305069337e+04  2.4863292819701823e+04  2.4935110668337828e+04  2.4996511110415671e+04  2.5048358928305894e+04  2.5091628659677950e+04  2.5127329774046982e+04  2.5156454410925384e+04  2.5179942540763339e+04  2.5198660392881091e+04  2.5213388797243781e+04  2.5224818754510725e+04  2.5233552107655647e+04  2.5240105655335028e+04  2.5244917434376421e+04  2.5248354216143984e+04  2.5250719518233138e+04  2.5252261637392989e+04  2.5253181369568370e+04  2.5253639205829179e+04  2.5253761885077904e+04  2.5253648251452341e+04  2.5253374410737957e+04  2.5252998209327827e+04  2.5252563074027021e+04  2.5252101251906570e+04  2.5251636482447466e+04  2.5251186187887241e+04  2.5250763132311135e+04  2.5250378931074440e+04  2.5250051024798278e+04  2.5249828413922925e+04  2.0852205941321543e+04  2.3277246686207287e+04  2.4230950984054420e+04  2.4457176115066828e+04  2.4452786605254350e+04  2.4410591106559757e+04  2.4387476424093125e+04  2.4394848302891609e+04  2.4429095134976767e+04  2.4482925677634739e+04  2.4549113482062563e+04  2.4621628024181340e+04  2.4695837761592335e+04  2.4768389054796218e+04  2.4836993944671398e+04  2.4900211239060493e+04  2.4957250208993395e+04  2.5007804703635418e+04  2.5051917436912867e+04  2.5089871441192710e+04  2.5122104967078776e+04  2.5149146151999772e+04  2.5171564080186894e+04  2.5189933226355144e+04  2.5204808650622617e+04  2.5216709672720590e+04  2.5226110092804367e+04  2.5233433340791675e+04  2.5239051223244118e+04  2.5243285193976710e+04  2.5246409300159274e+04  2.5248654149335154e+04  2.5250211405430699e+04  2.5251238455261049e+04  2.5251862994025832e+04  2.5252187361832159e+04  2.5252292526558103e+04  2.5252241654508416e+04  2.5252083242278110e+04  2.5251853804252976e+04  2.5251580124753891e+04  2.5251281105606795e+04  2.5250969268720346e+04  2.5250652225517049e+04  2.5250334589471295e+04  2.5250022405387084e+04  2.5249737634419078e+04  2.5249535520140234e+04  1.8468781871838011e+04  2.1052584555126243e+04  2.2711176263558933e+04  2.3646108242621551e+04  2.4155567314108914e+04  2.4441426501275790e+04  2.4613937145762779e+04  2.4728401130482078e+04  2.4812075690466332e+04  2.4878312156182896e+04  2.4933675246660401e+04  2.4981419821369142e+04  2.5023196563392845e+04  2.5059892309538711e+04  2.5092043823942648e+04  2.5120039347260128e+04  2.5144213495448585e+04  2.5164888354235551e+04  2.5182387632334219e+04  2.5197037769001850e+04  2.5209163297499592e+04  2.5219080327551663e+04  2.5227090157575574e+04  2.5233473994036554e+04  2.5238489163033919e+04  2.5242366858403238e+04  2.5245311281875489e+04  2.5247499937963836e+04  2.5249084814530201e+04  2.5250194186348188e+04  2.5250934807184734e+04  2.5251394294676687e+04  2.5251643553843202e+04  2.5251739124523720e+04  2.5251725372448105e+04  2.5251636471703994e+04  2.5251498147800121e+04  2.5251329165895630e+04  2.5251142559703119e+04  2.5250946606571913e+04  2.5250745568417256e+04  2.5250540261799604e+04  2.5250328593817187e+04  2.5250106449755822e+04  2.5249869962868233e+04  2.5249619739867099e+04  2.5249374965431118e+04  2.5249179155044461e+04  1.6803005400925511e+04  1.9338888253173121e+04  2.1306484088355191e+04  2.2685703475322833e+04  2.3606748595543912e+04  2.4211928953368431e+04  2.4609599192778649e+04  2.4872143001780558e+04  2.5045870631954502e+04  2.5160331795760176e+04  2.5234672392862340e+04  2.5281578362726978e+04  2.5309646638321468e+04  2.5324814497391893e+04  2.5331238759851269e+04  2.5331853033259336e+04  2.5328732959414945e+04  2.5323343408089324e+04  2.5316710347498694e+04  2.5309542809328719e+04  2.5302320670154488e+04  2.5295358405333744e+04  2.5288851648090189e+04  2.5282911301907494e+04  2.5277588579376796e+04  2.5272893394702649e+04  2.5268807867606793e+04  2.5265296215317092e+04  2.5262311962083579e+04  2.5259803145268084e+04  2.5257716016945429e+04  2.5255997610657672e+04  2.5254597449768120e+04  2.5253468605982198e+04  2.5252568266428447e+04  2.5251857929542693e+04  2.5251303320653518e+04  2.5250874095506737e+04  2.5250543383982138e+04  2.5250287220086419e+04  2.5250083912323629e+04  2.5249913449882042e+04  2.5249757144527524e+04  2.5249597800406300e+04  2.5249421450463633e+04  2.5249220161138375e+04  2.5249001417364118e+04  2.5248785888160859e+04  1.5586050002322934e+04  1.8039989792566008e+04  2.0131795475470532e+04  2.1769532748328558e+04  2.2983431918825299e+04  2.3853136704794222e+04  2.4462312034139119e+04  2.4880780975123387e+04  2.5161740574063893e+04  2.5344286157826726e+04  2.5456840564759594e+04  2.5520061703646083e+04  2.5549001536566768e+04  2.5554641028047812e+04  2.5544975373350684e+04  2.5525790303380694e+04  2.5501227260887379e+04  2.5474201907759318e+04  2.5446718083636824e+04  2.5420105247056432e+04  2.5395198677884313e+04  2.5372476205426548e+04  2.5352161622121184e+04  2.5334302469390117e+04  2.5318828101096991e+04  2.5305592597431350e+04  2.5294406080027129e+04  2.5285057185372672e+04  2.5277328834136624e+04  2.5271008950628122e+04  2.5265897409719604e+04  2.5261810195167847e+04  2.5258581524744670e+04  2.5256064519490777e+04  2.5254130855225420e+04  2.5252669725649881e+04  2.5251586361506925e+04  2.5250800285138390e+04  2.5250243432239386e+04  2.5249858243305240e+04  2.5249595820465060e+04  2.5249414260577400e+04  2.5249277366639832e+04  2.5249153900812194e+04  2.5249018069885456e+04  2.5248850262947017e+04  2.5248640967891246e+04  2.5248383951275526e+04  1.4668552073734209e+04  1.7056265590306695e+04  1.9193834962417972e+04  2.0977557182114186e+04  2.2387883081499735e+04  2.3458619789371773e+04  2.4245597181053425e+04  2.4807064885173695e+04  2.5194828944334327e+04  2.5451679250447978e+04  2.5611644826302858e+04  2.5701222824268159e+04  2.5740763838075971e+04  2.5745722300584723e+04  2.5727700453928199e+04  2.5695293811635034e+04  2.5654767525604155e+04  2.5610594443949958e+04  2.5565881386755707e+04  2.5522705310299556e+04  2.5482376890557400e+04  2.5445645762095806e+04  2.5412859028829367e+04  2.5384082541398235e+04  2.5359192687253308e+04  2.5337944985075228e+04  2.5320024564532599e+04  2.5305082609226694e+04  2.5292762015388587e+04  2.5282714845077306e+04  2.5274613606314462e+04  2.5268157952218935e+04  2.5263078037826715e+04  2.5259135490853569e+04  2.5256122727604958e+04  2.5253861166841267e+04  2.5252198753872668e+04  2.5251007098208935e+04  2.5250178446256494e+04  2.5249622652922451e+04  2.5249264285053887e+04  2.5249039970030604e+04  2.5248896142538862e+04  2.5248787230931983e+04  2.5248674585314518e+04  2.5248525081230669e+04  2.5248310675565594e+04  2.5247999541926369e+04  1.3976039593209716e+04  1.6317604782872331e+04  1.8469598537212893e+04  2.0335108491498770e+04  2.1872956098089282e+04  2.3088247261283581e+04  2.4013967311342603e+04  2.4695005305048420e+04  2.5177808235630870e+04  2.5505009716544511e+04  2.5713259381326741e+04  2.5832810037719057e+04  2.5887942333134029e+04  2.5897722422471277e+04  2.5876837922541185e+04  2.5836394115918578e+04  2.5784621871387364e+04  2.5727482947769309e+04  2.5669174494491552e+04  2.5612541717765009e+04  2.5559410339690516e+04  2.5510850896833817e+04  2.5467386248454684e+04  2.5429152493954054e+04  2.5396022156938867e+04  2.5367697154181642e+04  2.5343777822630749e+04  2.5323813168268716e+04  2.5307336540490211e+04  2.5293890121222823e+04  2.5283040937732476e+04  2.5274390545919119e+04  2.5267580070870586e+04  2.5262291917383198e+04  2.5258249161423097e+04  2.5255213391496465e+04  2.5252981576848932e+04  2.5251382388468777e+04  2.5250272282975548e+04  2.5249531571798303e+04  2.5249060637651910e+04  2.5248776406552570e+04  2.5248609165667829e+04  2.5248499672398313e+04  2.5248396574139366e+04  2.5248253176716589e+04  2.5248023957153426e+04  2.5247655327623477e+04  1.3466815694040386e+04  1.5778710048883038e+04  1.7933521263246381e+04  1.9844689404624212e+04  2.1463089497992154e+04  2.2777448231622635e+04  2.3804609929451974e+04  2.4577951359967425e+04  2.5137708552719112e+04  2.5524506314339473e+04  2.5775682217425019e+04  2.5923600654387032e+04  2.5995198859876793e+04  2.6012217385808370e+04  2.5991761115704030e+04  2.5946980768610214e+04  2.5887758645006659e+04  2.5821339999981363e+04  2.5752885074655514e+04  2.5685935599951659e+04  2.5622799432773718e+04  2.5564861623014607e+04  2.5512831899622979e+04  2.5466938654269958e+04  2.5427078783435634e+04  2.5392931679079873e+04  2.5364044488109641e+04  2.5339894626412828e+04  2.5319934499319963e+04  2.5303622472696836e+04  2.5290443361141890e+04  2.5279921044874409e+04  2.5271625282368408e+04  2.5265174337824814e+04  2.5260234677335084e+04  2.5256518692501384e+04  2.5253781173971780e+04  2.5251815070009037e+04  2.5250446918327514e+04  2.5249532224091472e+04  2.5248950967766017e+04  2.5248603343397368e+04  2.5248405764011830e+04  2.5248287017118233e+04  2.5248184425883243e+04  2.5248039249544050e+04  2.5247791208801271e+04  2.5247369717865353e+04  1.3116994178481898e+04  1.5411191144311879e+04  1.7565202097819289e+04  1.9501240094633344e+04  2.1168109725290124e+04  2.2545913704060029e+04  2.3641304142272915e+04  2.4479323326339003e+04  2.5094956528375689e+04  2.5526467052713549e+04  2.5810935572635899e+04  2.5981738601296827e+04  2.6067434868466466e+04  2.6091555935831624e+04  2.6072911538054341e+04  2.6026145003007397e+04  2.5962374181267332e+04  2.5889824130154266e+04  2.5814403667069499e+04  2.5740205805684145e+04  2.5669928004929257e+04  2.5605216558060005e+04  2.5546943342813578e+04  2.5495424472675855e+04  2.5450590317451686e+04  2.5412115600638164e+04  2.5379517233790790e+04  2.5352226435066990e+04  2.5329640614781318e+04  2.5311159548369069e+04  2.5296209515797687e+04  2.5284258367483882e+04  2.5274823872090350e+04  2.5267477199718011e+04  2.5261842981794387e+04  2.5257597053841000e+04  2.5254462717412120e+04  2.5252206141771916e+04  2.5250631354516270e+04  2.5249575132683854e+04  2.5248901993619977e+04  2.5248499379769764e+04  2.5248273037384115e+04  2.5248142440223761e+04  2.5248036027291710e+04  2.5247885702500655e+04  2.5247620125981735e+04  2.5247156724389646e+04  1.2912973102240612e+04  1.5198028308385827e+04  1.7350649987677258e+04  1.9298753725731211e+04  2.0991109152422505e+04  2.2403861273447914e+04  2.3538191134139295e+04  2.4414219299958506e+04  2.5063525338331070e+04  2.5522601421691885e+04  2.5828059048588417e+04  2.6013657091316622e+04  2.6108792022834419e+04  2.6138004034370118e+04  2.6121105522051268e+04  2.6073641764505202e+04  2.6007491675632980e+04  2.5931492940281456e+04  2.5852028509386608e+04  2.5773544943806573e+04  2.5698992984757737e+04  2.5630191691001521e+04  2.5568122926483025e+04  2.5513165191208838e+04  2.5465276199301763e+04  2.5424133091567153e+04  2.5389238230440114e+04  2.5359997445075394e+04  2.5335776523200151e+04  2.5315940757413860e+04  2.5299881477471536e+04  2.5287032744022184e+04  2.5276880739055974e+04  2.5268967853715378e+04  2.5262893033221131e+04  2.5258309578735265e+04  2.5254921314968014e+04  2.5252477798758715e+04  2.5250769056669567e+04  2.5249620187659693e+04  2.5248886039763962e+04  2.5248446051637144e+04  2.5248199237985216e+04  2.5248059160132430e+04  2.5247948603031502e+04  2.5247793587511107e+04  2.5247515937518408e+04  2.5247026096259335e+04  1.2847806269580515e+04  1.5130221212300434e+04  1.7281847891483532e+04  1.9232934884796476e+04  2.0932577294175284e+04  2.2355950527720190e+04  2.3502576689317102e+04  2.4390956797052044e+04  2.5051463560594933e+04  2.5519897195879574e+04  2.5832619096652059e+04  2.6023446036061185e+04  2.6122009597699649e+04  2.6153162719080512e+04  2.6137042963274009e+04  2.6089496065433956e+04  2.6022659216958113e+04  2.5945581003376294e+04  2.5864809590696648e+04  2.5784916148649325e+04  2.5708941768643450e+04  2.5638768035465782e+04  2.5575417435074240e+04  2.5519292332903784e+04  2.5470361859848184e+04  2.5428305626975729e+04  2.5392622298517359e+04  2.5362709990634594e+04  2.5337924394365971e+04  2.5317619525864695e+04  2.5301175120569314e+04  2.5288013920327990e+04  2.5277611450554017e+04  2.5269500339102709e+04  2.5263270777892409e+04  2.5258568359908644e+04  2.5255090225979871e+04  2.5252580215876354e+04  2.5250823525657081e+04  2.5249641216243694e+04  2.5248884785788199e+04  2.5248430896661761e+04  2.5248176228008579e+04  2.5248032298629729e+04  2.5247919948198152e+04  2.5247763230245564e+04  2.5247481615757162e+04  2.5246983524239840e+04  1.2919547365703946e+04  1.5205059116823235e+04  1.7356165723559341e+04  1.9302134202705303e+04  2.0992304625331682e+04  2.2403344556311298e+04  2.3536584975070564e+04  2.4412112015712446e+04  2.5061364668894432e+04  2.5520674418973849e+04  2.5826512047984383e+04  2.6012534235321164e+04  2.6108073066436566e+04  2.6137634235629845e+04  2.6121016439050261e+04  2.6073764223476130e+04  2.6007762894385993e+04  2.5931859774810760e+04  2.5852448296868228e+04  2.5773984994397539e+04  2.5699429401751688e+04  2.5630607937546913e+04  2.5568508380688701e+04  2.5513513817612904e+04  2.5465585395199083e+04  2.5424402725315533e+04  2.5389469865732219e+04  2.5360193733263128e+04  2.5335940740649752e+04  2.5316076463821773e+04  2.5299992272262934e+04  2.5287122100299628e+04  2.5276951897383438e+04  2.5269023760909957e+04  2.5262936314062572e+04  2.5258342530933911e+04  2.5254945919946840e+04  2.5252495742666910e+04  2.5250781757774326e+04  2.5249628828005611e+04  2.5248891600103467e+04  2.5248449351727402e+04  2.5248200980054473e+04  2.5248059990725440e+04  2.5247949146980864e+04  2.5247794598968219e+04  2.5247518028258277e+04  2.5247030801423403e+04  1.3130789053856248e+04  1.5425577793042941e+04  1.7576081870739334e+04  1.9507530653617920e+04  2.1169917123643638e+04  2.2544348988287409e+04  2.3637704379398925e+04  2.4474890834870879e+04  2.5090561351257875e+04  2.5522638549208099e+04  2.5807924137264050e+04  2.5979599662943961e+04  2.6066105726734513e+04  2.6090914349878902e+04  2.6072814664176316e+04  2.6026452940640931e+04  2.5962962365183470e+04  2.5890588540109067e+04  2.5815261707163685e+04  2.5741094814247313e+04  2.5670802647116252e+04  2.5606045851568808e+04  2.5547707743523300e+04  2.5496113238789756e+04  2.5451199245722448e+04  2.5412645154827100e+04  2.5379971045212322e+04  2.5352610135042094e+04  2.5329960950969882e+04  2.5311423736234956e+04  2.5296424779663354e+04  2.5284431630743529e+04  2.5274961561962187e+04  2.5267585137759674e+04  2.5261926336771034e+04  2.5257660338405152e+04  2.5254509814211720e+04  2.5252240348324194e+04  2.5250655439371363e+04  2.5249591398836626e+04  2.5248912347200610e+04  2.5248505408443958e+04  2.5248276094496199e+04  2.5248143767446119e+04  2.5248036822544513e+04  2.5247887437049565e+04  2.5247623996295613e+04  2.5247165877811000e+04  1.3489212696232189e+04  1.5801054241530250e+04  1.7949281841448865e+04  1.9852744154065684e+04  2.1464205482051169e+04  2.2773751946401175e+04  2.3798288965878608e+04  2.4570818098613450e+04  2.5130986770356936e+04  2.5518872475744509e+04  2.5771401991973089e+04  2.5