<?xml version="1.0"?>
<VTKFile type="UnstructuredGrid"  version="0.1"  >
<UnstructuredGrid>
<Piece  NumberOfPoints="1250" NumberOfCells="2352">
<Points>
<DataArray  type="Float64"  NumberOfComponents="3"  format="ascii">0 0 0  0.0336 0 0  0.0336 0.07729999999999999 0  0 0.07729999999999999 0  0.001400000000000002 0 0  0.002800000000000005 0 0  0.004200000000000008 0 0  0.005600000000000009 0 0  0.007000000000000011 0 0  0.008400000000000013 0 0  0.009800000000000019 0 0  0.01120000000000002 0 0  0.01260000000000003 0 0  0.01400000000000003 0 0  0.01540000000000004 0 0  0.01680000000000005 0 0  0.01820000000000004 0 0  0.01960000000000004 0 0  0.02100000000000004 0 0  0.02240000000000003 0 0  0.02380000000000003 0 0  0.02520000000000002 0 0  0.02660000000000002 0 0  0.02800000000000001 0 0  0.02940000000000001 0 0  0.03080000000000001 0 0  0.0322 0 0  0.0336 0.001577551020408161 0  0.0336 0.003155102040816321 0  0.0336 0.004732653061224482 0  0.0336 0.006310204081632642 0  0.0336 0.007887755102040803 0  0.0336 0.009465306122448964 0  0.0336 0.01104285714285712 0  0.0336 0.01262040816326528 0  0.0336 0.01419795918367344 0  0.0336 0.0157755102040816 0  0.0336 0.01735306122448976 0  0.0336 0.01893061224489792 0  0.0336 0.02050816326530608 0  0.0336 0.02208571428571425 0  0.0336 0.02366326530612241 0  0.0336 0.02524081632653058 0  0.0336 0.02681836734693874 0  0.0336 0.02839591836734691 0  0.0336 0.02997346938775507 0  0.0336 0.03155102040816323 0  0.0336 0.0331285714285714 0  0.0336 0.03470612244897956 0  0.0336 0.03628367346938772 0  0.0336 0.03786122448979588 0  0.0336 0.03943877551020405 0  0.0336 0.04101632653061221 0  0.0336 0.04259387755102037 0  0.0336 0.04417142857142854 0  0.0336 0.04574897959183671 0  0.0336 0.04732653061224486 0  0.0336 0.04890408163265302 0  0.0336 0.05048163265306119 0  0.0336 0.05205918367346936 0  0.0336 0.05363673469387752 0  0.0336 0.05521428571428568 0  0.0336 0.05679183673469385 0  0.0336 0.05836938775510202 0  0.0336 0.05994693877551018 0  0.0336 0.06152448979591834 0  0.0336 0.0631020408163265 0  0.0336 0.06467959183673468 0  0.0336 0.06625714285714283 0  0.0336 0.06783469387755101 0  0.0336 0.06941224489795916 0  0.0336 0.07098979591836733 0  0.0336 0.07256734693877549 0  0.0336 0.07414489795918365 0  0.0336 0.07572244897959182 0  0.03219999999999999 0.07729999999999999 0  0.03079999999999999 0.07729999999999999 0  0.02939999999999999 0.07729999999999999 0  0.02799999999999999 0.07729999999999999 0  0.02659999999999999 0.07729999999999999 0  0.02519999999999999 0.07729999999999999 0  0.02379999999999998 0.07729999999999999 0  0.02239999999999998 0.07729999999999999 0  0.02099999999999997 0.07729999999999999 0  0.01959999999999996 0.07729999999999999 0  0.01819999999999996 0.07729999999999999 0  0.01679999999999995 0.07729999999999999 0  0.01539999999999996 0.07729999999999999 0  0.01399999999999996 0.07729999999999999 0  0.01259999999999996 0.07729999999999999 0  0.01119999999999997 0.07729999999999999 0  0.009799999999999972 0.07729999999999999 0  0.008399999999999977 0.07729999999999999 0  0.006999999999999978 0.07729999999999999 0  0.005599999999999983 0.07729999999999999 0  0.004199999999999988 0.07729999999999999 0  0.00279999999999999 0.07729999999999999 0  0.001399999999999998 0.07729999999999999 0  0 0.07572244897959184 0  0 0.07414489795918368 0  0 0.07256734693877551 0  0 0.07098979591836735 0  0 0.06941224489795919 0  0 0.06783469387755103 0  0 0.06625714285714288 0  0 0.06467959183673472 0  0 0.06310204081632656 0  0 0.0615244897959184 0  0 0.05994693877551023 0  0 0.05836938775510207 0  0 0.05679183673469392 0  0 0.05521428571428574 0  0 0.05363673469387759 0  0 0.05205918367346941 0  0 0.05048163265306126 0  0 0.04890408163265308 0  0 0.04732653061224493 0  0 0.04574897959183676 0  0 0.0441714285714286 0  0 0.04259387755102043 0  0 0.04101632653061228 0  0 0.03943877551020411 0  0 0.03786122448979595 0  0 0.03628367346938779 0  0 0.03470612244897962 0  0 0.03312857142857146 0  0 0.03155102040816329 0  0 0.02997346938775513 0  0 0.02839591836734697 0  0 0.0268183673469388 0  0 0.02524081632653064 0  0 0.02366326530612247 0  0 0.02208571428571431 0  0 0.02050816326530614 0  0 0.01893061224489798 0  0 0.01735306122448981 0  0 0.01577551020408165 0  0 0.01419795918367349 0  0 0.01262040816326532 0  0 0.01104285714285716 0  0 0.009465306122448988 0  0 0.00788775510204083 0  0 0.006310204081632659 0  0 0.004732653061224501 0  0 0.003155102040816343 0  0 0.001577551020408172 0  0.001400000000000004 0.001577551020408172 0  0.001400000000000004 0.003155102040816329 0  0.001400000000000002 0.004732653061224501 0  0.001400000000000002 0.006310204081632645 0  0.001400000000000005 0.007887755102040823 0  0.001400000000000002 0.009465306122448981 0  0.001400000000000002 0.01104285714285717 0  0.001400000000000004 0.01262040816326531 0  0.0014 0.01419795918367349 0  0.001400000000000002 0.01577551020408166 0  0.001400000000000005 0.0173530612244898 0  0.001400000000000002 0.01893061224489797 0  0.001400000000000002 0.02050816326530613 0  0.001400000000000002 0.02208571428571431 0  0.001400000000000002 0.02366326530612247 0  0.001400000000000002 0.02524081632653063 0  0.001400000000000002 0.0268183673469388 0  0.001400000000000002 0.02839591836734696 0  0.001400000000000002 0.02997346938775513 0  0.001400000000000002 0.03155102040816328 0  0.001400000000000002 0.03312857142857147 0  0.001399999999999997 0.03470612244897962 0  0.001400000000000005 0.03628367346938778 0  0.001400000000000002 0.03786122448979594 0  0.001400000000000002 0.03943877551020411 0  0.001400000000000002 0.04101632653061228 0  0.001400000000000002 0.04259387755102043 0  0.001400000000000002 0.0441714285714286 0  0.0014 0.04574897959183676 0  0.001400000000000002 0.04732653061224492 0  0.001400000000000004 0.04890408163265308 0  0.001400000000000002 0.05048163265306126 0  0.001400000000000002 0.05205918367346941 0  0.0014 0.05363673469387758 0  0.001400000000000004 0.05521428571428574 0  0.001399999999999998 0.05679183673469391 0  0.001400000000000002 0.05836938775510207 0  0.0014 0.05994693877551023 0  0.001400000000000002 0.0615244897959184 0  0.001400000000000002 0.06310204081632656 0  0.001400000000000002 0.06467959183673472 0  0.0014 0.06625714285714286 0  0.001400000000000002 0.06783469387755102 0  0.001399999999999998 0.06941224489795919 0  0.001400000000000002 0.07098979591836735 0  0.0014 0.07256734693877552 0  0.001400000000000002 0.07414489795918368 0  0.001400000000000002 0.07572244897959184 0  0.002800000000000006 0.001577551020408165 0  0.002800000000000004 0.003155102040816343 0  0.002800000000000002 0.004732653061224487 0  0.002800000000000002 0.006310204081632652 0  0.002800000000000002 0.007887755102040813 0  0.0028 0.009465306122448981 0  0.002799999999999997 0.01104285714285715 0  0.0028 0.01262040816326532 0  0.0028 0.01419795918367348 0  0.0028 0.01577551020408165 0  0.002799999999999997 0.0173530612244898 0  0.0028 0.01893061224489797 0  0.002800000000000004 0.02050816326530613 0  0.0028 0.0220857142857143 0  0.0028 0.02366326530612247 0  0.002800000000000004 0.02524081632653064 0  0.0028 0.0268183673469388 0  0.0028 0.02839591836734696 0  0.002799999999999995 0.02997346938775512 0  0.002799999999999997 0.03155102040816328 0  0.002799999999999995 0.03312857142857146 0  0.0028 0.03470612244897962 0  0.002799999999999995 0.03628367346938778 0  0.002799999999999997 0.03786122448979594 0  0.002799999999999997 0.03943877551020411 0  0.002799999999999997 0.04101632653061228 0  0.002799999999999997 0.04259387755102043 0  0.002799999999999995 0.0441714285714286 0  0.002799999999999997 0.04574897959183676 0  0.002799999999999997 0.04732653061224493 0  0.002799999999999995 0.04890408163265308 0  0.002799999999999993 0.05048163265306124 0  0.002799999999999995 0.05205918367346941 0  0.002799999999999995 0.05363673469387757 0  0.002799999999999992 0.05521428571428574 0  0.002799999999999997 0.05679183673469391 0  0.002799999999999993 0.05836938775510207 0  0.002799999999999993 0.05994693877551022 0  0.002799999999999992 0.0615244897959184 0  0.002799999999999988 0.06310204081632655 0  0.002799999999999992 0.0646795918367347 0  0.002799999999999992 0.06625714285714286 0  0.00279999999999999 0.06783469387755103 0  0.00279999999999999 0.06941224489795919 0  0.002799999999999988 0.07098979591836735 0  0.00279999999999999 0.07256734693877552 0  0.002799999999999988 0.07414489795918368 0  0.00279999999999999 0.07572244897959184 0  0.004200000000000006 0.001577551020408172 0  0.004200000000000006 0.003155102040816329 0  0.004200000000000008 0.00473265306122448 0  0.004200000000000009 0.006310204081632652 0  0.004200000000000008 0.00788775510204082 0  0.004200000000000008 0.009465306122448978 0  0.004200000000000006 0.01104285714285716 0  0.004200000000000006 0.01262040816326532 0  0.004200000000000004 0.01419795918367349 0  0.004200000000000002 0.01577551020408165 0  0.004200000000000004 0.0173530612244898 0  0.004200000000000006 0.01893061224489797 0  0.004200000000000006 0.02050816326530613 0  0.004200000000000002 0.0220857142857143 0  0.004200000000000004 0.02366326530612247 0  0.004199999999999999 0.02524081632653062 0  0.004200000000000004 0.0268183673469388 0  0.004200000000000004 0.02839591836734696 0  0.004200000000000002 0.02997346938775512 0  0.004199999999999999 0.03155102040816328 0  0.004200000000000001 0.03312857142857145 0  0.004200000000000001 0.03470612244897962 0  0.004199999999999995 0.03628367346938778 0  0.004199999999999999 0.03786122448979594 0  0.004199999999999999 0.0394387755102041 0  0.004199999999999997 0.04101632653061227 0  0.004199999999999999 0.04259387755102043 0  0.004199999999999999 0.04417142857142859 0  0.004199999999999999 0.04574897959183676 0  0.004199999999999999 0.04732653061224492 0  0.004199999999999997 0.04890408163265308 0  0.004199999999999997 0.05048163265306124 0  0.004199999999999999 0.05205918367346941 0  0.004199999999999992 0.05363673469387757 0  0.0
[...]
<PointData  Scalars=" mean stress"> 
<DataArray  type="Float64"  Name=" mean stress"  format="ascii">4.4417247007925194e+04  4.2172113947211561e+04  2.2749996866710222e+04  2.2749993606015410e+04  2.4166931832991006e+04  1.7504256064473724e+04  1.5266185978981979e+04  1.3739295922662954e+04  1.2615086470236114e+04  1.1717753662254241e+04  1.0999574858597107e+04  1.0435119907812074e+04  1.0008228996930364e+04  9.7093668107292051e+03  9.5329184807191705e+03  9.4760917790556741e+03  9.5382408181588780e+03  9.7207071811908445e+03  1.0027169913816857e+04  1.0464618433357422e+04  1.1045178883651759e+04  1.1789469378081301e+04  1.2735317533494228e+04  1.3945267534727969e+04  1.5596456327290167e+04  1.8115239391089737e+04  2.1927724591491486e+04  2.8317772420075325e+04  2.1707527912343805e+04  2.0304183729509637e+04  1.9587376294833957e+04  1.9378284988746527e+04  1.9432385830791041e+04  1.9625605781424569e+04  1.9892086677361691e+04  2.0191243552824781e+04  2.0497986538533954e+04  2.0796550766599361e+04  2.1077243201325949e+04  2.1334480921118527e+04  2.1565513611892758e+04  2.1769548637324380e+04  2.1947126037759426e+04  2.2099661516444641e+04  2.2229109127026131e+04  2.2337713045581822e+04  2.2427827442165664e+04  2.2501789038988423e+04  2.2561830455363997e+04  2.2610024872632814e+04  2.2648254389502781e+04  2.2678195913639323e+04  2.2701319661031335e+04  2.2718896365400658e+04  2.2732010165411779e+04  2.2741574857393953e+04  2.2748351792177207e+04  2.2752968172076497e+04  2.2755934883280908e+04  2.2757663294828515e+04  2.2758480681641478e+04  2.2758644098837540e+04  2.2758352658828062e+04  2.2757758251795254e+04  2.2756974812732951e+04  2.2756086281901618e+04  2.2755153437974946e+04  2.2754219807643396e+04  2.2753316889334314e+04  2.2752468945749511e+04  2.2751697670508100e+04  2.2751027332311332e+04  2.2750488228044604e+04  2.2750128952781532e+04  2.2749964177350786e+04  2.2750032954585949e+04  2.2749912710767483e+04  2.2749649361902520e+04  2.2749256513389613e+04  2.2748789846569998e+04  2.2748296916502604e+04  2.2747818324286458e+04  2.2747386420720024e+04  2.2747026090871233e+04  2.2746755612244870e+04  2.2746587436719023e+04  2.2746528811487024e+04  2.2746582176905766e+04  2.2746745311590290e+04  2.2747011214821265e+04  2.2747367739324560e+04  2.2747797010572373e+04  2.2748274695166227e+04  2.2748769218445294e+04  2.2749241077040748e+04  2.2749642800297395e+04  2.2749920582702427e+04  2.2750024173868900e+04  2.2749968314209171e+04  2.2750123773459447e+04  2.2750503115570482e+04  2.2751052245612904e+04  2.2751730267236951e+04  2.2752507626810890e+04  2.2753361393290357e+04  2.2754270453096153e+04  2.2755210802940215e+04  2.2756150982737185e+04  2.2757047321644503e+04  2.2757838721472966e+04  2.2758440724911216e+04  2.2758738642026346e+04  2.2758579532115651e+04  2.2757762862481053e+04  2.2756029696413934e+04  2.2753050305940789e+04  2.2748410167165541e+04  2.2741594385166638e+04  2.2731970720014524e+04  2.2718771555699899e+04  2.2701075381043916e+04  2.2677788648758444e+04  2.2647629259717207e+04  2.2609113398852453e+04  2.2560548042080813e+04  2.2500032175431414e+04  2.2425470633748428e+04  2.2334605495401502e+04  2.2225071188502592e+04  2.2094480924391533e+04  2.1940553881571483e+04  2.1761294942972196e+04  2.1555242211054527e+04  2.1321802938616584e+04  2.1061707931565848e+04  2.0777631617837626e+04  2.0475057677559911e+04  2.0163546245383113e+04  1.9858639443325646e+04  1.9585178335529388e+04  1.9383457444644740e+04  1.9315349207314579e+04  1.9529126646358884e+04  2.0203681540957463e+04  2.2135467926306072e+04  3.1756818359167981e+04  2.7468115738839046e+04  2.5259160618297155e+04  2.2688176171827010e+04  2.1531618096157803e+04  2.0955444353339488e+04  2.0716364715171549e+04  2.0673221082963984e+04  2.0744541268176832e+04  2.0881930125517953e+04  2.1054238181276127e+04  2.1241199100678808e+04  2.1429563959714371e+04  2.1610820489475223e+04  2.1779738027907846e+04  2.1933386323346556e+04  2.2070447694002807e+04  2.2190720389981903e+04  2.2294753892083430e+04  2.2383579361092037e+04  2.2458510988858718e+04  2.2521001288975895e+04  2.2572537834304432e+04  2.2614571879035408e+04  2.2648471362835207e+04  2.2675492336891421e+04  2.2696764063094597e+04  2.2713284018050686e+04  2.2725919839066410e+04  2.2735415912818647e+04  2.2742402852105428e+04  2.2747408549085005e+04  2.2750869849603416e+04  2.2753144175610098e+04  2.2754520643246924e+04  2.2755230393554815e+04  2.2755455980419934e+04  2.2755339754694982e+04  2.2754991251410946e+04  2.2754493634562834e+04  2.2753909285544178e+04  2.2753284639562109e+04  2.2752654378523446e+04  2.2752045077214010e+04  2.2751478331192578e+04  2.2750973253738921e+04  2.2750548285916764e+04  2.2750218011522451e+04  2.2750010933793783e+04  2.2107665629532734e+04  2.3415816749488120e+04  2.2935300234891969e+04  2.2281779523129233e+04  2.1844578493348665e+04  2.1595716851079440e+04  2.1486089143505913e+04  2.1470617224158450e+04  2.1516203329352240e+04  2.1599327323415841e+04  2.1703407192308114e+04  2.1816888134221757e+04  2.1931849655983377e+04  2.2043016042119223e+04  2.2147040862465819e+04  2.2241980453804503e+04  2.2326900730309939e+04  2.2401580659335366e+04  2.2466287829888439e+04  2.2521609020275697e+04  2.2568323390849800e+04  2.2607308990402962e+04  2.2639475340973102e+04  2.2665716350437862e+04  2.2686878922865875e+04  2.2703743522299159e+04  2.2717013668803549e+04  2.2727311947133512e+04  2.2735180611848271e+04  2.2741085293420467e+04  2.2745420658695530e+04  2.2748517165040550e+04  2.2750648278804314e+04  2.2752037712898651e+04  2.2752866382482618e+04  2.2753278888420115e+04  2.2753389421208707e+04  2.2753287038437185e+04  2.2753040310665350e+04  2.2752701356918216e+04  2.2752309304321581e+04  2.2751893207163568e+04  2.2751474454482155e+04  2.2751068743541895e+04  2.2750687574656251e+04  2.2750341413146220e+04  2.2750045972837659e+04  2.2749845402643477e+04  1.8787631095646175e+04  2.0972568796483803e+04  2.1831846926227303e+04  2.2035673529416741e+04  2.2031718624536152e+04  2.1993700897989485e+04  2.1972874797945442e+04  2.1979516787753859e+04  2.2010372844385063e+04  2.2058873630344278e+04  2.2118508186808678e+04  2.2183843071292235e+04  2.2250705309949528e+04  2.2316073306796767e+04  2.2377885633317699e+04  2.2434843789648512e+04  2.2486235336815884e+04  2.2531784435948859e+04  2.2571529571872125e+04  2.2605725753945833e+04  2.2634767841625642e+04  2.2659131681504772e+04  2.2679330012841587e+04  2.2695880431666767e+04  2.2709283041649920e+04  2.2720005744728602e+04  2.2728475430150618e+04  2.2735073604079502e+04  2.2740135260546642e+04  2.2743950026256392e+04  2.2746764814994916e+04  2.2748787401876256e+04  2.2750190474199833e+04  2.2751115835928227e+04  2.2751678539171888e+04  2.2751970791353793e+04  2.2752065543730710e+04  2.2752019708517386e+04  2.2751876980666595e+04  2.2751670259277449e+04  2.2751423676758386e+04  2.2751154263467430e+04  2.2750873301520503e+04  2.2750587648732937e+04  2.2750301461800944e+04  2.2750020187031849e+04  2.2749763611209273e+04  2.2749581508244875e+04  1.6640189607299599e+04  1.8968170242737535e+04  2.0462544950335283e+04  2.1304909406718478e+04  2.1763926985979375e+04  2.2021483283327769e+04  2.2176913665984259e+04  2.2280044582909668e+04  2.2355434532994434e+04  2.2415112932798613e+04  2.2464994529169337e+04  2.2508011918263212e+04  2.2545652349195600e+04  2.2578714853148711e+04  2.2607683049295123e+04  2.2632906738620535e+04  2.2654687406790388e+04  2.2673315249855805e+04  2.2689081926162573e+04  2.2702281554249217e+04  2.2713206535370842e+04  2.2722141681259571e+04  2.2729358458805651e+04  2.2735110232250823e+04  2.2739628849862384e+04  2.2743122614996868e+04  2.2745775511392818e+04  2.2747747468858375e+04  2.2749175426953108e+04  2.2750174959977088e+04  2.2750842252018112e+04  2.2751256245698700e+04  2.2751480825740091e+04  2.2751566933976785e+04  2.2751554543492937e+04  2.2751474444802439e+04  2.2751349816334721e+04  2.2751197565311679e+04  2.2751029434980323e+04  2.2750852883148869e+04  2.2750671749762147e+04  2.2750486770532149e+04  2.2750296059775963e+04  2.2750095910176198e+04  2.2749882837831876e+04  2.2749657389385211e+04  2.2749436850041635e+04  2.2749260426822377e+04  1.5139341499843806e+04  1.7424146841967889e+04  1.9196931208320046e+04  2.0439594220340387e+04  2.1269446754400986e+04  2.1814708264916171e+04  2.2173005213295684e+04  2.2409554585762697e+04  2.2566081460473833e+04  2.2669209835783913e+04  2.2736189977727496e+04  2.2778451792159969e+04  2.2803741030566940e+04  2.2817407121412572e+04  2.2823195318281712e+04  2.2823748772540577e+04  2.2820937616898533e+04  2.2816081684516234e+04  2.2810105362597813e+04  2.2803647481672691e+04  2.2797140405782746e+04  2.2790867474112685e+04  2.2785004950259485e+04  2.2779652757164349e+04  2.2774857036864312e+04  2.2770626721959597e+04  2.2766945702497298e+04  2.2763781738553149e+04  2.2761092955936569e+04  2.2758832536825666e+04  2.2756952054871483e+04  2.2755403787820149e+04  2.2754142256721894e+04  2.2753125179647395e+04  2.2752313982623818e+04  2.2751673976122813e+04  2.2751174279004539e+04  2.2750787551397076e+04  2.2750489583587878e+04  2.2750258782454417e+04  2.2750075604172573e+04  2.2749922019200767e+04  2.2749781189623565e+04  2.2749637622148333e+04  2.2749478732596188e+04  2.2749297372906934e+04  2.2749100286931956e+04  2.2748906097253901e+04  1.4042876734766234e+04  1.6253852189341695e+04  1.8138548398691255e+04  1.9614133466315878e+04  2.0707844600129720e+04  2.1491440001349274e+04  2.2040300941650101e+04  2.2417337314220113e+04  2.2670479131087362e+04  2.2834950894675560e+04  2.2936361300922039e+04  2.2993322921106814e+04  2.3019397424035349e+04  2.3024478550023407e+04  2.3015769890840733e+04  2.2998484332748900e+04  2.2976353274660989e+04  2.2952003699070225e+04  2.2927241045653038e+04  2.2903263143387525e+04  2.2880822571163135e+04  2.2860349848453778e+04  2.2842046610029796e+04  2.2825955690242696e+04  2.2812013437621954e+04  2.2800088379863864e+04  2.2790009438440280e+04  2.2781586176919700e+04  2.2774623008974799e+04  2.2768928856506584e+04  2.2764323408757358e+04  2.2760640868913386e+04  2.2757731868829153e+04  2.2755464072016646e+04  2.2753721859658661e+04  2.2752405396377613e+04  2.2751429296011065e+04  2.2750721048986325e+04  2.2750219330037209e+04  2.2749872278621689e+04  2.2749635838240905e+04  2.2749472254579738e+04  2.2749348914497084e+04  2.2749237673008975e+04  2.2749115290688918e+04  2.2748964098298609e+04  2.2748775525525700e+04  2.2748543956099147e+04  1.3216220185245664e+04  1.5367526422949655e+04  1.7293455263168675e+04  1.8900571322498905e+04  2.0171260994222612e+04  2.1135984166661707e+04  2.1845043004711559e+04  2.2350919847037698e+04  2.2700291425093255e+04  2.2931711007829417e+04  2.3075838407857067e+04  2.3156547297112891e+04  2.3192173359058619e+04  2.3196640884685254e+04  2.3180403379281877e+04  2.3151205315433584e+04  2.3114691532970101e+04  2.3074892023757089e+04  2.3034606001928416e+04  2.2995704784527381e+04  2.2959369277630969e+04  2.2926274894561673e+04  2.2896734372509585e+04  2.2870807042250086e+04  2.2848381530099308e+04  2.2829237560810398e+04  2.2813091439331245e+04  2.2799628885540958e+04  2.2788528152478684e+04  2.2779475751505503e+04  2.2772176615590120e+04  2.2766360135167550e+04  2.2761783182596650e+04  2.2758230986808307e+04  2.2755516516951015e+04  2.2753478873094904e+04  2.2751981055469427e+04  2.2750907385515053e+04  2.2750160778310215e+04  2.2749660014019391e+04  2.2749337128118146e+04  2.2749135022502800e+04  2.2749005435356670e+04  2.2748907307077239e+04  2.2748805814491367e+04  2.2748671112791562e+04  2.2748477935410701e+04  2.2748197607082522e+04  1.2592273296852311e+04  1.4702000348924581e+04  1.6640925414716621e+04  1.8321731413132529e+04  1.9707316880456670e+04  2.0802282185908964e+04  2.1636346785467133e+04  2.2249955274845597e+04  2.2684955935073420e+04  2.2979761229757918e+04  2.3167392115848917e+04  2.3275106073588391e+04  2.3324779725893102e+04  2.3333591489553281e+04  2.3314774761893499e+04  2.3278335292560208e+04  2.3231689012834140e+04  2.3180207408386264e+04  2.3127672069294480e+04  2.3076646498184338e+04  2.3028775652592270e+04  2.2985024075365171e+04  2.2945862857518634e+04  2.2911414623265719e+04  2.2881564517638159e+04  2.2856043970599134e+04  2.2834492889696940e+04  2.2816504933786739e+04  2.2801659655293042e+04  2.2789544564666103e+04  2.2779769557759002e+04  2.2771975640382472e+04  2.2765839469794166e+04  2.2761074895860358e+04  2.2757432412767401e+04  2.2754697214120584e+04  2.2752686371220014e+04  2.2751245518323412e+04  2.2750245324265026e+04  2.2749577950828076e+04  2.2749153643825040e+04  2.2748897554418898e+04  2.2748746872037183e+04  2.2748648219685852e+04  2.2748555329175368e+04  2.2748426129517004e+04  2.2748219604959802e+04  2.2747887473403411e+04  1.2133467605521560e+04  1.4216461529191616e+04  1.6157925098568539e+04  1.7879868671493125e+04  1.9338031131854310e+04  2.0522255337402556e+04  2.1447717857229029e+04  2.2144490829277544e+04  2.2648826517796479e+04  2.2997327471335597e+04  2.3223634473125498e+04  2.3356907520289365e+04  2.3421416794542427e+04  2.3436750317906579e+04  2.3418319421079828e+04  2.3377972771718061e+04  2.3324614224709032e+04  2.3264771683151586e+04  2.3203094473204255e+04  2.3142773659362432e+04  2.3085888597845762e+04  2.3033687204894228e+04  2.2986808939264291e+04  2.2945459579589704e+04  2.2909546230620355e+04  2.2878780027685782e+04  2.2852752954633623e+04  2.2830994168352066e+04  2.2813010291466711e+04  2.2798313316984168e+04  2.2786439067959753e+04  2.2776958565183719e+04  2.2769484165302125e+04  2.2763671928139102e+04  2.2759221342945770e+04  2.2755873277402152e+04  2.2753406800311535e+04  2.2751635360107211e+04  2.2750402668988187e+04  2.2749578538537709e+04  2.2749054832343736e+04  2.2748741626228817e+04  2.2748563609159428e+04  2.2748456619383229e+04  2.2748364185696901e+04  2.2748233383252602e+04  2.2748009900999354e+04  2.2747630141839152e+04  1.1818281883582700e+04  1.3885330634974074e+04  1.5826073177243121e+04  1.7570424243679550e+04  1.9072257277241577e+04  2.0313645020489734e+04  2.1300580959869603e+04  2.2055627947493587e+04  2.2610307367150355e+04  2.2999094077197336e+04  2.3255397397127457e+04  2.3409289234831784e+04  2.3486500723073801e+04  2.3508233565947339e+04  2.3491435148148052e+04  2.3449298963105575e+04  2.3391842084112013e+04  2.3326475206376730e+04  2.3258522115874362e+04  2.3191670577398723e+04  2.3128350974738169e+04  2.3070046601816612e+04  2.3017543011841779e+04  2.2971125019935800e+04  2.2930729889981256e+04  2.2896064551069991e+04  2.2866693745296547e+04  2.2842105005852434e+04  2.2821755405396882e+04  2.2805104147540384e+04  2.2791634316213869e+04  2.2780866449911158e+04  2.2772366062972695e+04  2.2765746783904218e+04  2.2760670409339513e+04  2.2756844870292440e+04  2.2754020864202714e+04  2.2751987711893715e+04  2.2750568844167872e+04  2.2749617198755008e+04  2.2749010707122336e+04  2.2748647956030651e+04  2.2748444023781587e+04  2.2748326357033351e+04  2.2748230480035225e+04  2.2748095038886579e+04  2.2747855757072433e+04  2.2747438236825892e+04  1.1634460913899982e+04  1.3693273030327789e+04  1.5632763850283507e+04  1.7387986030114254e+04  1.8912781513568785e+04  2.0185657186967925e+04  2.1207677160462183e+04  2.1996969864318980e+04  2.2581988176120034e+04  2.2995611181920416e+04  2.3270825479421197e+04  2.3438047478315038e+04  2.3523763109682528e+04  2.3550082842848227e+04  2.3534857450561056e+04  2.3492093074950313e+04  2.3432492499827709e+04  2.3364018391738700e+04  2.3292421726279248e+04  2.3221708810756252e+04  2.3154538233791667e+04  2.3092548949318265e+04  2.3036625607029229e+04  2.2987109231683058e+04  2.2943961724123405e+04  2.2906892191411909e+04  2.2875452267030236e+04  2.2849106608929393e+04  2.2827283798131084e+04  2.2809411969551100e+04  2.2794942717325910e+04  2.2783366135702981e+04  2.2774219279743385e+04  2.2767089848396965e+04  2.2761616495278529e+04  2.2757486848167329e+04  2.2754434056060596e+04  2.2752232472148993e+04  2.2750692912444436e+04  2.2749657792842267e+04  2.2748996332856444e+04  2.2748599907910582e+04  2.2748377531253842e+04  2.2748251322495409e+04  2.2748151711642291e+04  2.2748012044193059e+04  2.2747761884298736e+04  2.2747320542174322e+04  1.1575746242889363e+04  1.3632179508112244e+04  1.5570773842821769e+04  1.7328683906103703e+04  1.8860044888811371e+04  2.0142490079431034e+04  2.1175588898295602e+04  2.1976010579522121e+04  2.2571120633803315e+04  2.2993174701237996e+04  2.3274934037577590e+04  2.3446867220609511e+04  2.3535672013768999e+04  2.3563740667686379e+04  2.3549216927306326e+04  2.3506377643113789e+04  2.3446158304387958e+04  2.3376711597101472e+04  2.3303937353994042e+04  2.3231954153733477e+04  2.3163501989569886e+04  2.3100276150766102e+04  2.3043197887047147e+04  2.2992629725685627e+04  2.2948543853922416e+04  2.2910651604502942e+04  2.2878501278862201e+04  2.2851550585621208e+04  2.2829219008785094e+04  2.2810924523303627e+04  2.2796108276948587e+04  2.2784250165839967e+04  2.2774877643568165e+04  2.2767569612458970e+04  2.2761956839487182e+04  2.2757720007442185e+04  2.2754586243209880e+04  2.2752324748957748e+04  2.2750741988463527e+04  2.2749676739387742e+04  2.2748995203036979e+04  2.2748586253427849e+04  2.2748356799492794e+04  2.2748227120547563e+04  2.2748125893921231e+04  2.2747984692597624e+04  2.2747730960731828e+04  2.2747282185206153e+04  1.1640384260188690e+04  1.3699607719117945e+04  1.5637733473701974e+04  1.7391031806397859e+04  1.8913858622823558e+04  2.0185191629943820e+04  2.1206230027043715e+04  2.1995071222077564e+04  2.2580041434350460e+04  2.2993874971550671e+04  2.3269431647193884e+04  2.3437035796180407e+04  2.3523115337086318e+04  2.3549749657844688e+04  2.3534777187659129e+04  2.3492203409270431e+04  2.3432736865238967e+04  2.3364348906017436e+04  2.3292799950643879e+04  2.3222105291981788e+04  2.3154931441182278e+04  2.3092923983334382e+04  2.3036972897452259e+04  2.2987423340621641e+04  2.2944240306565585e+04  2.2907135128749491e+04  2.2875660968135067e+04  2.2849283462643012e+04  2.2827431756426831e+04  2.2809534239681096e+04  2.2795042542335799e+04  2.2783446644824384e+04  2.2774283392691868e+04  2.2767140220225818e+04  2.2761655490887995e+04  2.2757516537772117e+04  2.2754456224902387e+04  2.2752248639432724e+04  2.2750704356014463e+04  2.2749665577708016e+04  2.2749001342667147e+04  2.2748602881259445e+04  2.2748379100841245e+04  2.2748252070851195e+04  2.2748152201735364e+04  2.2748012955505801e+04  2.2747763768034507e+04  2.2747324781480380e+04  1.1830710929712039e+04  1.3898292863038678e+04  1.5835875744923553e+04  1.7576091975041876e+04  1.9073885725263026e+04  2.0312235227070796e+04  2.1297337609161397e+04  2.2051634316566786e+04  2.2606347356083777e+04  2.2995644633444874e+04  2.3252684123673389e+04  2.3407362072553558e+04  2.3485303179533068e+04  2.3507655503356153e+04  2.3491347865743192e+04  2.3449576411864393e+04  2.3392372031997100e+04  2.3327163932177511e+04  2.3259295201503952e+04  2.3192471565311687e+04  2.3129139018688882e+04  2.3070793787057177e+04  2.3018231729312945e+04  2.2971745591384686e+04  2.2931278528324256e+04  2.2896541674151002e+04  2.2867102624894120e+04  2.2842450715731062e+04  2.2822044025131338e+04  2.2805342178191630e+04  2.2791828266825662e+04  2.2781022558392593e+04  2.2772490120183746e+04  2.2765844035010905e+04  2.2760745511348403e+04  2.2756901889058037e+04  2.2754063297953107e+04  2.2752018531658312e+04  2.2750590544384228e+04  2.2749631854397565e+04  2.2749020035596601e+04  2.2748653387805749e+04  2.2748446778209578e+04  2.2748327552847360e+04  2.2748231196550470e+04  2.2748096601697751e+04  2.2747859244187679e+04  2.2747446483967997e+04  1.2153647082743842e+04  1.4236593425537123e+04  1.6172125223483563e+04  1.7887125920989823e+04  1.9339036622442120e+04  2.0518925021014831e+04  2.1442022731633173e+04  2.2138063831424042e+04  2.2642770258440272e+04  2.2992251438542095e+04  2.3219778032371683e+04  2.3