<?xml version="1.0"?>
<VTKFile type="UnstructuredGrid"  version="0.1"  >
<UnstructuredGrid>
<Piece  NumberOfPoints="1250" NumberOfCells="2352">
<Points>
<DataArray  type="Float64"  NumberOfComponents="3"  format="ascii">0 0 0  0.0336 0 0  0.0336 0.07729999999999999 0  0 0.07729999999999999 0  0.001400000000000002 0 0  0.002800000000000005 0 0  0.004200000000000008 0 0  0.005600000000000009 0 0  0.007000000000000011 0 0  0.008400000000000013 0 0  0.009800000000000019 0 0  0.01120000000000002 0 0  0.01260000000000003 0 0  0.01400000000000003 0 0  0.01540000000000004 0 0  0.01680000000000005 0 0  0.01820000000000004 0 0  0.01960000000000004 0 0  0.02100000000000004 0 0  0.02240000000000003 0 0  0.02380000000000003 0 0  0.02520000000000002 0 0  0.02660000000000002 0 0  0.02800000000000001 0 0  0.02940000000000001 0 0  0.03080000000000001 0 0  0.0322 0 0  0.0336 0.001577551020408161 0  0.0336 0.003155102040816321 0  0.0336 0.004732653061224482 0  0.0336 0.006310204081632642 0  0.0336 0.007887755102040803 0  0.0336 0.009465306122448964 0  0.0336 0.01104285714285712 0  0.0336 0.01262040816326528 0  0.0336 0.01419795918367344 0  0.0336 0.0157755102040816 0  0.0336 0.01735306122448976 0  0.0336 0.01893061224489792 0  0.0336 0.02050816326530608 0  0.0336 0.02208571428571425 0  0.0336 0.02366326530612241 0  0.0336 0.02524081632653058 0  0.0336 0.02681836734693874 0  0.0336 0.02839591836734691 0  0.0336 0.02997346938775507 0  0.0336 0.03155102040816323 0  0.0336 0.0331285714285714 0  0.0336 0.03470612244897956 0  0.0336 0.03628367346938772 0  0.0336 0.03786122448979588 0  0.0336 0.03943877551020405 0  0.0336 0.04101632653061221 0  0.0336 0.04259387755102037 0  0.0336 0.04417142857142854 0  0.0336 0.04574897959183671 0  0.0336 0.04732653061224486 0  0.0336 0.04890408163265302 0  0.0336 0.05048163265306119 0  0.0336 0.05205918367346936 0  0.0336 0.05363673469387752 0  0.0336 0.05521428571428568 0  0.0336 0.05679183673469385 0  0.0336 0.05836938775510202 0  0.0336 0.05994693877551018 0  0.0336 0.06152448979591834 0  0.0336 0.0631020408163265 0  0.0336 0.06467959183673468 0  0.0336 0.06625714285714283 0  0.0336 0.06783469387755101 0  0.0336 0.06941224489795916 0  0.0336 0.07098979591836733 0  0.0336 0.07256734693877549 0  0.0336 0.07414489795918365 0  0.0336 0.07572244897959182 0  0.03219999999999999 0.07729999999999999 0  0.03079999999999999 0.07729999999999999 0  0.02939999999999999 0.07729999999999999 0  0.02799999999999999 0.07729999999999999 0  0.02659999999999999 0.07729999999999999 0  0.02519999999999999 0.07729999999999999 0  0.02379999999999998 0.07729999999999999 0  0.02239999999999998 0.07729999999999999 0  0.02099999999999997 0.07729999999999999 0  0.01959999999999996 0.07729999999999999 0  0.01819999999999996 0.07729999999999999 0  0.01679999999999995 0.07729999999999999 0  0.01539999999999996 0.07729999999999999 0  0.01399999999999996 0.07729999999999999 0  0.01259999999999996 0.07729999999999999 0  0.01119999999999997 0.07729999999999999 0  0.009799999999999972 0.07729999999999999 0  0.008399999999999977 0.07729999999999999 0  0.006999999999999978 0.07729999999999999 0  0.005599999999999983 0.07729999999999999 0  0.004199999999999988 0.07729999999999999 0  0.00279999999999999 0.07729999999999999 0  0.001399999999999998 0.07729999999999999 0  0 0.07572244897959184 0  0 0.07414489795918368 0  0 0.07256734693877551 0  0 0.07098979591836735 0  0 0.06941224489795919 0  0 0.06783469387755103 0  0 0.06625714285714288 0  0 0.06467959183673472 0  0 0.06310204081632656 0  0 0.0615244897959184 0  0 0.05994693877551023 0  0 0.05836938775510207 0  0 0.05679183673469392 0  0 0.05521428571428574 0  0 0.05363673469387759 0  0 0.05205918367346941 0  0 0.05048163265306126 0  0 0.04890408163265308 0  0 0.04732653061224493 0  0 0.04574897959183676 0  0 0.0441714285714286 0  0 0.04259387755102043 0  0 0.04101632653061228 0  0 0.03943877551020411 0  0 0.03786122448979595 0  0 0.03628367346938779 0  0 0.03470612244897962 0  0 0.03312857142857146 0  0 0.03155102040816329 0  0 0.02997346938775513 0  0 0.02839591836734697 0  0 0.0268183673469388 0  0 0.02524081632653064 0  0 0.02366326530612247 0  0 0.02208571428571431 0  0 0.02050816326530614 0  0 0.01893061224489798 0  0 0.01735306122448981 0  0 0.01577551020408165 0  0 0.01419795918367349 0  0 0.01262040816326532 0  0 0.01104285714285716 0  0 0.009465306122448988 0  0 0.00788775510204083 0  0 0.006310204081632659 0  0 0.004732653061224501 0  0 0.003155102040816343 0  0 0.001577551020408172 0  0.001400000000000004 0.001577551020408172 0  0.001400000000000004 0.003155102040816329 0  0.001400000000000002 0.004732653061224501 0  0.001400000000000002 0.006310204081632645 0  0.001400000000000005 0.007887755102040823 0  0.001400000000000002 0.009465306122448981 0  0.001400000000000002 0.01104285714285717 0  0.001400000000000004 0.01262040816326531 0  0.0014 0.01419795918367349 0  0.001400000000000002 0.01577551020408166 0  0.001400000000000005 0.0173530612244898 0  0.001400000000000002 0.01893061224489797 0  0.001400000000000002 0.02050816326530613 0  0.001400000000000002 0.02208571428571431 0  0.001400000000000002 0.02366326530612247 0  0.001400000000000002 0.02524081632653063 0  0.001400000000000002 0.0268183673469388 0  0.001400000000000002 0.02839591836734696 0  0.001400000000000002 0.02997346938775513 0  0.001400000000000002 0.03155102040816328 0  0.001400000000000002 0.03312857142857147 0  0.001399999999999997 0.03470612244897962 0  0.001400000000000005 0.03628367346938778 0  0.001400000000000002 0.03786122448979594 0  0.001400000000000002 0.03943877551020411 0  0.001400000000000002 0.04101632653061228 0  0.001400000000000002 0.04259387755102043 0  0.001400000000000002 0.0441714285714286 0  0.0014 0.04574897959183676 0  0.001400000000000002 0.04732653061224492 0  0.001400000000000004 0.04890408163265308 0  0.001400000000000002 0.05048163265306126 0  0.001400000000000002 0.05205918367346941 0  0.0014 0.05363673469387758 0  0.001400000000000004 0.05521428571428574 0  0.001399999999999998 0.05679183673469391 0  0.001400000000000002 0.05836938775510207 0  0.0014 0.05994693877551023 0  0.001400000000000002 0.0615244897959184 0  0.001400000000000002 0.06310204081632656 0  0.001400000000000002 0.06467959183673472 0  0.0014 0.06625714285714286 0  0.001400000000000002 0.06783469387755102 0  0.001399999999999998 0.06941224489795919 0  0.001400000000000002 0.07098979591836735 0  0.0014 0.07256734693877552 0  0.001400000000000002 0.07414489795918368 0  0.001400000000000002 0.07572244897959184 0  0.002800000000000006 0.001577551020408165 0  0.002800000000000004 0.003155102040816343 0  0.002800000000000002 0.004732653061224487 0  0.002800000000000002 0.006310204081632652 0  0.002800000000000002 0.007887755102040813 0  0.0028 0.009465306122448981 0  0.002799999999999997 0.01104285714285715 0  0.0028 0.01262040816326532 0  0.0028 0.01419795918367348 0  0.0028 0.01577551020408165 0  0.002799999999999997 0.0173530612244898 0  0.0028 0.01893061224489797 0  0.002800000000000004 0.02050816326530613 0  0.0028 0.0220857142857143 0  0.0028 0.02366326530612247 0  0.002800000000000004 0.02524081632653064 0  0.0028 0.0268183673469388 0  0.0028 0.02839591836734696 0  0.002799999999999995 0.02997346938775512 0  0.002799999999999997 0.03155102040816328 0  0.002799999999999995 0.03312857142857146 0  0.0028 0.03470612244897962 0  0.002799999999999995 0.03628367346938778 0  0.002799999999999997 0.03786122448979594 0  0.002799999999999997 0.03943877551020411 0  0.002799999999999997 0.04101632653061228 0  0.002799999999999997 0.04259387755102043 0  0.002799999999999995 0.0441714285714286 0  0.002799999999999997 0.04574897959183676 0  0.002799999999999997 0.04732653061224493 0  0.002799999999999995 0.04890408163265308 0  0.002799999999999993 0.05048163265306124 0  0.002799999999999995 0.05205918367346941 0  0.002799999999999995 0.05363673469387757 0  0.002799999999999992 0.05521428571428574 0  0.002799999999999997 0.05679183673469391 0  0.002799999999999993 0.05836938775510207 0  0.002799999999999993 0.05994693877551022 0  0.002799999999999992 0.0615244897959184 0  0.002799999999999988 0.06310204081632655 0  0.002799999999999992 0.0646795918367347 0  0.002799999999999992 0.06625714285714286 0  0.00279999999999999 0.06783469387755103 0  0.00279999999999999 0.06941224489795919 0  0.002799999999999988 0.07098979591836735 0  0.00279999999999999 0.07256734693877552 0  0.002799999999999988 0.07414489795918368 0  0.00279999999999999 0.07572244897959184 0  0.004200000000000006 0.001577551020408172 0  0.004200000000000006 0.003155102040816329 0  0.004200000000000008 0.00473265306122448 0  0.004200000000000009 0.006310204081632652 0  0.004200000000000008 0.00788775510204082 0  0.004200000000000008 0.009465306122448978 0  0.004200000000000006 0.01104285714285716 0  0.004200000000000006 0.01262040816326532 0  0.004200000000000004 0.01419795918367349 0  0.004200000000000002 0.01577551020408165 0  0.004200000000000004 0.0173530612244898 0  0.004200000000000006 0.01893061224489797 0  0.004200000000000006 0.02050816326530613 0  0.004200000000000002 0.0220857142857143 0  0.004200000000000004 0.02366326530612247 0  0.004199999999999999 0.02524081632653062 0  0.004200000000000004 0.0268183673469388 0  0.004200000000000004 0.02839591836734696 0  0.004200000000000002 0.02997346938775512 0  0.004199999999999999 0.03155102040816328 0  0.004200000000000001 0.03312857142857145 0  0.004200000000000001 0.03470612244897962 0  0.004199999999999995 0.03628367346938778 0  0.004199999999999999 0.03786122448979594 0  0.004199999999999999 0.0394387755102041 0  0.004199999999999997 0.04101632653061227 0  0.004199999999999999 0.04259387755102043 0  0.004199999999999999 0.04417142857142859 0  0.004199999999999999 0.04574897959183676 0  0.004199999999999999 0.04732653061224492 0  0.004199999999999997 0.04890408163265308 0  0.004199999999999997 0.05048163265306124 0  0.004199999999999999 0.05205918367346941 0  0.004199999999999992 0.05363673469387757 0  0.0
[...]
<PointData  Scalars=" mean stress"> 
<DataArray  type="Float64"  Name=" mean stress"  format="ascii">5.3691177701878514e+03  5.0977280595537140e+03  2.7499996212505844e+03  2.7499992271007113e+03  2.9212774743171176e+03  2.1158990847163009e+03  1.8453631403162565e+03  1.6607940126293829e+03  1.5249005623360783e+03  1.4164317613712576e+03  1.3296189389511760e+03  1.2613881207244524e+03  1.2097859227057879e+03  1.1736597243737917e+03  1.1523308053616256e+03  1.1454616436220895e+03  1.1529741648323773e+03  1.1750305383857265e+03  1.2120754840877760e+03  1.2649538765597363e+03  1.3351315134085157e+03  1.4251006940538680e+03  1.5394339875653520e+03  1.6856916800222004e+03  1.8852859296726094e+03  2.1897542121099759e+03  2.6506040714992764e+03  3.4230274353942373e+03  2.6239868905035546e+03  2.4543518793916915e+03  2.3677048268484700e+03  2.3424300535851694e+03  2.3489697158102922e+03  2.3723259735792089e+03  2.4045379500111103e+03  2.4406997701220384e+03  2.4777785925703720e+03  2.5138687739848679e+03  2.5477986287320382e+03  2.5788932981574708e+03  2.6068203267125878e+03  2.6314839012153157e+03  2.6529493012679059e+03  2.6713876558342313e+03  2.6870351692011636e+03  2.7001631154002425e+03  2.7110560644378284e+03  2.7199964772405970e+03  2.7272542308683983e+03  2.7330799296590703e+03  2.7377010800499811e+03  2.7413203851653093e+03  2.7441155634215261e+03  2.7462402199936669e+03  2.7478254046103452e+03  2.7489815761685982e+03  2.7498007660875242e+03  2.7503587900312464e+03  2.7507174034736263e+03  2.7509263323420064e+03  2.7510251373413785e+03  2.7510448910682862e+03  2.7510096620561926e+03  2.7509378106565955e+03  2.7508431092314122e+03  2.7507357044056644e+03  2.7506229430519652e+03  2.7505100866380744e+03  2.7504009426667840e+03  2.7502984439916872e+03  2.7502052129185895e+03  2.7501241830266486e+03  2.7500590165768508e+03  2.7500155876988574e+03  2.7499956697896782e+03  2.7500039835213697e+03  2.7499894485544182e+03  2.7499576151750812e+03  2.7499101279921042e+03  2.7498537177172147e+03  2.7497941327640715e+03  2.7497362809576989e+03  2.7496840728342772e+03  2.7496405164789621e+03  2.7496078212603516e+03  2.7495874923504748e+03  2.7495804057840933e+03  2.7495868565490173e+03  2.7496065761262466e+03  2.7496387182750964e+03  2.7496818146436372e+03  2.7497337045746576e+03  2.7497914466683128e+03  2.7498512242075440e+03  2.7499082620600302e+03  2.7499568220139709e+03  2.7499904001067916e+03  2.7500029221159302e+03  2.7499961698494071e+03  2.7500149616270674e+03  2.7500608161677415e+03  2.7501271945246826e+03  2.7502091531823894e+03  2.7503031197243808e+03  2.7504063222657824e+03  2.7505162086159789e+03  2.7506298772784271e+03  2.7507435253857193e+03  2.7508518740448540e+03  2.7509475377603267e+03  2.7510203074067604e+03  2.7510563193656712e+03  2.7510370862995369e+03  2.7509383679920861e+03  2.7507288644014939e+03  2.7503687183004163e+03  2.7498078224043916e+03  2.7489839366682509e+03  2.7478206364850776e+03  2.7462251331063703e+03  2.7440860350709995e+03  2.7412711553441754e+03  2.7376255149106514e+03  2.7329697515092603e+03  2.7270992138776051e+03  2.7197841091177625e+03  2.7107711755077271e+03  2.6997874774658221e+03  2.6865470667417239e+03  2.6707614304205972e+03  2.6521548648049570e+03  2.6304862018973763e+03  2.6055787288083820e+03  2.5773607947774285e+03  2.5459207389800631e+03  2.5115818439139816e+03  2.4750069720122960e+03  2.4373517439469115e+03  2.4004948777641448e+03  2.3674391394591125e+03  2.3430552955060020e+03  2.3348224316529113e+03  2.3606636605483604e+03  2.4422032631921461e+03  2.6757159031792808e+03  3.8387362851733978e+03  3.3203216827162187e+03  3.0533051296836934e+03  2.7425267900005474e+03  2.6027230665680181e+03  2.5330756910625255e+03  2.5041759545807163e+03  2.4989607902479293e+03  2.5075819115374043e+03  2.5241893558314059e+03  2.5450178021318543e+03  2.5676174737079973e+03  2.5903868522727616e+03  2.6122969822438758e+03  2.6327155857906696e+03  2.6512884566679231e+03  2.6678563146593006e+03  2.6823947724150858e+03  2.6949702506910785e+03  2.7057073952965411e+03  2.7147650645870203e+03  2.7223188371286747e+03  2.7285485294211312e+03  2.7336295677952567e+03  2.7377273075951366e+03  2.7409935791845010e+03  2.7435648867474492e+03  2.7455618043794716e+03  2.7470892113155246e+03  2.7482370883625108e+03  2.7490816634410940e+03  2.7496867476913999e+03  2.7501051466551789e+03  2.7503800651834504e+03  2.7505464513814054e+03  2.7506322453745920e+03  2.7506595141165899e+03  2.7506454648531162e+03  2.7506033380825284e+03  2.7505431865954315e+03  2.7504725509997165e+03  2.7503970443426288e+03  2.7503208589423325e+03  2.7502472071356597e+03  2.7501786993749165e+03  2.7501176460563065e+03  2.7500662763195769e+03  2.7500263530411753e+03  2.7500013216673879e+03  2.6723551859870181e+03  2.8304833433442068e+03  2.7723989294919411e+03  2.6934019203778034e+03  2.6405534442504654e+03  2.6104712677124603e+03  2.5972195667970118e+03  2.5953493347879466e+03  2.6008597431080834e+03  2.6109076984345024e+03  2.6234887814873955e+03  2.6372062579824733e+03  2.6511027056679718e+03  2.6645404006953431e+03  2.6771148295284975e+03  2.6885910438661640e+03  2.6988561322349483e+03  2.7078833764028523e+03  2.7157051222939053e+03  2.7223922991539530e+03  2.7280390912013313e+03  2.7327516362023098e+03  2.7366398763811230e+03  2.7398118665361612e+03  2.7423699796868991e+03  2.7444085576403622e+03  2.7460126412837130e+03  2.7472574881148425e+03  2.7482086453880383e+03  2.7489223981055911e+03  2.7494464532487746e+03  2.7498207562135203e+03  2.7500783633717660e+03  2.7502463169436428e+03  2.7503464857944759e+03  2.7503963491496024e+03  2.7504097102558935e+03  2.7503973343165144e+03  2.7503675100803362e+03  2.7503265376494260e+03  2.7502791466761951e+03  2.7502288492174689e+03  2.7501782307615213e+03  2.7501291887797825e+03  2.7500831134199357e+03  2.7500412697209076e+03  2.7500055571561807e+03  2.7499813124074713e+03  2.2710323302425891e+03  2.5351456786954245e+03  2.6390144636094624e+03  2.6636528442147687e+03  2.6631747787896611e+03  2.6585792294268913e+03  2.6560617887622370e+03  2.6568646666512027e+03  2.6605945196505759e+03  2.6664572520192492e+03  2.6736658247787595e+03  2.6815634481778070e+03  2.6896456968067646e+03  2.6975473227992943e+03  2.7050191424886384e+03  2.7119041943528255e+03  2.7181163593950419e+03  2.7236222944550886e+03  2.7284266515447180e+03  2.7325602559712070e+03  2.7360708379984303e+03  2.7390159175442886e+03  2.7414574740795329e+03  2.7434580741573059e+03  2.7450781698696087e+03  2.7463743207911116e+03  2.7473981289190965e+03  2.7481957103830650e+03  2.7488075589670157e+03  2.7492686844923651e+03  2.7496089336806058e+03  2.7498534222046273e+03  2.7500230243537012e+03  2.7501348812659398e+03  2.7502029003393050e+03  2.7502382275261402e+03  2.7502496811102906e+03  2.7502441405899203e+03  2.7502268877727706e+03  2.7502018994729947e+03  2.7501720927949418e+03  2.7501395263531731e+03  2.7501055639199849e+03  2.7500710344621830e+03  2.7500364404374677e+03  2.7500024401905762e+03  2.7499714255306772e+03  2.7499494130845601e+03  2.0114514909919806e+03  2.2928557436272713e+03  2.4734944445456358e+03  2.5753187194930401e+03  2.6308043609421961e+03  2.6619375397425456e+03  2.6807258277559913e+03  2.6931922023293646e+03  2.7023052732188066e+03  2.7095191457225283e+03  2.7155487892399360e+03  2.7207486934161184e+03  2.7252986356167494e+03  2.7292952020286707e+03  2.7327968521122907e+03  2.7358458695032987e+03  2.7384786975238603e+03  2.7407304148174876e+03  2.7426362767886280e+03  2.7442318362276742e+03  2.7455524383412831e+03  2.7466325109213112e+03  2.7475048686466112e+03  2.7482001379641597e+03  2.7487463444886530e+03  2.7491686677467210e+03  2.7494893475308145e+03  2.7497277160157150e+03  2.7499003263347940e+03  2.7500211490080487e+03  2.7501018106833453e+03  2.7501518538755731e+03  2.7501790009134666e+03  2.7501894096014935e+03  2.7501879118506636e+03  2.7501782295914390e+03  2.7501631646118003e+03  2.7501447606419770e+03  2.7501244371954203e+03  2.7501030957650828e+03  2.7500812005206371e+03  2.7500588403939460e+03  2.7500357874453639e+03  2.7500115935377430e+03  2.7499858375400186e+03  2.7499585855300584e+03  2.7499319269281259e+03  2.7499106010443415e+03  1.8300302911896790e+03  2.1062155523254864e+03  2.3205081680383519e+03  2.4707201804803726e+03  2.5710320252569200e+03  2.6369427572972263e+03  2.6802533774310014e+03  2.7088472576193717e+03  2.7277680886283906e+03  2.7402341559736051e+03  2.7483306566480560e+03  2.7534392276234416e+03  2.7564961685297685e+03  2.7581481135770850e+03  2.7588477857261068e+03  2.7589146867903819e+03  2.7585748767677123e+03  2.7579878959302901e+03  2.7572654833907100e+03  2.7564848604217632e+03  2.7556982908086907e+03  2.7549400243431060e+03  2.7542313676135927e+03  2.7535843992174719e+03  2.7530046967636126e+03  2.7524933400169407e+03  2.7520483816204487e+03  2.7516659244402854e+03  2.7513409067614152e+03  2.7510676692865245e+03  2.7508403582810120e+03  2.7506532051210324e+03  2.7505007123508417e+03  2.7503777689682638e+03  2.7502797121852032e+03  2.7502023487619635e+03  2.7501419458137025e+03  2.7500951985203992e+03  2.7500591804336418e+03  2.7500312813955061e+03  2.7500091389658555e+03  2.7499905737494469e+03  2.7499735503939951e+03  2.7499561960838469e+03  2.7499369896543872e+03  2.7499150670545632e+03  2.7498912434753879e+03  2.7498677699976570e+03  1.6974905943121962e+03  1.9647513635465500e+03  2.1925717844569308e+03  2.3709392102136972e+03  2.5031460505648342e+03  2.5978663737891720e+03  2.6642122017376223e+03  2.7097880269933589e+03  2.7403875872740418e+03  2.7602687894660044e+03  2.7725271902210798e+03  2.7794126607928579e+03  2.7825645237842514e+03  2.7831787258267482e+03  2.7821260307607422e+03  2.7800365676947144e+03  2.7773613848489322e+03  2.7744180295577230e+03  2.7714247417820134e+03  2.7685263140356647e+03  2.7658137173931600e+03  2.7633389926700165e+03  2.7611265133001712e+03  2.7591814570621295e+03  2.7574961298222920e+03  2.7560546393240356e+03  2.7548363057453944e+03  2.7538181092978807e+03  2.7529764076781235e+03  2.7522881035336377e+03  2.7517314010584182e+03  2.7512862588795351e+03  2.7509346215067353e+03  2.7506604922216925e+03  2.7504498951234282e+03  2.7502907621994109e+03  2.7501727720451772e+03  2.7500871597675227e+03  2.7500265124220255e+03  2.7499845611520973e+03  2.7499559804465807e+03  2.7499362065974960e+03  2.7499212973567173e+03  2.7499078505835232e+03  2.7498930571162373e+03  2.7498747811129670e+03  2.7498519866019396e+03  2.7498239946934009e+03  1.5975650773372292e+03  1.8576130840926076e+03  2.0904176691739931e+03  2.2846844455765645e+03  2.4382842960046751e+03  2.5548991849808349e+03  2.6406095939758707e+03  2.7017595419493696e+03  2.7439912711648653e+03  2.7719650668802442e+03  2.7893870602901829e+03  2.7991430798705792e+03  2.8034495269189460e+03  2.8039895574891884e+03  2.8020267821108082e+03  2.7984973458214304e+03  2.7940835918973062e+03  2.7892726622122045e+03  2.7844029233098449e+03  2.7797005783492841e+03  2.7753083742189415e+03  2.7713079542875416e+03  2.7677371219515830e+03  2.7646030490630214e+03  2.7618922728689927e+03  2.7595781666912299e+03  2.7576264377212160e+03  2.7559990960542600e+03  2.7546572492006394e+03  2.7535630029290805e+03  2.7526806897965421e+03  2.7519775987564121e+03  2.7514243407533304e+03  2.7509949544492715e+03  2.7506668317192502e+03  2.7504205231212914e+03  2.7502394682434897e+03  2.7501096839632592e+03  2.7500194347407687e+03  2.7499589027934830e+03  2.7499198726296049e+03  2.7498954422804854e+03  2.7498797779001716e+03  2.7498679162401086e+03  2.7498556479055005e+03  2.7498393652825403e+03  2.7498160141704384e+03  2.7497821283286075e+03  1.5221429259929946e+03  1.7771648773423608e+03  2.0115404347457661e+03  2.2147147862026454e+03  2.3822031393956540e+03  2.5145615829118524e+03  2.6153825784628407e+03  2.6895550332228790e+03  2.7421375306130658e+03  2.7777733354650359e+03  2.8004539920255315e+03  2.8134743605434601e+03  2.8194788679648927e+03  2.8205440262095703e+03  2.8182694767122211e+03  2.8138647056939221e+03  2.8082261444083706e+03  2.8020030933212574e+03  2.7956526677167817e+03  2.7894847415386221e+03  2.7836981558077146e+03  2.7784095036154158e+03  2.7736757300295894e+03  2.7695116577572626e+03  2.7659034032308264e+03  2.7628185019404655e+03  2.7602134262269533e+03  2.7580390579301520e+03  2.7562445737165890e+03  2.7547801122123342e+03  2.7535985179707627e+03  2.7526563960901867e+03  2.7519146611837564e+03  2.7513387236753829e+03  2.7508984235212124e+03  2.7505677951134426e+03  2.7503247261913880e+03  2.7501505571598937e+03  2.7500296545814163e+03  2.7499489830671223e+03  2.7498976932095125e+03  2.7498667373473509e+03  2.7498485229934408e+03  2.7498365979839759e+03  2.7498253694606419e+03  2.7498097519196403e+03  2.7497847874127874e+03  2.7497446396421192e+03  1.4666828973706340e+03  1.7184733716603994e+03  1.9531557811454977e+03  2.1613028064440591e+03  2.3375642027514459e+03  2.4807121836418905e+03  2.5925812794450944e+03  2.6768065837586496e+03  2.7377702384147874e+03  2.7798967273041399e+03  2.8072525187293036e+03  2.8233624475073379e+03  2.8311602718676140e+03  2.8330137746918185e+03  2.8307858640864506e+03  2.8259087965811691e+03  2.8194588623273048e+03  2.8122251485127181e+03  2.8047696615959790e+03  2.7974781346480895e+03  2.7906019184208149e+03  2.7842918599321411e+03  2.7786252563944286e+03  2.7736269821481014e+03  2.7692858080968590e+03  2.7655668165333195e+03  2.7624206868237338e+03  2.7597905038666240e+03  2.7576166286387638e+03  2.7558400712836988e+03  2.7544047225005488e+03  2.7532587276595191e+03  2.7523552287727557e+03  2.7516526506540863e+03  2.7511146678285263e+03  2.7507099566090105e+03  2.7504118110265636e+03  2.7501976808919667e+03  2.7500486742732728e+03  2.7499490541088826e+03  2.7498857489646334e+03  2.7498478888847681e+03  2.7498263703379653e+03  2.7498134375078562e+03  2.7498022642050360e+03  2.7497864529206427e+03  2.7497594385823068e+03  2.7497135336288525e+03  1.4285835243890388e+03  1.6784465602714915e+03  1.9130418126336781e+03  2.1238974360490452e+03  2.3054376928532479e+03  2.4554955519271903e+03  2.5747955006434386e+03  2.6660649167298479e+03  2.7331140773477068e+03  2.7801102730676794e+03  2.8110919930592181e+03  2.8296943031114110e+03  2.8390275599318611e+03  2.8416546068726398e+03  2.8396240288969025e+03  2.8345306438917719e+03  2.8275853068705510e+03  2.8196838161553096e+03  2.8114697063143817e+03  2.8033887511140606e+03  2.7957347332099739e+03  2.7886869518678795e+03  2.7823403640686952e+03  2.7767293980140676e+03  2.7718464702174356e+03  2.7676561545248674e+03  2.7641058373434767e+03  2.7611335721358869e+03  2.7586737303227005e+03  2.7566609409113867e+03  2.7550327195423129e+03  2.7537311093298467e+03  2.7527035900295473e+03  2.7519034573950062e+03  2.7512898297002907e+03  2.7508274019033774e+03  2.7504860385300249e+03  2.7502402728662082e+03  2.7500687613828532e+03  2.7499537273219803e+03  2.7498804151466807e+03  2.7498365661135276e+03  2.7498119149626004e+03  2.7497976915094864e+03  2.7497861019822653e+03  2.7497697299753008e+03  2.7497408057999833e+03  2.7496903363196693e+03  1.4063634071746762e+03  1.6552308058637291e+03  1.8896747511330864e+03  2.1018444651785667e+03  2.2861604027389644e+03  2.4400244951279178e+03  2.5635653710447887e+03  2.6589743792032823e+03  2.7296908784319935e+03  2.7796892637485125e+03  2.8129569260837884e+03  2.8331705743017042e+03  2.8435318044670244e+03  2.8467133106738647e+03  2.8448728786391844e+03  2.8397035585103636e+03  2.8324990933856880e+03  2.8242220033969124e+03  2.8155674614182258e+03  2.8070197463551049e+03  2.7989002260626485e+03  2.7914070158515747e+03  2.7846470513990648e+03  2.7786615554781229e+03  2.7734459226961089e+03  2.7689649901705779e+03  2.7651645597508723e+03  2.7619799197606558e+03  2.7593419975761799e+03  2.7571816666490213e+03  2.7554326361602293e+03  2.7540332691508797e+03  2.7529276052436567e+03  2.7520658058500885e+03  2.7514041917369150e+03  2.7509050036246226e+03  2.7505359847984760e+03  2.7502698592707466e+03  2.7500837586470707e+03  2.7499586342996199e+03  2.7498786775979274e+03  2.7498307580991059e+03  2.7498038774042516e+03  2.7497886214006503e+03  2.7497765805280337e+03  2.7497596976497566e+03  2.7497294585415989e+03  2.7496761094935937e+03  1.3992660293602266e+03  1.6478458746069407e+03  1.8821814535278502e+03  2.0946760765619329e+03  2.2797856459002332e+03  2.4348064931179811e+03  2.5596865701235874e+03  2.6564408392828386e+03  2.7283772194706848e+03  2.7793947441055966e+03  2.8134535649818463e+03  2.8342366969966938e+03  2.8449713423236713e+03  2.8483642565334335e+03  2.8466086395644438e+03  2.8414302645521616e+03  2.8341510038270403e+03  2.8257563469022962e+03  2.8169594603728783e+03  2.8082581944072804e+03  2.7999837569809201e+03  2.7923410731694867e+03  2.7854415028297994e+03  2.7793288679399470e+03  2.7739998065180039e+03  2.7694194247201103e+03  2.7655331216206951e+03  2.7622753455145571e+03  2.7595759241387964e+03  2.7573645028169176e+03  2.7555735279827481e+03  2.7541401299366830e+03  2.7530071876840420e+03  2.7521237993081686e+03  2.7514453322456857e+03  2.7509331877127975e+03  2.7505543810473087e+03  2.7502810136102639e+03  2.7500896909131302e+03  2.7499609245413162e+03  2.7498785410264368e+03  2.7498291075571537e+03  2.7498013713673208e+03  2.7497856958903217e+03  2.7497734597047715e+03  2.7497563914128154e+03  2.7497257205279880e+03  2.7496714729369860e+03  1.4070794160667704e+03  1.6559965374757783e+03  1.8902754748430896e+03  2.1022126359381868e+03  2.2862906027588692e+03  2.4399682190041985e+03  2.5633904428294286e+03  2.6587448729983685e+03  2.7294555579983753e+03  2.7794793921654300e+03  2.8127884408695650e+03  2.8330482830547326e+03  2.8434535022851396e+03  2.8466730355636164e+03  2.8448631765301711e+03  2.8397168956260780e+03  2.8325286320617897e+03  2.8242619556724071e+03  2.8156131808470136e+03  2.8070676726571219e+03  2.7989477566264027e+03  2.7914523496337943e+03  2.7846890315601418e+03  2.7786995246904817e+03  2.7734795974969115e+03  2.7689943562224266e+03  2.7651897873569355e+03  2.7620012976821408e+03  2.7593598826449634e+03  2.7571964465548244e+03  2.7554447029196754e+03  2.7540430010227119e+03  2.7529353551605268e+03  2.7520718947525643e+03  2.7514089054919214e+03  2.7509085924779633e+03  2.7505386645486242e+03  2.7502718135577384e+03  2.7500851419358064e+03  2.7499595753273061e+03  2.7498792831796004e+03  2.7498311175148224e+03  2.7498040671346662e+03  2.7497887118611602e+03  2.7497766397702167e+03  2.7497598078083579e+03  2.7497296862458943e+03  2.7496766219373362e+03  1.4300859365586025e+03  1.6800134230047149e+03  1.9142267383973860e+03  2.1245825464336499e+03  2.3056345382186419e+03  2.4553251373382450e+03  2.5744034472612798e+03  2.6655821701344639e+03  2.7326353946914596e+03  2.7796933073394962e+03  2.8107640149495169e+03  2.8294613494295550e+03  2.8388828019215753e+03  2.8415847311748958e+03  2.8396134782766267e+03  2.8345641816539137e+03  2.8276493665051503e+03  2.8197670687247091e+03  2.8115631562257477e+03  2.8034855738288643e+03  2.7958299912700850e+03  2.7887772709629535e+03  2.7824236156312331e+03  2.7768044121453490e+03  2.7719127891381095e+03  2.7677138287435291e+03  2.7641552623498010e+03  2.7611753612421944e+03  2.7587086184224772e+03  2.7566897138472787e+03  2.7550561641217832e+03  2.7537499795859180e+03  2.7527185859563033e+03  2.7519152130233028e+03  2.7512989079651420e+03  2.7508342942817067e+03  2.7504911678845087e+03  2.7502439983322388e+03  2.7500713844860152e+03  2.7499554988832310e+03  2.7498815427643581e+03  2.7498372227018981e+03  2.7498122479153144e+03  2.7497978360585362e+03  2.7497861885938842e+03  2.7497699188866632e+03  2.7497412273193081e+03  2.7496913332268991e+03  1.4691221748372191e+03  1.7209068975924572e+03  1.9548722797618072e+03  2.1621800563834563e+03  2.3376857455699965e+03  2.4803096179249160e+03  2.5918928576700114e+03  2.6760296939084592e+03  2.7370381631081955e+03  2.7792831409227078e+03  2.8067863555614663e+03  2.8