<?xml version="1.0"?>
<VTKFile type="UnstructuredGrid"  version="0.1"  >
<UnstructuredGrid>
<Piece  NumberOfPoints="1250" NumberOfCells="2352">
<Points>
<DataArray  type="Float64"  NumberOfComponents="3"  format="ascii">0 0 0  0.0336 0 0  0.0336 0.07729999999999999 0  0 0.07729999999999999 0  0.001400000000000002 0 0  0.002800000000000005 0 0  0.004200000000000008 0 0  0.005600000000000009 0 0  0.007000000000000011 0 0  0.008400000000000013 0 0  0.009800000000000019 0 0  0.01120000000000002 0 0  0.01260000000000003 0 0  0.01400000000000003 0 0  0.01540000000000004 0 0  0.01680000000000005 0 0  0.01820000000000004 0 0  0.01960000000000004 0 0  0.02100000000000004 0 0  0.02240000000000003 0 0  0.02380000000000003 0 0  0.02520000000000002 0 0  0.02660000000000002 0 0  0.02800000000000001 0 0  0.02940000000000001 0 0  0.03080000000000001 0 0  0.0322 0 0  0.0336 0.001577551020408161 0  0.0336 0.003155102040816321 0  0.0336 0.004732653061224482 0  0.0336 0.006310204081632642 0  0.0336 0.007887755102040803 0  0.0336 0.009465306122448964 0  0.0336 0.01104285714285712 0  0.0336 0.01262040816326528 0  0.0336 0.01419795918367344 0  0.0336 0.0157755102040816 0  0.0336 0.01735306122448976 0  0.0336 0.01893061224489792 0  0.0336 0.02050816326530608 0  0.0336 0.02208571428571425 0  0.0336 0.02366326530612241 0  0.0336 0.02524081632653058 0  0.0336 0.02681836734693874 0  0.0336 0.02839591836734691 0  0.0336 0.02997346938775507 0  0.0336 0.03155102040816323 0  0.0336 0.0331285714285714 0  0.0336 0.03470612244897956 0  0.0336 0.03628367346938772 0  0.0336 0.03786122448979588 0  0.0336 0.03943877551020405 0  0.0336 0.04101632653061221 0  0.0336 0.04259387755102037 0  0.0336 0.04417142857142854 0  0.0336 0.04574897959183671 0  0.0336 0.04732653061224486 0  0.0336 0.04890408163265302 0  0.0336 0.05048163265306119 0  0.0336 0.05205918367346936 0  0.0336 0.05363673469387752 0  0.0336 0.05521428571428568 0  0.0336 0.05679183673469385 0  0.0336 0.05836938775510202 0  0.0336 0.05994693877551018 0  0.0336 0.06152448979591834 0  0.0336 0.0631020408163265 0  0.0336 0.06467959183673468 0  0.0336 0.06625714285714283 0  0.0336 0.06783469387755101 0  0.0336 0.06941224489795916 0  0.0336 0.07098979591836733 0  0.0336 0.07256734693877549 0  0.0336 0.07414489795918365 0  0.0336 0.07572244897959182 0  0.03219999999999999 0.07729999999999999 0  0.03079999999999999 0.07729999999999999 0  0.02939999999999999 0.07729999999999999 0  0.02799999999999999 0.07729999999999999 0  0.02659999999999999 0.07729999999999999 0  0.02519999999999999 0.07729999999999999 0  0.02379999999999998 0.07729999999999999 0  0.02239999999999998 0.07729999999999999 0  0.02099999999999997 0.07729999999999999 0  0.01959999999999996 0.07729999999999999 0  0.01819999999999996 0.07729999999999999 0  0.01679999999999995 0.07729999999999999 0  0.01539999999999996 0.07729999999999999 0  0.01399999999999996 0.07729999999999999 0  0.01259999999999996 0.07729999999999999 0  0.01119999999999997 0.07729999999999999 0  0.009799999999999972 0.07729999999999999 0  0.008399999999999977 0.07729999999999999 0  0.006999999999999978 0.07729999999999999 0  0.005599999999999983 0.07729999999999999 0  0.004199999999999988 0.07729999999999999 0  0.00279999999999999 0.07729999999999999 0  0.001399999999999998 0.07729999999999999 0  0 0.07572244897959184 0  0 0.07414489795918368 0  0 0.07256734693877551 0  0 0.07098979591836735 0  0 0.06941224489795919 0  0 0.06783469387755103 0  0 0.06625714285714288 0  0 0.06467959183673472 0  0 0.06310204081632656 0  0 0.0615244897959184 0  0 0.05994693877551023 0  0 0.05836938775510207 0  0 0.05679183673469392 0  0 0.05521428571428574 0  0 0.05363673469387759 0  0 0.05205918367346941 0  0 0.05048163265306126 0  0 0.04890408163265308 0  0 0.04732653061224493 0  0 0.04574897959183676 0  0 0.0441714285714286 0  0 0.04259387755102043 0  0 0.04101632653061228 0  0 0.03943877551020411 0  0 0.03786122448979595 0  0 0.03628367346938779 0  0 0.03470612244897962 0  0 0.03312857142857146 0  0 0.03155102040816329 0  0 0.02997346938775513 0  0 0.02839591836734697 0  0 0.0268183673469388 0  0 0.02524081632653064 0  0 0.02366326530612247 0  0 0.02208571428571431 0  0 0.02050816326530614 0  0 0.01893061224489798 0  0 0.01735306122448981 0  0 0.01577551020408165 0  0 0.01419795918367349 0  0 0.01262040816326532 0  0 0.01104285714285716 0  0 0.009465306122448988 0  0 0.00788775510204083 0  0 0.006310204081632659 0  0 0.004732653061224501 0  0 0.003155102040816343 0  0 0.001577551020408172 0  0.001400000000000004 0.001577551020408172 0  0.001400000000000004 0.003155102040816329 0  0.001400000000000002 0.004732653061224501 0  0.001400000000000002 0.006310204081632645 0  0.001400000000000005 0.007887755102040823 0  0.001400000000000002 0.009465306122448981 0  0.001400000000000002 0.01104285714285717 0  0.001400000000000004 0.01262040816326531 0  0.0014 0.01419795918367349 0  0.001400000000000002 0.01577551020408166 0  0.001400000000000005 0.0173530612244898 0  0.001400000000000002 0.01893061224489797 0  0.001400000000000002 0.02050816326530613 0  0.001400000000000002 0.02208571428571431 0  0.001400000000000002 0.02366326530612247 0  0.001400000000000002 0.02524081632653063 0  0.001400000000000002 0.0268183673469388 0  0.001400000000000002 0.02839591836734696 0  0.001400000000000002 0.02997346938775513 0  0.001400000000000002 0.03155102040816328 0  0.001400000000000002 0.03312857142857147 0  0.001399999999999997 0.03470612244897962 0  0.001400000000000005 0.03628367346938778 0  0.001400000000000002 0.03786122448979594 0  0.001400000000000002 0.03943877551020411 0  0.001400000000000002 0.04101632653061228 0  0.001400000000000002 0.04259387755102043 0  0.001400000000000002 0.0441714285714286 0  0.0014 0.04574897959183676 0  0.001400000000000002 0.04732653061224492 0  0.001400000000000004 0.04890408163265308 0  0.001400000000000002 0.05048163265306126 0  0.001400000000000002 0.05205918367346941 0  0.0014 0.05363673469387758 0  0.001400000000000004 0.05521428571428574 0  0.001399999999999998 0.05679183673469391 0  0.001400000000000002 0.05836938775510207 0  0.0014 0.05994693877551023 0  0.001400000000000002 0.0615244897959184 0  0.001400000000000002 0.06310204081632656 0  0.001400000000000002 0.06467959183673472 0  0.0014 0.06625714285714286 0  0.001400000000000002 0.06783469387755102 0  0.001399999999999998 0.06941224489795919 0  0.001400000000000002 0.07098979591836735 0  0.0014 0.07256734693877552 0  0.001400000000000002 0.07414489795918368 0  0.001400000000000002 0.07572244897959184 0  0.002800000000000006 0.001577551020408165 0  0.002800000000000004 0.003155102040816343 0  0.002800000000000002 0.004732653061224487 0  0.002800000000000002 0.006310204081632652 0  0.002800000000000002 0.007887755102040813 0  0.0028 0.009465306122448981 0  0.002799999999999997 0.01104285714285715 0  0.0028 0.01262040816326532 0  0.0028 0.01419795918367348 0  0.0028 0.01577551020408165 0  0.002799999999999997 0.0173530612244898 0  0.0028 0.01893061224489797 0  0.002800000000000004 0.02050816326530613 0  0.0028 0.0220857142857143 0  0.0028 0.02366326530612247 0  0.002800000000000004 0.02524081632653064 0  0.0028 0.0268183673469388 0  0.0028 0.02839591836734696 0  0.002799999999999995 0.02997346938775512 0  0.002799999999999997 0.03155102040816328 0  0.002799999999999995 0.03312857142857146 0  0.0028 0.03470612244897962 0  0.002799999999999995 0.03628367346938778 0  0.002799999999999997 0.03786122448979594 0  0.002799999999999997 0.03943877551020411 0  0.002799999999999997 0.04101632653061228 0  0.002799999999999997 0.04259387755102043 0  0.002799999999999995 0.0441714285714286 0  0.002799999999999997 0.04574897959183676 0  0.002799999999999997 0.04732653061224493 0  0.002799999999999995 0.04890408163265308 0  0.002799999999999993 0.05048163265306124 0  0.002799999999999995 0.05205918367346941 0  0.002799999999999995 0.05363673469387757 0  0.002799999999999992 0.05521428571428574 0  0.002799999999999997 0.05679183673469391 0  0.002799999999999993 0.05836938775510207 0  0.002799999999999993 0.05994693877551022 0  0.002799999999999992 0.0615244897959184 0  0.002799999999999988 0.06310204081632655 0  0.002799999999999992 0.0646795918367347 0  0.002799999999999992 0.06625714285714286 0  0.00279999999999999 0.06783469387755103 0  0.00279999999999999 0.06941224489795919 0  0.002799999999999988 0.07098979591836735 0  0.00279999999999999 0.07256734693877552 0  0.002799999999999988 0.07414489795918368 0  0.00279999999999999 0.07572244897959184 0  0.004200000000000006 0.001577551020408172 0  0.004200000000000006 0.003155102040816329 0  0.004200000000000008 0.00473265306122448 0  0.004200000000000009 0.006310204081632652 0  0.004200000000000008 0.00788775510204082 0  0.004200000000000008 0.009465306122448978 0  0.004200000000000006 0.01104285714285716 0  0.004200000000000006 0.01262040816326532 0  0.004200000000000004 0.01419795918367349 0  0.004200000000000002 0.01577551020408165 0  0.004200000000000004 0.0173530612244898 0  0.004200000000000006 0.01893061224489797 0  0.004200000000000006 0.02050816326530613 0  0.004200000000000002 0.0220857142857143 0  0.004200000000000004 0.02366326530612247 0  0.004199999999999999 0.02524081632653062 0  0.004200000000000004 0.0268183673469388 0  0.004200000000000004 0.02839591836734696 0  0.004200000000000002 0.02997346938775512 0  0.004199999999999999 0.03155102040816328 0  0.004200000000000001 0.03312857142857145 0  0.004200000000000001 0.03470612244897962 0  0.004199999999999995 0.03628367346938778 0  0.004199999999999999 0.03786122448979594 0  0.004199999999999999 0.0394387755102041 0  0.004199999999999997 0.04101632653061227 0  0.004199999999999999 0.04259387755102043 0  0.004199999999999999 0.04417142857142859 0  0.004199999999999999 0.04574897959183676 0  0.004199999999999999 0.04732653061224492 0  0.004199999999999997 0.04890408163265308 0  0.004199999999999997 0.05048163265306124 0  0.004199999999999999 0.05205918367346941 0  0.004199999999999992 0.05363673469387757 0  0.0
[...]
<PointData  Scalars=" mean stress"> 
<DataArray  type="Float64"  Name=" mean stress"  format="ascii">2.0012166234339464e+04  1.9000622767425328e+04  1.0249998588297714e+04  1.0249997119193733e+04  1.0888397858819873e+04  7.8865329521253616e+03  6.8781717048159198e+03  6.1902322288919777e+03  5.6837202777986240e+03  5.2794274742023927e+03  4.9558524088183949e+03  4.7015375408823247e+03  4.5092020755400172e+03  4.3745498817570578e+03  4.2950511836206988e+03  4.2694479444096823e+03  4.2974491598298055e+03  4.3796592794376484e+03  4.5177358952361938e+03  4.7148280853588521e+03  4.9763992772497177e+03  5.3117389505641368e+03  5.7378903172886885e+03  6.2830326255368527e+03  7.0269748287791735e+03  8.1618111542273509e+03  9.8795242664963171e+03  1.2758556804649565e+04  9.7803147736936080e+03  9.1480388231858542e+03  8.8250816273430537e+03  8.7308756542706160e+03  8.7552507589280067e+03  8.8423059015211929e+03  8.9623687227674654e+03  9.0971536886355480e+03  9.2353565723066204e+03  9.3698745212153153e+03  9.4963403434546381e+03  9.6122386567679332e+03  9.7163303086550550e+03  9.8082581772561243e+03  9.8882655774522209e+03  9.9569903535630165e+03  1.0015312903385315e+04  1.0064244339218487e+04  1.0104845331085615e+04  1.0138168687896197e+04  1.0165220315054146e+04  1.0186934283274210e+04  1.0204158571094642e+04  1.0217648708342991e+04  1.0228067100025110e+04  1.0235986274521309e+04  1.0241894689910954e+04  1.0246204056627932e+04  1.0249257400871171e+04  1.0251337308298065e+04  1.0252673958401516e+04  1.0253452693274316e+04  1.0253820966453955e+04  1.0253894593981619e+04  1.0253763285845684e+04  1.0253495476083755e+04  1.0253142498044375e+04  1.0252742170966832e+04  1.0252321878648061e+04  1.0251901232014978e+04  1.0251494422666938e+04  1.0251112382150899e+04  1.0250764884514729e+04  1.0250462864008434e+04  1.0250219970877426e+04  1.0250058099604610e+04  1.0249983860125236e+04  1.0250014847670565e+04  1.0249960671884372e+04  1.0249842020198192e+04  1.0249665022516119e+04  1.0249454766037019e+04  1.0249232676666119e+04  1.0249017047206440e+04  1.0248822453291476e+04  1.0248660106876274e+04  1.0248538242879695e+04  1.0248462471488087e+04  1.0248436057923025e+04  1.0248460101682978e+04  1.0248533601925217e+04  1.0248653404479890e+04  1.0248814036399410e+04  1.0249007444323934e+04  1.0249222664854849e+04  1.0249445472046069e+04  1.0249658067678180e+04  1.0249839063870419e+04  1.0249964218580077e+04  1.0250010891523458e+04  1.0249985723984137e+04  1.0250055766064655e+04  1.0250226678443556e+04  1.0250474088683037e+04  1.0250779570952749e+04  1.0251129809881995e+04  1.0251514473899964e+04  1.0251924050296202e+04  1.0252347724401741e+04  1.0252771321892558e+04  1.0253175166894660e+04  1.0253531731652591e+04  1.0253802963970942e+04  1.0253937190363669e+04  1.0253865503480547e+04  1.0253497553425452e+04  1.0252716676406299e+04  1.0251374313665547e+04  1.0249283701689776e+04  1.0246212854855237e+04  1.0241876917808735e+04  1.0235930041578937e+04  1.0227957039810806e+04  1.0217465215374552e+04  1.0203876919213217e+04  1.0186523619263025e+04  1.0164642524453988e+04  1.0137377133985376e+04  1.0103783472348114e+04  1.0062844234191783e+04  1.0013493612402073e+04  9.9546562406598041e+03  9.8853044960923235e+03  9.8045394798006964e+03  9.7117025346506962e+03  9.6065265987172061e+03  9.4893409361998220e+03  9.3613505091353600e+03  9.2250259865927237e+03  9.0846746819854961e+03  8.9472990898497192e+03  8.8240913379855920e+03  8.7332061014330229e+03  8.7025199725261136e+03  8.7988372802273752e+03  9.1027576173542293e+03  9.9731229118519041e+03  1.4308017062921401e+04  1.2375744453762356e+04  1.1380500937913785e+04  1.0222145308185525e+04  9.7010587026642170e+03  9.4414639394164697e+03  9.3337467398023073e+03  9.3143084000164945e+03  9.3464416702772305e+03  9.4083421444639243e+03  9.4859754443109960e+03  9.5702105838220723e+03  9.6550782675633945e+03  9.7367432974556777e+03  9.8128490015846073e+03  9.8820751566724957e+03  9.9438280819130687e+03  9.9980168790028092e+03  1.0044889116213142e+04  1.0084909382469919e+04  1.0118669786188950e+04  1.0146824756571370e+04  1.0170044518752389e+04  1.0188982934510510e+04  1.0204256328310033e+04  1.0216430613324905e+04  1.0226014577877540e+04  1.0233457634506218e+04  1.0239150696722150e+04  1.0243429147533674e+04  1.0246577109190372e+04  1.0248832423213917e+04  1.0250391910260842e+04  1.0251416606593439e+04  1.0252036773331047e+04  1.0252356550942312e+04  1.0252458188980376e+04  1.0252405823543962e+04  1.0252248805580772e+04  1.0252024604583092e+04  1.0251761326453950e+04  1.0251479892550040e+04  1.0251195928785261e+04  1.0250921408414923e+04  1.0250666061306674e+04  1.0250438498937174e+04  1.0250247029918559e+04  1.0250098224971855e+04  1.0250004926214628e+04  9.9605966023166984e+03  1.0549983370648213e+04  1.0333486919016996e+04  1.0039043521409671e+04  9.8420628376623063e+03  9.7299383614751550e+03  9.6805456580629307e+03  9.6735747933019193e+03  9.6941135879496796e+03  9.7315650578025761e+03  9.7784581855451834e+03  9.8295869615722240e+03  9.8813828120363814e+03  9.9314687662293054e+03  9.9783370918800592e+03  1.0021112072593012e+04  1.0059372856513111e+04  1.0093019857502601e+04  1.0122173637641778e+04  1.0147098569574810e+04  1.0168145703569448e+04  1.0185710644027584e+04  1.0200203175603161e+04  1.0212026047999276e+04  1.0221560833379135e+04  1.0229159169387396e+04  1.0235138026603650e+04  1.0239777910246914e+04  1.0243323132810659e+04  1.0245983483848800e+04  1.0247936780291235e+04  1.0249331909523637e+04  1.0250292081659212e+04  1.0250918090426600e+04  1.0251291447052623e+04  1.0251477301376122e+04  1.0251527101863250e+04  1.0251480973361797e+04  1.0251369810299775e+04  1.0251217094875523e+04  1.0251040455793100e+04  1.0250852983447196e+04  1.0250664314656728e+04  1.0250481521815806e+04  1.0250309786383552e+04  1.0250153823505305e+04  1.0250020713036902e+04  1.0249930346246198e+04  8.4647568672689795e+03  9.4491793478660984e+03  9.8363266370912097e+03  9.9281606011655294e+03  9.9263787209446455e+03  9.9092498551378831e+03  9.8998666672059517e+03  9.9028592120647518e+03  9.9167613914260419e+03  9.9386133938911662e+03  9.9654817105400889e+03  9.9949183068457369e+03  1.0025043051735347e+04  1.0054494566798361e+04  1.0082344076549616e+04  1.0108006542588755e+04  1.0131160975927876e+04  1.0151683097515295e+04  1.0169590246667507e+04  1.0184997317711637e+04  1.0198082214358757e+04  1.0209059329029413e+04  1.0218159676115332e+04  1.0225616458223421e+04  1.0231654996787334e+04  1.0236486104767595e+04  1.0240302116880919e+04  1.0243274920519394e+04  1.0245555447059380e+04  1.0247274187653842e+04  1.0248542389173710e+04  1.0249453664581359e+04  1.0250085818046186e+04  1.0250502739264306e+04  1.0250756264901574e+04  1.0250887938961587e+04  1.0250930629593109e+04  1.0250909978562822e+04  1.0250845672607724e+04  1.0250752534399775e+04  1.0250641436781221e+04  1.0250520052771151e+04  1.0250393465520081e+04  1.0250264764813921e+04  1.0250135823448780e+04  1.0250009095256089e+04  1.0249893495160019e+04  1.0249811448769606e+04  7.4972282846073549e+03  8.5460986807936624e+03  9.2193883842168016e+03  9.5989152272026076e+03  9.8057253453312005e+03  9.9217671935870439e+03  9.9917962670916422e+03  1.0038261845046964e+04  1.0072228745634769e+04  1.0099116815876012e+04  1.0121590941713484e+04  1.0140972402733909e+04  1.0157931278208816e+04  1.0172827571198737e+04  1.0185879176055912e+04  1.0197243695422241e+04  1.0207056963498795e+04  1.0215449727956933e+04  1.0222553395303894e+04  1.0228500480485720e+04  1.0233422724727379e+04  1.0237448449798252e+04  1.0240699964956302e+04  1.0243291423321507e+04  1.0245327284003894e+04  1.0246901397965512e+04  1.0248096658979062e+04  1.0248985123331673e+04  1.0249628489066745e+04  1.0250078828121463e+04  1.0250379476183849e+04  1.0250566000809280e+04  1.0250667185223489e+04  1.0250705981242263e+04  1.0250700398716615e+04  1.0250664310295484e+04  1.0250608159007956e+04  1.0250539562393264e+04  1.0250463811364843e+04  1.0250384266033943e+04  1.0250302656486205e+04  1.0250219314195811e+04  1.0250133389569286e+04  1.0250043212277107e+04  1.0249947212649688e+04  1.0249845636975539e+04  1.0249746273096132e+04  1.0249666785710902e+04  6.8210219944350101e+03  7.8504397859414203e+03  8.6491668081439930e+03  9.2090479454279248e+03  9.5829375486859808e+03  9.8286048226543717e+03  9.9900353158802700e+03  1.0096612505673143e+04  1.0167135603070474e+04  1.0213600035902524e+04  1.0243777902052865e+04  1.0262818939324634e+04  1.0274212991793715e+04  1.0280370241515488e+04  1.0282978110434437e+04  1.0283227468946761e+04  1.0281960904316851e+04  1.0279773066649977e+04  1.0277080438093471e+04  1.0274170843390842e+04  1.0271239083923994e+04  1.0268412818006858e+04  1.0265771461105673e+04  1.0263360033447645e+04  1.0261199324301328e+04  1.0259293358245499e+04  1.0257634876949272e+04  1.0256209354732706e+04  1.0254997925202066e+04  1.0253979494614003e+04  1.0253132244502336e+04  1.0252434673633426e+04  1.0251866291489780e+04  1.0251408047973162e+04  1.0251042563599678e+04  1.0250754209022265e+04  1.0250529070760411e+04  1.0250354830849159e+04  1.0250220581616588e+04  1.0250116594292545e+04  1.0250034063418349e+04  1.0249964865793745e+04  1.0249901415105189e+04  1.0249836730857893e+04  1.0249765143257553e+04  1.0249683431748983e+04  1.0249594634771742e+04  1.0249507142718972e+04  6.3270103969824859e+03  7.3231641732197322e+03  8.1723130147948414e+03  8.8371370562520369e+03  9.3299080066517072e+03  9.6829564841242554e+03  9.9302454792048065e+03  1.0100119009703421e+04  1.0214171916204079e+04  1.0288274578919611e+04  1.0333964981733967e+04  1.0359629008410664e+04  1.0371376861378467e+04  1.0373666159900451e+04  1.0369742478290831e+04  1.0361954479590097e+04  1.0351983343528469e+04  1.0341012655624967e+04  1.0329855855733609e+04  1.0319052625042772e+04  1.0308942037556773e+04  1.0299718063588898e+04  1.0291471549573869e+04  1.0284221794504783e+04  1.0277940120247353e+04  1.0272567292026462e+04  1.0268026230506006e+04  1.0264231134656036e+04  1.0261093883164503e+04  1.0258528385898488e+04  1.0256453403945574e+04  1.0254794237642156e+04  1.0253483589252828e+04  1.0252461834644693e+04  1.0251676881824233e+04  1.0251083750016223e+04  1.0250643968532298e+04  1.0250324868224679e+04  1.0250098819027755e+04  1.0249942455203407e+04  1.0249835927119311e+04  1.0249762224590910e+04  1.0249706653784302e+04  1.0249656533993220e+04  1.0249601394706091e+04  1.0249533275057751e+04  1.0249448313698193e+04  1.0249343980220880e+04  5.9545607428029261e+03  6.9238305861640192e+03  7.7915567669220209e+03  8.5156420244224555e+03  9.0881505578363867e+03  9.5228060531111896e+03  9.8422721230017942e+03  1.0070194656357533e+04  1.0227603828888017e+04  1.0331869794736200e+04  1.0396806315627802e+04  1.0433169661336478e+04  1.0449220963971276e+04  1.0451233805187790e+04  1.0443918006049924e+04  1.0430762834426005e+04  1.0414311569799635e+04  1.0396379922791482e+04  1.0378229077791795e+04  1.0360702155666098e+04  1.0344331212998426e+04  1.0329420556890371e+04  1.0316111090910814e+04  1.0304429546508112e+04  1.0294325744330316e+04  1.0285700439485981e+04  1.0278425813324991e+04  1.0272360267111728e+04  1.0267358837930025e+04  1.0263280283645190e+04  1.0259991661969372e+04  1.0257371049910482e+04  1.0255308906444594e+04  1.0253708466583947e+04  1.0252485463681202e+04  1.0251567404361349e+04  1.0250892563453088e+04  1.0250408822045303e+04  1.0250072438579287e+04  1.0249846819503162e+04  1.0249701343437784e+04  1.0249610284863747e+04  1.0249551899446335e+04  1.0249507687804147e+04  1.0249461960375131e+04  1.0249401270598624e+04  1.0249314234635454e+04  1.0249187932861274e+04  5.6734418150652509e+03  6.6239781791857076e+03  7.4975598022348468e+03  8.2548460213013677e+03  8.8791207922935610e+03  9.3724568090357934e+03  9.7482441560894440e+03  1.0024705123831427e+04  1.0220694432285733e+04  1.0353518795824881e+04  1.0438055788459293e+04  1.0486586252935324e+04  1.0508966689687997e+04  1.0512936824963475e+04  1.0504458958655265e+04  1.0488041175768783e+04  1.0467024720068121e+04  1.0443829711470620e+04  1.0420159943308416e+04  1.0397170400280831e+04  1.0375602217101999e+04  1.0355889968021478e+04  1.0338245902837967e+04  1.0322725269823028e+04  1.0309276321133537e+04  1.0297778052687479e+04  1.0288068225028197e+04  1.0279963761376401e+04  1.0273275229307712e+04  1.0267816781882548e+04  1.0263412657891371e+04  1.0259901112699823e+04  1.0257136464412637e+04  1.0254989788244926e+04  1.0253348669488336e+04  1.0252116327241238e+04  1.0251210343077231e+04  1.0250561167596146e+04  1.0250110530712811e+04  1.0249809845977370e+04  1.0249618674690331e+04  1.0249503293749296e+04  1.0249435403884578e+04  1.0249390956122321e+04  1.0249349104353674e+04  1.0249290893518481e+04  1.0249197843993268e+04  1.0249048202302325e+04  5.4667271629272363e+03  6.4052189307346353e+03  7.2799442751791212e+03  8.0557650058374829e+03  8.7127393011650202e+03  9.2462908663021572e+03  9.6632574961140799e+03  9.9771881758282962e+03  1.0204416343182924e+04  1.0361433256315981e+04  1.0463395751627862e+04  1.0523441849800589e+04  1.0552506467870677e+04  1.0559414978397355e+04  1.0551110947959000e+04  1.0532932787257545e+04  1.0508892123220397e+04  1.0481930099002329e+04  1.0454141465949111e+04  1.0426963956415919e+04  1.0401334423205162e+04  1.0377815114292987e+04  1.0356694137470535e+04  1.0338064206188772e+04  1.0321883466543106e+04  1.0308021770715557e+04  1.0296295287252267e+04  1.0286491878048893e+04  1.0278389252199146e+04  1.0271767538421365e+04  1.0266417602047712e+04  1.0262146166731152e+04  1.0258778579971386e+04  1.0256159879710935e+04  1.0254154670997534e+04  1.0252646201906549e+04  1.0251534932008202e+04  1.0250736810597731e+04  1.0250181422291329e+04  1.0249810110769660e+04  1.0249574155231745e+04  1.0249433040388962e+04  1.0249352834895926e+04  1.0249304630711222e+04  1.0249262984764571e+04  1.0249204051795195e+04  1.0249103361988708e+04  1.0248932261707503e+04  5.3247204090866917e+03  6.2560280882849565e+03  7.1304285743622286e+03  7.9163449889105059e+03  8.5929950369988928e+03  9.1523016026381501e+03  9.5969650478532367e+03  9.9371510532662669e+03  1.0187061561023706e+04  1.0362229199616306e+04  1.0477706519584841e+04  1.0547042402506555e+04  1.0581829996110071e+04  1.0591621716525635e+04  1.0584053198616104e+04  1.0565068763596995e+04  1.0539181598336132e+04  1.0509730587488384e+04  1.0479114359899366e+04  1.0448994435970895e+04  1.0420465823782984e+04  1.0394196820598670e+04  1.0370541356983636e+04  1.0349627756234648e+04  1.0331427752628850e+04  1.0315809303229369e+04  1.0302576302825893e+04  1.0291497859779429e+04  1.0282329358475798e+04  1.0274827143397139e+04  1.0268758318294234e+04  1.0263906862047881e+04  1.0260077017383084e+04  1.0257094704836059e+04  1.0254807547064964e+04  1.0253083952549083e+04  1.0251811598157503e+04  1.0250895562501511e+04  1.0250256292427235e+04  1.0249827529109487e+04  1.0249554274637525e+04  1.0249390837332348e+04  1.0249298955769671e+04  1.0249245941081015e+04  1.0249202743751885e+04  1.0249141720817055e+04  1.0249033912527138e+04  1.0248845799009610e+04  5.2418999721966629e+03  6.1694966400377607e+03  7.0433331633144935e+03  7.8341475520294680e+03  8.5211433193001249e+03  9.0946367545679441e+03  9.5551072920763108e+03  9.9107226861216968e+03  1.0174302365064979e+04  1.0360659983063002e+04  1.0484657633585315e+04  1.0559999413306628e+04  1.0598618543922861e+04  1.0610476885239237e+04  1.0603617093109902e+04  1.0584349627175319e+04  1.0557496620801430e+04  1.0526645649025162e+04  1.0494387810740940e+04  1.0462528145505637e+04  1.0432264478960989e+04  1.0404335240901533e+04  1.0379139009760371e+04  1.0356829434055060e+04  1.0337389348231269e+04  1.0320687690635987e+04  1.0306522449980690e+04  1.0294652428198819e+04  1.0284820172784253e+04  1.0276768030237279e+04  1.0270248916597280e+04  1.0265033094108010e+04  1.0260911983181066e+04  1.0257699821805038e+04  1.0255233805565102e+04  1.0253373195328188e+04  1.0251997761521736e+04  1.0251005839100253e+04  1.0250312191321198e+04  1.0249845818753005e+04  1.0249547798319736e+04  1.0249369189278641e+04  1.0249268997597717e+04  1.0249212134311538e+04  1.0249167254695647e+04  1.0249104327603734e+04  1.0248991618200511e+04  1.0248792771748838e+04  5.2154461094336566e+03  6.1419709871714504e+03  7.0154035995130507e+03  7.8074290126400947e+03  8.4973828619918932e+03  9.0751878379854097e+03  9.5406499431880566e+03  9.9012794918725685e+03  1.0169405999845485e+04  1.0359562228030200e+04  1.0486508742205262e+04  1.0563973143351484e+04  1.0603984094115724e+04  1.0616630410715745e+04  1.0610086747467663e+04  1.0590785531512802e+04  1.0563653741537344e+04  1.0532364565727064e+04  1.0499576170480843e+04  1.0467144179154557e+04  1.0436303094201803e+04  1.0407816727268239e+04  1.0382100146911303e+04  1.0359316689594461e+04  1.0339453824294715e+04  1.0322381492138726e+04  1.0307896180586302e+04  1.0295753560554496e+04  1.0285692080881083e+04  1.0277449510499644e+04  1.0270774058844927e+04  1.0265431393400464e+04  1.0261208608640751e+04  1.0257915979239586e+04  1.0255387147461313e+04  1.0253478245111235e+04  1.0252066329358282e+04  1.0251047414365681e+04  1.0250334302494446e+04  1.0249854355108702e+04  1.0249547289280379e+04  1.0249363037258454e+04  1.0249259656914424e+04  1.0249201230136798e+04  1.0249155622535935e+04  1.0249092004357055e+04  1.0248977685604645e+04  1.0248775490037675e+04  5.2445687326124835e+03  6.1723507305915891e+03  7.0455722244151711e+03  7.8355198248605720e+03  8.5216286102830927e+03  9.0944269981065845e+03  9.5544552869097970e+03  9.9098672539030340e+03  1.0173425261630393e+04  1.0359877734434844e+04  1.0484029643241229e+04  1.0559543600476820e+04  1.0598326690335542e+04  1.0610326768919051e+04  1.0603580930703467e+04  1.0584399338242771e+04  1.0557606719503108e+04  1.0526794562051889e+04  1.0494558219520808e+04  1.0462706779903870e+04  1.0432441638334851e+04  1.0404504212271508e+04  1.0379295481269681e+04  1.0356970955664528e+04  1.0337514863397882e+04  1.0320797145919865e+04  1.0306616480148734e+04  1.0294732109542514e+04  1.0284886835313258e+04  1.0276823118977085e+04  1.0270293892700602e+04  1.0265069367448430e+04  1.0260940869234706e+04  1.0257722516805115e+04  1.0255251375015465e+04  1.0253386571963290e+04  1.0252007749681305e+04  1.0251013123260678e+04  1.0250317347215385e+04  1.0249849326220121e+04  1.0249550055487556e+04  1.0249370528918862e+04  1.0249269704774750e+04  1.0249212471482453e+04  1.0249167475507154e+04  1.0249104738194932e+04  1.0248992466916510e+04  1.0248794681766381e+04  5.3303203089911349e+03  6.2618682130174457e+03  7.1348451158446805e+03  7.9188985821617334e+03  8.5937287333603017e+03  9.1516664209879236e+03  9.5955037579738109e+03  9.9353517250466030e+03  1.0185277380213589e+04  1.0360675054628935e+04  1.0476484055721003e+04  1.0546174120601037e+04  1.0581290443525857e+04  1.0591361270742858e+04  1.0584013873576559e+04  1.0565193767982853e+04  1.0539420366064674e+04  1.0510040892519430e+04  1.0479462673205146e+04  1.0449355320634826e+04  1.0420820876552179e+04  1.0394533464498256e+04  1.0370851658261900e+04  1.0349907354360072e+04  1.0331674941332911e+04  1.0316024270771442e+04  1.0302760523303861e+04  1.0291653619175464e+04  1.0282459395938367e+04  1.0274934387976349e+04  1.0268845702635779e+04  1.0263977196638356e+04  1.0260132911291674e+04  1.0257138521268733e+04  1.0254841384233798e+04  1.0253109642322814e+04  1.0251830716660374e+04  1.0250909448329383e+04  1.0250266069447838e+04  1.0249834132201224e+04  1.0249558477576216e+04  1.0249393284615971e+04  1.0249300196775541e+04  1.0249246479854561e+04  1.0249203066577236e+04  1.0249142424941174e+04  1.0249035483644720e+04  1.0248849514754931e+04  5.4758190153021797e+03  6.4142893455716976e+03  7.2863421336574529e+03  8.0590347556108272e+03  8.7131923243970086e+03  9.2447903940836241e+03  9.6606915604061978e+03  9.9742924954767768e+03  1.0201687698857681e+04  1.0359146252530014e+04  1.0461658234365264e+04  1.0