<?xml version="1.0"?>
<VTKFile type="UnstructuredGrid"  version="0.1"  >
<UnstructuredGrid>
<Piece  NumberOfPoints="1250" NumberOfCells="2352">
<Points>
<DataArray  type="Float64"  NumberOfComponents="3"  format="ascii">0 0 0  0.0336 0 0  0.0336 0.07729999999999999 0  0 0.07729999999999999 0  0.001400000000000002 0 0  0.002800000000000005 0 0  0.004200000000000008 0 0  0.005600000000000009 0 0  0.007000000000000011 0 0  0.008400000000000013 0 0  0.009800000000000019 0 0  0.01120000000000002 0 0  0.01260000000000003 0 0  0.01400000000000003 0 0  0.01540000000000004 0 0  0.01680000000000005 0 0  0.01820000000000004 0 0  0.01960000000000004 0 0  0.02100000000000004 0 0  0.02240000000000003 0 0  0.02380000000000003 0 0  0.02520000000000002 0 0  0.02660000000000002 0 0  0.02800000000000001 0 0  0.02940000000000001 0 0  0.03080000000000001 0 0  0.0322 0 0  0.0336 0.001577551020408161 0  0.0336 0.003155102040816321 0  0.0336 0.004732653061224482 0  0.0336 0.006310204081632642 0  0.0336 0.007887755102040803 0  0.0336 0.009465306122448964 0  0.0336 0.01104285714285712 0  0.0336 0.01262040816326528 0  0.0336 0.01419795918367344 0  0.0336 0.0157755102040816 0  0.0336 0.01735306122448976 0  0.0336 0.01893061224489792 0  0.0336 0.02050816326530608 0  0.0336 0.02208571428571425 0  0.0336 0.02366326530612241 0  0.0336 0.02524081632653058 0  0.0336 0.02681836734693874 0  0.0336 0.02839591836734691 0  0.0336 0.02997346938775507 0  0.0336 0.03155102040816323 0  0.0336 0.0331285714285714 0  0.0336 0.03470612244897956 0  0.0336 0.03628367346938772 0  0.0336 0.03786122448979588 0  0.0336 0.03943877551020405 0  0.0336 0.04101632653061221 0  0.0336 0.04259387755102037 0  0.0336 0.04417142857142854 0  0.0336 0.04574897959183671 0  0.0336 0.04732653061224486 0  0.0336 0.04890408163265302 0  0.0336 0.05048163265306119 0  0.0336 0.05205918367346936 0  0.0336 0.05363673469387752 0  0.0336 0.05521428571428568 0  0.0336 0.05679183673469385 0  0.0336 0.05836938775510202 0  0.0336 0.05994693877551018 0  0.0336 0.06152448979591834 0  0.0336 0.0631020408163265 0  0.0336 0.06467959183673468 0  0.0336 0.06625714285714283 0  0.0336 0.06783469387755101 0  0.0336 0.06941224489795916 0  0.0336 0.07098979591836733 0  0.0336 0.07256734693877549 0  0.0336 0.07414489795918365 0  0.0336 0.07572244897959182 0  0.03219999999999999 0.07729999999999999 0  0.03079999999999999 0.07729999999999999 0  0.02939999999999999 0.07729999999999999 0  0.02799999999999999 0.07729999999999999 0  0.02659999999999999 0.07729999999999999 0  0.02519999999999999 0.07729999999999999 0  0.02379999999999998 0.07729999999999999 0  0.02239999999999998 0.07729999999999999 0  0.02099999999999997 0.07729999999999999 0  0.01959999999999996 0.07729999999999999 0  0.01819999999999996 0.07729999999999999 0  0.01679999999999995 0.07729999999999999 0  0.01539999999999996 0.07729999999999999 0  0.01399999999999996 0.07729999999999999 0  0.01259999999999996 0.07729999999999999 0  0.01119999999999997 0.07729999999999999 0  0.009799999999999972 0.07729999999999999 0  0.008399999999999977 0.07729999999999999 0  0.006999999999999978 0.07729999999999999 0  0.005599999999999983 0.07729999999999999 0  0.004199999999999988 0.07729999999999999 0  0.00279999999999999 0.07729999999999999 0  0.001399999999999998 0.07729999999999999 0  0 0.07572244897959184 0  0 0.07414489795918368 0  0 0.07256734693877551 0  0 0.07098979591836735 0  0 0.06941224489795919 0  0 0.06783469387755103 0  0 0.06625714285714288 0  0 0.06467959183673472 0  0 0.06310204081632656 0  0 0.0615244897959184 0  0 0.05994693877551023 0  0 0.05836938775510207 0  0 0.05679183673469392 0  0 0.05521428571428574 0  0 0.05363673469387759 0  0 0.05205918367346941 0  0 0.05048163265306126 0  0 0.04890408163265308 0  0 0.04732653061224493 0  0 0.04574897959183676 0  0 0.0441714285714286 0  0 0.04259387755102043 0  0 0.04101632653061228 0  0 0.03943877551020411 0  0 0.03786122448979595 0  0 0.03628367346938779 0  0 0.03470612244897962 0  0 0.03312857142857146 0  0 0.03155102040816329 0  0 0.02997346938775513 0  0 0.02839591836734697 0  0 0.0268183673469388 0  0 0.02524081632653064 0  0 0.02366326530612247 0  0 0.02208571428571431 0  0 0.02050816326530614 0  0 0.01893061224489798 0  0 0.01735306122448981 0  0 0.01577551020408165 0  0 0.01419795918367349 0  0 0.01262040816326532 0  0 0.01104285714285716 0  0 0.009465306122448988 0  0 0.00788775510204083 0  0 0.006310204081632659 0  0 0.004732653061224501 0  0 0.003155102040816343 0  0 0.001577551020408172 0  0.001400000000000004 0.001577551020408172 0  0.001400000000000004 0.003155102040816329 0  0.001400000000000002 0.004732653061224501 0  0.001400000000000002 0.006310204081632645 0  0.001400000000000005 0.007887755102040823 0  0.001400000000000002 0.009465306122448981 0  0.001400000000000002 0.01104285714285717 0  0.001400000000000004 0.01262040816326531 0  0.0014 0.01419795918367349 0  0.001400000000000002 0.01577551020408166 0  0.001400000000000005 0.0173530612244898 0  0.001400000000000002 0.01893061224489797 0  0.001400000000000002 0.02050816326530613 0  0.001400000000000002 0.02208571428571431 0  0.001400000000000002 0.02366326530612247 0  0.001400000000000002 0.02524081632653063 0  0.001400000000000002 0.0268183673469388 0  0.001400000000000002 0.02839591836734696 0  0.001400000000000002 0.02997346938775513 0  0.001400000000000002 0.03155102040816328 0  0.001400000000000002 0.03312857142857147 0  0.001399999999999997 0.03470612244897962 0  0.001400000000000005 0.03628367346938778 0  0.001400000000000002 0.03786122448979594 0  0.001400000000000002 0.03943877551020411 0  0.001400000000000002 0.04101632653061228 0  0.001400000000000002 0.04259387755102043 0  0.001400000000000002 0.0441714285714286 0  0.0014 0.04574897959183676 0  0.001400000000000002 0.04732653061224492 0  0.001400000000000004 0.04890408163265308 0  0.001400000000000002 0.05048163265306126 0  0.001400000000000002 0.05205918367346941 0  0.0014 0.05363673469387758 0  0.001400000000000004 0.05521428571428574 0  0.001399999999999998 0.05679183673469391 0  0.001400000000000002 0.05836938775510207 0  0.0014 0.05994693877551023 0  0.001400000000000002 0.0615244897959184 0  0.001400000000000002 0.06310204081632656 0  0.001400000000000002 0.06467959183673472 0  0.0014 0.06625714285714286 0  0.001400000000000002 0.06783469387755102 0  0.001399999999999998 0.06941224489795919 0  0.001400000000000002 0.07098979591836735 0  0.0014 0.07256734693877552 0  0.001400000000000002 0.07414489795918368 0  0.001400000000000002 0.07572244897959184 0  0.002800000000000006 0.001577551020408165 0  0.002800000000000004 0.003155102040816343 0  0.002800000000000002 0.004732653061224487 0  0.002800000000000002 0.006310204081632652 0  0.002800000000000002 0.007887755102040813 0  0.0028 0.009465306122448981 0  0.002799999999999997 0.01104285714285715 0  0.0028 0.01262040816326532 0  0.0028 0.01419795918367348 0  0.0028 0.01577551020408165 0  0.002799999999999997 0.0173530612244898 0  0.0028 0.01893061224489797 0  0.002800000000000004 0.02050816326530613 0  0.0028 0.0220857142857143 0  0.0028 0.02366326530612247 0  0.002800000000000004 0.02524081632653064 0  0.0028 0.0268183673469388 0  0.0028 0.02839591836734696 0  0.002799999999999995 0.02997346938775512 0  0.002799999999999997 0.03155102040816328 0  0.002799999999999995 0.03312857142857146 0  0.0028 0.03470612244897962 0  0.002799999999999995 0.03628367346938778 0  0.002799999999999997 0.03786122448979594 0  0.002799999999999997 0.03943877551020411 0  0.002799999999999997 0.04101632653061228 0  0.002799999999999997 0.04259387755102043 0  0.002799999999999995 0.0441714285714286 0  0.002799999999999997 0.04574897959183676 0  0.002799999999999997 0.04732653061224493 0  0.002799999999999995 0.04890408163265308 0  0.002799999999999993 0.05048163265306124 0  0.002799999999999995 0.05205918367346941 0  0.002799999999999995 0.05363673469387757 0  0.002799999999999992 0.05521428571428574 0  0.002799999999999997 0.05679183673469391 0  0.002799999999999993 0.05836938775510207 0  0.002799999999999993 0.05994693877551022 0  0.002799999999999992 0.0615244897959184 0  0.002799999999999988 0.06310204081632655 0  0.002799999999999992 0.0646795918367347 0  0.002799999999999992 0.06625714285714286 0  0.00279999999999999 0.06783469387755103 0  0.00279999999999999 0.06941224489795919 0  0.002799999999999988 0.07098979591836735 0  0.00279999999999999 0.07256734693877552 0  0.002799999999999988 0.07414489795918368 0  0.00279999999999999 0.07572244897959184 0  0.004200000000000006 0.001577551020408172 0  0.004200000000000006 0.003155102040816329 0  0.004200000000000008 0.00473265306122448 0  0.004200000000000009 0.006310204081632652 0  0.004200000000000008 0.00788775510204082 0  0.004200000000000008 0.009465306122448978 0  0.004200000000000006 0.01104285714285716 0  0.004200000000000006 0.01262040816326532 0  0.004200000000000004 0.01419795918367349 0  0.004200000000000002 0.01577551020408165 0  0.004200000000000004 0.0173530612244898 0  0.004200000000000006 0.01893061224489797 0  0.004200000000000006 0.02050816326530613 0  0.004200000000000002 0.0220857142857143 0  0.004200000000000004 0.02366326530612247 0  0.004199999999999999 0.02524081632653062 0  0.004200000000000004 0.0268183673469388 0  0.004200000000000004 0.02839591836734696 0  0.004200000000000002 0.02997346938775512 0  0.004199999999999999 0.03155102040816328 0  0.004200000000000001 0.03312857142857145 0  0.004200000000000001 0.03470612244897962 0  0.004199999999999995 0.03628367346938778 0  0.004199999999999999 0.03786122448979594 0  0.004199999999999999 0.0394387755102041 0  0.004199999999999997 0.04101632653061227 0  0.004199999999999999 0.04259387755102043 0  0.004199999999999999 0.04417142857142859 0  0.004199999999999999 0.04574897959183676 0  0.004199999999999999 0.04732653061224492 0  0.004199999999999997 0.04890408163265308 0  0.004199999999999997 0.05048163265306124 0  0.004199999999999999 0.05205918367346941 0  0.004199999999999992 0.05363673469387757 0  0.0
[...]
<PointData  Scalars=" mean stress"> 
<DataArray  type="Float64"  Name=" mean stress"  format="ascii">6.3941311626793642e+04  6.0709306891040898e+04  3.2749995489439170e+04  3.2749990795472680e+04  3.4789759012327886e+04  2.5198434554352356e+04  2.1976597398314789e+04  1.9778546877679633e+04  1.8160179424186092e+04  1.6868414612695684e+04  1.5834552818420052e+04  1.5021985801355862e+04  1.4407450534042655e+04  1.3977220353906914e+04  1.3723212318398006e+04  1.3641406846772503e+04  1.3730874144822137e+04  1.3993545502593448e+04  1.4434717128681470e+04  1.5064450711756266e+04  1.5900202568773446e+04  1.6971653720095088e+04  1.8333259306458753e+04  2.0075055462080956e+04  2.2452041526099030e+04  2.6077981980579785e+04  3.1566284851487777e+04  4.0765144912416159e+04  3.1249298423264107e+04  2.9229099654568789e+04  2.8197212028826929e+04  2.7896212456327623e+04  2.7974093888281765e+04  2.8252245685347403e+04  2.8635861041037082e+04  2.9066515444176290e+04  2.9508090511516108e+04  2.9937891762906987e+04  3.0341965487623223e+04  3.0712274732599148e+04  3.1044860254482974e+04  3.1338581005378881e+04  3.1594214406005674e+04  3.1813798446750261e+04  3.2000146105939006e+04  3.2156488010672736e+04  3.2286213131029643e+04  3.2392685319862714e+04  3.2479118567611855e+04  3.2548497344119914e+04  3.2603531044229116e+04  3.2646633677876453e+04  3.2679921709836493e+04  3.2705224438104218e+04  3.2724102545812944e+04  3.2737871498006232e+04  3.2747627305222191e+04  3.2754272863099013e+04  3.2758543623184658e+04  3.2761031776071697e+04  3.2762208453792155e+04  3.2762443702721990e+04  3.2762024157213964e+04  3.2761168472365051e+04  3.2760040664483171e+04  3.2758761570649767e+04  3.2757418685436325e+04  3.2756074668145648e+04  3.2754774862669026e+04  3.2753554196627647e+04  3.2752443899303737e+04  3.2751478906953649e+04  3.2750702833778632e+04  3.2750185635323334e+04  3.2749948431131426e+04  3.2750047440117854e+04  3.2749874341873921e+04  3.2749495235266881e+04  3.2748929706088504e+04  3.2748257910996166e+04  3.2747548308372294e+04  3.2746859345949633e+04  3.2746237594664217e+04  3.2745718878068019e+04  3.2745329507735627e+04  3.2745087408902215e+04  3.2745003014339371e+04  3.2745079837084049e+04  3.2745314679321367e+04  3.2745697463094864e+04  3.2746210701665113e+04  3.2746828663572534e+04  3.2747516319413655e+04  3.2748228215562827e+04  3.2748907484531792e+04  3.2749485789438026e+04  3.2749885674000183e+04  3.2750034799744528e+04  3.2749954386389465e+04  3.2750178179374929e+04  3.2750724265271761e+04  3.2751514771156992e+04  3.2752490824264209e+04  3.2753609880354092e+04  3.2754838928803169e+04  3.2756147575336527e+04  3.2757501265770894e+04  3.2758854711412641e+04  3.2760145045444464e+04  3.2761284313329998e+04  3.2762150933664263e+04  3.2762579803356337e+04  3.2762350755024181e+04  3.2761175109724860e+04  3.2758680112420392e+04  3.2754391099760996e+04  3.2747711339545152e+04  3.2737899609415846e+04  3.2724045761779595e+04  3.2705044766996558e+04  3.2679570054030195e+04  3.2646047395465899e+04  3.2602631132120248e+04  3.2547185222523694e+04  3.2477272456182749e+04  3.2390156208587992e+04  3.2282820362868304e+04  3.2152014504369283e+04  3.1994333249382915e+04  3.1806340671376831e+04  3.1584753389954720e+04  3.1326699313509405e+04  3.1030073952177379e+04  3.0694024010535970e+04  3.0319601527858758e+04  2.9910656504799295e+04  2.9475083030333473e+04  2.9026643496101093e+04  2.8587711726106121e+04  2.8194047933564099e+04  2.7903658519213910e+04  2.7805612595145372e+04  2.8113358139263903e+04  2.9084420679840023e+04  3.1865343937869173e+04  4.5715859396165135e+04  3.9542012766900341e+04  3.6362088362603885e+04  3.2661000862740068e+04  3.0996065610952595e+04  3.0166628684477830e+04  2.9822459095466889e+04  2.9760351229321896e+04  2.9863020946496534e+04  3.0060800510361019e+04  3.0308848370848373e+04  3.0577989914163911e+04  3.0849152513435118e+04  3.1110082243090488e+04  3.1353249248966575e+04  3.1574435256685760e+04  3.1771743383674224e+04  3.1944883198765361e+04  3.2094645712779376e+04  3.2222515343989708e+04  3.2330383950994947e+04  3.2420342514898952e+04  3.2494532486746481e+04  3.2555043034655137e+04  3.2603843390454993e+04  3.2642741715745149e+04  3.2673363651267748e+04  3.2697145124886229e+04  3.2715335152941818e+04  3.2729005325047070e+04  3.2739063446437558e+04  3.2746269449781248e+04  3.2751252201077110e+04  3.2754526230823638e+04  3.2756507739179389e+04  3.2757529467645305e+04  3.2757854213570943e+04  3.2757686899615848e+04  3.2757185208074934e+04  3.2756468858546825e+04  3.2755627652816031e+04  3.2754728437171641e+04  3.2753821138314146e+04  3.2752944012252468e+04  3.2752128147101455e+04  3.2751401057579391e+04  3.2750789290716220e+04  3.2750313840762363e+04  3.2750015739857576e+04  3.1825320851305467e+04  3.3708483452559914e+04  3.3016750887591872e+04  3.2075968324504858e+04  3.1446591017897590e+04  3.1088339642762825e+04  3.0930523931860338e+04  3.0908251168843406e+04  3.0973875122474103e+04  3.1093537135906572e+04  3.1243366397718211e+04  3.1406729072341430e+04  3.1572223131141007e+04  3.1732253862830999e+04  3.1882003878934283e+04  3.2018675158773465e+04  3.2140923029347588e+04  3.2248429300801305e+04  3.2341579183685964e+04  3.2421217380836435e+04  3.2488465540674079e+04  3.2544587667503001e+04  3.2590893073269486e+04  3.2628668592388305e+04  3.2659133394455508e+04  3.2683411004628146e+04  3.2702514182563758e+04  3.2717339176642534e+04  3.2728666595077779e+04  3.2737166741078374e+04  3.2743407761419101e+04  3.2747865369454212e+04  3.2750933236519915e+04  3.2752933410876507e+04  3.2754126330826308e+04  3.2754720158055825e+04  3.2754879276684995e+04  3.2754731890497536e+04  3.2754376710958149e+04  3.2753888766552638e+04  3.2753324383144529e+04  3.2752725386136575e+04  3.2752122566342332e+04  3.2751538520923070e+04  3.2750989805274668e+04  3.2750491484858816e+04  3.2750066180678674e+04  3.2749777447761564e+04  2.7045930478347946e+04  3.0191280355377912e+04  3.1428263157536116e+04  3.1721683872017547e+04  3.1715990547409281e+04  3.1661261732270708e+04  3.1631281302536776e+04  3.1640842848305161e+04  3.1685262006752349e+04  3.1755081819506409e+04  3.1840929367823832e+04  3.1934982882849068e+04  3.2031235116521075e+04  3.2125336298795402e+04  3.2214318878732262e+04  3.2296313587296554e+04  3.2370294825525911e+04  3.2435865506696155e+04  3.2493081032035214e+04  3.2542308502933145e+04  3.2584116343439004e+04  3.2619189563485168e+04  3.2648266282222237e+04  3.2672091610421732e+04  3.2691385477540061e+04  3.2706821456697071e+04  3.2719014080766323e+04  3.2728512550927666e+04  3.2735799111336892e+04  3.2741290697138338e+04  3.2745342755652215e+04  3.2748254391712457e+04  3.2750274199122785e+04  3.2751606313259726e+04  3.2752416358588114e+04  3.2752837073267223e+04  3.2752973475040915e+04  3.2752907492481525e+04  3.2752702027112540e+04  3.2752404439180260e+04  3.2752049468740097e+04  3.2751661632024985e+04  3.2751257170320448e+04  3.2750845955868208e+04  3.2750433972482977e+04  3.2750029060452900e+04  3.2749659704047721e+04  3.2749397555825533e+04  2.3954558665453376e+04  2.7305827492292556e+04  2.9457070203230091e+04  3.0669704750331137e+04  3.1330488298497807e+04  3.1701256155120420e+04  3.1925007585098341e+04  3.2073470773199671e+04  3.2181999162882268e+04  3.2267909826336407e+04  3.2339717399133799e+04  3.2401643530686906e+04  3.2455829205984635e+04  3.2503424678708798e+04  3.2545126147886167e+04  3.2581437173179140e+04  3.2612791761423588e+04  3.2639607667374738e+04  3.2662304750849675e+04  3.2681306413259907e+04  3.2697033583885641e+04  3.2709896266428594e+04  3.2720285253885653e+04  3.2728565279393235e+04  3.2735070102550002e+04  3.2740099588621630e+04  3.2743918593324044e+04  3.2746757345279450e+04  3.2748812977262092e+04  3.2750251865461785e+04  3.2751212472685253e+04  3.2751808441610443e+04  3.2752131738153032e+04  3.2752255696164713e+04  3.2752237859313653e+04  3.2752122552408306e+04  3.2751943142196284e+04  3.2751723967646652e+04  3.2751481933872317e+04  3.2751227776841231e+04  3.2750967024382626e+04  3.2750700735601378e+04  3.2750426195941265e+04  3.2750138068495824e+04  3.2749831337977699e+04  3.2749506791312720e+04  3.2749189311597991e+04  3.2748935339711978e+04  2.1793997104170823e+04  2.5083112486789032e+04  2.7635142728460753e+04  2.9424031240270353e+04  3.0618654118972929e+04  3.1403591018725492e+04  3.1919381131227987e+04  3.2259908249834240e+04  3.2485238146396623e+04  3.2633697675688858e+04  3.2730119638267217e+04  3.2790958074428170e+04  3.2827363461585555e+04  3.2847036625330031e+04  3.2855369084559665e+04  3.2856165815415603e+04  3.2852118986963906e+04  3.2845128578808944e+04  3.2836525302201539e+04  3.2827228792297879e+04  3.2817861463269888e+04  3.2808831198997548e+04  3.2800391741582433e+04  3.2792686936137827e+04  3.2785783206914071e+04  3.2779693412931221e+04  3.2774394362935462e+04  3.2769839645609631e+04  3.2765968980523972e+04  3.2762714970595789e+04  3.2760007903166559e+04  3.2757779079169846e+04  3.2755963028907532e+04  3.2754498884986158e+04  3.2753331117843496e+04  3.2752409789803089e+04  3.2751690445600216e+04  3.2751133727835422e+04  3.2750704785164889e+04  3.2750372532983336e+04  3.2750108836776810e+04  3.2749887741925995e+04  3.2749685009238510e+04  3.2749478335180087e+04  3.2749249604066634e+04  3.2748988525833760e+04  3.2748704808660324e+04  3.2748425260882050e+04  2.0215569804993222e+04  2.3398402602239250e+04  2.6111536705808379e+04  2.8235730594366934e+04  2.9810193874912224e+04  3.0938226815129205e+04  3.1728345311606168e+04  3.2271111957833524e+04  3.2635524902993860e+04  3.2872291947280224e+04  3.3018278356272545e+04  3.3100278051263806e+04  3.3137813874160900e+04  3.3145128462121655e+04  3.3132591820880734e+04  3.3107708215276318e+04  3.3075849219566910e+04  3.3040796533826404e+04  3.3005149197588551e+04  3.2970631558063476e+04  3.2938326998047778e+04  3.2908855276345603e+04  3.2882506658394697e+04  3.2859342806833047e+04  3.2839272091522042e+04  3.2822105250133718e+04  3.2807596004787876e+04  3.2795470210730673e+04  3.2785446309622872e+04  3.2777249232993214e+04  3.2770619412606764e+04  3.2765318173930362e+04  3.2761130492491000e+04  3.2757865861913546e+04  3.2755357841926387e+04  3.2753462713466401e+04  3.2752057557994129e+04  3.2751037993595968e+04  3.2750315738844438e+04  3.2749816137356902e+04  3.2749475767137730e+04  3.2749240278570822e+04  3.2749062723067756e+04  3.2748902584221552e+04  3.2748726407475067e+04  3.2748508756891595e+04  3.2748237294987146e+04  3.2747903936803807e+04  1.9025547739199854e+04  2.2122483092378137e+04  2.4894974060165954e+04  2.7208514760960035e+04  2.9037749343331438e+04  3.0426526657502214e+04  3.1447259710079325e+04  3.2175499999581818e+04  3.2678441502057398e+04  3.3011583978303817e+04  3.3219064081640456e+04  3.3335249405734023e+04  3.3386535275128495e+04  3.3392966548283279e+04  3.3369591677867320e+04  3.3327559300239511e+04  3.3274995503506252e+04  3.3217701704529536e+04  3.3159707541237520e+04  3.3103706887616281e+04  3.3051399729337092e+04  3.3003758364698828e+04  3.2961232997788589e+04  3.2923909038843638e+04  3.2891626158714433e+04  3.2864067257870251e+04  3.2840823940136223e+04  3.2821443780284433e+04  3.2805463604117336e+04  3.2792432125794003e+04  3.2781924578486643e+04  3.2773551403373196e+04  3.2766962603517852e+04  3.2761849002988529e+04  3.2757941359566703e+04  3.2755008048081534e+04  3.2752851849081711e+04  3.2751306236291261e+04  3.2750231450094987e+04  3.2749510569632341e+04  3.2749045755862164e+04  3.2748754812614065e+04  3.2748568264085021e+04  3.2748427002495780e+04  3.2748280897784127e+04  3.2748086986546768e+04  3.2747808896031293e+04  3.2747405346458425e+04  1.8127338482281917e+04  2.1164418084715671e+04  2.3955617904702009e+04  2.6375239726597458e+04  2.8369873750987255e+04  2.9946142487407393e+04  3.1146828888969201e+04  3.2030155395656933e+04  3.2656365137303619e+04  3.3080755176904415e+04  3.3350861177760460e+04  3.3505921930110904e+04  3.3577430154857131e+04  3.3590115221225198e+04  3.3563027404484274e+04  3.3510570585993541e+04  3.3443420447047138e+04  3.3369309565918666e+04  3.3293681770083087e+04  3.3220227376507108e+04  3.3151314400984840e+04  3.3088331361239878e+04  3.3031956421262941e+04  3.2982366106020098e+04  3.2939395074841326e+04  3.2902656704928646e+04  3.2871632621432102e+04  3.2845737871715057e+04  3.2824367196081359e+04  3.2806926790892911e+04  3.2792855077652908e+04  3.2781635262529184e+04  3.2772801874099037e+04  3.2765942981952721e+04  3.2760699407390210e+04  3.2756761923624577e+04  3.2753867193735019e+04  3.2751792998904632e+04  3.2750353159106693e+04  3.2749392434708876e+04  3.2748781619132937e+04  3.2748412962954335e+04  3.2748196046559198e+04  3.2748054030536412e+04  3.2747920309032965e+04  3.2747734318315055e+04  3.2747437013733943e+04  3.2746958890283633e+04  1.7466859959597008e+04  2.0465455607957298e+04  2.3260309757279967e+04  2.5739151604017687e+04  2.7838264596405650e+04  2.9543026914282924e+04  3.0875286146120983e+04  3.1878332952037097e+04  3.2604354657487216e+04  3.3106042843351344e+04  3.3431825450323558e+04  3.3623680056680285e+04  3.3716545055879884e+04  3.3738618589513964e+04  3.3712086199576501e+04  3.3654004759286669e+04  3.3577191905899614e+04  3.3491044950471056e+04  3.3402256879008513e+04  3.3315421421719388e+04  3.3233531937558197e+04  3.3158384877375283e+04  3.3090900780699420e+04  3.3031375878310275e+04  3.2979676441881908e+04  3.2935386633261878e+04  3.2897919088538409e+04  3.2866596000594705e+04  3.2840707122880944e+04  3.2819549939834491e+04  3.2802456240689120e+04  3.2788808483945708e+04  3.2778048633567472e+04  3.2769681566881773e+04  3.2763274680504324e+04  3.2758454937798786e+04  3.2754904294953332e+04  3.2752354199714773e+04  3.2750579666346039e+04  3.2749393280752232e+04  3.2748639374033013e+04  3.2748188494901337e+04  3.2747932228570015e+04  3.2747778210321267e+04  3.2747645146442759e+04  3.2747456848418318e+04  3.2747135132207946e+04  3.2746588445944417e+04  1.7013131063179499e+04  1.9988772672325347e+04  2.2782588859547908e+04  2.5293687647494749e+04  2.7455667069435720e+04  2.9242719754771086e+04  3.0663473689482646e+04  3.1750409462875461e+04  3.2548904012051811e+04  3.3108585979262178e+04  3.3477550099161512e+04  3.3699086700692016e+04  3.3810237304644630e+04  3.3841523045484784e+04  3.3817340707773445e+04  3.3756683122712500e+04  3.3673970472733236e+04  3.3579870901487069e+04  3.3482048320654460e+04  3.3385811490541084e+04  3.3294659095502626e+04  3.3210726426790701e+04  3.3135144335728546e+04  3.3068322830896381e+04  3.3010171599863606e+04  3.2960268749342700e+04  3.2917987699273224e+04  3.2882590722710462e+04  3.2853296242934375e+04  3.2829325750854659e+04  3.2809935114550026e+04  3.2794434120201637e+04  3.2782197299443818e+04  3.2772668447158983e+04  3.2765360699159162e+04  3.2759853604486780e+04  3.2755788277039890e+04  3.2752861431407051e+04  3.2750818885560584e+04  3.2749448934471275e+04  3.2748575853110837e+04  3.2748053650989074e+04  3.2747760078190888e+04  3.2747590689795172e+04  3.2747452669061222e+04  3.2747257693343061e+04  3.2746913232707848e+04  3.2746312187080028e+04  1.6748509667262577e+04  1.9712294142559887e+04  2.2504308399858659e+04  2.5031056812582185e+04  2.7226092068983595e+04  2.9058473532888045e+04  3.0529733055170789e+04  3.1665967606876908e+04  3.2508136824964055e+04  3.3103572141006422e+04  3.3499759756089981e+04  3.3740485930321680e+04  3.3863878762290267e+04  3.3901767608935494e+04  3.3879849736522221e+04  3.3818287833169910e+04  3.3732489203048877e+04  3.3633916585909697e+04  3.3530848858709433e+04  3.3429053342956853e+04  3.3332357237656222e+04  3.3243119916051706e+04  3.3162614884844093e+04  3.3091333069785782e+04  3.3029219624836667e+04  3.2975855792032729e+04  3.2930596120670030e+04  3.2892669953513359e+04  3.2861254698408608e+04  3.2835527121002124e+04  3.2814697757908638e+04  3.2798032568979717e+04  3.2784865116992965e+04  3.2774601869670318e+04  3.2766722647049832e+04  3.2760777770438293e+04  3.2756383091691740e+04  3.2753213778588091e+04  3.2750997489343747e+04  3.2749507372113549e+04  3.2748555160485197e+04  3.2747984482816548e+04  3.2747664358179278e+04  3.2747482673042407e+04  3.2747339277198291e+04  3.2747138217465748e+04  3.2746778097176510e+04  3.2746142758515271e+04  1.6663986349653966e+04  1.9624346324864924e+04  2.2415070037468824e+04  2.4945687820874617e+04  2.7150174510266977e+04  2.8996331872587678e+04  3.0483540062381548e+04  3.1635795449641864e+04  3.2492492340969729e+04  3.3100064679804105e+04  3.3505674273875637e+04  3.3753182482415999e+04  3.3881022349491752e+04  3.3921428873262863e+04  3.3900521071177514e+04  3.3838851332394559e+04  3.3752161954668343e+04  3.3652189222201392e+04  3.3547426300804502e+04  3.3443802133396581e+04  3.3345261105864265e+04  3.3254243689564653e+04  3.3172076079155864e+04  3.3099280154558503e+04  3.3035815877624875e+04  3.2981267694394322e+04  3.2934985357483165e+04  3.2896188205674487e+04  3.2864040551108468e+04  3.2837704533546777e+04  3.2816375651431394e+04  3.2799305183791766e+04  3.2785812871510978e+04  3.2775292519033639e+04  3.2767212593108390e+04  3.2761113417307413e+04  3.2756602174290569e+04  3.2753346616631723e+04  3.2751068137238108e+04  3.2749534646811382e+04  3.2748553534042021e+04  3.2747964826362921e+04  3.2747634513555709e+04  3.2747447832876591e+04  3.2747302111029087e+04  3.2747098843189280e+04  3.2746733580834425e+04  3.2746087541340054e+04  1.6757036682249676e+04  1.9721413309939122e+04  2.2511462473131345e+04  2.5035441391627734e+04  2.7227642632855892e+04  2.9057803335413708e+04  3.0527649819151000e+04  3.1663234396617128e+04  3.2505334372526653e+04  3.3101072761243224e+04  3.3497753250356145e+04  3.3739029552743435e+04  3.3862946254486946e+04  3.3901287968985336e+04  3.3879734193223485e+04  3.3818446666093005e+04  3.3732840981827489e+04  3.3634392381190002e+04  3.3531393335542263e+04  3.3429624101644295e+04  3.3332923283460281e+04  3.3243659800184701e+04  3.3163114830398496e+04  3.3091785248586755e+04  3.3029620661099885e+04  3.2976205515013404e+04  3.2930896558523993e+04  3.2892924545123489e+04  3.2861467693318060e+04  3.2835703136244185e+04  3.2814841462044365e+04  3.2798148466725266e+04  3.2784957411457501e+04  3.2774674382962796e+04  3.2766778783585847e+04  3.2760820510418922e+04  3.2756415005079783e+04  3.2753237052370176e+04  3.2751013963054404e+04  3.2749518578897681e+04  3.2748562372411652e+04  3.2747988763131321e+04  3.2747666617694606e+04  3.2747483750346601e+04  3.2747339982717545e+04  3.2747139529355260e+04  3.2746780808928863e+04  3.2746148861252437e+04  1.7031023426288808e+04  2.0007432583055692e+04  2.2796700248186684e+04  2.5301846689346086e+04  2.7458011318785288e+04  2.9240690271937143e+04  3.0658804690111509e+04  3.1744660389783028e+04  3.2543203336780178e+04  3.3103620296497640e+04  3.3473644178035560e+04  3.3696312434115396e+04  3.3808513368338943e+04  3.3840690889446785e+04  3.3817215059476461e+04  3.3757082526969512e+04  3.3674733364743486e+04  3.3580862363903470e+04  3.3483161224143099e+04  3.3386964561053661e+04  3.3295793532398362e+04  3.3211802045103934e+04  3.3136135786154227e+04  3.3069216181004289e+04  3.3010961397917170e+04  3.2960955596854787e+04  3.2918576306166746e+04  3.2883088392975202e+04  3.2853711728486051e+04  3.2829668410363665e+04  3.2810214318177663e+04  3.2794658847795981e+04  3.2782375887297785e+04  3.2772808446004921e+04  3.2765468813039908e+04  3.2759935686446566e+04  3.2755849362987177e+04  3.2752905798321415e+04  3.2750850124332956e+04  3.2749470032154713e+04  3.2748589282012414e+04  3.2748061470358371e+04  3.2747764043356157e+04  3.2747592411242022e+04  3.2747453700528204e+04  3.2747259943103309e+04  3.2746918252621421e+04  3.2746324059339222e+04  1.7495909536697196e+04  2.0494436689509486e+04  2.3280751695344545e+04  2.5749598853293141e+04  2.7839712060878210e+04  2.9538232722559893e+04  3.0867087668614909e+04  3.1869080900181896e+04  3.2595636306106386e+04  3.3098735587351774e+04  3.3426273870777150e+04  3.3