<?xml version="1.0"?>
<VTKFile type="UnstructuredGrid"  version="0.1"  >
<UnstructuredGrid>
<Piece  NumberOfPoints="3167" NumberOfCells="6038">
<Points>
<DataArray  type="Float64"  NumberOfComponents="3"  format="ascii">2.2 2.9 0  0 2.9 0  2.8 2.9 0  5 2.9 0  5 0 0  0 0 0  2.16271186440678 2.9 0  2.125423728813559 2.9 0  2.088135593220339 2.9 0  2.050847457627119 2.9 0  2.013559322033898 2.9 0  1.976271186440678 2.9 0  1.938983050847457 2.9 0  1.901694915254237 2.9 0  1.864406779661016 2.9 0  1.827118644067796 2.9 0  1.789830508474575 2.9 0  1.752542372881355 2.9 0  1.715254237288134 2.9 0  1.677966101694914 2.9 0  1.640677966101693 2.9 0  1.603389830508473 2.9 0  1.566101694915253 2.9 0  1.528813559322032 2.9 0  1.491525423728812 2.9 0  1.454237288135591 2.9 0  1.416949152542371 2.9 0  1.37966101694915 2.9 0  1.34237288135593 2.9 0  1.305084745762709 2.9 0  1.267796610169489 2.9 0  1.230508474576268 2.9 0  1.193220338983048 2.9 0  1.155932203389827 2.9 0  1.118644067796607 2.9 0  1.081355932203387 2.9 0  1.044067796610166 2.9 0  1.006779661016946 2.9 0  0.9694915254237257 2.9 0  0.9322033898305055 2.9 0  0.8949152542372856 2.9 0  0.8576271186440652 2.9 0  0.820338983050845 2.9 0  0.783050847457625 2.9 0  0.7457627118644048 2.9 0  0.7084745762711844 2.9 0  0.6711864406779642 2.9 0  0.633898305084744 2.9 0  0.5966101694915238 2.9 0  0.5593220338983036 2.9 0  0.5220338983050834 2.9 0  0.4847457627118632 2.9 0  0.447457627118643 2.9 0  0.4101694915254228 2.9 0  0.3728813559322024 2.9 0  0.3355932203389822 2.9 0  0.2983050847457622 2.9 0  0.2610169491525418 2.9 0  0.2237288135593216 2.9 0  0.1864406779661016 2.9 0  0.1491525423728812 2.9 0  0.1118644067796613 2.9 0  0.07457627118644039 2.9 0  0.03728813559321997 2.9 0  2.792405063291139 2.9 0  2.784810126582279 2.9 0  2.777215189873418 2.9 0  2.769620253164557 2.9 0  2.762025316455697 2.9 0  2.754430379746836 2.9 0  2.746835443037975 2.9 0  2.739240506329114 2.9 0  2.731645569620254 2.9 0  2.724050632911393 2.9 0  2.716455696202532 2.9 0  2.708860759493671 2.9 0  2.701265822784811 2.9 0  2.69367088607595 2.9 0  2.686075949367089 2.9 0  2.678481012658228 2.9 0  2.670886075949368 2.9 0  2.663291139240507 2.9 0  2.655696202531646 2.9 0  2.648101265822786 2.9 0  2.640506329113925 2.9 0  2.632911392405064 2.9 0  2.625316455696203 2.9 0  2.617721518987342 2.9 0  2.610126582278482 2.9 0  2.602531645569621 2.9 0  2.59493670886076 2.9 0  2.587341772151899 2.9 0  2.579746835443038 2.9 0  2.572151898734178 2.9 0  2.564556962025317 2.9 0  2.556962025316456 2.9 0  2.549367088607595 2.9 0  2.541772151898734 2.9 0  2.534177215189874 2.9 0  2.526582278481013 2.9 0  2.518987341772152 2.9 0  2.511392405063292 2.9 0  2.503797468354431 2.9 0  2.49620253164557 2.9 0  2.488607594936709 2.9 0  2.481012658227848 2.9 0  2.473417721518988 2.9 0  2.465822784810127 2.9 0  2.458227848101266 2.9 0  2.450632911392406 2.9 0  2.443037974683545 2.9 0  2.435443037974684 2.9 0  2.427848101265823 2.9 0  2.420253164556962 2.9 0  2.412658227848102 2.9 0  2.405063291139241 2.9 0  2.39746835443038 2.9 0  2.389873417721519 2.9 0  2.382278481012658 2.9 0  2.374683544303798 2.9 0  2.367088607594937 2.9 0  2.359493670886076 2.9 0  2.351898734177215 2.9 0  2.344303797468355 2.9 0  2.336708860759494 2.9 0  2.329113924050633 2.9 0  2.321518987341773 2.9 0  2.313924050632912 2.9 0  2.306329113924051 2.9 0  2.29873417721519 2.9 0  2.291139240506329 2.9 0  2.283544303797469 2.9 0  2.275949367088608 2.9 0  2.268354430379747 2.9 0  2.260759493670887 2.9 0  2.253164556962026 2.9 0  2.245569620253165 2.9 0  2.237974683544304 2.9 0  2.230379746835443 2.9 0  2.222784810126583 2.9 0  2.215189873417722 2.9 0  2.207594936708861 2.9 0  4.96271186440678 2.9 0  4.925423728813559 2.9 0  4.888135593220339 2.9 0  4.850847457627118 2.9 0  4.813559322033898 2.9 0  4.776271186440677 2.9 0  4.738983050847457 2.9 0  4.701694915254237 2.9 0  4.664406779661016 2.9 0  4.627118644067796 2.9 0  4.589830508474575 2.9 0  4.552542372881355 2.9 0  4.515254237288135 2.9 0  4.477966101694914 2.9 0  4.440677966101694 2.9 0  4.403389830508473 2.9 0  4.366101694915252 2.9 0  4.328813559322032 2.9 0  4.291525423728811 2.9 0  4.254237288135591 2.9 0  4.21694915254237 2.9 0  4.17966101694915 2.9 0  4.14237288135593 2.9 0  4.105084745762709 2.9 0  4.067796610169489 2.9 0  4.030508474576268 2.9 0  3.993220338983048 2.9 0  3.955932203389827 2.9 0  3.918644067796607 2.9 0  3.881355932203387 2.9 0  3.844067796610166 2.9 0  3.806779661016946 2.9 0  3.769491525423725 2.9 0  3.732203389830505 2.9 0  3.694915254237285 2.9 0  3.657627118644065 2.9 0  3.620338983050845 2.9 0  3.583050847457625 2.9 0  3.545762711864405 2.9 0  3.508474576271184 2.9 0  3.471186440677964 2.9 0  3.433898305084744 2.9 0  3.396610169491524 2.9 0  3.359322033898303 2.9 0  3.322033898305083 2.9 0  3.284745762711863 2.9 0  3.247457627118643 2.9 0  3.210169491525423 2.9 0  3.172881355932202 2.9 0  3.135593220338982 2.9 0  3.098305084745762 2.9 0  3.061016949152542 2.9 0  3.023728813559321 2.9 0  2.986440677966101 2.9 0  2.949152542372881 2.9 0  2.911864406779661 2.9 0  2.87457627118644 2.9 0  2.83728813559322 2.9 0  5 0.1063822624840908 0  5 0.210636879963479 0  5 0.3128064053000104 0  5 0.4129325399736057 0  5 0.5110561519920087 0  5 0.6072172917522097 0  5 0.7014552086337308 0  5 0.7938083672768746 0  5 0.8843144624325437 0  5 0.9730104357533907 0  5 1.059932489779506 0  5 1.145116102681561 0  5 1.228596043237163 0  5 1.310406384819408 0  5 1.39058051967151 0  5 1.46915117219283 0  5 1.546150411689349 0  5 1.621609666350684 0  5 1.695559735780513 0  5 1.76803080351128 0  5 1.839052449831632 0  5 1.908653663284034 0  5 1.976862852540214 0  5 2.043707858250082 0  5 2.109215963970139 0  5 2.173413907547539 0  5 2.236327892447888 0  5 2.29798359737153 0  5 2.358406188061876 0  5 2.417620326899216 0  5 2.475650183036803 0  5 2.532519442044509 0  5 2.588251315695885 0  5 2.642868552136335 0  5 2.696393444001645 0  5 2.748847837883952 0  5 2.800253143882191 0  5 2.85063034388582 0  0.2631578947368421 0 0  0.5263157894736842 0 0  0.7894736842105263 0 0  1.052631578947368 0 0  1.31578947368421 0 0  1.578947368421053 0 0  1.842105263157895 0 0  2.105263157894737 0 0  2.368421052631579 0 0  2.631578947368421 0 0  2.894736842105263 0 0  3.157894736842105 0 0  3.421052631578947 0 0  3.684210526315789 0 0  3.947368421052632 0 0  4.210526315789473 0 0  4.473684210526315 0 0  4.736842105263158 0 0  0 2.850203682350569 0  0 2.799411438503675 0  0 2.747603349778291 0  0 2.694759099502208 0  0 2.640857964382145 0  0 2.58587880633613 0  0 2.52980006535898 0  0 2.472599749459174 0  0 2.414255427218689 0  0 2.35474421880616 0  0 2.294042786119219 0  0 2.232127324764723 0  0 2.1689735539481 0  0 2.104556707683346 0  0 2.038851524813415 0  0 1.971832238155654 0  0 1.903472565412125 0  0 1.83374569926617 0  0 1.762624296208474 0  0 1.690080464918761 0  0 1.616085756774205 0  0 1.540611154706337 0  0 1.463627060685571 0  0 1.385103284916206 0  0 1.305009033716617 0  0 1.223312897337225 0  0 1.139982838163732 0  0 1.054986177579937 0  0 0.9682895835804808 0  0 0.8798590579197967 0  0 0.789659921841535 0  0 0.6976568029903634 0  0 0.6038136217958807 0  0 0.508093576867624 0  0 0.4104591310957497 0  0 0.31087199635222 0  0 0.2092931188294389 0  0 0.1056826638508546 0  1.434832105734982 2.866945754976478 0  1.737156300412976 2.8700394402447 0  2.032203389830508 2.867707527316512 0  2.332911392405064 2.893422591869991 0  2.469810913221006 2.891944186617815 0  2.606221408801046 2.892519154968786 0  2.255455320556353 2.892068684938936 0  2.538247299178607 2.894964578175289 0  2.674683544303798 2.893422591869991 0  2.40126582278481 2.893422591869991 0  3.566125247274844 2.86502933617869 0  3.266101694915253 2.867707527316512 0  2.967796610169491 2.867707527316512 0  1.174288529771947 2.870795313883199 0  3.825423728813556 2.867707527316512 0  2.727766680241741 2.892655387639323 0  0.06601655192030442 1.502119107695954 0  4.933983535518289 1.50765079194109 0  0.9532124728076634 2.868722489784116 0  4.048935912505472 2.870640982963028 0  0.05930163367361851 1.866907161167415 0  4.943402512617702 1.871280731227115 0  4.271733869970415 2.865208656206698 0  0.724942092071192 2.863922936166216 0  0.05494499779911566 2.196469063120751 0  4.947228695435926 2.208030108416282 0  0.5406152149451962 2.866493807374646 0  4.459322033898304 2.868847558171501 0  2.18135593220339 2.875780645487384 0  2.81702715648046 2.876587550622478 0  4.928427208334964 1.186856072959362 0  0.07189226971603357 1.174626666111664 0  4.610299014391064 2.867003104061287 0  0.3897270066746503 2.869433095314649 0  1.5811324999839 2.868247328613121 0  1.887637879307645 2.869235851843492 0  3.413449426409203 2.867372048026557 0  3.116721298784139 2.865731235545648 0  2.644303797468355 2.893422591869991 0  2.370983221771223 2.892719513366117 0  2.302531645569621 2.89333678739629 0  2.758987341772152 2.894242393896969 0  0.04979653335696588 2.443411216910279 0  4.950470983481301 2.446866954190454 0  2.482937483056625 0.2513241088166693 0  1.70712950486069 0.1999998660928157 0  3.285846579639133 0.2292006256069719 0  4.907807122450741 0.8340823629079156 0  4.757627118644067 2.867707527316512 0  0.07734891246767406 0.8347594898806658 0  0.2390604736599493 2.861365431805748 0  0.8363213714273008 2.863896768913622 0  4.16086561018973 2.868916854014843 0  1.28254933196979 2.86761095296154 0  1.065094818264994 2.861284686078544 0  3.938181277358471 2.868651344087338 0  3.711492629398847 2.863574306894209 0  4.913693619806458 0.5579891341027028 0  0.08208328472281323 0.5559535993317524 0  2.696596932509445 2.892010483912606 0  0.04706410140274642 2.613055974506517 0  4.955577063959472 2.616518038416838 0  2.234177215189874 2.893422591869991 0  2.279795840517476 2.894038618939426 0  0.911735788765236 0.2117925286661764 0  4.055948041976698 0.2039101059740411 0  4.872119713756579 2.86763292637659 0  2.78011387899257 2.891535929611774 0  0.1327442468251299 2.85732490707
[...]
<PointData  Vectors="displacement"> 
<DataArray  type="Float64"  Name="displacement"  NumberOfComponents="3" format="ascii">7.3590951286387965e-05 -6.0405632110782073e-04 0.0000000000000000e+00  0.0000000000000000e+00 3.1331347086866733e-06 0.0000000000000000e+00  -7.8261421922721020e-05 -6.0958678299814924e-04 0.0000000000000000e+00  0.0000000000000000e+00 3.1600996745021727e-06 0.0000000000000000e+00  0.0000000000000000e+00 0.0000000000000000e+00 0.0000000000000000e+00  0.0000000000000000e+00 0.0000000000000000e+00 0.0000000000000000e+00  6.7918443228436723e-05 -5.2511371105021774e-04 0.0000000000000000e+00  6.4241763235941770e-05 -4.7628982846597808e-04 0.0000000000000000e+00  6.1764276662310967e-05 -4.3774926991783935e-04 0.0000000000000000e+00  5.9840581363438465e-05 -4.0516522686848898e-04 0.0000000000000000e+00  5.8238623767912235e-05 -3.7673531387800676e-04 0.0000000000000000e+00  5.6848110122164671e-05 -3.5143550881696153e-04 0.0000000000000000e+00  5.5599999946446901e-05 -3.2860392826603111e-04 0.0000000000000000e+00  5.4446917655356881e-05 -3.0778536051629573e-04 0.0000000000000000e+00  5.3356073367193447e-05 -2.8864702444201791e-04 0.0000000000000000e+00  5.2305599874168718e-05 -2.7094288930149462e-04 0.0000000000000000e+00  5.1278889662612771e-05 -2.5448569845871224e-04 0.0000000000000000e+00  5.0264075247482113e-05 -2.3912337232085833e-04 0.0000000000000000e+00  4.9253373397312559e-05 -2.2473282017560834e-04 0.0000000000000000e+00  4.8241508365117330e-05 -2.1121407860623639e-04 0.0000000000000000e+00  4.7224666859956694e-05 -1.9848467718893640e-04 0.0000000000000000e+00  4.6200519903728120e-05 -1.8647439594836340e-04 0.0000000000000000e+00  4.5167868653420525e-05 -1.7512340708902775e-04 0.0000000000000000e+00  4.4125483005150045e-05 -1.6437998042025768e-04 0.0000000000000000e+00  4.3073719650476647e-05 -1.5419918461871104e-04 0.0000000000000000e+00  4.2012956505073114e-05 -1.4454182499637954e-04 0.0000000000000000e+00  4.0943650316574053e-05 -1.3537351192205441e-04 0.0000000000000000e+00  3.9866421088776492e-05 -1.2666374672679807e-04 0.0000000000000000e+00  3.8782282589577141e-05 -1.1838472906425659e-04 0.0000000000000000e+00  3.7691836115688575e-05 -1.1051219797799760e-04 0.0000000000000000e+00  3.6596173720296679e-05 -1.0302430368065650e-04 0.0000000000000000e+00  3.5496272408037784e-05 -9.5900933988968062e-05 0.0000000000000000e+00  3.4393049223819825e-05 -8.9123710580106780e-05 0.0000000000000000e+00  3.3287104101119484e-05 -8.2676481975116494e-05 0.0000000000000000e+00  3.2179717104024048e-05 -7.6544130955626312e-05 0.0000000000000000e+00  3.1071096950988193e-05 -7.0712478612378730e-05 0.0000000000000000e+00  2.9962455316145059e-05 -6.5169072857320233e-05 0.0000000000000000e+00  2.8854358078249643e-05 -5.9902442106483743e-05 0.0000000000000000e+00  2.7747038133244735e-05 -5.4901938813040127e-05 0.0000000000000000e+00  2.6641427796351089e-05 -5.0157228930219814e-05 0.0000000000000000e+00  2.5537798180444641e-05 -4.5659459778035487e-05 0.0000000000000000e+00  2.4436662649163156e-05 -4.1400050451318067e-05 0.0000000000000000e+00  2.3338344330789819e-05 -3.7371111365930460e-05 0.0000000000000000e+00  2.2243098463510999e-05 -3.3565513823993378e-05 0.0000000000000000e+00  2.1151223725887484e-05 -2.9976449653970144e-05 0.0000000000000000e+00  2.0062878822066465e-05 -2.6597706838723125e-05 0.0000000000000000e+00  1.8978211724677057e-05 -2.3423529118902595e-05 0.0000000000000000e+00  1.7897296976831207e-05 -2.0448572603539228e-05 0.0000000000000000e+00  1.6820158222849138e-05 -1.7667883718117752e-05 0.0000000000000000e+00  1.5746835789741731e-05 -1.5076962704015228e-05 0.0000000000000000e+00  1.4677272820581637e-05 -1.2671575296992127e-05 0.0000000000000000e+00  1.3611389794119126e-05 -1.0447898755671247e-05 0.0000000000000000e+00  1.2549071044264230e-05 -8.4023998665366584e-06 0.0000000000000000e+00  1.1490162677900441e-05 -6.5318875703606113e-06 0.0000000000000000e+00  1.0434493253554031e-05 -4.8334340422530145e-06 0.0000000000000000e+00  9.3818522989681420e-06 -3.3044340482715087e-06 0.0000000000000000e+00  8.3320378261305123e-06 -1.9425492382045603e-06 0.0000000000000000e+00  7.2847219843189537e-06 -7.4565119433080141e-07 0.0000000000000000e+00  6.2396973078811136e-06 2.8804958044728591e-07 0.0000000000000000e+00  5.1966488738777032e-06 1.1600816464204695e-06 0.0000000000000000e+00  4.1553034278687048e-06 1.8717833153379182e-06 0.0000000000000000e+00  3.1152637181662568e-06 2.4242449052919496e-06 0.0000000000000000e+00  2.0762676584780325e-06 2.8182709386780211e-06 0.0000000000000000e+00  1.0379595461845878e-06 3.0544507511726608e-06 0.0000000000000000e+00  -9.5556337897528796e-05 -6.8183617491770902e-04 0.0000000000000000e+00  -9.1464737874252317e-05 -7.0671021976788199e-04 0.0000000000000000e+00  -8.8299612815163296e-05 -7.2433749292664235e-04 0.0000000000000000e+00  -8.5414368160660628e-05 -7.3887661974321526e-04 0.0000000000000000e+00  -8.2928864108417676e-05 -7.5176860415581261e-04 0.0000000000000000e+00  -8.0515343386331723e-05 -7.6354506550421416e-04 0.0000000000000000e+00  -7.8117937747168963e-05 -7.7441147367789381e-04 0.0000000000000000e+00  -7.5731671769777606e-05 -7.8450047350726686e-04 0.0000000000000000e+00  -7.3348805597094733e-05 -7.9391386187794395e-04 0.0000000000000000e+00  -7.0967920315169897e-05 -8.0272933585260491e-04 0.0000000000000000e+00  -6.8587655612902616e-05 -8.1100608713522695e-04 0.0000000000000000e+00  -6.6206305629896333e-05 -8.1879135493528649e-04 0.0000000000000000e+00  -6.3823657012307544e-05 -8.2612440023984031e-04 0.0000000000000000e+00  -6.1439617675203322e-05 -8.3303669975229224e-04 0.0000000000000000e+00  -5.9053450441570570e-05 -8.3955492159288475e-04 0.0000000000000000e+00  -5.6665751235671727e-05 -8.4570284813747522e-04 0.0000000000000000e+00  -5.4276207763844086e-05 -8.5149990506757766e-04 0.0000000000000000e+00  -5.1884825599253405e-05 -8.5696297808957576e-04 0.0000000000000000e+00  -4.9491596430150776e-05 -8.6210697308385152e-04 0.0000000000000000e+00  -4.7096561031071194e-05 -8.6694483377499785e-04 0.0000000000000000e+00  -4.4699781407441181e-05 -8.7148802420691871e-04 0.0000000000000000e+00  -4.2301375541339156e-05 -8.7574666070726066e-04 0.0000000000000000e+00  -3.9901409660576535e-05 -8.7972967797720172e-04 0.0000000000000000e+00  -3.7500003693608784e-05 -8.8344510851457217e-04 0.0000000000000000e+00  -3.5097263560353263e-05 -8.8690008656105274e-04 0.0000000000000000e+00  -3.2693300437912301e-05 -8.9010089954486482e-04 0.0000000000000000e+00  -3.0288313778865099e-05 -8.9305321366577636e-04 0.0000000000000000e+00  -2.7882243559681733e-05 -8.9576204505115132e-04 0.0000000000000000e+00  -2.5475320439507874e-05 -8.9823194963053489e-04 0.0000000000000000e+00  -2.3067665442510561e-05 -9.0046689779343318e-04 0.0000000000000000e+00  -2.0659374657707622e-05 -9.0247043487953239e-04 0.0000000000000000e+00  -1.8250505795732899e-05 -9.0424563685570145e-04 0.0000000000000000e+00  -1.5841161133195430e-05 -9.0579520473877317e-04 0.0000000000000000e+00  -1.3431469564016509e-05 -9.0712143970939172e-04 0.0000000000000000e+00  -1.1021434999556688e-05 -9.0822623828710255e-04 0.0000000000000000e+00  -8.6112725940402454e-06 -9.0911128593053553e-04 0.0000000000000000e+00  -6.2009201378477875e-06 -9.0977780138917904e-04 0.0000000000000000e+00  -3.7905257786315055e-06 -9.1022671506163738e-04 0.0000000000000000e+00  -1.3802085953021871e-06 -9.1045868384913168e-04 0.0000000000000000e+00  1.0299787416975826e-06 -9.1047402558530610e-04 0.0000000000000000e+00  3.4399353916926608e-06 -9.1027276278918550e-04 0.0000000000000000e+00  5.8495679189869032e-06 -9.0985462239080521e-04 0.0000000000000000e+00  8.2587770269609063e-06 -9.0921903501323727e-04 0.0000000000000000e+00  1.0667441293349317e-05 -9.0836509433045941e-04 0.0000000000000000e+00  1.3075498619885038e-05 -9.0729159246864322e-04 0.0000000000000000e+00  1.5482818931243824e-05 -9.0599703905535137e-04 0.0000000000000000e+00  1.7889286400325494e-05 -9.0447954435209500e-04 0.0000000000000000e+00  2.0294788827972244e-05 -9.0273687717145625e-04 0.0000000000000000e+00  2.2699214608264337e-05 -9.0076645337078287e-04 0.0000000000000000e+00  2.5102388343587486e-05 -8.9856527215474941e-04 0.0000000000000000e+00  2.7504210250519346e-05 -8.9612996496186439e-04 0.0000000000000000e+00  2.9904555845614697e-05 -8.9345661322607370e-04 0.0000000000000000e+00  3.2303157131931069e-05 -8.9054086327613612e-04 0.0000000000000000e+00  3.4699946521245694e-05 -8.8737787737849512e-04 0.0000000000000000e+00  3.7094723127710178e-05 -8.8396210549560180e-04 0.0000000000000000e+00  3.9487300326292098e-05 -8.8028740878306230e-04 0.0000000000000000e+00  4.1877479953602814e-05 -8.7634685543464734e-04 0.0000000000000000e+00  4.4265164882534103e-05 -8.7213272181663800e-04 0.0000000000000000e+00  4.6650045178211123e-05 -8.6763610889097520e-04 0.0000000000000000e+00  4.9031861171672545e-05 -8.6284745228621025e-04 0.0000000000000000e+00  5.1410297093746350e-05 -8.5775555051685224e-04 0.0000000000000000e+00  5.3785120008232858e-05 -8.5234784368230679e-04 0.0000000000000000e+00  5.6155917162162684e-05 -8.4661004757434672e-04 0.0000000000000000e+00  5.8522257409923969e-05 -8.4052580545168447e-04 0.0000000000000000e+00  6.0883587642193200e-05 -8.3407647668310304e-04 0.0000000000000000e+00  6.3239327207866293e-05 -8.2724015814534873e-04 0.0000000000000000e+00  6.5588317848329440e-05 -8.1999149246432936e-04 0.0000000000000000e+00  6.7929802784397314e-05 -8.1230059875700531e-04 0.0000000000000000e+00  7.0263047694979261e-05 -8.0413268053661994e-04 0.0000000000000000e+00  7.2585307520613192e-05 -7.9544329914739268e-04 0.0000000000000000e+00  7.4895255504354809e-05 -7.8617883657037429e-04 0.0000000000000000e+00  7.7193191781537595e-05 -7.7627346679149582e-04 0.0000000000000000e+00  7.9479199405919229e-05 -7.6563944598497739e-04 0.0000000000000000e+00  8.1756128799612111e-05 -7.5414569463790548e-04 0.0000000000000000e+00  8.4027889056754500e-05 -7.4159340228684644e-04 0.0000000000000000e+00  8.6209211226842387e-05 -7.2768974647668733e-04 0.0000000000000000e+00  8.8201579996329276e-05 -7.1241564179762144e-04 0.0000000000000000e+00  9.3090305892060506e-05 -6.8827171798369535e-04 0.0000000000000000e+00  -1.0411148175480379e-06 3.0813942022594430e-06 0.0000000000000000e+00  -2.0825803825901541e-06 2.8451466046253591e-06 0.0000000000000000e+00  -3.1247441035425808e-06 2.4510136971263806e-06 0.0000000000000000e+00  -4.1679498504164706e-06 1.8984024975600228e-06 0.0000000000000000e+00  -5.2125375592279976e-06 1.1864903297096539e-06 0.0000000000000000e+00  -6.2588376227863037e-06 3.1418165445949710e-07 0.0000000000000000e+00  -7.3071427336563690e-06 -7.1978828523509435e-07 0.0000000000000000e+00  -8.3577783243836301e-06 -1.9170185048392722e-06 0.0000000000000000e+00  -9.4110121222544232e-06 -3.2793194441511462e-06 0.0000000000000000e+00  -1.0467109747029020e-05 -4.8087808678493011e-06 0.0000000000000000e+00  -1.1526308226650791e-05 -6.5077421785666175e-06 0.0000000000000000e+00  -1.2588827951061337e-05 -8.3788244206078429e-06 0.0000000000000000e+00  -1.3654853896068654e-05 -1.0424943080056209e-05 0.0000000000000000e+00  -1.4724541131236081e-05 -1.2649305136566182e-05 0.0000000000000000e+00  -1.5798021509059104e-05 -1.5055433823719341e-05 0.0000000000000000e+00  -1.6875384644188252e-05 -1.7647180496741342e-05 0.0000000000000000e+00  -1.7956690559041972e-05 -2.0428730087918369e-05 0.0000000000000000e+00  -1.9041937268228395e-05 -2.3404680495425398e-05 0.0000000000000000e+00  -2.0131101278852883e-05 -2.6579931443879421e-05 0.0000000000000000e+00  -2.1224118582833740e-05 -2.9959841356864728e-05 0.0000000000000000e+00  -2.2320928621806942e-05 -3.3550180739693776e-05 0.0000000000000000e+00  -2.3421200548331785e-05 -3.7357065901208984e-05 0.0000000000000000e+00  -2.4524861884576581e-05 -4.1387401768144051e-05 0.0000000000000000e+00  -2.5631587939162273e-05 -4.5648409686501548e-05 0.0000000000000000e+00  -2.6741068505258642e-05 -5.0147926943496352e-05 0.0000000000000000e+00  -2.7852907686607849e-05 -5.4894433454114818e-05 0.0000000000000000e+00  -2.8966658339692345e-05 -5.9897109930613948e-05 0.0000000000000000e+00  -3.0081810365575657e-05 -6.5165888176249904e-05 0.0000000000000000e+00  -3.1197852337891394e-05 -7.0711543198760570e-05 0.0000000000000000e+00  -3.2314152260767223e-05 -7.6545706997281147e-05 0.0000000000000000e+00  -3.3430007938460649e-05 -8.2681088788442788e-05 0.0000000000000000e+00  -3.4544683158818693e-05 -8.9131463276740264e-05 0.0000000000000000e+00  -3.5657836175425837e-05 -9.5912091783077530e-05 0.0000000000000000e+00  -3.6767735253648962e-05 -1.0303941344025531e-04 0.0000000000000000e+00  -3.7874340922748227e-05 -1.1053165052254201e-04 0.0000000000000000e+00  -3.8976708250178348e-05 -1.1840868690354011e-04 0.0000000000000000e+00  -4.0073912426846542e-05 -1.2669269908245891e-04 0.0000000000000000e+00  -4.1165008632352113e-05 -1.3540831384579487e-04 0.0000000000000000e+00  -4.2249488573874684e-05 -1.4458303410647697e-04 0.0000000000000000e+00  -4.3326901363110064e-05 -1.5424758006135414e-04 0.0000000000000000e+00  -4.4396789763297789e-05 -1.6443659732214621e-04 0.0000000000000000e+00  -4.5459004590965377e-05 -1.7518953163173933e-04 0.0000000000000000e+00  -4.6514292064719024e-05 -1.8655127272714777e-04 0.0000000000000000e+00  -4.7563008932448916e-05 -1.9857359614690299e-04 0.0000000000000000e+00  -4.8606766377302739e-05 -2.1131645270170855e-04 0.0000000000000000e+00  -4.9648756977846606e-05 -2.2485099064478248e-04 0.0000000000000000e+00  -5.0693494020759343e-05 -2.3926044579491889e-04 0.0000000000000000e+00  -5.1746845579892979e-05 -2.5464582329292744e-04 0.0000000000000000e+00  -5.2818432003192260e-05 -2.7112917634884129e-04 0.0000000000000000e+00  -5.3919250400102078e-05 -2.8886207219661037e-04 0.0000000000000000e+00  -5.5069084515550168e-05 -3.0803921797349935e-04 0.0000000000000000e+00  -5.6291280995092104e-05 -3.2890196154057707e-04 0.0000000000000000e+00  -5.7620313522026273e-05 -3.5179342449328236e-04 0.0000000000000000e+00  -5.9110660919417659e-05 -3.7716746202046732e-04 0.0000000000000000e+00  -6.0840508616408302e-05 -4.0569178750879468e-04 0.0000000000000000e+00  -6.2947106966364211e-05 -4.3841087550103584e-04 0.0000000000000000e+00  -6.5616274548375818e-05 -4.7717613034146841e-04 0.0000000000000000e+00  -6.9835685521245074e-05 -5.2635244957328551e-04 0.0000000000000000e+00  0.0000000000000000e+00 -4.5218502602339525e-06 0.0000000000000000e+00  0.0000000000000000e+00 -8.2646614468569889e-06 0.0000000000000000e+00  0.0000000000000000e+00 -1.1335915691138873e-05 0.0000000000000000e+00  0.0000000000000000e+00 -1.3826927039653966e-05 0.0000000000000000e+00  0.0000000000000000e+00 -1.5805067485138580e-05 0.0000000000000000e+00  0.0000000000000000e+00 -1.7326592757397792e-05 0.0000000000000000e+00  0.0000000000000000e+00 -1.8437793591154908e-05 0.0000000000000000e+00  0.0000000000000000e+00 -1.9177792185413292e-05 0.0000000000000000e+00  0.0000000000000000e+00 -1.9576808628343217e-05 0.0000000000000000e+00  0.0000000000000000e+00 -1.9667363830426730e-05 0.0000000000000000e+00  0.0000000000000000e+00 -1.9475073596594377e-05 0.0000000000000000e+00  0.0000000000000000e+00 -1.9025680158472422e-05 0.0000000000000000e+00  0.0000000000000000e+00 -1.8345313423869633e-05 0.0000000000000000e+00  0.0000000000000000e+00 -1.7459157667615265e-05 0.0000000000000000e+00  0.0000000000000000e+00 -1.6392801353148432e-05 0.0000000000000000e+00  0.0000000000000000e+00 -1.5172455809507456e-05 0.0000000000000000e+00  0.0000000000000000e+00 -1.3825213858144329e-05 0.0000000000000000e+00  0.0000000000000000e+00 -1.2377981960946307e-05 0.0000000000000000e+00  0.0000000000000000e+00 -1.0858001993876088e-05 0.0000000000000000e+00  0.0000000000000000e+00 -9.2925001227186242e-06 0.0000000000000000e+00  0.0000000000000000e+00 -7.7083750162944801e-06 0.0000000000000000e+00  0.0000000000000000e+00 -6.1315982141985246e-06 0.0000000000000000e+00  0.0000000000000000e+00 -4.5874598463066267e-06 0.0000000000000000e+00  0.0000000000000000e+00 -3.0989614124270868e-06 0.0000000000000000e+00  0.0000000000000000e+00 -1.6883313043144903e-06 0.0000000000000000e+00  0.0000000000000000e+00 -3.7578463891387013e-07 0.0000000000000000e+00  0.0000000000000000e+00 8.2169237509078127e-07 0.0000000000000000e+00  0.0000000000000000e+00 1.8883871414823665e-06 0.0000000000000000e+00  0.0000000000000000e+00 2.8117156094290979e-06 0.0000000000000000e+00  0.0000000000000000e+00 3.5816111574454922e-06 0.0000000000000000e+00  0.0000000000000000e+00 4.1905294685158131e-06 0.0000000000000000e+00  0.0000000000000000e+00 4.6336406258491618e-06 0.0000000000000000e+00  0.0000000000000000e+00 4.9085352661122136e-06 0.0000000000000000e+00  0.0000000000000000e+00 5.0150617946375174e-06 0.0000000000000000e+00  0.0000000000000000e+00 4.9553135601099820e-06 0.0000000000000000e+00  0.0000000000000000e+00 4.7333609328280192e-06 0.0000000000000000e+00  0.0000000000000000e+00 4.3551029600011966e-06 0.0000000000000000e+00  0.0000000000000000e+00 3.8277958630944670e-06 0.0000000000000000e+00  0.0000000000000000e+00 0.0000000000000000e+00 0.0000000000000000e+00  0.0000000000000000e+00 0.0000000000000000e+00 0.0000000000000000e+00  0.0000000000000000e+00 0.0000000000000000e+00 0.0000000000000000e+00  0.0000000000000000e+00 0.0000000000000000e+00 0.0000000000000000e+00  0.0000000000000000e+00 0.0000000000000000e+00 0.0000000000000000e+00  0.0000000000000000e+00 0.0000000000000000e+00 0.0000000000000000e+00  0.0000000000000000e+00 0.0000000000000000e+00 0.0000000000000000e+00  0.0000000000000000e+00 0.0000000000000000e+00 0.0000000000000000e+00  0.0000000000000000e+00 0.0000000000000000e+00 0.0000000000000000e+00  0.0000000000000000e+00 0.0000000000000000e+00 0.0000000000000000e+00  0.0000000000000000e+00 0.0000000000000000e+00 0.0000000000000000e+00  0.0000000000000000e+00 0.0000000000000000e+00 0.0000000000000000e+00  0.0000000000000000e+00 0.0000000000000000e+00 0.0000000000000000e+00  0.0000000000000000e+00 0.0000000000000000e+00 0.0000000000000000e+00  0.0000000000000000e+00 0.0000000000000000e+00 0.0000000000000000e+00  0.0000000000000000e+00 0.0000000000000000e+00 0.0000000000000000e+00  0.0000000000000000e+00 0.0000000000000000e+00 0.0000000000000000e+00  0.0000000000000000e+00 0.0000000000000000e+00 0.0000000000000000e+00  0.0000000000000000e+00 3.8037024146800546e-06 0.0000000000000000e+00  0.0000000000000000e+00 4.3311993666704721e-06 0.0000000000000000e+00  0.0000000000000000e+00 4.7069823414102081e-06 0.0000000000000000e+00  0.0000000000000000e+00 4.9240445187027931e-06 0.0000000000000000e+00  0.0000000000000000e+00 4.9766350045806312e-06 0.0000000000000000e+00  0.0000000000000000e+00 4.8610269319494478e-06 0.0000000000000000e+00  0.0000000000000000e+00 4.5754966533471303e-06 0.0000000000000000e+00  0.0000000000000000e+00 4.1205149636820326e-06 0.0000000000000000e+00  0.0000000000000000e+00 3.4989087766647876e-06 0.0000000000000000e+00  0.0000000000000000e+00 2.7161311021543850e-06 0.0000000000000000e+00  0.0000000000000000e+00 1.7799125806546438e-06 0.0000000000000000e+00  0.0000000000000000e+00 7.0138160226932475e-07 0.0000000000000000e+00  0.0000000000000000e+00 -5.0700114634888726e-07 0.0000000000000000e+00  0.0000000000000000e+00 -1.8291490243073132e-06 0.0000000000000000e+00  0.0000000000000000e+00 -3.2472365595666119e-06 0.0000000000000000e+00  0.0000000000000000e+00 -4.7406717339154792e-06 0.0000000000000000e+00  0.0000000000000000e+00 -6.2874730593447392e-06 0.0000000000000000e+00  0.0000000000000000e+00 -7.8642462626357867e-06 0.0000000000000000e+00  0.0000000000000000e+00 -9.4454968003469479e-06 0.0000000000000000e+00  0.0000000000000000e+00 -1.1005239937289547e-05 0.0000000000000000e+00  0.0000000000000000e+00 -1.2516770790337137e-05 0.0000000000000000e+00  0.0000000000000000e+00 -1.3953137816778387e-05 0.0000000000000000e+00  0.0000000000000000e+00 -1.5287268298853523e-05 0.0000000000000000e+00  0.0000000000000000e+00 -1.6