<?xml version="1.0"?>
<VTKFile type="UnstructuredGrid"  version="0.1"  >
<UnstructuredGrid>
<Piece  NumberOfPoints="3167" NumberOfCells="6038">
<Points>
<DataArray  type="Float64"  NumberOfComponents="3"  format="ascii">2.2 2.9 0  0 2.9 0  2.8 2.9 0  5 2.9 0  5 0 0  0 0 0  2.16271186440678 2.9 0  2.125423728813559 2.9 0  2.088135593220339 2.9 0  2.050847457627119 2.9 0  2.013559322033898 2.9 0  1.976271186440678 2.9 0  1.938983050847457 2.9 0  1.901694915254237 2.9 0  1.864406779661016 2.9 0  1.827118644067796 2.9 0  1.789830508474575 2.9 0  1.752542372881355 2.9 0  1.715254237288134 2.9 0  1.677966101694914 2.9 0  1.640677966101693 2.9 0  1.603389830508473 2.9 0  1.566101694915253 2.9 0  1.528813559322032 2.9 0  1.491525423728812 2.9 0  1.454237288135591 2.9 0  1.416949152542371 2.9 0  1.37966101694915 2.9 0  1.34237288135593 2.9 0  1.305084745762709 2.9 0  1.267796610169489 2.9 0  1.230508474576268 2.9 0  1.193220338983048 2.9 0  1.155932203389827 2.9 0  1.118644067796607 2.9 0  1.081355932203387 2.9 0  1.044067796610166 2.9 0  1.006779661016946 2.9 0  0.9694915254237257 2.9 0  0.9322033898305055 2.9 0  0.8949152542372856 2.9 0  0.8576271186440652 2.9 0  0.820338983050845 2.9 0  0.783050847457625 2.9 0  0.7457627118644048 2.9 0  0.7084745762711844 2.9 0  0.6711864406779642 2.9 0  0.633898305084744 2.9 0  0.5966101694915238 2.9 0  0.5593220338983036 2.9 0  0.5220338983050834 2.9 0  0.4847457627118632 2.9 0  0.447457627118643 2.9 0  0.4101694915254228 2.9 0  0.3728813559322024 2.9 0  0.3355932203389822 2.9 0  0.2983050847457622 2.9 0  0.2610169491525418 2.9 0  0.2237288135593216 2.9 0  0.1864406779661016 2.9 0  0.1491525423728812 2.9 0  0.1118644067796613 2.9 0  0.07457627118644039 2.9 0  0.03728813559321997 2.9 0  2.792405063291139 2.9 0  2.784810126582279 2.9 0  2.777215189873418 2.9 0  2.769620253164557 2.9 0  2.762025316455697 2.9 0  2.754430379746836 2.9 0  2.746835443037975 2.9 0  2.739240506329114 2.9 0  2.731645569620254 2.9 0  2.724050632911393 2.9 0  2.716455696202532 2.9 0  2.708860759493671 2.9 0  2.701265822784811 2.9 0  2.69367088607595 2.9 0  2.686075949367089 2.9 0  2.678481012658228 2.9 0  2.670886075949368 2.9 0  2.663291139240507 2.9 0  2.655696202531646 2.9 0  2.648101265822786 2.9 0  2.640506329113925 2.9 0  2.632911392405064 2.9 0  2.625316455696203 2.9 0  2.617721518987342 2.9 0  2.610126582278482 2.9 0  2.602531645569621 2.9 0  2.59493670886076 2.9 0  2.587341772151899 2.9 0  2.579746835443038 2.9 0  2.572151898734178 2.9 0  2.564556962025317 2.9 0  2.556962025316456 2.9 0  2.549367088607595 2.9 0  2.541772151898734 2.9 0  2.534177215189874 2.9 0  2.526582278481013 2.9 0  2.518987341772152 2.9 0  2.511392405063292 2.9 0  2.503797468354431 2.9 0  2.49620253164557 2.9 0  2.488607594936709 2.9 0  2.481012658227848 2.9 0  2.473417721518988 2.9 0  2.465822784810127 2.9 0  2.458227848101266 2.9 0  2.450632911392406 2.9 0  2.443037974683545 2.9 0  2.435443037974684 2.9 0  2.427848101265823 2.9 0  2.420253164556962 2.9 0  2.412658227848102 2.9 0  2.405063291139241 2.9 0  2.39746835443038 2.9 0  2.389873417721519 2.9 0  2.382278481012658 2.9 0  2.374683544303798 2.9 0  2.367088607594937 2.9 0  2.359493670886076 2.9 0  2.351898734177215 2.9 0  2.344303797468355 2.9 0  2.336708860759494 2.9 0  2.329113924050633 2.9 0  2.321518987341773 2.9 0  2.313924050632912 2.9 0  2.306329113924051 2.9 0  2.29873417721519 2.9 0  2.291139240506329 2.9 0  2.283544303797469 2.9 0  2.275949367088608 2.9 0  2.268354430379747 2.9 0  2.260759493670887 2.9 0  2.253164556962026 2.9 0  2.245569620253165 2.9 0  2.237974683544304 2.9 0  2.230379746835443 2.9 0  2.222784810126583 2.9 0  2.215189873417722 2.9 0  2.207594936708861 2.9 0  4.96271186440678 2.9 0  4.925423728813559 2.9 0  4.888135593220339 2.9 0  4.850847457627118 2.9 0  4.813559322033898 2.9 0  4.776271186440677 2.9 0  4.738983050847457 2.9 0  4.701694915254237 2.9 0  4.664406779661016 2.9 0  4.627118644067796 2.9 0  4.589830508474575 2.9 0  4.552542372881355 2.9 0  4.515254237288135 2.9 0  4.477966101694914 2.9 0  4.440677966101694 2.9 0  4.403389830508473 2.9 0  4.366101694915252 2.9 0  4.328813559322032 2.9 0  4.291525423728811 2.9 0  4.254237288135591 2.9 0  4.21694915254237 2.9 0  4.17966101694915 2.9 0  4.14237288135593 2.9 0  4.105084745762709 2.9 0  4.067796610169489 2.9 0  4.030508474576268 2.9 0  3.993220338983048 2.9 0  3.955932203389827 2.9 0  3.918644067796607 2.9 0  3.881355932203387 2.9 0  3.844067796610166 2.9 0  3.806779661016946 2.9 0  3.769491525423725 2.9 0  3.732203389830505 2.9 0  3.694915254237285 2.9 0  3.657627118644065 2.9 0  3.620338983050845 2.9 0  3.583050847457625 2.9 0  3.545762711864405 2.9 0  3.508474576271184 2.9 0  3.471186440677964 2.9 0  3.433898305084744 2.9 0  3.396610169491524 2.9 0  3.359322033898303 2.9 0  3.322033898305083 2.9 0  3.284745762711863 2.9 0  3.247457627118643 2.9 0  3.210169491525423 2.9 0  3.172881355932202 2.9 0  3.135593220338982 2.9 0  3.098305084745762 2.9 0  3.061016949152542 2.9 0  3.023728813559321 2.9 0  2.986440677966101 2.9 0  2.949152542372881 2.9 0  2.911864406779661 2.9 0  2.87457627118644 2.9 0  2.83728813559322 2.9 0  5 0.1063822624840908 0  5 0.210636879963479 0  5 0.3128064053000104 0  5 0.4129325399736057 0  5 0.5110561519920087 0  5 0.6072172917522097 0  5 0.7014552086337308 0  5 0.7938083672768746 0  5 0.8843144624325437 0  5 0.9730104357533907 0  5 1.059932489779506 0  5 1.145116102681561 0  5 1.228596043237163 0  5 1.310406384819408 0  5 1.39058051967151 0  5 1.46915117219283 0  5 1.546150411689349 0  5 1.621609666350684 0  5 1.695559735780513 0  5 1.76803080351128 0  5 1.839052449831632 0  5 1.908653663284034 0  5 1.976862852540214 0  5 2.043707858250082 0  5 2.109215963970139 0  5 2.173413907547539 0  5 2.236327892447888 0  5 2.29798359737153 0  5 2.358406188061876 0  5 2.417620326899216 0  5 2.475650183036803 0  5 2.532519442044509 0  5 2.588251315695885 0  5 2.642868552136335 0  5 2.696393444001645 0  5 2.748847837883952 0  5 2.800253143882191 0  5 2.85063034388582 0  0.2631578947368421 0 0  0.5263157894736842 0 0  0.7894736842105263 0 0  1.052631578947368 0 0  1.31578947368421 0 0  1.578947368421053 0 0  1.842105263157895 0 0  2.105263157894737 0 0  2.368421052631579 0 0  2.631578947368421 0 0  2.894736842105263 0 0  3.157894736842105 0 0  3.421052631578947 0 0  3.684210526315789 0 0  3.947368421052632 0 0  4.210526315789473 0 0  4.473684210526315 0 0  4.736842105263158 0 0  0 2.850203682350569 0  0 2.799411438503675 0  0 2.747603349778291 0  0 2.694759099502208 0  0 2.640857964382145 0  0 2.58587880633613 0  0 2.52980006535898 0  0 2.472599749459174 0  0 2.414255427218689 0  0 2.35474421880616 0  0 2.294042786119219 0  0 2.232127324764723 0  0 2.1689735539481 0  0 2.104556707683346 0  0 2.038851524813415 0  0 1.971832238155654 0  0 1.903472565412125 0  0 1.83374569926617 0  0 1.762624296208474 0  0 1.690080464918761 0  0 1.616085756774205 0  0 1.540611154706337 0  0 1.463627060685571 0  0 1.385103284916206 0  0 1.305009033716617 0  0 1.223312897337225 0  0 1.139982838163732 0  0 1.054986177579937 0  0 0.9682895835804808 0  0 0.8798590579197967 0  0 0.789659921841535 0  0 0.6976568029903634 0  0 0.6038136217958807 0  0 0.508093576867624 0  0 0.4104591310957497 0  0 0.31087199635222 0  0 0.2092931188294389 0  0 0.1056826638508546 0  1.434832105734982 2.866945754976478 0  1.737156300412976 2.8700394402447 0  2.032203389830508 2.867707527316512 0  2.332911392405064 2.893422591869991 0  2.469810913221006 2.891944186617815 0  2.606221408801046 2.892519154968786 0  2.255455320556353 2.892068684938936 0  2.538247299178607 2.894964578175289 0  2.674683544303798 2.893422591869991 0  2.40126582278481 2.893422591869991 0  3.566125247274844 2.86502933617869 0  3.266101694915253 2.867707527316512 0  2.967796610169491 2.867707527316512 0  1.174288529771947 2.870795313883199 0  3.825423728813556 2.867707527316512 0  2.727766680241741 2.892655387639323 0  0.06601655192030442 1.502119107695954 0  4.933983535518289 1.50765079194109 0  0.9532124728076634 2.868722489784116 0  4.048935912505472 2.870640982963028 0  0.05930163367361851 1.866907161167415 0  4.943402512617702 1.871280731227115 0  4.271733869970415 2.865208656206698 0  0.724942092071192 2.863922936166216 0  0.05494499779911566 2.196469063120751 0  4.947228695435926 2.208030108416282 0  0.5406152149451962 2.866493807374646 0  4.459322033898304 2.868847558171501 0  2.18135593220339 2.875780645487384 0  2.81702715648046 2.876587550622478 0  4.928427208334964 1.186856072959362 0  0.07189226971603357 1.174626666111664 0  4.610299014391064 2.867003104061287 0  0.3897270066746503 2.869433095314649 0  1.5811324999839 2.868247328613121 0  1.887637879307645 2.869235851843492 0  3.413449426409203 2.867372048026557 0  3.116721298784139 2.865731235545648 0  2.644303797468355 2.893422591869991 0  2.370983221771223 2.892719513366117 0  2.302531645569621 2.89333678739629 0  2.758987341772152 2.894242393896969 0  0.04979653335696588 2.443411216910279 0  4.950470983481301 2.446866954190454 0  2.482937483056625 0.2513241088166693 0  1.70712950486069 0.1999998660928157 0  3.285846579639133 0.2292006256069719 0  4.907807122450741 0.8340823629079156 0  4.757627118644067 2.867707527316512 0  0.07734891246767406 0.8347594898806658 0  0.2390604736599493 2.861365431805748 0  0.8363213714273008 2.863896768913622 0  4.16086561018973 2.868916854014843 0  1.28254933196979 2.86761095296154 0  1.065094818264994 2.861284686078544 0  3.938181277358471 2.868651344087338 0  3.711492629398847 2.863574306894209 0  4.913693619806458 0.5579891341027028 0  0.08208328472281323 0.5559535993317524 0  2.696596932509445 2.892010483912606 0  0.04706410140274642 2.613055974506517 0  4.955577063959472 2.616518038416838 0  2.234177215189874 2.893422591869991 0  2.279795840517476 2.894038618939426 0  0.911735788765236 0.2117925286661764 0  4.055948041976698 0.2039101059740411 0  4.872119713756579 2.86763292637659 0  2.78011387899257 2.891535929611774 0  0.1327442468251299 2.85732490707
[...]
<PointData  Vectors="displacement"> 
<DataArray  type="Float64"  Name="displacement"  NumberOfComponents="3" format="ascii">-1.9706611271025297e-06 -2.3793255364222459e-04 0.0000000000000000e+00  0.0000000000000000e+00 8.7922541882991787e-07 0.0000000000000000e+00  -3.5204619786481957e-06 -2.4586210866610233e-04 0.0000000000000000e+00  0.0000000000000000e+00 9.1463745384226586e-07 0.0000000000000000e+00  0.0000000000000000e+00 0.0000000000000000e+00 0.0000000000000000e+00  0.0000000000000000e+00 0.0000000000000000e+00 0.0000000000000000e+00  -7.7722126528892783e-06 -2.0154904759877098e-04 0.0000000000000000e+00  -1.0165066630265900e-05 -1.8183503149003140e-04 0.0000000000000000e+00  -1.1191707733065878e-05 -1.6685258864292745e-04 0.0000000000000000e+00  -1.1601947642397677e-05 -1.5442000810496779e-04 0.0000000000000000e+00  -1.1645353914637205e-05 -1.4371394482304100e-04 0.0000000000000000e+00  -1.1446221161329888e-05 -1.3427265423343005e-04 0.0000000000000000e+00  -1.1085382895629516e-05 -1.2580232103654395e-04 0.0000000000000000e+00  -1.0617058529534618e-05 -1.1810512243620536e-04 0.0000000000000000e+00  -1.0082488599372483e-05 -1.1103973025880618e-04 0.0000000000000000e+00  -9.5080905309603573e-06 -1.0450328104950204e-04 0.0000000000000000e+00  -8.9145092953054184e-06 -9.8419976144498885e-05 0.0000000000000000e+00  -8.3169909727254719e-06 -9.2729795284809117e-05 0.0000000000000000e+00  -7.7269441686778388e-06 -8.7385297818212994e-05 0.0000000000000000e+00  -7.1516758447050437e-06 -8.2348771510679065e-05 0.0000000000000000e+00  -6.5967081473640860e-06 -7.7590030522343707e-05 0.0000000000000000e+00  -6.0657966353788425e-06 -7.3083839703124164e-05 0.0000000000000000e+00  -5.5612187504650353e-06 -6.8809160548858033e-05 0.0000000000000000e+00  -5.0845409116261412e-06 -6.4748054644766126e-05 0.0000000000000000e+00  -4.6362322780890115e-06 -6.0885236929302380e-05 0.0000000000000000e+00  -4.2162329694251809e-06 -5.7207500714216945e-05 0.0000000000000000e+00  -3.8241824268435806e-06 -5.3703399049207460e-05 0.0000000000000000e+00  -3.4594254550885187e-06 -5.0362861958497271e-05 0.0000000000000000e+00  -3.1209773362667178e-06 -4.7176747185019840e-05 0.0000000000000000e+00  -2.8078512725041511e-06 -4.4137141315058967e-05 0.0000000000000000e+00  -2.5188871924192612e-06 -4.1236920871566538e-05 0.0000000000000000e+00  -2.2528116676754130e-06 -3.8469536367157639e-05 0.0000000000000000e+00  -2.0083740211817239e-06 -3.5829012974908791e-05 0.0000000000000000e+00  -1.7844660640384101e-06 -3.3310094999490084e-05 0.0000000000000000e+00  -1.5797560173736924e-06 -3.0907867253797694e-05 0.0000000000000000e+00  -1.3930447794222920e-06 -2.8617643987699634e-05 0.0000000000000000e+00  -1.2231691396237554e-06 -2.6435416628927223e-05 0.0000000000000000e+00  -1.0689952285824291e-06 -2.4357412356047726e-05 0.0000000000000000e+00  -9.2966423808681373e-07 -2.2380081269167607e-05 0.0000000000000000e+00  -8.0383884579745020e-07 -2.0500028117943714e-05 0.0000000000000000e+00  -6.9076244055457061e-07 -1.8714322536977060e-05 0.0000000000000000e+00  -5.8942283661186236e-07 -1.7020097096235304e-05 0.0000000000000000e+00  -4.9890727357512988e-07 -1.5414729552904818e-05 0.0000000000000000e+00  -4.1850363572500202e-07 -1.3895809224784117e-05 0.0000000000000000e+00  -3.4733750014380070e-07 -1.2461059803328129e-05 0.0000000000000000e+00  -2.8471229813126315e-07 -1.1108380821007666e-05 0.0000000000000000e+00  -2.2992861519634377e-07 -9.8358175040656797e-06 0.0000000000000000e+00  -1.8237094293069692e-07 -8.6415571597107467e-06 0.0000000000000000e+00  -1.4139183231396743e-07 -7.5239068192558848e-06 0.0000000000000000e+00  -1.0643059323659204e-07 -6.4813275906309671e-06 0.0000000000000000e+00  -7.6937593501310682e-08 -5.5123729997554034e-06 0.0000000000000000e+00  -5.2421548946797910e-08 -4.6157260922668712e-06 0.0000000000000000e+00  -3.2395696140375544e-08 -3.7901651371275519e-06 0.0000000000000000e+00  -1.6426779309238929e-08 -3.0345902999107326e-06 0.0000000000000000e+00  -4.0681800779670252e-09 -2.3479916019851787e-06 0.0000000000000000e+00  5.0734993502275488e-09 -1.7294656239168391e-06 0.0000000000000000e+00  1.1348484740019452e-08 -1.1781936435504985e-06 0.0000000000000000e+00  1.5178650377695413e-08 -6.9343185055396179e-07 0.0000000000000000e+00  1.6880435639186857e-08 -2.7457709867406720e-07 0.0000000000000000e+00  1.6755064097272881e-08 7.8919653396535331e-08 0.0000000000000000e+00  1.5132497931978238e-08 3.6752186865188074e-07 0.0000000000000000e+00  1.2383583743703619e-08 5.9161699975573023e-07 0.0000000000000000e+00  8.7498885287531039e-09 7.5146994210560377e-07 0.0000000000000000e+00  4.5251138929066590e-09 8.4730023167542112e-07 0.0000000000000000e+00  -3.7009124184136408e-05 -3.4234830197292482e-04 0.0000000000000000e+00  -3.3508912377390034e-05 -3.6235179825423584e-04 0.0000000000000000e+00  -3.1399491976898818e-05 -3.7319249423092463e-04 0.0000000000000000e+00  -2.9821541481054874e-05 -3.8083944440320456e-04 0.0000000000000000e+00  -2.8874996065965787e-05 -3.8727833638635759e-04 0.0000000000000000e+00  -2.8034536391458807e-05 -3.9311830994971539e-04 0.0000000000000000e+00  -2.7194241925045475e-05 -3.9845217814424641e-04 0.0000000000000000e+00  -2.6362246088297088e-05 -4.0334853760848512e-04 0.0000000000000000e+00  -2.5538695939670199e-05 -4.0787482153308729e-04 0.0000000000000000e+00  -2.4720462053565202e-05 -4.1208243446416471e-04 0.0000000000000000e+00  -2.3905005310676794e-05 -4.1600853263299413e-04 0.0000000000000000e+00  -2.3090530889053283e-05 -4.1968199268368177e-04 0.0000000000000000e+00  -2.2276412858234120e-05 -4.2312664750904943e-04 0.0000000000000000e+00  -2.1461988596083878e-05 -4.2636134181754334e-04 0.0000000000000000e+00  -2.0646413149830955e-05 -4.2940164752802956e-04 0.0000000000000000e+00  -1.9829586340968152e-05 -4.3226114066996502e-04 0.0000000000000000e+00  -1.9011145766868802e-05 -4.3495067768748239e-04 0.0000000000000000e+00  -1.8191000876241604e-05 -4.3747959467562136e-04 0.0000000000000000e+00  -1.7369122491901651e-05 -4.3985607515369286e-04 0.0000000000000000e+00  -1.6545547742071485e-05 -4.4208718823061737e-04 0.0000000000000000e+00  -1.5720343285419729e-05 -4.4417917599942847e-04 0.0000000000000000e+00  -1.4893609126389461e-05 -4.4613752981176270e-04 0.0000000000000000e+00  -1.4065408218903740e-05 -4.4796708282819305e-04 0.0000000000000000e+00  -1.3235828896670841e-05 -4.4967216241453660e-04 0.0000000000000000e+00  -1.2404944865629333e-05 -4.5125658884927395e-04 0.0000000000000000e+00  -1.1572826484652103e-05 -4.5272370588031452e-04 0.0000000000000000e+00  -1.0739595471937077e-05 -4.5407650437904600e-04 0.0000000000000000e+00  -9.9052315209314741e-06 -4.5531761111706662e-04 0.0000000000000000e+00  -9.0698822523994740e-06 -4.5644938946526396e-04 0.0000000000000000e+00  -8.2336437282798271e-06 -4.5747388200904275e-04 0.0000000000000000e+00  -7.3966074176607972e-06 -4.5839289972358709e-04 0.0000000000000000e+00  -6.5588534975206739e-06 -4.5920800604213826e-04 0.0000000000000000e+00  -5.7204997366909057e-06 -4.5992056832215784e-04 0.0000000000000000e+00  -4.8816945162319576e-06 -4.6053175097536384e-04 0.0000000000000000e+00  -4.0425035669366451e-06 -4.6104252231450740e-04 0.0000000000000000e+00  -3.2031381647457298e-06 -4.6145375284587067e-04 0.0000000000000000e+00  -2.3636434986711649e-06 -4.6176607618340134e-04 0.0000000000000000e+00  -1.5241714631099318e-06 -4.6197999649076995e-04 0.0000000000000000e+00  -6.8488217796118274e-07 -4.6209588175274058e-04 0.0000000000000000e+00  1.5413151742638322e-07 -4.6211393519870092e-04 0.0000000000000000e+00  9.9273912348575220e-07 -4.6203421551376650e-04 0.0000000000000000e+00  1.8308205366976041e-06 -4.6185663423550696e-04 0.0000000000000000e+00  2.6682550203717990e-06 -4.6158095473742444e-04 0.0000000000000000e+00  3.5049065420886500e-06 -4.6120677224518883e-04 0.0000000000000000e+00  4.3406781076087398e-06 -4.6073352723897726e-04 0.0000000000000000e+00  5.1754485644827199e-06 -4.6016052129225842e-04 0.0000000000000000e+00  6.0090786791773721e-06 -4.5948684763692235e-04 0.0000000000000000e+00  6.8414520119690609e-06 -4.5871142762293060e-04 0.0000000000000000e+00  7.6724465968152019e-06 -4.5783299746007409e-04 0.0000000000000000e+00  8.5019004154084175e-06 -4.5685007808826412e-04 0.0000000000000000e+00  9.3296898251484396e-06 -4.5576099405697420e-04 0.0000000000000000e+00  1.0155675678104161e-05 -4.5456379033662867e-04 0.0000000000000000e+00  1.0979624304485283e-05 -4.5325628433935320e-04 0.0000000000000000e+00  1.1801405209478286e-05 -4.5183604438666828e-04 0.0000000000000000e+00  1.2620807628894322e-05 -4.5030027171407620e-04 0.0000000000000000e+00  1.3437617054215409e-05 -4.4864586732045586e-04 0.0000000000000000e+00  1.4251601065190743e-05 -4.4686931580185908e-04 0.0000000000000000e+00  1.5062583487969352e-05 -4.4496669007375328e-04 0.0000000000000000e+00  1.5870226885443090e-05 -4.4293344779514597e-04 0.0000000000000000e+00  1.6674272102479735e-05 -4.4076469868164917e-04 0.0000000000000000e+00  1.7474335117179655e-05 -4.3845467698534930e-04 0.0000000000000000e+00  1.8270111209949520e-05 -4.3599689957200751e-04 0.0000000000000000e+00  1.9061155832913941e-05 -4.3338394433859877e-04 0.0000000000000000e+00  1.9846990243849721e-05 -4.3060726406987719e-04 0.0000000000000000e+00  2.0627018073714259e-05 -4.2765705967361882e-04 0.0000000000000000e+00  2.1400578641136249e-05 -4.2452174326333496e-04 0.0000000000000000e+00  2.2166604214347840e-05 -4.2118778985868237e-04 0.0000000000000000e+00  2.2924069418433898e-05 -4.1763908257867478e-04 0.0000000000000000e+00  2.3671932076991887e-05 -4.1385669860557063e-04 0.0000000000000000e+00  2.4406826557906365e-05 -4.0981658399755802e-04 0.0000000000000000e+00  2.5126018947845161e-05 -4.0549045378571636e-04 0.0000000000000000e+00  2.5826878583167339e-05 -4.0084381405949111e-04 0.0000000000000000e+00  2.6506581065947921e-05 -3.9583323390597039e-04 0.0000000000000000e+00  2.7170038161369869e-05 -3.9039229949169488e-04 0.0000000000000000e+00  2.7826188460281436e-05 -3.8439989607248889e-04 0.0000000000000000e+00  2.8392593400324397e-05 -3.7763953214423773e-04 0.0000000000000000e+00  2.8537952193628251e-05 -3.7051695928640843e-04 0.0000000000000000e+00  3.4078055161003269e-05 -3.5177329464463247e-04 0.0000000000000000e+00  -8.7337069359512727e-09 8.8267042052767536e-07 0.0000000000000000e+00  -1.7186570067215302e-08 7.8675100560638577e-07 0.0000000000000000e+00  -2.5082878775833258e-08 6.2673951069586344e-07 0.0000000000000000e+00  -3.2128837906529574e-08 4.0243842947704802e-07 0.0000000000000000e+00  -3.8048976481740715e-08 1.1354654791222411e-07 0.0000000000000000e+00  -4.2487970779833430e-08 -2.4030140047056084e-07 0.0000000000000000e+00  -4.5223668391067907e-08 -6.5956245664570769e-07 0.0000000000000000e+00  -4.5878964228762303e-08 -1.1447915493805926e-06 0.0000000000000000e+00  -4.4135670585377839e-08 -1.6966179470567630e-06 0.0000000000000000e+00  -3.9628422728636996e-08 -2.3157674373644061e-06 0.0000000000000000e+00  -3.2002551600768399e-08 -3.0030648924316546e-06 0.0000000000000000e+00  -2.0855067808978128e-08 -3.7594157194618247e-06 0.0000000000000000e+00  -5.7946703023200885e-09 -4.5858314357790374e-06 0.0000000000000000e+00  1.3625251145661267e-08 -5.4834228736428152e-06 0.0000000000000000e+00  3.7867729932549633e-08 -6.4534092007456578e-06 0.0000000000000000e+00  6.7426295001270519e-08 -7.4971195369535282e-06 0.0000000000000000e+00  1.0280925593368029e-07 -8.6159860654821726e-06 0.0000000000000000e+00  1.4460054193163334e-07 -9.8115859347244540e-06 0.0000000000000000e+00  1.9336200753595380e-07 -1.1085608935585354e-05 0.0000000000000000e+00  2.4973703735998128e-07 -1.2439866135419334e-05 0.0000000000000000e+00  3.1440437529798386e-07 -1.3876359289034434e-05 0.0000000000000000e+00  3.8800208606433732e-07 -1.5397100200010681e-05 0.0000000000000000e+00  4.7137571956489724e-07 -1.7004461003227459e-05 0.0000000000000000e+00  5.6527786333965044e-07 -1.8700868192414059e-05 0.0000000000000000e+00  6.7053892565536637e-07 -2.0488951079733213e-05 0.0000000000000000e+00  7.8804782288432098e-07 -2.2371546029693424e-05 0.0000000000000000e+00  9.1875378878560916e-07 -2.4351715907715855e-05 0.0000000000000000e+00  1.0636465757889946e-06 -2.6432763933150066e-05 0.0000000000000000e+00  1.2237122532045001e-06 -2.8618250498713324e-05 0.0000000000000000e+00  1.4000076794861433e-06 -3.0912025978498539e-05 0.0000000000000000e+00  1.5936669787968089e-06 -3.3318288202499980e-05 0.0000000000000000e+00  1.8058343071711923e-06 -3.5841556355479689e-05 0.0000000000000000e+00  2.0374656204747973e-06 -3.8486821462830122e-05 0.0000000000000000e+00  2.2900294466379428e-06 -4.1259511179560079e-05 0.0000000000000000e+00  2.5644780693230623e-06 -4.4165571826279424e-05 0.0000000000000000e+00  2.8618348433055914e-06 -4.7211552043897282e-05 0.0000000000000000e+00  3.1831829794501659e-06 -5.0404733617577806e-05 0.0000000000000000e+00  3.5295416932555246e-06 -5.3753256923085859e-05 0.0000000000000000e+00  3.9015581856976793e-06 -5.7266227115127855e-05 0.0000000000000000e+00  4.2996710825402618e-06 -6.0953926497239711e-05 0.0000000000000000e+00  4.7241036487545555e-06 -6.4828024432833100e-05 0.0000000000000000e+00  5.1745693451935695e-06 -6.8901935678105861e-05 0.0000000000000000e+00  5.6499744678829369e-06 -7.3191175599148569e-05 0.0000000000000000e+00  6.1489646699240989e-06 -7.7713935679929797e-05 0.0000000000000000e+00  6.6685696165732701e-06 -8.2491524304560644e-05 0.0000000000000000e+00  7.2043025549036659e-06 -8.7549911674604609e-05 0.0000000000000000e+00  7.7501752068223563e-06 -9.2920116695706658e-05 0.0000000000000000e+00  8.2975277840311485e-06 -9.8640694144777049e-05 0.0000000000000000e+00  8.8336787608197566e-06 -1.0475918481579666e-04 0.0000000000000000e+00  9.3441084626412196e-06 -1.1133693972998182e-04 0.0000000000000000e+00  9.8028176588017826e-06 -1.1845394217626221e-04 0.0000000000000000e+00  1.0183988279044061e-05 -1.2621244817255479e-04 0.0000000000000000e+00  1.0440910993224497e-05 -1.3476179821705629e-04 0.0000000000000000e+00  1.0513775969680010e-05 -1.4430186457314013e-04 0.0000000000000000e+00  1.0312984457016610e-05 -1.5513835673988934e-04 0.0000000000000000e+00  9.6964016423335208e-06 -1.6775101701153918e-04 0.0000000000000000e+00  8.4109649972025438e-06 -1.8300348931973414e-04 0.0000000000000000e+00  5.4584510475027042e-06 -2.0324679550941488e-04 0.0000000000000000e+00  0.0000000000000000e+00 -2.1203237664423810e-06 0.0000000000000000e+00  0.0000000000000000e+00 -3.9398022423786240e-06 0.0000000000000000e+00  0.0000000000000000e+00 -5.4970019151384301e-06 0.0000000000000000e+00  0.0000000000000000e+00 -6.8241432824062960e-06 0.0000000000000000e+00  0.0000000000000000e+00 -7.9444677540260239e-06 0.0000000000000000e+00  0.0000000000000000e+00 -8.8769028787519342e-06 0.0000000000000000e+00  0.0000000000000000e+00 -9.6367325361384838e-06 0.0000000000000000e+00  0.0000000000000000e+00 -1.0236619943430324e-05 0.0000000000000000e+00  0.0000000000000000e+00 -1.0685640761858927e-05 0.0000000000000000e+00  0.0000000000000000e+00 -1.0994306592680002e-05 0.0000000000000000e+00  0.0000000000000000e+00 -1.1170271910398058e-05 0.0000000000000000e+00  0.0000000000000000e+00 -1.1221538233987354e-05 0.0000000000000000e+00  0.0000000000000000e+00 -1.1156473381458642e-05 0.0000000000000000e+00  0.0000000000000000e+00 -1.0983247849163684e-05 0.0000000000000000e+00  0.0000000000000000e+00 -1.0710410346686444e-05 0.0000000000000000e+00  0.0000000000000000e+00 -1.0347038455381538e-05 0.0000000000000000e+00  0.0000000000000000e+00 -9.9029144212622018e-06 0.0000000000000000e+00  0.0000000000000000e+00 -9.3879796819068708e-06 0.0000000000000000e+00  0.0000000000000000e+00 -8.8126701744315675e-06 0.0000000000000000e+00  0.0000000000000000e+00 -8.1877141340364972e-06 0.0000000000000000e+00  0.0000000000000000e+00 -7.5240988646177214e-06 0.0000000000000000e+00  0.0000000000000000e+00 -6.8327763970833792e-06 0.0000000000000000e+00  0.0000000000000000e+00 -6.1246913762074384e-06 0.0000000000000000e+00  0.0000000000000000e+00 -5.4102770873482882e-06 0.0000000000000000e+00  0.0000000000000000e+00 -4.6998593194723640e-06 0.0000000000000000e+00  0.0000000000000000e+00 -4.0032537634041740e-06 0.0000000000000000e+00  0.0000000000000000e+00 -3.3292129883933248e-06 0.0000000000000000e+00  0.0000000000000000e+00 -2.6861627431369562e-06 0.0000000000000000e+00  0.0000000000000000e+00 -2.0814356568904369e-06 0.0000000000000000e+00  0.0000000000000000e+00 -1.5214703154998182e-06 0.0000000000000000e+00  0.0000000000000000e+00 -1.0117842743176760e-06 0.0000000000000000e+00  0.0000000000000000e+00 -5.5683918614371138e-07 0.0000000000000000e+00  0.0000000000000000e+00 -1.6013709669068735e-07 0.0000000000000000e+00  0.0000000000000000e+00 1.7573102207878153e-07 0.0000000000000000e+00  0.0000000000000000e+00 4.4913194342616891e-07 0.0000000000000000e+00  0.0000000000000000e+00 6.5928862209528062e-07 0.0000000000000000e+00  0.0000000000000000e+00 8.0634133453425229e-07 0.0000000000000000e+00  0.0000000000000000e+00 8.9095931727137923e-07 0.0000000000000000e+00  0.0000000000000000e+00 0.0000000000000000e+00 0.0000000000000000e+00  0.0000000000000000e+00 0.0000000000000000e+00 0.0000000000000000e+00  0.0000000000000000e+00 0.0000000000000000e+00 0.0000000000000000e+00  0.0000000000000000e+00 0.0000000000000000e+00 0.0000000000000000e+00  0.0000000000000000e+00 0.0000000000000000e+00 0.0000000000000000e+00  0.0000000000000000e+00 0.0000000000000000e+00 0.0000000000000000e+00  0.0000000000000000e+00 0.0000000000000000e+00 0.0000000000000000e+00  0.0000000000000000e+00 0.0000000000000000e+00 0.0000000000000000e+00  0.0000000000000000e+00 0.0000000000000000e+00 0.0000000000000000e+00  0.0000000000000000e+00 0.0000000000000000e+00 0.0000000000000000e+00  0.0000000000000000e+00 0.0000000000000000e+00 0.0000000000000000e+00  0.0000000000000000e+00 0.0000000000000000e+00 0.0000000000000000e+00  0.0000000000000000e+00 0.0000000000000000e+00 0.0000000000000000e+00  0.0000000000000000e+00 0.0000000000000000e+00 0.0000000000000000e+00  0.0000000000000000e+00 0.0000000000000000e+00 0.0000000000000000e+00  0.0000000000000000e+00 0.0000000000000000e+00 0.0000000000000000e+00  0.0000000000000000e+00 0.0000000000000000e+00 0.0000000000000000e+00  0.0000000000000000e+00 0.0000000000000000e+00 0.0000000000000000e+00  0.0000000000000000e+00 8.5208942334430198e-07 0.0000000000000000e+00  0.0000000000000000e+00 7.6309839643637597e-07 0.0000000000000000e+00  0.0000000000000000e+00 6.1077361136853221e-07 0.0000000000000000e+00  0.0000000000000000e+00 3.9472707462641841e-07 0.0000000000000000e+00  0.0000000000000000e+00 1.1490280767375306e-07 0.0000000000000000e+00  0.0000000000000000e+00 -2.2768161185362790e-07 0.0000000000000000e+00  0.0000000000000000e+00 -6.3118062995124841e-07 0.0000000000000000e+00  0.0000000000000000e+00 -1.0928287470996074e-06 0.0000000000000000e+00  0.0000000000000000e+00 -1.6089074570772096e-06 0.0000000000000000e+00  0.0000000000000000e+00 -2.1746585385184073e-06 0.0000000000000000e+00  0.0000000000000000e+00 -2.7844888219354511e-06 0.0000000000000000e+00  0.0000000000000000e+00 -3.4315088252326514e-06 0.0000000000000000e+00  0.0000000000000000e+00 -4.1084747972015816e-06 0.0000000000000000e+00  0.0000000000000000e+00 -4.8068268851722631e-06 0.0000000000000000e+00  0.0000000000000000e+00 -5.5175206497726033e-06 0.0000000000000000e+00  0.0000000000000000e+00 -6.2306703854011895e-06 0.0000000000000000e+00  0.0000000000000000e+00 -6.9360743262312881e-06 0.0000000000000000e+00  0.0000000000000000e+00 -7.6232870557566855e-06 0.0000000000000000e+00  0.0000000000000000e+00 -8.2813338562503717e-06 0.0000000000000000e+00  0.0000000000000000e+00 -8.8993634932887395e-06 0.0000000000000000e+00  0.0000000000000000e+00 -9.4666125904125146e-06 0.0000000000000000e+00  0.0000000000000000e+00 -9.9725288146110550e-06 0.0000000000000000e+00  0.0000000000000000e+00 -1.0406840818867970e-05 0.0000000000000000e+00  0.0000