<?xml version="1.0"?>
<VTKFile type="UnstructuredGrid"  version="0.1"  >
<UnstructuredGrid>
<Piece  NumberOfPoints="3167" NumberOfCells="6038">
<Points>
<DataArray  type="Float64"  NumberOfComponents="3"  format="ascii">2.2 2.9 0  0 2.9 0  2.8 2.9 0  5 2.9 0  5 0 0  0 0 0  2.16271186440678 2.9 0  2.125423728813559 2.9 0  2.088135593220339 2.9 0  2.050847457627119 2.9 0  2.013559322033898 2.9 0  1.976271186440678 2.9 0  1.938983050847457 2.9 0  1.901694915254237 2.9 0  1.864406779661016 2.9 0  1.827118644067796 2.9 0  1.789830508474575 2.9 0  1.752542372881355 2.9 0  1.715254237288134 2.9 0  1.677966101694914 2.9 0  1.640677966101693 2.9 0  1.603389830508473 2.9 0  1.566101694915253 2.9 0  1.528813559322032 2.9 0  1.491525423728812 2.9 0  1.454237288135591 2.9 0  1.416949152542371 2.9 0  1.37966101694915 2.9 0  1.34237288135593 2.9 0  1.305084745762709 2.9 0  1.267796610169489 2.9 0  1.230508474576268 2.9 0  1.193220338983048 2.9 0  1.155932203389827 2.9 0  1.118644067796607 2.9 0  1.081355932203387 2.9 0  1.044067796610166 2.9 0  1.006779661016946 2.9 0  0.9694915254237257 2.9 0  0.9322033898305055 2.9 0  0.8949152542372856 2.9 0  0.8576271186440652 2.9 0  0.820338983050845 2.9 0  0.783050847457625 2.9 0  0.7457627118644048 2.9 0  0.7084745762711844 2.9 0  0.6711864406779642 2.9 0  0.633898305084744 2.9 0  0.5966101694915238 2.9 0  0.5593220338983036 2.9 0  0.5220338983050834 2.9 0  0.4847457627118632 2.9 0  0.447457627118643 2.9 0  0.4101694915254228 2.9 0  0.3728813559322024 2.9 0  0.3355932203389822 2.9 0  0.2983050847457622 2.9 0  0.2610169491525418 2.9 0  0.2237288135593216 2.9 0  0.1864406779661016 2.9 0  0.1491525423728812 2.9 0  0.1118644067796613 2.9 0  0.07457627118644039 2.9 0  0.03728813559321997 2.9 0  2.792405063291139 2.9 0  2.784810126582279 2.9 0  2.777215189873418 2.9 0  2.769620253164557 2.9 0  2.762025316455697 2.9 0  2.754430379746836 2.9 0  2.746835443037975 2.9 0  2.739240506329114 2.9 0  2.731645569620254 2.9 0  2.724050632911393 2.9 0  2.716455696202532 2.9 0  2.708860759493671 2.9 0  2.701265822784811 2.9 0  2.69367088607595 2.9 0  2.686075949367089 2.9 0  2.678481012658228 2.9 0  2.670886075949368 2.9 0  2.663291139240507 2.9 0  2.655696202531646 2.9 0  2.648101265822786 2.9 0  2.640506329113925 2.9 0  2.632911392405064 2.9 0  2.625316455696203 2.9 0  2.617721518987342 2.9 0  2.610126582278482 2.9 0  2.602531645569621 2.9 0  2.59493670886076 2.9 0  2.587341772151899 2.9 0  2.579746835443038 2.9 0  2.572151898734178 2.9 0  2.564556962025317 2.9 0  2.556962025316456 2.9 0  2.549367088607595 2.9 0  2.541772151898734 2.9 0  2.534177215189874 2.9 0  2.526582278481013 2.9 0  2.518987341772152 2.9 0  2.511392405063292 2.9 0  2.503797468354431 2.9 0  2.49620253164557 2.9 0  2.488607594936709 2.9 0  2.481012658227848 2.9 0  2.473417721518988 2.9 0  2.465822784810127 2.9 0  2.458227848101266 2.9 0  2.450632911392406 2.9 0  2.443037974683545 2.9 0  2.435443037974684 2.9 0  2.427848101265823 2.9 0  2.420253164556962 2.9 0  2.412658227848102 2.9 0  2.405063291139241 2.9 0  2.39746835443038 2.9 0  2.389873417721519 2.9 0  2.382278481012658 2.9 0  2.374683544303798 2.9 0  2.367088607594937 2.9 0  2.359493670886076 2.9 0  2.351898734177215 2.9 0  2.344303797468355 2.9 0  2.336708860759494 2.9 0  2.329113924050633 2.9 0  2.321518987341773 2.9 0  2.313924050632912 2.9 0  2.306329113924051 2.9 0  2.29873417721519 2.9 0  2.291139240506329 2.9 0  2.283544303797469 2.9 0  2.275949367088608 2.9 0  2.268354430379747 2.9 0  2.260759493670887 2.9 0  2.253164556962026 2.9 0  2.245569620253165 2.9 0  2.237974683544304 2.9 0  2.230379746835443 2.9 0  2.222784810126583 2.9 0  2.215189873417722 2.9 0  2.207594936708861 2.9 0  4.96271186440678 2.9 0  4.925423728813559 2.9 0  4.888135593220339 2.9 0  4.850847457627118 2.9 0  4.813559322033898 2.9 0  4.776271186440677 2.9 0  4.738983050847457 2.9 0  4.701694915254237 2.9 0  4.664406779661016 2.9 0  4.627118644067796 2.9 0  4.589830508474575 2.9 0  4.552542372881355 2.9 0  4.515254237288135 2.9 0  4.477966101694914 2.9 0  4.440677966101694 2.9 0  4.403389830508473 2.9 0  4.366101694915252 2.9 0  4.328813559322032 2.9 0  4.291525423728811 2.9 0  4.254237288135591 2.9 0  4.21694915254237 2.9 0  4.17966101694915 2.9 0  4.14237288135593 2.9 0  4.105084745762709 2.9 0  4.067796610169489 2.9 0  4.030508474576268 2.9 0  3.993220338983048 2.9 0  3.955932203389827 2.9 0  3.918644067796607 2.9 0  3.881355932203387 2.9 0  3.844067796610166 2.9 0  3.806779661016946 2.9 0  3.769491525423725 2.9 0  3.732203389830505 2.9 0  3.694915254237285 2.9 0  3.657627118644065 2.9 0  3.620338983050845 2.9 0  3.583050847457625 2.9 0  3.545762711864405 2.9 0  3.508474576271184 2.9 0  3.471186440677964 2.9 0  3.433898305084744 2.9 0  3.396610169491524 2.9 0  3.359322033898303 2.9 0  3.322033898305083 2.9 0  3.284745762711863 2.9 0  3.247457627118643 2.9 0  3.210169491525423 2.9 0  3.172881355932202 2.9 0  3.135593220338982 2.9 0  3.098305084745762 2.9 0  3.061016949152542 2.9 0  3.023728813559321 2.9 0  2.986440677966101 2.9 0  2.949152542372881 2.9 0  2.911864406779661 2.9 0  2.87457627118644 2.9 0  2.83728813559322 2.9 0  5 0.1063822624840908 0  5 0.210636879963479 0  5 0.3128064053000104 0  5 0.4129325399736057 0  5 0.5110561519920087 0  5 0.6072172917522097 0  5 0.7014552086337308 0  5 0.7938083672768746 0  5 0.8843144624325437 0  5 0.9730104357533907 0  5 1.059932489779506 0  5 1.145116102681561 0  5 1.228596043237163 0  5 1.310406384819408 0  5 1.39058051967151 0  5 1.46915117219283 0  5 1.546150411689349 0  5 1.621609666350684 0  5 1.695559735780513 0  5 1.76803080351128 0  5 1.839052449831632 0  5 1.908653663284034 0  5 1.976862852540214 0  5 2.043707858250082 0  5 2.109215963970139 0  5 2.173413907547539 0  5 2.236327892447888 0  5 2.29798359737153 0  5 2.358406188061876 0  5 2.417620326899216 0  5 2.475650183036803 0  5 2.532519442044509 0  5 2.588251315695885 0  5 2.642868552136335 0  5 2.696393444001645 0  5 2.748847837883952 0  5 2.800253143882191 0  5 2.85063034388582 0  0.2631578947368421 0 0  0.5263157894736842 0 0  0.7894736842105263 0 0  1.052631578947368 0 0  1.31578947368421 0 0  1.578947368421053 0 0  1.842105263157895 0 0  2.105263157894737 0 0  2.368421052631579 0 0  2.631578947368421 0 0  2.894736842105263 0 0  3.157894736842105 0 0  3.421052631578947 0 0  3.684210526315789 0 0  3.947368421052632 0 0  4.210526315789473 0 0  4.473684210526315 0 0  4.736842105263158 0 0  0 2.850203682350569 0  0 2.799411438503675 0  0 2.747603349778291 0  0 2.694759099502208 0  0 2.640857964382145 0  0 2.58587880633613 0  0 2.52980006535898 0  0 2.472599749459174 0  0 2.414255427218689 0  0 2.35474421880616 0  0 2.294042786119219 0  0 2.232127324764723 0  0 2.1689735539481 0  0 2.104556707683346 0  0 2.038851524813415 0  0 1.971832238155654 0  0 1.903472565412125 0  0 1.83374569926617 0  0 1.762624296208474 0  0 1.690080464918761 0  0 1.616085756774205 0  0 1.540611154706337 0  0 1.463627060685571 0  0 1.385103284916206 0  0 1.305009033716617 0  0 1.223312897337225 0  0 1.139982838163732 0  0 1.054986177579937 0  0 0.9682895835804808 0  0 0.8798590579197967 0  0 0.789659921841535 0  0 0.6976568029903634 0  0 0.6038136217958807 0  0 0.508093576867624 0  0 0.4104591310957497 0  0 0.31087199635222 0  0 0.2092931188294389 0  0 0.1056826638508546 0  1.434832105734982 2.866945754976478 0  1.737156300412976 2.8700394402447 0  2.032203389830508 2.867707527316512 0  2.332911392405064 2.893422591869991 0  2.469810913221006 2.891944186617815 0  2.606221408801046 2.892519154968786 0  2.255455320556353 2.892068684938936 0  2.538247299178607 2.894964578175289 0  2.674683544303798 2.893422591869991 0  2.40126582278481 2.893422591869991 0  3.566125247274844 2.86502933617869 0  3.266101694915253 2.867707527316512 0  2.967796610169491 2.867707527316512 0  1.174288529771947 2.870795313883199 0  3.825423728813556 2.867707527316512 0  2.727766680241741 2.892655387639323 0  0.06601655192030442 1.502119107695954 0  4.933983535518289 1.50765079194109 0  0.9532124728076634 2.868722489784116 0  4.048935912505472 2.870640982963028 0  0.05930163367361851 1.866907161167415 0  4.943402512617702 1.871280731227115 0  4.271733869970415 2.865208656206698 0  0.724942092071192 2.863922936166216 0  0.05494499779911566 2.196469063120751 0  4.947228695435926 2.208030108416282 0  0.5406152149451962 2.866493807374646 0  4.459322033898304 2.868847558171501 0  2.18135593220339 2.875780645487384 0  2.81702715648046 2.876587550622478 0  4.928427208334964 1.186856072959362 0  0.07189226971603357 1.174626666111664 0  4.610299014391064 2.867003104061287 0  0.3897270066746503 2.869433095314649 0  1.5811324999839 2.868247328613121 0  1.887637879307645 2.869235851843492 0  3.413449426409203 2.867372048026557 0  3.116721298784139 2.865731235545648 0  2.644303797468355 2.893422591869991 0  2.370983221771223 2.892719513366117 0  2.302531645569621 2.89333678739629 0  2.758987341772152 2.894242393896969 0  0.04979653335696588 2.443411216910279 0  4.950470983481301 2.446866954190454 0  2.482937483056625 0.2513241088166693 0  1.70712950486069 0.1999998660928157 0  3.285846579639133 0.2292006256069719 0  4.907807122450741 0.8340823629079156 0  4.757627118644067 2.867707527316512 0  0.07734891246767406 0.8347594898806658 0  0.2390604736599493 2.861365431805748 0  0.8363213714273008 2.863896768913622 0  4.16086561018973 2.868916854014843 0  1.28254933196979 2.86761095296154 0  1.065094818264994 2.861284686078544 0  3.938181277358471 2.868651344087338 0  3.711492629398847 2.863574306894209 0  4.913693619806458 0.5579891341027028 0  0.08208328472281323 0.5559535993317524 0  2.696596932509445 2.892010483912606 0  0.04706410140274642 2.613055974506517 0  4.955577063959472 2.616518038416838 0  2.234177215189874 2.893422591869991 0  2.279795840517476 2.894038618939426 0  0.911735788765236 0.2117925286661764 0  4.055948041976698 0.2039101059740411 0  4.872119713756579 2.86763292637659 0  2.78011387899257 2.891535929611774 0  0.1327442468251299 2.85732490707
[...]
<PointData  Vectors="displacement"> 
<DataArray  type="Float64"  Name="displacement"  NumberOfComponents="3" format="ascii">5.8916392519673479e-05 -6.1612687401345584e-04 0.0000000000000000e+00  0.0000000000000000e+00 3.1230000133066627e-06 0.0000000000000000e+00  -6.4516072571931270e-05 -6.2406960064061634e-04 0.0000000000000000e+00  0.0000000000000000e+00 3.1583815311834031e-06 0.0000000000000000e+00  0.0000000000000000e+00 0.0000000000000000e+00 0.0000000000000000e+00  0.0000000000000000e+00 0.0000000000000000e+00 0.0000000000000000e+00  5.2637199555014187e-05 -5.3402084178529713e-04 0.0000000000000000e+00  4.8953834978386356e-05 -4.8409963451450869e-04 0.0000000000000000e+00  4.6669004186652879e-05 -4.4483524557547237e-04 0.0000000000000000e+00  4.5015037356566688e-05 -4.1169859801066903e-04 0.0000000000000000e+00  4.3730649140315790e-05 -3.8282904146655589e-04 0.0000000000000000e+00  4.2692083873939211e-05 -3.5716869869450264e-04 0.0000000000000000e+00  4.1820723158871818e-05 -3.3403312103447646e-04 0.0000000000000000e+00  4.1061999207687862e-05 -3.1295146387574061e-04 0.0000000000000000e+00  4.0376640996137009e-05 -2.9357968608873327e-04 0.0000000000000000e+00  3.9738125053541617e-05 -2.7566362550031825e-04 0.0000000000000000e+00  3.9125854307927456e-05 -2.5901032825636214e-04 0.0000000000000000e+00  3.8524707475271623e-05 -2.4346352745594692e-04 0.0000000000000000e+00  3.7924127613169921e-05 -2.2889710798211797e-04 0.0000000000000000e+00  3.7316947923587043e-05 -2.1520895988140094e-04 0.0000000000000000e+00  3.6697821612375178e-05 -2.0231518667962949e-04 0.0000000000000000e+00  3.6063259021634467e-05 -1.9014456583617425e-04 0.0000000000000000e+00  3.5411264685625208e-05 -1.7863663098017227e-04 0.0000000000000000e+00  3.4740063807756892e-05 -1.6773922907665131e-04 0.0000000000000000e+00  3.4049661587392040e-05 -1.5740721052208079e-04 0.0000000000000000e+00  3.3340303116196066e-05 -1.4760126830841013e-04 0.0000000000000000e+00  3.2612419318162311e-05 -1.3828699675410869e-04 0.0000000000000000e+00  3.1866710655610865e-05 -1.2943393671910547e-04 0.0000000000000000e+00  3.1104358797962070e-05 -1.2101435760354875e-04 0.0000000000000000e+00  3.0326199939383247e-05 -1.1300410109384612e-04 0.0000000000000000e+00  2.9533582299107895e-05 -1.0538142452999530e-04 0.0000000000000000e+00  2.8727803195920121e-05 -9.8126328386928112e-05 0.0000000000000000e+00  2.7910113170272529e-05 -9.1220549619044881e-05 0.0000000000000000e+00  2.7081441798436265e-05 -8.4648044520999646e-05 0.0000000000000000e+00  2.6243402448301775e-05 -7.8393803649197340e-05 0.0000000000000000e+00  2.5396635709873738e-05 -7.2443724697957755e-05 0.0000000000000000e+00  2.4542644188798455e-05 -6.6785468218567913e-05 0.0000000000000000e+00  2.3682363771694765e-05 -6.1407638904268497e-05 0.0000000000000000e+00  2.2816337870169535e-05 -5.6299642425182811e-05 0.0000000000000000e+00  2.1945909743629693e-05 -5.1451218715280912e-05 0.0000000000000000e+00  2.1071621666720782e-05 -4.6853571573495728e-05 0.0000000000000000e+00  2.0194330941887081e-05 -4.2498165026579416e-05 0.0000000000000000e+00  1.9314694221102511e-05 -3.8377157892350387e-05 0.0000000000000000e+00  1.8433228113459472e-05 -3.4483448824158145e-05 0.0000000000000000e+00  1.7550556660491949e-05 -3.0810267448376059e-05 0.0000000000000000e+00  1.6667111239321290e-05 -2.7351427006404034e-05 0.0000000000000000e+00  1.5783316798713657e-05 -2.4101191549296080e-05 0.0000000000000000e+00  1.4899501179100100e-05 -2.1054237340983240e-05 0.0000000000000000e+00  1.4015964078040145e-05 -1.8205624399069395e-05 0.0000000000000000e+00  1.3132983056321641e-05 -1.5550865190531250e-05 0.0000000000000000e+00  1.2250749326253095e-05 -1.3085737831046532e-05 0.0000000000000000e+00  1.1369410357259284e-05 -1.0806426207429417e-05 0.0000000000000000e+00  1.0489081786257524e-05 -8.7094013461351767e-06 0.0000000000000000e+00  9.6098240757474169e-06 -6.7914777635101392e-06 0.0000000000000000e+00  8.7316894115046618e-06 -5.0497324572573206e-06 0.0000000000000000e+00  7.8546740223274193e-06 -3.4815624842107186e-06 0.0000000000000000e+00  6.9787625481634232e-06 -2.0846281254898186e-06 0.0000000000000000e+00  6.1038656601275111e-06 -8.5680037066049667e-07 0.0000000000000000e+00  5.2299492285782575e-06 2.0370080159868561e-07 0.0000000000000000e+00  4.3568817662637947e-06 1.0984109232880207e-06 0.0000000000000000e+00  3.4845800727379531e-06 1.8286667183739021e-06 0.0000000000000000e+00  2.6128749088612949e-06 2.3955616083987904e-06 0.0000000000000000e+00  1.7416533848649118e-06 2.7998929795523982e-06 0.0000000000000000e+00  8.7074704892963811e-07 3.0422563711492331e-06 0.0000000000000000e+00  -9.7236654075739482e-05 -7.3448111698417142e-04 0.0000000000000000e+00  -9.2107352876477812e-05 -7.6451978064952090e-04 0.0000000000000000e+00  -8.8406157860815979e-05 -7.8393281291993979e-04 0.0000000000000000e+00  -8.5244860049666168e-05 -7.9923785175852672e-04 0.0000000000000000e+00  -8.2730952846813308e-05 -8.1266448621468131e-04 0.0000000000000000e+00  -8.0324795457284066e-05 -8.2495191427423508e-04 0.0000000000000000e+00  -7.7920077483438108e-05 -8.3628089679080764e-04 0.0000000000000000e+00  -7.5524877102289240e-05 -8.4677852937688235e-04 0.0000000000000000e+00  -7.3137953145227798e-05 -8.5655698991799346e-04 0.0000000000000000e+00  -7.0757029796447509e-05 -8.6570296821210271e-04 0.0000000000000000e+00  -6.8379530119817608e-05 -8.7428133589514284e-04 0.0000000000000000e+00  -6.6003143072850914e-05 -8.8234335914249402e-04 0.0000000000000000e+00  -6.3627308751599827e-05 -8.8993171949207698e-04 0.0000000000000000e+00  -6.1251437231857992e-05 -8.9708058028921444e-04 0.0000000000000000e+00  -5.8874367318201814e-05 -9.0381862714075179e-04 0.0000000000000000e+00  -5.6496325529169690e-05 -9.1017124007235900e-04 0.0000000000000000e+00  -5.4116804088333096e-05 -9.1615902404959722e-04 0.0000000000000000e+00  -5.1735708703664803e-05 -9.2179985768384371e-04 0.0000000000000000e+00  -4.9352983795318408e-05 -9.2710952511873448e-04 0.0000000000000000e+00  -4.6968654026132827e-05 -9.3210174333487755e-04 0.0000000000000000e+00  -4.4582774611220423e-05 -9.3678867615335697e-04 0.0000000000000000e+00  -4.2195455179719015e-05 -9.4118107064337095e-04 0.0000000000000000e+00  -3.9806742326110667e-05 -9.4528842458645027e-04 0.0000000000000000e+00  -3.7416725449100872e-05 -9.4911927449753387e-04 0.0000000000000000e+00  -3.5025467918145553e-05 -9.5268119262356622e-04 0.0000000000000000e+00  -3.2633038047229623e-05 -9.5598083953645440e-04 0.0000000000000000e+00  -3.0239587956551226e-05 -9.5902419807375775e-04 0.0000000000000000e+00  -2.7845011378588903e-05 -9.6181654382674817e-04 0.0000000000000000e+00  -2.5449502747129527e-05 -9.6436265079617874e-04 0.0000000000000000e+00  -2.3053159692606369e-05 -9.6666665919666918e-04 0.0000000000000000e+00  -2.0656067429864657e-05 -9.6873225394573958e-04 0.0000000000000000e+00  -1.8258283392284930e-05 -9.7056262203700546e-04 0.0000000000000000e+00  -1.5859925541622447e-05 -9.7216055815182805e-04 0.0000000000000000e+00  -1.3461154766478723e-05 -9.7352844345784399e-04 0.0000000000000000e+00  -1.1061999992380976e-05 -9.7466824644388227e-04 0.0000000000000000e+00  -8.6627277608573871e-06 -9.7558172575352596e-04 0.0000000000000000e+00  -6.2633060445231048e-06 -9.7627015986049344e-04 0.0000000000000000e+00  -3.8639213145174986e-06 -9.7673453862472440e-04 0.0000000000000000e+00  -1.4647349987310325e-06 -9.7697557248029639e-04 0.0000000000000000e+00  9.3417583180138421e-07 -9.7699362307874767e-04 0.0000000000000000e+00  3.3326826137481078e-06 -9.7678874741896193e-04 0.0000000000000000e+00  5.7306700957814638e-06 -9.7636069536474030e-04 0.0000000000000000e+00  8.1280202994954838e-06 -9.7570890767478173e-04 0.0000000000000000e+00  1.0524594786806083e-05 -9.7483247370950155e-04 0.0000000000000000e+00  1.2920321160120907e-05 -9.7373016638168004e-04 0.0000000000000000e+00  1.5315060156930000e-05 -9.7240046210942646e-04 0.0000000000000000e+00  1.7708688127483848e-05 -9.7084141839891898e-04 0.0000000000000000e+00  2.0101090892321555e-05 -9.6905073142363385e-04 0.0000000000000000e+00  2.2492156982807752e-05 -9.6702572264333573e-04 0.0000000000000000e+00  2.4881710166855648e-05 -9.6476327090544813e-04 0.0000000000000000e+00  2.7269652315048155e-05 -9.6225986220009889e-04 0.0000000000000000e+00  2.9655857323309455e-05 -9.5951140033245059e-04 0.0000000000000000e+00  3.2040044413769318e-05 -9.5651332751573782e-04 0.0000000000000000e+00  3.4422137016890248e-05 -9.5326057528089664e-04 0.0000000000000000e+00  3.6801913545409752e-05 -9.4974732754235882e-04 0.0000000000000000e+00  3.9179161744093839e-05 -9.4596715162092147e-04 0.0000000000000000e+00  4.1553652030083402e-05 -9.4191278421916621e-04 0.0000000000000000e+00  4.3925259289580831e-05 -9.3757613432013831e-04 0.0000000000000000e+00  4.6293625657914866e-05 -9.3294788149865461e-04 0.0000000000000000e+00  4.8658456189469400e-05 -9.2801801204278589e-04 0.0000000000000000e+00  5.1019387238283967e-05 -9.2277479514715364e-04 0.0000000000000000e+00  5.3376157005881425e-05 -9.1720507232272879e-04 0.0000000000000000e+00  5.5728319603177046e-05 -9.1129386221418392e-04 0.0000000000000000e+00  5.8075416071206916e-05 -9.0502398580959967e-04 0.0000000000000000e+00  6.0416860664910623e-05 -8.9837583644618519e-04 0.0000000000000000e+00  6.2752047481094114e-05 -8.9132634184230458e-04 0.0000000000000000e+00  6.5079780792263043e-05 -8.8384871560611062e-04 0.0000000000000000e+00  6.7399250485801083e-05 -8.7591124223541732e-04 0.0000000000000000e+00  6.9709557585066273e-05 -8.6747678551310947e-04 0.0000000000000000e+00  7.2006905066602123e-05 -8.5849816794975053e-04 0.0000000000000000e+00  7.4288818071638078e-05 -8.4891928181446701e-04 0.0000000000000000e+00  7.6553560213011421e-05 -8.3867165732931981e-04 0.0000000000000000e+00  7.8798386963059293e-05 -8.2766711947733767e-04 0.0000000000000000e+00  8.1026922725146758e-05 -8.1577663466714148e-04 0.0000000000000000e+00  8.3249182038374909e-05 -8.0279400274559630e-04 0.0000000000000000e+00  8.5379608008530184e-05 -7.8837842175691548e-04 0.0000000000000000e+00  8.7146529583617704e-05 -7.7271652831789215e-04 0.0000000000000000e+00  9.4286419375197992e-05 -7.4387915260255562e-04 0.0000000000000000e+00  -8.7496735200723994e-07 3.0776028395090386e-06 0.0000000000000000e+00  -1.7501038574057903e-06 2.8351479643376660e-06 0.0000000000000000e+00  -2.6255782074561689e-06 2.4306647771206199e-06 0.0000000000000000e+00  -3.5015480481948782e-06 1.8635645965470261e-06 0.0000000000000000e+00  -4.3781760780625065e-06 1.1330184710385546e-06 0.0000000000000000e+00  -5.2555812460161073e-06 2.3793859392992828e-07 0.0000000000000000e+00  -6.1339107105005964e-06 -8.2294673333801295e-07 0.0000000000000000e+00  -7.0132699308941756e-06 -2.0512350790513169e-06 0.0000000000000000e+00  -7.8937424471087961e-06 -3.4487356828306036e-06 0.0000000000000000e+00  -8.7753892690433332e-06 -5.0175367427432523e-06 0.0000000000000000e+00  -9.6582524538035722e-06 -6.7599814762801432e-06 0.0000000000000000e+00  -1.0542338953635172e-05 -8.6786868825220307e-06 0.0000000000000000e+00  -1.1427631508271067e-05 -1.0776566043056683e-05 0.0000000000000000e+00  -1.2314063630109439e-05 -1.3056822564440261e-05 0.0000000000000000e+00  -1.3201542647513807e-05 -1.5522975593237199e-05 0.0000000000000000e+00  -1.4089927475640495e-05 -1.8178870599454650e-05 0.0000000000000000e+00  -1.4979046295009557e-05 -2.1028681050498646e-05 0.0000000000000000e+00  -1.5868642650245341e-05 -2.4076994171185881e-05 0.0000000000000000e+00  -1.6758452522545431e-05 -2.7328702513611625e-05 0.0000000000000000e+00  -1.7648143282876172e-05 -3.0789141021446703e-05 0.0000000000000000e+00  -1.8537371699834485e-05 -3.4464077484945266e-05 0.0000000000000000e+00  -1.9425582895916940e-05 -3.8359578858485921e-05 0.0000000000000000e+00  -2.0312355350124510e-05 -4.2482538240610973e-05 0.0000000000000000e+00  -2.1197094428458963e-05 -4.6840142158938191e-05 0.0000000000000000e+00  -2.2079186774951587e-05 -5.1440189515920652e-05 0.0000000000000000e+00  -2.2957923730086624e-05 -5.6291116317165901e-05 0.0000000000000000e+00  -2.3832530562709460e-05 -6.1402053924951668e-05 0.0000000000000000e+00  -2.4702165332999581e-05 -6.6782878338927861e-05 0.0000000000000000e+00  -2.5565989967193972e-05 -7.2444297071359699e-05 0.0000000000000000e+00  -2.6423037945683509e-05 -7.8397874508559780e-05 0.0000000000000000e+00  -2.7272256307931699e-05 -8.4656245553932626e-05 0.0000000000000000e+00  -2.8112564807661373e-05 -9.1233096522219049e-05 0.0000000000000000e+00  -2.8943304335260549e-05 -9.8143590731524487e-05 0.0000000000000000e+00  -2.9762417927391415e-05 -1.0540408671120103e-04 0.0000000000000000e+00  -3.0569529701620997e-05 -1.1303269964970782e-04 0.0000000000000000e+00  -3.1363454054863794e-05 -1.2104922805877144e-04 0.0000000000000000e+00  -3.2143011725893707e-05 -1.2947575893264491e-04 0.0000000000000000e+00  -3.2907047661947938e-05 -1.3833685175001896e-04 0.0000000000000000e+00  -3.3654937405659111e-05 -1.4765996272094378e-04 0.0000000000000000e+00  -3.4386194713363223e-05 -1.5747582010435112e-04 0.0000000000000000e+00  -3.5100424899919488e-05 -1.6781913491396868e-04 0.0000000000000000e+00  -3.5797703844583747e-05 -1.7872950513406880e-04 0.0000000000000000e+00  -3.6479192354026242e-05 -1.9025212633859564e-04 0.0000000000000000e+00  -3.7145796154192883e-05 -2.0243927485820806e-04 0.0000000000000000e+00  -3.7800105436971962e-05 -2.1535162203372834e-04 0.0000000000000000e+00  -3.8446588262829701e-05 -2.2906146616051776e-04 0.0000000000000000e+00  -3.9091341656429238e-05 -2.4365366120861922e-04 0.0000000000000000e+00  -3.9742459744016626e-05 -2.5923154168827167e-04 0.0000000000000000e+00  -4.0412471439196111e-05 -2.7592035182301780e-04 0.0000000000000000e+00  -4.1115524762654922e-05 -2.9387630101923579e-04 0.0000000000000000e+00  -4.1876458145448137e-05 -3.1330041254818916e-04 0.0000000000000000e+00  -4.2722989658073687e-05 -3.3444255491187698e-04 0.0000000000000000e+00  -4.3697041839484221e-05 -3.5765852700405125e-04 0.0000000000000000e+00  -4.4860735888848529e-05 -3.8341892846093867e-04 0.0000000000000000e+00  -4.6302411800957197e-05 -4.1241662610988933e-04 0.0000000000000000e+00  -4.8173138417064250e-05 -4.4573325659306729e-04 0.0000000000000000e+00  -5.0685526637804539e-05 -4.8528392100335044e-04 0.0000000000000000e+00  -5.4968536440043624e-05 -5.3568952262639247e-04 0.0000000000000000e+00  0.0000000000000000e+00 -4.7754428767777907e-06 0.0000000000000000e+00  0.0000000000000000e+00 -8.7578631835450246e-06 0.0000000000000000e+00  0.0000000000000000e+00 -1.2055281326059628e-05 0.0000000000000000e+00  0.0000000000000000e+00 -1.4759208964650619e-05 0.0000000000000000e+00  0.0000000000000000e+00 -1.6936911240747730e-05 0.0000000000000000e+00  0.0000000000000000e+00 -1.8644328060832152e-05 0.0000000000000000e+00  0.0000000000000000e+00 -1.9927354250211255e-05 0.0000000000000000e+00  0.0000000000000000e+00 -2.0824659543733717e-05 0.0000000000000000e+00  0.0000000000000000e+00 -2.1365785109064125e-05 0.0000000000000000e+00  0.0000000000000000e+00 -2.1582876432823398e-05 0.0000000000000000e+00  0.0000000000000000e+00 -2.1500965195711229e-05 0.0000000000000000e+00  0.0000000000000000e+00 -2.1145357510755756e-05 0.0000000000000000e+00  0.0000000000000000e+00 -2.0541860512330095e-05 0.0000000000000000e+00  0.0000000000000000e+00 -1.9715402893369837e-05 0.0000000000000000e+00  0.0000000000000000e+00 -1.8691434089706158e-05 0.0000000000000000e+00  0.0000000000000000e+00 -1.7496176954591896e-05 0.0000000000000000e+00  0.0000000000000000e+00 -1.6156924043222831e-05 0.0000000000000000e+00  0.0000000000000000e+00 -1.4700889805140995e-05 0.0000000000000000e+00  0.0000000000000000e+00 -1.3155801085683088e-05 0.0000000000000000e+00  0.0000000000000000e+00 -1.1549508792818248e-05 0.0000000000000000e+00  0.0000000000000000e+00 -9.9097073854189630e-06 0.0000000000000000e+00  0.0000000000000000e+00 -8.2632946957407431e-06 0.0000000000000000e+00  0.0000000000000000e+00 -6.6365926829261734e-06 0.0000000000000000e+00  0.0000000000000000e+00 -5.0537572359266919e-06 0.0000000000000000e+00  0.0000000000000000e+00 -3.5382440726993723e-06 0.0000000000000000e+00  0.0000000000000000e+00 -2.1115767270368165e-06 0.0000000000000000e+00  0.0000000000000000e+00 -7.9206789021909068e-07 0.0000000000000000e+00  0.0000000000000000e+00 4.0319338951966918e-07 0.0000000000000000e+00  0.0000000000000000e+00 1.4602573630838889e-06 0.0000000000000000e+00  0.0000000000000000e+00 2.3677061856667514e-06 0.0000000000000000e+00  0.0000000000000000e+00 3.1166701527051125e-06 0.0000000000000000e+00  0.0000000000000000e+00 3.7010504329844918e-06 0.0000000000000000e+00  0.0000000000000000e+00 4.1172268084726698e-06 0.0000000000000000e+00  0.0000000000000000e+00 4.3638977750578955e-06 0.0000000000000000e+00  0.0000000000000000e+00 4.4420901014206397e-06 0.0000000000000000e+00  0.0000000000000000e+00 4.3548861116373827e-06 0.0000000000000000e+00  0.0000000000000000e+00 4.1073252561217582e-06 0.0000000000000000e+00  0.0000000000000000e+00 3.7058306639356649e-06 0.0000000000000000e+00  0.0000000000000000e+00 0.0000000000000000e+00 0.0000000000000000e+00  0.0000000000000000e+00 0.0000000000000000e+00 0.0000000000000000e+00  0.0000000000000000e+00 0.0000000000000000e+00 0.0000000000000000e+00  0.0000000000000000e+00 0.0000000000000000e+00 0.0000000000000000e+00  0.0000000000000000e+00 0.0000000000000000e+00 0.0000000000000000e+00  0.0000000000000000e+00 0.0000000000000000e+00 0.0000000000000000e+00  0.0000000000000000e+00 0.0000000000000000e+00 0.0000000000000000e+00  0.0000000000000000e+00 0.0000000000000000e+00 0.0000000000000000e+00  0.0000000000000000e+00 0.0000000000000000e+00 0.0000000000000000e+00  0.0000000000000000e+00 0.0000000000000000e+00 0.0000000000000000e+00  0.0000000000000000e+00 0.0000000000000000e+00 0.0000000000000000e+00  0.0000000000000000e+00 0.0000000000000000e+00 0.0000000000000000e+00  0.0000000000000000e+00 0.0000000000000000e+00 0.0000000000000000e+00  0.0000000000000000e+00 0.0000000000000000e+00 0.0000000000000000e+00  0.0000000000000000e+00 0.0000000000000000e+00 0.0000000000000000e+00  0.0000000000000000e+00 0.0000000000000000e+00 0.0000000000000000e+00  0.0000000000000000e+00 0.0000000000000000e+00 0.0000000000000000e+00  0.0000000000000000e+00 0.0000000000000000e+00 0.0000000000000000e+00  0.0000000000000000e+00 3.6715095598030990e-06 0.0000000000000000e+00  0.0000000000000000e+00 4.0713889989191000e-06 0.0000000000000000e+00  0.0000000000000000e+00 4.3146767735066628e-06 0.0000000000000000e+00  0.0000000000000000e+00 4.3952823196931914e-06 0.0000000000000000e+00  0.0000000000000000e+00 4.3083250067006718e-06 0.0000000000000000e+00  0.0000000000000000e+00 4.0511163528336965e-06 0.0000000000000000e+00  0.0000000000000000e+00 3.6230330878941302e-06 0.0000000000000000e+00  0.0000000000000000e+00 3.0257208391174005e-06 0.0000000000000000e+00  0.0000000000000000e+00 2.2632462853257238e-06 0.0000000000000000e+00  0.0000000000000000e+00 1.3423651421918869e-06 0.0000000000000000e+00  0.0000000000000000e+00 2.7213576402682706e-07 0.0000000000000000e+00  0.0000000000000000e+00 -9.3492491601889985e-07 0.0000000000000000e+00  0.0000000000000000e+00 -2.2650128719999420e-06 0.0000000000000000e+00  0.0000000000000000e+00 -3.7006627978491044e-06 0.0000000000000000e+00  0.0000000000000000e+00 -5.2227200695710788e-06 0.0000000000000000e+00  0.0000000000000000e+00 -6.8093092436787368e-06 0.0000000000000000e+00  0.0000000000000000e+00 -8.4372378933932211e-06 0.0000000000000000e+00  0.0000000000000000e+00 -1.0082007766550511e-05 0.0000000000000000e+00  0.0000000000000000e+00 -1.1717108364116527e-05 0.0000000000000000e+00  0.0000000000000000e+00 -1.3315671618935790e-05 0.0000000000000000e+00  0.0000000000000000e+00 -1.4850262670643645e-05 0.0000000000000000e+00  0.0000000000000000e+00 -1.6293337771632117e-05 0.0000000000000000e+00  0.0000000000000000e+00 -1.7617382635618493e-05 0.0000000000000000e+00  0.0000000000000000e+00 -1