<?xml version="1.0"?>
<VTKFile type="UnstructuredGrid"  version="0.1"  >
<UnstructuredGrid>
<Piece  NumberOfPoints="3167" NumberOfCells="6038">
<Points>
<DataArray  type="Float64"  NumberOfComponents="3"  format="ascii">2.2 2.9 0  0 2.9 0  2.8 2.9 0  5 2.9 0  5 0 0  0 0 0  2.16271186440678 2.9 0  2.125423728813559 2.9 0  2.088135593220339 2.9 0  2.050847457627119 2.9 0  2.013559322033898 2.9 0  1.976271186440678 2.9 0  1.938983050847457 2.9 0  1.901694915254237 2.9 0  1.864406779661016 2.9 0  1.827118644067796 2.9 0  1.789830508474575 2.9 0  1.752542372881355 2.9 0  1.715254237288134 2.9 0  1.677966101694914 2.9 0  1.640677966101693 2.9 0  1.603389830508473 2.9 0  1.566101694915253 2.9 0  1.528813559322032 2.9 0  1.491525423728812 2.9 0  1.454237288135591 2.9 0  1.416949152542371 2.9 0  1.37966101694915 2.9 0  1.34237288135593 2.9 0  1.305084745762709 2.9 0  1.267796610169489 2.9 0  1.230508474576268 2.9 0  1.193220338983048 2.9 0  1.155932203389827 2.9 0  1.118644067796607 2.9 0  1.081355932203387 2.9 0  1.044067796610166 2.9 0  1.006779661016946 2.9 0  0.9694915254237257 2.9 0  0.9322033898305055 2.9 0  0.8949152542372856 2.9 0  0.8576271186440652 2.9 0  0.820338983050845 2.9 0  0.783050847457625 2.9 0  0.7457627118644048 2.9 0  0.7084745762711844 2.9 0  0.6711864406779642 2.9 0  0.633898305084744 2.9 0  0.5966101694915238 2.9 0  0.5593220338983036 2.9 0  0.5220338983050834 2.9 0  0.4847457627118632 2.9 0  0.447457627118643 2.9 0  0.4101694915254228 2.9 0  0.3728813559322024 2.9 0  0.3355932203389822 2.9 0  0.2983050847457622 2.9 0  0.2610169491525418 2.9 0  0.2237288135593216 2.9 0  0.1864406779661016 2.9 0  0.1491525423728812 2.9 0  0.1118644067796613 2.9 0  0.07457627118644039 2.9 0  0.03728813559321997 2.9 0  2.792405063291139 2.9 0  2.784810126582279 2.9 0  2.777215189873418 2.9 0  2.769620253164557 2.9 0  2.762025316455697 2.9 0  2.754430379746836 2.9 0  2.746835443037975 2.9 0  2.739240506329114 2.9 0  2.731645569620254 2.9 0  2.724050632911393 2.9 0  2.716455696202532 2.9 0  2.708860759493671 2.9 0  2.701265822784811 2.9 0  2.69367088607595 2.9 0  2.686075949367089 2.9 0  2.678481012658228 2.9 0  2.670886075949368 2.9 0  2.663291139240507 2.9 0  2.655696202531646 2.9 0  2.648101265822786 2.9 0  2.640506329113925 2.9 0  2.632911392405064 2.9 0  2.625316455696203 2.9 0  2.617721518987342 2.9 0  2.610126582278482 2.9 0  2.602531645569621 2.9 0  2.59493670886076 2.9 0  2.587341772151899 2.9 0  2.579746835443038 2.9 0  2.572151898734178 2.9 0  2.564556962025317 2.9 0  2.556962025316456 2.9 0  2.549367088607595 2.9 0  2.541772151898734 2.9 0  2.534177215189874 2.9 0  2.526582278481013 2.9 0  2.518987341772152 2.9 0  2.511392405063292 2.9 0  2.503797468354431 2.9 0  2.49620253164557 2.9 0  2.488607594936709 2.9 0  2.481012658227848 2.9 0  2.473417721518988 2.9 0  2.465822784810127 2.9 0  2.458227848101266 2.9 0  2.450632911392406 2.9 0  2.443037974683545 2.9 0  2.435443037974684 2.9 0  2.427848101265823 2.9 0  2.420253164556962 2.9 0  2.412658227848102 2.9 0  2.405063291139241 2.9 0  2.39746835443038 2.9 0  2.389873417721519 2.9 0  2.382278481012658 2.9 0  2.374683544303798 2.9 0  2.367088607594937 2.9 0  2.359493670886076 2.9 0  2.351898734177215 2.9 0  2.344303797468355 2.9 0  2.336708860759494 2.9 0  2.329113924050633 2.9 0  2.321518987341773 2.9 0  2.313924050632912 2.9 0  2.306329113924051 2.9 0  2.29873417721519 2.9 0  2.291139240506329 2.9 0  2.283544303797469 2.9 0  2.275949367088608 2.9 0  2.268354430379747 2.9 0  2.260759493670887 2.9 0  2.253164556962026 2.9 0  2.245569620253165 2.9 0  2.237974683544304 2.9 0  2.230379746835443 2.9 0  2.222784810126583 2.9 0  2.215189873417722 2.9 0  2.207594936708861 2.9 0  4.96271186440678 2.9 0  4.925423728813559 2.9 0  4.888135593220339 2.9 0  4.850847457627118 2.9 0  4.813559322033898 2.9 0  4.776271186440677 2.9 0  4.738983050847457 2.9 0  4.701694915254237 2.9 0  4.664406779661016 2.9 0  4.627118644067796 2.9 0  4.589830508474575 2.9 0  4.552542372881355 2.9 0  4.515254237288135 2.9 0  4.477966101694914 2.9 0  4.440677966101694 2.9 0  4.403389830508473 2.9 0  4.366101694915252 2.9 0  4.328813559322032 2.9 0  4.291525423728811 2.9 0  4.254237288135591 2.9 0  4.21694915254237 2.9 0  4.17966101694915 2.9 0  4.14237288135593 2.9 0  4.105084745762709 2.9 0  4.067796610169489 2.9 0  4.030508474576268 2.9 0  3.993220338983048 2.9 0  3.955932203389827 2.9 0  3.918644067796607 2.9 0  3.881355932203387 2.9 0  3.844067796610166 2.9 0  3.806779661016946 2.9 0  3.769491525423725 2.9 0  3.732203389830505 2.9 0  3.694915254237285 2.9 0  3.657627118644065 2.9 0  3.620338983050845 2.9 0  3.583050847457625 2.9 0  3.545762711864405 2.9 0  3.508474576271184 2.9 0  3.471186440677964 2.9 0  3.433898305084744 2.9 0  3.396610169491524 2.9 0  3.359322033898303 2.9 0  3.322033898305083 2.9 0  3.284745762711863 2.9 0  3.247457627118643 2.9 0  3.210169491525423 2.9 0  3.172881355932202 2.9 0  3.135593220338982 2.9 0  3.098305084745762 2.9 0  3.061016949152542 2.9 0  3.023728813559321 2.9 0  2.986440677966101 2.9 0  2.949152542372881 2.9 0  2.911864406779661 2.9 0  2.87457627118644 2.9 0  2.83728813559322 2.9 0  5 0.1063822624840908 0  5 0.210636879963479 0  5 0.3128064053000104 0  5 0.4129325399736057 0  5 0.5110561519920087 0  5 0.6072172917522097 0  5 0.7014552086337308 0  5 0.7938083672768746 0  5 0.8843144624325437 0  5 0.9730104357533907 0  5 1.059932489779506 0  5 1.145116102681561 0  5 1.228596043237163 0  5 1.310406384819408 0  5 1.39058051967151 0  5 1.46915117219283 0  5 1.546150411689349 0  5 1.621609666350684 0  5 1.695559735780513 0  5 1.76803080351128 0  5 1.839052449831632 0  5 1.908653663284034 0  5 1.976862852540214 0  5 2.043707858250082 0  5 2.109215963970139 0  5 2.173413907547539 0  5 2.236327892447888 0  5 2.29798359737153 0  5 2.358406188061876 0  5 2.417620326899216 0  5 2.475650183036803 0  5 2.532519442044509 0  5 2.588251315695885 0  5 2.642868552136335 0  5 2.696393444001645 0  5 2.748847837883952 0  5 2.800253143882191 0  5 2.85063034388582 0  0.2631578947368421 0 0  0.5263157894736842 0 0  0.7894736842105263 0 0  1.052631578947368 0 0  1.31578947368421 0 0  1.578947368421053 0 0  1.842105263157895 0 0  2.105263157894737 0 0  2.368421052631579 0 0  2.631578947368421 0 0  2.894736842105263 0 0  3.157894736842105 0 0  3.421052631578947 0 0  3.684210526315789 0 0  3.947368421052632 0 0  4.210526315789473 0 0  4.473684210526315 0 0  4.736842105263158 0 0  0 2.850203682350569 0  0 2.799411438503675 0  0 2.747603349778291 0  0 2.694759099502208 0  0 2.640857964382145 0  0 2.58587880633613 0  0 2.52980006535898 0  0 2.472599749459174 0  0 2.414255427218689 0  0 2.35474421880616 0  0 2.294042786119219 0  0 2.232127324764723 0  0 2.1689735539481 0  0 2.104556707683346 0  0 2.038851524813415 0  0 1.971832238155654 0  0 1.903472565412125 0  0 1.83374569926617 0  0 1.762624296208474 0  0 1.690080464918761 0  0 1.616085756774205 0  0 1.540611154706337 0  0 1.463627060685571 0  0 1.385103284916206 0  0 1.305009033716617 0  0 1.223312897337225 0  0 1.139982838163732 0  0 1.054986177579937 0  0 0.9682895835804808 0  0 0.8798590579197967 0  0 0.789659921841535 0  0 0.6976568029903634 0  0 0.6038136217958807 0  0 0.508093576867624 0  0 0.4104591310957497 0  0 0.31087199635222 0  0 0.2092931188294389 0  0 0.1056826638508546 0  1.434832105734982 2.866945754976478 0  1.737156300412976 2.8700394402447 0  2.032203389830508 2.867707527316512 0  2.332911392405064 2.893422591869991 0  2.469810913221006 2.891944186617815 0  2.606221408801046 2.892519154968786 0  2.255455320556353 2.892068684938936 0  2.538247299178607 2.894964578175289 0  2.674683544303798 2.893422591869991 0  2.40126582278481 2.893422591869991 0  3.566125247274844 2.86502933617869 0  3.266101694915253 2.867707527316512 0  2.967796610169491 2.867707527316512 0  1.174288529771947 2.870795313883199 0  3.825423728813556 2.867707527316512 0  2.727766680241741 2.892655387639323 0  0.06601655192030442 1.502119107695954 0  4.933983535518289 1.50765079194109 0  0.9532124728076634 2.868722489784116 0  4.048935912505472 2.870640982963028 0  0.05930163367361851 1.866907161167415 0  4.943402512617702 1.871280731227115 0  4.271733869970415 2.865208656206698 0  0.724942092071192 2.863922936166216 0  0.05494499779911566 2.196469063120751 0  4.947228695435926 2.208030108416282 0  0.5406152149451962 2.866493807374646 0  4.459322033898304 2.868847558171501 0  2.18135593220339 2.875780645487384 0  2.81702715648046 2.876587550622478 0  4.928427208334964 1.186856072959362 0  0.07189226971603357 1.174626666111664 0  4.610299014391064 2.867003104061287 0  0.3897270066746503 2.869433095314649 0  1.5811324999839 2.868247328613121 0  1.887637879307645 2.869235851843492 0  3.413449426409203 2.867372048026557 0  3.116721298784139 2.865731235545648 0  2.644303797468355 2.893422591869991 0  2.370983221771223 2.892719513366117 0  2.302531645569621 2.89333678739629 0  2.758987341772152 2.894242393896969 0  0.04979653335696588 2.443411216910279 0  4.950470983481301 2.446866954190454 0  2.482937483056625 0.2513241088166693 0  1.70712950486069 0.1999998660928157 0  3.285846579639133 0.2292006256069719 0  4.907807122450741 0.8340823629079156 0  4.757627118644067 2.867707527316512 0  0.07734891246767406 0.8347594898806658 0  0.2390604736599493 2.861365431805748 0  0.8363213714273008 2.863896768913622 0  4.16086561018973 2.868916854014843 0  1.28254933196979 2.86761095296154 0  1.065094818264994 2.861284686078544 0  3.938181277358471 2.868651344087338 0  3.711492629398847 2.863574306894209 0  4.913693619806458 0.5579891341027028 0  0.08208328472281323 0.5559535993317524 0  2.696596932509445 2.892010483912606 0  0.04706410140274642 2.613055974506517 0  4.955577063959472 2.616518038416838 0  2.234177215189874 2.893422591869991 0  2.279795840517476 2.894038618939426 0  0.911735788765236 0.2117925286661764 0  4.055948041976698 0.2039101059740411 0  4.872119713756579 2.86763292637659 0  2.78011387899257 2.891535929611774 0  0.1327442468251299 2.85732490707
[...]
<PointData  Vectors="displacement"> 
<DataArray  type="Float64"  Name="displacement"  NumberOfComponents="3" format="ascii">2.6624291836431402e-05 -1.6537433417058270e-04 0.0000000000000000e+00  0.0000000000000000e+00 9.8114305160964308e-07 0.0000000000000000e+00  -2.6671760906642859e-05 -1.6538009376295442e-04 0.0000000000000000e+00  0.0000000000000000e+00 9.8112970727657118e-07 0.0000000000000000e+00  0.0000000000000000e+00 0.0000000000000000e+00 0.0000000000000000e+00  0.0000000000000000e+00 0.0000000000000000e+00 0.0000000000000000e+00  2.6415431917942310e-05 -1.4538108753226579e-04 0.0000000000000000e+00  2.5851125899592320e-05 -1.3217228492337426e-04 0.0000000000000000e+00  2.5300952957112793e-05 -1.2155443465164705e-04 0.0000000000000000e+00  2.4757104199130614e-05 -1.1250109589228520e-04 0.0000000000000000e+00  2.4214455746591327e-05 -1.0455868258079634e-04 0.0000000000000000e+00  2.3673243266962914e-05 -9.7466521723074958e-05 0.0000000000000000e+00  2.3134435371037493e-05 -9.1053799723019547e-05 0.0000000000000000e+00  2.2597879723491151e-05 -8.5201131390623560e-05 0.0000000000000000e+00  2.2064437539658954e-05 -7.9819875732850253e-05 0.0000000000000000e+00  2.1534062448939240e-05 -7.4843873837599151e-05 0.0000000000000000e+00  2.1006775396307365e-05 -7.0221896850936185e-05 0.0000000000000000e+00  2.0482630951869295e-05 -6.5911858671965359e-05 0.0000000000000000e+00  1.9962001525264130e-05 -6.1879357046287347e-05 0.0000000000000000e+00  1.9444948406271868e-05 -5.8096232561131371e-05 0.0000000000000000e+00  1.8931548271844902e-05 -5.4538998982285862e-05 0.0000000000000000e+00  1.8421917393353180e-05 -5.1187547244959902e-05 0.0000000000000000e+00  1.7916179071403751e-05 -4.8024636589966660e-05 0.0000000000000000e+00  1.7414242188010836e-05 -4.5035305872390430e-05 0.0000000000000000e+00  1.6916314167589962e-05 -4.2206496121009457e-05 0.0000000000000000e+00  1.6422475998097227e-05 -3.9526794359012021e-05 0.0000000000000000e+00  1.5932758448367132e-05 -3.6986161342851237e-05 0.0000000000000000e+00  1.5447181312485004e-05 -3.4575681432371196e-05 0.0000000000000000e+00  1.4965830712123991e-05 -3.2287226438844838e-05 0.0000000000000000e+00  1.4488640792282086e-05 -3.0113692898904324e-05 0.0000000000000000e+00  1.4015693825019106e-05 -2.8048688232024451e-05 0.0000000000000000e+00  1.3547000256993382e-05 -2.6086331093862770e-05 0.0000000000000000e+00  1.3082560028456600e-05 -2.4221248172679131e-05 0.0000000000000000e+00  1.2622295036848951e-05 -2.2448722158145694e-05 0.0000000000000000e+00  1.2166328413571316e-05 -2.0764339099929773e-05 0.0000000000000000e+00  1.1714415936260826e-05 -1.9163981388326408e-05 0.0000000000000000e+00  1.1266706013376646e-05 -1.7644006152274754e-05 0.0000000000000000e+00  1.0823112072307461e-05 -1.6201080281340017e-05 0.0000000000000000e+00  1.0383496198492732e-05 -1.4832123433340092e-05 0.0000000000000000e+00  9.9478609880544570e-06 -1.3534133806655397e-05 0.0000000000000000e+00  9.5161127173261701e-06 -1.2304546427102794e-05 0.0000000000000000e+00  9.0881836599524892e-06 -1.1140882591249949e-05 0.0000000000000000e+00  8.6639618265216298e-06 -1.0040860195488858e-05 0.0000000000000000e+00  8.2433617271768701e-06 -9.0024281368063686e-06 0.0000000000000000e+00  7.8262738767874455e-06 -8.0236212798724231e-06 0.0000000000000000e+00  7.4125823141175292e-06 -7.1026527981043221e-06 0.0000000000000000e+00  7.0021670225933903e-06 -6.2378692839927867e-06 0.0000000000000000e+00  6.5949022126470139e-06 -5.4277354515407065e-06 0.0000000000000000e+00  6.1906358217983284e-06 -4.6708314678704417e-06 0.0000000000000000e+00  5.7892440451128519e-06 -3.9658679705879240e-06 0.0000000000000000e+00  5.3905701550903072e-06 -3.3116313464894417e-06 0.0000000000000000e+00  4.9944638106756299e-06 -2.7070287797812269e-06 0.0000000000000000e+00  4.6007627280981139e-06 -2.1510513745787937e-06 0.0000000000000000e+00  4.2093038947581102e-06 -1.6427871318550827e-06 0.0000000000000000e+00  3.8199148357530591e-06 -1.1813995371572419e-06 0.0000000000000000e+00  3.4324218796258123e-06 -7.6614543388444885e-07 0.0000000000000000e+00  3.0466651654059593e-06 -3.9635973055549348e-07 0.0000000000000000e+00  2.6624211575205311e-06 -7.1436715946778255e-08 0.0000000000000000e+00  2.2795365614468187e-06 2.0913822615971802e-07 0.0000000000000000e+00  1.8978221642309005e-06 4.4579646194988160e-07 0.0000000000000000e+00  1.5170973008269725e-06 6.3891984525937856e-07 0.0000000000000000e+00  1.1371258060818235e-06 7.8881707753340436e-07 0.0000000000000000e+00  7.5775268546384251e-07 8.9572100285622718e-07 0.0000000000000000e+00  3.7877585155176784e-07 9.5979603750477301e-07 0.0000000000000000e+00  -2.6335899610510923e-05 -1.7146926777024632e-04 0.0000000000000000e+00  -2.5623542076090197e-05 -1.7585738000523878e-04 0.0000000000000000e+00  -2.4927501302989487e-05 -1.7960583504673814e-04 0.0000000000000000e+00  -2.4235145564351101e-05 -1.8295451387662282e-04 0.0000000000000000e+00  -2.3549779872445994e-05 -1.8601006811576058e-04 0.0000000000000000e+00  -2.2865141835364795e-05 -1.8882936876881375e-04 0.0000000000000000e+00  -2.2181060975428818e-05 -1.9145087307461853e-04 0.0000000000000000e+00  -2.1497513135659863e-05 -1.9390016108117021e-04 0.0000000000000000e+00  -2.0813891281223273e-05 -1.9619679845544083e-04 0.0000000000000000e+00  -2.0130568673015835e-05 -1.9835621450114150e-04 0.0000000000000000e+00  -1.9447528774744028e-05 -2.0039052842880576e-04 0.0000000000000000e+00  -1.8764545856874680e-05 -2.0230953058595448e-04 0.0000000000000000e+00  -1.8081648791048712e-05 -2.0412146298460446e-04 0.0000000000000000e+00  -1.7398869366140324e-05 -2.0583302405790895e-04 0.0000000000000000e+00  -1.6716069297634841e-05 -2.0744994807341566e-04 0.0000000000000000e+00  -1.6033391441475581e-05 -2.0897739660523913e-04 0.0000000000000000e+00  -1.5350772229559067e-05 -2.1041963242294934e-04 0.0000000000000000e+00  -1.4668210026160814e-05 -2.1178039094211284e-04 0.0000000000000000e+00  -1.3985693286098058e-05 -2.1306299571392882e-04 0.0000000000000000e+00  -1.3303216558589486e-05 -2.1427035367616628e-04 0.0000000000000000e+00  -1.2620774839671875e-05 -2.1540505424326350e-04 0.0000000000000000e+00  -1.1938372337968447e-05 -2.1646939560095594e-04 0.0000000000000000e+00  -1.1256001899930241e-05 -2.1746541746412909e-04 0.0000000000000000e+00  -1.0573663991252191e-05 -2.1839496038192970e-04 0.0000000000000000e+00  -9.8913540920649215e-06 -2.1925966499054144e-04 0.0000000000000000e+00  -9.2090713081933159e-06 -2.2006098164902729e-04 0.0000000000000000e+00  -8.5268289336247419e-06 -2.2080021866474923e-04 0.0000000000000000e+00  -7.8445893799101326e-06 -2.2147853429621672e-04 0.0000000000000000e+00  -7.1623731171411852e-06 -2.2209698264786127e-04 0.0000000000000000e+00  -6.4801808311789965e-06 -2.2265648095724013e-04 0.0000000000000000e+00  -5.7980097872090251e-06 -2.2315784864957881e-04 0.0000000000000000e+00  -5.1158500400599365e-06 -2.2360179566471825e-04 0.0000000000000000e+00  -4.4337016740922067e-06 -2.2398894613350081e-04 0.0000000000000000e+00  -3.7515701585215251e-06 -2.2431983211098104e-04 0.0000000000000000e+00  -3.0694393993825024e-06 -2.2459489094760074e-04 0.0000000000000000e+00  -2.3873335628489853e-06 -2.2481451100221859e-04 0.0000000000000000e+00  -1.7052188842409742e-06 -2.2497897425488968e-04 0.0000000000000000e+00  -1.0231104830497768e-06 -2.2508849308769581e-04 0.0000000000000000e+00  -3.4100893122539054e-07 -2.2514321724462880e-04 0.0000000000000000e+00  3.4109266629718127e-07 -2.2514321599948861e-04 0.0000000000000000e+00  1.0231951561822379e-06 -2.2508848861493088e-04 0.0000000000000000e+00  1.7053006601643022e-06 -2.2497896439530905e-04 0.0000000000000000e+00  2.3874103843678645e-06 -2.2481450226973700e-04 0.0000000000000000e+00  3.0695232768598208e-06 -2.2459488103677020e-04 0.0000000000000000e+00  3.7516500931007547e-06 -2.2431980878691234e-04 0.0000000000000000e+00  4.4337829140421156e-06 -2.2398892470163473e-04 0.0000000000000000e+00  5.1159285540586558e-06 -2.2360177588558476e-04 0.0000000000000000e+00  5.7980880015032456e-06 -2.2315782660161770e-04 0.0000000000000000e+00  6.4802658466133692e-06 -2.2265645821711245e-04 0.0000000000000000e+00  7.1624558740806539e-06 -2.2209695268862628e-04 0.0000000000000000e+00  7.8446692401427647e-06 -2.2147850606297635e-04 0.0000000000000000e+00  8.5269116485311214e-06 -2.2080018206544760e-04 0.0000000000000000e+00  9.2091625001332626e-06 -2.2006094208463296e-04 0.0000000000000000e+00  9.8914453750404490e-06 -2.1925963312202466e-04 0.0000000000000000e+00  1.0573755540610129e-05 -2.1839493578323685e-04 0.0000000000000000e+00  1.1256093982143479e-05 -2.1746539233936265e-04 0.0000000000000000e+00  1.1938461940356477e-05 -2.1646936393610475e-04 0.0000000000000000e+00  1.2620881742454713e-05 -2.1540502979637923e-04 0.0000000000000000e+00  1.3303344456007274e-05 -2.1427030059084127e-04 0.0000000000000000e+00  1.3985834430785979e-05 -2.1306293598066854e-04 0.0000000000000000e+00  1.4668360576647959e-05 -2.1178032760462069e-04 0.0000000000000000e+00  1.5350941661857597e-05 -2.1041955650729711e-04 0.0000000000000000e+00  1.6033577099939614e-05 -2.0897731722838592e-04 0.0000000000000000e+00  1.6716275541588051e-05 -2.0744983531240032e-04 0.0000000000000000e+00  1.7399041632388303e-05 -2.0583282216914996e-04 0.0000000000000000e+00  1.8081899325382598e-05 -2.0412125597758023e-04 0.0000000000000000e+00  1.8764792651438378e-05 -2.0230933787456824e-04 0.0000000000000000e+00  1.9447815739043139e-05 -2.0039024699725110e-04 0.0000000000000000e+00  2.0131031205649885e-05 -1.9835601910969975e-04 0.0000000000000000e+00  2.0814250415279795e-05 -1.9619654289853360e-04 0.0000000000000000e+00  2.1497586645614066e-05 -1.9389965220872340e-04 0.0000000000000000e+00  2.2181430940011069e-05 -1.9145049029561744e-04 0.0000000000000000e+00  2.2865818223615597e-05 -1.8882949175059251e-04 0.0000000000000000e+00  2.3550185567287857e-05 -1.8600927461624226e-04 0.0000000000000000e+00  2.4235003454629368e-05 -1.8295263330248620e-04 0.0000000000000000e+00  2.4918908321920199e-05 -1.7960521014960231e-04 0.0000000000000000e+00  2.5627974669320727e-05 -1.7587119200253456e-04 0.0000000000000000e+00  2.6327518968685555e-05 -1.7145748016661447e-04 0.0000000000000000e+00  -3.7878097203892422e-07 9.5978566516328560e-07 0.0000000000000000e+00  -7.5775871590295663e-07 8.9570959932641467e-07 0.0000000000000000e+00  -1.1371275567334307e-06 7.8880861969494014e-07 0.0000000000000000e+00  -1.5170848977764844e-06 6.3891167583173980e-07 0.0000000000000000e+00  -1.8978223388840271e-06 4.4578800212321029e-07 0.0000000000000000e+00  -2.2795472669051721e-06 2.0912165092831244e-07 0.0000000000000000e+00  -2.6624211716704125e-06 -7.1443605883320313e-08 0.0000000000000000e+00  -3.0466550658067958e-06 -3.9636368688816721e-07 0.0000000000000000e+00  -3.4324246141353149e-06 -7.6615456217750951e-07 0.0000000000000000e+00  -3.8199162589607267e-06 -1.1814119776334601e-06 0.0000000000000000e+00  -4.2093034781001597e-06 -1.6427998653667803e-06 0.0000000000000000e+00  -4.6007655281469970e-06 -2.1510666590578675e-06 0.0000000000000000e+00  -4.9944659672041825e-06 -2.7070438622673200e-06 0.0000000000000000e+00  -5.3905710128021360e-06 -3.3116465896259807e-06 0.0000000000000000e+00  -5.7892426143048490e-06 -3.9658805608236152e-06 0.0000000000000000e+00  -6.1906348861585343e-06 -4.6708461089607482e-06 0.0000000000000000e+00  -6.5948949665499877e-06 -5.4277419248249573e-06 0.0000000000000000e+00  -7.0021660510880527e-06 -6.2378842349103362e-06 0.0000000000000000e+00  -7.4125783754327737e-06 -7.1026735216430680e-06 0.0000000000000000e+00  -7.8262678247477066e-06 -8.0236506825674184e-06 0.0000000000000000e+00  -8.2433811097363890e-06 -9.0024625049850664e-06 0.0000000000000000e+00  -8.6639546059573903e-06 -1.0040882198664537e-05 0.0000000000000000e+00  -9.0881737299924689e-06 -1.1140886660971263e-05 0.0000000000000000e+00  -9.5161075507313078e-06 -1.2304557328332356e-05 0.0000000000000000e+00  -9.9478509793805120e-06 -1.3534154725314520e-05 0.0000000000000000e+00  -1.0383482837477095e-05 -1.4832127426284093e-05 0.0000000000000000e+00  -1.0823079430376457e-05 -1.6201129023780693e-05 0.0000000000000000e+00  -1.1266705392607803e-05 -1.7644033620103787e-05 0.0000000000000000e+00  -1.1714425438694107e-05 -1.9163966460855504e-05 0.0000000000000000e+00  -1.2166279071413522e-05 -2.0764300678750642e-05 0.0000000000000000e+00  -1.2622301781464732e-05 -2.2448725581963391e-05 0.0000000000000000e+00  -1.3082521514887701e-05 -2.4221249713020285e-05 0.0000000000000000e+00  -1.3547068074667017e-05 -2.6086321145421556e-05 0.0000000000000000e+00  -1.4015684153623603e-05 -2.8048719660271984e-05 0.0000000000000000e+00  -1.4488621796709999e-05 -3.0113766380364167e-05 0.0000000000000000e+00  -1.4965810057048379e-05 -3.2287255122385143e-05 0.0000000000000000e+00  -1.5447206934366069e-05 -3.4575659811149294e-05 0.0000000000000000e+00  -1.5932753030634372e-05 -3.6986160084392534e-05 0.0000000000000000e+00  -1.6422458291029420e-05 -3.9526780371344321e-05 0.0000000000000000e+00  -1.6916301893507801e-05 -4.2206461145401394e-05 0.0000000000000000e+00  -1.7414208880581075e-05 -4.5035277908425966e-05 0.0000000000000000e+00  -1.7916087136272467e-05 -4.8024679890816396e-05 0.0000000000000000e+00  -1.8421966002809067e-05 -5.1187645459373703e-05 0.0000000000000000e+00  -1.8931649310160515e-05 -5.4539079012506499e-05 0.0000000000000000e+00  -1.9444970831949878e-05 -5.8096192925986927e-05 0.0000000000000000e+00  -1.9961922394460560e-05 -6.1879245245090940e-05 0.0000000000000000e+00  -2.0482551549680176e-05 -6.5911776614006718e-05 0.0000000000000000e+00  -2.1006610948613211e-05 -7.0222113490034000e-05 0.0000000000000000e+00  -2.1534033858038037e-05 -7.4844233519674426e-05 0.0000000000000000e+00  -2.2064657763590181e-05 -7.9819615756001298e-05 0.0000000000000000e+00  -2.2597975078410248e-05 -8.5201187769335602e-05 0.0000000000000000e+00  -2.3134816622152925e-05 -9.1053496579437845e-05 0.0000000000000000e+00  -2.3673089258133316e-05 -9.7466820960630672e-05 0.0000000000000000e+00  -2.4213803685988365e-05 -1.0455954280448619e-04 0.0000000000000000e+00  -2.4756409484878891e-05 -1.1250095573053455e-04 0.0000000000000000e+00  -2.5304813268180071e-05 -1.2155425215512977e-04 0.0000000000000000e+00  -2.5841326613163007e-05 -1.3217920637572029e-04 0.0000000000000000e+00  -2.6423117121054325e-05 -1.4536837727456475e-04 0.0000000000000000e+00  0.0000000000000000e+00 -1.1610130860355155e-06 0.0000000000000000e+00  0.0000000000000000e+00 -2.1068101164411260e-06 0.0000000000000000e+00  0.0000000000000000e+00 -2.8677614455477251e-06 0.0000000000000000e+00  0.0000000000000000e+00 -3.4697935244318670e-06 0.0000000000000000e+00  0.0000000000000000e+00 -3.9321567619616022e-06 0.0000000000000000e+00  0.0000000000000000e+00 -4.2710356793882644e-06 0.0000000000000000e+00  0.0000000000000000e+00 -4.4998156304824385e-06 0.0000000000000000e+00  0.0000000000000000e+00 -4.6298685748459048e-06 0.0000000000000000e+00  0.0000000000000000e+00 -4.6701435350248084e-06 0.0000000000000000e+00  0.0000000000000000e+00 -4.6301004346485753e-06 0.0000000000000000e+00  0.0000000000000000e+00 -4.5173378645724741e-06 0.0000000000000000e+00  0.0000000000000000e+00 -4.3394226642903455e-06 0.0000000000000000e+00  0.0000000000000000e+00 -4.1039805837843876e-06 0.0000000000000000e+00  0.0000000000000000e+00 -3.8183395374431923e-06 0.0000000000000000e+00  0.0000000000000000e+00 -3.4898897640926548e-06 0.0000000000000000e+00  0.0000000000000000e+00 -3.1261284358784697e-06 0.0000000000000000e+00  0.0000000000000000e+00 -2.7347123460579721e-06 0.0000000000000000e+00  0.0000000000000000e+00 -2.3231945241155341e-06 0.0000000000000000e+00  0.0000000000000000e+00 -1.8991358250936361e-06 0.0000000000000000e+00  0.0000000000000000e+00 -1.4700235391387820e-06 0.0000000000000000e+00  0.0000000000000000e+00 -1.0431632614999706e-06 0.0000000000000000e+00  0.0000000000000000e+00 -6.2552766770037509e-07 0.0000000000000000e+00  0.0000000000000000e+00 -2.2384084900220579e-07 0.0000000000000000e+00  0.0000000000000000e+00 1.5589666441719245e-07 0.0000000000000000e+00  0.0000000000000000e+00 5.0794350324688881e-07 0.0000000000000000e+00  0.0000000000000000e+00 8.2718013863328730e-07 0.0000000000000000e+00  0.0000000000000000e+00 1.1094261830606835e-06 0.0000000000000000e+00  0.0000000000000000e+00 1.3508934056766611e-06 0.0000000000000000e+00  0.0000000000000000e+00 1.5486883156783097e-06 0.0000000000000000e+00  0.0000000000000000e+00 1.7006336153354792e-06 0.0000000000000000e+00  0.0000000000000000e+00 1.8052634988074334e-06 0.0000000000000000e+00  0.0000000000000000e+00 1.8618620714450778e-06 0.0000000000000000e+00  0.0000000000000000e+00 1.8703776596309390e-06 0.0000000000000000e+00  0.0000000000000000e+00 1.8313741134171866e-06 0.0000000000000000e+00  0.0000000000000000e+00 1.7460145781701546e-06 0.0000000000000000e+00  0.0000000000000000e+00 1.6159866536218635e-06 0.0000000000000000e+00  0.0000000000000000e+00 1.4434326184604987e-06 0.0000000000000000e+00  0.0000000000000000e+00 1.2308684971089135e-06 0.0000000000000000e+00  0.0000000000000000e+00 0.0000000000000000e+00 0.0000000000000000e+00  0.0000000000000000e+00 0.0000000000000000e+00 0.0000000000000000e+00  0.0000000000000000e+00 0.0000000000000000e+00 0.0000000000000000e+00  0.0000000000000000e+00 0.0000000000000000e+00 0.0000000000000000e+00  0.0000000000000000e+00 0.0000000000000000e+00 0.0000000000000000e+00  0.0000000000000000e+00 0.0000000000000000e+00 0.0000000000000000e+00  0.0000000000000000e+00 0.0000000000000000e+00 0.0000000000000000e+00  0.0000000000000000e+00 0.0000000000000000e+00 0.0000000000000000e+00  0.0000000000000000e+00 0.0000000000000000e+00 0.0000000000000000e+00  0.0000000000000000e+00 0.0000000000000000e+00 0.0000000000000000e+00  0.0000000000000000e+00 0.0000000000000000e+00 0.0000000000000000e+00  0.0000000000000000e+00 0.0000000000000000e+00 0.0000000000000000e+00  0.0000000000000000e+00 0.0000000000000000e+00 0.0000000000000000e+00  0.0000000000000000e+00 0.0000000000000000e+00 0.0000000000000000e+00  0.0000000000000000e+00 0.0000000000000000e+00 0.0000000000000000e+00  0.0000000000000000e+00 0.0000000000000000e+00 0.0000000000000000e+00  0.0000000000000000e+00 0.0000000000000000e+00 0.0000000000000000e+00  0.0000000000000000e+00 0.0000000000000000e+00 0.0000000000000000e+00  0.0000000000000000e+00 1.2328575621028303e-06 0.0000000000000000e+00  0.0000000000000000e+00 1.4466276360029662e-06 0.0000000000000000e+00  0.0000000000000000e+00 1.6196185037090591e-06 0.0000000000000000e+00  0.0000000000000000e+00 1.7493365826227901e-06 0.0000000000000000e+00  0.0000000000000000e+00 1.8336721804270177e-06 0.0000000000000000e+00  0.0000000000000000e+00 1.8710047357825308e-06 0.0000000000000000e+00  0.0000000000000000e+00 1.8602546974197687e-06 0.0000000000000000e+00  0.0000000000000000e+00 1.8009323749246882e-06 0.0000000000000000e+00  0.0000000000000000e+00 1.6931900149306280e-06 0.0000000000000000e+00  0.0000000000000000e+00 1.5379010686589658e-06 0.0000000000000000e+00  0.0000000000000000e+00 1.3365807694224575e-06 0.0000000000000000e+00  0.0000000000000000e+00 1.0916898521426515e-06 0.0000000000000000e+00  0.0000000000000000e+00 8.0609695076817635e-07 0.0000000000000000e+00  0.0000000000000000e+00 4.8369618360466987e-07 0.0000000000000000e+00  0.0000000000000000e+00 1.2890846593391510e-07 0.0000000000000000e+00  0.0000000000000000e+00 -2.5302340822806542e-07 0.0000000000000000e+00  0.0000000000000000e+00 -6.5641896778566611e-07 0.0000000000000000e+00  0.0000000000000000e+00 -1.0751332808482454e-06 0.0000000000000000e+00  0.0000000000000000e+00 -1.5023729627690879e-06 0.0000000000000000e+00  0.0000000000000000e+00 -1.9311342778867145e-06 0.0000000000000000e+00  0.0000000000000000e+00 -2.3541272289643090e-06 0.0000000000000000e+00  0.0000000000000000e+00 -2.7639219215685176e-06 0.0000000000000000e+00  0.0000000000000000e+00 -3.1529784762069289e-06 0.0000000000000000e+00  0.0000000000000000e+00 -3.5137554