<?xml version="1.0"?>
<VTKFile type="UnstructuredGrid"  version="0.1"  >
<UnstructuredGrid>
<Piece  NumberOfPoints="3167" NumberOfCells="6038">
<Points>
<DataArray  type="Float64"  NumberOfComponents="3"  format="ascii">2.2 2.9 0  0 2.9 0  2.8 2.9 0  5 2.9 0  5 0 0  0 0 0  2.16271186440678 2.9 0  2.125423728813559 2.9 0  2.088135593220339 2.9 0  2.050847457627119 2.9 0  2.013559322033898 2.9 0  1.976271186440678 2.9 0  1.938983050847457 2.9 0  1.901694915254237 2.9 0  1.864406779661016 2.9 0  1.827118644067796 2.9 0  1.789830508474575 2.9 0  1.752542372881355 2.9 0  1.715254237288134 2.9 0  1.677966101694914 2.9 0  1.640677966101693 2.9 0  1.603389830508473 2.9 0  1.566101694915253 2.9 0  1.528813559322032 2.9 0  1.491525423728812 2.9 0  1.454237288135591 2.9 0  1.416949152542371 2.9 0  1.37966101694915 2.9 0  1.34237288135593 2.9 0  1.305084745762709 2.9 0  1.267796610169489 2.9 0  1.230508474576268 2.9 0  1.193220338983048 2.9 0  1.155932203389827 2.9 0  1.118644067796607 2.9 0  1.081355932203387 2.9 0  1.044067796610166 2.9 0  1.006779661016946 2.9 0  0.9694915254237257 2.9 0  0.9322033898305055 2.9 0  0.8949152542372856 2.9 0  0.8576271186440652 2.9 0  0.820338983050845 2.9 0  0.783050847457625 2.9 0  0.7457627118644048 2.9 0  0.7084745762711844 2.9 0  0.6711864406779642 2.9 0  0.633898305084744 2.9 0  0.5966101694915238 2.9 0  0.5593220338983036 2.9 0  0.5220338983050834 2.9 0  0.4847457627118632 2.9 0  0.447457627118643 2.9 0  0.4101694915254228 2.9 0  0.3728813559322024 2.9 0  0.3355932203389822 2.9 0  0.2983050847457622 2.9 0  0.2610169491525418 2.9 0  0.2237288135593216 2.9 0  0.1864406779661016 2.9 0  0.1491525423728812 2.9 0  0.1118644067796613 2.9 0  0.07457627118644039 2.9 0  0.03728813559321997 2.9 0  2.792405063291139 2.9 0  2.784810126582279 2.9 0  2.777215189873418 2.9 0  2.769620253164557 2.9 0  2.762025316455697 2.9 0  2.754430379746836 2.9 0  2.746835443037975 2.9 0  2.739240506329114 2.9 0  2.731645569620254 2.9 0  2.724050632911393 2.9 0  2.716455696202532 2.9 0  2.708860759493671 2.9 0  2.701265822784811 2.9 0  2.69367088607595 2.9 0  2.686075949367089 2.9 0  2.678481012658228 2.9 0  2.670886075949368 2.9 0  2.663291139240507 2.9 0  2.655696202531646 2.9 0  2.648101265822786 2.9 0  2.640506329113925 2.9 0  2.632911392405064 2.9 0  2.625316455696203 2.9 0  2.617721518987342 2.9 0  2.610126582278482 2.9 0  2.602531645569621 2.9 0  2.59493670886076 2.9 0  2.587341772151899 2.9 0  2.579746835443038 2.9 0  2.572151898734178 2.9 0  2.564556962025317 2.9 0  2.556962025316456 2.9 0  2.549367088607595 2.9 0  2.541772151898734 2.9 0  2.534177215189874 2.9 0  2.526582278481013 2.9 0  2.518987341772152 2.9 0  2.511392405063292 2.9 0  2.503797468354431 2.9 0  2.49620253164557 2.9 0  2.488607594936709 2.9 0  2.481012658227848 2.9 0  2.473417721518988 2.9 0  2.465822784810127 2.9 0  2.458227848101266 2.9 0  2.450632911392406 2.9 0  2.443037974683545 2.9 0  2.435443037974684 2.9 0  2.427848101265823 2.9 0  2.420253164556962 2.9 0  2.412658227848102 2.9 0  2.405063291139241 2.9 0  2.39746835443038 2.9 0  2.389873417721519 2.9 0  2.382278481012658 2.9 0  2.374683544303798 2.9 0  2.367088607594937 2.9 0  2.359493670886076 2.9 0  2.351898734177215 2.9 0  2.344303797468355 2.9 0  2.336708860759494 2.9 0  2.329113924050633 2.9 0  2.321518987341773 2.9 0  2.313924050632912 2.9 0  2.306329113924051 2.9 0  2.29873417721519 2.9 0  2.291139240506329 2.9 0  2.283544303797469 2.9 0  2.275949367088608 2.9 0  2.268354430379747 2.9 0  2.260759493670887 2.9 0  2.253164556962026 2.9 0  2.245569620253165 2.9 0  2.237974683544304 2.9 0  2.230379746835443 2.9 0  2.222784810126583 2.9 0  2.215189873417722 2.9 0  2.207594936708861 2.9 0  4.96271186440678 2.9 0  4.925423728813559 2.9 0  4.888135593220339 2.9 0  4.850847457627118 2.9 0  4.813559322033898 2.9 0  4.776271186440677 2.9 0  4.738983050847457 2.9 0  4.701694915254237 2.9 0  4.664406779661016 2.9 0  4.627118644067796 2.9 0  4.589830508474575 2.9 0  4.552542372881355 2.9 0  4.515254237288135 2.9 0  4.477966101694914 2.9 0  4.440677966101694 2.9 0  4.403389830508473 2.9 0  4.366101694915252 2.9 0  4.328813559322032 2.9 0  4.291525423728811 2.9 0  4.254237288135591 2.9 0  4.21694915254237 2.9 0  4.17966101694915 2.9 0  4.14237288135593 2.9 0  4.105084745762709 2.9 0  4.067796610169489 2.9 0  4.030508474576268 2.9 0  3.993220338983048 2.9 0  3.955932203389827 2.9 0  3.918644067796607 2.9 0  3.881355932203387 2.9 0  3.844067796610166 2.9 0  3.806779661016946 2.9 0  3.769491525423725 2.9 0  3.732203389830505 2.9 0  3.694915254237285 2.9 0  3.657627118644065 2.9 0  3.620338983050845 2.9 0  3.583050847457625 2.9 0  3.545762711864405 2.9 0  3.508474576271184 2.9 0  3.471186440677964 2.9 0  3.433898305084744 2.9 0  3.396610169491524 2.9 0  3.359322033898303 2.9 0  3.322033898305083 2.9 0  3.284745762711863 2.9 0  3.247457627118643 2.9 0  3.210169491525423 2.9 0  3.172881355932202 2.9 0  3.135593220338982 2.9 0  3.098305084745762 2.9 0  3.061016949152542 2.9 0  3.023728813559321 2.9 0  2.986440677966101 2.9 0  2.949152542372881 2.9 0  2.911864406779661 2.9 0  2.87457627118644 2.9 0  2.83728813559322 2.9 0  5 0.1063822624840908 0  5 0.210636879963479 0  5 0.3128064053000104 0  5 0.4129325399736057 0  5 0.5110561519920087 0  5 0.6072172917522097 0  5 0.7014552086337308 0  5 0.7938083672768746 0  5 0.8843144624325437 0  5 0.9730104357533907 0  5 1.059932489779506 0  5 1.145116102681561 0  5 1.228596043237163 0  5 1.310406384819408 0  5 1.39058051967151 0  5 1.46915117219283 0  5 1.546150411689349 0  5 1.621609666350684 0  5 1.695559735780513 0  5 1.76803080351128 0  5 1.839052449831632 0  5 1.908653663284034 0  5 1.976862852540214 0  5 2.043707858250082 0  5 2.109215963970139 0  5 2.173413907547539 0  5 2.236327892447888 0  5 2.29798359737153 0  5 2.358406188061876 0  5 2.417620326899216 0  5 2.475650183036803 0  5 2.532519442044509 0  5 2.588251315695885 0  5 2.642868552136335 0  5 2.696393444001645 0  5 2.748847837883952 0  5 2.800253143882191 0  5 2.85063034388582 0  0.2631578947368421 0 0  0.5263157894736842 0 0  0.7894736842105263 0 0  1.052631578947368 0 0  1.31578947368421 0 0  1.578947368421053 0 0  1.842105263157895 0 0  2.105263157894737 0 0  2.368421052631579 0 0  2.631578947368421 0 0  2.894736842105263 0 0  3.157894736842105 0 0  3.421052631578947 0 0  3.684210526315789 0 0  3.947368421052632 0 0  4.210526315789473 0 0  4.473684210526315 0 0  4.736842105263158 0 0  0 2.850203682350569 0  0 2.799411438503675 0  0 2.747603349778291 0  0 2.694759099502208 0  0 2.640857964382145 0  0 2.58587880633613 0  0 2.52980006535898 0  0 2.472599749459174 0  0 2.414255427218689 0  0 2.35474421880616 0  0 2.294042786119219 0  0 2.232127324764723 0  0 2.1689735539481 0  0 2.104556707683346 0  0 2.038851524813415 0  0 1.971832238155654 0  0 1.903472565412125 0  0 1.83374569926617 0  0 1.762624296208474 0  0 1.690080464918761 0  0 1.616085756774205 0  0 1.540611154706337 0  0 1.463627060685571 0  0 1.385103284916206 0  0 1.305009033716617 0  0 1.223312897337225 0  0 1.139982838163732 0  0 1.054986177579937 0  0 0.9682895835804808 0  0 0.8798590579197967 0  0 0.789659921841535 0  0 0.6976568029903634 0  0 0.6038136217958807 0  0 0.508093576867624 0  0 0.4104591310957497 0  0 0.31087199635222 0  0 0.2092931188294389 0  0 0.1056826638508546 0  1.434832105734982 2.866945754976478 0  1.737156300412976 2.8700394402447 0  2.032203389830508 2.867707527316512 0  2.332911392405064 2.893422591869991 0  2.469810913221006 2.891944186617815 0  2.606221408801046 2.892519154968786 0  2.255455320556353 2.892068684938936 0  2.538247299178607 2.894964578175289 0  2.674683544303798 2.893422591869991 0  2.40126582278481 2.893422591869991 0  3.566125247274844 2.86502933617869 0  3.266101694915253 2.867707527316512 0  2.967796610169491 2.867707527316512 0  1.174288529771947 2.870795313883199 0  3.825423728813556 2.867707527316512 0  2.727766680241741 2.892655387639323 0  0.06601655192030442 1.502119107695954 0  4.933983535518289 1.50765079194109 0  0.9532124728076634 2.868722489784116 0  4.048935912505472 2.870640982963028 0  0.05930163367361851 1.866907161167415 0  4.943402512617702 1.871280731227115 0  4.271733869970415 2.865208656206698 0  0.724942092071192 2.863922936166216 0  0.05494499779911566 2.196469063120751 0  4.947228695435926 2.208030108416282 0  0.5406152149451962 2.866493807374646 0  4.459322033898304 2.868847558171501 0  2.18135593220339 2.875780645487384 0  2.81702715648046 2.876587550622478 0  4.928427208334964 1.186856072959362 0  0.07189226971603357 1.174626666111664 0  4.610299014391064 2.867003104061287 0  0.3897270066746503 2.869433095314649 0  1.5811324999839 2.868247328613121 0  1.887637879307645 2.869235851843492 0  3.413449426409203 2.867372048026557 0  3.116721298784139 2.865731235545648 0  2.644303797468355 2.893422591869991 0  2.370983221771223 2.892719513366117 0  2.302531645569621 2.89333678739629 0  2.758987341772152 2.894242393896969 0  0.04979653335696588 2.443411216910279 0  4.950470983481301 2.446866954190454 0  2.482937483056625 0.2513241088166693 0  1.70712950486069 0.1999998660928157 0  3.285846579639133 0.2292006256069719 0  4.907807122450741 0.8340823629079156 0  4.757627118644067 2.867707527316512 0  0.07734891246767406 0.8347594898806658 0  0.2390604736599493 2.861365431805748 0  0.8363213714273008 2.863896768913622 0  4.16086561018973 2.868916854014843 0  1.28254933196979 2.86761095296154 0  1.065094818264994 2.861284686078544 0  3.938181277358471 2.868651344087338 0  3.711492629398847 2.863574306894209 0  4.913693619806458 0.5579891341027028 0  0.08208328472281323 0.5559535993317524 0  2.696596932509445 2.892010483912606 0  0.04706410140274642 2.613055974506517 0  4.955577063959472 2.616518038416838 0  2.234177215189874 2.893422591869991 0  2.279795840517476 2.894038618939426 0  0.911735788765236 0.2117925286661764 0  4.055948041976698 0.2039101059740411 0  4.872119713756579 2.86763292637659 0  2.78011387899257 2.891535929611774 0  0.1327442468251299 2.85732490707
[...]
<PointData  Vectors="displacement"> 
<DataArray  type="Float64"  Name="displacement"  NumberOfComponents="3" format="ascii">-2.7718836778834484e-05 -7.8000134381179658e-05 0.0000000000000000e+00  0.0000000000000000e+00 -6.9631504296078645e-08 0.0000000000000000e+00  2.2273620695340864e-05 -8.5924119341560979e-05 0.0000000000000000e+00  0.0000000000000000e+00 -3.4206564067662888e-08 0.0000000000000000e+00  0.0000000000000000e+00 0.0000000000000000e+00 0.0000000000000000e+00  0.0000000000000000e+00 0.0000000000000000e+00 0.0000000000000000e+00  -3.3318401265833368e-05 -6.0951964257811869e-05 0.0000000000000000e+00  -3.5165518644052110e-05 -5.4012093347459303e-05 0.0000000000000000e+00  -3.5660091151419685e-05 -4.9298102916661129e-05 0.0000000000000000e+00  -3.5544378542106878e-05 -4.5620946111389239e-05 0.0000000000000000e+00  -3.5062993103116599e-05 -4.2595937946318129e-05 0.0000000000000000e+00  -3.4340457358436022e-05 -4.0013428977523098e-05 0.0000000000000000e+00  -3.3458541558277312e-05 -3.7744796598730647e-05 0.0000000000000000e+00  -3.2471317792159715e-05 -3.5707674637413170e-05 0.0000000000000000e+00  -3.1420859472036334e-05 -3.3846459035093086e-05 0.0000000000000000e+00  -3.0333539179023792e-05 -3.2122268181031447e-05 0.0000000000000000e+00  -2.9230022139875589e-05 -3.0508846495533282e-05 0.0000000000000000e+00  -2.8125607209296298e-05 -2.8986874908022573e-05 0.0000000000000000e+00  -2.7032063147629708e-05 -2.7542182957822590e-05 0.0000000000000000e+00  -2.5956756189357141e-05 -2.6164291191804507e-05 0.0000000000000000e+00  -2.4905282634806550e-05 -2.4845727151087671e-05 0.0000000000000000e+00  -2.3881510487970696e-05 -2.3580703028474667e-05 0.0000000000000000e+00  -2.2887836433762814e-05 -2.2364853743405945e-05 0.0000000000000000e+00  -2.1925738771588065e-05 -2.1194709704897031e-05 0.0000000000000000e+00  -2.0995887259446664e-05 -2.0067615095661657e-05 0.0000000000000000e+00  -2.0098300339824100e-05 -1.8981400641457605e-05 0.0000000000000000e+00  -1.9232647210264658e-05 -1.7934328277681482e-05 0.0000000000000000e+00  -1.8398291818241022e-05 -1.6924950284885195e-05 0.0000000000000000e+00  -1.7594332733557491e-05 -1.5951985123288615e-05 0.0000000000000000e+00  -1.6819719470405388e-05 -1.5014389091378798e-05 0.0000000000000000e+00  -1.6073371522165246e-05 -1.4111220934239293e-05 0.0000000000000000e+00  -1.5354025563394296e-05 -1.3241618973502804e-05 0.0000000000000000e+00  -1.4660430859219446e-05 -1.2404804876311039e-05 0.0000000000000000e+00  -1.3991403688274524e-05 -1.1600085026794124e-05 0.0000000000000000e+00  -1.3345731351247050e-05 -1.0826812939873507e-05 0.0000000000000000e+00  -1.2721978560548045e-05 -1.0084284978391376e-05 0.0000000000000000e+00  -1.2119125630451365e-05 -9.3720155664662316e-06 0.0000000000000000e+00  -1.1535954967764443e-05 -8.6894553116101506e-06 0.0000000000000000e+00  -1.0971474388021079e-05 -8.0360332923775479e-06 0.0000000000000000e+00  -1.0424349079574112e-05 -7.4112572808173111e-06 0.0000000000000000e+00  -9.8937317917289748e-06 -6.8146774810124041e-06 0.0000000000000000e+00  -9.3785448410312737e-06 -6.2458236005429172e-06 0.0000000000000000e+00  -8.8777671628711167e-06 -5.7042804038243747e-06 0.0000000000000000e+00  -8.3906039648569807e-06 -5.1896208167447338e-06 0.0000000000000000e+00  -7.9160749417290395e-06 -4.7014690000734954e-06 0.0000000000000000e+00  -7.4533713794466550e-06 -4.2394525143918173e-06 0.0000000000000000e+00  -7.0016777962881993e-06 -3.8032155853539208e-06 0.0000000000000000e+00  -6.5602570335902354e-06 -3.3924302850504874e-06 0.0000000000000000e+00  -6.1283145837187654e-06 -3.0067767557322496e-06 0.0000000000000000e+00  -5.7051700256350740e-06 -2.6459630391294478e-06 0.0000000000000000e+00  -5.2901221570182199e-06 -2.3097163384233579e-06 0.0000000000000000e+00  -4.8825342998719106e-06 -1.9977765541413935e-06 0.0000000000000000e+00  -4.4817627472075795e-06 -1.7098976517490643e-06 0.0000000000000000e+00  -4.0872165948509279e-06 -1.4458617850162700e-06 0.0000000000000000e+00  -3.6982824250947842e-06 -1.2054679628784403e-06 0.0000000000000000e+00  -3.3143988836306044e-06 -9.8853146771009085e-07 0.0000000000000000e+00  -2.9350611442119223e-06 -7.9487678290634321e-07 0.0000000000000000e+00  -2.5596311527857543e-06 -6.2434587743290856e-07 0.0000000000000000e+00  -2.1876442198622859e-06 -4.7683328696020303e-07 0.0000000000000000e+00  -1.8186161352787632e-06 -3.5220714155176595e-07 0.0000000000000000e+00  -1.4520422168903416e-06 -2.5037326651968338e-07 0.0000000000000000e+00  -1.0873232243468343e-06 -1.7124275231576318e-07 0.0000000000000000e+00  -7.2406769647073666e-07 -1.1477588550857536e-07 0.0000000000000000e+00  -3.6178649425454028e-07 -8.0912136012653237e-08 0.0000000000000000e+00  -1.1539850737019974e-05 -1.7652151294332680e-04 0.0000000000000000e+00  -8.7285551664605902e-06 -1.9228129505187251e-04 0.0000000000000000e+00  -7.2922711707484001e-06 -1.9949688507554274e-04 0.0000000000000000e+00  -6.3838933073511540e-06 -2.0390535021156981e-04 0.0000000000000000e+00  -6.1001604969789172e-06 -2.0738923600165435e-04 0.0000000000000000e+00  -5.9218097170454969e-06 -2.1050268264456538e-04 0.0000000000000000e+00  -5.7430853028924436e-06 -2.1330131145123513e-04 0.0000000000000000e+00  -5.5721440381440518e-06 -2.1582898076582307e-04 0.0000000000000000e+00  -5.4097200406102558e-06 -2.1813420195251830e-04 0.0000000000000000e+00  -5.2523229065593140e-06 -2.2025345798037883e-04 0.0000000000000000e+00  -5.0974295088255441e-06 -2.2221218467273631e-04 0.0000000000000000e+00  -4.9434633269880990e-06 -2.2402979049368989e-04 0.0000000000000000e+00  -4.7897705090144639e-06 -2.2572213754102819e-04 0.0000000000000000e+00  -4.6356576899603970e-06 -2.2730159251302206e-04 0.0000000000000000e+00  -4.4804136510893154e-06 -2.2877818175651068e-04 0.0000000000000000e+00  -4.3238000588606998e-06 -2.3016048957693607e-04 0.0000000000000000e+00  -4.1655159869381334e-06 -2.3145524992231642e-04 0.0000000000000000e+00  -4.0054724659286187e-06 -2.3266818639212751e-04 0.0000000000000000e+00  -3.8436514839168840e-06 -2.3380426832140874e-04 0.0000000000000000e+00  -3.6800954405399159e-06 -2.3486775353888815e-04 0.0000000000000000e+00  -3.5148758337657439e-06 -2.3586237993210898e-04 0.0000000000000000e+00  -3.3480885979058405e-06 -2.3679141629256000e-04 0.0000000000000000e+00  -3.1798036050329562e-06 -2.3765772318610709e-04 0.0000000000000000e+00  -3.0101087384849674e-06 -2.3846384799572270e-04 0.0000000000000000e+00  -2.8390820753359794e-06 -2.3921202435154011e-04 0.0000000000000000e+00  -2.6667948392098143e-06 -2.3990419336886016e-04 0.0000000000000000e+00  -2.4933558917775609e-06 -2.4054208066371779e-04 0.0000000000000000e+00  -2.3187812780256352e-06 -2.4112719286360616e-04 0.0000000000000000e+00  -2.1431988222284891e-06 -2.4166087392202414e-04 0.0000000000000000e+00  -1.9667039230332936e-06 -2.4214427937003195e-04 0.0000000000000000e+00  -1.7893906943492100e-06 -2.4257842772212526e-04 0.0000000000000000e+00  -1.6113489310637073e-06 -2.4296419583344459e-04 0.0000000000000000e+00  -1.4326963204236440e-06 -2.4330234746866277e-04 0.0000000000000000e+00  -1.2535759542474405e-06 -2.4359353249259091e-04 0.0000000000000000e+00  -1.0740691276949676e-06 -2.4383829625927549e-04 0.0000000000000000e+00  -8.9436374576070647e-07 -2.4403713369572827e-04 0.0000000000000000e+00  -7.1453765105426347e-07 -2.4419040571485969e-04 0.0000000000000000e+00  -5.3472811601302151e-07 -2.4429841108704098e-04 0.0000000000000000e+00  -3.5509470740725372e-07 -2.4436137298061700e-04 0.0000000000000000e+00  -1.7573693275698040e-07 -2.4437942763074437e-04 0.0000000000000000e+00  3.2138895672674799e-09 -2.4435263443561882e-04 0.0000000000000000e+00  1.8163560413075448e-07 -2.4428097330209998e-04 0.0000000000000000e+00  3.5940630780842588e-07 -2.4416434403240695e-04 0.0000000000000000e+00  5.3639098549812385e-07 -2.4400255577465527e-04 0.0000000000000000e+00  7.1248224142596865e-07 -2.4379533131275619e-04 0.0000000000000000e+00  8.8756658160189355e-07 -2.4354232116537871e-04 0.0000000000000000e+00  1.0614981823560733e-06 -2.4324305655649758e-04 0.0000000000000000e+00  1.2341596481353583e-06 -2.4289697694390627e-04 0.0000000000000000e+00  1.4054245737091182e-06 -2.4250341681289066e-04 0.0000000000000000e+00  1.5751369515533836e-06 -2.4206159151840279e-04 0.0000000000000000e+00  1.7431623499445845e-06 -2.4157060310769449e-04 0.0000000000000000e+00  1.9093561049107996e-06 -2.4102940201624394e-04 0.0000000000000000e+00  2.0735044679265261e-06 -2.4043681009036392e-04 0.0000000000000000e+00  2.2354541400286840e-06 -2.3979151070876772e-04 0.0000000000000000e+00  2.3949989339356506e-06 -2.3909198108449699e-04 0.0000000000000000e+00  2.5519233882511548e-06 -2.3833653197636673e-04 0.0000000000000000e+00  2.7059938828361944e-06 -2.3752323290552544e-04 0.0000000000000000e+00  2.8570126513476754e-06 -2.3664991764885473e-04 0.0000000000000000e+00  3.0046508951720100e-06 -2.3571406444188316e-04 0.0000000000000000e+00  3.1486645944087050e-06 -2.3471294961700554e-04 0.0000000000000000e+00  3.2886611104945962e-06 -2.3364332995512438e-04 0.0000000000000000e+00  3.4243175731724471e-06 -2.3250154522436512e-04 0.0000000000000000e+00  3.5551900017431676e-06 -2.3128337001039801e-04 0.0000000000000000e+00  3.6807912879550570e-06 -2.2998390734878775e-04 0.0000000000000000e+00  3.8005205700508302e-06 -2.2859750561437516e-04 0.0000000000000000e+00  3.9136940018309902e-06 -2.2711743349043115e-04 0.0000000000000000e+00  4.0192979789037620e-06 -2.2553577403859170e-04 0.0000000000000000e+00  4.1162160953195670e-06 -2.2384300678900343e-04 0.0000000000000000e+00  4.2033456177533984e-06 -2.2202791108355010e-04 0.0000000000000000e+00  4.2775033426907517e-06 -2.2007621156437603e-04 0.0000000000000000e+00  4.3358458067071306e-06 -2.1797138907021568e-04 0.0000000000000000e+00  4.3753641707292317e-06 -2.1569331754950783e-04 0.0000000000000000e+00  4.3932002609565893e-06 -2.1321748766596021e-04 0.0000000000000000e+00  4.3948102476013327e-06 -2.1050396649510160e-04 0.0000000000000000e+00  4.3886777199481739e-06 -2.0746762057160118e-04 0.0000000000000000e+00  4.2936828090481520e-06 -2.0394452732272226e-04 0.0000000000000000e+00  3.7533082512541612e-06 -2.0043309859327503e-04 0.0000000000000000e+00  8.6168865768895837e-06 -1.8595790532814987e-04 0.0000000000000000e+00  3.5758285320065949e-07 -4.5531916137607782e-08 0.0000000000000000e+00  7.1563684692992096e-07 -7.9483793729594227e-08 0.0000000000000000e+00  1.0746256223583200e-06 -1.3611206185593336e-07 0.0000000000000000e+00  1.4350338820082259e-06 -2.1544880509500832e-07 0.0000000000000000e+00  1.7973223918003256e-06 -3.1757206559360390e-07 0.0000000000000000e+00  2.1620470378994258e-06 -4.4254155896025021e-07 0.0000000000000000e+00  2.5295861484568392e-06 -5.9046982031249661e-07 0.0000000000000000e+00  2.9005208974681948e-06 -7.6147086259308443e-07 0.0000000000000000e+00  3.2753393569216636e-06 -9.5567496293815594e-07 0.0000000000000000e+00  3.6545871986631112e-06 -1.1732317671555023e-06 0.0000000000000000e+00  4.0387868609940783e-06 -1.4143240630423789e-06 0.0000000000000000e+00  4.4285146911672018e-06 -1.6791334525649635e-06 0.0000000000000000e+00  4.8243201661875528e-06 -1.9678673114812739e-06 0.0000000000000000e+00  5.2268106441503413e-06 -2.2807514707745199e-06 0.0000000000000000e+00  5.6366057786065162e-06 -2.6180324733106804e-06 0.0000000000000000e+00  6.0543481415554645e-06 -2.9799753141286036e-06 0.0000000000000000e+00  6.4806883389414080e-06 -3.3668529305515845e-06 0.0000000000000000e+00  6.9163487834876214e-06 -3.7789695570795721e-06 0.0000000000000000e+00  7.3620172797760191e-06 -4.2166605873727869e-06 0.0000000000000000e+00  7.8184686260583522e-06 -4.6802468970136845e-06 0.0000000000000000e+00  8.2865234491750047e-06 -5.1701376437577651e-06 0.0000000000000000e+00  8.7668549924012582e-06 -5.6866297718051916e-06 0.0000000000000000e+00  9.2604881207866334e-06 -6.2301835717345494e-06 0.0000000000000000e+00  9.7682422179351947e-06 -6.8012125939426922e-06 0.0000000000000000e+00  1.0291039480110709e-05 -7.4001600123105537e-06 0.0000000000000000e+00  1.0829845051469936e-05 -8.0274941913537392e-06 0.0000000000000000e+00  1.1385681960173950e-05 -8.6837117247879153e-06 0.0000000000000000e+00  1.1959602466276037e-05 -9.3693363067342204e-06 0.0000000000000000e+00  1.2552655224071219e-05 -1.0084905925663000e-05 0.0000000000000000e+00  1.3165935294887654e-05 -1.0831008821441355e-05 0.0000000000000000e+00  1.3800611125707036e-05 -1.1608274918652731e-05 0.0000000000000000e+00  1.4457853898993513e-05 -1.2417346767228291e-05 0.0000000000000000e+00  1.5138745102216129e-05 -1.3258913690246712e-05 0.0000000000000000e+00  1.5844504423242741e-05 -1.4133780848183644e-05 0.0000000000000000e+00  1.6576327896733957e-05 -1.5042748539168040e-05 0.0000000000000000e+00  1.7335170265211248e-05 -1.5986762242505028e-05 0.0000000000000000e+00  1.8122074121354799e-05 -1.6966842853705815e-05 0.0000000000000000e+00  1.8938001237224584e-05 -1.7984187368606933e-05 0.0000000000000000e+00  1.9783608431710379e-05 -1.9040140569748997e-05 0.0000000000000000e+00  2.0659314193716010e-05 -2.0136338488277045e-05 0.0000000000000000e+00  2.1565269297323981e-05 -2.1274706536728151e-05 0.0000000000000000e+00  2.2501098118638543e-05 -2.2457586996689935e-05 0.0000000000000000e+00  2.3465735330358025e-05 -2.3687943941992549e-05 0.0000000000000000e+00  2.4457636870851581e-05 -2.4969554911979540e-05 0.0000000000000000e+00  2.5473671648951247e-05 -2.6307082316570956e-05 0.0000000000000000e+00  2.6509345006983228e-05 -2.7706904936408132e-05 0.0000000000000000e+00  2.7558714654065739e-05 -2.9177275676626501e-05 0.0000000000000000e+00  2.8612881592331339e-05 -3.0729354985580085e-05 0.0000000000000000e+00  2.9659099758814607e-05 -3.2377824101182062e-05 0.0000000000000000e+00  3.0682692312407030e-05 -3.4143919928151248e-05 0.0000000000000000e+00  3.1657169138537288e-05 -3.6056439853992410e-05 0.0000000000000000e+00  3.2557515647113265e-05 -3.8155216902884335e-05 0.0000000000000000e+00  3.3334998249417382e-05 -4.0502283570498422e-05 0.0000000000000000e+00  3.3930784554686966e-05 -4.3183025779805248e-05 0.0000000000000000e+00  3.4254743503193387e-05 -4.6339430295808267e-05 0.0000000000000000e+00  3.4168518341861934e-05 -5.0196707776442034e-05 0.0000000000000000e+00  3.3401940186225878e-05 -5.5173857486608332e-05 0.0000000000000000e+00  3.1012071969292566e-05 -6.2662004174187814e-05 0.0000000000000000e+00  0.0000000000000000e+00 -9.9751572869778052e-07 0.0000000000000000e+00  0.0000000000000000e+00 -1.9023201836541360e-06 0.0000000000000000e+00  0.0000000000000000e+00 -2.7236088844103334e-06 0.0000000000000000e+00  0.0000000000000000e+00 -3.4685290301591465e-06 0.0000000000000000e+00  0.0000000000000000e+00 -4.1417050882939699e-06 0.0000000000000000e+00  0.0000000000000000e+00 -4.7464126646525315e-06 0.0000000000000000e+00  0.0000000000000000e+00 -5.2849907521360366e-06 0.0000000000000000e+00  0.0000000000000000e+00 -5.7591048214526096e-06 0.0000000000000000e+00  0.0000000000000000e+00 -6.1691759936174173e-06 0.0000000000000000e+00  0.0000000000000000e+00 -6.5165672406284054e-06 0.0000000000000000e+00  0.0000000000000000e+00 -6.8015844902850999e-06 0.0000000000000000e+00  0.0000000000000000e+00 -7.0249114213872966e-06 0.0000000000000000e+00  0.0000000000000000e+00 -7.1875410398297108e-06 0.0000000000000000e+00  0.0000000000000000e+00 -7.2905570646707046e-06 0.0000000000000000e+00  0.0000000000000000e+00 -7.3353611546518575e-06 0.0000000000000000e+00  0.0000000000000000e+00 -7.3237804257827047e-06 0.0000000000000000e+00  0.0000000000000000e+00 -7.2581922902153090e-06 0.0000000000000000e+00  0.0000000000000000e+00 -7.1412337009220489e-06 0.0000000000000000e+00  0.0000000000000000e+00 -6.9760285423676997e-06 0.0000000000000000e+00  0.0000000000000000e+00 -6.7660641412230421e-06 0.0000000000000000e+00  0.0000000000000000e+00 -6.5152626087822985e-06 0.0000000000000000e+00  0.0000000000000000e+00 -6.2278327478056031e-06 0.0000000000000000e+00  0.0000000000000000e+00 -5.9082163791051708e-06 0.0000000000000000e+00  0.0000000000000000e+00 -5.5610437151930270e-06 0.0000000000000000e+00  0.0000000000000000e+00 -5.1910881049404126e-06 0.0000000000000000e+00  0.0000000000000000e+00 -4.8032141768492426e-06 0.0000000000000000e+00  0.0000000000000000e+00 -4.4021316751915620e-06 0.0000000000000000e+00  0.0000000000000000e+00 -3.9926027757891468e-06 0.0000000000000000e+00  0.0000000000000000e+00 -3.5791618321761718e-06 0.0000000000000000e+00  0.0000000000000000e+00 -3.1661417800373122e-06 0.0000000000000000e+00  0.0000000000000000e+00 -2.7576426036404087e-06 0.0000000000000000e+00  0.0000000000000000e+00 -2.3574336188289004e-06 0.0000000000000000e+00  0.0000000000000000e+00 -1.9689668981035821e-06 0.0000000000000000e+00  0.0000000000000000e+00 -1.5953787090643639e-06 0.0000000000000000e+00  0.0000000000000000e+00 -1.2394271486016127e-06 0.0000000000000000e+00  0.0000000000000000e+00 -9.0352132845416073e-07 0.0000000000000000e+00  0.0000000000000000e+00 -5.8959275565254901e-07 0.0000000000000000e+00  0.0000000000000000e+00 -2.9940542416270542e-07 0.0000000000000000e+00  0.0000000000000000e+00 0.0000000000000000e+00 0.0000000000000000e+00  0.0000000000000000e+00 0.0000000000000000e+00 0.0000000000000000e+00  0.0000000000000000e+00 0.0000000000000000e+00 0.0000000000000000e+00  0.0000000000000000e+00 0.0000000000000000e+00 0.0000000000000000e+00  0.0000000000000000e+00 0.0000000000000000e+00 0.0000000000000000e+00  0.0000000000000000e+00 0.0000000000000000e+00 0.0000000000000000e+00  0.0000000000000000e+00 0.0000000000000000e+00 0.0000000000000000e+00  0.0000000000000000e+00 0.0000000000000000e+00 0.0000000000000000e+00  0.0000000000000000e+00 0.0000000000000000e+00 0.0000000000000000e+00  0.0000000000000000e+00 0.0000000000000000e+00 0.0000000000000000e+00  0.0000000000000000e+00 0.0000000000000000e+00 0.0000000000000000e+00  0.0000000000000000e+00 0.0000000000000000e+00 0.0000000000000000e+00  0.0000000000000000e+00 0.0000000000000000e+00 0.0000000000000000e+00  0.0000000000000000e+00 0.0000000000000000e+00 0.0000000000000000e+00  0.0000000000000000e+00 0.0000000000000000e+00 0.0000000000000000e+00  0.0000000000000000e+00 0.0000000000000000e+00 0.0000000000000000e+00  0.0000000000000000e+00 0.0000000000000000e+00 0.0000000000000000e+00  0.0000000000000000e+00 0.0000000000000000e+00 0.0000000000000000e+00  0.0000000000000000e+00 -3.4019892962351723e-07 0.0000000000000000e+00  0.0000000000000000e+00 -6.3592557397734858e-07 0.0000000000000000e+00  0.0000000000000000e+00 -9.5554867725800504e-07 0.0000000000000000e+00  0.0000000000000000e+00 -1.2970447058249386e-06 0.0000000000000000e+00  0.0000000000000000e+00 -1.6584293687985626e-06 0.0000000000000000e+00  0.0000000000000000e+00 -2.0371178544444663e-06 0.0000000000000000e+00  0.0000000000000000e+00 -2.4302205819016463e-06 0.0000000000000000e+00  0.0000000000000000e+00 -2.8344984753063585e-06 0.0000000000000000e+00  0.0000000000000000e+00 -3.2463802651441471e-06 0.0000000000000000e+00  0.0000000000000000e+00 -3.6619524389193652e-06 0.0000000000000000e+00  0.0000000000000000e+00 -4.0770871992085973e-06 0.0000000000000000e+00  0.0000000000000000e+00 -4.4872748243012112e-06 0.0000000000000000e+00  0.0000000000000000e+00 -4.8880457998114460e-06 0.0000000000000000e+00  0.0000000000000000e+00 -5.2746062489968088e-06 0.0000000000000000e+00  0.0000000000000000e+00 -5.6421871702664577e-06 0.0000000000000000e+00  0.0000000000000000e+00 -5.9859731292607280e-06 0.0000000000000000e+00  0.0000000000000000e+00 -6.3012559059888717e-06 0.0000000000000000e+00  0.0000000000000000e+00 -6.5835328067280980e-06 0.0000000000000000e+00  0.0000000000000000e+00 -6.8283989508846280e-06 0.0000000000000000e+00  0.0000000000000000e+00 -7.0317763702361915e-06 0.0000000000000000e+00  0.0000000000000000e+00 -7.1899517961914437e-06 0.0000000000000000e+00  0.0000000000000000e+00 -7.2995582972565021e-06 0.0000000000000000e+00  0.0000000000000000e+00 -7.3576162937512049e-06 0.0000000000