<?xml version="1.0"?>
<VTKFile type="UnstructuredGrid"  version="0.1"  >
<UnstructuredGrid>
<Piece  NumberOfPoints="3167" NumberOfCells="6038">
<Points>
<DataArray  type="Float64"  NumberOfComponents="3"  format="ascii">2.2 2.9 0  0 2.9 0  2.8 2.9 0  5 2.9 0  5 0 0  0 0 0  2.16271186440678 2.9 0  2.125423728813559 2.9 0  2.088135593220339 2.9 0  2.050847457627119 2.9 0  2.013559322033898 2.9 0  1.976271186440678 2.9 0  1.938983050847457 2.9 0  1.901694915254237 2.9 0  1.864406779661016 2.9 0  1.827118644067796 2.9 0  1.789830508474575 2.9 0  1.752542372881355 2.9 0  1.715254237288134 2.9 0  1.677966101694914 2.9 0  1.640677966101693 2.9 0  1.603389830508473 2.9 0  1.566101694915253 2.9 0  1.528813559322032 2.9 0  1.491525423728812 2.9 0  1.454237288135591 2.9 0  1.416949152542371 2.9 0  1.37966101694915 2.9 0  1.34237288135593 2.9 0  1.305084745762709 2.9 0  1.267796610169489 2.9 0  1.230508474576268 2.9 0  1.193220338983048 2.9 0  1.155932203389827 2.9 0  1.118644067796607 2.9 0  1.081355932203387 2.9 0  1.044067796610166 2.9 0  1.006779661016946 2.9 0  0.9694915254237257 2.9 0  0.9322033898305055 2.9 0  0.8949152542372856 2.9 0  0.8576271186440652 2.9 0  0.820338983050845 2.9 0  0.783050847457625 2.9 0  0.7457627118644048 2.9 0  0.7084745762711844 2.9 0  0.6711864406779642 2.9 0  0.633898305084744 2.9 0  0.5966101694915238 2.9 0  0.5593220338983036 2.9 0  0.5220338983050834 2.9 0  0.4847457627118632 2.9 0  0.447457627118643 2.9 0  0.4101694915254228 2.9 0  0.3728813559322024 2.9 0  0.3355932203389822 2.9 0  0.2983050847457622 2.9 0  0.2610169491525418 2.9 0  0.2237288135593216 2.9 0  0.1864406779661016 2.9 0  0.1491525423728812 2.9 0  0.1118644067796613 2.9 0  0.07457627118644039 2.9 0  0.03728813559321997 2.9 0  2.792405063291139 2.9 0  2.784810126582279 2.9 0  2.777215189873418 2.9 0  2.769620253164557 2.9 0  2.762025316455697 2.9 0  2.754430379746836 2.9 0  2.746835443037975 2.9 0  2.739240506329114 2.9 0  2.731645569620254 2.9 0  2.724050632911393 2.9 0  2.716455696202532 2.9 0  2.708860759493671 2.9 0  2.701265822784811 2.9 0  2.69367088607595 2.9 0  2.686075949367089 2.9 0  2.678481012658228 2.9 0  2.670886075949368 2.9 0  2.663291139240507 2.9 0  2.655696202531646 2.9 0  2.648101265822786 2.9 0  2.640506329113925 2.9 0  2.632911392405064 2.9 0  2.625316455696203 2.9 0  2.617721518987342 2.9 0  2.610126582278482 2.9 0  2.602531645569621 2.9 0  2.59493670886076 2.9 0  2.587341772151899 2.9 0  2.579746835443038 2.9 0  2.572151898734178 2.9 0  2.564556962025317 2.9 0  2.556962025316456 2.9 0  2.549367088607595 2.9 0  2.541772151898734 2.9 0  2.534177215189874 2.9 0  2.526582278481013 2.9 0  2.518987341772152 2.9 0  2.511392405063292 2.9 0  2.503797468354431 2.9 0  2.49620253164557 2.9 0  2.488607594936709 2.9 0  2.481012658227848 2.9 0  2.473417721518988 2.9 0  2.465822784810127 2.9 0  2.458227848101266 2.9 0  2.450632911392406 2.9 0  2.443037974683545 2.9 0  2.435443037974684 2.9 0  2.427848101265823 2.9 0  2.420253164556962 2.9 0  2.412658227848102 2.9 0  2.405063291139241 2.9 0  2.39746835443038 2.9 0  2.389873417721519 2.9 0  2.382278481012658 2.9 0  2.374683544303798 2.9 0  2.367088607594937 2.9 0  2.359493670886076 2.9 0  2.351898734177215 2.9 0  2.344303797468355 2.9 0  2.336708860759494 2.9 0  2.329113924050633 2.9 0  2.321518987341773 2.9 0  2.313924050632912 2.9 0  2.306329113924051 2.9 0  2.29873417721519 2.9 0  2.291139240506329 2.9 0  2.283544303797469 2.9 0  2.275949367088608 2.9 0  2.268354430379747 2.9 0  2.260759493670887 2.9 0  2.253164556962026 2.9 0  2.245569620253165 2.9 0  2.237974683544304 2.9 0  2.230379746835443 2.9 0  2.222784810126583 2.9 0  2.215189873417722 2.9 0  2.207594936708861 2.9 0  4.96271186440678 2.9 0  4.925423728813559 2.9 0  4.888135593220339 2.9 0  4.850847457627118 2.9 0  4.813559322033898 2.9 0  4.776271186440677 2.9 0  4.738983050847457 2.9 0  4.701694915254237 2.9 0  4.664406779661016 2.9 0  4.627118644067796 2.9 0  4.589830508474575 2.9 0  4.552542372881355 2.9 0  4.515254237288135 2.9 0  4.477966101694914 2.9 0  4.440677966101694 2.9 0  4.403389830508473 2.9 0  4.366101694915252 2.9 0  4.328813559322032 2.9 0  4.291525423728811 2.9 0  4.254237288135591 2.9 0  4.21694915254237 2.9 0  4.17966101694915 2.9 0  4.14237288135593 2.9 0  4.105084745762709 2.9 0  4.067796610169489 2.9 0  4.030508474576268 2.9 0  3.993220338983048 2.9 0  3.955932203389827 2.9 0  3.918644067796607 2.9 0  3.881355932203387 2.9 0  3.844067796610166 2.9 0  3.806779661016946 2.9 0  3.769491525423725 2.9 0  3.732203389830505 2.9 0  3.694915254237285 2.9 0  3.657627118644065 2.9 0  3.620338983050845 2.9 0  3.583050847457625 2.9 0  3.545762711864405 2.9 0  3.508474576271184 2.9 0  3.471186440677964 2.9 0  3.433898305084744 2.9 0  3.396610169491524 2.9 0  3.359322033898303 2.9 0  3.322033898305083 2.9 0  3.284745762711863 2.9 0  3.247457627118643 2.9 0  3.210169491525423 2.9 0  3.172881355932202 2.9 0  3.135593220338982 2.9 0  3.098305084745762 2.9 0  3.061016949152542 2.9 0  3.023728813559321 2.9 0  2.986440677966101 2.9 0  2.949152542372881 2.9 0  2.911864406779661 2.9 0  2.87457627118644 2.9 0  2.83728813559322 2.9 0  5 0.1063822624840908 0  5 0.210636879963479 0  5 0.3128064053000104 0  5 0.4129325399736057 0  5 0.5110561519920087 0  5 0.6072172917522097 0  5 0.7014552086337308 0  5 0.7938083672768746 0  5 0.8843144624325437 0  5 0.9730104357533907 0  5 1.059932489779506 0  5 1.145116102681561 0  5 1.228596043237163 0  5 1.310406384819408 0  5 1.39058051967151 0  5 1.46915117219283 0  5 1.546150411689349 0  5 1.621609666350684 0  5 1.695559735780513 0  5 1.76803080351128 0  5 1.839052449831632 0  5 1.908653663284034 0  5 1.976862852540214 0  5 2.043707858250082 0  5 2.109215963970139 0  5 2.173413907547539 0  5 2.236327892447888 0  5 2.29798359737153 0  5 2.358406188061876 0  5 2.417620326899216 0  5 2.475650183036803 0  5 2.532519442044509 0  5 2.588251315695885 0  5 2.642868552136335 0  5 2.696393444001645 0  5 2.748847837883952 0  5 2.800253143882191 0  5 2.85063034388582 0  0.2631578947368421 0 0  0.5263157894736842 0 0  0.7894736842105263 0 0  1.052631578947368 0 0  1.31578947368421 0 0  1.578947368421053 0 0  1.842105263157895 0 0  2.105263157894737 0 0  2.368421052631579 0 0  2.631578947368421 0 0  2.894736842105263 0 0  3.157894736842105 0 0  3.421052631578947 0 0  3.684210526315789 0 0  3.947368421052632 0 0  4.210526315789473 0 0  4.473684210526315 0 0  4.736842105263158 0 0  0 2.850203682350569 0  0 2.799411438503675 0  0 2.747603349778291 0  0 2.694759099502208 0  0 2.640857964382145 0  0 2.58587880633613 0  0 2.52980006535898 0  0 2.472599749459174 0  0 2.414255427218689 0  0 2.35474421880616 0  0 2.294042786119219 0  0 2.232127324764723 0  0 2.1689735539481 0  0 2.104556707683346 0  0 2.038851524813415 0  0 1.971832238155654 0  0 1.903472565412125 0  0 1.83374569926617 0  0 1.762624296208474 0  0 1.690080464918761 0  0 1.616085756774205 0  0 1.540611154706337 0  0 1.463627060685571 0  0 1.385103284916206 0  0 1.305009033716617 0  0 1.223312897337225 0  0 1.139982838163732 0  0 1.054986177579937 0  0 0.9682895835804808 0  0 0.8798590579197967 0  0 0.789659921841535 0  0 0.6976568029903634 0  0 0.6038136217958807 0  0 0.508093576867624 0  0 0.4104591310957497 0  0 0.31087199635222 0  0 0.2092931188294389 0  0 0.1056826638508546 0  1.434832105734982 2.866945754976478 0  1.737156300412976 2.8700394402447 0  2.032203389830508 2.867707527316512 0  2.332911392405064 2.893422591869991 0  2.469810913221006 2.891944186617815 0  2.606221408801046 2.892519154968786 0  2.255455320556353 2.892068684938936 0  2.538247299178607 2.894964578175289 0  2.674683544303798 2.893422591869991 0  2.40126582278481 2.893422591869991 0  3.566125247274844 2.86502933617869 0  3.266101694915253 2.867707527316512 0  2.967796610169491 2.867707527316512 0  1.174288529771947 2.870795313883199 0  3.825423728813556 2.867707527316512 0  2.727766680241741 2.892655387639323 0  0.06601655192030442 1.502119107695954 0  4.933983535518289 1.50765079194109 0  0.9532124728076634 2.868722489784116 0  4.048935912505472 2.870640982963028 0  0.05930163367361851 1.866907161167415 0  4.943402512617702 1.871280731227115 0  4.271733869970415 2.865208656206698 0  0.724942092071192 2.863922936166216 0  0.05494499779911566 2.196469063120751 0  4.947228695435926 2.208030108416282 0  0.5406152149451962 2.866493807374646 0  4.459322033898304 2.868847558171501 0  2.18135593220339 2.875780645487384 0  2.81702715648046 2.876587550622478 0  4.928427208334964 1.186856072959362 0  0.07189226971603357 1.174626666111664 0  4.610299014391064 2.867003104061287 0  0.3897270066746503 2.869433095314649 0  1.5811324999839 2.868247328613121 0  1.887637879307645 2.869235851843492 0  3.413449426409203 2.867372048026557 0  3.116721298784139 2.865731235545648 0  2.644303797468355 2.893422591869991 0  2.370983221771223 2.892719513366117 0  2.302531645569621 2.89333678739629 0  2.758987341772152 2.894242393896969 0  0.04979653335696588 2.443411216910279 0  4.950470983481301 2.446866954190454 0  2.482937483056625 0.2513241088166693 0  1.70712950486069 0.1999998660928157 0  3.285846579639133 0.2292006256069719 0  4.907807122450741 0.8340823629079156 0  4.757627118644067 2.867707527316512 0  0.07734891246767406 0.8347594898806658 0  0.2390604736599493 2.861365431805748 0  0.8363213714273008 2.863896768913622 0  4.16086561018973 2.868916854014843 0  1.28254933196979 2.86761095296154 0  1.065094818264994 2.861284686078544 0  3.938181277358471 2.868651344087338 0  3.711492629398847 2.863574306894209 0  4.913693619806458 0.5579891341027028 0  0.08208328472281323 0.5559535993317524 0  2.696596932509445 2.892010483912606 0  0.04706410140274642 2.613055974506517 0  4.955577063959472 2.616518038416838 0  2.234177215189874 2.893422591869991 0  2.279795840517476 2.894038618939426 0  0.911735788765236 0.2117925286661764 0  4.055948041976698 0.2039101059740411 0  4.872119713756579 2.86763292637659 0  2.78011387899257 2.891535929611774 0  0.1327442468251299 2.85732490707
[...]
<PointData  Vectors="displacement"> 
<DataArray  type="Float64"  Name="displacement"  NumberOfComponents="3" format="ascii">5.6026126701798435e-05 -3.4800112079558189e-04 0.0000000000000000e+00  0.0000000000000000e+00 2.0646425174341608e-06 0.0000000000000000e+00  -5.6126016988403242e-05 -3.4801324084196539e-04 0.0000000000000000e+00  0.0000000000000000e+00 2.0646144366385328e-06 0.0000000000000000e+00  0.0000000000000000e+00 0.0000000000000000e+00 0.0000000000000000e+00  0.0000000000000000e+00 0.0000000000000000e+00 0.0000000000000000e+00  5.5586617837934716e-05 -3.0592885926012531e-04 0.0000000000000000e+00  5.4399135343493139e-05 -2.7813326367804198e-04 0.0000000000000000e+00  5.3241393414707645e-05 -2.5578987034840172e-04 0.0000000000000000e+00  5.2096959616861780e-05 -2.3673871557882174e-04 0.0000000000000000e+00  5.0955051650134212e-05 -2.2002530749115040e-04 0.0000000000000000e+00  4.9816165435148950e-05 -2.0510110574165915e-04 0.0000000000000000e+00  4.8682339242493600e-05 -1.9160666324208813e-04 0.0000000000000000e+00  4.7553252509344777e-05 -1.7929075491487622e-04 0.0000000000000000e+00  4.6430717511491019e-05 -1.6796685142292925e-04 0.0000000000000000e+00  4.5314636670179095e-05 -1.5749573300353692e-04 0.0000000000000000e+00  4.4205054060415637e-05 -1.4776959756833082e-04 0.0000000000000000e+00  4.3102084515364679e-05 -1.3869988234029273e-04 0.0000000000000000e+00  4.2006511705433611e-05 -1.3021419384223089e-04 0.0000000000000000e+00  4.0918464604155201e-05 -1.2225327555617142e-04 0.0000000000000000e+00  3.9838104564653032e-05 -1.1476770484425532e-04 0.0000000000000000e+00  3.8765676259519431e-05 -1.0771516572607085e-04 0.0000000000000000e+00  3.7701439153136697e-05 -1.0105937806449458e-04 0.0000000000000000e+00  3.6645201503773308e-05 -9.4768858768603455e-05 0.0000000000000000e+00  3.5597399799530313e-05 -8.8816127536545274e-05 0.0000000000000000e+00  3.4558204465278242e-05 -8.3177167771415772e-05 0.0000000000000000e+00  3.3527680248602950e-05 -7.7830853655694410e-05 0.0000000000000000e+00  3.2505868802666109e-05 -7.2758423797038028e-05 0.0000000000000000e+00  3.1492951355340382e-05 -6.7942773855760269e-05 0.0000000000000000e+00  3.0488789326388319e-05 -6.3368955845972434e-05 0.0000000000000000e+00  2.9493555842850192e-05 -5.9023517709356552e-05 0.0000000000000000e+00  2.8507272887876158e-05 -5.4894083193979693e-05 0.0000000000000000e+00  2.7529940335736398e-05 -5.0969345112923488e-05 0.0000000000000000e+00  2.6561393833367968e-05 -4.7239376718549231e-05 0.0000000000000000e+00  2.5601892489088568e-05 -4.3694889630827378e-05 0.0000000000000000e+00  2.4650922380006619e-05 -4.0327219066316664e-05 0.0000000000000000e+00  2.3708795805551096e-05 -3.7128699245327406e-05 0.0000000000000000e+00  2.2775330588929459e-05 -3.4092316224777935e-05 0.0000000000000000e+00  2.1850236513271739e-05 -3.1211587967796050e-05 0.0000000000000000e+00  2.0933519041658779e-05 -2.8480197712271920e-05 0.0000000000000000e+00  2.0024980949163637e-05 -2.5892747922396808e-05 0.0000000000000000e+00  1.9124479717615673e-05 -2.3444022603942184e-05 0.0000000000000000e+00  1.8231779685048253e-05 -2.1129219472337514e-05 0.0000000000000000e+00  1.7346700953134962e-05 -1.8944022343024698e-05 0.0000000000000000e+00  1.6469013129726904e-05 -1.6884295935273519e-05 0.0000000000000000e+00  1.5598472194854244e-05 -1.4946280187665914e-05 0.0000000000000000e+00  1.4734825594803713e-05 -1.3126495795694086e-05 0.0000000000000000e+00  1.3877808627613722e-05 -1.1421712020740590e-05 0.0000000000000000e+00  1.3027101304612750e-05 -9.8289410749165732e-06 0.0000000000000000e+00  1.2182443100150448e-05 -8.3454697224560443e-06 0.0000000000000000e+00  1.1343504208842993e-05 -6.9687441284049773e-06 0.0000000000000000e+00  1.0509968264454188e-05 -5.6964646546547297e-06 0.0000000000000000e+00  9.6814937694090027e-06 -4.5265082577455512e-06 0.0000000000000000e+00  8.8577376924404265e-06 -3.4569557965654244e-06 0.0000000000000000e+00  8.0383370905337361e-06 -2.4860469739762496e-06 0.0000000000000000e+00  7.2229265027361230e-06 -1.6122179479749239e-06 0.0000000000000000e+00  6.4111695298284859e-06 -8.3406915083496515e-07 0.0000000000000000e+00  5.6025957806203118e-06 -1.5032597010972181e-07 0.0000000000000000e+00  4.7968826738236276e-06 4.4009451327376786e-07 0.0000000000000000e+00  3.9936320441465544e-06 9.3810003337782845e-07 0.0000000000000000e+00  3.1924637138623375e-06 1.3444941342557581e-06 0.0000000000000000e+00  2.3928807150562070e-06 1.6599264236563006e-06 0.0000000000000000e+00  1.5945568890712585e-06 1.8848868808903405e-06 0.0000000000000000e+00  7.9706697856964789e-07 2.0197214910161763e-06 0.0000000000000000e+00  -5.5419256123291018e-05 -3.6082683365178526e-04 0.0000000000000000e+00  -5.3920225323687760e-05 -3.7006084196155713e-04 0.0000000000000000e+00  -5.2455530270653720e-05 -3.7794880451775463e-04 0.0000000000000000e+00  -5.0998589722751658e-05 -3.8499550854125989e-04 0.0000000000000000e+00  -4.9556358495432956e-05 -3.9142538355907723e-04 0.0000000000000000e+00  -4.8115658489361992e-05 -3.9735810457073190e-04 0.0000000000000000e+00  -4.6676130964329142e-05 -4.0287459805302464e-04 0.0000000000000000e+00  -4.5237725086234138e-05 -4.0802869270565667e-04 0.0000000000000000e+00  -4.3799163457324314e-05 -4.1286156102416369e-04 0.0000000000000000e+00  -4.2361231539328661e-05 -4.1740567125708933e-04 0.0000000000000000e+00  -4.0923894534533660e-05 -4.2168652614565352e-04 0.0000000000000000e+00  -3.9486677434946702e-05 -4.2572472774958552e-04 0.0000000000000000e+00  -3.8049640995844288e-05 -4.2953761992961157e-04 0.0000000000000000e+00  -3.6612852111305596e-05 -4.3313929835696465e-04 0.0000000000000000e+00  -3.5176019785957551e-05 -4.3654182978640184e-04 0.0000000000000000e+00  -3.3739444634938707e-05 -4.3975607584035046e-04 0.0000000000000000e+00  -3.2302992890386239e-05 -4.4279100676558716e-04 0.0000000000000000e+00  -3.0866661110206400e-05 -4.4565448308539252e-04 0.0000000000000000e+00  -2.9430424999598097e-05 -4.4835349862712317e-04 0.0000000000000000e+00  -2.7994273088353373e-05 -4.5089417052864537e-04 0.0000000000000000e+00  -2.6558194846514126e-05 -4.5328194775597433e-04 0.0000000000000000e+00  -2.5122199130386044e-05 -4.5552166643568178e-04 0.0000000000000000e+00  -2.3686270886586589e-05 -4.5761761878801980e-04 0.0000000000000000e+00  -2.2250411095088789e-05 -4.5957367792406754e-04 0.0000000000000000e+00  -2.0814610244624612e-05 -4.6139329627333095e-04 0.0000000000000000e+00  -1.9378866453560013e-05 -4.6307952586067231e-04 0.0000000000000000e+00  -1.7943207696746978e-05 -4.6463511978820092e-04 0.0000000000000000e+00  -1.6507554875923491e-05 -4.6606251540667919e-04 0.0000000000000000e+00  -1.5071951066787667e-05 -4.6736393089298091e-04 0.0000000000000000e+00  -1.3636397712613047e-05 -4.6854129641178146e-04 0.0000000000000000e+00  -1.2200889058465037e-05 -4.6959633629895350e-04 0.0000000000000000e+00  -1.0765404176484335e-05 -4.7053054449768764e-04 0.0000000000000000e+00  -9.3299432441927186e-06 -4.7134523438126968e-04 0.0000000000000000e+00  -7.8945177705897503e-06 -4.7204152556572839e-04 0.0000000000000000e+00  -6.4590938887636904e-06 -4.7262033837793677e-04 0.0000000000000000e+00  -5.0237224521656784e-06 -4.7308249005062220e-04 0.0000000000000000e+00  -3.5883324089813273e-06 -4.7342857396108094e-04 0.0000000000000000e+00  -2.1529555755137020e-06 -4.7365903702994782e-04 0.0000000000000000e+00  -7.1759315533041322e-07 -4.7377419436704513e-04 0.0000000000000000e+00  7.1776936101664786e-07 -4.7377419174686740e-04 0.0000000000000000e+00  2.1531337551832610e-06 -4.7365902761780363e-04 0.0000000000000000e+00  3.5885044919856468e-06 -4.7342855321333367e-04 0.0000000000000000e+00  5.0238841094998860e-06 -4.7308247167465614e-04 0.0000000000000000e+00  6.4592703941181705e-06 -4.7262031752234298e-04 0.0000000000000000e+00  7.8946859788106179e-06 -4.7204147648434013e-04 0.0000000000000000e+00  9.3301141993359877e-06 -4.7134518928168795e-04 0.0000000000000000e+00  1.0765569395344299e-05 -4.7053050287599018e-04 0.0000000000000000e+00  1.2201053646649898e-05 -4.6959628990290796e-04 0.0000000000000000e+00  1.3636576612597855e-05 -4.6854124855919292e-04 0.0000000000000000e+00  1.5072125214168033e-05 -4.6736386784905346e-04 0.0000000000000000e+00  1.6507722927694883e-05 -4.6606245599480268e-04 0.0000000000000000e+00  1.7943381755675494e-05 -4.6463504277142380e-04 0.0000000000000000e+00  1.9379058350910423e-05 -4.6307944260438080e-04 0.0000000000000000e+00  2.0814802333543402e-05 -4.6139322921165692e-04 0.0000000000000000e+00  2.2250603744562457e-05 -4.5957362616045607e-04 0.0000000000000000e+00  2.3686464657360375e-05 -4.5761756591737937e-04 0.0000000000000000e+00  2.5122387682805110e-05 -4.5552159980258647e-04 0.0000000000000000e+00  2.6558419804563151e-05 -4.5328189631181745e-04 0.0000000000000000e+00  2.7994542225908968e-05 -4.5089405881994053e-04 0.0000000000000000e+00  2.9430722013697301e-05 -4.4835337292901110e-04 0.0000000000000000e+00  3.0866977917151166e-05 -4.4565434980281033e-04 0.0000000000000000e+00  3.2303349430773046e-05 -4.4279084701448555e-04 0.0000000000000000e+00  3.3739835320429312e-05 -4.3975590880576204e-04 0.0000000000000000e+00  3.5176453789979670e-05 -4.3654159250073194e-04 0.0000000000000000e+00  3.6613214615239273e-05 -4.3313887351767709e-04 0.0000000000000000e+00  3.8050168201161363e-05 -4.2953718431983778e-04 0.0000000000000000e+00  3.9487196770577259e-05 -4.2572432222246078e-04 0.0000000000000000e+00  4.0924498400288247e-05 -4.2168593392258080e-04 0.0000000000000000e+00  4.2362204857680839e-05 -4.1740526009025996e-04 0.0000000000000000e+00  4.3799919191605662e-05 -4.1286102324972310e-04 0.0000000000000000e+00  4.5237879774964984e-05 -4.0802762187333764e-04 0.0000000000000000e+00  4.6676909489541877e-05 -4.0287379256212399e-04 0.0000000000000000e+00  4.8117081829144284e-05 -3.9735836336419626e-04 0.0000000000000000e+00  4.9557212208675735e-05 -3.9142371377928249e-04 0.0000000000000000e+00  5.0998290677900968e-05 -3.8499155120464741e-04 0.0000000000000000e+00  5.2437447857450073e-05 -3.7794748953193902e-04 0.0000000000000000e+00  5.3929552934404106e-05 -3.7008990687397786e-04 0.0000000000000000e+00  5.5401620540578009e-05 -3.6080202871880654e-04 0.0000000000000000e+00  -7.9707775373186647e-07 2.0196996642526902e-06 0.0000000000000000e+00  -1.5945695790669353e-06 1.8848628841728881e-06 0.0000000000000000e+00  -2.3928843989939080e-06 1.6599086256267877e-06 0.0000000000000000e+00  -3.1924376138301805e-06 1.3444769431359671e-06 0.0000000000000000e+00  -3.9936324116734947e-06 9.3808223116448860e-07 0.0000000000000000e+00  -4.7969052015729978e-06 4.4005963362240757e-07 0.0000000000000000e+00  -5.6025958103965675e-06 -1.5034046876613223e-07 0.0000000000000000e+00  -6.4111482770035821e-06 -8.3407747623939789e-07 0.0000000000000000e+00  -7.2229322570295220e-06 -1.6122371568578494e-06 0.0000000000000000e+00  -8.0383400854237251e-06 -2.4860731527644805e-06 0.0000000000000000e+00  -8.8577368156577407e-06 -3.4569825919951216e-06 0.0000000000000000e+00  -9.6814996616185965e-06 -4.5265404212361830e-06 0.0000000000000000e+00  -1.0509972802488782e-05 -5.6964963930867340e-06 0.0000000000000000e+00  -1.1343506013746895e-05 -6.9687762048974921e-06 0.0000000000000000e+00  -1.2182440089268026e-05 -8.3454962163865509e-06 0.0000000000000000e+00  -1.3027099335724549e-05 -9.8289718845088960e-06 0.0000000000000000e+00  -1.3877793379481242e-05 -1.1421725642625528e-05 0.0000000000000000e+00  -1.4734823550442895e-05 -1.3126527257263160e-05 0.0000000000000000e+00  -1.5598463906587673e-05 -1.4946323796698220e-05 0.0000000000000000e+00  -1.6469000394277531e-05 -1.6884357808059453e-05 0.0000000000000000e+00  -1.7346741740314114e-05 -1.8944094664795331e-05 0.0000000000000000e+00  -1.8231764490645239e-05 -2.1129265774139960e-05 0.0000000000000000e+00  -1.9124458821767091e-05 -2.3444031167952643e-05 0.0000000000000000e+00  -2.0024970076977009e-05 -2.5892770862111504e-05 0.0000000000000000e+00  -2.0933497980170725e-05 -2.8480241731900401e-05 0.0000000000000000e+00  -2.1850208397371878e-05 -3.1211596370242005e-05 0.0000000000000000e+00  -2.2775261899743691e-05 -3.4092418794647573e-05 0.0000000000000000e+00  -2.3708794499253897e-05 -3.7128757046528853e-05 0.0000000000000000e+00  -2.4650942376203019e-05 -4.0327187654086201e-05 0.0000000000000000e+00  -2.5601788657220955e-05 -4.3694808780231256e-05 0.0000000000000000e+00  -2.6561408026223975e-05 -4.7239383923369136e-05 0.0000000000000000e+00  -2.7529859290724581e-05 -5.0969348354299175e-05 0.0000000000000000e+00  -2.8507415598211725e-05 -5.4894062259239078e-05 0.0000000000000000e+00  -2.9493535491105827e-05 -5.9023583844560203e-05 0.0000000000000000e+00  -3.0488749353558792e-05 -6.3369110474744854e-05 0.0000000000000000e+00  -3.1492907890378439e-05 -6.7942834215211593e-05 0.0000000000000000e+00  -3.2505922719398123e-05 -7.2758378298989042e-05 0.0000000000000000e+00  -3.3527668847941868e-05 -7.7830851007489431e-05 0.0000000000000000e+00  -3.4558167203878988e-05 -8.3177138336835321e-05 0.0000000000000000e+00  -3.5597373970891253e-05 -8.8816053936545820e-05 0.0000000000000000e+00  -3.6645131414163750e-05 -9.4768799923371450e-05 0.0000000000000000e+00  -3.7701245691868987e-05 -1.0105946918349576e-04 0.0000000000000000e+00  -3.8765778549549041e-05 -1.0771537240098294e-04 0.0000000000000000e+00  -3.9838317181971640e-05 -1.1476787325373998e-04 0.0000000000000000e+00  -4.0918511795042229e-05 -1.2225319215099947e-04 0.0000000000000000e+00  -4.2006345188615746e-05 -1.3021395857632976e-04 0.0000000000000000e+00  -4.3101917427463906e-05 -1.3869970966378999e-04 0.0000000000000000e+00  -4.4204708009248206e-05 -1.4777005344710512e-04 0.0000000000000000e+00  -4.5314576505672716e-05 -1.5749648989103011e-04 0.0000000000000000e+00  -4.6431180933918520e-05 -1.6796630434749951e-04 0.0000000000000000e+00  -4.7553453166958199e-05 -1.7929087355393188e-04 0.0000000000000000e+00  -4.8683141518231563e-05 -1.9160602532988203e-04 0.0000000000000000e+00  -4.9815841350731356e-05 -2.0510173543432069e-04 0.0000000000000000e+00  -5.0953679503596245e-05 -2.2002711768019569e-04 0.0000000000000000e+00  -5.2095497713242624e-05 -2.3673842063313586e-04 0.0000000000000000e+00  -5.3249516758547077e-05 -2.5578948631666562e-04 0.0000000000000000e+00  -5.4378514473411789e-05 -2.7814782865383486e-04 0.0000000000000000e+00  -5.5602789992523371e-05 -3.0590211276437850e-04 0.0000000000000000e+00  0.0000000000000000e+00 -2.4431472829510238e-06 0.0000000000000000e+00  0.0000000000000000e+00 -4.4334103323960180e-06 0.0000000000000000e+00  0.0000000000000000e+00 -6.0346982028997151e-06 0.0000000000000000e+00  0.0000000000000000e+00 -7.3015685383561652e-06 0.0000000000000000e+00  0.0000000000000000e+00 -8.2745304292203635e-06 0.0000000000000000e+00  0.0000000000000000e+00 -8.9876413461587983e-06 0.0000000000000000e+00  0.0000000000000000e+00 -9.4690684055367353e-06 0.0000000000000000e+00  0.0000000000000000e+00 -9.7427418907739586e-06 0.0000000000000000e+00  0.0000000000000000e+00 -9.8274934415665623e-06 0.0000000000000000e+00  0.0000000000000000e+00 -9.7432297988377868e-06 0.0000000000000000e+00  0.0000000000000000e+00 -9.5059408569527815e-06 0.0000000000000000e+00  0.0000000000000000e+00 -9.1315496951362835e-06 0.0000000000000000e+00  0.0000000000000000e+00 -8.6361033593463283e-06 0.0000000000000000e+00  0.0000000000000000e+00 -8.0350221530605649e-06 0.0000000000000000e+00  0.0000000000000000e+00 -7.3438575305433750e-06 0.0000000000000000e+00  0.0000000000000000e+00 -6.5783859683718825e-06 0.0000000000000000e+00  0.0000000000000000e+00 -5.7547198376018279e-06 0.0000000000000000e+00  0.0000000000000000e+00 -4.8887531567285690e-06 0.0000000000000000e+00  0.0000000000000000e+00 -3.9963964117543703e-06 0.0000000000000000e+00  0.0000000000000000e+00 -3.0934052843318455e-06 0.0000000000000000e+00  0.0000000000000000e+00 -2.1951531112455938e-06 0.0000000000000000e+00  0.0000000000000000e+00 -1.3163126584310053e-06 0.0000000000000000e+00  0.0000000000000000e+00 -4.7103359008668133e-07 0.0000000000000000e+00  0.0000000000000000e+00 3.2805703628442661e-07 0.0000000000000000e+00  0.0000000000000000e+00 1.0688775215170506e-06 0.0000000000000000e+00  0.0000000000000000e+00 1.7406547200204200e-06 0.0000000000000000e+00  0.0000000000000000e+00 2.3345917435221144e-06 0.0000000000000000e+00  0.0000000000000000e+00 2.8427169282867303e-06 0.0000000000000000e+00  0.0000000000000000e+00 3.2589414332164416e-06 0.0000000000000000e+00  0.0000000000000000e+00 3.5786835192270169e-06 0.0000000000000000e+00  0.0000000000000000e+00 3.7988586564365757e-06 0.0000000000000000e+00  0.0000000000000000e+00 3.9179603708114885e-06 0.0000000000000000e+00  0.0000000000000000e+00 3.9358799243369670e-06 0.0000000000000000e+00  0.0000000000000000e+00 3.8538038400070310e-06 0.0000000000000000e+00  0.0000000000000000e+00 3.6741797521124721e-06 0.0000000000000000e+00  0.0000000000000000e+00 3.4005589166637415e-06 0.0000000000000000e+00  0.0000000000000000e+00 3.0374493813472223e-06 0.0000000000000000e+00  0.0000000000000000e+00 2.5901456758339960e-06 0.0000000000000000e+00  0.0000000000000000e+00 0.0000000000000000e+00 0.0000000000000000e+00  0.0000000000000000e+00 0.0000000000000000e+00 0.0000000000000000e+00  0.0000000000000000e+00 0.0000000000000000e+00 0.0000000000000000e+00  0.0000000000000000e+00 0.0000000000000000e+00 0.0000000000000000e+00  0.0000000000000000e+00 0.0000000000000000e+00 0.0000000000000000e+00  0.0000000000000000e+00 0.0000000000000000e+00 0.0000000000000000e+00  0.0000000000000000e+00 0.0000000000000000e+00 0.0000000000000000e+00  0.0000000000000000e+00 0.0000000000000000e+00 0.0000000000000000e+00  0.0000000000000000e+00 0.0000000000000000e+00 0.0000000000000000e+00  0.0000000000000000e+00 0.0000000000000000e+00 0.0000000000000000e+00  0.0000000000000000e+00 0.0000000000000000e+00 0.0000000000000000e+00  0.0000000000000000e+00 0.0000000000000000e+00 0.0000000000000000e+00  0.0000000000000000e+00 0.0000000000000000e+00 0.0000000000000000e+00  0.0000000000000000e+00 0.0000000000000000e+00 0.0000000000000000e+00  0.0000000000000000e+00 0.0000000000000000e+00 0.0000000000000000e+00  0.0000000000000000e+00 0.0000000000000000e+00 0.0000000000000000e+00  0.0000000000000000e+00 0.0000000000000000e+00 0.0000000000000000e+00  0.0000000000000000e+00 0.0000000000000000e+00 0.0000000000000000e+00  0.0000000000000000e+00 2.5943313123216628e-06 0.0000000000000000e+00  0.0000000000000000e+00 3.0441727322911318e-06 0.0000000000000000e+00  0.0000000000000000e+00 3.4082015046580813e-06 0.0000000000000000e+00  0.0000000000000000e+00 3.6811703246133153e-06 0.0000000000000000e+00  0.0000000000000000e+00 3.8586397167413633e-06 0.0000000000000000e+00  0.0000000000000000e+00 3.9371994955065305e-06 0.0000000000000000e+00  0.0000000000000000e+00 3.9145779356520263e-06 0.0000000000000000e+00  0.0000000000000000e+00 3.7897445700634284e-06 0.0000000000000000e+00  0.0000000000000000e+00 3.5630197749303331e-06 0.0000000000000000e+00  0.0000000000000000e+00 3.2362415743060244e-06 0.0000000000000000e+00  0.0000000000000000e+00 2.8125985094702019e-06 0.0000000000000000e+00  0.0000000000000000e+00 2.2972687630893216e-06 0.0000000000000000e+00  0.0000000000000000e+00 1.6962888693951416e-06 0.0000000000000000e+00  0.0000000000000000e+00 1.0178533135940259e-06 0.0000000000000000e+00  0.0000000000000000e+00 2.7126513222256563e-07 0.0000000000000000e+00  0.0000000000000000e+00 -5.3244313933322019e-07 0.0000000000000000e+00  0.0000000000000000e+00 -1.3813179514621971e-06 0.0000000000000000e+00  0.0000000000000000e+00 -2.2624283787225013e-06 0.0000000000000000e+00  0.0000000000000000e+00 -3.1614789412084560e-06 0.0000000000000000e+00  0.0000000000000000e+00 -4.0637315124013612e-06 0.0000000000000000e+00  0.0000000000000000e+00 -4.9538455787823974e-06 0.0000000000000000e+00  0.0000000000000000e+00 -5.8161862378549555e-06 0.0000000000000000e+00  0.0000000000000000e+00 -6.6348871429626215e-06 0.0000000000000000e+00  0.0000000000000000e+00 -7.3940786