<?xml version="1.0"?>
<VTKFile type="UnstructuredGrid"  version="0.1"  >
<UnstructuredGrid>
<Piece  NumberOfPoints="1250" NumberOfCells="2352">
<Points>
<DataArray  type="Float64"  NumberOfComponents="3"  format="ascii">0 0 0  0.0336 0 0  0.0336 0.07729999999999999 0  0 0.07729999999999999 0  0.001400000000000002 0 0  0.002800000000000005 0 0  0.004200000000000008 0 0  0.005600000000000009 0 0  0.007000000000000011 0 0  0.008400000000000013 0 0  0.009800000000000019 0 0  0.01120000000000002 0 0  0.01260000000000003 0 0  0.01400000000000003 0 0  0.01540000000000004 0 0  0.01680000000000005 0 0  0.01820000000000004 0 0  0.01960000000000004 0 0  0.02100000000000004 0 0  0.02240000000000003 0 0  0.02380000000000003 0 0  0.02520000000000002 0 0  0.02660000000000002 0 0  0.02800000000000001 0 0  0.02940000000000001 0 0  0.03080000000000001 0 0  0.0322 0 0  0.0336 0.001577551020408161 0  0.0336 0.003155102040816321 0  0.0336 0.004732653061224482 0  0.0336 0.006310204081632642 0  0.0336 0.007887755102040803 0  0.0336 0.009465306122448964 0  0.0336 0.01104285714285712 0  0.0336 0.01262040816326528 0  0.0336 0.01419795918367344 0  0.0336 0.0157755102040816 0  0.0336 0.01735306122448976 0  0.0336 0.01893061224489792 0  0.0336 0.02050816326530608 0  0.0336 0.02208571428571425 0  0.0336 0.02366326530612241 0  0.0336 0.02524081632653058 0  0.0336 0.02681836734693874 0  0.0336 0.02839591836734691 0  0.0336 0.02997346938775507 0  0.0336 0.03155102040816323 0  0.0336 0.0331285714285714 0  0.0336 0.03470612244897956 0  0.0336 0.03628367346938772 0  0.0336 0.03786122448979588 0  0.0336 0.03943877551020405 0  0.0336 0.04101632653061221 0  0.0336 0.04259387755102037 0  0.0336 0.04417142857142854 0  0.0336 0.04574897959183671 0  0.0336 0.04732653061224486 0  0.0336 0.04890408163265302 0  0.0336 0.05048163265306119 0  0.0336 0.05205918367346936 0  0.0336 0.05363673469387752 0  0.0336 0.05521428571428568 0  0.0336 0.05679183673469385 0  0.0336 0.05836938775510202 0  0.0336 0.05994693877551018 0  0.0336 0.06152448979591834 0  0.0336 0.0631020408163265 0  0.0336 0.06467959183673468 0  0.0336 0.06625714285714283 0  0.0336 0.06783469387755101 0  0.0336 0.06941224489795916 0  0.0336 0.07098979591836733 0  0.0336 0.07256734693877549 0  0.0336 0.07414489795918365 0  0.0336 0.07572244897959182 0  0.03219999999999999 0.07729999999999999 0  0.03079999999999999 0.07729999999999999 0  0.02939999999999999 0.07729999999999999 0  0.02799999999999999 0.07729999999999999 0  0.02659999999999999 0.07729999999999999 0  0.02519999999999999 0.07729999999999999 0  0.02379999999999998 0.07729999999999999 0  0.02239999999999998 0.07729999999999999 0  0.02099999999999997 0.07729999999999999 0  0.01959999999999996 0.07729999999999999 0  0.01819999999999996 0.07729999999999999 0  0.01679999999999995 0.07729999999999999 0  0.01539999999999996 0.07729999999999999 0  0.01399999999999996 0.07729999999999999 0  0.01259999999999996 0.07729999999999999 0  0.01119999999999997 0.07729999999999999 0  0.009799999999999972 0.07729999999999999 0  0.008399999999999977 0.07729999999999999 0  0.006999999999999978 0.07729999999999999 0  0.005599999999999983 0.07729999999999999 0  0.004199999999999988 0.07729999999999999 0  0.00279999999999999 0.07729999999999999 0  0.001399999999999998 0.07729999999999999 0  0 0.07572244897959184 0  0 0.07414489795918368 0  0 0.07256734693877551 0  0 0.07098979591836735 0  0 0.06941224489795919 0  0 0.06783469387755103 0  0 0.06625714285714288 0  0 0.06467959183673472 0  0 0.06310204081632656 0  0 0.0615244897959184 0  0 0.05994693877551023 0  0 0.05836938775510207 0  0 0.05679183673469392 0  0 0.05521428571428574 0  0 0.05363673469387759 0  0 0.05205918367346941 0  0 0.05048163265306126 0  0 0.04890408163265308 0  0 0.04732653061224493 0  0 0.04574897959183676 0  0 0.0441714285714286 0  0 0.04259387755102043 0  0 0.04101632653061228 0  0 0.03943877551020411 0  0 0.03786122448979595 0  0 0.03628367346938779 0  0 0.03470612244897962 0  0 0.03312857142857146 0  0 0.03155102040816329 0  0 0.02997346938775513 0  0 0.02839591836734697 0  0 0.0268183673469388 0  0 0.02524081632653064 0  0 0.02366326530612247 0  0 0.02208571428571431 0  0 0.02050816326530614 0  0 0.01893061224489798 0  0 0.01735306122448981 0  0 0.01577551020408165 0  0 0.01419795918367349 0  0 0.01262040816326532 0  0 0.01104285714285716 0  0 0.009465306122448988 0  0 0.00788775510204083 0  0 0.006310204081632659 0  0 0.004732653061224501 0  0 0.003155102040816343 0  0 0.001577551020408172 0  0.001400000000000004 0.001577551020408172 0  0.001400000000000004 0.003155102040816329 0  0.001400000000000002 0.004732653061224501 0  0.001400000000000002 0.006310204081632645 0  0.001400000000000005 0.007887755102040823 0  0.001400000000000002 0.009465306122448981 0  0.001400000000000002 0.01104285714285717 0  0.001400000000000004 0.01262040816326531 0  0.0014 0.01419795918367349 0  0.001400000000000002 0.01577551020408166 0  0.001400000000000005 0.0173530612244898 0  0.001400000000000002 0.01893061224489797 0  0.001400000000000002 0.02050816326530613 0  0.001400000000000002 0.02208571428571431 0  0.001400000000000002 0.02366326530612247 0  0.001400000000000002 0.02524081632653063 0  0.001400000000000002 0.0268183673469388 0  0.001400000000000002 0.02839591836734696 0  0.001400000000000002 0.02997346938775513 0  0.001400000000000002 0.03155102040816328 0  0.001400000000000002 0.03312857142857147 0  0.001399999999999997 0.03470612244897962 0  0.001400000000000005 0.03628367346938778 0  0.001400000000000002 0.03786122448979594 0  0.001400000000000002 0.03943877551020411 0  0.001400000000000002 0.04101632653061228 0  0.001400000000000002 0.04259387755102043 0  0.001400000000000002 0.0441714285714286 0  0.0014 0.04574897959183676 0  0.001400000000000002 0.04732653061224492 0  0.001400000000000004 0.04890408163265308 0  0.001400000000000002 0.05048163265306126 0  0.001400000000000002 0.05205918367346941 0  0.0014 0.05363673469387758 0  0.001400000000000004 0.05521428571428574 0  0.001399999999999998 0.05679183673469391 0  0.001400000000000002 0.05836938775510207 0  0.0014 0.05994693877551023 0  0.001400000000000002 0.0615244897959184 0  0.001400000000000002 0.06310204081632656 0  0.001400000000000002 0.06467959183673472 0  0.0014 0.06625714285714286 0  0.001400000000000002 0.06783469387755102 0  0.001399999999999998 0.06941224489795919 0  0.001400000000000002 0.07098979591836735 0  0.0014 0.07256734693877552 0  0.001400000000000002 0.07414489795918368 0  0.001400000000000002 0.07572244897959184 0  0.002800000000000006 0.001577551020408165 0  0.002800000000000004 0.003155102040816343 0  0.002800000000000002 0.004732653061224487 0  0.002800000000000002 0.006310204081632652 0  0.002800000000000002 0.007887755102040813 0  0.0028 0.009465306122448981 0  0.002799999999999997 0.01104285714285715 0  0.0028 0.01262040816326532 0  0.0028 0.01419795918367348 0  0.0028 0.01577551020408165 0  0.002799999999999997 0.0173530612244898 0  0.0028 0.01893061224489797 0  0.002800000000000004 0.02050816326530613 0  0.0028 0.0220857142857143 0  0.0028 0.02366326530612247 0  0.002800000000000004 0.02524081632653064 0  0.0028 0.0268183673469388 0  0.0028 0.02839591836734696 0  0.002799999999999995 0.02997346938775512 0  0.002799999999999997 0.03155102040816328 0  0.002799999999999995 0.03312857142857146 0  0.0028 0.03470612244897962 0  0.002799999999999995 0.03628367346938778 0  0.002799999999999997 0.03786122448979594 0  0.002799999999999997 0.03943877551020411 0  0.002799999999999997 0.04101632653061228 0  0.002799999999999997 0.04259387755102043 0  0.002799999999999995 0.0441714285714286 0  0.002799999999999997 0.04574897959183676 0  0.002799999999999997 0.04732653061224493 0  0.002799999999999995 0.04890408163265308 0  0.002799999999999993 0.05048163265306124 0  0.002799999999999995 0.05205918367346941 0  0.002799999999999995 0.05363673469387757 0  0.002799999999999992 0.05521428571428574 0  0.002799999999999997 0.05679183673469391 0  0.002799999999999993 0.05836938775510207 0  0.002799999999999993 0.05994693877551022 0  0.002799999999999992 0.0615244897959184 0  0.002799999999999988 0.06310204081632655 0  0.002799999999999992 0.0646795918367347 0  0.002799999999999992 0.06625714285714286 0  0.00279999999999999 0.06783469387755103 0  0.00279999999999999 0.06941224489795919 0  0.002799999999999988 0.07098979591836735 0  0.00279999999999999 0.07256734693877552 0  0.002799999999999988 0.07414489795918368 0  0.00279999999999999 0.07572244897959184 0  0.004200000000000006 0.001577551020408172 0  0.004200000000000006 0.003155102040816329 0  0.004200000000000008 0.00473265306122448 0  0.004200000000000009 0.006310204081632652 0  0.004200000000000008 0.00788775510204082 0  0.004200000000000008 0.009465306122448978 0  0.004200000000000006 0.01104285714285716 0  0.004200000000000006 0.01262040816326532 0  0.004200000000000004 0.01419795918367349 0  0.004200000000000002 0.01577551020408165 0  0.004200000000000004 0.0173530612244898 0  0.004200000000000006 0.01893061224489797 0  0.004200000000000006 0.02050816326530613 0  0.004200000000000002 0.0220857142857143 0  0.004200000000000004 0.02366326530612247 0  0.004199999999999999 0.02524081632653062 0  0.004200000000000004 0.0268183673469388 0  0.004200000000000004 0.02839591836734696 0  0.004200000000000002 0.02997346938775512 0  0.004199999999999999 0.03155102040816328 0  0.004200000000000001 0.03312857142857145 0  0.004200000000000001 0.03470612244897962 0  0.004199999999999995 0.03628367346938778 0  0.004199999999999999 0.03786122448979594 0  0.004199999999999999 0.0394387755102041 0  0.004199999999999997 0.04101632653061227 0  0.004199999999999999 0.04259387755102043 0  0.004199999999999999 0.04417142857142859 0  0.004199999999999999 0.04574897959183676 0  0.004199999999999999 0.04732653061224492 0  0.004199999999999997 0.04890408163265308 0  0.004199999999999997 0.05048163265306124 0  0.004199999999999999 0.05205918367346941 0  0.004199999999999992 0.05363673469387757 0  0.0
[...]
<PointData  Vectors="displacement"> 
<DataArray  type="Float64"  Name="displacement"  NumberOfComponents="3" format="ascii">0.0000000000000000e+00 0.0000000000000000e+00 0.0000000000000000e+00  0.0000000000000000e+00 0.0000000000000000e+00 0.0000000000000000e+00  5.1653147024519923e-03 -4.3208098620652481e-02 0.0000000000000000e+00  -5.1119580218958885e-03 -4.3197757458440601e-02 0.0000000000000000e+00  0.0000000000000000e+00 0.0000000000000000e+00 0.0000000000000000e+00  0.0000000000000000e+00 0.0000000000000000e+00 0.0000000000000000e+00  0.0000000000000000e+00 0.0000000000000000e+00 0.0000000000000000e+00  0.0000000000000000e+00 0.0000000000000000e+00 0.0000000000000000e+00  0.0000000000000000e+00 0.0000000000000000e+00 0.0000000000000000e+00  0.0000000000000000e+00 0.0000000000000000e+00 0.0000000000000000e+00  0.0000000000000000e+00 0.0000000000000000e+00 0.0000000000000000e+00  0.0000000000000000e+00 0.0000000000000000e+00 0.0000000000000000e+00  0.0000000000000000e+00 0.0000000000000000e+00 0.0000000000000000e+00  0.0000000000000000e+00 0.0000000000000000e+00 0.0000000000000000e+00  0.0000000000000000e+00 0.0000000000000000e+00 0.0000000000000000e+00  0.0000000000000000e+00 0.0000000000000000e+00 0.0000000000000000e+00  0.0000000000000000e+00 0.0000000000000000e+00 0.0000000000000000e+00  0.0000000000000000e+00 0.0000000000000000e+00 0.0000000000000000e+00  0.0000000000000000e+00 0.0000000000000000e+00 0.0000000000000000e+00  0.0000000000000000e+00 0.0000000000000000e+00 0.0000000000000000e+00  0.0000000000000000e+00 0.0000000000000000e+00 0.0000000000000000e+00  0.0000000000000000e+00 0.0000000000000000e+00 0.0000000000000000e+00  0.0000000000000000e+00 0.0000000000000000e+00 0.0000000000000000e+00  0.0000000000000000e+00 0.0000000000000000e+00 0.0000000000000000e+00  0.0000000000000000e+00 0.0000000000000000e+00 0.0000000000000000e+00  0.0000000000000000e+00 0.0000000000000000e+00 0.0000000000000000e+00  0.0000000000000000e+00 0.0000000000000000e+00 0.0000000000000000e+00  1.6777700945343366e-03 -1.5348300154217978e-03 0.0000000000000000e+00  2.6033944286686429e-03 -2.4647657241019189e-03 0.0000000000000000e+00  3.2551031705114141e-03 -3.2822781123301023e-03 0.0000000000000000e+00  3.7439206246490139e-03 -4.0599772074522734e-03 0.0000000000000000e+00  4.1178377709007244e-03 -4.8231292046373182e-03 0.0000000000000000e+00  4.4050673408306158e-03 -5.5849034981794200e-03 0.0000000000000000e+00  4.6252093940670419e-03 -6.3524989767353808e-03 0.0000000000000000e+00  4.7928303583231659e-03 -7.1297625258011773e-03 0.0000000000000000e+00  4.9191589224509514e-03 -7.9185696833062279e-03 0.0000000000000000e+00  5.0130441350772223e-03 -8.7195847586478241e-03 0.0000000000000000e+00  5.0815464945158833e-03 -9.5327113143137392e-03 0.0000000000000000e+00  5.1303311367049530e-03 -1.0357378370546018e-02 0.0000000000000000e+00  5.1639474883468780e-03 -1.1192731342273304e-02 0.0000000000000000e+00  5.1860395107571578e-03 -1.2037763076383275e-02 0.0000000000000000e+00  5.1995106667369374e-03 -1.2891404689100066e-02 0.0000000000000000e+00  5.2066573577589544e-03 -1.3752588090751144e-02 0.0000000000000000e+00  5.2092789919072563e-03 -1.4620287937266581e-02 0.0000000000000000e+00  5.2087697692127406e-03 -1.5493548395959823e-02 0.0000000000000000e+00  5.2061955561116700e-03 -1.6371498676396375e-02 0.0000000000000000e+00  5.2023582519871671e-03 -1.7253360325627822e-02 0.0000000000000000e+00  5.1978494919556941e-03 -1.8138448606931073e-02 0.0000000000000000e+00  5.1930951937874297e-03 -1.9026169764694494e-02 0.0000000000000000e+00  5.1883922385965705e-03 -1.9916015570040295e-02 0.0000000000000000e+00  5.1839384173988411e-03 -2.0807556212850097e-02 0.0000000000000000e+00  5.1798566484817605e-03 -2.1700432339280751e-02 0.0000000000000000e+00  5.1762143586896207e-03 -2.2594346818765286e-02 0.0000000000000000e+00  5.1730388184793282e-03 -2.3489056652818391e-02 0.0000000000000000e+00  5.1703291236020769e-03 -2.4384365303014841e-02 0.0000000000000000e+00  5.1680654252134446e-03 -2.5280115611394115e-02 0.0000000000000000e+00  5.1662159256083817e-03 -2.6176183407993919e-02 0.0000000000000000e+00  5.1647420792492980e-03 -2.7072471842532010e-02 0.0000000000000000e+00  5.1636023687732444e-03 -2.7968906436318667e-02 0.0000000000000000e+00  5.1627549634239434e-03 -2.8865430822743132e-02 0.0000000000000000e+00  5.1621595127808633e-03 -2.9762003127143579e-02 0.0000000000000000e+00  5.1617782814488353e-03 -3.0658592927066793e-02 0.0000000000000000e+00  5.1615767900632676e-03 -3.1555178729849476e-02 0.0000000000000000e+00  5.1615240939968067e-03 -3.2451745904525091e-02 0.0000000000000000e+00  5.1615928029305558e-03 -3.3348285008066421e-02 0.0000000000000000e+00  5.1617589214143968e-03 -3.4244790451020544e-02 0.0000000000000000e+00  5.1620015722299963e-03 -3.5141259454074682e-02 0.0000000000000000e+00  5.1623026505365254e-03 -3.6037691254654593e-02 0.0000000000000000e+00  5.1626464475641792e-03 -3.6934086531197292e-02 0.0000000000000000e+00  5.1630192789178164e-03 -3.7830447022373904e-02 0.0000000000000000e+00  5.1634091568183160e-03 -3.8726775329573804e-02 0.0000000000000000e+00  5.1638055637836400e-03 -3.9623074903715319e-02 0.0000000000000000e+00  5.1641994324754005e-03 -4.0519350231794336e-02 0.0000000000000000e+00  5.1645835610558462e-03 -4.1415607245414508e-02 0.0000000000000000e+00  5.1649540982510707e-03 -4.2311853836716477e-02 0.0000000000000000e+00  4.7370347426483033e-03 -4.3207780429975459e-02 0.0000000000000000e+00  4.3087555526787301e-03 -4.3207469188733395e-02 0.0000000000000000e+00  3.8804829812084433e-03 -4.3207168405838631e-02 0.0000000000000000e+00  3.4522225115196548e-03 -4.3206875744165256e-02 0.0000000000000000e+00  3.0239776652253403e-03 -4.3206586184020228e-02 0.0000000000000000e+00  2.5957500910396493e-03 -4.3206293678323800e-02 0.0000000000000000e+00  2.1675398711566911e-03 -4.3205992048735570e-02 0.0000000000000000e+00  1.7393458273030989e-03 -4.3205675523352104e-02 0.0000000000000000e+00  1.3111657972257581e-03 -4.3205339074295128e-02 0.0000000000000000e+00  8.8299687911595184e-04 -4.3204978630878903e-02 0.0000000000000000e+00  4.5483564624938067e-04 -4.3204591211412929e-02 0.0000000000000000e+00  2.6678336801120001e-05 -4.3204175000653051e-02 0.0000000000000000e+00  -4.0147897411004223e-04 -4.3203729389960567e-02 0.0000000000000000e+00  -8.2964021162925566e-04 -4.3203254989753706e-02 0.0000000000000000e+00  -1.2578091383527372e-03 -4.3202753617360083e-02 0.0000000000000000e+00  -1.6859891822244108e-03 -4.3202228257169954e-02 0.0000000000000000e+00  -2.1141832466284372e-03 -4.3201682983514629e-02 0.0000000000000000e+00  -2.5423934956354923e-03 -4.3201122829203027e-02 0.0000000000000000e+00  -2.9706211094757771e-03 -4.3200553572603204e-02 0.0000000000000000e+00  -3.3988660080435714e-03 -4.3199981399646495e-02 0.0000000000000000e+00  -3.8271265449433926e-03 -4.3199412362654559e-02 0.0000000000000000e+00  -4.2553991979084093e-03 -4.3198851470261763e-02 0.0000000000000000e+00  -4.6836784478815870e-03 -4.3198301026267302e-02 0.0000000000000000e+00  -5.1125685610702489e-03 -4.2301512374315120e-02 0.0000000000000000e+00  -5.1131691670814111e-03 -4.1405265840477851e-02 0.0000000000000000e+00  -5.1137562354528756e-03 -4.0509008867407138e-02 0.0000000000000000e+00  -5.1143335421442986e-03 -3.9612733566806509e-02 0.0000000000000000e+00  -5.1149082842177800e-03 -3.8716434011245568e-02 0.0000000000000000e+00  -5.1154895408247218e-03 -3.7820105717652604e-02 0.0000000000000000e+00  -5.1160878388142534e-03 -3.6923745238559402e-02 0.0000000000000000e+00  -5.1167151713731708e-03 -3.6027349975652795e-02 0.0000000000000000e+00  -5.1173852251746206e-03 -3.5130918193207787e-02 0.0000000000000000e+00  -5.1181137088110520e-03 -3.4234449215849581e-02 0.0000000000000000e+00  -5.1189187247958814e-03 -3.3337943809544392e-02 0.0000000000000000e+00  -5.1198211458772236e-03 -3.2441404757521691e-02 0.0000000000000000e+00  -5.1208449606743867e-03 -3.1544837653866398e-02 0.0000000000000000e+00  -5.1220175499177029e-03 -3.0648251947156993e-02 0.0000000000000000e+00  -5.1233698453347076e-03 -2.9751662275062384e-02 0.0000000000000000e+00  -5.1249363093766355e-03 -2.8855090138377920e-02 0.0000000000000000e+00  -5.1267546556568273e-03 -2.7958565969466925e-02 0.0000000000000000e+00  -5.1288652069242050e-03 -2.7062131655130019e-02 0.0000000000000000e+00  -5.1313097591606108e-03 -2.6165843576941884e-02 0.0000000000000000e+00  -5.1341297864049831e-03 -2.5269776232183915e-02 0.0000000000000000e+00  -5.1373637805730956e-03 -2.4374026494448590e-02 0.0000000000000000e+00  -5.1410434732917735e-03 -2.3478718563213298e-02 0.0000000000000000e+00  -5.1451886321294115e-03 -2.2584009634180009e-02 0.0000000000000000e+00  -5.1498000612653526e-03 -2.1690096294470097e-02 0.0000000000000000e+00  -5.1548503665098996e-03 -2.0797221605859933e-02 0.0000000000000000e+00  -5.1602719668389025e-03 -1.9905682781579795e-02 0.0000000000000000e+00  -5.1659417496809929e-03 -1.9015839283646432e-02 0.0000000000000000e+00  -5.1716616756881913e-03 -1.8128121063533238e-02 0.0000000000000000e+00  -5.1771345410796489e-03 -1.7243036533898082e-02 0.0000000000000000e+00  -5.1819340015176905e-03 -1.6361179687141545e-02 0.0000000000000000e+00  -5.1854678484188291e-03 -1.5483235560990511e-02 0.0000000000000000e+00  -5.1869333998016496e-03 -1.4609982983908908e-02 0.0000000000000000e+00  -5.1852637079897483e-03 -1.3742293202916670e-02 0.0000000000000000e+00  -5.1790630651544645e-03 -1.2881122586335204e-02 0.0000000000000000e+00  -5.1665299471047891e-03 -1.2027497074428774e-02 0.0000000000000000e+00  -5.1453649707614325e-03 -1.1182485366176862e-02 0.0000000000000000e+00  -5.1126604629026700e-03 -1.0347156871956815e-02 0.0000000000000000e+00  -5.0647665093298110e-03 -9.5225190146479410e-03 0.0000000000000000e+00  -4.9971252603157115e-03 -8.7094260938316414e-03 0.0000000000000000e+00  -4.9040596577052771e-03 -7.9084477559331953e-03 0.0000000000000000e+00  -4.7784923562908168e-03 -7.1196772678733689e-03 0.0000000000000000e+00  -4.6115507261713035e-03 -6.3424440836137887e-03 0.0000000000000000e+00  -4.3919742434526841e-03 -5.5748615513209867e-03 0.0000000000000000e+00  -4.1051593602463576e-03 -4.8130655694921037e-03 0.0000000000000000e+00  -3.7314964628235980e-03 -4.0498515055398176e-03 0.0000000000000000e+00  -3.2429977148650210e-03 -3.2722009502417567e-03 0.0000000000000000e+00  -2.5929115727159331e-03 -2.4551082180586693e-03 0.0000000000000000e+00  -1.6706041765400925e-03 -1.5134864297148833e-03 0.0000000000000000e+00  -1.1754311066283607e-03 -9.0216387624572430e-04 0.0000000000000000e+00  -2.1482511056479174e-03 -1.9027958510012917e-03 0.0000000000000000e+00  -2.8388058059200792e-03 -2.8277553404919887e-03 0.0000000000000000e+00  -3.3453672311792989e-03 -3.6948760509326176e-03 0.0000000000000000e+00  -3.7261549808347600e-03 -4.5306252535205127e-03 0.0000000000000000e+00  -4.0145413987561955e-03 -5.3513157741953568e-03 0.0000000000000000e+00  -4.2326016386895621e-03 -6.1666882910199686e-03 0.0000000000000000e+00  -4.3962918651975743e-03 -6.9826355432375548e-03 0.0000000000000000e+00  -4.5176950231780406e-03 -7.8026722778013471e-03 0.0000000000000000e+00  -4.6062060817642749e-03 -8.6287856765034365e-03 0.0000000000000000e+00  -4.6692388708831972e-03 -9.4619610486212768e-03 0.0000000000000000e+00  -4.7126851938263346e-03 -1.0302522660830293e-02 0.0000000000000000e+00  -4.7412349069652394e-03 -1.1150362993529284e-02 0.0000000000000000e+00  -4.7586125241904703e-03 -1.2005101015858272e-02 0.0000000000000000e+00  -4.7677602515329726e-03 -1.2866193077836810e-02 0.0000000000000000e+00  -4.7709842716525553e-03 -1.3733010876583669e-02 0.0000000000000000e+00  -4.7700741641541755e-03 -1.4604895844773482e-02 0.0000000000000000e+00  -4.7664015765930580e-03 -1.5481196323992162e-02 0.0000000000000000e+00  -4.7610021716841091e-03 -1.6361292049745239e-02 0.0000000000000000e+00  -4.7546436978498597e-03 -1.7244609281187748e-02 0.0000000000000000e+00  -4.7478823476543065e-03 -1.8130629087656447e-02 0.0000000000000000e+00  -4.7411091541712568e-03 -1.9018890710057704e-02 0.0000000000000000e+00  -4.7345879037228936e-03 -1.9908991467696705e-02 0.0000000000000000e+00  -4.7284858467411296e-03 -2.0800584334576450e-02 0.0000000000000000e+00  -4.7228983309490422e-03 -2.1693374036491717e-02 0.0000000000000000e+00  -4.7178683447198604e-03 -2.2587112304309834e-02 0.0000000000000000e+00  -4.7134018351226515e-03 -2.3481592748044244e-02 0.0000000000000000e+00  -4.7094795515840015e-03 -2.4376645682122496e-02 0.0000000000000000e+00  -4.7060660614184225e-03 -2.5272133127916426e-02 0.0000000000000000e+00  -4.7031164877749691e-03 -2.6167944139639653e-02 0.0000000000000000e+00  -4.7005814340848814e-03 -2.7063990539518867e-02 0.0000000000000000e+00  -4.6984104820176047e-03 -2.7960203103831700e-02 0.0000000000000000e+00  -4.6965545821641480e-03 -2.8856528209704423e-02 0.0000000000000000e+00  -4.6949675978262811e-03 -2.9752924930745224e-02 0.0000000000000000e+00  -4.6936072118583137e-03 -3.0649362555403698e-02 0.0000000000000000e+00  -4.6924353638128514e-03 -3.1545818493553909e-02 0.0000000000000000e+00  -4.6914183489425746e-03 -3.2442276532723961e-02 0.0000000000000000e+00  -4.6905266811584426e-03 -3.3338725404472858e-02 0.0000000000000000e+00  -4.6897347981499698e-03 -3.4235157622741860e-02 0.0000000000000000e+00  -4.6890206679693841e-03 -3.5131568558881443e-02 0.0000000000000000e+00  -4.6883653421365143e-03 -3.6027955721924548e-02 0.0000000000000000e+00  -4.6877524908296294e-03 -3.6924318217049723e-02 0.0000000000000000e+00  -4.6871679519255634e-03 -3.7820656359451484e-02 0.0000000000000000e+00  -4.6865993303060330e-03 -3.8716971423947574e-02 0.0000000000000000e+00  -4.6860357041896934e-03 -3.9613265510130120e-02 0.0000000000000000e+00  -4.6854675505144591e-03 -4.0509541492178176e-02 0.0000000000000000e+00  -4.6848871407821563e-03 -4.1405802989870427e-02 0.0000000000000000e+00  -4.6842899705569051e-03 -4.2302054310393411e-02 0.0000000000000000e+00  -9.0475572000800876e-04 -7.3527958609539274e-04 0.0000000000000000e+00  -1.7561662875664810e-03 -1.6079572315922839e-03 0.0000000000000000e+00  -2.4307489300466451e-03 -2.5142872902582120e-03 0.0000000000000000e+00  -2.9418445830274834e-03 -3.4068915811550282e-03 0.0000000000000000e+00  -3.3275264277928371e-03 -4.2801947495367341e-03 0.0000000000000000e+00  -3.6184490186749558e-03 -5.1393509506973169e-03 0.0000000000000000e+00  -3.8369357069721350e-03 -5.9902918377499137e-03 0.0000000000000000e+00  -3.9995434900513332e-03 -6.8377053852978547e-03 0.0000000000000000e+00  -4.1188901744852622e-03 -7.6849128495217554e-03 0.0000000000000000e+00  -4.2047823548482010e-03 -8.5341172528960625e-03 0.0000000000000000e+00  -4.2649331581287456e-03 -9.3866792266523030e-03 0.0000000000000000e+00  -4.3054440178487080e-03 -1.0243348076136995e-02 0.0000000000000000e+00  -4.3311460342623249e-03 -1.1104441059287906e-02 0.0000000000000000e+00  -4.3458539177342803e-03 -1.1969978606486992e-02 0.0000000000000000e+00  -4.3525625654121493e-03 -1.2839784903940129e-02 0.0000000000000000e+00  -4.3536037733773346e-03 -1.3713561896743404e-02 0.0000000000000000e+00  -4.3507736339175509e-03 -1.4590943036571557e-02 0.0000000000000000e+00  -4.3454372707541697e-03 -1.5471531634000583e-02 0.0000000000000000e+00  -4.3386153562155021e-03 -1.6354927546033279e-02 0.0000000000000000e+00  -4.3310555827345684e-03 -1.7240745075672907e-02 0.0000000000000000e+00  -4.3232915086870429e-03 -1.8128624311607715e-02 0.0000000000000000e+00  -4.3156907314504849e-03 -1.9018237636536546e-02 0.0000000000000000e+00  -4.3084940282657642e-03 -1.9909292742995736e-02 0.0000000000000000e+00  -4.3018468765380980e-03 -2.0801533188613743e-02 0.0000000000000000e+00  -4.2958245815829079e-03 -2.1694737279650544e-02 0.0000000000000000e+00  -4.2904520821628236e-03 -2.2588715878955383e-02 0.0000000000000000e+00  -4.2857193633114516e-03 -2.3483309582045055e-02 0.0000000000000000e+00  -4.2815932780075408e-03 -2.4378385585106202e-02 0.0000000000000000e+00  -4.2780264628777239e-03 -2.5273834475185258e-02 0.0000000000000000e+00  -4.2749639279203756e-03 -2.6169567100635553e-02 0.0000000000000000e+00  -4.2723478061775415e-03 -2.7065511624905437e-02 0.0000000000000000e+00  -4.2701206661734147e-03 -2.7961610825562071e-02 0.0000000000000000e+00  -4.2682277174247328e-03 -2.8857819670211816e-02 0.0000000000000000e+00  -4.2666181768362833e-03 -2.9754103179369773e-02 0.0000000000000000e+00  -4.2652460105858060e-03 -3.0650434571421085e-02 0.0000000000000000e+00  -4.2640702213323249e-03 -3.1546793675047979e-02 0.0000000000000000e+00  -4.2630548133671372e-03 -3.2443165588599485e-02 0.0000000000000000e+00  -4.2621685377996063e-03 -3.3339539562840907e-02 0.0000000000000000e+00  -4.2613844952454098e-03 -3.4235908082514206e-02 0.0000000000000000e+00  -4.2606796541239736e-03 -3.5132266122501192e-02 0.0000000000000000e+00  -4.2600343281921395e-03 -3.6028610555527821e-02 0.0000000000000000e+00  -4.2594316473978924e-03 -3.6924939689741060e-02 0.0000000000000000e+00  -4.2588570523893780e-03 -3.7821252915584448e-02 0.0000000000000000e+00  -4.2582978474467173e-03 -3.8717550441746455e-02 0.0000000000000000e+00  -4.2577428644679670e-03 -3.9613833100173405e-02 0.0000000000000000e+00  -4.2571823312446229e-03 -4.0510102207668729e-02 0.0000000000000000e+00  -4.2566081051889255e-03 -4.1406359527601057e-02 0.0000000000000000e+00  -4.2560144510417021e-03 -4.2302607624073341e-02 0.0000000000000000e+00  -7.3400949321329885e-04 -6.7221726245529525e-04 0.0000000000000000e+00  -1.4500157684886438e-03 -1.4596244200411766e-03 0.0000000000000000e+00  -2.0622505543483583e-03 -2.3152015093295462e-03 0.0000000000000000e+00  -2.5503417264691464e-03 -3.1944102888861901e-03 0.0000000000000000e+00  -2.9278607367912574e-03 -4.0760607037340409e-03 0.0000000000000000e+00  -3.2154851737500340e-03 -4.9536692317143881e-03 0.0000000000000000e+00  -3.4320387019218948e-03 -5.8267784432987982e-03 0.0000000000000000e+00  -3.5929280970795844e-03 -6.6968110024160721e-03 0.0000000000000000e+00  -3.7104539320700273e-03 -7.5654724559496020e-03 0.0000000000000000e+00  -3.7943966682968517e-03 -8.4342161338183987e-03 0.0000000000000000e+00  -3.8525335242828220e-03 -9.3041148020578650e-03 0.0000000000000000e+00  -3.8910449335906928e-03 -1.0175879196799516e-02 0.0000000000000000e+00  -3.9148293515034261e-03 -1.1049922073427674e-02 0.0000000000000000e+00  -3.9277500464648596e-03 -1.1926428862594833e-02 0.0000000000000000e+00  -3.9328320908457188e-03 -1.2805420952628137e-02 0.0000000000000000e+00  -3.9324221247109062e-03 -1.3686807624623605e-02 0.0000000000000000e+00  -3.9283193766983466e-03 -1.4570426599545491e-02 0.0000000000000000e+00  -3.9218837627214313e-03 -1.5456074572834809e-02 0.0000000000000000e+00  -3.9141252179121086e-03 -1.6343529481667875e-02 0.0000000000000000e+00  -3.9057773843629399e-03 -1.7232566196265810e-02 0.0000000000000000e+00  -3.8973581245249880e-03 -1.8122967118291582e-02 0.0000000000000000e+00  -3.8892188981434483e-03 -1.9014528922421652e-02 0.0000000000000000e+00  -3.8815847338561408e-03 -1.9907066440198403e-02 0.0000000000000000e+00  -3.8745862903232574e-03 -2.0800414476510085e-02 0.0000000000000000e+00  -3.8682853060872900e-03 -2.1694428173171250e-02 0.0000000000000000e+00  -3.8626945668270227e-03 -2.2588982389862764e-02 0.0000000000000000e+00  -3.8577933658582985e-03 -2.3483970456606895e-02 0.0000000000000000e+00  -3.8535392954352579e-03 -2.4379302559836336e-02 0.0000000000000000e+00  -3.8498770813946942e-03 -2.5274903951916491e-02 0.0000000000000000e+00  -3.8467450615194110e-03 -2.6170713118054315e-02 0.0000000000000000e+00  -3.8440798083927319e-03 -2.7066679991745331e-02 0.0000000000000000e+00  -3.8418193100892700e-03 -2.7962764277631454e-02 0.0000000000000000e+00  -3.8399050462171293e-03 -2.8858933916683233e-02 0.0000000000000000e+00  -3.8382832318279870e-03 -2.9755163711189331e-02 0.0000000000000000e+00  -3.8369054466414407e-03 -3.0651434114668832e-02 0.0000000000000000e+00  -3.8357288209099564e-03 -3.1547730183339374