<?xml version="1.0"?>
<VTKFile type="UnstructuredGrid"  version="0.1"  >
<UnstructuredGrid>
<Piece  NumberOfPoints="3167" NumberOfCells="6038">
<Points>
<DataArray  type="Float64"  NumberOfComponents="3"  format="ascii">2.2 2.9 0  0 2.9 0  2.8 2.9 0  5 2.9 0  5 0 0  0 0 0  2.16271186440678 2.9 0  2.125423728813559 2.9 0  2.088135593220339 2.9 0  2.050847457627119 2.9 0  2.013559322033898 2.9 0  1.976271186440678 2.9 0  1.938983050847457 2.9 0  1.901694915254237 2.9 0  1.864406779661016 2.9 0  1.827118644067796 2.9 0  1.789830508474575 2.9 0  1.752542372881355 2.9 0  1.715254237288134 2.9 0  1.677966101694914 2.9 0  1.640677966101693 2.9 0  1.603389830508473 2.9 0  1.566101694915253 2.9 0  1.528813559322032 2.9 0  1.491525423728812 2.9 0  1.454237288135591 2.9 0  1.416949152542371 2.9 0  1.37966101694915 2.9 0  1.34237288135593 2.9 0  1.305084745762709 2.9 0  1.267796610169489 2.9 0  1.230508474576268 2.9 0  1.193220338983048 2.9 0  1.155932203389827 2.9 0  1.118644067796607 2.9 0  1.081355932203387 2.9 0  1.044067796610166 2.9 0  1.006779661016946 2.9 0  0.9694915254237257 2.9 0  0.9322033898305055 2.9 0  0.8949152542372856 2.9 0  0.8576271186440652 2.9 0  0.820338983050845 2.9 0  0.783050847457625 2.9 0  0.7457627118644048 2.9 0  0.7084745762711844 2.9 0  0.6711864406779642 2.9 0  0.633898305084744 2.9 0  0.5966101694915238 2.9 0  0.5593220338983036 2.9 0  0.5220338983050834 2.9 0  0.4847457627118632 2.9 0  0.447457627118643 2.9 0  0.4101694915254228 2.9 0  0.3728813559322024 2.9 0  0.3355932203389822 2.9 0  0.2983050847457622 2.9 0  0.2610169491525418 2.9 0  0.2237288135593216 2.9 0  0.1864406779661016 2.9 0  0.1491525423728812 2.9 0  0.1118644067796613 2.9 0  0.07457627118644039 2.9 0  0.03728813559321997 2.9 0  2.792405063291139 2.9 0  2.784810126582279 2.9 0  2.777215189873418 2.9 0  2.769620253164557 2.9 0  2.762025316455697 2.9 0  2.754430379746836 2.9 0  2.746835443037975 2.9 0  2.739240506329114 2.9 0  2.731645569620254 2.9 0  2.724050632911393 2.9 0  2.716455696202532 2.9 0  2.708860759493671 2.9 0  2.701265822784811 2.9 0  2.69367088607595 2.9 0  2.686075949367089 2.9 0  2.678481012658228 2.9 0  2.670886075949368 2.9 0  2.663291139240507 2.9 0  2.655696202531646 2.9 0  2.648101265822786 2.9 0  2.640506329113925 2.9 0  2.632911392405064 2.9 0  2.625316455696203 2.9 0  2.617721518987342 2.9 0  2.610126582278482 2.9 0  2.602531645569621 2.9 0  2.59493670886076 2.9 0  2.587341772151899 2.9 0  2.579746835443038 2.9 0  2.572151898734178 2.9 0  2.564556962025317 2.9 0  2.556962025316456 2.9 0  2.549367088607595 2.9 0  2.541772151898734 2.9 0  2.534177215189874 2.9 0  2.526582278481013 2.9 0  2.518987341772152 2.9 0  2.511392405063292 2.9 0  2.503797468354431 2.9 0  2.49620253164557 2.9 0  2.488607594936709 2.9 0  2.481012658227848 2.9 0  2.473417721518988 2.9 0  2.465822784810127 2.9 0  2.458227848101266 2.9 0  2.450632911392406 2.9 0  2.443037974683545 2.9 0  2.435443037974684 2.9 0  2.427848101265823 2.9 0  2.420253164556962 2.9 0  2.412658227848102 2.9 0  2.405063291139241 2.9 0  2.39746835443038 2.9 0  2.389873417721519 2.9 0  2.382278481012658 2.9 0  2.374683544303798 2.9 0  2.367088607594937 2.9 0  2.359493670886076 2.9 0  2.351898734177215 2.9 0  2.344303797468355 2.9 0  2.336708860759494 2.9 0  2.329113924050633 2.9 0  2.321518987341773 2.9 0  2.313924050632912 2.9 0  2.306329113924051 2.9 0  2.29873417721519 2.9 0  2.291139240506329 2.9 0  2.283544303797469 2.9 0  2.275949367088608 2.9 0  2.268354430379747 2.9 0  2.260759493670887 2.9 0  2.253164556962026 2.9 0  2.245569620253165 2.9 0  2.237974683544304 2.9 0  2.230379746835443 2.9 0  2.222784810126583 2.9 0  2.215189873417722 2.9 0  2.207594936708861 2.9 0  4.96271186440678 2.9 0  4.925423728813559 2.9 0  4.888135593220339 2.9 0  4.850847457627118 2.9 0  4.813559322033898 2.9 0  4.776271186440677 2.9 0  4.738983050847457 2.9 0  4.701694915254237 2.9 0  4.664406779661016 2.9 0  4.627118644067796 2.9 0  4.589830508474575 2.9 0  4.552542372881355 2.9 0  4.515254237288135 2.9 0  4.477966101694914 2.9 0  4.440677966101694 2.9 0  4.403389830508473 2.9 0  4.366101694915252 2.9 0  4.328813559322032 2.9 0  4.291525423728811 2.9 0  4.254237288135591 2.9 0  4.21694915254237 2.9 0  4.17966101694915 2.9 0  4.14237288135593 2.9 0  4.105084745762709 2.9 0  4.067796610169489 2.9 0  4.030508474576268 2.9 0  3.993220338983048 2.9 0  3.955932203389827 2.9 0  3.918644067796607 2.9 0  3.881355932203387 2.9 0  3.844067796610166 2.9 0  3.806779661016946 2.9 0  3.769491525423725 2.9 0  3.732203389830505 2.9 0  3.694915254237285 2.9 0  3.657627118644065 2.9 0  3.620338983050845 2.9 0  3.583050847457625 2.9 0  3.545762711864405 2.9 0  3.508474576271184 2.9 0  3.471186440677964 2.9 0  3.433898305084744 2.9 0  3.396610169491524 2.9 0  3.359322033898303 2.9 0  3.322033898305083 2.9 0  3.284745762711863 2.9 0  3.247457627118643 2.9 0  3.210169491525423 2.9 0  3.172881355932202 2.9 0  3.135593220338982 2.9 0  3.098305084745762 2.9 0  3.061016949152542 2.9 0  3.023728813559321 2.9 0  2.986440677966101 2.9 0  2.949152542372881 2.9 0  2.911864406779661 2.9 0  2.87457627118644 2.9 0  2.83728813559322 2.9 0  5 0.1063822624840908 0  5 0.210636879963479 0  5 0.3128064053000104 0  5 0.4129325399736057 0  5 0.5110561519920087 0  5 0.6072172917522097 0  5 0.7014552086337308 0  5 0.7938083672768746 0  5 0.8843144624325437 0  5 0.9730104357533907 0  5 1.059932489779506 0  5 1.145116102681561 0  5 1.228596043237163 0  5 1.310406384819408 0  5 1.39058051967151 0  5 1.46915117219283 0  5 1.546150411689349 0  5 1.621609666350684 0  5 1.695559735780513 0  5 1.76803080351128 0  5 1.839052449831632 0  5 1.908653663284034 0  5 1.976862852540214 0  5 2.043707858250082 0  5 2.109215963970139 0  5 2.173413907547539 0  5 2.236327892447888 0  5 2.29798359737153 0  5 2.358406188061876 0  5 2.417620326899216 0  5 2.475650183036803 0  5 2.532519442044509 0  5 2.588251315695885 0  5 2.642868552136335 0  5 2.696393444001645 0  5 2.748847837883952 0  5 2.800253143882191 0  5 2.85063034388582 0  0.2631578947368421 0 0  0.5263157894736842 0 0  0.7894736842105263 0 0  1.052631578947368 0 0  1.31578947368421 0 0  1.578947368421053 0 0  1.842105263157895 0 0  2.105263157894737 0 0  2.368421052631579 0 0  2.631578947368421 0 0  2.894736842105263 0 0  3.157894736842105 0 0  3.421052631578947 0 0  3.684210526315789 0 0  3.947368421052632 0 0  4.210526315789473 0 0  4.473684210526315 0 0  4.736842105263158 0 0  0 2.850203682350569 0  0 2.799411438503675 0  0 2.747603349778291 0  0 2.694759099502208 0  0 2.640857964382145 0  0 2.58587880633613 0  0 2.52980006535898 0  0 2.472599749459174 0  0 2.414255427218689 0  0 2.35474421880616 0  0 2.294042786119219 0  0 2.232127324764723 0  0 2.1689735539481 0  0 2.104556707683346 0  0 2.038851524813415 0  0 1.971832238155654 0  0 1.903472565412125 0  0 1.83374569926617 0  0 1.762624296208474 0  0 1.690080464918761 0  0 1.616085756774205 0  0 1.540611154706337 0  0 1.463627060685571 0  0 1.385103284916206 0  0 1.305009033716617 0  0 1.223312897337225 0  0 1.139982838163732 0  0 1.054986177579937 0  0 0.9682895835804808 0  0 0.8798590579197967 0  0 0.789659921841535 0  0 0.6976568029903634 0  0 0.6038136217958807 0  0 0.508093576867624 0  0 0.4104591310957497 0  0 0.31087199635222 0  0 0.2092931188294389 0  0 0.1056826638508546 0  1.434832105734982 2.866945754976478 0  1.737156300412976 2.8700394402447 0  2.032203389830508 2.867707527316512 0  2.332911392405064 2.893422591869991 0  2.469810913221006 2.891944186617815 0  2.606221408801046 2.892519154968786 0  2.255455320556353 2.892068684938936 0  2.538247299178607 2.894964578175289 0  2.674683544303798 2.893422591869991 0  2.40126582278481 2.893422591869991 0  3.566125247274844 2.86502933617869 0  3.266101694915253 2.867707527316512 0  2.967796610169491 2.867707527316512 0  1.174288529771947 2.870795313883199 0  3.825423728813556 2.867707527316512 0  2.727766680241741 2.892655387639323 0  0.06601655192030442 1.502119107695954 0  4.933983535518289 1.50765079194109 0  0.9532124728076634 2.868722489784116 0  4.048935912505472 2.870640982963028 0  0.05930163367361851 1.866907161167415 0  4.943402512617702 1.871280731227115 0  4.271733869970415 2.865208656206698 0  0.724942092071192 2.863922936166216 0  0.05494499779911566 2.196469063120751 0  4.947228695435926 2.208030108416282 0  0.5406152149451962 2.866493807374646 0  4.459322033898304 2.868847558171501 0  2.18135593220339 2.875780645487384 0  2.81702715648046 2.876587550622478 0  4.928427208334964 1.186856072959362 0  0.07189226971603357 1.174626666111664 0  4.610299014391064 2.867003104061287 0  0.3897270066746503 2.869433095314649 0  1.5811324999839 2.868247328613121 0  1.887637879307645 2.869235851843492 0  3.413449426409203 2.867372048026557 0  3.116721298784139 2.865731235545648 0  2.644303797468355 2.893422591869991 0  2.370983221771223 2.892719513366117 0  2.302531645569621 2.89333678739629 0  2.758987341772152 2.894242393896969 0  0.04979653335696588 2.443411216910279 0  4.950470983481301 2.446866954190454 0  2.482937483056625 0.2513241088166693 0  1.70712950486069 0.1999998660928157 0  3.285846579639133 0.2292006256069719 0  4.907807122450741 0.8340823629079156 0  4.757627118644067 2.867707527316512 0  0.07734891246767406 0.8347594898806658 0  0.2390604736599493 2.861365431805748 0  0.8363213714273008 2.863896768913622 0  4.16086561018973 2.868916854014843 0  1.28254933196979 2.86761095296154 0  1.065094818264994 2.861284686078544 0  3.938181277358471 2.868651344087338 0  3.711492629398847 2.863574306894209 0  4.913693619806458 0.5579891341027028 0  0.08208328472281323 0.5559535993317524 0  2.696596932509445 2.892010483912606 0  0.04706410140274642 2.613055974506517 0  4.955577063959472 2.616518038416838 0  2.234177215189874 2.893422591869991 0  2.279795840517476 2.894038618939426 0  0.911735788765236 0.2117925286661764 0  4.055948041976698 0.2039101059740411 0  4.872119713756579 2.86763292637659 0  2.78011387899257 2.891535929611774 0  0.1327442468251299 2.85732490707
[...]
<PointData  Vectors="displacement"> 
<DataArray  type="Float64"  Name="displacement"  NumberOfComponents="3" format="ascii">5.5552215521128558e-05 -5.9523059874032314e-04 0.0000000000000000e+00  0.0000000000000000e+00 2.9990253022876876e-06 0.0000000000000000e+00  -6.1145897503837483e-05 -6.0317259760021412e-04 0.0000000000000000e+00  0.0000000000000000e+00 3.0344085063199521e-06 0.0000000000000000e+00  0.0000000000000000e+00 0.0000000000000000e+00 0.0000000000000000e+00  0.0000000000000000e+00 0.0000000000000000e+00 0.0000000000000000e+00  4.9299413558266303e-05 -5.1565086170454288e-04 0.0000000000000000e+00  4.5687353237869468e-05 -4.6739868473841554e-04 0.0000000000000000e+00  4.3472040883271635e-05 -4.2947594003456057e-04 0.0000000000000000e+00  4.1886793382643340e-05 -3.9748324905652363e-04 0.0000000000000000e+00  4.0670972828343573e-05 -3.6961727541856250e-04 0.0000000000000000e+00  3.9700793778076576e-05 -3.4485307984073716e-04 0.0000000000000000e+00  3.8897515442110283e-05 -3.2252779722942763e-04 0.0000000000000000e+00  3.8206589281718446e-05 -3.0218566817926724e-04 0.0000000000000000e+00  3.7588635451697338e-05 -2.8349385200845565e-04 0.0000000000000000e+00  3.7017136340639179e-05 -2.6620654621372915e-04 0.0000000000000000e+00  3.6471492230016584e-05 -2.5013727008709933e-04 0.0000000000000000e+00  3.5936574940468480e-05 -2.3513507461904836e-04 0.0000000000000000e+00  3.5401780472867082e-05 -2.2107819167295297e-04 0.0000000000000000e+00  3.4859934284758221e-05 -2.0786806944626793e-04 0.0000000000000000e+00  3.4305679893291688e-05 -1.9542377912493977e-04 0.0000000000000000e+00  3.3735512948816535e-05 -1.8367663909801528e-04 0.0000000000000000e+00  3.3147422405645705e-05 -1.7256836149259303e-04 0.0000000000000000e+00  3.2539644980622867e-05 -1.6204868372546958e-04 0.0000000000000000e+00  3.1912159663495196e-05 -1.5207410629111066e-04 0.0000000000000000e+00  3.1265201312498389e-05 -1.4260676429584407e-04 0.0000000000000000e+00  3.0599196963755055e-05 -1.3361352059111780e-04 0.0000000000000000e+00  2.9914844578455602e-05 -1.2506504259420637e-04 0.0000000000000000e+00  2.9213314943907386e-05 -1.1693462676226762e-04 0.0000000000000000e+00  2.8495452575546305e-05 -1.0919901235705946e-04 0.0000000000000000e+00  2.7762595296920102e-05 -1.0183726446860342e-04 0.0000000000000000e+00  2.7016039106800026e-05 -9.4830126723366730e-05 0.0000000000000000e+00  2.6257034553188327e-05 -8.8160015033592883e-05 0.0000000000000000e+00  2.5486521081194601e-05 -8.1811481761128976e-05 0.0000000000000000e+00  2.4706096500142370e-05 -7.5770075197784551e-05 0.0000000000000000e+00  2.3916432259345572e-05 -7.0022213328445053e-05 0.0000000000000000e+00  2.3119012211939545e-05 -6.4556017008209765e-05 0.0000000000000000e+00  2.2314783183635488e-05 -5.9360512093576115e-05 0.0000000000000000e+00  2.1504306012569220e-05 -5.4425493478778235e-05 0.0000000000000000e+00  2.0688923630108376e-05 -4.9741080397713671e-05 0.0000000000000000e+00  1.9869190153579788e-05 -4.5298800752852154e-05 0.0000000000000000e+00  1.9045971443155706e-05 -4.1090431773532565e-05 0.0000000000000000e+00  1.8219938301503921e-05 -3.7108420638312211e-05 0.0000000000000000e+00  1.7391618139995123e-05 -3.3345925172638810e-05 0.0000000000000000e+00  1.6561648834422652e-05 -2.9796423312328706e-05 0.0000000000000000e+00  1.5730476414471197e-05 -2.6453954077590419e-05 0.0000000000000000e+00  1.4898540993892303e-05 -2.3312990439795737e-05 0.0000000000000000e+00  1.4066186307563121e-05 -2.0368402657663247e-05 0.0000000000000000e+00  1.3233731267266820e-05 -1.7615430155225275e-05 0.0000000000000000e+00  1.2401469077464156e-05 -1.5049748319972456e-05 0.0000000000000000e+00  1.1569610754147237e-05 -1.2667288616623696e-05 0.0000000000000000e+00  1.0738322763449649e-05 -1.0464373017384494e-05 0.0000000000000000e+00  9.9077412480483323e-06 -8.4376000301976837e-06 0.0000000000000000e+00  9.0779472682954721e-06 -6.5838994092596110e-06 0.0000000000000000e+00  8.2490148034515860e-06 -4.9004538520867783e-06 0.0000000000000000e+00  7.4209620269932146e-06 -3.3847543188687363e-06 0.0000000000000000e+00  6.5937937784889053e-06 -2.0345451299729210e-06 0.0000000000000000e+00  5.7674489744332354e-06 -8.4777381107661776e-07 0.0000000000000000e+00  4.9419128550861532e-06 1.7727463356068019e-07 0.0000000000000000e+00  4.1170778416577121e-06 1.0420812296181354e-06 0.0000000000000000e+00  3.2928835620719814e-06 1.7479344509941736e-06 0.0000000000000000e+00  2.4691906184105176e-06 2.2958887125110879e-06 0.0000000000000000e+00  1.6459057056145415e-06 2.6867119787793242e-06 0.0000000000000000e+00  8.2288590711135964e-07 2.9209790138957759e-06 0.0000000000000000e+00  -9.3908917576682207e-05 -7.1281470158676382e-04 0.0000000000000000e+00  -8.8869628042210027e-05 -7.4229889468295453e-04 0.0000000000000000e+00  -8.5256382947368625e-05 -7.6123828182101977e-04 0.0000000000000000e+00  -8.2182569425568052e-05 -7.7612019022052405e-04 0.0000000000000000e+00  -7.9755263267748230e-05 -7.8916073270652351e-04 0.0000000000000000e+00  -7.7435614978661074e-05 -8.0109192119105874e-04 0.0000000000000000e+00  -7.5117335701787053e-05 -8.1208965717001979e-04 0.0000000000000000e+00  -7.2808506666553532e-05 -8.2227780402685633e-04 0.0000000000000000e+00  -7.0507963407710360e-05 -8.3176606737977608e-04 0.0000000000000000e+00  -6.8213382945164937e-05 -8.4063918741963148e-04 0.0000000000000000e+00  -6.5922190432269993e-05 -8.4896050443010105e-04 0.0000000000000000e+00  -6.3632103349141233e-05 -8.5678004750344803e-04 0.0000000000000000e+00  -6.1342558143684845e-05 -8.6413945673816540e-04 0.0000000000000000e+00  -5.9052960874934100e-05 -8.7107204908280138e-04 0.0000000000000000e+00  -5.6762167820740800e-05 -8.7760578557691108e-04 0.0000000000000000e+00  -5.4470387448733997e-05 -8.8376539404294260e-04 0.0000000000000000e+00  -5.2177120014787129e-05 -8.8957094081386454e-04 0.0000000000000000e+00  -4.9882271433558912e-05 -8.9503983250355658e-04 0.0000000000000000e+00  -4.7585787584022534e-05 -9.0018743330027825e-04 0.0000000000000000e+00  -4.5287693817763572e-05 -9.0502709287146180e-04 0.0000000000000000e+00  -4.2988045982182359e-05 -9.0957064784644723e-04 0.0000000000000000e+00  -4.0686953174625847e-05 -9.1382855490159743e-04 0.0000000000000000e+00  -3.8384462893480190e-05 -9.1781005408531936e-04 0.0000000000000000e+00  -3.6080664478606836e-05 -9.2152344934549857e-04 0.0000000000000000e+00  -3.3775621870580822e-05 -9.2497610562251354e-04 0.0000000000000000e+00  -3.1469403496372687e-05 -9.2817450022463258e-04 0.0000000000000000e+00  -2.9162159796386518e-05 -9.3112445067506397e-04 0.0000000000000000e+00  -2.6853789252680601e-05 -9.3383108621051484e-04 0.0000000000000000e+00  -2.4544483712493678e-05 -9.3629904763781516e-04 0.0000000000000000e+00  -2.2234340719595391e-05 -9.3853235927180746e-04 0.0000000000000000e+00  -1.9923445834395066e-05 -9.4053460248954928e-04 0.0000000000000000e+00  -1.7611857746919490e-05 -9.4230887457848471e-04 0.0000000000000000e+00  -1.5299694408264387e-05 -9.4385789135640772e-04 0.0000000000000000e+00  -1.2987116015955263e-05 -9.4518396676184782e-04 0.0000000000000000e+00  -1.0674153529111375e-05 -9.4628901402115783e-04 0.0000000000000000e+00  -8.3610704356853131e-06 -9.4717474270589468e-04 0.0000000000000000e+00  -6.0478389747103405e-06 -9.4784239565950262e-04 0.0000000000000000e+00  -3.7346437068658033e-06 -9.4829293590586810e-04 0.0000000000000000e+00  -1.4216459877720366e-06 -9.4852705495780329e-04 0.0000000000000000e+00  8.9107624029336121e-07 -9.4854510571358737e-04 0.0000000000000000e+00  3.2033943070164531e-06 -9.4834714526527278e-04 0.0000000000000000e+00  5.5151926929726305e-06 -9.4793293240958061e-04 0.0000000000000000e+00  7.8263532673531392e-06 -9.4730192573056436e-04 0.0000000000000000e+00  1.0136737724993448e-05 -9.4645324253908418e-04 0.0000000000000000e+00  1.2446272309268897e-05 -9.4538569263285328e-04 0.0000000000000000e+00  1.4754818758300158e-05 -9.4409779802208165e-04 0.0000000000000000e+00  1.7062252561290827e-05 -9.4258767343963852e-04 0.0000000000000000e+00  1.9368459413894271e-05 -9.4085308275336705e-04 0.0000000000000000e+00  2.1673327267464523e-05 -9.3889142559185805e-04 0.0000000000000000e+00  2.3976680675265158e-05 -9.3669967153265624e-04 0.0000000000000000e+00  2.6278420098205630e-05 -9.3427440815134499e-04 0.0000000000000000e+00  2.8578418711501306e-05 -9.3161165755835027e-04 0.0000000000000000e+00  3.0876398340132791e-05 -9.2870699320317081e-04 0.0000000000000000e+00  3.3172279435042901e-05 -9.2555549230666743e-04 0.0000000000000000e+00  3.5465841006973697e-05 -9.2215150549855086e-04 0.0000000000000000e+00  3.7756870676191107e-05 -9.1848878429449108e-04 0.0000000000000000e+00  4.0045138703062287e-05 -9.1456027247848154e-04 0.0000000000000000e+00  4.2330517152581429e-05 -9.1035810910227387e-04 0.0000000000000000e+00  4.4612649288756237e-05 -9.0587323774296374e-04 0.0000000000000000e+00  4.6891242143493166e-05 -9.0109592777207052e-04 0.0000000000000000e+00  4.9165930945005147e-05 -8.9601477797002899e-04 0.0000000000000000e+00  5.1436451523305432e-05 -8.9061699867950259e-04 0.0000000000000000e+00  5.3702358063414803e-05 -8.8488802621462229e-04 0.0000000000000000e+00  5.5963190513289897e-05 -8.7881115849395034e-04 0.0000000000000000e+00  5.8218362540866106e-05 -8.7236733074991593e-04 0.0000000000000000e+00  6.0467265216304575e-05 -8.6553410524526785e-04 0.0000000000000000e+00  6.2708709884226553e-05 -8.5828542831757918e-04 0.0000000000000000e+00  6.4941874538182242e-05 -8.5059044633134235e-04 0.0000000000000000e+00  6.7165852289349500e-05 -8.4241302940979770e-04 0.0000000000000000e+00  6.9376869949828613e-05 -8.3370727770304604e-04 0.0000000000000000e+00  7.1572438347372830e-05 -8.2441862076425342e-04 0.0000000000000000e+00  7.3750771683586948e-05 -8.1448046607550135e-04 0.0000000000000000e+00  7.5909121017756710e-05 -8.0380711085449997e-04 0.0000000000000000e+00  7.8051181883524601e-05 -7.9227298142354075e-04 0.0000000000000000e+00  8.0186909370894620e-05 -7.7967657883210170e-04 0.0000000000000000e+00  8.2230918882055708e-05 -7.6568396961838913e-04 0.0000000000000000e+00  8.3908244658275705e-05 -7.5049389710289270e-04 0.0000000000000000e+00  9.0959741832473184e-05 -7.2221422665640718e-04 0.0000000000000000e+00  -8.2710556317738961e-07 2.9563267928778960e-06 0.0000000000000000e+00  -1.6543554161646639e-06 2.7219684044852132e-06 0.0000000000000000e+00  -2.4818936957975772e-06 2.3309929499435578e-06 0.0000000000000000e+00  -3.3098531047464762e-06 1.7828333614350902e-06 0.0000000000000000e+00  -4.1383721313877377e-06 1.0766898463305366e-06 0.0000000000000000e+00  -4.9675435198098773e-06 2.1151452029544851e-07 0.0000000000000000e+00  -5.7974940230184272e-06 -8.1391930315953885e-07 0.0000000000000000e+00  -6.6283024373790760e-06 -2.0011515836224606e-06 0.0000000000000000e+00  -7.4600301062490678e-06 -3.3519263640610571e-06 0.0000000000000000e+00  -8.2927144811574631e-06 -4.8682565656262042e-06 0.0000000000000000e+00  -9.1263756989995261e-06 -6.5524015130559000e-06 0.0000000000000000e+00  -9.9609980616190935e-06 -8.4068836352771458e-06 0.0000000000000000e+00  -1.0796543641968122e-05 -1.0434510947227682e-05 0.0000000000000000e+00  -1.1632924949625419e-05 -1.2638371423933968e-05 0.0000000000000000e+00  -1.2470028849449643e-05 -1.5021857131808671e-05 0.0000000000000000e+00  -1.3307694783092317e-05 -1.7588674505600087e-05 0.0000000000000000e+00  -1.4145732339070867e-05 -2.0342845549231160e-05 0.0000000000000000e+00  -1.4983866968181026e-05 -2.3288791172526122e-05 0.0000000000000000e+00  -1.5821818195377535e-05 -2.6431226966225028e-05 0.0000000000000000e+00  -1.6659236221527183e-05 -2.9775293170150529e-05 0.0000000000000000e+00  -1.7495759277239939e-05 -3.3326549490751355e-05 0.0000000000000000e+00  -1.8330827888690415e-05 -3.7090838824183120e-05 0.0000000000000000e+00  -1.9163997106117487e-05 -4.1074804473324633e-05 0.0000000000000000e+00  -1.9994663568155758e-05 -4.5285369960843337e-05 0.0000000000000000e+00  -2.0822201926100723e-05 -4.9730048555125510e-05 0.0000000000000000e+00  -2.1645893560750044e-05 -5.4416966866223222e-05 0.0000000000000000e+00  -2.2464954099200772e-05 -5.9354920955289922e-05 0.0000000000000000e+00  -2.3278533434579630e-05 -6.4553423657805523e-05 0.0000000000000000e+00  -2.4085785315963010e-05 -7.0022787588043802e-05 0.0000000000000000e+00  -2.4885738232272408e-05 -7.5774150911948326e-05 0.0000000000000000e+00  -2.5677334738457982e-05 -8.1819682361437167e-05 0.0000000000000000e+00  -2.6459491057052865e-05 -8.8172561742133531e-05 0.0000000000000000e+00  -2.7231531676873993e-05 -9.4847390325022488e-05 0.0000000000000000e+00  -2.7991432147256534e-05 -1.0185992267861666e-04 0.0000000000000000e+00  -2.8738784738015941e-05 -1.0922760162799295e-04 0.0000000000000000e+00  -2.9472412810731608e-05 -1.1696949359311191e-04 0.0000000000000000e+00  -3.0191142411223811e-05 -1.2510686753974771e-04 0.0000000000000000e+00  -3.0893825992111796e-05 -1.3366337574604364e-04 0.0000000000000000e+00  -3.1579837839381312e-05 -1.4266546047582337e-04 0.0000000000000000e+00  -3.2248694340388198e-05 -1.5214272029280874e-04 0.0000000000000000e+00  -3.2900010281426982e-05 -1.6212859309624143e-04 0.0000000000000000e+00  -3.3533873181291275e-05 -1.7266123017510546e-04 0.0000000000000000e+00  -3.4151440139043022e-05 -1.8378418719031600e-04 0.0000000000000000e+00  -3.4753641668168324e-05 -1.9554785719110552e-04 0.0000000000000000e+00  -3.5343088964492671e-05 -2.0801073660679009e-04 0.0000000000000000e+00  -3.5924251121292079e-05 -2.2124256397826412e-04 0.0000000000000000e+00  -3.6503219154682933e-05 -2.3532521874035307e-04 0.0000000000000000e+00  -3.7088118445293763e-05 -2.5035845614504996e-04 0.0000000000000000e+00  -3.7691486338966992e-05 -2.6646322708792728e-04 0.0000000000000000e+00  -3.8327491391286677e-05 -2.8379049978896376e-04 0.0000000000000000e+00  -3.9021036170677217e-05 -3.0253460972784680e-04 0.0000000000000000e+00  -3.9799733767403042e-05 -3.2293726941127104e-04 0.0000000000000000e+00  -4.0705771203781632e-05 -3.4534287033939837e-04 0.0000000000000000e+00  -4.1801141969576694e-05 -3.7020705371729364e-04 0.0000000000000000e+00  -4.3174255609339539e-05 -3.9820129486622203e-04 0.0000000000000000e+00  -4.4975687334711820e-05 -4.3037397411194584e-04 0.0000000000000000e+00  -4.7420283109903051e-05 -4.6858209665035140e-04 0.0000000000000000e+00  -5.1629779360809263e-05 -5.1732114858109139e-04 0.0000000000000000e+00  0.0000000000000000e+00 -4.6287402511062449e-06 0.0000000000000000e+00  0.0000000000000000e+00 -8.4916520791304421e-06 0.0000000000000000e+00  0.0000000000000000e+00 -1.1692918370015732e-05 0.0000000000000000e+00  0.0000000000000000e+00 -1.4320774784455075e-05 0.0000000000000000e+00  0.0000000000000000e+00 -1.6440054031754780e-05 0.0000000000000000e+00  0.0000000000000000e+00 -1.8104650983941782e-05 0.0000000000000000e+00  0.0000000000000000e+00 -1.9358769127468335e-05 0.0000000000000000e+00  0.0000000000000000e+00 -2.0239641265633707e-05 0.0000000000000000e+00  0.0000000000000000e+00 -2.0775677790643957e-05 0.0000000000000000e+00  0.0000000000000000e+00 -2.0997828857515408e-05 0.0000000000000000e+00  0.0000000000000000e+00 -2.0930166008562343e-05 0.0000000000000000e+00  0.0000000000000000e+00 -2.0597039230447805e-05 0.0000000000000000e+00  0.0000000000000000e+00 -2.0023292087402101e-05 0.0000000000000000e+00  0.0000000000000000e+00 -1.9232927335957147e-05 0.0000000000000000e+00  0.0000000000000000e+00 -1.8250460600384954e-05 0.0000000000000000e+00  0.0000000000000000e+00 -1.7101167410560076e-05 0.0000000000000000e+00  0.0000000000000000e+00 -1.5811372828987133e-05 0.0000000000000000e+00  0.0000000000000000e+00 -1.4407336923840315e-05 0.0000000000000000e+00  0.0000000000000000e+00 -1.2915831170271106e-05 0.0000000000000000e+00  0.0000000000000000e+00 -1.1363760401534351e-05 0.0000000000000000e+00  0.0000000000000000e+00 -9.7778959602879046e-06 0.0000000000000000e+00  0.0000000000000000e+00 -8.1842546294524259e-06 0.0000000000000000e+00  0.0000000000000000e+00 -6.6083087293031257e-06 0.0000000000000000e+00  0.0000000000000000e+00 -5.0734559372406661e-06 0.0000000000000000e+00  0.0000000000000000e+00 -3.6024265065714739e-06 0.0000000000000000e+00  0.0000000000000000e+00 -2.2160970805973614e-06 0.0000000000000000e+00  0.0000000000000000e+00 -9.3225212759019619e-07 0.0000000000000000e+00  0.0000000000000000e+00 2.3249797531735027e-07 0.0000000000000000e+00  0.0000000000000000e+00 1.2645690930811281e-06 0.0000000000000000e+00  0.0000000000000000e+00 2.1528184986322020e-06 0.0000000000000000e+00  0.0000000000000000e+00 2.8885617028611999e-06 0.0000000000000000e+00  0.0000000000000000e+00 3.4657903331591265e-06 0.0000000000000000e+00  0.0000000000000000e+00 3.8808907008390938e-06 0.0000000000000000e+00  0.0000000000000000e+00 4.1324900551478334e-06 0.0000000000000000e+00  0.0000000000000000e+00 4.2214681927106877e-06 0.0000000000000000e+00  0.0000000000000000e+00 4.1506941968450632e-06 0.0000000000000000e+00  0.0000000000000000e+00 3.9249368251427221e-06 0.0000000000000000e+00  0.0000000000000000e+00 3.5503012882945152e-06 0.0000000000000000e+00  0.0000000000000000e+00 0.0000000000000000e+00 0.0000000000000000e+00  0.0000000000000000e+00 0.0000000000000000e+00 0.0000000000000000e+00  0.0000000000000000e+00 0.0000000000000000e+00 0.0000000000000000e+00  0.0000000000000000e+00 0.0000000000000000e+00 0.0000000000000000e+00  0.0000000000000000e+00 0.0000000000000000e+00 0.0000000000000000e+00  0.0000000000000000e+00 0.0000000000000000e+00 0.0000000000000000e+00  0.0000000000000000e+00 0.0000000000000000e+00 0.0000000000000000e+00  0.0000000000000000e+00 0.0000000000000000e+00 0.0000000000000000e+00  0.0000000000000000e+00 0.0000000000000000e+00 0.0000000000000000e+00  0.0000000000000000e+00 0.0000000000000000e+00 0.0000000000000000e+00  0.0000000000000000e+00 0.0000000000000000e+00 0.0000000000000000e+00  0.0000000000000000e+00 0.0000000000000000e+00 0.0000000000000000e+00  0.0000000000000000e+00 0.0000000000000000e+00 0.0000000000000000e+00  0.0000000000000000e+00 0.0000000000000000e+00 0.0000000000000000e+00  0.0000000000000000e+00 0.0000000000000000e+00 0.0000000000000000e+00  0.0000000000000000e+00 0.0000000000000000e+00 0.0000000000000000e+00  0.0000000000000000e+00 0.0000000000000000e+00 0.0000000000000000e+00  0.0000000000000000e+00 0.0000000000000000e+00 0.0000000000000000e+00  0.0000000000000000e+00 3.5157288510282560e-06 0.0000000000000000e+00  0.0000000000000000e+00 3.8885968537458623e-06 0.0000000000000000e+00  0.0000000000000000e+00 4.1100259474839767e-06 0.0000000000000000e+00  0.0000000000000000e+00 4.1742406510498572e-06 0.0000000000000000e+00  0.0000000000000000e+00 4.0766269089573809e-06 0.0000000000000000e+00  0.0000000000000000e+00 3.8147010094714245e-06 0.0000000000000000e+00  0.0000000000000000e+00 3.3879760917140320e-06 0.0000000000000000e+00  0.0000000000000000e+00 2.7981596589411308e-06 0.0000000000000000e+00  0.0000000000000000e+00 2.0492991524821548e-06 0.0000000000000000e+00  0.0000000000000000e+00 1.1480399209613953e-06 0.0000000000000000e+00  0.0000000000000000e+00 1.0324885770786428e-07 0.0000000000000000e+00  0.0000000000000000e+00 -1.0728680362598471e-06 0.0000000000000000e+00  0.0000000000000000e+00 -2.3668692081996747e-06 0.0000000000000000e+00  0.0000000000000000e+00 -3.7617814028119745e-06 0.0000000000000000e+00  0.0000000000000000e+00 -5.2390086115791606e-06 0.0000000000000000e+00  0.0000000000000000e+00 -6.7773378569735784e-06 0.0000000000000000e+00  0.0000000000000000e+00 -8.3542944819252577e-06 0.0000000000000000e+00  0.0000000000000000e+00 -9.9461566920498392e-06 0.0000000000000000e+00  0.0000000000000000e+00 -1.1527272382914345e-05 0.0000000000000000e+00  0.0000000000000000e+00 -1.3071658461377294e-05 0.0000000000000000e+00  0.0000000000000000e+00 -1.4552801212363984e-05 0.0000000000000000e+00  0.0000000000000000e+00 -1.5944095710606126e-05 0.0000000000000000e+00  0.0000000000000000e+00 -1.7218980389589698e-05 0.0000000000000000e+00  0.0000000000000000e+00 -1