<?xml version="1.0"?>
<VTKFile type="UnstructuredGrid"  version="0.1"  >
<UnstructuredGrid>
<Piece  NumberOfPoints="3167" NumberOfCells="6038">
<Points>
<DataArray  type="Float64"  NumberOfComponents="3"  format="ascii">2.2 2.9 0  0 2.9 0  2.8 2.9 0  5 2.9 0  5 0 0  0 0 0  2.16271186440678 2.9 0  2.125423728813559 2.9 0  2.088135593220339 2.9 0  2.050847457627119 2.9 0  2.013559322033898 2.9 0  1.976271186440678 2.9 0  1.938983050847457 2.9 0  1.901694915254237 2.9 0  1.864406779661016 2.9 0  1.827118644067796 2.9 0  1.789830508474575 2.9 0  1.752542372881355 2.9 0  1.715254237288134 2.9 0  1.677966101694914 2.9 0  1.640677966101693 2.9 0  1.603389830508473 2.9 0  1.566101694915253 2.9 0  1.528813559322032 2.9 0  1.491525423728812 2.9 0  1.454237288135591 2.9 0  1.416949152542371 2.9 0  1.37966101694915 2.9 0  1.34237288135593 2.9 0  1.305084745762709 2.9 0  1.267796610169489 2.9 0  1.230508474576268 2.9 0  1.193220338983048 2.9 0  1.155932203389827 2.9 0  1.118644067796607 2.9 0  1.081355932203387 2.9 0  1.044067796610166 2.9 0  1.006779661016946 2.9 0  0.9694915254237257 2.9 0  0.9322033898305055 2.9 0  0.8949152542372856 2.9 0  0.8576271186440652 2.9 0  0.820338983050845 2.9 0  0.783050847457625 2.9 0  0.7457627118644048 2.9 0  0.7084745762711844 2.9 0  0.6711864406779642 2.9 0  0.633898305084744 2.9 0  0.5966101694915238 2.9 0  0.5593220338983036 2.9 0  0.5220338983050834 2.9 0  0.4847457627118632 2.9 0  0.447457627118643 2.9 0  0.4101694915254228 2.9 0  0.3728813559322024 2.9 0  0.3355932203389822 2.9 0  0.2983050847457622 2.9 0  0.2610169491525418 2.9 0  0.2237288135593216 2.9 0  0.1864406779661016 2.9 0  0.1491525423728812 2.9 0  0.1118644067796613 2.9 0  0.07457627118644039 2.9 0  0.03728813559321997 2.9 0  2.792405063291139 2.9 0  2.784810126582279 2.9 0  2.777215189873418 2.9 0  2.769620253164557 2.9 0  2.762025316455697 2.9 0  2.754430379746836 2.9 0  2.746835443037975 2.9 0  2.739240506329114 2.9 0  2.731645569620254 2.9 0  2.724050632911393 2.9 0  2.716455696202532 2.9 0  2.708860759493671 2.9 0  2.701265822784811 2.9 0  2.69367088607595 2.9 0  2.686075949367089 2.9 0  2.678481012658228 2.9 0  2.670886075949368 2.9 0  2.663291139240507 2.9 0  2.655696202531646 2.9 0  2.648101265822786 2.9 0  2.640506329113925 2.9 0  2.632911392405064 2.9 0  2.625316455696203 2.9 0  2.617721518987342 2.9 0  2.610126582278482 2.9 0  2.602531645569621 2.9 0  2.59493670886076 2.9 0  2.587341772151899 2.9 0  2.579746835443038 2.9 0  2.572151898734178 2.9 0  2.564556962025317 2.9 0  2.556962025316456 2.9 0  2.549367088607595 2.9 0  2.541772151898734 2.9 0  2.534177215189874 2.9 0  2.526582278481013 2.9 0  2.518987341772152 2.9 0  2.511392405063292 2.9 0  2.503797468354431 2.9 0  2.49620253164557 2.9 0  2.488607594936709 2.9 0  2.481012658227848 2.9 0  2.473417721518988 2.9 0  2.465822784810127 2.9 0  2.458227848101266 2.9 0  2.450632911392406 2.9 0  2.443037974683545 2.9 0  2.435443037974684 2.9 0  2.427848101265823 2.9 0  2.420253164556962 2.9 0  2.412658227848102 2.9 0  2.405063291139241 2.9 0  2.39746835443038 2.9 0  2.389873417721519 2.9 0  2.382278481012658 2.9 0  2.374683544303798 2.9 0  2.367088607594937 2.9 0  2.359493670886076 2.9 0  2.351898734177215 2.9 0  2.344303797468355 2.9 0  2.336708860759494 2.9 0  2.329113924050633 2.9 0  2.321518987341773 2.9 0  2.313924050632912 2.9 0  2.306329113924051 2.9 0  2.29873417721519 2.9 0  2.291139240506329 2.9 0  2.283544303797469 2.9 0  2.275949367088608 2.9 0  2.268354430379747 2.9 0  2.260759493670887 2.9 0  2.253164556962026 2.9 0  2.245569620253165 2.9 0  2.237974683544304 2.9 0  2.230379746835443 2.9 0  2.222784810126583 2.9 0  2.215189873417722 2.9 0  2.207594936708861 2.9 0  4.96271186440678 2.9 0  4.925423728813559 2.9 0  4.888135593220339 2.9 0  4.850847457627118 2.9 0  4.813559322033898 2.9 0  4.776271186440677 2.9 0  4.738983050847457 2.9 0  4.701694915254237 2.9 0  4.664406779661016 2.9 0  4.627118644067796 2.9 0  4.589830508474575 2.9 0  4.552542372881355 2.9 0  4.515254237288135 2.9 0  4.477966101694914 2.9 0  4.440677966101694 2.9 0  4.403389830508473 2.9 0  4.366101694915252 2.9 0  4.328813559322032 2.9 0  4.291525423728811 2.9 0  4.254237288135591 2.9 0  4.21694915254237 2.9 0  4.17966101694915 2.9 0  4.14237288135593 2.9 0  4.105084745762709 2.9 0  4.067796610169489 2.9 0  4.030508474576268 2.9 0  3.993220338983048 2.9 0  3.955932203389827 2.9 0  3.918644067796607 2.9 0  3.881355932203387 2.9 0  3.844067796610166 2.9 0  3.806779661016946 2.9 0  3.769491525423725 2.9 0  3.732203389830505 2.9 0  3.694915254237285 2.9 0  3.657627118644065 2.9 0  3.620338983050845 2.9 0  3.583050847457625 2.9 0  3.545762711864405 2.9 0  3.508474576271184 2.9 0  3.471186440677964 2.9 0  3.433898305084744 2.9 0  3.396610169491524 2.9 0  3.359322033898303 2.9 0  3.322033898305083 2.9 0  3.284745762711863 2.9 0  3.247457627118643 2.9 0  3.210169491525423 2.9 0  3.172881355932202 2.9 0  3.135593220338982 2.9 0  3.098305084745762 2.9 0  3.061016949152542 2.9 0  3.023728813559321 2.9 0  2.986440677966101 2.9 0  2.949152542372881 2.9 0  2.911864406779661 2.9 0  2.87457627118644 2.9 0  2.83728813559322 2.9 0  5 0.1063822624840908 0  5 0.210636879963479 0  5 0.3128064053000104 0  5 0.4129325399736057 0  5 0.5110561519920087 0  5 0.6072172917522097 0  5 0.7014552086337308 0  5 0.7938083672768746 0  5 0.8843144624325437 0  5 0.9730104357533907 0  5 1.059932489779506 0  5 1.145116102681561 0  5 1.228596043237163 0  5 1.310406384819408 0  5 1.39058051967151 0  5 1.46915117219283 0  5 1.546150411689349 0  5 1.621609666350684 0  5 1.695559735780513 0  5 1.76803080351128 0  5 1.839052449831632 0  5 1.908653663284034 0  5 1.976862852540214 0  5 2.043707858250082 0  5 2.109215963970139 0  5 2.173413907547539 0  5 2.236327892447888 0  5 2.29798359737153 0  5 2.358406188061876 0  5 2.417620326899216 0  5 2.475650183036803 0  5 2.532519442044509 0  5 2.588251315695885 0  5 2.642868552136335 0  5 2.696393444001645 0  5 2.748847837883952 0  5 2.800253143882191 0  5 2.85063034388582 0  0.2631578947368421 0 0  0.5263157894736842 0 0  0.7894736842105263 0 0  1.052631578947368 0 0  1.31578947368421 0 0  1.578947368421053 0 0  1.842105263157895 0 0  2.105263157894737 0 0  2.368421052631579 0 0  2.631578947368421 0 0  2.894736842105263 0 0  3.157894736842105 0 0  3.421052631578947 0 0  3.684210526315789 0 0  3.947368421052632 0 0  4.210526315789473 0 0  4.473684210526315 0 0  4.736842105263158 0 0  0 2.850203682350569 0  0 2.799411438503675 0  0 2.747603349778291 0  0 2.694759099502208 0  0 2.640857964382145 0  0 2.58587880633613 0  0 2.52980006535898 0  0 2.472599749459174 0  0 2.414255427218689 0  0 2.35474421880616 0  0 2.294042786119219 0  0 2.232127324764723 0  0 2.1689735539481 0  0 2.104556707683346 0  0 2.038851524813415 0  0 1.971832238155654 0  0 1.903472565412125 0  0 1.83374569926617 0  0 1.762624296208474 0  0 1.690080464918761 0  0 1.616085756774205 0  0 1.540611154706337 0  0 1.463627060685571 0  0 1.385103284916206 0  0 1.305009033716617 0  0 1.223312897337225 0  0 1.139982838163732 0  0 1.054986177579937 0  0 0.9682895835804808 0  0 0.8798590579197967 0  0 0.789659921841535 0  0 0.6976568029903634 0  0 0.6038136217958807 0  0 0.508093576867624 0  0 0.4104591310957497 0  0 0.31087199635222 0  0 0.2092931188294389 0  0 0.1056826638508546 0  1.434832105734982 2.866945754976478 0  1.737156300412976 2.8700394402447 0  2.032203389830508 2.867707527316512 0  2.332911392405064 2.893422591869991 0  2.469810913221006 2.891944186617815 0  2.606221408801046 2.892519154968786 0  2.255455320556353 2.892068684938936 0  2.538247299178607 2.894964578175289 0  2.674683544303798 2.893422591869991 0  2.40126582278481 2.893422591869991 0  3.566125247274844 2.86502933617869 0  3.266101694915253 2.867707527316512 0  2.967796610169491 2.867707527316512 0  1.174288529771947 2.870795313883199 0  3.825423728813556 2.867707527316512 0  2.727766680241741 2.892655387639323 0  0.06601655192030442 1.502119107695954 0  4.933983535518289 1.50765079194109 0  0.9532124728076634 2.868722489784116 0  4.048935912505472 2.870640982963028 0  0.05930163367361851 1.866907161167415 0  4.943402512617702 1.871280731227115 0  4.271733869970415 2.865208656206698 0  0.724942092071192 2.863922936166216 0  0.05494499779911566 2.196469063120751 0  4.947228695435926 2.208030108416282 0  0.5406152149451962 2.866493807374646 0  4.459322033898304 2.868847558171501 0  2.18135593220339 2.875780645487384 0  2.81702715648046 2.876587550622478 0  4.928427208334964 1.186856072959362 0  0.07189226971603357 1.174626666111664 0  4.610299014391064 2.867003104061287 0  0.3897270066746503 2.869433095314649 0  1.5811324999839 2.868247328613121 0  1.887637879307645 2.869235851843492 0  3.413449426409203 2.867372048026557 0  3.116721298784139 2.865731235545648 0  2.644303797468355 2.893422591869991 0  2.370983221771223 2.892719513366117 0  2.302531645569621 2.89333678739629 0  2.758987341772152 2.894242393896969 0  0.04979653335696588 2.443411216910279 0  4.950470983481301 2.446866954190454 0  2.482937483056625 0.2513241088166693 0  1.70712950486069 0.1999998660928157 0  3.285846579639133 0.2292006256069719 0  4.907807122450741 0.8340823629079156 0  4.757627118644067 2.867707527316512 0  0.07734891246767406 0.8347594898806658 0  0.2390604736599493 2.861365431805748 0  0.8363213714273008 2.863896768913622 0  4.16086561018973 2.868916854014843 0  1.28254933196979 2.86761095296154 0  1.065094818264994 2.861284686078544 0  3.938181277358471 2.868651344087338 0  3.711492629398847 2.863574306894209 0  4.913693619806458 0.5579891341027028 0  0.08208328472281323 0.5559535993317524 0  2.696596932509445 2.892010483912606 0  0.04706410140274642 2.613055974506517 0  4.955577063959472 2.616518038416838 0  2.234177215189874 2.893422591869991 0  2.279795840517476 2.894038618939426 0  0.911735788765236 0.2117925286661764 0  4.055948041976698 0.2039101059740411 0  4.872119713756579 2.86763292637659 0  2.78011387899257 2.891535929611774 0  0.1327442468251299 2.85732490707
[...]
<PointData  Vectors="displacement"> 
<DataArray  type="Float64"  Name="displacement"  NumberOfComponents="3" format="ascii">2.8902658178755992e-06 -2.6812575321787341e-04 0.0000000000000000e+00  0.0000000000000000e+00 1.0583574958725439e-06 0.0000000000000000e+00  -8.3900555835279496e-06 -2.7605635979864964e-04 0.0000000000000000e+00  0.0000000000000000e+00 1.0937670945447844e-06 0.0000000000000000e+00  0.0000000000000000e+00 0.0000000000000000e+00 0.0000000000000000e+00  0.0000000000000000e+00 0.0000000000000000e+00 0.0000000000000000e+00  -2.9494182829199567e-06 -2.2809198252517137e-04 0.0000000000000000e+00  -5.4453003651064032e-06 -2.0596637083646573e-04 0.0000000000000000e+00  -6.5723892280544027e-06 -1.8904537522706959e-04 0.0000000000000000e+00  -7.0819222602948053e-06 -1.7495988243184621e-04 0.0000000000000000e+00  -7.2244025098181444e-06 -1.6280373397540435e-04 0.0000000000000000e+00  -7.1240815612096038e-06 -1.5206759295284224e-04 0.0000000000000000e+00  -6.8616160836217591e-06 -1.4242645779238725e-04 0.0000000000000000e+00  -6.4912533016569299e-06 -1.3366070896086331e-04 0.0000000000000000e+00  -6.0540765153541129e-06 -1.2561283466580293e-04 0.0000000000000000e+00  -5.5765116166376723e-06 -1.1816789249678031e-04 0.0000000000000000e+00  -5.0791997524883843e-06 -1.1124073068803047e-04 0.0000000000000000e+00  -4.5773770400933762e-06 -1.0476364511565356e-04 0.0000000000000000e+00  -4.0823840922639943e-06 -9.8682914139886429e-05 0.0000000000000000e+00  -3.6015166805684075e-06 -9.2955684325228977e-05 0.0000000000000000e+00  -3.1402829522780684e-06 -8.7547481835373718e-05 0.0000000000000000e+00  -2.7024172378851938e-06 -8.2429400110103015e-05 0.0000000000000000e+00  -2.2901744675117065e-06 -7.7577252915677353e-05 0.0000000000000000e+00  -1.9051376960166206e-06 -7.2970370308047492e-05 0.0000000000000000e+00  -1.5477382121385273e-06 -6.8591082985535227e-05 0.0000000000000000e+00  -1.2179013490824120e-06 -6.4424100536994045e-05 0.0000000000000000e+00  -9.1526093044087545e-07 -6.0456143098413895e-05 0.0000000000000000e+00  -6.3915814705545108e-07 -5.6675512922067160e-05 0.0000000000000000e+00  -3.8859255737852290e-07 -5.3071583747788206e-05 0.0000000000000000e+00  -1.6258938700527837e-07 -4.9635145247873423e-05 0.0000000000000000e+00  4.0026456257450877e-08 -4.6357906820638522e-05 0.0000000000000000e+00  2.2053030804373113e-07 -4.3232245192948243e-05 0.0000000000000000e+00  3.8017283453590473e-07 -4.0251204506121264e-05 0.0000000000000000e+00  5.2004796506807893e-07 -3.7408667802450340e-05 0.0000000000000000e+00  6.4150995921303465e-07 -3.4698914018369799e-05 0.0000000000000000e+00  7.4571332986694233e-07 -3.2116505631640916e-05 0.0000000000000000e+00  8.3384838324719029e-07 -2.9656768973240331e-05 0.0000000000000000e+00  9.0703318276512385e-07 -2.7315322679490389e-05 0.0000000000000000e+00  9.6610135689759933e-07 -2.5088054457386606e-05 0.0000000000000000e+00  1.0123907019707574e-06 -2.2971021003008839e-05 0.0000000000000000e+00  1.0466407175569886e-06 -2.0960823651098828e-05 0.0000000000000000e+00  1.0698512242712638e-06 -1.9054142422637134e-05 0.0000000000000000e+00  1.0829145360541089e-06 -1.7247938420012792e-05 0.0000000000000000e+00  1.0865271603243818e-06 -1.5539426481133359e-05 0.0000000000000000e+00  1.0815435307649070e-06 -1.3925971513102428e-05 0.0000000000000000e+00  1.0686390444669451e-06 -1.2405146818738000e-05 0.0000000000000000e+00  1.0484912039098135e-06 -1.0974695753601850e-05 0.0000000000000000e+00  1.0216925514862637e-06 -9.6325253202425268e-06 0.0000000000000000e+00  9.8886277342727023e-07 -8.3766833241527165e-06 0.0000000000000000e+00  9.5053995617106120e-07 -7.2053954680751070e-06 0.0000000000000000e+00  9.0724511740999322e-07 -6.1169937026414448e-06 0.0000000000000000e+00  8.5944209280498876e-07 -5.1099615527745977e-06 0.0000000000000000e+00  8.0758801684841472e-07 -4.1828930883895358e-06 0.0000000000000000e+00  7.5208638330688990e-07 -3.3345219669446356e-06 0.0000000000000000e+00  6.9335232097083597e-07 -2.5636854832809956e-06 0.0000000000000000e+00  6.3174751959120234e-07 -1.8693445362357204e-06 0.0000000000000000e+00  5.6759301833483673e-07 -1.2505589746547963e-06 0.0000000000000000e+00  5.0126987950712410e-07 -7.0647440055073915e-07 0.0000000000000000e+00  4.3306655475456849e-07 -2.3639371167502589e-07 0.0000000000000000e+00  3.6324972211719471e-07 1.6031088991025494e-07 0.0000000000000000e+00  2.9211635887556771e-07 4.8417258411820432e-07 0.0000000000000000e+00  2.1999419380506497e-07 7.3563518474255073e-07 0.0000000000000000e+00  1.4709649579364894e-07 9.1500609866208840e-07 0.0000000000000000e+00  7.3680070359979868e-08 1.0225348801330994e-06 0.0000000000000000e+00  -4.1817397952448389e-05 -3.7365428333238496e-04 0.0000000000000000e+00  -3.8187127552790018e-05 -3.9445893868796209e-04 0.0000000000000000e+00  -3.5950627590162252e-05 -4.0598400840218381e-04 0.0000000000000000e+00  -3.4246270326914523e-05 -4.1424234321726548e-04 0.0000000000000000e+00  -3.3174594351380318e-05 -4.2123910265560256e-04 0.0000000000000000e+00  -3.2209136967921999e-05 -4.2759380970350198e-04 0.0000000000000000e+00  -3.1243946519108994e-05 -4.3340629873778159e-04 0.0000000000000000e+00  -3.0287152016055099e-05 -4.3874983667122438e-04 0.0000000000000000e+00  -2.9338789687903474e-05 -4.4369542889382830e-04 0.0000000000000000e+00  -2.8395798257118801e-05 -4.4829729695501213e-04 0.0000000000000000e+00  -2.7455635585283921e-05 -4.5259480974948785e-04 0.0000000000000000e+00  -2.6516465637904226e-05 -4.5661863139290676e-04 0.0000000000000000e+00  -2.5577667755755546e-05 -4.6039409956246373e-04 0.0000000000000000e+00  -2.4638585120552403e-05 -4.6394128193224821e-04 0.0000000000000000e+00  -2.3698347532244308e-05 -4.6727679735434832e-04 0.0000000000000000e+00  -2.2756880894231084e-05 -4.7041516423200702e-04 0.0000000000000000e+00  -2.1813811197946969e-05 -4.7336801728400870e-04 0.0000000000000000e+00  -2.0869047593458505e-05 -4.7614537459844989e-04 0.0000000000000000e+00  -1.9922558795720436e-05 -4.7875602649161028e-04 0.0000000000000000e+00  -1.8974380937779508e-05 -4.8120757280623104e-04 0.0000000000000000e+00  -1.8024579764706359e-05 -4.8350672839738156e-04 0.0000000000000000e+00  -1.7073256049333040e-05 -4.8565940420768836e-04 0.0000000000000000e+00  -1.6120471439524109e-05 -4.8767080579842939e-04 0.0000000000000000e+00  -1.5166314354012080e-05 -4.8954559657346519e-04 0.0000000000000000e+00  -1.4210857673520937e-05 -4.9128789635023435e-04 0.0000000000000000e+00  -1.3254171593669656e-05 -4.9290131367578133e-04 0.0000000000000000e+00  -1.2296380259804255e-05 -4.9438907828555623e-04 0.0000000000000000e+00  -1.1337456502665447e-05 -4.9575402842006811e-04 0.0000000000000000e+00  -1.0377551680341926e-05 -4.9699871990319707e-04 0.0000000000000000e+00  -9.4167619799934007e-06 -4.9812536278488685e-04 0.0000000000000000e+00  -8.4551783713996864e-06 -4.9913591764678533e-04 0.0000000000000000e+00  -7.4928792158005914e-06 -5.0003207753931674e-04 0.0000000000000000e+00  -6.5299822974297182e-06 -5.0081532377055751e-04 0.0000000000000000e+00  -5.5666369958889287e-06 -5.0148691789211452e-04 0.0000000000000000e+00  -4.6029061036173043e-06 -5.0204790806594453e-04 0.0000000000000000e+00  -3.6390053086917409e-06 -5.0249923570290262e-04 0.0000000000000000e+00  -2.6749736355419232e-06 -5.0284158589941163e-04 0.0000000000000000e+00  -1.7109657390039426e-06 -5.0307550159477566e-04 0.0000000000000000e+00  -7.4714184340081839e-07 -5.0320137811325045e-04 0.0000000000000000e+00  2.1640647078456604e-07 -5.0321943133187956e-04 0.0000000000000000e+00  1.1795488585647337e-06 -5.0312971980115786e-04 0.0000000000000000e+00  2.1421656037957551e-06 -5.0293214215140587e-04 0.0000000000000000e+00  3.1041361899955648e-06 -5.0262643600012505e-04 0.0000000000000000e+00  4.0653243926878893e-06 -5.0221215618715786e-04 0.0000000000000000e+00  5.0256351813102837e-06 -5.0168868989733959e-04 0.0000000000000000e+00  5.9849459575940477e-06 -5.0105527282773819e-04 0.0000000000000000e+00  6.9431187321396031e-06 -5.0031091552292842e-04 0.0000000000000000e+00  7.9000372456717472e-06 -4.9945444152072556e-04 0.0000000000000000e+00  8.8555803702099567e-06 -4.9848447408414270e-04 0.0000000000000000e+00  9.8095849526876744e-06 -4.9739940305639418e-04 0.0000000000000000e+00  1.0761929387353343e-05 -4.9619740620529594e-04 0.0000000000000000e+00  1.1712475567634041e-05 -4.9487635756102668e-04 0.0000000000000000e+00  1.2660986062858989e-05 -4.9343388491135658e-04 0.0000000000000000e+00  1.3607334683347019e-05 -4.9186734606923934e-04 0.0000000000000000e+00  1.4551309800847507e-05 -4.9017370138190253e-04 0.0000000000000000e+00  1.5492697086733778e-05 -4.8834958570354199e-04 0.0000000000000000e+00  1.6431264347278607e-05 -4.8639118441657936e-04 0.0000000000000000e+00  1.7366839485018026e-05 -4.8429423800832027e-04 0.0000000000000000e+00  1.8299083432006220e-05 -4.8205382267871316e-04 0.0000000000000000e+00  1.9227734175772407e-05 -4.7966463911377393e-04 0.0000000000000000e+00  2.0152409321133113e-05 -4.7712044534434282e-04 0.0000000000000000e+00  2.1072807575108664e-05 -4.7441422530824254e-04 0.0000000000000000e+00  2.1988484282748035e-05 -4.7153795340842128e-04 0.0000000000000000e+00  2.2898962281227524e-05 -4.6848239330886702e-04 0.0000000000000000e+00  2.3803646049671661e-05 -4.6523696292850744e-04 0.0000000000000000e+00  2.4701879279933043e-05 -4.6178915752246626e-04 0.0000000000000000e+00  2.5592584021686055e-05 -4.5812439338364908e-04 0.0000000000000000e+00  2.6474752085513090e-05 -4.5422530831283592e-04 0.0000000000000000e+00  2.7347352727385654e-05 -4.5007152542284891e-04 0.0000000000000000e+00  2.8206985874996698e-05 -4.4563714470002711e-04 0.0000000000000000e+00  2.9050938296673470e-05 -4.4089165994112898e-04 0.0000000000000000e+00  2.9876650723470001e-05 -4.3579786476719549e-04 0.0000000000000000e+00  3.0681305133915456e-05 -4.3030875611314092e-04 0.0000000000000000e+00  3.1469710516471498e-05 -4.2435292088785883e-04 0.0000000000000000e+00  3.2250891360474429e-05 -4.1780245154094840e-04 0.0000000000000000e+00  3.2942160151080634e-05 -4.1043093222497607e-04 0.0000000000000000e+00  3.3216976649214093e-05 -4.0262662144391364e-04 0.0000000000000000e+00  3.8884798834620525e-05 -3.8307712388374853e-04 0.0000000000000000e+00  -7.7889598275375204e-08 1.0579031752562686e-06 0.0000000000000000e+00  -1.5553427833885434e-07 9.5028508016470292e-07 0.0000000000000000e+00  -2.3269380846225010e-07 7.7075615149376903e-07 0.0000000000000000e+00  -3.0911043436468853e-07 5.1908765341101864e-07 0.0000000000000000e+00  -3.8454366638900394e-07 1.9493623987402909e-07 0.0000000000000000e+00  -4.5867604444310032e-07 -2.0212103969250203e-07 0.0000000000000000e+00  -5.3131490010401263e-07 -6.7260626457189789e-07 0.0000000000000000e+00  -6.0212165389057394e-07 -1.2171576028119189e-06 0.0000000000000000e+00  -6.7081019007924471e-07 -1.8364985259727337e-06 0.0000000000000000e+00  -7.3704918361956903e-07 -2.5314635899787557e-06 0.0000000000000000e+00  -8.0051563814579584e-07 -3.3029988842850022e-06 0.0000000000000000e+00  -8.6083929201655642e-07 -4.1521464612858265e-06 0.0000000000000000e+00  -9.1765870578226662e-07 -5.0800696499699300e-06 0.0000000000000000e+00  -9.7055761636250920e-07 -6.0880463595427475e-06 0.0000000000000000e+00  -1.0191025582457457e-06 -7.1774793768506269e-06 0.0000000000000000e+00  -1.0628281399159106e-06 -8.3498987149457340e-06 0.0000000000000000e+00  -1.1012529155282635e-06 -9.6069554078730981e-06 0.0000000000000000e+00  -1.1338190998023710e-06 -1.0950466913922663e-05 0.0000000000000000e+00  -1.1599886159576794e-06 -1.2382378716913343e-05 0.0000000000000000e+00  -1.1791428885985724e-06 -1.3904783213387189e-05 0.0000000000000000e+00  -1.1906299595202616e-06 -1.5519982820149827e-05 0.0000000000000000e+00  -1.1938184052716005e-06 -1.7230313084345829e-05 0.0000000000000000e+00  -1.1878965283573206e-06 -1.9038507072658161e-05 0.0000000000000000e+00  -1.1721243514818384e-06 -2.0947371296826511e-05 0.0000000000000000e+00  -1.1456887947807629e-06 -2.2959947784020020e-05 0.0000000000000000e+00  -1.1077153327146482e-06 -2.5079519946923642e-05 0.0000000000000000e+00  -1.0572686629656587e-06 -2.7309635130303794e-05 0.0000000000000000e+00  -9.9337083374560378e-07 -2.9654121292398720e-05 0.0000000000000000e+00  -9.1504759099085128e-07 -3.2117109417273261e-05 0.0000000000000000e+00  -8.2124928846244223e-07 -3.4703065728328274e-05 0.0000000000000000e+00  -7.1084828170762504e-07 -3.7416861630563226e-05 0.0000000000000000e+00  -5.8270551693666856e-07 -4.0263748167919616e-05 0.0000000000000000e+00  -4.3588873704867903e-07 -4.3249528472285110e-05 0.0000000000000000e+00  -2.6888243628545212e-07 -4.6380502866640533e-05 0.0000000000000000e+00  -8.0780348062063379e-08 -4.9663589174962624e-05 0.0000000000000000e+00  1.2945383551478737e-07 -5.3106393843559493e-05 0.0000000000000000e+00  3.6291099350458040e-07 -5.6717380633655501e-05 0.0000000000000000e+00  6.2062118599412966e-07 -6.0506000742529139e-05 0.0000000000000000e+00  9.0322979822008285e-07 -6.4482824384107918e-05 0.0000000000000000e+00  1.2111792575282042e-06 -6.8659766167804745e-05 0.0000000000000000e+00  1.5447065142444058e-06 -7.3050334990596691e-05 0.0000000000000000e+00  1.9035418472852929e-06 -7.7670035950572428e-05 0.0000000000000000e+00  2.2865861955228542e-06 -8.2536753937612113e-05 0.0000000000000000e+00  2.6925210277787382e-06 -8.7671401604467612e-05 0.0000000000000000e+00  3.1184063580703220e-06 -9.3098429882728476e-05 0.0000000000000000e+00  3.5597569257861348e-06 -9.8847507584187529e-05 0.0000000000000000e+00  4.0105757710347034e-06 -1.0495395154482875e-04 0.0000000000000000e+00  4.4622482652315918e-06 -1.1146148824116616e-04 0.0000000000000000e+00  4.9021050664765479e-06 -1.1842386193198728e-04 0.0000000000000000e+00  5.3156561712636154e-06 -1.2590999667173598e-04 0.0000000000000000e+00  5.6769950215100414e-06 -1.3400953899425684e-04 0.0000000000000000e+00  5.9601518601578865e-06 -1.4283652958199444e-04 0.0000000000000000e+00  6.1187995112471975e-06 -1.5255679156973007e-04 0.0000000000000000e+00  6.0929436147478070e-06 -1.6339181078074236e-04 0.0000000000000000e+00  5.7930859122855596e-06 -1.7567820547675269e-04 0.0000000000000000e+00  5.0763783414829497e-06 -1.8994377027640105e-04 0.0000000000000000e+00  3.6929878356074430e-06 -2.0713609234951483e-04 0.0000000000000000e+00  6.3425355247985187e-07 -2.2978740986201289e-04 0.0000000000000000e+00  0.0000000000000000e+00 -2.3322955938267360e-06 0.0000000000000000e+00  0.0000000000000000e+00 -4.3244528511489440e-06 0.0000000000000000e+00  0.0000000000000000e+00 -6.0205831231598439e-06 0.0000000000000000e+00  0.0000000000000000e+00 -7.4576404262943993e-06 0.0000000000000000e+00  0.0000000000000000e+00 -8.6623808115272901e-06 0.0000000000000000e+00  0.0000000000000000e+00 -9.6566867146733125e-06 0.0000000000000000e+00  0.0000000000000000e+00 -1.0458285844674445e-05 0.0000000000000000e+00  0.0000000000000000e+00 -1.1081917652959706e-05 0.0000000000000000e+00  0.0000000000000000e+00 -1.1538291667497497e-05 0.0000000000000000e+00  0.0000000000000000e+00 -1.1839646633985540e-05 0.0000000000000000e+00  0.0000000000000000e+00 -1.1995024338758408e-05 0.0000000000000000e+00  0.0000000000000000e+00 -1.2013807815619400e-05 0.0000000000000000e+00  0.0000000000000000e+00 -1.1905757152983714e-05 0.0000000000000000e+00  0.0000000000000000e+00 -1.1680380740309211e-05 0.0000000000000000e+00  0.0000000000000000e+00 -1.1347576559162712e-05 0.0000000000000000e+00  0.0000000000000000e+00 -1.0917790986219973e-05 0.0000000000000000e+00  0.0000000000000000e+00 -1.0402204205620998e-05 0.0000000000000000e+00  0.0000000000000000e+00 -9.8121366484123987e-06 0.0000000000000000e+00  0.0000000000000000e+00 -9.1594046739286965e-06 0.0000000000000000e+00  0.0000000000000000e+00 -8.4561035084863907e-06 0.0000000000000000e+00  0.0000000000000000e+00 -7.7145542741733349e-06 0.0000000000000000e+00  0.0000000000000000e+00 -6.9469820373097393e-06 0.0000000000000000e+00  0.0000000000000000e+00 -6.1655590928394962e-06 0.0000000000000000e+00  0.0000000000000000e+00 -5.3818142722111001e-06 0.0000000000000000e+00  0.0000000000000000e+00 -4.6071215942164327e-06 0.0000000000000000e+00  0.0000000000000000e+00 -3.8522314470572387e-06 0.0000000000000000e+00  0.0000000000000000e+00 -3.1266596337412365e-06 0.0000000000000000e+00  0.0000000000000000e+00 -2.4395235387670952e-06 0.0000000000000000e+00  0.0000000000000000e+00 -1.7986840701325908e-06 0.0000000000000000e+00  0.0000000000000000e+00 -1.2109773335603116e-06 0.0000000000000000e+00  0.0000000000000000e+00 -6.8218850373149799e-07 0.0000000000000000e+00  0.0000000000000000e+00 -2.1690993782705259e-07 0.0000000000000000e+00  0.0000000000000000e+00 1.8134688413563527e-07 0.0000000000000000e+00  0.0000000000000000e+00 5.1009393505079214e-07 0.0000000000000000e+00  0.0000000000000000e+00 7.6791034930809706e-07 0.0000000000000000e+00  0.0000000000000000e+00 9.5432719497358696e-07 0.0000000000000000e+00  0.0000000000000000e+00 1.0698758747744743e-06 0.0000000000000000e+00  0.0000000000000000e+00 1.1156849881015914e-06 0.0000000000000000e+00  0.0000000000000000e+00 0.0000000000000000e+00 0.0000000000000000e+00  0.0000000000000000e+00 0.0000000000000000e+00 0.0000000000000000e+00  0.0000000000000000e+00 0.0000000000000000e+00 0.0000000000000000e+00  0.0000000000000000e+00 0.0000000000000000e+00 0.0000000000000000e+00  0.0000000000000000e+00 0.0000000000000000e+00 0.0000000000000000e+00  0.0000000000000000e+00 0.0000000000000000e+00 0.0000000000000000e+00  0.0000000000000000e+00 0.0000000000000000e+00 0.0000000000000000e+00  0.0000000000000000e+00 0.0000000000000000e+00 0.0000000000000000e+00  0.0000000000000000e+00 0.0000000000000000e+00 0.0000000000000000e+00  0.0000000000000000e+00 0.0000000000000000e+00 0.0000000000000000e+00  0.0000000000000000e+00 0.0000000000000000e+00 0.0000000000000000e+00  0.0000000000000000e+00 0.0000000000000000e+00 0.0000000000000000e+00  0.0000000000000000e+00 0.0000000000000000e+00 0.0000000000000000e+00  0.0000000000000000e+00 0.0000000000000000e+00 0.0000000000000000e+00  0.0000000000000000e+00 0.0000000000000000e+00 0.0000000000000000e+00  0.0000000000000000e+00 0.0000000000000000e+00 0.0000000000000000e+00  0.0000000000000000e+00 0.0000000000000000e+00 0.0000000000000000e+00  0.0000000000000000e+00 0.0000000000000000e+00 0.0000000000000000e+00  0.0000000000000000e+00 1.0771782474814787e-06 0.0000000000000000e+00  0.0000000000000000e+00 1.0272162666279962e-06 0.0000000000000000e+00  0.0000000000000000e+00 9.0647526884861117e-07 0.0000000000000000e+00  0.0000000000000000e+00 7.1411199507988629e-07 0.0000000000000000e+00  0.0000000000000000e+00 4.4968528995931660e-07 0.0000000000000000e+00  0.0000000000000000e+00 1.1391685732717895e-07 0.0000000000000000e+00  0.0000000000000000e+00 -2.9154484775788758e-07 0.0000000000000000e+00  0.0000000000000000e+00 -7.6402373094602856e-07 0.0000000000000000e+00  0.0000000000000000e+00 -1.2997734896046048e-06 0.0000000000000000e+00  0.0000000000000000e+00 -1.8938764321141458e-06 0.0000000000000000e+00  0.0000000000000000e+00 -2.5404627454433581e-06 0.0000000000000000e+00  0.0000000000000000e+00 -3.2321936791081913e-06 0.0000000000000000e+00  0.0000000000000000e+00 -3.9613017413950485e-06 0.0000000000000000e+00  0.0000000000000000e+00 -4.7185161114431332e-06 0.0000000000000000e+00  0.0000000000000000e+00 -5.4939852017936786e-06 0.0000000000000000e+00  0.0000000000000000e+00 -6.2768661043455453e-06 0.0000000000000000e+00  0.0000000000000000e+00 -7.0559199419310297e-06 0.0000000000000000e+00  0.0000000000000000e+00 -7.8195793878280208e-06 0.0000000000000000e+00  0.0000000000000000e+00 -8.5556294229080795e-06 0.0000000000000000e+00  0.0000000000000000e+00 -9.2519401065344336e-06 0.0000000000000000e+00  0.0000000000000000e+00 -9.8964170918612522e-06 0.0000000000000000e+00  0.0000000000000000e+00 -1.0477151533777168e-05 0.0000000000000000e+00  0.0000000000000000e+00 -1.0982495492655860e-05 0.0000000000000000e+00  0.0000000000