<?xml version="1.0"?>
<VTKFile type="UnstructuredGrid"  version="0.1"  >
<UnstructuredGrid>
<Piece  NumberOfPoints="1250" NumberOfCells="2352">
<Points>
<DataArray  type="Float64"  NumberOfComponents="3"  format="ascii">0 0 0  0.0336 0 0  0.0336 0.07729999999999999 0  0 0.07729999999999999 0  0.001400000000000002 0 0  0.002800000000000005 0 0  0.004200000000000008 0 0  0.005600000000000009 0 0  0.007000000000000011 0 0  0.008400000000000013 0 0  0.009800000000000019 0 0  0.01120000000000002 0 0  0.01260000000000003 0 0  0.01400000000000003 0 0  0.01540000000000004 0 0  0.01680000000000005 0 0  0.01820000000000004 0 0  0.01960000000000004 0 0  0.02100000000000004 0 0  0.02240000000000003 0 0  0.02380000000000003 0 0  0.02520000000000002 0 0  0.02660000000000002 0 0  0.02800000000000001 0 0  0.02940000000000001 0 0  0.03080000000000001 0 0  0.0322 0 0  0.0336 0.001577551020408161 0  0.0336 0.003155102040816321 0  0.0336 0.004732653061224482 0  0.0336 0.006310204081632642 0  0.0336 0.007887755102040803 0  0.0336 0.009465306122448964 0  0.0336 0.01104285714285712 0  0.0336 0.01262040816326528 0  0.0336 0.01419795918367344 0  0.0336 0.0157755102040816 0  0.0336 0.01735306122448976 0  0.0336 0.01893061224489792 0  0.0336 0.02050816326530608 0  0.0336 0.02208571428571425 0  0.0336 0.02366326530612241 0  0.0336 0.02524081632653058 0  0.0336 0.02681836734693874 0  0.0336 0.02839591836734691 0  0.0336 0.02997346938775507 0  0.0336 0.03155102040816323 0  0.0336 0.0331285714285714 0  0.0336 0.03470612244897956 0  0.0336 0.03628367346938772 0  0.0336 0.03786122448979588 0  0.0336 0.03943877551020405 0  0.0336 0.04101632653061221 0  0.0336 0.04259387755102037 0  0.0336 0.04417142857142854 0  0.0336 0.04574897959183671 0  0.0336 0.04732653061224486 0  0.0336 0.04890408163265302 0  0.0336 0.05048163265306119 0  0.0336 0.05205918367346936 0  0.0336 0.05363673469387752 0  0.0336 0.05521428571428568 0  0.0336 0.05679183673469385 0  0.0336 0.05836938775510202 0  0.0336 0.05994693877551018 0  0.0336 0.06152448979591834 0  0.0336 0.0631020408163265 0  0.0336 0.06467959183673468 0  0.0336 0.06625714285714283 0  0.0336 0.06783469387755101 0  0.0336 0.06941224489795916 0  0.0336 0.07098979591836733 0  0.0336 0.07256734693877549 0  0.0336 0.07414489795918365 0  0.0336 0.07572244897959182 0  0.03219999999999999 0.07729999999999999 0  0.03079999999999999 0.07729999999999999 0  0.02939999999999999 0.07729999999999999 0  0.02799999999999999 0.07729999999999999 0  0.02659999999999999 0.07729999999999999 0  0.02519999999999999 0.07729999999999999 0  0.02379999999999998 0.07729999999999999 0  0.02239999999999998 0.07729999999999999 0  0.02099999999999997 0.07729999999999999 0  0.01959999999999996 0.07729999999999999 0  0.01819999999999996 0.07729999999999999 0  0.01679999999999995 0.07729999999999999 0  0.01539999999999996 0.07729999999999999 0  0.01399999999999996 0.07729999999999999 0  0.01259999999999996 0.07729999999999999 0  0.01119999999999997 0.07729999999999999 0  0.009799999999999972 0.07729999999999999 0  0.008399999999999977 0.07729999999999999 0  0.006999999999999978 0.07729999999999999 0  0.005599999999999983 0.07729999999999999 0  0.004199999999999988 0.07729999999999999 0  0.00279999999999999 0.07729999999999999 0  0.001399999999999998 0.07729999999999999 0  0 0.07572244897959184 0  0 0.07414489795918368 0  0 0.07256734693877551 0  0 0.07098979591836735 0  0 0.06941224489795919 0  0 0.06783469387755103 0  0 0.06625714285714288 0  0 0.06467959183673472 0  0 0.06310204081632656 0  0 0.0615244897959184 0  0 0.05994693877551023 0  0 0.05836938775510207 0  0 0.05679183673469392 0  0 0.05521428571428574 0  0 0.05363673469387759 0  0 0.05205918367346941 0  0 0.05048163265306126 0  0 0.04890408163265308 0  0 0.04732653061224493 0  0 0.04574897959183676 0  0 0.0441714285714286 0  0 0.04259387755102043 0  0 0.04101632653061228 0  0 0.03943877551020411 0  0 0.03786122448979595 0  0 0.03628367346938779 0  0 0.03470612244897962 0  0 0.03312857142857146 0  0 0.03155102040816329 0  0 0.02997346938775513 0  0 0.02839591836734697 0  0 0.0268183673469388 0  0 0.02524081632653064 0  0 0.02366326530612247 0  0 0.02208571428571431 0  0 0.02050816326530614 0  0 0.01893061224489798 0  0 0.01735306122448981 0  0 0.01577551020408165 0  0 0.01419795918367349 0  0 0.01262040816326532 0  0 0.01104285714285716 0  0 0.009465306122448988 0  0 0.00788775510204083 0  0 0.006310204081632659 0  0 0.004732653061224501 0  0 0.003155102040816343 0  0 0.001577551020408172 0  0.001400000000000004 0.001577551020408172 0  0.001400000000000004 0.003155102040816329 0  0.001400000000000002 0.004732653061224501 0  0.001400000000000002 0.006310204081632645 0  0.001400000000000005 0.007887755102040823 0  0.001400000000000002 0.009465306122448981 0  0.001400000000000002 0.01104285714285717 0  0.001400000000000004 0.01262040816326531 0  0.0014 0.01419795918367349 0  0.001400000000000002 0.01577551020408166 0  0.001400000000000005 0.0173530612244898 0  0.001400000000000002 0.01893061224489797 0  0.001400000000000002 0.02050816326530613 0  0.001400000000000002 0.02208571428571431 0  0.001400000000000002 0.02366326530612247 0  0.001400000000000002 0.02524081632653063 0  0.001400000000000002 0.0268183673469388 0  0.001400000000000002 0.02839591836734696 0  0.001400000000000002 0.02997346938775513 0  0.001400000000000002 0.03155102040816328 0  0.001400000000000002 0.03312857142857147 0  0.001399999999999997 0.03470612244897962 0  0.001400000000000005 0.03628367346938778 0  0.001400000000000002 0.03786122448979594 0  0.001400000000000002 0.03943877551020411 0  0.001400000000000002 0.04101632653061228 0  0.001400000000000002 0.04259387755102043 0  0.001400000000000002 0.0441714285714286 0  0.0014 0.04574897959183676 0  0.001400000000000002 0.04732653061224492 0  0.001400000000000004 0.04890408163265308 0  0.001400000000000002 0.05048163265306126 0  0.001400000000000002 0.05205918367346941 0  0.0014 0.05363673469387758 0  0.001400000000000004 0.05521428571428574 0  0.001399999999999998 0.05679183673469391 0  0.001400000000000002 0.05836938775510207 0  0.0014 0.05994693877551023 0  0.001400000000000002 0.0615244897959184 0  0.001400000000000002 0.06310204081632656 0  0.001400000000000002 0.06467959183673472 0  0.0014 0.06625714285714286 0  0.001400000000000002 0.06783469387755102 0  0.001399999999999998 0.06941224489795919 0  0.001400000000000002 0.07098979591836735 0  0.0014 0.07256734693877552 0  0.001400000000000002 0.07414489795918368 0  0.001400000000000002 0.07572244897959184 0  0.002800000000000006 0.001577551020408165 0  0.002800000000000004 0.003155102040816343 0  0.002800000000000002 0.004732653061224487 0  0.002800000000000002 0.006310204081632652 0  0.002800000000000002 0.007887755102040813 0  0.0028 0.009465306122448981 0  0.002799999999999997 0.01104285714285715 0  0.0028 0.01262040816326532 0  0.0028 0.01419795918367348 0  0.0028 0.01577551020408165 0  0.002799999999999997 0.0173530612244898 0  0.0028 0.01893061224489797 0  0.002800000000000004 0.02050816326530613 0  0.0028 0.0220857142857143 0  0.0028 0.02366326530612247 0  0.002800000000000004 0.02524081632653064 0  0.0028 0.0268183673469388 0  0.0028 0.02839591836734696 0  0.002799999999999995 0.02997346938775512 0  0.002799999999999997 0.03155102040816328 0  0.002799999999999995 0.03312857142857146 0  0.0028 0.03470612244897962 0  0.002799999999999995 0.03628367346938778 0  0.002799999999999997 0.03786122448979594 0  0.002799999999999997 0.03943877551020411 0  0.002799999999999997 0.04101632653061228 0  0.002799999999999997 0.04259387755102043 0  0.002799999999999995 0.0441714285714286 0  0.002799999999999997 0.04574897959183676 0  0.002799999999999997 0.04732653061224493 0  0.002799999999999995 0.04890408163265308 0  0.002799999999999993 0.05048163265306124 0  0.002799999999999995 0.05205918367346941 0  0.002799999999999995 0.05363673469387757 0  0.002799999999999992 0.05521428571428574 0  0.002799999999999997 0.05679183673469391 0  0.002799999999999993 0.05836938775510207 0  0.002799999999999993 0.05994693877551022 0  0.002799999999999992 0.0615244897959184 0  0.002799999999999988 0.06310204081632655 0  0.002799999999999992 0.0646795918367347 0  0.002799999999999992 0.06625714285714286 0  0.00279999999999999 0.06783469387755103 0  0.00279999999999999 0.06941224489795919 0  0.002799999999999988 0.07098979591836735 0  0.00279999999999999 0.07256734693877552 0  0.002799999999999988 0.07414489795918368 0  0.00279999999999999 0.07572244897959184 0  0.004200000000000006 0.001577551020408172 0  0.004200000000000006 0.003155102040816329 0  0.004200000000000008 0.00473265306122448 0  0.004200000000000009 0.006310204081632652 0  0.004200000000000008 0.00788775510204082 0  0.004200000000000008 0.009465306122448978 0  0.004200000000000006 0.01104285714285716 0  0.004200000000000006 0.01262040816326532 0  0.004200000000000004 0.01419795918367349 0  0.004200000000000002 0.01577551020408165 0  0.004200000000000004 0.0173530612244898 0  0.004200000000000006 0.01893061224489797 0  0.004200000000000006 0.02050816326530613 0  0.004200000000000002 0.0220857142857143 0  0.004200000000000004 0.02366326530612247 0  0.004199999999999999 0.02524081632653062 0  0.004200000000000004 0.0268183673469388 0  0.004200000000000004 0.02839591836734696 0  0.004200000000000002 0.02997346938775512 0  0.004199999999999999 0.03155102040816328 0  0.004200000000000001 0.03312857142857145 0  0.004200000000000001 0.03470612244897962 0  0.004199999999999995 0.03628367346938778 0  0.004199999999999999 0.03786122448979594 0  0.004199999999999999 0.0394387755102041 0  0.004199999999999997 0.04101632653061227 0  0.004199999999999999 0.04259387755102043 0  0.004199999999999999 0.04417142857142859 0  0.004199999999999999 0.04574897959183676 0  0.004199999999999999 0.04732653061224492 0  0.004199999999999997 0.04890408163265308 0  0.004199999999999997 0.05048163265306124 0  0.004199999999999999 0.05205918367346941 0  0.004199999999999992 0.05363673469387757 0  0.0
[...]
<PointData  Vectors="displacement"> 
<DataArray  type="Float64"  Name="displacement"  NumberOfComponents="3" format="ascii">0.0000000000000000e+00 0.0000000000000000e+00 0.0000000000000000e+00  0.0000000000000000e+00 0.0000000000000000e+00 0.0000000000000000e+00  1.0374595635481418e-02 -8.6053613577109236e-02 0.0000000000000000e+00  -1.0078190065118314e-02 -8.5995297070240562e-02 0.0000000000000000e+00  0.0000000000000000e+00 0.0000000000000000e+00 0.0000000000000000e+00  0.0000000000000000e+00 0.0000000000000000e+00 0.0000000000000000e+00  0.0000000000000000e+00 0.0000000000000000e+00 0.0000000000000000e+00  0.0000000000000000e+00 0.0000000000000000e+00 0.0000000000000000e+00  0.0000000000000000e+00 0.0000000000000000e+00 0.0000000000000000e+00  0.0000000000000000e+00 0.0000000000000000e+00 0.0000000000000000e+00  0.0000000000000000e+00 0.0000000000000000e+00 0.0000000000000000e+00  0.0000000000000000e+00 0.0000000000000000e+00 0.0000000000000000e+00  0.0000000000000000e+00 0.0000000000000000e+00 0.0000000000000000e+00  0.0000000000000000e+00 0.0000000000000000e+00 0.0000000000000000e+00  0.0000000000000000e+00 0.0000000000000000e+00 0.0000000000000000e+00  0.0000000000000000e+00 0.0000000000000000e+00 0.0000000000000000e+00  0.0000000000000000e+00 0.0000000000000000e+00 0.0000000000000000e+00  0.0000000000000000e+00 0.0000000000000000e+00 0.0000000000000000e+00  0.0000000000000000e+00 0.0000000000000000e+00 0.0000000000000000e+00  0.0000000000000000e+00 0.0000000000000000e+00 0.0000000000000000e+00  0.0000000000000000e+00 0.0000000000000000e+00 0.0000000000000000e+00  0.0000000000000000e+00 0.0000000000000000e+00 0.0000000000000000e+00  0.0000000000000000e+00 0.0000000000000000e+00 0.0000000000000000e+00  0.0000000000000000e+00 0.0000000000000000e+00 0.0000000000000000e+00  0.0000000000000000e+00 0.0000000000000000e+00 0.0000000000000000e+00  0.0000000000000000e+00 0.0000000000000000e+00 0.0000000000000000e+00  0.0000000000000000e+00 0.0000000000000000e+00 0.0000000000000000e+00  3.4710913643736167e-03 -3.2729388119016514e-03 0.0000000000000000e+00  5.2787807087541104e-03 -5.0579493352471529e-03 0.0000000000000000e+00  6.5573489010095909e-03 -6.6489070788583893e-03 0.0000000000000000e+00  7.5194309287780299e-03 -8.1751822881700152e-03 0.0000000000000000e+00  8.2554701521538234e-03 -9.6810973603252606e-03 0.0000000000000000e+00  8.8209568208131497e-03 -1.1189144304479830e-02 0.0000000000000000e+00  9.2544179759734280e-03 -1.2711640681519067e-02 0.0000000000000000e+00  9.5844891731367010e-03 -1.4255176866176104e-02 0.0000000000000000e+00  9.8332783468896429e-03 -1.5822874592978615e-02 0.0000000000000000e+00  1.0018230532406752e-02 -1.7415676717230141e-02 0.0000000000000000e+00  1.0153275209083223e-02 -1.9033141292056303e-02 0.0000000000000000e+00  1.0249592088619620e-02 -2.0673959874184921e-02 0.0000000000000000e+00  1.0316158165378009e-02 -2.2336309725953102e-02 0.0000000000000000e+00  1.0360160692126152e-02 -2.4018098481383213e-02 0.0000000000000000e+00  1.0387322343382624e-02 -2.5717134975740290e-02 0.0000000000000000e+00  1.0402164922633373e-02 -2.7431247167134191e-02 0.0000000000000000e+00  1.0408227276955128e-02 -2.9158361135504209e-02 0.0000000000000000e+00  1.0408247210843701e-02 -3.0896551115034563e-02 0.0000000000000000e+00  1.0404313922389866e-02 -3.2644067992290346e-02 0.0000000000000000e+00  1.0397995642276895e-02 -3.4399351986819940e-02 0.0000000000000000e+00  1.0390446094053931e-02 -3.6161033974362863e-02 0.0000000000000000e+00  1.0382492753569634e-02 -3.7927928939025156e-02 0.0000000000000000e+00  1.0374709466724443e-02 -3.9699024259871735e-02 0.0000000000000000e+00  1.0367475678964672e-02 -4.1473464901506454e-02 0.0000000000000000e+00  1.0361024280100802e-02 -4.3250537059586792e-02 0.0000000000000000e+00  1.0355479846114899e-02 -4.5029651392260978e-02 0.0000000000000000e+00  1.0350888853529115e-02 -4.6810326632777496e-02 0.0000000000000000e+00  1.0347243247705430e-02 -4.8592174114538707e-02 0.0000000000000000e+00  1.0344498563974066e-02 -5.0374883536387603e-02 0.0000000000000000e+00  1.0342587630958220e-02 -5.2158210142686852e-02 0.0000000000000000e+00  1.0341430730231277e-02 -5.3941963380557928e-02 0.0000000000000000e+00  1.0340942946469592e-02 -5.5725997017376620e-02 0.0000000000000000e+00  1.0341039317926412e-02 -5.7510200648268110e-02 0.0000000000000000e+00  1.0341638288169730e-02 -5.9294492489993120e-02 0.0000000000000000e+00  1.0342663865960489e-02 -6.1078813339386667e-02 0.0000000000000000e+00  1.0344046819936279e-02 -6.2863121567450136e-02 0.0000000000000000e+00  1.0345725167258684e-02 -6.4647389021188356e-02 0.0000000000000000e+00  1.0347644159373396e-02 -6.6431597711949203e-02 0.0000000000000000e+00  1.0349755922379670e-02 -6.8215737179605135e-02 0.0000000000000000e+00  1.0352018873287345e-02 -6.9999802435237041e-02 0.0000000000000000e+00  1.0354397006147863e-02 -7.1783792400361091e-02 0.0000000000000000e+00  1.0356859123961915e-02 -7.3567708777974306e-02 0.0000000000000000e+00  1.0359378085175730e-02 -7.5351555310035012e-02 0.0000000000000000e+00  1.0361930142385111e-02 -7.7135337398029011e-02 0.0000000000000000e+00  1.0364494487419454e-02 -7.8919062088571745e-02 0.0000000000000000e+00  1.0367053211434021e-02 -8.0702738454117420e-02 0.0000000000000000e+00  1.0369592137101919e-02 -8.2486378410865244e-02 0.0000000000000000e+00  1.0372103784098946e-02 -8.4269997738023933e-02 0.0000000000000000e+00  9.5222760981321028e-03 -8.6051405784366597e-02 0.0000000000000000e+00  8.6699580145710997e-03 -8.6049211828925498e-02 0.0000000000000000e+00  7.8176530186148986e-03 -8.6047038828372627e-02 0.0000000000000000e+00  6.9653720749489030e-03 -8.6044882240915249e-02 0.0000000000000000e+00  6.1131222630016408e-03 -8.6042732136092870e-02 0.0000000000000000e+00  5.2609069303391097e-03 -8.6040576493978851e-02 0.0000000000000000e+00  4.4087262900805611e-03 -8.6038402999346161e-02 0.0000000000000000e+00  3.5565780238745108e-03 -8.6036200123601123e-02 0.0000000000000000e+00  2.7044578302306832e-03 -8.6033957808168374e-02 0.0000000000000000e+00  1.8523599122297716e-03 -8.6031667899149122e-02 0.0000000000000000e+00  1.0002774084358304e-03 -8.6029324418337494e-02 0.0000000000000000e+00  1.4820277624831815e-04 -8.6026923723901777e-02 0.0000000000000000e+00  -7.0387185888092613e-04 -8.6024464594361777e-02 0.0000000000000000e+00  -1.5559543720264186e-03 -8.6021948254742561e-02 0.0000000000000000e+00  -2.4080523073262390e-03 -8.6019378351027881e-02 0.0000000000000000e+00  -3.2601725286452612e-03 -8.6016760866807304e-02 0.0000000000000000e+00  -4.1123208360344370e-03 -8.6014103963249752e-02 0.0000000000000000e+00  -4.9645015345844293e-03 -8.6011417708757823e-02 0.0000000000000000e+00  -5.8167169464976637e-03 -8.6008713644789805e-02 0.0000000000000000e+00  -6.6689668627139802e-03 -8.6006004101624692e-02 0.0000000000000000e+00  -7.5212479400621011e-03 -8.6003301109422725e-02 0.0000000000000000e+00  -8.3735530973036137e-03 -8.6000614576155598e-02 0.0000000000000000e+00  -9.2258712977713996e-03 -8.5997948976681907e-02 0.0000000000000000e+00  -1.0081174419916154e-02 -8.4211680632509292e-02 0.0000000000000000e+00  -1.0084138975864873e-02 -8.2428061417489956e-02 0.0000000000000000e+00  -1.0087076362166273e-02 -8.0644421540027419e-02 0.0000000000000000e+00  -1.0089993908228258e-02 -7.8860745227687282e-02 0.0000000000000000e+00  -1.0092905781477101e-02 -7.7077020572169058e-02 0.0000000000000000e+00  -1.0095829914414886e-02 -7.5293238508617147e-02 0.0000000000000000e+00  -1.0098787134278243e-02 -7.3509391997116771e-02 0.0000000000000000e+00  -1.0101801199869840e-02 -7.1725475642159239e-02 0.0000000000000000e+00  -1.0104899258153019e-02 -6.9941485707542772e-02 0.0000000000000000e+00  -1.0108112506958717e-02 -6.8157420496345267e-02 0.0000000000000000e+00  -1.0111476949191839e-02 -6.6373281093957653e-02 0.0000000000000000e+00  -1.0115034161053740e-02 -6.4589072497569303e-02 0.0000000000000000e+00  -1.0118832005608647e-02 -6.2804805177546594e-02 0.0000000000000000e+00  -1.0122925215871860e-02 -6.1020497135500014e-02 0.0000000000000000e+00  -1.0127375753457244e-02 -5.9236176541081008e-02 0.0000000000000000e+00  -1.0132252821481724e-02 -5.7451885044957393e-02 0.0000000000000000e+00  -1.0137632374153866e-02 -5.5667681878767833e-02 0.0000000000000000e+00  -1.0143595919756688e-02 -5.3883648863487461e-02 0.0000000000000000e+00  -1.0150228357635301e-02 -5.2099896454356955e-02 0.0000000000000000e+00  -1.0157614522159252e-02 -5.0316570951587855e-02 0.0000000000000000e+00  -1.0165834026220956e-02 -4.8533862999075000e-02 0.0000000000000000e+00  -1.0174953902473801e-02 -4.6752017475189020e-02 0.0000000000000000e+00  -1.0185018431209225e-02 -4.4971344846432983e-02 0.0000000000000000e+00  -1.0196035418827474e-02 -4.3192234001403401e-02 0.0000000000000000e+00  -1.0207958050027962e-02 -4.1415166503141587e-02 0.0000000000000000e+00  -1.0220661280424582e-02 -3.9640732085505032e-02 0.0000000000000000e+00  -1.0233911565130299e-02 -3.7869645065388161e-02 0.0000000000000000e+00  -1.0247328534185866e-02 -3.6102761138069171e-02 0.0000000000000000e+00  -1.0260337028585297e-02 -3.4341093757114360e-02 0.0000000000000000e+00  -1.0272107700732511e-02 -3.2585828961439328e-02 0.0000000000000000e+00  -1.0281484156286177e-02 -3.0838337087208772e-02 0.0000000000000000e+00  -1.0286894358123182e-02 -2.9100179275858090e-02 0.0000000000000000e+00  -1.0286243699167261e-02 -2.7373106041633320e-02 0.0000000000000000e+00  -1.0276786721286934e-02 -2.5659044362665740e-02 0.0000000000000000e+00  -1.0254973802243411e-02 -2.3960068757295328e-02 0.0000000000000000e+00  -1.0216268049809300e-02 -2.2278350505944670e-02 0.0000000000000000e+00  -1.0154925768147494e-02 -2.0616077390935385e-02 0.0000000000000000e+00  -1.0063730543355062e-02 -1.8975333681314367e-02 0.0000000000000000e+00  -9.9336650434976633e-03 -1.7357925846575629e-02 0.0000000000000000e+00  -9.7534938106966333e-03 -1.5765132145492130e-02 0.0000000000000000e+00  -9.5092102405689247e-03 -1.4197340702707621e-02 0.0000000000000000e+00  -9.1832623687621417e-03 -1.2653514181930012e-02 0.0000000000000000e+00  -8.7533946593548722e-03 -1.1130363517945016e-02 0.0000000000000000e+00  -8.1907837494385998e-03 -9.6209901775277940e-03 0.0000000000000000e+00  -7.4568195067019113e-03 -8.1125400353396944e-03 0.0000000000000000e+00  -6.4968625913245292e-03 -6.5826061870135413e-03 0.0000000000000000e+00  -5.2210561472032218e-03 -4.9955812821648746e-03 0.0000000000000000e+00  -3.3896669200059984e-03 -3.2607026282310356e-03 0.0000000000000000e+00  -2.4046806160038584e-03 -1.8644009251689831e-03 0.0000000000000000e+00  -4.3488672980418804e-03 -3.8686726565267246e-03 0.0000000000000000e+00  -5.7026724312198313e-03 -5.6962565013342556e-03 0.0000000000000000e+00  -6.6945365142418211e-03 -7.4090804732409457e-03 0.0000000000000000e+00  -7.4404109793775354e-03 -9.0631394005087872e-03 0.0000000000000000e+00  -8.0048507382068056e-03 -1.0690004354047737e-02 0.0000000000000000e+00  -8.4308759484812840e-03 -1.2308193365813777e-02 0.0000000000000000e+00  -8.7497924989419686e-03 -1.3928861035064967e-02 0.0000000000000000e+00  -8.9853934810083264e-03 -1.5558622436762322e-02 0.0000000000000000e+00  -9.1562163137219616e-03 -1.7201171384101890e-02 0.0000000000000000e+00  -9.2769047335164653e-03 -1.8858283163729551e-02 0.0000000000000000e+00  -9.3591004706363567e-03 -2.0530467264115584e-02 0.0000000000000000e+00  -9.4120689916316058e-03 -2.2217408224678603e-02 0.0000000000000000e+00  -9.4431645943591196e-03 -2.3918270998749939e-02 0.0000000000000000e+00  -9.4581917435314685e-03 -2.5631915337744657e-02 0.0000000000000000e+00  -9.4616947432250315e-03 -2.7357046605036156e-02 0.0000000000000000e+00  -9.4571946803296905e-03 -2.9092320865074798e-02 0.0000000000000000e+00  -9.4473854092604146e-03 -3.0836416483150979e-02 0.0000000000000000e+00  -9.4342963797415143e-03 -3.2588080999356096e-02 0.0000000000000000e+00  -9.4194278711327833e-03 -3.4346159764656249e-02 0.0000000000000000e+00  -9.4038628979199630e-03 -3.6109611248154920e-02 0.0000000000000000e+00  -9.3883592580811092e-03 -3.7877512772884703e-02 0.0000000000000000e+00  -9.3734246712958384e-03 -3.9649059564068619e-02 0.0000000000000000e+00  -9.3593775690054386e-03 -4.1423559314085194e-02 0.0000000000000000e+00  -9.3463957860930695e-03 -4.3200423931885626e-02 0.0000000000000000e+00  -9.3345551313293446e-03 -4.4979159719162352e-02 0.0000000000000000e+00  -9.3238595658586658e-03 -4.6759356878953988e-02 0.0000000000000000e+00  -9.3142644903254392e-03 -4.8540678998008131e-02 0.0000000000000000e+00  -9.3056944304809545e-03 -5.0322852938963457e-02 0.0000000000000000e+00  -9.2980562186065555e-03 -5.2105659421404153e-02 0.0000000000000000e+00  -9.2912485944331331e-03 -5.3888924452936783e-02 0.0000000000000000e+00  -9.2851689946934074e-03 -5.5672511684944755e-02 0.0000000000000000e+00  -9.2797181647652285e-03 -5.7456315706068198e-02 0.0000000000000000e+00  -9.2748031082999123e-03 -5.9240256244326245e-02 0.0000000000000000e+00  -9.2703387901386450e-03 -6.1024273221657543e-02 0.0000000000000000e+00  -9.2662489228019507e-03 -6.2808322588875296e-02 0.0000000000000000e+00  -9.2624660958664680e-03 -6.4592372861684760e-02 0.0000000000000000e+00  -9.2589314490894130e-03 -6.6376402277200444e-02 0.0000000000000000e+00  -9.2555940427991503e-03 -6.8160396493543829e-02 0.0000000000000000e+00  -9.2524100416926294e-03 -6.9944346761219162e-02 0.0000000000000000e+00  -9.2493418000942542e-03 -7.1728248502979264e-02 0.0000000000000000e+00  -9.2463569181234929e-03 -7.3512100247823217e-02 0.0000000000000000e+00  -9.2434273309627280e-03 -7.5295902873435933e-02 0.0000000000000000e+00  -9.2405285030433791e-03 -7.7079659117650468e-02 0.0000000000000000e+00  -9.2376388399158672e-03 -7.8863373318464089e-02 0.0000000000000000e+00  -9.2347395411417465e-03 -8.0647051320746718e-02 0.0000000000000000e+00  -9.2318153953761493e-03 -8.2430700422933323e-02 0.0000000000000000e+00  -9.2288576375794667e-03 -8.4214329264351864e-02 0.0000000000000000e+00  -1.8345501227153441e-03 -1.4815516868494317e-03 0.0000000000000000e+00  -3.5502395675029198e-03 -3.2417067391925102e-03 0.0000000000000000e+00  -4.8875555479802255e-03 -5.0535545999029303e-03 0.0000000000000000e+00  -5.8927725237201464e-03 -6.8286141068691240e-03 0.0000000000000000e+00  -6.6489945400773709e-03 -8.5626851015633415e-03 0.0000000000000000e+00  -7.2182559273776979e-03 -1.0268594936881039e-02 0.0000000000000000e+00  -7.6447719099229225e-03 -1.1958804155684618e-02 0.0000000000000000e+00  -7.9612017065939095e-03 -1.3642712496538688e-02 0.0000000000000000e+00  -8.1924350524212389e-03 -1.5326843029539254e-02 0.0000000000000000e+00  -8.3578288656123972e-03 -1.7015463652272654e-02 0.0000000000000000e+00  -8.4726147884255400e-03 -1.8711172957102916e-02 0.0000000000000000e+00  -8.5488428192247393e-03 -2.0415369291258693e-02 0.0000000000000000e+00  -8.5960513560709995e-03 -2.2128608139567078e-02 0.0000000000000000e+00  -8.6217672392480491e-03 -2.3850869354371657e-02 0.0000000000000000e+00  -8.6318940239204084e-03 -2.5581754973593721e-02 0.0000000000000000e+00  -8.6310222709382132e-03 -2.7320634270603252e-02 0.0000000000000000e+00  -8.6226822130789030e-03 -2.9066748778652764e-02 0.0000000000000000e+00  -8.6095516665074274e-03 -3.0819286973221671e-02 0.0000000000000000e+00  -8.5936278282167187e-03 -3.2577436007809282e-02 0.0000000000000000e+00  -8.5763691699892418e-03 -3.4340416192716300e-02 0.0000000000000000e+00  -8.5588122003576010e-03 -3.6107502617539887e-02 0.0000000000000000e+00  -8.5416669683451400e-03 -3.7878037328112957e-02 0.0000000000000000e+00  -8.5253945772384605e-03 -3.9651434696999090e-02 0.0000000000000000e+00  -8.5102695276314810e-03 -4.1427182019087301e-02 0.0000000000000000e+00  -8.4964293449319266e-03 -4.3204836882856042e-02 0.0000000000000000e+00  -8.4839136315233224e-03 -4.4984022486746135e-02 0.0000000000000000e+00  -8.4726944011222025e-03 -4.6764421768892020e-02 0.0000000000000000e+00  -8.4626992956890554e-03 -4.8545770981824922e-02 0.0000000000000000e+00  -8.4538290512613835e-03 -5.0327853159418012e-02 0.0000000000000000e+00  -8.4459703677875440e-03 -5.2110491781312183e-02 0.0000000000000000e+00  -8.4390051493426470e-03 -5.3893544832120617e-02 0.0000000000000000e+00  -8.4328169146548060e-03 -5.5676899372056374e-02 0.0000000000000000e+00  -8.4272950328788069e-03 -5.7460466676618457e-02 0.0000000000000000e+00  -8.4223373148090662e-03 -5.9244177960971124e-02 0.0000000000000000e+00  -8.4178513836854901e-03 -6.1027980675838693e-02 0.0000000000000000e+00  -8.4137551606691934e-03 -6.2811835343019165e-02 0.0000000000000000e+00  -8.4099767261414486e-03 -6.4595712887490581e-02 0.0000000000000000e+00  -8.4064537574396296e-03 -6.6379592417529776e-02 0.0000000000000000e+00  -8.4031326948958446e-03 -6.8163459402666493e-02 0.0000000000000000e+00  -8.3999677497953590e-03 -6.9947304200337637e-02 0.0000000000000000e+00  -8.3969198393501875e-03 -7.1731120884642535e-02 0.0000000000000000e+00  -8.3939555150969753e-03 -7.3514906333573660e-02 0.0000000000000000e+00  -8.3910459439912634e-03 -7.5298659533434342e-02 0.0000000000000000e+00  -8.3881660106476588e-03 -7.7082381059984453e-02 0.0000000000000000e+00  -8.3852936451258055e-03 -7.8866072696470252e-02 0.0000000000000000e+00  -8.3824095618616114e-03 -8.0649737164044194e-02 0.0000000000000000e+00  -8.3794977306351302e-03 -8.2433378052312684e-02 0.0000000000000000e+00  -8.3765469346471031e-03 -8.4217000533491473e-02 0.0000000000000000e+00  -1.4813724148540323e-03 -1.3455753317120577e-03 0.0000000000000000e+00  -2.9234064051248359e-03 -2.9270015564072036e-03 0.0000000000000000e+00  -4.1444617588745243e-03 -4.6409238259908581e-03 0.0000000000000000e+00  -5.1098207259819240e-03 -6.3955538001991361e-03 0.0000000000000000e+00  -5.8525196088418281e-03 -8.1510191511468700e-03 0.0000000000000000e+00  -6.4162676864114821e-03 -9.8966917010505345e-03 0.0000000000000000e+00  -6.8392805941788481e-03 -1.1632876763227145e-02 0.0000000000000000e+00  -7.1523531068494765e-03 -1.3362934574533764e-02 0.0000000000000000e+00  -7.3799201203852451e-03 -1.5090456365071054e-02 0.0000000000000000e+00  -7.5413601273196526e-03 -1.6818385137647794e-02 0.0000000000000000e+00  -7.6520625741175151e-03 -1.8548845948150778e-02 0.0000000000000000e+00  -7.7242461584946295e-03 -2.0283221158606361e-02 0.0000000000000000e+00  -7.7675865622528787e-03 -2.2022294803195844e-02 0.0000000000000000e+00  -7.7897069560031911e-03 -2.3766400365153990e-02 0.0000000000000000e+00  -7.7965692473321553e-03 -2.5515549430882068e-02 0.0000000000000000e+00  -7.7927914399917092e-03 -2.7269535733384916e-02 0.0000000000000000e+00  -7.7819079621427954e-03 -2.9028015633444763e-02 0.0000000000000000e+00  -7.7665844588625235e-03 -3.0790568311591993e-02 0.0000000000000000e+00  -7.7487952503772373e-03 -3.2556739399139036e-02 0.0000000000000000e+00  -7.7299696344280567e-03 -3.4326071533691695e-02 0.0000000000000000e+00  -7.7111119374745976e-03 -3.6098124842681933e-02 0.0000000000000000e+00  -7.6928993750775953e-03 -3.7872489833495969e-02 0.0000000000000000e+00  -7.6757611786421520e-03 -3.9648794680626306e-02 0.0000000000000000e+00  -7.6599419775401790e-03 -4.1426708477034564e-02 0.0000000000000000e+00  -7.6455520351785709e-03 -4.3205941663660846e-02 0.0000000000000000e+00  -7.6326065956748091e-03 -4.4986244563118734e-02 0.0000000000000000e+00  -7.6210562907041120e-03 -4.6767404712877450e-02 0.0000000000000000e+00  -7.6108102779800842e-03 -4.8549243510743183e-02 0.0000000000000000e+00  -7.6017535315767350e-03 -5.0331612542808546e-02 0.0000000000000000e+00  -7.5937594791170805e-03 -5.2114389853822163e-02 0.0000000000000000e+00  -7.5866989811837664e-03 -5.3897476335812371e-02 0.0000000000000000e+00  -7.5804464733282935e-03 -5.5680792347492972e-02 0.0000000000000000e+00  -7.5748839395362562e-03 -5.7464274630116358e-02 0.0000000000000000e+00  -7.5699032563427415e-03 -5.9247873551458614e-02 0.0000000000000000e+00  -7.5654073371128009e-03 -6.1031550685613216e-02 0.0000000000000000e+00  -7.5613104142941640e-03 -6.2815276719895174