<?xml version="1.0"?>
<VTKFile type="UnstructuredGrid"  version="0.1"  >
<UnstructuredGrid>
<Piece  NumberOfPoints="1250" NumberOfCells="2352">
<Points>
<DataArray  type="Float64"  NumberOfComponents="3"  format="ascii">0 0 0  0.0336 0 0  0.0336 0.07729999999999999 0  0 0.07729999999999999 0  0.001400000000000002 0 0  0.002800000000000005 0 0  0.004200000000000008 0 0  0.005600000000000009 0 0  0.007000000000000011 0 0  0.008400000000000013 0 0  0.009800000000000019 0 0  0.01120000000000002 0 0  0.01260000000000003 0 0  0.01400000000000003 0 0  0.01540000000000004 0 0  0.01680000000000005 0 0  0.01820000000000004 0 0  0.01960000000000004 0 0  0.02100000000000004 0 0  0.02240000000000003 0 0  0.02380000000000003 0 0  0.02520000000000002 0 0  0.02660000000000002 0 0  0.02800000000000001 0 0  0.02940000000000001 0 0  0.03080000000000001 0 0  0.0322 0 0  0.0336 0.001577551020408161 0  0.0336 0.003155102040816321 0  0.0336 0.004732653061224482 0  0.0336 0.006310204081632642 0  0.0336 0.007887755102040803 0  0.0336 0.009465306122448964 0  0.0336 0.01104285714285712 0  0.0336 0.01262040816326528 0  0.0336 0.01419795918367344 0  0.0336 0.0157755102040816 0  0.0336 0.01735306122448976 0  0.0336 0.01893061224489792 0  0.0336 0.02050816326530608 0  0.0336 0.02208571428571425 0  0.0336 0.02366326530612241 0  0.0336 0.02524081632653058 0  0.0336 0.02681836734693874 0  0.0336 0.02839591836734691 0  0.0336 0.02997346938775507 0  0.0336 0.03155102040816323 0  0.0336 0.0331285714285714 0  0.0336 0.03470612244897956 0  0.0336 0.03628367346938772 0  0.0336 0.03786122448979588 0  0.0336 0.03943877551020405 0  0.0336 0.04101632653061221 0  0.0336 0.04259387755102037 0  0.0336 0.04417142857142854 0  0.0336 0.04574897959183671 0  0.0336 0.04732653061224486 0  0.0336 0.04890408163265302 0  0.0336 0.05048163265306119 0  0.0336 0.05205918367346936 0  0.0336 0.05363673469387752 0  0.0336 0.05521428571428568 0  0.0336 0.05679183673469385 0  0.0336 0.05836938775510202 0  0.0336 0.05994693877551018 0  0.0336 0.06152448979591834 0  0.0336 0.0631020408163265 0  0.0336 0.06467959183673468 0  0.0336 0.06625714285714283 0  0.0336 0.06783469387755101 0  0.0336 0.06941224489795916 0  0.0336 0.07098979591836733 0  0.0336 0.07256734693877549 0  0.0336 0.07414489795918365 0  0.0336 0.07572244897959182 0  0.03219999999999999 0.07729999999999999 0  0.03079999999999999 0.07729999999999999 0  0.02939999999999999 0.07729999999999999 0  0.02799999999999999 0.07729999999999999 0  0.02659999999999999 0.07729999999999999 0  0.02519999999999999 0.07729999999999999 0  0.02379999999999998 0.07729999999999999 0  0.02239999999999998 0.07729999999999999 0  0.02099999999999997 0.07729999999999999 0  0.01959999999999996 0.07729999999999999 0  0.01819999999999996 0.07729999999999999 0  0.01679999999999995 0.07729999999999999 0  0.01539999999999996 0.07729999999999999 0  0.01399999999999996 0.07729999999999999 0  0.01259999999999996 0.07729999999999999 0  0.01119999999999997 0.07729999999999999 0  0.009799999999999972 0.07729999999999999 0  0.008399999999999977 0.07729999999999999 0  0.006999999999999978 0.07729999999999999 0  0.005599999999999983 0.07729999999999999 0  0.004199999999999988 0.07729999999999999 0  0.00279999999999999 0.07729999999999999 0  0.001399999999999998 0.07729999999999999 0  0 0.07572244897959184 0  0 0.07414489795918368 0  0 0.07256734693877551 0  0 0.07098979591836735 0  0 0.06941224489795919 0  0 0.06783469387755103 0  0 0.06625714285714288 0  0 0.06467959183673472 0  0 0.06310204081632656 0  0 0.0615244897959184 0  0 0.05994693877551023 0  0 0.05836938775510207 0  0 0.05679183673469392 0  0 0.05521428571428574 0  0 0.05363673469387759 0  0 0.05205918367346941 0  0 0.05048163265306126 0  0 0.04890408163265308 0  0 0.04732653061224493 0  0 0.04574897959183676 0  0 0.0441714285714286 0  0 0.04259387755102043 0  0 0.04101632653061228 0  0 0.03943877551020411 0  0 0.03786122448979595 0  0 0.03628367346938779 0  0 0.03470612244897962 0  0 0.03312857142857146 0  0 0.03155102040816329 0  0 0.02997346938775513 0  0 0.02839591836734697 0  0 0.0268183673469388 0  0 0.02524081632653064 0  0 0.02366326530612247 0  0 0.02208571428571431 0  0 0.02050816326530614 0  0 0.01893061224489798 0  0 0.01735306122448981 0  0 0.01577551020408165 0  0 0.01419795918367349 0  0 0.01262040816326532 0  0 0.01104285714285716 0  0 0.009465306122448988 0  0 0.00788775510204083 0  0 0.006310204081632659 0  0 0.004732653061224501 0  0 0.003155102040816343 0  0 0.001577551020408172 0  0.001400000000000004 0.001577551020408172 0  0.001400000000000004 0.003155102040816329 0  0.001400000000000002 0.004732653061224501 0  0.001400000000000002 0.006310204081632645 0  0.001400000000000005 0.007887755102040823 0  0.001400000000000002 0.009465306122448981 0  0.001400000000000002 0.01104285714285717 0  0.001400000000000004 0.01262040816326531 0  0.0014 0.01419795918367349 0  0.001400000000000002 0.01577551020408166 0  0.001400000000000005 0.0173530612244898 0  0.001400000000000002 0.01893061224489797 0  0.001400000000000002 0.02050816326530613 0  0.001400000000000002 0.02208571428571431 0  0.001400000000000002 0.02366326530612247 0  0.001400000000000002 0.02524081632653063 0  0.001400000000000002 0.0268183673469388 0  0.001400000000000002 0.02839591836734696 0  0.001400000000000002 0.02997346938775513 0  0.001400000000000002 0.03155102040816328 0  0.001400000000000002 0.03312857142857147 0  0.001399999999999997 0.03470612244897962 0  0.001400000000000005 0.03628367346938778 0  0.001400000000000002 0.03786122448979594 0  0.001400000000000002 0.03943877551020411 0  0.001400000000000002 0.04101632653061228 0  0.001400000000000002 0.04259387755102043 0  0.001400000000000002 0.0441714285714286 0  0.0014 0.04574897959183676 0  0.001400000000000002 0.04732653061224492 0  0.001400000000000004 0.04890408163265308 0  0.001400000000000002 0.05048163265306126 0  0.001400000000000002 0.05205918367346941 0  0.0014 0.05363673469387758 0  0.001400000000000004 0.05521428571428574 0  0.001399999999999998 0.05679183673469391 0  0.001400000000000002 0.05836938775510207 0  0.0014 0.05994693877551023 0  0.001400000000000002 0.0615244897959184 0  0.001400000000000002 0.06310204081632656 0  0.001400000000000002 0.06467959183673472 0  0.0014 0.06625714285714286 0  0.001400000000000002 0.06783469387755102 0  0.001399999999999998 0.06941224489795919 0  0.001400000000000002 0.07098979591836735 0  0.0014 0.07256734693877552 0  0.001400000000000002 0.07414489795918368 0  0.001400000000000002 0.07572244897959184 0  0.002800000000000006 0.001577551020408165 0  0.002800000000000004 0.003155102040816343 0  0.002800000000000002 0.004732653061224487 0  0.002800000000000002 0.006310204081632652 0  0.002800000000000002 0.007887755102040813 0  0.0028 0.009465306122448981 0  0.002799999999999997 0.01104285714285715 0  0.0028 0.01262040816326532 0  0.0028 0.01419795918367348 0  0.0028 0.01577551020408165 0  0.002799999999999997 0.0173530612244898 0  0.0028 0.01893061224489797 0  0.002800000000000004 0.02050816326530613 0  0.0028 0.0220857142857143 0  0.0028 0.02366326530612247 0  0.002800000000000004 0.02524081632653064 0  0.0028 0.0268183673469388 0  0.0028 0.02839591836734696 0  0.002799999999999995 0.02997346938775512 0  0.002799999999999997 0.03155102040816328 0  0.002799999999999995 0.03312857142857146 0  0.0028 0.03470612244897962 0  0.002799999999999995 0.03628367346938778 0  0.002799999999999997 0.03786122448979594 0  0.002799999999999997 0.03943877551020411 0  0.002799999999999997 0.04101632653061228 0  0.002799999999999997 0.04259387755102043 0  0.002799999999999995 0.0441714285714286 0  0.002799999999999997 0.04574897959183676 0  0.002799999999999997 0.04732653061224493 0  0.002799999999999995 0.04890408163265308 0  0.002799999999999993 0.05048163265306124 0  0.002799999999999995 0.05205918367346941 0  0.002799999999999995 0.05363673469387757 0  0.002799999999999992 0.05521428571428574 0  0.002799999999999997 0.05679183673469391 0  0.002799999999999993 0.05836938775510207 0  0.002799999999999993 0.05994693877551022 0  0.002799999999999992 0.0615244897959184 0  0.002799999999999988 0.06310204081632655 0  0.002799999999999992 0.0646795918367347 0  0.002799999999999992 0.06625714285714286 0  0.00279999999999999 0.06783469387755103 0  0.00279999999999999 0.06941224489795919 0  0.002799999999999988 0.07098979591836735 0  0.00279999999999999 0.07256734693877552 0  0.002799999999999988 0.07414489795918368 0  0.00279999999999999 0.07572244897959184 0  0.004200000000000006 0.001577551020408172 0  0.004200000000000006 0.003155102040816329 0  0.004200000000000008 0.00473265306122448 0  0.004200000000000009 0.006310204081632652 0  0.004200000000000008 0.00788775510204082 0  0.004200000000000008 0.009465306122448978 0  0.004200000000000006 0.01104285714285716 0  0.004200000000000006 0.01262040816326532 0  0.004200000000000004 0.01419795918367349 0  0.004200000000000002 0.01577551020408165 0  0.004200000000000004 0.0173530612244898 0  0.004200000000000006 0.01893061224489797 0  0.004200000000000006 0.02050816326530613 0  0.004200000000000002 0.0220857142857143 0  0.004200000000000004 0.02366326530612247 0  0.004199999999999999 0.02524081632653062 0  0.004200000000000004 0.0268183673469388 0  0.004200000000000004 0.02839591836734696 0  0.004200000000000002 0.02997346938775512 0  0.004199999999999999 0.03155102040816328 0  0.004200000000000001 0.03312857142857145 0  0.004200000000000001 0.03470612244897962 0  0.004199999999999995 0.03628367346938778 0  0.004199999999999999 0.03786122448979594 0  0.004199999999999999 0.0394387755102041 0  0.004199999999999997 0.04101632653061227 0  0.004199999999999999 0.04259387755102043 0  0.004199999999999999 0.04417142857142859 0  0.004199999999999999 0.04574897959183676 0  0.004199999999999999 0.04732653061224492 0  0.004199999999999997 0.04890408163265308 0  0.004199999999999997 0.05048163265306124 0  0.004199999999999999 0.05205918367346941 0  0.004199999999999992 0.05363673469387757 0  0.0
[...]
<PointData  Vectors="displacement"> 
<DataArray  type="Float64"  Name="displacement"  NumberOfComponents="3" format="ascii">0.0000000000000000e+00 0.0000000000000000e+00 0.0000000000000000e+00  0.0000000000000000e+00 0.0000000000000000e+00 0.0000000000000000e+00  1.6117161419030679e+00 -3.5368257550444246e+00 0.0000000000000000e+00  -1.1678030401498571e-01 -3.1763756333417801e+00 0.0000000000000000e+00  0.0000000000000000e+00 0.0000000000000000e+00 0.0000000000000000e+00  0.0000000000000000e+00 0.0000000000000000e+00 0.0000000000000000e+00  0.0000000000000000e+00 0.0000000000000000e+00 0.0000000000000000e+00  0.0000000000000000e+00 0.0000000000000000e+00 0.0000000000000000e+00  0.0000000000000000e+00 0.0000000000000000e+00 0.0000000000000000e+00  0.0000000000000000e+00 0.0000000000000000e+00 0.0000000000000000e+00  0.0000000000000000e+00 0.0000000000000000e+00 0.0000000000000000e+00  0.0000000000000000e+00 0.0000000000000000e+00 0.0000000000000000e+00  0.0000000000000000e+00 0.0000000000000000e+00 0.0000000000000000e+00  0.0000000000000000e+00 0.0000000000000000e+00 0.0000000000000000e+00  0.0000000000000000e+00 0.0000000000000000e+00 0.0000000000000000e+00  0.0000000000000000e+00 0.0000000000000000e+00 0.0000000000000000e+00  0.0000000000000000e+00 0.0000000000000000e+00 0.0000000000000000e+00  0.0000000000000000e+00 0.0000000000000000e+00 0.0000000000000000e+00  0.0000000000000000e+00 0.0000000000000000e+00 0.0000000000000000e+00  0.0000000000000000e+00 0.0000000000000000e+00 0.0000000000000000e+00  0.0000000000000000e+00 0.0000000000000000e+00 0.0000000000000000e+00  0.0000000000000000e+00 0.0000000000000000e+00 0.0000000000000000e+00  0.0000000000000000e+00 0.0000000000000000e+00 0.0000000000000000e+00  0.0000000000000000e+00 0.0000000000000000e+00 0.0000000000000000e+00  0.0000000000000000e+00 0.0000000000000000e+00 0.0000000000000000e+00  0.0000000000000000e+00 0.0000000000000000e+00 0.0000000000000000e+00  0.0000000000000000e+00 0.0000000000000000e+00 0.0000000000000000e+00  8.2840122053771753e-02 -7.9435837783949137e-02 0.0000000000000000e+00  1.4527874182329062e-01 -1.4345317379544592e-01 0.0000000000000000e+00  2.0734427881471643e-01 -2.0642542907462383e-01 0.0000000000000000e+00  2.6788558724502065e-01 -2.6817571977410715e-01 0.0000000000000000e+00  3.2778986598296933e-01 -3.2933342358550799e-01 0.0000000000000000e+00  3.8690780931614288e-01 -3.8979088352869357e-01 0.0000000000000000e+00  4.4525789533857857e-01 -4.4957575487922458e-01 0.0000000000000000e+00  5.0284975962764467e-01 -5.0869173983243499e-01 0.0000000000000000e+00  5.5967686785166793e-01 -5.6714711988223343e-01 0.0000000000000000e+00  6.1571842480489369e-01 -6.2496336830589794e-01 0.0000000000000000e+00  6.7094143439636023e-01 -6.8216762503383521e-01 0.0000000000000000e+00  7.2532360345815416e-01 -7.3876615211195040e-01 0.0000000000000000e+00  7.7889087922494371e-01 -7.9470431139537268e-01 0.0000000000000000e+00  8.3174854282366706e-01 -8.4984566071285528e-01 0.0000000000000000e+00  8.8405977276665637e-01 -9.0401034860972551e-01 0.0000000000000000e+00  9.3593865064783177e-01 -9.5708871743481949e-01 0.0000000000000000e+00  9.8728207039987326e-01 -1.0091957230616755e+00 0.0000000000000000e+00  1.0376298785571059e+00 -1.0607997336638013e+00 0.0000000000000000e+00  1.0861418692885141e+00 -1.1127612581472044e+00 0.0000000000000000e+00  1.1317145701064786e+00 -1.1662510679678419e+00 0.0000000000000000e+00  1.1731899006435906e+00 -1.2225615313201272e+00 0.0000000000000000e+00  1.2095794597318379e+00 -1.2828629749796729e+00 0.0000000000000000e+00  1.2402509929856835e+00 -1.3479853036769240e+00 0.0000000000000000e+00  1.2650429230523130e+00 -1.4182925182105119e+00 0.0000000000000000e+00  1.2842800230502902e+00 -1.4936716096318836e+00 0.0000000000000000e+00  1.2986894981477390e+00 -1.5736142747372512e+00 0.0000000000000000e+00  1.3092523743401143e+00 -1.6573503066084312e+00 0.0000000000000000e+00  1.3170447409199277e+00 -1.7439931285878965e+00 0.0000000000000000e+00  1.3231087568526958e+00 -1.8326640748417091e+00 0.0000000000000000e+00  1.3283632632154594e+00 -1.9225710294783827e+00 0.0000000000000000e+00  1.3335603384529451e+00 -2.0130473601951850e+00 0.0000000000000000e+00  1.3392807583897739e+00 -2.1035642072379188e+00 0.0000000000000000e+00  1.3459496337200259e+00 -2.1937229973183521e+00 0.0000000000000000e+00  1.3538597342736569e+00 -2.2832380887006023e+00 0.0000000000000000e+00  1.3631953682074704e+00 -2.3719175136378858e+00 0.0000000000000000e+00  1.3740527901350210e+00 -2.4596459128264758e+00 0.0000000000000000e+00  1.3864560170451699e+00 -2.5463711142556815e+00 0.0000000000000000e+00  1.4003687222413435e+00 -2.6320938896413217e+00 0.0000000000000000e+00  1.4157039295391813e+00 -2.7168596541939873e+00 0.0000000000000000e+00  1.4323331721718673e+00 -2.8007506820820121e+00 0.0000000000000000e+00  1.4500962920554687e+00 -2.8838777806736404e+00 0.0000000000000000e+00  1.4688123010347875e+00 -2.9663710321684342e+00 0.0000000000000000e+00  1.4882908963536656e+00 -3.0483699058055289e+00 0.0000000000000000e+00  1.5083436388408820e+00 -3.1300135362334154e+00 0.0000000000000000e+00  1.5287936023709370e+00 -3.2114321356755937e+00 0.0000000000000000e+00  1.5494825268461891e+00 -3.2927404125617818e+00 0.0000000000000000e+00  1.5702750872775038e+00 -3.3740337363911284e+00 0.0000000000000000e+00  1.5910583694366105e+00 -3.4553855438017758e+00 0.0000000000000000e+00  1.5404611021380092e+00 -3.5186200629366464e+00 0.0000000000000000e+00  1.4690526764149205e+00 -3.5005305000650981e+00 0.0000000000000000e+00  1.3974968297640160e+00 -3.4826239806383863e+00 0.0000000000000000e+00  1.3257890236073373e+00 -3.4649328113570026e+00 0.0000000000000000e+00  1.2539308567576541e+00 -3.4474792980470905e+00 0.0000000000000000e+00  1.1819315018656209e+00 -3.4302823415036490e+00 0.0000000000000000e+00  1.1098049694574290e+00 -3.4133583542856085e+00 0.0000000000000000e+00  1.0375688634607003e+00 -3.3967224455248246e+00 0.0000000000000000e+00  9.6524338337032733e-01 -3.3803889156117330e+00 0.0000000000000000e+00  8.9285056957432296e-01 -3.3643713457138071e+00 0.0000000000000000e+00  8.2041363422642588e-01 -3.3486823805266006e+00 0.0000000000000000e+00  7.4795632386744237e-01 -3.3333333538532064e+00 0.0000000000000000e+00  6.7550227731867540e-01 -3.3183338594031611e+00 0.0000000000000000e+00  6.0307436954141713e-01 -3.3036913402253796e+00 0.0000000000000000e+00  5.3069403614445942e-01 -3.2894107340506449e+00 0.0000000000000000e+00  4.5838056678076011e-01 -3.2754941794490340e+00 0.0000000000000000e+00  3.8615034685366684e-01 -3.2619407623494752e+00 0.0000000000000000e+00  3.1401602788436850e-01 -3.2487462662052993e+00 0.0000000000000000e+00  2.4198560063237190e-01 -3.2359028796562499e+00 0.0000000000000000e+00  1.7006137913361702e-01 -3.2233988008362120e+00 0.0000000000000000e+00  9.8238844775374215e-02 -3.2112177357718035e+00 0.0000000000000000e+00  2.6505743134475089e-02 -3.1993382256564540e+00 0.0000000000000000e+00  -4.5159474389454127e-02 -3.1877339453538704e+00 0.0000000000000000e+00  -1.2948321619946618e-01 -3.0945031005804009e+00 0.0000000000000000e+00  -1.4227209606478231e-01 -3.0128035478694661e+00 0.0000000000000000e+00  -1.5522147966610939e-01 -2.9312082976869549e+00 0.0000000000000000e+00  -1.6843228377414066e-01 -2.8496254696407406e+00 0.0000000000000000e+00  -1.8202252915286524e-01 -2.7679509458446807e+00 0.0000000000000000e+00  -1.9612084749452130e-01 -2.6860739341061466e+00 0.0000000000000000e+00  -2.1085852251045645e-01 -2.6038841379347355e+00 0.0000000000000000e+00  -2.2635857990602271e-01 -2.5212816918083965e+00 0.0000000000000000e+00  -2.4272328092097095e-01 -2.4381886642362502e+00 0.0000000000000000e+00  -2.6002421925410379e-01 -2.3545579443558853e+00 0.0000000000000000e+00  -2.7830044288983929e-01 -2.2703741260243784e+00 0.0000000000000000e+00  -2.9756561668437037e-01 -2.1856453717554416e+00 0.0000000000000000e+00  -3.1781937096385038e-01 -2.1003911113693325e+00 0.0000000000000000e+00  -3.3905663272734987e-01 -2.0146318100264806e+00 0.0000000000000000e+00  -3.6127185484912522e-01 -1.9283839030894294e+00 0.0000000000000000e+00  -3.8445978432362027e-01 -1.8416582607569474e+00 0.0000000000000000e+00  -4.0861465368275163e-01 -1.7544601498097547e+00 0.0000000000000000e+00  -4.3372906859880245e-01 -1.6667892604297156e+00 0.0000000000000000e+00  -4.5979193502314009e-01 -1.5786401718468448e+00 0.0000000000000000e+00  -4.8678665257226411e-01 -1.4900019320566118e+00 0.0000000000000000e+00  -5.1468959498870004e-01 -1.4008567249875430e+00 0.0000000000000000e+00  -5.4346523873432995e-01 -1.3111813896478526e+00 0.0000000000000000e+00  -5.7305624387426113e-01 -1.2209549610166717e+00 0.0000000000000000e+00  -6.0339591527000036e-01 -1.1301463797169942e+00 0.0000000000000000e+00  -6.3443726490152197e-01 -1.0386822798035866e+00 0.0000000000000000e+00  -6.6594225513744543e-01 -9.4666310540278820e-01 0.0000000000000000e+00  -6.9518230104483147e-01 -8.5664698509485404e-01 0.0000000000000000e+00  -7.0966162625014961e-01 -7.8067329964968046e-01 0.0000000000000000e+00  -6.9585701635469277e-01 -7.3159628891787087e-01 0.0000000000000000e+00  -6.6657932178145862e-01 -6.9652903358861462e-01 0.0000000000000000e+00  -6.3464801448943742e-01 -6.6209169020432790e-01 0.0000000000000000e+00  -6.0156498004029535e-01 -6.2646806224451190e-01 0.0000000000000000e+00  -5.6725494304919977e-01 -5.8963655890386724e-01 0.0000000000000000e+00  -5.3164391665054000e-01 -5.5159036503778203e-01 0.0000000000000000e+00  -4.9469264768276078e-01 -5.1234673862193214e-01 0.0000000000000000e+00  -4.5646448390380340e-01 -4.7191138015924727e-01 0.0000000000000000e+00  -4.1704343217356077e-01 -4.3037914743864381e-01 0.0000000000000000e+00  -3.7656481369010647e-01 -3.8793044905550589e-01 0.0000000000000000e+00  -3.3533199443252237e-01 -3.4474102719044675e-01 0.0000000000000000e+00  -2.9357241171497178e-01 -3.0123499770465584e-01 0.0000000000000000e+00  -2.5184489024948620e-01 -2.5774076167045240e-01 0.0000000000000000e+00  -2.1058333330731946e-01 -2.1494401611022890e-01 0.0000000000000000e+00  -1.7063545470253882e-01 -1.7344041717285413e-01 0.0000000000000000e+00  -1.3278399304924776e-01 -1.3418152429838087e-01 0.0000000000000000e+00  -9.8031901627067167e-02 -9.8168609275150170e-02 0.0000000000000000e+00  -6.7240883020000641e-02 -6.6636591248181207e-02 0.0000000000000000e+00  -4.2739700822343546e-02 -3.9024325198626579e-02 0.0000000000000000e+00  -2.0186738452838773e-02 -1.9459438600645106e-02 0.0000000000000000e+00  -8.3627709787851088e-03 -6.2659859557989035e-03 0.0000000000000000e+00  -2.3045822874525817e-02 -2.1874439541540502e-02 0.0000000000000000e+00  -4.4329459863248516e-02 -4.3333162561999858e-02 0.0000000000000000e+00  -7.0446134491561840e-02 -7.0880849267773646e-02 0.0000000000000000e+00  -1.0145840336858036e-01 -1.0332468979753263e-01 0.0000000000000000e+00  -1.3649160494769261e-01 -1.3986758138352642e-01 0.0000000000000000e+00  -1.7459867826555081e-01 -1.7944830784339447e-01 0.0000000000000000e+00  -2.1467859866857777e-01 -2.2119874261642700e-01 0.0000000000000000e+00  -2.5596062588754154e-01 -2.6418506214346449e-01 0.0000000000000000e+00  -2.9767018095714626e-01 -3.0777350118764640e-01 0.0000000000000000e+00  -3.3931106310135661e-01 -3.5136209919085626e-01 0.0000000000000000e+00  -3.8043580251754910e-01 -3.9454206204005265e-01 0.0000000000000000e+00  -4.2071326592503616e-01 -4.3700706356844954e-01 0.0000000000000000e+00  -4.5994814867330858e-01 -4.7849638237584075e-01 0.0000000000000000e+00  -4.9794474749419371e-01 -5.1890463635669604e-01 0.0000000000000000e+00  -5.3465533006766941e-01 -5.5811519381379449e-01 0.0000000000000000e+00  -5.7007310249621623e-01 -5.9607362047125778e-01 0.0000000000000000e+00  -6.0426077259401478e-01 -6.3272708006152945e-01 0.0000000000000000e+00  -6.3601798105843477e-01 -6.6938714432712298e-01 0.0000000000000000e+00  -6.5420759103314730e-01 -7.1743241658446189e-01 0.0000000000000000e+00  -6.4408422332489579e-01 -7.9165537932376406e-01 0.0000000000000000e+00  -6.1648214860039507e-01 -8.8184647323162069e-01 0.0000000000000000e+00  -5.8534033922878814e-01 -9.7444390234018163e-01 0.0000000000000000e+00  -5.5436069116051401e-01 -1.0662155044108528e+00 0.0000000000000000e+00  -5.2395246451569943e-01 -1.1571281110072336e+00 0.0000000000000000e+00  -4.9417288429800599e-01 -1.2473286810303654e+00 0.0000000000000000e+00  -4.6510770699483961e-01 -1.3368740065877580e+00 0.0000000000000000e+00  -4.3683224618928962e-01 -1.4258074016424747e+00 0.0000000000000000e+00  -4.0940085778161234e-01 -1.5141709875493032e+00 0.0000000000000000e+00  -3.8285495923723140e-01 -1.6019993250137299e+00 0.0000000000000000e+00  -3.5722575996897965e-01 -1.6893178726321079e+00 0.0000000000000000e+00  -3.3253595855859674e-01 -1.7761437586800017e+00 0.0000000000000000e+00  -3.0880197249235164e-01 -1.8624867439996935e+00 0.0000000000000000e+00  -2.8603668084300382e-01 -1.9483493515173480e+00 0.0000000000000000e+00  -2.6425121472139618e-01 -2.0337272494917045e+00 0.0000000000000000e+00  -2.4345609112304883e-01 -2.1186096239791841e+00 0.0000000000000000e+00  -2.2366086325623330e-01 -2.2029805952638437e+00 0.0000000000000000e+00  -2.0487041203801731e-01 -2.2868237831663447e+00 0.0000000000000000e+00  -1.8707610068715633e-01 -2.3701319385801050e+00 0.0000000000000000e+00  -1.7024432013312246e-01 -2.4529192360485519e+00 0.0000000000000000e+00  -1.5430848025834965e-01 -2.5352301813079570e+00 0.0000000000000000e+00  -1.3916973032407695e-01 -2.6171398460652338e+00 0.0000000000000000e+00  -1.2470616519477207e-01 -2.6987456516495927e+00 0.0000000000000000e+00  -1.1078532851360330e-01 -2.7801558592734992e+00 0.0000000000000000e+00  -9.7275442530687845e-02 -2.8614793300233634e+00 0.0000000000000000e+00  -8.4053762019001055e-02 -2.9428181272276825e+00 0.0000000000000000e+00  -7.1013319870927280e-02 -3.0242618778616732e+00 0.0000000000000000e+00  -5.8071360659158883e-02 -3.1058795523585889e+00 0.0000000000000000e+00  -3.3616156475599107e-03 -2.9340078656539289e-03 0.0000000000000000e+00  -1.1417160757936660e-02 -1.0580296993849206e-02 0.0000000000000000e+00  -2.5709000350068140e-02 -2.5540750002799172e-02 0.0000000000000000e+00  -4.6708682826605286e-02 -4.7502586556556051e-02 0.0000000000000000e+00  -7.3376097671563612e-02 -7.5572136549688390e-02 0.0000000000000000e+00  -1.0490900064531977e-01 -1.0859090233175717e-01 0.0000000000000000e+00  -1.4029835620514025e-01 -1.4561227697798074e-01 0.0000000000000000e+00  -1.7857999410693148e-01 -1.8558762635441389e-01 0.0000000000000000e+00  -2.1876545350069795e-01 -2.2758383143524735e-01 0.0000000000000000e+00  -2.6002226862692979e-01 -2.7077365688655791e-01 0.0000000000000000e+00  -3.0169306204840146e-01 -3.1445117757838270e-01 0.0000000000000000e+00  -3.4319059608063052e-01 -3.5812551008888233e-01 0.0000000000000000e+00  -3.8416195177586876e-01 -4.0132260229794514e-01 0.0000000000000000e+00  -4.2423718683103739e-01 -4.4379115052363066e-01 0.0000000000000000e+00  -4.6323725160831647e-01 -4.8527399361477397e-01 0.0000000000000000e+00  -5.0103100460617778e-01 -5.2561243656418000e-01 0.0000000000000000e+00  -5.3760387829007461e-01 -5.6465124650860243e-01 0.0000000000000000e+00  -5.7201311487407791e-01 -6.0328868928863266e-01 0.0000000000000000e+00  -5.9499855265411550e-01 -6.5096713937332573e-01 0.0000000000000000e+00  -5.9001482027857399e-01 -7.2393138798527068e-01 0.0000000000000000e+00  -5.6486113948862027e-01 -8.1487769146819655e-01 0.0000000000000000e+00  -5.3494390679562853e-01 -9.0880245353528610e-01 0.0000000000000000e+00  -5.0471130071951376e-01 -1.0015621401499577e+00 0.0000000000000000e+00  -4.7467024113205569e-01 -1.0930642179066856e+00 0.0000000000000000e+00  -4.4498689990735552e-01 -1.1835631385404655e+00 0.0000000000000000e+00  -4.1584617823540349e-01 -1.2732076898401612e+00 0.0000000000000000e+00  -3.8736946776300840e-01 -1.3621022482993643e+00 0.0000000000000000e+00  -3.5963669001552612e-01 -1.4503240794077858e+00 0.0000000000000000e+00  -3.3270963444077151e-01 -1.5379311973369210e+00 0.0000000000000000e+00  -3.0663798148533949e-01 -1.6249682459900785e+00 0.0000000000000000e+00  -2.8146116598501253e-01 -1.7114688423944993e+00 0.0000000000000000e+00  -2.5720955186558736e-01 -1.7974567682655551e+00 0.0000000000000000e+00  -2.3390702620525131e-01 -1.8829461217379921e+00 0.0000000000000000e+00  -2.1157342027305479e-01 -1.9679419201612776e+00 0.0000000000000000e+00  -1.9022620536487150e-01 -2.0524410271571902e+00 0.0000000000000000e+00  -1.6988093782181918e-01 -2.1364337821320145e+00 0.0000000000000000e+00  -1.5054835141473130e-01 -2.2199083523311760e+00 0.0000000000000000e+00  -1.3222620294165832e-01 -2.3028599131021514e+00 0.0000000000000000e+00  -1.1488781130758677e-01 -2.3853029556392453e+00 0.0000000000000000e+00  -9.8473234286201000e-02 -2.4672809485831011e+00 0.0000000000000000e+00  -8.2888810253473583e-02 -2.5488677023872977e+00 0.0000000000000000e+00  -6.8015617398081069e-02 -2.6301598636237813e+00 0.0000000000000000e+00  -5.3721920120718442e-02 -2.7112654096425581e+00 0.0000000000000000e+00  -3.9874679651720348e-02 -2.7922930594437432e+00 0.0000000000000000e+00  -2.6348232489595055e-02 -2.8733445237831523e+00 0.0000000000000000e+00  -1.3031200995631390e-02 -2.9545086702520913e+00 0.0000000000000000e+00  1.6637495759305038e-04 -3.0358548306985851e+00 0.0000000000000000e+00  1.3316860193073678e-02 -3.1174409040286513e+00 0.0000000000000000e+00  -2.1119591503568282e-03 -2.1770030586542796e-03 0.0000000000000000e+00  -5.6431114384126822e-03 -5.7576360223545548e-03 0.0000000000000000e+00  -1.3587008931341432e-02 -1.4124126640346034e-02 0.0000000000000000e+00  -2.8021248511250360e-02 -2.9466146362273363e-02 0.0000000000000000e+00  -4.9264019001337075e-02 -5.1864671575740526e-02 0.0000000000000000e+00  -7.6383803727112551e-02 -8.0441511352967204e-02 0.0000000000000000e+00  -1.0831120492090016e-01 -1.1405391382195773e-01 0.0000000000000000e+00  -1.4403032064220228e-01 -1.5154243360000061e-01 0.0000000000000000e+00  -1.8246443334823698e-01 -1.9191086022176701e-01 0.0000000000000000e+00  -2.2273959580674535e-01 -2.3414964102170951e-01 0.0000000000000000e+00  -2.6395911104086517e-01 -2.7753425422780720e-01 0.0000000000000000e+00  -3.0554803458269236e-01 -3.2132350963920725e-01 0.0000000000000000e+00  -3.4690971016092492e-01 -3.6506235801968001e-01 0.0000000000000000e+00  -3.8768395370179376e-01 -4.0830736633900255e-01 0.0000000000000000e+00  -4.2757387219658483e-01 -4.5074742927723510e-01 0.0000000000000000e+00  -4.6643564503735746e-01 -4.9209057092858133e-01 0.0000000000000000e+00  -5.0347041340476806e-01 -5.3285139956547400e-01 0.0000000000000000e+00  -5.3120904796695512e-01 -5.8055828158702161e-01 0.0000000000000000e+00  -5.3182948686095921e-01 -6.5244654592554585e-01 0.0000000000000000e+00  -5.0983399769760074e-01 -7.4448592634620248e-01 0.0000000000000000e+00  -4.8184594203226327e-01 -8.4035290475420554e-01 0.0000000000000000e+00  -4.5309453306754011e-01 -9.3482539925712760e-01 0.0000000000000000e+00  -4.2415714316969977e-01 -1.0276591063149905e+00 0.0000000000000000e+00  -3.9518060531288313e-01 -1.1190928863691549e+00 0.0000000000000000e+00  -3.6640113087004572e-01 -1.2093091151401811e+00 0.0000000000000000e+00  -3.3802665746746108e-01 -1.2984960008177466e+00 0.0000000000000000e+00  -3.1021415565058696e-01 -1.3868111059809618e+00 0.0000000000000000e+00  -2.8307566610717816e-01 -1.4743699595565165e+00 0.0000000000000000e+00  -2.5669203988080863e-01 -1.5612550443974305e+00 0.0000000000000000e+00  -2.3112541844816403e-01 -1.6475258442339733e+00 0.0000000000000000e+00  -2.0642498061784423e-01 -1.7332261136766562e+00 0.0000000000000000e+00  -1.8263058452137215e-01 -1.8183865395143206e+00 0.0000000000000000e+00  -1.5977531938404460e-01 -1.9030258691983797e+00 0.0000000000000000e+00  -1.3788725695048315e-01 -1.9871521680885686e+00 0.0000000000000000e+00  -1.1699058853939216e-01 -2.0707646794070929e+00 0.0000000000000000e+00  -9.7103770893843255e-02 -2.1538581842322730e+00 0.00000