<?xml version="1.0"?>
<VTKFile type="UnstructuredGrid"  version="0.1"  >
<UnstructuredGrid>
<Piece  NumberOfPoints="3167" NumberOfCells="6038">
<Points>
<DataArray  type="Float64"  NumberOfComponents="3"  format="ascii">2.2 2.9 0  0 2.9 0  2.8 2.9 0  5 2.9 0  5 0 0  0 0 0  2.16271186440678 2.9 0  2.125423728813559 2.9 0  2.088135593220339 2.9 0  2.050847457627119 2.9 0  2.013559322033898 2.9 0  1.976271186440678 2.9 0  1.938983050847457 2.9 0  1.901694915254237 2.9 0  1.864406779661016 2.9 0  1.827118644067796 2.9 0  1.789830508474575 2.9 0  1.752542372881355 2.9 0  1.715254237288134 2.9 0  1.677966101694914 2.9 0  1.640677966101693 2.9 0  1.603389830508473 2.9 0  1.566101694915253 2.9 0  1.528813559322032 2.9 0  1.491525423728812 2.9 0  1.454237288135591 2.9 0  1.416949152542371 2.9 0  1.37966101694915 2.9 0  1.34237288135593 2.9 0  1.305084745762709 2.9 0  1.267796610169489 2.9 0  1.230508474576268 2.9 0  1.193220338983048 2.9 0  1.155932203389827 2.9 0  1.118644067796607 2.9 0  1.081355932203387 2.9 0  1.044067796610166 2.9 0  1.006779661016946 2.9 0  0.9694915254237257 2.9 0  0.9322033898305055 2.9 0  0.8949152542372856 2.9 0  0.8576271186440652 2.9 0  0.820338983050845 2.9 0  0.783050847457625 2.9 0  0.7457627118644048 2.9 0  0.7084745762711844 2.9 0  0.6711864406779642 2.9 0  0.633898305084744 2.9 0  0.5966101694915238 2.9 0  0.5593220338983036 2.9 0  0.5220338983050834 2.9 0  0.4847457627118632 2.9 0  0.447457627118643 2.9 0  0.4101694915254228 2.9 0  0.3728813559322024 2.9 0  0.3355932203389822 2.9 0  0.2983050847457622 2.9 0  0.2610169491525418 2.9 0  0.2237288135593216 2.9 0  0.1864406779661016 2.9 0  0.1491525423728812 2.9 0  0.1118644067796613 2.9 0  0.07457627118644039 2.9 0  0.03728813559321997 2.9 0  2.792405063291139 2.9 0  2.784810126582279 2.9 0  2.777215189873418 2.9 0  2.769620253164557 2.9 0  2.762025316455697 2.9 0  2.754430379746836 2.9 0  2.746835443037975 2.9 0  2.739240506329114 2.9 0  2.731645569620254 2.9 0  2.724050632911393 2.9 0  2.716455696202532 2.9 0  2.708860759493671 2.9 0  2.701265822784811 2.9 0  2.69367088607595 2.9 0  2.686075949367089 2.9 0  2.678481012658228 2.9 0  2.670886075949368 2.9 0  2.663291139240507 2.9 0  2.655696202531646 2.9 0  2.648101265822786 2.9 0  2.640506329113925 2.9 0  2.632911392405064 2.9 0  2.625316455696203 2.9 0  2.617721518987342 2.9 0  2.610126582278482 2.9 0  2.602531645569621 2.9 0  2.59493670886076 2.9 0  2.587341772151899 2.9 0  2.579746835443038 2.9 0  2.572151898734178 2.9 0  2.564556962025317 2.9 0  2.556962025316456 2.9 0  2.549367088607595 2.9 0  2.541772151898734 2.9 0  2.534177215189874 2.9 0  2.526582278481013 2.9 0  2.518987341772152 2.9 0  2.511392405063292 2.9 0  2.503797468354431 2.9 0  2.49620253164557 2.9 0  2.488607594936709 2.9 0  2.481012658227848 2.9 0  2.473417721518988 2.9 0  2.465822784810127 2.9 0  2.458227848101266 2.9 0  2.450632911392406 2.9 0  2.443037974683545 2.9 0  2.435443037974684 2.9 0  2.427848101265823 2.9 0  2.420253164556962 2.9 0  2.412658227848102 2.9 0  2.405063291139241 2.9 0  2.39746835443038 2.9 0  2.389873417721519 2.9 0  2.382278481012658 2.9 0  2.374683544303798 2.9 0  2.367088607594937 2.9 0  2.359493670886076 2.9 0  2.351898734177215 2.9 0  2.344303797468355 2.9 0  2.336708860759494 2.9 0  2.329113924050633 2.9 0  2.321518987341773 2.9 0  2.313924050632912 2.9 0  2.306329113924051 2.9 0  2.29873417721519 2.9 0  2.291139240506329 2.9 0  2.283544303797469 2.9 0  2.275949367088608 2.9 0  2.268354430379747 2.9 0  2.260759493670887 2.9 0  2.253164556962026 2.9 0  2.245569620253165 2.9 0  2.237974683544304 2.9 0  2.230379746835443 2.9 0  2.222784810126583 2.9 0  2.215189873417722 2.9 0  2.207594936708861 2.9 0  4.96271186440678 2.9 0  4.925423728813559 2.9 0  4.888135593220339 2.9 0  4.850847457627118 2.9 0  4.813559322033898 2.9 0  4.776271186440677 2.9 0  4.738983050847457 2.9 0  4.701694915254237 2.9 0  4.664406779661016 2.9 0  4.627118644067796 2.9 0  4.589830508474575 2.9 0  4.552542372881355 2.9 0  4.515254237288135 2.9 0  4.477966101694914 2.9 0  4.440677966101694 2.9 0  4.403389830508473 2.9 0  4.366101694915252 2.9 0  4.328813559322032 2.9 0  4.291525423728811 2.9 0  4.254237288135591 2.9 0  4.21694915254237 2.9 0  4.17966101694915 2.9 0  4.14237288135593 2.9 0  4.105084745762709 2.9 0  4.067796610169489 2.9 0  4.030508474576268 2.9 0  3.993220338983048 2.9 0  3.955932203389827 2.9 0  3.918644067796607 2.9 0  3.881355932203387 2.9 0  3.844067796610166 2.9 0  3.806779661016946 2.9 0  3.769491525423725 2.9 0  3.732203389830505 2.9 0  3.694915254237285 2.9 0  3.657627118644065 2.9 0  3.620338983050845 2.9 0  3.583050847457625 2.9 0  3.545762711864405 2.9 0  3.508474576271184 2.9 0  3.471186440677964 2.9 0  3.433898305084744 2.9 0  3.396610169491524 2.9 0  3.359322033898303 2.9 0  3.322033898305083 2.9 0  3.284745762711863 2.9 0  3.247457627118643 2.9 0  3.210169491525423 2.9 0  3.172881355932202 2.9 0  3.135593220338982 2.9 0  3.098305084745762 2.9 0  3.061016949152542 2.9 0  3.023728813559321 2.9 0  2.986440677966101 2.9 0  2.949152542372881 2.9 0  2.911864406779661 2.9 0  2.87457627118644 2.9 0  2.83728813559322 2.9 0  5 0.1063822624840908 0  5 0.210636879963479 0  5 0.3128064053000104 0  5 0.4129325399736057 0  5 0.5110561519920087 0  5 0.6072172917522097 0  5 0.7014552086337308 0  5 0.7938083672768746 0  5 0.8843144624325437 0  5 0.9730104357533907 0  5 1.059932489779506 0  5 1.145116102681561 0  5 1.228596043237163 0  5 1.310406384819408 0  5 1.39058051967151 0  5 1.46915117219283 0  5 1.546150411689349 0  5 1.621609666350684 0  5 1.695559735780513 0  5 1.76803080351128 0  5 1.839052449831632 0  5 1.908653663284034 0  5 1.976862852540214 0  5 2.043707858250082 0  5 2.109215963970139 0  5 2.173413907547539 0  5 2.236327892447888 0  5 2.29798359737153 0  5 2.358406188061876 0  5 2.417620326899216 0  5 2.475650183036803 0  5 2.532519442044509 0  5 2.588251315695885 0  5 2.642868552136335 0  5 2.696393444001645 0  5 2.748847837883952 0  5 2.800253143882191 0  5 2.85063034388582 0  0.2631578947368421 0 0  0.5263157894736842 0 0  0.7894736842105263 0 0  1.052631578947368 0 0  1.31578947368421 0 0  1.578947368421053 0 0  1.842105263157895 0 0  2.105263157894737 0 0  2.368421052631579 0 0  2.631578947368421 0 0  2.894736842105263 0 0  3.157894736842105 0 0  3.421052631578947 0 0  3.684210526315789 0 0  3.947368421052632 0 0  4.210526315789473 0 0  4.473684210526315 0 0  4.736842105263158 0 0  0 2.850203682350569 0  0 2.799411438503675 0  0 2.747603349778291 0  0 2.694759099502208 0  0 2.640857964382145 0  0 2.58587880633613 0  0 2.52980006535898 0  0 2.472599749459174 0  0 2.414255427218689 0  0 2.35474421880616 0  0 2.294042786119219 0  0 2.232127324764723 0  0 2.1689735539481 0  0 2.104556707683346 0  0 2.038851524813415 0  0 1.971832238155654 0  0 1.903472565412125 0  0 1.83374569926617 0  0 1.762624296208474 0  0 1.690080464918761 0  0 1.616085756774205 0  0 1.540611154706337 0  0 1.463627060685571 0  0 1.385103284916206 0  0 1.305009033716617 0  0 1.223312897337225 0  0 1.139982838163732 0  0 1.054986177579937 0  0 0.9682895835804808 0  0 0.8798590579197967 0  0 0.789659921841535 0  0 0.6976568029903634 0  0 0.6038136217958807 0  0 0.508093576867624 0  0 0.4104591310957497 0  0 0.31087199635222 0  0 0.2092931188294389 0  0 0.1056826638508546 0  1.434832105734982 2.866945754976478 0  1.737156300412976 2.8700394402447 0  2.032203389830508 2.867707527316512 0  2.332911392405064 2.893422591869991 0  2.469810913221006 2.891944186617815 0  2.606221408801046 2.892519154968786 0  2.255455320556353 2.892068684938936 0  2.538247299178607 2.894964578175289 0  2.674683544303798 2.893422591869991 0  2.40126582278481 2.893422591869991 0  3.566125247274844 2.86502933617869 0  3.266101694915253 2.867707527316512 0  2.967796610169491 2.867707527316512 0  1.174288529771947 2.870795313883199 0  3.825423728813556 2.867707527316512 0  2.727766680241741 2.892655387639323 0  0.06601655192030442 1.502119107695954 0  4.933983535518289 1.50765079194109 0  0.9532124728076634 2.868722489784116 0  4.048935912505472 2.870640982963028 0  0.05930163367361851 1.866907161167415 0  4.943402512617702 1.871280731227115 0  4.271733869970415 2.865208656206698 0  0.724942092071192 2.863922936166216 0  0.05494499779911566 2.196469063120751 0  4.947228695435926 2.208030108416282 0  0.5406152149451962 2.866493807374646 0  4.459322033898304 2.868847558171501 0  2.18135593220339 2.875780645487384 0  2.81702715648046 2.876587550622478 0  4.928427208334964 1.186856072959362 0  0.07189226971603357 1.174626666111664 0  4.610299014391064 2.867003104061287 0  0.3897270066746503 2.869433095314649 0  1.5811324999839 2.868247328613121 0  1.887637879307645 2.869235851843492 0  3.413449426409203 2.867372048026557 0  3.116721298784139 2.865731235545648 0  2.644303797468355 2.893422591869991 0  2.370983221771223 2.892719513366117 0  2.302531645569621 2.89333678739629 0  2.758987341772152 2.894242393896969 0  0.04979653335696588 2.443411216910279 0  4.950470983481301 2.446866954190454 0  2.482937483056625 0.2513241088166693 0  1.70712950486069 0.1999998660928157 0  3.285846579639133 0.2292006256069719 0  4.907807122450741 0.8340823629079156 0  4.757627118644067 2.867707527316512 0  0.07734891246767406 0.8347594898806658 0  0.2390604736599493 2.861365431805748 0  0.8363213714273008 2.863896768913622 0  4.16086561018973 2.868916854014843 0  1.28254933196979 2.86761095296154 0  1.065094818264994 2.861284686078544 0  3.938181277358471 2.868651344087338 0  3.711492629398847 2.863574306894209 0  4.913693619806458 0.5579891341027028 0  0.08208328472281323 0.5559535993317524 0  2.696596932509445 2.892010483912606 0  0.04706410140274642 2.613055974506517 0  4.955577063959472 2.616518038416838 0  2.234177215189874 2.893422591869991 0  2.279795840517476 2.894038618939426 0  0.911735788765236 0.2117925286661764 0  4.055948041976698 0.2039101059740411 0  4.872119713756579 2.86763292637659 0  2.78011387899257 2.891535929611774 0  0.1327442468251299 2.85732490707
[...]
<PointData  Vectors="displacement"> 
<DataArray  type="Float64"  Name="displacement"  NumberOfComponents="3" format="ascii">8.3932388155838711e-05 -5.9061052081003983e-04 0.0000000000000000e+00  0.0000000000000000e+00 3.1825286327415728e-06 0.0000000000000000e+00  -8.7079857387529312e-05 -5.9381356719080127e-04 0.0000000000000000e+00  0.0000000000000000e+00 3.1969772069547041e-06 0.0000000000000000e+00  0.0000000000000000e+00 0.0000000000000000e+00 0.0000000000000000e+00  0.0000000000000000e+00 0.0000000000000000e+00 0.0000000000000000e+00  7.8936803186445011e-05 -5.1453338432668882e-04 0.0000000000000000e+00  7.5329177169718766e-05 -4.6683000255878012e-04 0.0000000000000000e+00  7.2732970382408102e-05 -4.2906707004773323e-04 0.0000000000000000e+00  7.0613976947053877e-05 -3.9709584520583108e-04 0.0000000000000000e+00  6.8769106891468081e-05 -3.6916970401461112e-04 0.0000000000000000e+00  6.7102625346642167e-05 -3.4429773040893968e-04 0.0000000000000000e+00  6.5556051054186087e-05 -3.2183979637360457e-04 0.0000000000000000e+00  6.4089732664215907e-05 -3.0135533857026644e-04 0.0000000000000000e+00  6.2677472926791068e-05 -2.8252178826717662e-04 0.0000000000000000e+00  6.1301855606717178e-05 -2.6510032072419362e-04 0.0000000000000000e+00  5.9949909686652217e-05 -2.4890859028997190e-04 0.0000000000000000e+00  5.8612575427090858e-05 -2.3379808067286321e-04 0.0000000000000000e+00  5.7284305708735286e-05 -2.1964825157838017e-04 0.0000000000000000e+00  5.5961251705308819e-05 -2.0636095640299605e-04 0.0000000000000000e+00  5.4640689416265313e-05 -1.9385494929514315e-04 0.0000000000000000e+00  5.3321038238912281e-05 -1.8206089729034516e-04 0.0000000000000000e+00  5.2001549944667834e-05 -1.7091958343081173e-04 0.0000000000000000e+00  5.0681251133983026e-05 -1.6037971623785748e-04 0.0000000000000000e+00  4.9360578165617299e-05 -1.5039665209620233e-04 0.0000000000000000e+00  4.8039855093145073e-05 -1.4093140047833451e-04 0.0000000000000000e+00  4.6719402102891366e-05 -1.3194970586423563e-04 0.0000000000000000e+00  4.5399636296912373e-05 -1.2342115977904039e-04 0.0000000000000000e+00  4.4081309212975049e-05 -1.1531803078260282e-04 0.0000000000000000e+00  4.2764721917430904e-05 -1.0761609603088682e-04 0.0000000000000000e+00  4.1450669576222380e-05 -1.0029353850546924e-04 0.0000000000000000e+00  4.0139782934959774e-05 -9.3330273381229332e-05 0.0000000000000000e+00  3.8832639161310464e-05 -8.6707943220378777e-05 0.0000000000000000e+00  3.7529515184469418e-05 -8.0410416681941620e-05 0.0000000000000000e+00  3.6231368546336650e-05 -7.4422593571956533e-05 0.0000000000000000e+00  3.4938013306603564e-05 -6.8730336955617638e-05 0.0000000000000000e+00  3.3650392930683594e-05 -6.3321194363334467e-05 0.0000000000000000e+00  3.2368743705310544e-05 -5.8183721581430968e-05 0.0000000000000000e+00  3.1093027711206819e-05 -5.3307312755009055e-05 0.0000000000000000e+00  2.9823819913829267e-05 -4.8681656828251785e-05 0.0000000000000000e+00  2.8561161256692657e-05 -4.4297928257930706e-05 0.0000000000000000e+00  2.7305274182574431e-05 -4.0147581626426634e-05 0.0000000000000000e+00  2.6056204446062187e-05 -3.6222755026025472e-05 0.0000000000000000e+00  2.4813991440554174e-05 -3.2516358873337133e-05 0.0000000000000000e+00  2.3578667419284983e-05 -2.9021613387425903e-05 0.0000000000000000e+00  2.2350170324473144e-05 -2.5732340454573818e-05 0.0000000000000000e+00  2.1128425362229971e-05 -2.2642818065523032e-05 0.0000000000000000e+00  1.9913305029334514e-05 -1.9747733394162721e-05 0.0000000000000000e+00  1.8704614541338491e-05 -1.7042165965753355e-05 0.0000000000000000e+00  1.7502207359887459e-05 -1.4521646419732934e-05 0.0000000000000000e+00  1.6305832932733359e-05 -1.2181968519238741e-05 0.0000000000000000e+00  1.5115235530362807e-05 -1.0019338592571380e-05 0.0000000000000000e+00  1.3930120913514034e-05 -8.0302518178914590e-06 0.0000000000000000e+00  1.2750170708923193e-05 -6.2115415515696062e-06 0.0000000000000000e+00  1.1575042571919487e-05 -4.5603026583701529e-06 0.0000000000000000e+00  1.0404369012871542e-05 -3.0739516968210992e-06 0.0000000000000000e+00  9.2378066822346944e-06 -1.7501725442058651e-06 0.0000000000000000e+00  8.0748482238258041e-06 -5.8685652994217276e-07 0.0000000000000000e+00  6.9151557743711844e-06 4.1777680094440861e-07 0.0000000000000000e+00  5.7582774230054197e-06 1.2652367731571122e-06 0.0000000000000000e+00  4.6037977389940295e-06 1.9568507257683149e-06 0.0000000000000000e+00  3.4511498254646167e-06 2.4936966808800187e-06 0.0000000000000000e+00  2.2999607379882009e-06 2.8765772277108061e-06 0.0000000000000000e+00  1.1497359351609062e-06 3.1060716185562863e-06 0.0000000000000000e+00  -9.3412983216309279e-05 -6.3874864890908973e-04 0.0000000000000000e+00  -9.0168193831195826e-05 -6.5970284373593699e-04 0.0000000000000000e+00  -8.7411509540783285e-05 -6.7575053663167933e-04 0.0000000000000000e+00  -8.4802629777416041e-05 -6.8948102879125826e-04 0.0000000000000000e+00  -8.2378349695752122e-05 -7.0177019350198689e-04 0.0000000000000000e+00  -7.9991394524477988e-05 -7.1299715096056603e-04 0.0000000000000000e+00  -7.7620083533224668e-05 -7.2336548768038610e-04 0.0000000000000000e+00  -7.5258133123635477e-05 -7.3300552272631591e-04 0.0000000000000000e+00  -7.2897353526111085e-05 -7.4201219694622757e-04 0.0000000000000000e+00  -7.0536403859611067e-05 -7.5045718219436436e-04 0.0000000000000000e+00  -6.8173963338920136e-05 -7.5839481382998291e-04 0.0000000000000000e+00  -6.5808496212034723e-05 -7.6586819519028500e-04 0.0000000000000000e+00  -6.3440019618316902e-05 -7.7291312187967266e-04 0.0000000000000000e+00  -6.1068742569937538e-05 -7.7955834854800043e-04 0.0000000000000000e+00  -5.8694190859674139e-05 -7.8582831714868527e-04 0.0000000000000000e+00  -5.6317209502761835e-05 -7.9174488825665902e-04 0.0000000000000000e+00  -5.3937730357550394e-05 -7.9732599398254827e-04 0.0000000000000000e+00  -5.1555955651435234e-05 -8.0258729676524812e-04 0.0000000000000000e+00  -4.9172043393786004e-05 -8.0754268045993153e-04 0.0000000000000000e+00  -4.6786155015412123e-05 -8.1220424553258067e-04 0.0000000000000000e+00  -4.4398441410804952e-05 -8.1658274234711666e-04 0.0000000000000000e+00  -4.2009081617700639e-05 -8.2068767907231852e-04 0.0000000000000000e+00  -3.9618182212080310e-05 -8.2452747004875613e-04 0.0000000000000000e+00  -3.7225887042974525e-05 -8.2810969316979245e-04 0.0000000000000000e+00  -3.4832310244948528e-05 -8.3144108554900119e-04 0.0000000000000000e+00  -3.2437560059409271e-05 -8.3452758722079949e-04 0.0000000000000000e+00  -3.0041820217170766e-05 -8.3737455085885755e-04 0.0000000000000000e+00  -2.7645027067988839e-05 -8.3998671172122561e-04 0.0000000000000000e+00  -2.5247386725068575e-05 -8.4236836736703373e-04 0.0000000000000000e+00  -2.2849003266732860e-05 -8.4452325883600582e-04 0.0000000000000000e+00  -2.0449959095339871e-05 -8.4645472390971815e-04 0.0000000000000000e+00  -1.8050302099327974e-05 -8.4816565607502494e-04 0.0000000000000000e+00  -1.5650123387285077e-05 -8.4965859502712836e-04 0.0000000000000000e+00  -1.3249539877933352e-05 -8.5093570382888041e-04 0.0000000000000000e+00  -1.0848552273557019e-05 -8.5199876459173430e-04 0.0000000000000000e+00  -8.4473577164005976e-06 -8.5284936015119113e-04 0.0000000000000000e+00  -6.0458930259897330e-06 -8.5348863425714172e-04 0.0000000000000000e+00  -3.6442916345986625e-06 -8.5391745749687452e-04 0.0000000000000000e+00  -1.2426560116595547e-06 -8.5413644114835170e-04 0.0000000000000000e+00  1.1589725271887281e-06 -8.5414587502422794e-04 0.0000000000000000e+00  3.5605097356806087e-06 -8.5394576749203374e-04 0.0000000000000000e+00  5.9618784849776631e-06 -8.5353584548213579e-04 0.0000000000000000e+00  8.3629962557716206e-06 -8.5291555394066817e-04 0.0000000000000000e+00  1.0763760452958935e-05 -8.5208401712469795e-04 0.0000000000000000e+00  1.3164123682612725e-05 -8.5104007363703859e-04 0.0000000000000000e+00  1.5563971993076470e-05 -8.4978229374557549e-04 0.0000000000000000e+00  1.7963211563071052e-05 -8.4830887054761564e-04 0.0000000000000000e+00  2.0361750035461294e-05 -8.4661767311656458e-04 0.0000000000000000e+00  2.2759499830579842e-05 -8.4470623646100505e-04 0.0000000000000000e+00  2.5156318836989655e-05 -8.4257169885757811e-04 0.0000000000000000e+00  2.7552140576364666e-05 -8.4021084860679007e-04 0.0000000000000000e+00  2.9946878158152015e-05 -8.3761994536635546e-04 0.0000000000000000e+00  3.2340317293699851e-05 -8.3479483133910056e-04 0.0000000000000000e+00  3.4732433356941680e-05 -8.3173088270317480e-04 0.0000000000000000e+00  3.7123077139266461e-05 -8.2842279350085301e-04 0.0000000000000000e+00  3.9512113361490920e-05 -8.2486469308025272e-04 0.0000000000000000e+00  4.1899395113458756e-05 -8.2104995792040990e-04 0.0000000000000000e+00  4.4284866558346257e-05 -8.1697121425332872e-04 0.0000000000000000e+00  4.6668282600141328e-05 -8.1261997828935121e-04 0.0000000000000000e+00  4.9049431075254395e-05 -8.0798714318986115e-04 0.0000000000000000e+00  5.1428085141687906e-05 -8.0306206386824869e-04 0.0000000000000000e+00  5.3804102114113194e-05 -7.9783281335934304e-04 0.0000000000000000e+00  5.6177212089766764e-05 -7.9228583736113529e-04 0.0000000000000000e+00  5.8547170561149487e-05 -7.8640560955286782e-04 0.0000000000000000e+00  6.0913688403371712e-05 -7.8017442296302757e-04 0.0000000000000000e+00  6.3276543478701748e-05 -7.7357143498245687e-04 0.0000000000000000e+00  6.5635133129545410e-05 -7.6657242893879538e-04 0.0000000000000000e+00  6.7989424681402447e-05 -7.5914869092281057e-04 0.0000000000000000e+00  7.0339362987814453e-05 -7.5126646652635498e-04 0.0000000000000000e+00  7.2683219677613538e-05 -7.4288242508756827e-04 0.0000000000000000e+00  7.5020140157741936e-05 -7.3394427350956259e-04 0.0000000000000000e+00  7.7349925338692559e-05 -7.2438829685144660e-04 0.0000000000000000e+00  7.9671432401361587e-05 -7.1413179380144722e-04 0.0000000000000000e+00  8.1985315944557621e-05 -7.0305586483163747e-04 0.0000000000000000e+00  8.4307669607018316e-05 -6.9098025871544208e-04 0.0000000000000000e+00  8.6598958957079340e-05 -6.7761575891283471e-04 0.0000000000000000e+00  8.8866978208630809e-05 -6.6269316341817082e-04 0.0000000000000000e+00  9.2238174129241455e-05 -6.4237313143648649e-04 0.0000000000000000e+00  -1.1513417826129258e-06 3.1205144185583032e-06 0.0000000000000000e+00  -2.3031673022447612e-06 2.8909868072830742e-06 0.0000000000000000e+00  -3.4559548598676238e-06 2.5080610979389911e-06 0.0000000000000000e+00  -4.6101849434188286e-06 1.9711466076434488e-06 0.0000000000000000e+00  -5.7663274888208697e-06 1.2794330414039886e-06 0.0000000000000000e+00  -6.9248688305242924e-06 4.3182923641917242e-07 0.0000000000000000e+00  -8.0862085149545095e-06 -5.7291256488997095e-07 0.0000000000000000e+00  -9.2508347376100235e-06 -1.7363776199451946e-06 0.0000000000000000e+00  -1.0419151815056760e-05 -3.0603604600092789e-06 0.0000000000000000e+00  -1.1591577668928418e-05 -4.5469326722669505e-06 0.0000000000000000e+00  -1.2768494911471236e-05 -6.1984091180029681e-06 0.0000000000000000e+00  -1.3950284039939655e-05 -8.0173896771796229e-06 0.0000000000000000e+00  -1.5137282345277760e-05 -1.0006764795157904e-05 0.0000000000000000e+00  -1.6329812659480178e-05 -1.2169714504544877e-05 0.0000000000000000e+00  -1.7528177635077761e-05 -1.4509732822882602e-05 0.0000000000000000e+00  -1.8732643416319826e-05 -1.7030640356949874e-05 0.0000000000000000e+00  -1.9943448350760061e-05 -1.9736592672416270e-05 0.0000000000000000e+00  -2.1160787625137322e-05 -2.2632154138065372e-05 0.0000000000000000e+00  -2.2384825145006645e-05 -2.5722185623308657e-05 0.0000000000000000e+00  -2.3615707499128517e-05 -2.9012015488334183e-05 0.0000000000000000e+00  -2.4853597119601364e-05 -3.2507364409445970e-05 0.0000000000000000e+00  -2.6098343032085806e-05 -3.6214332999922886e-05 0.0000000000000000e+00  -2.7350151028877129e-05 -4.0139774223461095e-05 0.0000000000000000e+00  -2.8608915902419694e-05 -4.4290873358582500e-05 0.0000000000000000e+00  -2.9874574964188394e-05 -4.8675429835855234e-05 0.0000000000000000e+00  -3.1146990493414992e-05 -5.3301885353734048e-05 0.0000000000000000e+00  -3.2425988608429903e-05 -5.8179381743625331e-05 0.0000000000000000e+00  -3.3711339661458881e-05 -6.3317811992292513e-05 0.0000000000000000e+00  -3.5002811625383344e-05 -6.8727916679280952e-05 0.0000000000000000e+00  -3.6300063250797457e-05 -7.4421287993196210e-05 0.0000000000000000e+00  -3.7602702401117409e-05 -8.0410594364440909e-05 0.0000000000000000e+00  -3.8910303564712774e-05 -8.6709576315863494e-05 0.0000000000000000e+00  -4.0222815615733672e-05 -9.3333462388790243e-05 0.0000000000000000e+00  -4.1538821628314173e-05 -1.0029863796950029e-04 0.0000000000000000e+00  -4.2858609269105709e-05 -1.0762328935548835e-04 0.0000000000000000e+00  -4.4181486960027378e-05 -1.1532723956176020e-04 0.0000000000000000e+00  -4.5506809867546216e-05 -1.2343260466998913e-04 0.0000000000000000e+00  -4.6833896331393985e-05 -1.3196392341823505e-04 0.0000000000000000e+00  -4.8162427989413262e-05 -1.4094859679496339e-04 0.0000000000000000e+00  -4.9492086363277816e-05 -1.5041719046951006e-04 0.0000000000000000e+00  -5.0822486931077472e-05 -1.6040415100691130e-04 0.0000000000000000e+00  -5.2153433665727603e-05 -1.7094865043465262e-04 0.0000000000000000e+00  -5.3485472617560905e-05 -1.8209518633309789e-04 0.0000000000000000e+00  -5.4818647180068606e-05 -1.9389498295825018e-04 0.0000000000000000e+00  -5.6153918880590109e-05 -2.0640726268434772e-04 0.0000000000000000e+00  -5.7493545033195219e-05 -2.1970209513738227e-04 0.0000000000000000e+00  -5.8840807748913681e-05 -2.3386124775020268e-04 0.0000000000000000e+00  -6.0199752396647926e-05 -2.4898365620630450e-04 0.0000000000000000e+00  -6.1577456258857217e-05 -2.6518856552779064e-04 0.0000000000000000e+00  -6.2982041878394728e-05 -2.8262341303533024e-04 0.0000000000000000e+00  -6.4428338160197883e-05 -3.0147723963925362e-04 0.0000000000000000e+00  -6.5935166871671969e-05 -3.2198357321226408e-04 0.0000000000000000e+00  -6.7528680346026811e-05 -3.4447352208663036e-04 0.0000000000000000e+00  -6.9253983990350879e-05 -3.6938460963663767e-04 0.0000000000000000e+00  -7.1175732037913518e-05 -3.9735856720278073e-04 0.0000000000000000e+00  -7.3411411638166186e-05 -4.2939969318196974e-04 0.0000000000000000e+00  -7.6109671958546842e-05 -4.6728693786635117e-04 0.0000000000000000e+00  -8.0109380243821159e-05 -5.1514203768604624e-04 0.0000000000000000e+00  0.0000000000000000e+00 -4.2971876281961954e-06 0.0000000000000000e+00  0.0000000000000000e+00 -7.8322384329208263e-06 0.0000000000000000e+00  0.0000000000000000e+00 -1.0711296793172120e-05 0.0000000000000000e+00  0.0000000000000000e+00 -1.3024724792365642e-05 0.0000000000000000e+00  0.0000000000000000e+00 -1.4839372078289784e-05 0.0000000000000000e+00  0.0000000000000000e+00 -1.6211220445703624e-05 0.0000000000000000e+00  0.0000000000000000e+00 -1.7186433657516199e-05 0.0000000000000000e+00  0.0000000000000000e+00 -1.7804112446431592e-05 0.0000000000000000e+00  0.0000000000000000e+00 -1.8094699216695648e-05 0.0000000000000000e+00  0.0000000000000000e+00 -1.8090701729824322e-05 0.0000000000000000e+00  0.0000000000000000e+00 -1.7817936880515139e-05 0.0000000000000000e+00  0.0000000000000000e+00 -1.7302244136777022e-05 0.0000000000000000e+00  0.0000000000000000e+00 -1.6569768791085077e-05 0.0000000000000000e+00  0.0000000000000000e+00 -1.5645674121653017e-05 0.0000000000000000e+00  0.0000000000000000e+00 -1.4555443573388017e-05 0.0000000000000000e+00  0.0000000000000000e+00 -1.3325072331125820e-05 0.0000000000000000e+00  0.0000000000000000e+00 -1.1981294684994322e-05 0.0000000000000000e+00  0.0000000000000000e+00 -1.0550584409976637e-05 0.0000000000000000e+00  0.0000000000000000e+00 -9.0596199749795092e-06 0.0000000000000000e+00  0.0000000000000000e+00 -7.5349635856917898e-06 0.0000000000000000e+00  0.0000000000000000e+00 -6.0027266940939035e-06 0.0000000000000000e+00  0.0000000000000000e+00 -4.4880046247603246e-06 0.0000000000000000e+00  0.0000000000000000e+00 -3.0151396286784868e-06 0.0000000000000000e+00  0.0000000000000000e+00 -1.6061090797477808e-06 0.0000000000000000e+00  0.0000000000000000e+00 -2.8206944062831254e-07 0.0000000000000000e+00  0.0000000000000000e+00 9.3788278451955187e-07 0.0000000000000000e+00  0.0000000000000000e+00 2.0378720291072247e-06 0.0000000000000000e+00  0.0000000000000000e+00 3.0033244593549470e-06 0.0000000000000000e+00  0.0000000000000000e+00 3.8227657263822537e-06 0.0000000000000000e+00  0.0000000000000000e+00 4.4872106166397703e-06 0.0000000000000000e+00  0.0000000000000000e+00 4.9901593183997709e-06 0.0000000000000000e+00  0.0000000000000000e+00 5.3277648023869374e-06 0.0000000000000000e+00  0.0000000000000000e+00 5.4985395325552816e-06 0.0000000000000000e+00  0.0000000000000000e+00 5.5031913554215185e-06 0.0000000000000000e+00  0.0000000000000000e+00 5.3445934829990155e-06 0.0000000000000000e+00  0.0000000000000000e+00 5.0275217381641436e-06 0.0000000000000000e+00  0.0000000000000000e+00 4.5584694098069928e-06 0.0000000000000000e+00  0.0000000000000000e+00 3.9452557047658596e-06 0.0000000000000000e+00  0.0000000000000000e+00 0.0000000000000000e+00 0.0000000000000000e+00  0.0000000000000000e+00 0.0000000000000000e+00 0.0000000000000000e+00  0.0000000000000000e+00 0.0000000000000000e+00 0.0000000000000000e+00  0.0000000000000000e+00 0.0000000000000000e+00 0.0000000000000000e+00  0.0000000000000000e+00 0.0000000000000000e+00 0.0000000000000000e+00  0.0000000000000000e+00 0.0000000000000000e+00 0.0000000000000000e+00  0.0000000000000000e+00 0.0000000000000000e+00 0.0000000000000000e+00  0.0000000000000000e+00 0.0000000000000000e+00 0.0000000000000000e+00  0.0000000000000000e+00 0.0000000000000000e+00 0.0000000000000000e+00  0.0000000000000000e+00 0.0000000000000000e+00 0.0000000000000000e+00  0.0000000000000000e+00 0.0000000000000000e+00 0.0000000000000000e+00  0.0000000000000000e+00 0.0000000000000000e+00 0.0000000000000000e+00  0.0000000000000000e+00 0.0000000000000000e+00 0.0000000000000000e+00  0.0000000000000000e+00 0.0000000000000000e+00 0.0000000000000000e+00  0.0000000000000000e+00 0.0000000000000000e+00 0.0000000000000000e+00  0.0000000000000000e+00 0.0000000000000000e+00 0.0000000000000000e+00  0.0000000000000000e+00 0.0000000000000000e+00 0.0000000000000000e+00  0.0000000000000000e+00 0.0000000000000000e+00 0.0000000000000000e+00  0.0000000000000000e+00 3.9354927951557991e-06 0.0000000000000000e+00  0.0000000000000000e+00 4.5507222933876707e-06 0.0000000000000000e+00  0.0000000000000000e+00 5.0191288043257661e-06 0.0000000000000000e+00  0.0000000000000000e+00 5.3330689223849743e-06 0.0000000000000000e+00  0.0000000000000000e+00 5.4861799896385394e-06 0.0000000000000000e+00  0.0000000000000000e+00 5.4739803633792561e-06 0.0000000000000000e+00  0.0000000000000000e+00 5.2939299062244071e-06 0.0000000000000000e+00  0.0000000000000000e+00 4.9456109994232957e-06 0.0000000000000000e+00  0.0000000000000000e+00 4.4308967904466530e-06 0.0000000000000000e+00  0.0000000000000000e+00 3.7542214055024532e-06 0.0000000000000000e+00  0.0000000000000000e+00 2.9222628921944187e-06 0.0000000000000000e+00  0.0000000000000000e+00 1.9450295846001578e-06 0.0000000000000000e+00  0.0000000000000000e+00 8.3388806936580917e-07 0.0000000000000000e+00  0.0000000000000000e+00 -3.9621815093456829e-07 0.0000000000000000e+00  0.0000000000000000e+00 -1.7285804559932221e-06 0.0000000000000000e+00  0.0000000000000000e+00 -3.1437056386486671e-06 0.0000000000000000e+00  0.0000000000000000e+00 -4.6206658920911179e-06 0.0000000000000000e+00  0.0000000000000000e+00 -6.1370481768161553e-06 0.0000000000000000e+00  0.0000000000000000e+00 -7.6682886608227535e-06 0.0000000000000000e+00  0.0000000000000000e+00 -9.1892376197197682e-06 0.0000000000000000e+00  0.0000000000000000e+00 -1.0673916458669163e-05 0.0000000000000000e+00  0.0000000000000000e+00 -1.2096001496039770e-05 0.0000000000000000e+00  0.0000000000000000e+00 -1.3428939518937877e-05 0.0000000000000000e+00  0.0000000000000000e+00 -1.464